Title
29212
    1ASP      N    1   4.078   4.693   4.278  0.7612 -0.3698 -0.4481
    1ASP    HT1    2   4.028   4.753   4.209 -1.2460  1.3174  2.2535
    1ASP    HT2    3   4.174   4.733   4.276 -0.3838  2.6542 -0.4927
    1ASP    HT3    4   4.029   4.716   4.368  0.7749 -2.0339  0.0111
    1ASP     CA    5   4.078   4.543   4.249  0.9584 -0.3765  0.1353
    1ASP     HA    6   3.973   4.517   4.239  0.2906  1.9917  0.3524
    1ASP     CB    7   4.172   4.521   4.124  0.2536  0.6728 -0.0447
    1ASP    HB1    8   4.174   4.410   4.118  0.3752  0.5095  2.3481
    1ASP    HB2    9   4.277   4.549   4.146  0.7486  0.0836 -1.4933
    1ASP     CG   10   4.125   4.576   3.998 -0.0701  0.2555 -0.0286
    1ASP    OD1   11   4.187   4.560   3.889 -0.2891 -0.3218 -0.8250
    1ASP    OD2   12   4.024   4.652   4.009 -0.3128  0.1521  0.1268
    1ASP      C   13   4.128   4.472   4.375  0.5458  0.2143 -0.4010
    1ASP      O   14   4.189   4.540   4.457 -0.0979  0.6353  0.4453
    2GLY      N   15   4.100   4.339   4.400 -0.0449 -0.1607  0.2336
    2GLY     HN   16   4.054   4.275   4.338 -1.7439  1.2380 -0.0136
    2GLY     CA   17   4.154   4.282   4.523 -0.6870  0.1184 -0.1229
    2GLY    HA1   18   4.238   4.336   4.565  0.4917 -1.5981 -0.1736
    2GLY    HA2   19   4.168   4.175   4.513 -1.5594 -0.4048  2.9894
    2GLY      C   20   4.058   4.269   4.631  0.0807  0.2735 -0.0273
    2GLY      O   21   4.099   4.239   4.740  0.6035  0.4171 -0.0900
    3ASP      N   22   3.924   4.295   4.624  0.0979 -0.6444  0.7739
    3ASP     HN   23   3.888   4.313   4.533  0.6478 -0.4927  0.5842
    3ASP     CA   24   3.825   4.296   4.740 -0.5161  0.2186 -0.1088
    3ASP     HA   25   3.874   4.354   4.817  0.7510  0.0687 -0.7863
    3ASP     CB   26   3.695   4.373   4.694  0.1264 -0.4907  0.1459
    3ASP    HB1   27   3.628   4.321   4.622  1.3793 -0.1664 -1.3297
    3ASP    HB2   28   3.713   4.476   4.655 -1.6171  0.1176  0.8478
    3ASP     CG   29   3.611   4.418   4.815 -0.4397  0.8400 -0.3127
    3ASP    OD1   30   3.659   4.407   4.930  0.1039 -0.6859 -0.5097
    3ASP    OD2   31   3.497   4.465   4.803  0.0677 -0.5890  0.1437
    3ASP      C   32   3.818   4.156   4.805  0.7192  0.2603  0.0393
    3ASP      O   33   3.862   4.055   4.756  0.0331 -0.1768  0.2090
    4GLY      N   34   3.768   4.148   4.928 -0.0406 -0.3832 -0.1448
    4GLY     HN   35   3.733   4.232   4.969  0.1562  0.5164 -1.7392
    4GLY     CA   36   3.748   4.027   4.999  0.0573  0.7379  0.1642
    4GLY    HA1   37   3.727   4.057   5.101  3.0095  2.0733  0.4974
    4GLY    HA2   38   3.838   3.968   4.991  0.4090  1.3448 -0.4204
    4GLY      C   39   3.626   3.945   4.947  0.6951  0.2710 -0.3280
    4GLY      O   40   3.555   3.986   4.856  0.7337 -0.4081 -0.2970
    5PRO      N   41   3.610   3.822   5.009 -0.3010 -0.0272 -0.4679
    5PRO     CD   42   3.713   3.768   5.097 -0.9752  0.6397 -0.1015
    5PRO    HD1   43   3.732   3.834   5.184 -1.5567 -0.9364  1.2736
    5PRO    HD2   44   3.806   3.755   5.037 -0.8247  1.9118 -0.1763
    5PRO     CA   45   3.492   3.734   5.015 -0.0477  0.1666  0.4244
    5PRO     HA   46   3.478   3.687   4.919 -0.2366  2.2814 -0.6523
    5PRO     CB   47   3.513   3.646   5.142  0.2809  0.2482 -0.5056
    5PRO    HB1   48   3.466   3.546   5.132  0.3273  0.2274 -0.5157
    5PRO    HB2   49   3.483   3.697   5.236 -2.3099 -2.2445  0.1521
    5PRO     CG   50   3.662   3.635   5.152  0.2848  0.5049 -0.4057
    5PRO    HG1   51   3.685   3.621   5.260 -0.7995 -2.1813 -0.4264
    5PRO    HG2   52   3.693   3.552   5.085  1.0595 -0.6785  1.3189
    5PRO      C   53   3.358   3.808   5.029 -0.5858 -0.9112 -0.1352
    5PRO      O   54   3.345   3.921   5.091 -0.0238  0.4106  0.4437
    6GLY      N   55   3.248   3.741   4.982 -0.4322 -0.2846 -0.0734
    6GLY     HN   56   3.272   3.655   4.938  1.1959 -0.0615  0.3125
    6GLY     CA   57   3.107   3.796   4.979  0.3010 -0.8777  0.8991
    6GLY    HA1   58   3.081   3.871   5.052 -1.8350 -1.5364  0.8862
    6GLY    HA2   59   3.045   3.708   4.980 -1.0959  0.0598  0.8216
    6GLY      C   60   3.093   3.870   4.847  0.5469 -0.1087 -0.0170
    6GLY      O   61   3.188   3.919   4.785  0.1694  0.4425 -0.2263
    7ASP      N   62   2.965   3.902   4.806 -0.1255  0.1669 -0.3888
    7ASP     HN   63   2.897   3.847   4.852  1.6952 -1.1711  0.8525
    7ASP     CA   64   2.927   3.998   4.700  0.2930 -0.1936 -0.5902
    7ASP     HA   65   2.990   3.958   4.623  0.3967  0.1950 -0.7103
    7ASP     CB   66   2.769   3.978   4.670 -0.3198  1.0071  0.4211
    7ASP    HB1   67   2.753   4.045   4.583  1.4846 -1.0090 -1.5944
    7ASP    HB2   68   2.701   4.009   4.752  0.7731 -0.1644  1.8098
    7ASP     CG   69   2.736   3.828   4.623  0.0731 -0.5680  0.2202
    7ASP    OD1   70   2.618   3.790   4.644 -0.5996 -0.3784 -0.3108
    7ASP    OD2   71   2.815   3.771   4.547 -0.1467 -0.8990 -0.1323
    7ASP      C   72   2.965   4.141   4.731  0.7765  0.3232  0.4890
    7ASP      O   73   2.959   4.178   4.847  0.2338  0.4666  0.0731
    8PRO      N   74   2.994   4.225   4.625 -0.2113  0.2184  0.3839
    8PRO     CD   75   3.041   4.172   4.497 -0.4711 -0.0108  0.4345
    8PRO    HD1   76   2.976   4.095   4.449 -0.1699 -1.1205  1.7186
    8PRO    HD2   77   3.139   4.125   4.519 -0.3487 -0.2756 -0.6218
    8PRO     CA   78   3.004   4.365   4.627 -0.7496 -0.9418 -0.7060
    8PRO     HA   79   3.098   4.390   4.674 -0.6359 -1.0560 -0.8705
    8PRO     CB   80   3.001   4.405   4.475  0.6320 -0.3000 -0.0552
    8PRO    HB1   81   3.049   4.504   4.455 -2.7560  1.2218 -1.3237
    8PRO    HB2   82   2.898   4.418   4.437  0.0642  0.4782  1.6504
    8PRO     CG   83   3.071   4.289   4.404  0.5214 -0.3481 -0.0221
    8PRO    HG1   84   3.034   4.258   4.304  2.0399  2.0564 -1.4121
    8PRO    HG2   85   3.180   4.303   4.413  0.5317 -0.3061 -0.2166
    8PRO      C   86   2.902   4.445   4.702  0.2498  0.9277 -0.2856
    8PRO      O   87   2.781   4.402   4.710  0.3316 -0.2458 -0.6888
    9GLY      N   88   2.942   4.561   4.761 -0.0131 -0.2176  0.5200
    9GLY     HN   89   3.030   4.602   4.738  0.7196 -0.8688  2.0158
    9GLY     CA   90   2.848   4.657   4.832  0.2051  0.4147  0.5649
    9GLY    HA1   91   2.905   4.713   4.904  0.2291 -0.4045  1.1943
    9GLY    HA2   92   2.776   4.598   4.887 -0.8546 -0.5739 -1.7135
    9GLY      C   93   2.766   4.748   4.756  0.3278 -0.2452  0.4080
    9GLY      O   94   2.782   4.772   4.633  0.1003 -0.0405  0.1687
   10ASP      N   95   2.661   4.802   4.828  0.0824 -0.1176 -0.1855
   10ASP     HN   96   2.645   4.767   4.920 -1.6597 -1.0430 -0.7868
   10ASP     CA   97   2.558   4.892   4.775  0.0294 -0.5539  0.4452
   10ASP     HA   98   2.493   4.929   4.853  0.5539  2.1665 -0.2873
   10ASP     CB   99   2.602   5.031   4.720  0.2933  0.2114 -0.6161
   10ASP    HB1  100   2.516   5.092   4.687  0.0505  0.8230  1.0456
   10ASP    HB2  101   2.664   5.015   4.629 -0.4816  2.1266 -1.5324
   10ASP     CG  102   2.675   5.109   4.824 -0.0114 -0.2214  0.0847
   10ASP    OD1  103   2.748   5.197   4.777  0.1050 -0.0402 -0.4573
   10ASP    OD2  104   2.663   5.096   4.948 -0.2922 -0.3068  0.1056
   10ASP      C  105   2.464   4.824   4.676  0.3044 -0.0522  0.5106
   10ASP      O  106   2.481   4.707   4.643 -0.5318  0.2706 -0.2177
   11GLY      N  107   2.354   4.890   4.639  0.3651  0.9411 -0.5559
   11GLY     HN  108   2.341   4.977   4.685  0.8736  0.3452  0.7826
   11GLY     CA  109   2.239   4.851   4.555 -0.2267 -0.4246  0.2272
   11GLY    HA1  110   2.205   4.950   4.530 -0.9331 -0.2721  1.7093
   11GLY    HA2  111   2.173   4.794   4.619 -1.5131  1.9727  1.1277
   11GLY      C  112   2.264   4.761   4.430 -0.4056 -0.2927 -0.2772
   11GLY    OT1  113   2.308   4.645   4.444  0.3437 -0.2704  0.0288
   11GLY    OT2  114   2.226   4.800   4.320 -0.4376  0.2619  0.1331
   12LIT    LIT  115   4.192   2.245   5.554  0.2900 -0.0358  1.2334
   13LIT    LIT  116   2.391   4.556   4.571  0.3151  0.4309  0.1151
   14LIT    LIT  117   3.866   2.160   2.901 -0.2704 -0.0893 -0.3124
   15LIT    LIT  118   6.145   4.448   5.262 -0.0448 -0.0966 -0.8650
   16LIT    LIT  119   2.313   4.612   4.262  1.0436 -0.5046  0.7478
   17LIT    LIT  120   6.047   2.880   2.388  0.8063 -1.1899  1.2090
   18LIT    LIT  121   4.001   5.493   5.059 -0.4295  0.0714 -0.5237
   19LIT    LIT  122   0.592   5.811   2.371  0.0946  0.1546 -0.1492
   20LIT    LIT  123   0.816   5.080   1.785  0.4239 -0.5042  0.9956
   21LIT    LIT  124   2.233   6.228   2.982  0.1073 -0.2003  1.1078
   22LIT    LIT  125   1.141   1.633   1.230 -0.1624  0.7259  0.1103
   23LIT    LIT  126   4.614   4.909   5.524 -0.1255 -0.3165 -1.4070
   24LIT    LIT  127   3.280   2.773   4.045 -0.0098 -1.3782  0.7886
   25LIT    LIT  128   2.940   4.625   5.704 -0.1285  0.4317  0.0780
   26LIT    LIT  129   2.762   5.279   4.950 -0.0274  0.1151  0.8733
   27LIT    LIT  130   4.193   3.634   3.487 -0.4604  0.3338 -0.4286
   28LIT    LIT  131   5.948   0.779   5.726  0.1918 -0.7353 -0.7380
   29LIT    LIT  132   5.458   2.427   1.536  0.1163  0.6371 -0.4941
   30LIT    LIT  133   0.564   3.419   3.492 -0.5364 -0.6191  0.0011
   31LIT    LIT  134   3.632   0.349   3.856 -0.0945  0.5432  1.1716
   32LIT    LIT  135   4.026   2.937   1.560 -0.9049 -0.0280 -0.8271
   33LIT    LIT  136   4.397   3.928   5.241  0.1744  0.3991 -0.3753
   34LIT    LIT  137   5.814   2.170   5.888 -0.5576  0.5674  0.3077
   35LIT    LIT  138   1.037   2.068   4.815 -0.0122 -0.8041  1.0358
   36LIT    LIT  139   6.800   6.644   0.427 -0.2252  0.0250 -0.3032
   37LIT    LIT  140   3.183   3.372   4.372  0.1880 -0.6395 -0.3304
   38LIT    LIT  141   2.471   6.782   3.552 -0.0327  0.3288 -0.4620
   39LIT    LIT  142   3.487   5.618   3.377  0.8295 -0.0211 -0.5225
   40LIT    LIT  143   3.426   4.761   0.415  0.5401  0.0879 -0.0141
   41LIT    LIT  144   2.004   0.158   3.295 -0.2990 -0.1056 -0.3265
   42LIT    LIT  145   3.506   4.477   5.009 -0.9532 -0.1595  0.5372
   43CLA    CLA  146   0.454   1.124   1.610 -0.0616  0.1090 -0.1046
   44CLA    CLA  147   2.352   6.720   5.599  0.4316 -0.2351 -0.3698
   45CLA    CLA  148   2.727   3.969   2.445 -0.2208  0.3875 -0.2851
   46CLA    CLA  149   4.006   0.260   0.304  0.1740 -0.0514  0.1661
   47CLA    CLA  150   0.135   0.044   5.227  0.4485 -0.3358  0.1180
   48CLA    CLA  151   1.131   0.300   5.513 -0.1352 -0.0969  0.0048
   49CLA    CLA  152   2.607   6.105   1.339 -0.1527 -0.2973  0.1069
   50CLA    CLA  153   0.125   1.495   3.671  0.1322 -0.1735  0.2038
   51CLA    CLA  154   3.831   6.419   5.025  0.4150  0.0740 -0.1163
   52CLA    CLA  155   1.069   0.324   0.056 -0.4404 -0.2153 -0.1515
   53CLA    CLA  156   1.623   6.217   2.719  0.3353 -0.3958 -0.1538
   54CLA    CLA  157   6.166   6.011   0.694 -0.1721 -0.1867  0.2686
   55CLA    CLA  158   1.269   5.182   5.566  0.3175  0.1842 -0.0839
   56CLA    CLA  159   2.944   5.969   5.154 -0.4619  0.2217 -0.3914
   57CLA    CLA  160   0.927   1.780   0.169 -0.5230  0.1087  0.0642
   58CLA    CLA  161   4.491   3.705   5.267  0.2658 -0.5035 -0.3422
   59CLA    CLA  162   2.617   3.741   3.879  0.3992  0.2267  0.1071
   60CLA    CLA  163   5.854   0.682   3.684  0.0287  0.2017  0.0181
   61CLA    CLA  164   3.824   2.442   3.702 -0.0266  0.2940  0.1862
   62CLA    CLA  165   2.796   4.046   0.252  0.0672  0.0554  0.2318
   63CLA    CLA  166   6.335   5.040   3.774 -0.1945 -0.2685 -0.6914
   64CLA    CLA  167   4.080   1.083   0.775 -0.1404 -0.2519  0.2190
   65CLA    CLA  168   5.115   1.902   4.307  0.0876 -0.2473  0.0647
   66CLA    CLA  169   6.283   0.452   2.223 -0.1566  0.2426 -0.0699
   67CLA    CLA  170   4.852   5.996   2.474 -0.0473 -0.0979 -0.3738
   68CLA    CLA  171   1.338   4.457   5.572  0.2275 -0.0231 -0.2691
   69CLA    CLA  172   3.184   0.194   4.056  0.1180 -0.1366 -0.0115
   70TIP3   OH2  173   3.678   5.057   4.731 -0.0167 -0.6136  0.1373
   70TIP3    H1  174   3.600   5.038   4.679  0.1769 -0.7205 -0.1154
   70TIP3    H2  175   3.645   5.106   4.806 -0.5011 -1.7369  0.6889
   71TIP3   OH2  176   1.829   6.223   4.488  0.1741 -0.2087 -0.1264
   71TIP3    H1  177   1.906   6.274   4.510  0.7181 -0.6916 -0.8734
   71TIP3    H2  178   1.857   6.132   4.495 -0.9646 -0.4746  1.8662
   72TIP3   OH2  179   0.561   6.320   2.438 -0.2490 -0.3185  0.2886
   72TIP3    H1  180   0.522   6.377   2.504  0.4173 -1.7129  1.9663
   72TIP3    H2  181   0.570   6.376   2.361 -2.4361  0.9568  0.8618
   73TIP3   OH2  182   4.511   1.294   0.842 -0.1132 -0.4775 -0.1788
   73TIP3    H1  183   4.594   1.342   0.837 -0.6123  0.2866 -1.3842
   73TIP3    H2  184   4.490   1.293   0.936  0.9819 -0.2336  0.0905
   74TIP3   OH2  185   3.274   3.738   0.142  0.3111  0.3023  0.7919
   74TIP3    H1  186   3.358   3.775   0.169  0.0934  1.5100 -0.1410
   74TIP3    H2  187   3.210   3.805   0.164 -0.2911 -0.1787  0.5328
   75TIP3   OH2  188   6.229   1.147   4.018 -0.8651 -0.0227 -0.9211
   75TIP3    H1  189   6.214   1.232   4.060 -1.9359  0.7117 -2.6572
   75TIP3    H2  190   6.177   1.085   4.070  0.8760  0.0989  1.0904
   76TIP3   OH2  191   2.080   6.760   3.469 -0.1534  0.3961  0.9933
   76TIP3    H1  192   1.986   6.768   3.483 -0.1925  0.8996  0.4811
   76TIP3    H2  193   2.095   6.667   3.450 -0.7523  0.5511 -0.3496
   77TIP3   OH2  194   2.151   6.626   5.838  0.1549 -0.9079 -0.1996
   77TIP3    H1  195   2.214   6.603   5.906 -1.1599 -1.4884  0.8546
   77TIP3    H2  196   2.204   6.665   5.768  1.4194  0.9919  1.6957
   78TIP3   OH2  197   0.293   4.135   1.450  0.5089 -0.1801 -0.1131
   78TIP3    H1  198   0.251   4.103   1.530 -0.6397  0.0405 -0.6072
   78TIP3    H2  199   0.249   4.088   1.379  0.8525  0.3309 -0.6718
   79TIP3   OH2  200   5.831   3.886   1.000  0.2737  0.4490 -0.3280
   79TIP3    H1  201   5.784   3.966   0.977  0.7778  0.9551  0.3773
   79TIP3    H2  202   5.818   3.829   0.924  0.2121  1.3317 -1.0044
   80TIP3   OH2  203   3.208   2.510   2.816 -0.2359  0.2110 -0.0105
   80TIP3    H1  204   3.196   2.477   2.905  2.5807  0.0357  0.3689
   80TIP3    H2  205   3.190   2.435   2.760 -2.6531  0.4836  0.2949
   81TIP3   OH2  206   6.025   2.081   0.708  0.4052 -0.2888 -0.7132
   81TIP3    H1  207   6.087   2.086   0.781 -0.3269  1.8653 -0.1542
   81TIP3    H2  208   6.077   2.048   0.634  1.5038 -1.1614  0.4127
   82TIP3   OH2  209   6.447   0.441   1.169 -0.5634  0.0885  0.8188
   82TIP3    H1  210   6.422   0.379   1.238 -0.9384 -1.3641 -0.5466
   82TIP3    H2  211   6.392   0.518   1.185 -1.6258 -0.7465  1.3699
   83TIP3   OH2  212   4.200   1.329   0.665  0.3890  0.0823 -0.1336
   83TIP3    H1  213   4.175   1.242   0.696 -1.9815  1.0811  0.9441
   83TIP3    H2  214   4.117   1.376   0.655  1.6066  2.2537 -0.6422
   84TIP3   OH2  215   0.154   0.624   5.310 -0.4400  0.3633  0.0592
   84TIP3    H1  216   0.067   0.662   5.320 -0.1625  0.9594  0.2629
   84TIP3    H2  217   0.141   0.547   5.255 -0.8499  1.4647 -1.4691
   85TIP3   OH2  218   0.889   4.685   5.017 -0.0180  0.0150 -0.3388
   85TIP3    H1  219   0.918   4.729   5.097 -2.1415  1.6096 -0.3624
   85TIP3    H2  220   0.945   4.720   4.948  0.5099  0.1336  0.1430
   86TIP3   OH2  221   4.193   3.480   2.571  0.1664  0.6949 -0.0660
   86TIP3    H1  222   4.268   3.430   2.603 -0.0759 -1.0339 -2.0022
   86TIP3    H2  223   4.117   3.437   2.611  0.0166  0.1193 -0.9473
   87TIP3   OH2  224   5.527   3.018   3.198 -0.1685 -0.2873 -0.4800
   87TIP3    H1  225   5.495   2.928   3.200  0.0251 -0.3423  0.8005
   87TIP3    H2  226   5.622   3.010   3.189 -0.2985 -0.1443 -2.6263
   88TIP3   OH2  227   2.567   5.832   1.516 -0.2487 -0.2283  0.2405
   88TIP3    H1  228   2.518   5.786   1.447 -1.1062 -0.0691  0.7268
   88TIP3    H2  229   2.614   5.901   1.470  0.1156 -0.8526 -0.3415
   89TIP3   OH2  230   6.645   4.279   5.016 -0.1138  0.1414 -0.2119
   89TIP3    H1  231   6.584   4.206   5.007  0.5722 -0.5343  0.5025
   89TIP3    H2  232   6.726   4.248   4.974 -0.3901  1.2329 -1.6535
   90TIP3   OH2  233   1.188   6.479   5.128 -0.3344 -0.0803 -0.1935
   90TIP3    H1  234   1.244   6.432   5.190 -0.8011  1.5890  1.6185
   90TIP3    H2  235   1.226   6.566   5.122 -1.2033  0.2595 -1.0575
   91TIP3   OH2  236   0.920   1.184   1.675  0.6192  0.2876  0.2068
   91TIP3    H1  237   0.863   1.219   1.607  1.9672  0.0607 -1.0846
   91TIP3    H2  238   0.938   1.094   1.647 -1.2365 -0.9009  2.4749
   92TIP3   OH2  239   5.118   6.236   4.415  0.4478 -0.6572 -0.2648
   92TIP3    H1  240   5.191   6.294   4.394  1.5426 -1.0229  2.1536
   92TIP3    H2  241   5.042   6.293   4.423  1.0311  0.1166 -0.1969
   93TIP3   OH2  242   3.137   6.629   3.960 -1.1832 -0.6996 -0.6610
   93TIP3    H1  243   3.045   6.603   3.959 -1.1628 -0.8211 -0.0051
   93TIP3    H2  244   3.185   6.546   3.968 -1.0153 -0.6373 -1.0023
   94TIP3   OH2  245   2.711   6.269   4.797  0.6431 -0.0040  0.5451
   94TIP3    H1  246   2.664   6.323   4.861 -0.9832 -0.6021 -0.0997
   94TIP3    H2  247   2.745   6.332   4.734  1.7557  0.5392  1.6242
   95TIP3   OH2  248   4.891   3.531   3.355  0.1084  0.3044  0.0916
   95TIP3    H1  249   4.868   3.464   3.419  2.4359 -0.0563  0.6706
   95TIP3    H2  250   4.832   3.604   3.373  0.3482  0.0071  2.3280
   96TIP3   OH2  251   5.648   2.716   5.056 -0.3076  0.1343 -0.1451
   96TIP3    H1  252   5.645   2.762   5.140 -0.6675  2.4829 -1.3701
   96TIP3    H2  253   5.734   2.737   5.020  0.1925 -1.5579 -0.0618
   97TIP3   OH2  254   0.401   6.610   0.211  0.0233 -0.3793 -0.3865
   97TIP3    H1  255   0.441   6.695   0.230  0.3659 -0.4130 -0.9259
   97TIP3    H2  256   0.309   6.630   0.192  0.0386 -0.1644 -0.2343
   98TIP3   OH2  257   4.020   1.363   0.277 -0.2902  0.1324 -0.0155
   98TIP3    H1  258   3.998   1.402   0.361 -2.7748 -1.6118  0.2464
   98TIP3    H2  259   4.066   1.282   0.299  1.9904  1.2145 -0.4882
   99TIP3   OH2  260   3.324   3.553   2.514 -0.8379  0.1402  0.0773
   99TIP3    H1  261   3.306   3.489   2.444 -1.1198 -0.1720  0.4289
   99TIP3    H2  262   3.352   3.500   2.588 -0.8553  0.4465  0.3033
  100TIP3   OH2  263   4.942   4.466   3.628 -0.7486 -0.5018 -0.1285
  100TIP3    H1  264   4.930   4.521   3.551 -1.0737 -1.2629 -0.6327
  100TIP3    H2  265   5.017   4.411   3.607  0.3685  0.5720  0.8735
  101TIP3   OH2  266   4.581   4.147   5.732  0.0656  0.3649  0.0610
  101TIP3    H1  267   4.517   4.187   5.791  1.4307 -0.2952  2.1058
  101TIP3    H2  268   4.662   4.196   5.748  1.1086 -1.4761  0.6871
  102TIP3   OH2  269   0.661   5.284   2.206 -0.2582  0.5094  0.0513
  102TIP3    H1  270   0.666   5.286   2.301 -0.8865  1.6059  0.0710
  102TIP3    H2  271   0.745   5.319   2.176  0.4546 -1.0052  0.1616
  103TIP3   OH2  272   3.848   0.493   3.203  0.2637  0.5569  0.0364
  103TIP3    H1  273   3.827   0.418   3.148  1.9010  0.2656 -0.2518
  103TIP3    H2  274   3.765   0.538   3.216 -0.4078 -0.2055 -1.4243
  104TIP3   OH2  275   4.917   2.640   4.954 -0.1711  0.0739 -0.5808
  104TIP3    H1  276   5.009   2.614   4.963  0.0649  1.0346 -0.1321
  104TIP3    H2  277   4.882   2.581   4.887  1.0426  0.3967 -1.5335
  105TIP3   OH2  278   2.993   4.896   0.945  0.1169  0.5215 -0.3964
  105TIP3    H1  279   2.921   4.947   0.983 -0.2330 -0.4148  0.2379
  105TIP3    H2  280   2.985   4.909   0.851  0.3311  2.0141 -0.2351
  106TIP3   OH2  281   0.700   4.995   2.486 -0.0443  0.1105  0.2349
  106TIP3    H1  282   0.622   5.000   2.430 -0.0981  2.6123  0.4013
  106TIP3    H2  283   0.770   4.966   2.427 -0.6381  0.1530 -0.5146
  107TIP3   OH2  284   2.731   0.123   5.544  0.0169 -0.9035 -0.2038
  107TIP3    H1  285   2.714   0.208   5.503  3.1470 -0.8222 -1.6451
  107TIP3    H2  286   2.699   0.059   5.481 -0.1979 -0.7819 -0.2187
  108TIP3   OH2  287   0.654   6.067   1.349  0.0996 -0.0281 -0.0689
  108TIP3    H1  288   0.725   6.028   1.299 -1.1680  0.7075 -2.6025
  108TIP3    H2  289   0.582   6.004   1.344 -0.4585  0.6108 -0.2663
  109TIP3   OH2  290   2.565   1.071   2.039  0.0496  0.4662 -0.2382
  109TIP3    H1  291   2.539   0.980   2.027 -2.2884  0.7864  1.5732
  109TIP3    H2  292   2.616   1.070   2.121  0.7497  0.6784 -0.6668
  110TIP3   OH2  293   5.129   6.307   1.204 -0.0472 -0.2561  0.4203
  110TIP3    H1  294   5.150   6.398   1.225 -1.1808 -0.5943  3.5434
  110TIP3    H2  295   5.101   6.309   1.113 -0.0643  2.5186  0.4071
  111TIP3   OH2  296   0.362   4.298   1.670 -0.6751  0.0147 -0.2618
  111TIP3    H1  297   0.348   4.245   1.592 -1.2645 -0.1868 -0.0236
  111TIP3    H2  298   0.307   4.257   1.737  1.3351 -1.0722  0.8314
  112TIP3   OH2  299   1.551   0.707   2.098  0.3577  0.3418  0.2876
  112TIP3    H1  300   1.569   0.613   2.092  0.6877  0.3681  0.8347
  112TIP3    H2  301   1.494   0.715   2.175 -0.8933  0.4213 -0.6066
  113TIP3   OH2  302  -0.003   4.103   0.854  0.1182 -0.1165 -0.0403
  113TIP3    H1  303   0.077   4.107   0.907 -0.3493  0.9217  0.6183
  113TIP3    H2  304   0.005   4.176   0.792 -0.2705 -0.0779 -0.0481
  114TIP3   OH2  305   6.628   0.680   0.503 -0.5083  0.2876  0.1269
  114TIP3    H1  306   6.536   0.653   0.509 -0.6728  0.9339  0.7030
  114TIP3    H2  307   6.625   0.773   0.481 -0.0015  0.3493  0.2922
  115TIP3   OH2  308   0.898   0.145   4.318  0.8059 -0.0241  0.1496
  115TIP3    H1  309   0.843   0.089   4.263  0.7190  0.5328 -0.3359
  115TIP3    H2  310   0.849   0.227   4.324  0.6182 -0.1993  1.3886
  116TIP3   OH2  311   3.708   2.826   5.111 -0.2715 -0.4403  0.1405
  116TIP3    H1  312   3.678   2.742   5.077 -2.3041  0.5829 -0.7570
  116TIP3    H2  313   3.736   2.875   5.034 -0.0798  0.0716  0.5289
  117TIP3   OH2  314   1.322   4.756   2.395  0.3550 -0.4138  0.4803
  117TIP3    H1  315   1.348   4.690   2.459  1.3309  0.4035  0.9600
  117TIP3    H2  316   1.395   4.763   2.335  0.4390  0.4926  0.6637
  118TIP3   OH2  317   3.370   1.000   3.815  0.2501 -0.7279 -0.0696
  118TIP3    H1  318   3.393   0.909   3.835 -0.2123 -0.5050  1.5864
  118TIP3    H2  319   3.275   1.000   3.805  0.1451 -0.2796  0.8454
  119TIP3   OH2  320   4.251   3.101   5.031  0.0243  0.7887  0.3045
  119TIP3    H1  321   4.214   3.164   4.969  1.5359  1.7750  0.3584
  119TIP3    H2  322   4.291   3.034   4.976  0.0742  0.8858  0.2220
  120TIP3   OH2  323   0.610   2.461   4.541  0.1720 -0.5812  0.5835
  120TIP3    H1  324   0.518   2.454   4.516  0.8599  0.9314 -2.8639
  120TIP3    H2  325   0.608   2.498   4.630 -2.4640 -2.3634  1.3948
  121TIP3   OH2  326   1.784   4.605   0.535  0.0987  0.2713  0.3381
  121TIP3    H1  327   1.760   4.513   0.541 -0.9329  0.5964  1.5724
  121TIP3    H2  328   1.879   4.606   0.549  0.1715 -0.6160 -0.0095
  122TIP3   OH2  329   0.814   5.993   0.082 -0.1104 -0.6005 -0.1816
  122TIP3    H1  330   0.757   6.069   0.079  0.4286 -0.2172 -1.0012
  122TIP3    H2  331   0.791   5.942   0.004  1.8697  0.4664 -1.5376
  123TIP3   OH2  332   4.981   5.324   4.076 -0.1005 -0.2205  0.0506
  123TIP3    H1  333   5.033   5.326   4.156  0.9551 -0.8670 -0.6022
  123TIP3    H2  334   5.026   5.383   4.016 -1.3180  0.8764  0.1542
  124TIP3   OH2  335   5.071   0.170   3.218 -0.1794  0.6513  0.0746
  124TIP3    H1  336   5.143   0.211   3.170  0.4540 -1.2496 -0.7253
  124TIP3    H2  337   5.000   0.165   3.154  0.0087 -0.1379 -0.0855
  125TIP3   OH2  338   6.412   3.313   4.899 -0.1974  0.4238  0.2021
  125TIP3    H1  339   6.400   3.356   4.814  0.7957 -0.0816 -0.2108
  125TIP3    H2  340   6.497   3.271   4.892  1.1668  2.5435  2.3926
  126TIP3   OH2  341   2.315   3.943   2.482 -0.7845  0.5987 -0.1609
  126TIP3    H1  342   2.343   3.863   2.437 -1.2775  0.9192 -1.0737
  126TIP3    H2  343   2.371   3.949   2.558  0.8982  0.6454 -1.3507
  127TIP3   OH2  344   6.562   3.901   1.797 -0.3289 -0.2798  0.5287
  127TIP3    H1  345   6.572   3.817   1.842 -0.6109  0.3473  1.8241
  127TIP3    H2  346   6.468   3.914   1.791 -0.2935  0.3360  1.1431
  128TIP3   OH2  347   4.294   4.538   4.799 -0.2832 -0.0561 -0.0509
  128TIP3    H1  348   4.362   4.574   4.743 -0.8322  0.7258 -0.2280
  128TIP3    H2  349   4.319   4.446   4.811  0.5385  0.1007 -0.4959
  129TIP3   OH2  350   3.620   0.649   3.887  0.7754 -0.2716  0.2444
  129TIP3    H1  351   3.534   0.683   3.909  1.0268 -0.2155  1.1684
  129TIP3    H2  352   3.617   0.635   3.792 -1.0184 -2.4282  0.5563
  130TIP3   OH2  353   3.899   2.361   1.744  0.1422 -0.4579 -0.9461
  130TIP3    H1  354   3.948   2.297   1.692  1.2311  0.7606 -1.4815
  130TIP3    H2  355   3.935   2.445   1.717 -2.3750  0.5222 -1.4652
  131TIP3   OH2  356   3.882   4.426   2.648  0.2265 -0.3403  0.2386
  131TIP3    H1  357   3.975   4.448   2.653 -0.2032  1.4450  1.4537
  131TIP3    H2  358   3.857   4.404   2.738 -1.2362  2.7740  0.7427
  132TIP3   OH2  359   5.460   0.542   5.328  0.0119  0.4627  0.6406
  132TIP3    H1  360   5.548   0.536   5.292  0.0150  1.6907  0.3853
  132TIP3    H2  361   5.410   0.589   5.261 -0.7588  0.0626  0.9234
  133TIP3   OH2  362   2.963   2.638   0.497 -0.5070 -0.3998 -0.0866
  133TIP3    H1  363   2.941   2.675   0.411 -2.2273  1.6182  1.1196
  133TIP3    H2  364   2.880   2.640   0.545  0.9516  1.3669  2.5956
  134TIP3   OH2  365   5.058   0.945   0.013 -0.1745  0.3837 -0.5273
  134TIP3    H1  366   5.005   1.013   0.055 -1.8307 -0.9563 -0.3422
  134TIP3    H2  367   5.071   0.879   0.080  3.1153  1.3087 -0.1017
  135TIP3   OH2  368   6.874   4.619   1.981 -0.0937  0.0610 -0.2559
  135TIP3    H1  369   6.926   4.547   2.017  1.1869  0.8691 -0.4346
  135TIP3    H2  370   6.796   4.576   1.946  0.1051 -1.1037  0.6514
  136TIP3   OH2  371   5.758   4.159   1.009  0.2811  0.2890 -0.6032
  136TIP3    H1  372   5.780   4.234   0.954  1.2687  0.6317  0.2272
  136TIP3    H2  373   5.668   4.176   1.038  0.8134  1.6560  0.3373
  137TIP3   OH2  374   2.077   2.222   0.138  0.4420  0.6140 -0.3640
  137TIP3    H1  375   2.080   2.159   0.210  0.0302 -0.2200 -1.0621
  137TIP3    H2  376   2.131   2.183   0.070 -0.6246  0.5317 -1.1817
  138TIP3   OH2  377   3.014   6.532   0.296 -0.9498  0.3503 -0.1791
  138TIP3    H1  378   3.070   6.530   0.374  0.9940 -2.8801 -1.4366
  138TIP3    H2  379   3.035   6.614   0.253  1.6478 -0.0040  0.2676
  139TIP3   OH2  380  -0.018   6.804   3.239 -0.0641 -0.4332  0.1731
  139TIP3    H1  381  -0.010   6.742   3.168 -1.6292 -1.2984  0.7072
  139TIP3    H2  382   0.043   6.772   3.306  0.8832 -0.0113 -0.4502
  140TIP3   OH2  383   0.222   4.320   2.481  0.1725  0.4882 -0.1254
  140TIP3    H1  384   0.253   4.236   2.446  2.4360  1.7063 -1.2276
  140TIP3    H2  385   0.141   4.298   2.527  0.5711 -2.2528 -0.5754
  141TIP3   OH2  386   1.052   3.734   1.032  0.0231  0.8319  0.1949
  141TIP3    H1  387   1.041   3.764   1.122  0.8718 -0.4428  0.7524
  141TIP3    H2  388   1.145   3.748   1.013  0.2303 -0.4774  0.1408
  142TIP3   OH2  389   0.443   5.750   2.851  0.1970  0.2218  0.6116
  142TIP3    H1  390   0.370   5.810   2.866 -1.4731 -1.0541 -1.6409
  142TIP3    H2  391   0.492   5.790   2.779  0.9719  0.4136  1.2340
  143TIP3   OH2  392   3.609   2.460   3.502 -0.0880  0.3268  0.8125
  143TIP3    H1  393   3.554   2.384   3.519 -1.4774  1.2972  0.8063
  143TIP3    H2  394   3.687   2.446   3.556 -0.2329 -1.1657  0.6787
  144TIP3   OH2  395   4.299   2.569   3.364  0.0713  0.7220  0.4966
  144TIP3    H1  396   4.251   2.649   3.344 -0.7893  0.1953  0.4272
  144TIP3    H2  397   4.350   2.551   3.285 -1.1564  0.2005 -0.2081
  145TIP3   OH2  398   6.245   1.376   4.151 -0.2598 -0.0755 -0.3509
  145TIP3    H1  399   6.305   1.445   4.179  0.1055 -0.8311  0.8013
  145TIP3    H2  400   6.175   1.423   4.106 -1.2040  1.3489  2.3652
  146TIP3   OH2  401   6.316   1.897   1.048 -0.0932  0.0098 -0.2651
  146TIP3    H1  402   6.280   1.826   1.101 -0.8436  0.9031  0.4866
  146TIP3    H2  403   6.408   1.902   1.074 -0.2451 -0.1291  0.3203
  147TIP3   OH2  404   5.680   5.604   2.639  0.3631 -0.4994  0.5345
  147TIP3    H1  405   5.693   5.696   2.662  0.3604 -0.3738  0.0419
  147TIP3    H2  406   5.628   5.606   2.558  0.6511 -0.9246  0.3346
  148TIP3   OH2  407   5.252   0.046   3.731 -0.3844 -0.3402  0.0602
  148TIP3    H1  408   5.331   0.072   3.685 -1.1637  1.3443 -0.3907
  148TIP3    H2  409   5.258  -0.050   3.737 -0.2085 -0.6717 -3.5079
  149TIP3   OH2  410   1.560   6.557   1.685  0.4731 -0.1639 -0.3752
  149TIP3    H1  411   1.589   6.522   1.769 -0.6366 -1.4853 -0.5122
  149TIP3    H2  412   1.508   6.635   1.708 -2.2094 -2.0454  0.4645
  150TIP3   OH2  413   4.485   4.377   3.156  0.4076 -0.2349  0.5312
  150TIP3    H1  414   4.559   4.333   3.114 -0.4674 -1.4493  0.2095
  150TIP3    H2  415   4.467   4.452   3.100  2.6289  1.2710  1.6758
  151TIP3   OH2  416   1.078   5.720   5.208  0.8497 -0.5469  0.3315
  151TIP3    H1  417   1.025   5.648   5.242  0.9300 -0.8211 -0.1160
  151TIP3    H2  418   1.015   5.791   5.193  0.1950 -1.5467 -2.1842
  152TIP3   OH2  419   5.567   4.726   2.868 -0.1129 -0.2016  0.0572
  152TIP3    H1  420   5.541   4.636   2.848  0.8635 -0.5220  0.1537
  152TIP3    H2  421   5.660   4.730   2.843  1.0306 -0.3968  3.6506
  153TIP3   OH2  422   6.809   1.669   0.726  0.5422 -0.5445 -0.4864
  153TIP3    H1  423   6.839   1.583   0.755 -0.2629 -1.7949 -3.1196
  153TIP3    H2  424   6.798   1.661   0.631 -0.5330  2.1743 -0.6927
  154TIP3   OH2  425   1.949   5.574   3.314  0.1909 -0.0191  0.6394
  154TIP3    H1  426   2.001   5.540   3.386  2.2558 -0.2520 -0.8848
  154TIP3    H2  427   1.885   5.505   3.295 -0.0454 -0.1593  1.8706
  155TIP3   OH2  428   2.711   3.140   5.320  0.0354 -0.0278 -0.0511
  155TIP3    H1  429   2.656   3.114   5.246  0.2473  2.3057 -1.1507
  155TIP3    H2  430   2.656   3.125   5.397 -0.7319 -1.1976 -0.7963
  156TIP3   OH2  431   3.824   4.904   2.672  0.4256  0.2441  0.3438
  156TIP3    H1  432   3.782   4.821   2.698 -0.6286  1.1353  1.6115
  156TIP3    H2  433   3.900   4.877   2.621 -0.8842 -1.4844 -0.8322
  157TIP3   OH2  434   4.906   2.371   2.728 -0.1585  0.0262  0.0221
  157TIP3    H1  435   4.831   2.312   2.717 -0.1673 -0.0375  0.4209
  157TIP3    H2  436   4.869   2.450   2.767 -0.6518  1.4265 -3.0038
  158TIP3   OH2  437   0.517   0.129   1.574  0.1743 -0.2110 -0.0317
  158TIP3    H1  438   0.425   0.134   1.600  0.6042  1.8109  1.3276
  158TIP3    H2  439   0.549   0.218   1.583  2.3008 -0.8888 -0.3988
  159TIP3   OH2  440   5.671   3.208   5.458  0.2782 -0.1076 -0.0189
  159TIP3    H1  441   5.695   3.117   5.477 -2.0306 -0.8062 -0.1497
  159TIP3    H2  442   5.628   3.205   5.373 -1.3848  0.7828  0.7317
  160TIP3   OH2  443   5.979   5.547   4.212 -0.3844 -0.3484  0.5860
  160TIP3    H1  444   5.893   5.577   4.184 -0.0655 -0.5234 -0.6023
  160TIP3    H2  445   5.961   5.467   4.262 -0.8776 -0.7017 -0.1351
  161TIP3   OH2  446   5.023   6.596   1.734 -0.6537 -0.0627  0.5956
  161TIP3    H1  447   5.091   6.554   1.787  1.7374  1.2229 -1.2305
  161TIP3    H2  448   4.998   6.531   1.670  0.5692  0.1466 -0.1253
  162TIP3   OH2  449   4.952   2.010   5.728 -0.3268 -0.1255 -0.0835
  162TIP3    H1  450   4.999   2.077   5.777  0.8320 -0.0530 -1.2266
  162TIP3    H2  451   4.882   1.981   5.787  0.6322  0.3748  1.3545
  163TIP3   OH2  452   4.322   6.613   2.247 -0.0679  0.3283 -0.3672
  163TIP3    H1  453   4.344   6.554   2.175 -0.8189 -1.5055  0.8240
  163TIP3    H2  454   4.406   6.633   2.288  0.0923 -1.0981  0.0544
  164TIP3   OH2  455   4.345   2.460   1.796  0.0726  0.0839  0.2074
  164TIP3    H1  456   4.318   2.432   1.884 -0.2048  0.1246  0.1362
  164TIP3    H2  457   4.428   2.414   1.781 -0.1307 -0.3162  0.2921
  165TIP3   OH2  458   2.417  -0.007   1.112  0.1872  0.3887  0.9418
  165TIP3    H1  459   2.331  -0.048   1.096 -0.5470  1.0877  2.8775
  165TIP3    H2  460   2.402   0.086   1.096  0.4838  0.5602  1.6573
  166TIP3   OH2  461   3.328   2.603   3.959 -0.0272  0.6743  0.7413
  166TIP3    H1  462   3.408   2.551   3.961 -0.1235  0.5331  0.9038
  166TIP3    H2  463   3.292   2.588   3.872 -1.6554 -1.9525  1.7483
  167TIP3   OH2  464   4.181   2.131   3.218 -0.4723  0.1433  0.8571
  167TIP3    H1  465   4.149   2.177   3.296  1.7107  0.2552  1.7471
  167TIP3    H2  466   4.249   2.188   3.183  2.0987 -2.1766  1.7988
  168TIP3   OH2  467   2.699   2.556   1.099  0.2074 -0.6099 -0.2985
  168TIP3    H1  468   2.765   2.596   1.156  0.8489 -2.6385  0.4818
  168TIP3    H2  469   2.637   2.514   1.160  0.6690 -2.4696 -1.0469
  169TIP3   OH2  470   1.256   4.346   2.751  0.5142  0.3514  0.2048
  169TIP3    H1  471   1.224   4.381   2.834 -0.5170  1.0014 -0.4432
  169TIP3    H2  472   1.191   4.374   2.687  0.8499 -0.8718 -0.6962
  170TIP3   OH2  473   5.439   3.772   0.393  0.1161  0.0461  0.4813
  170TIP3    H1  474   5.348   3.801   0.394 -0.1166 -0.6841  0.6276
  170TIP3    H2  475   5.460   3.756   0.485  0.9365  1.8408  0.6675
  171TIP3   OH2  476   6.972   6.348   5.091 -0.3542  0.0463 -0.2571
  171TIP3    H1  477   7.063   6.376   5.084 -0.2303 -0.5981 -1.6947
  171TIP3    H2  478   6.940   6.388   5.171  1.0168  0.7877 -0.0552
  172TIP3   OH2  479   0.504   0.789   0.538 -0.7701  0.4824  0.0914
  172TIP3    H1  480   0.445   0.780   0.464 -1.1362 -0.7801  0.5227
  172TIP3    H2  481   0.574   0.846   0.506 -0.4271 -0.7875 -1.5403
  173TIP3   OH2  482   7.135   6.784   4.340 -0.5624 -0.2504  0.2407
  173TIP3    H1  483   7.181   6.867   4.355 -2.1625  0.7631 -0.1033
  173TIP3    H2  484   7.143   6.737   4.423  1.2038 -0.2030  0.1319
  174TIP3   OH2  485   2.145   0.331   5.633  0.2978  0.3326 -0.1476
  174TIP3    H1  486   2.156   0.284   5.715 -1.4794 -3.0297 -1.6189
  174TIP3    H2  487   2.227   0.314   5.585  0.6422  0.8564  0.2410
  175TIP3   OH2  488   4.355   2.090   2.573 -0.6666  0.5614  0.2510
  175TIP3    H1  489   4.424   2.116   2.513 -0.7100 -0.9162 -0.4976
  175TIP3    H2  490   4.365   2.149   2.648  1.0874  0.7116 -0.0454
  176TIP3   OH2  491   5.137   2.279   1.446 -0.5714  0.1410  0.2166
  176TIP3    H1  492   5.168   2.264   1.535  0.8945 -0.8434 -0.4102
  176TIP3    H2  493   5.181   2.212   1.394 -0.9097  1.0782 -1.3452
  177TIP3   OH2  494   7.159   1.569   0.066  0.0891 -0.3360 -0.2578
  177TIP3    H1  495   7.240   1.610   0.034  0.2101 -0.5459 -0.2247
  177TIP3    H2  496   7.170   1.565   0.161 -0.7809  1.3741 -0.0558
  178TIP3   OH2  497   1.240   6.718   3.559  0.3582  0.3892  0.7454
  178TIP3    H1  498   1.328   6.741   3.587  0.1845  2.6904 -0.3471
  178TIP3    H2  499   1.249   6.632   3.518  2.2802  0.9108 -0.0461
  179TIP3   OH2  500   5.314   6.301   5.588  0.4757  0.1427 -0.2681
  179TIP3    H1  501   5.296   6.364   5.658 -3.0748 -0.8015 -0.1253
  179TIP3    H2  502   5.315   6.353   5.508 -2.0500  0.5512 -0.1199
  180TIP3   OH2  503   2.020   0.924   4.019  0.3696 -0.0596  0.1161
  180TIP3    H1  504   2.025   0.942   4.113  0.1390 -1.9410  0.5349
  180TIP3    H2  505   2.109   0.898   3.995 -0.0342 -1.8535  0.3784
  181TIP3   OH2  506   1.346   2.415   0.681 -0.4954 -0.3926 -0.2488
  181TIP3    H1  507   1.379   2.395   0.593  1.8235 -2.1455  0.9065
  181TIP3    H2  508   1.253   2.395   0.676  0.0386 -3.1729 -1.6697
  182TIP3   OH2  509   2.271   6.102   4.296  0.1162 -0.5799  0.1747
  182TIP3    H1  510   2.298   6.100   4.388  1.8882 -1.8755 -0.3218
  182TIP3    H2  511   2.331   6.166   4.256 -0.9007  0.2689 -0.0357
  183TIP3   OH2  512   1.638   1.484   3.980  0.0450 -0.4340 -0.1190
  183TIP3    H1  513   1.644   1.408   4.037  0.4313  0.1984  0.7072
  183TIP3    H2  514   1.670   1.557   4.033 -1.5735  0.5560 -0.4020
  184TIP3   OH2  515   5.261   1.999   4.939 -0.0744  0.2357 -0.4271
  184TIP3    H1  516   5.317   2.077   4.946  1.5770 -1.0558  1.8046
  184TIP3    H2  517   5.296   1.952   4.864  0.4417  0.4805 -0.3446
  185TIP3   OH2  518   5.178   2.465   4.188  0.0806 -0.2989  0.0871
  185TIP3    H1  519   5.114   2.528   4.153 -0.4477  0.3567  2.0390
  185TIP3    H2  520   5.177   2.482   4.283  1.8453 -1.5211  0.3653
  186TIP3   OH2  521   2.848   2.499   5.765 -0.6328  0.6320 -0.2064
  186TIP3    H1  522   2.865   2.551   5.844  0.7909  0.5049 -0.4174
  186TIP3    H2  523   2.798   2.559   5.708 -0.8624  1.0362  0.4022
  187TIP3   OH2  524   0.624   0.691   3.517 -0.0250  0.4391  0.1168
  187TIP3    H1  525   0.575   0.620   3.476 -0.2714 -0.9225  2.5477
  187TIP3    H2  526   0.708   0.692   3.471 -1.1606  0.7800 -2.0816
  188TIP3   OH2  527   0.180   5.159   1.455 -0.0753 -0.1001  0.1826
  188TIP3    H1  528   0.235   5.169   1.532  0.9838  3.1804 -0.8414
  188TIP3    H2  529   0.230   5.103   1.395  1.5032  1.5349 -0.0933
  189TIP3   OH2  530   6.867   6.011   5.646  0.2126  0.0907 -0.4279
  189TIP3    H1  531   6.813   6.086   5.621  1.3884  1.7456  1.5679
  189TIP3    H2  532   6.945   6.051   5.685  1.8121 -2.2052 -1.1058
  190TIP3   OH2  533   6.503   5.581   3.136  0.6123  0.1827  0.5185
  190TIP3    H1  534   6.517   5.654   3.197  0.7323  0.1203  0.5666
  190TIP3    H2  535   6.520   5.619   3.050  0.4747  0.2634  0.5272
  191TIP3   OH2  536   6.264   2.077   2.975 -0.3745  1.0913  0.4134
  191TIP3    H1  537   6.299   1.988   2.980 -1.7278  0.5385  0.4162
  191TIP3    H2  538   6.306   2.123   3.048  0.0504  0.3623  0.6433
  192TIP3   OH2  539   1.801   2.936   5.361 -0.5775  0.0378  0.1110
  192TIP3    H1  540   1.769   3.025   5.342  0.5865  0.6828  1.0352
  192TIP3    H2  541   1.803   2.932   5.457 -2.4748 -1.7039  0.1380
  193TIP3   OH2  542   1.552   3.233   1.752 -0.6142  0.0072  0.7681
  193TIP3    H1  543   1.629   3.188   1.716 -0.3441  1.9832 -1.4575
  193TIP3    H2  544   1.477   3.186   1.716 -0.3708 -0.1549  0.4653
  194TIP3   OH2  545   4.953   5.186   3.513 -0.4205 -0.1703  0.1620
  194TIP3    H1  546   4.877   5.224   3.470 -1.7184  1.0139  3.1908
  194TIP3    H2  547   5.001   5.261   3.548 -0.3804 -1.0611  2.1381
  195TIP3   OH2  548   4.090   3.462   1.401 -0.1630  0.1681  1.0013
  195TIP3    H1  549   4.002   3.498   1.399 -0.3563 -0.3154 -0.9781
  195TIP3    H2  550   4.093   3.409   1.481 -1.6434  0.2222  1.1025
  196TIP3   OH2  551   3.939   5.512   3.753 -0.1146  0.1279 -0.0795
  196TIP3    H1  552   3.893   5.546   3.829 -1.6467 -0.1023 -0.8583
  196TIP3    H2  553   3.885   5.439   3.723  0.0112  0.6994 -1.8353
  197TIP3   OH2  554   5.806   0.473   2.200 -0.1911 -0.3038  1.0589
  197TIP3    H1  555   5.808   0.459   2.294  1.4738  0.0818  1.1010
  197TIP3    H2  556   5.874   0.538   2.183 -1.1359  0.3982 -0.3037
  198TIP3   OH2  557   4.833   4.688   5.171  0.2519 -0.6205 -0.4097
  198TIP3    H1  558   4.875   4.721   5.250 -0.7773 -0.6142  0.1611
  198TIP3    H2  559   4.804   4.766   5.124 -2.3811 -0.5801  1.0499
  199TIP3   OH2  560   0.922   5.487   5.268  0.1742 -0.0868  0.0150
  199TIP3    H1  561   0.869   5.416   5.232 -0.3648 -0.5148  1.5743
  199TIP3    H2  562   1.002   5.444   5.300  0.0814  0.0852  0.4836
  200TIP3   OH2  563   5.430   0.580   0.339  0.4064  0.2583 -0.1819
  200TIP3    H1  564   5.432   0.488   0.363  0.8545  0.4738  0.6525
  200TIP3    H2  565   5.348   0.591   0.291  0.7448 -0.7422 -1.0306
  201TIP3   OH2  566   0.400   3.790   5.795  0.2044 -0.4558  0.0723
  201TIP3    H1  567   0.382   3.712   5.849 -2.2756 -0.6437 -0.8865
  201TIP3    H2  568   0.468   3.837   5.843 -0.9949 -1.2288  2.7733
  202TIP3   OH2  569   3.027   3.380   2.295 -0.1395  0.5901 -0.0887
  202TIP3    H1  570   3.047   3.441   2.366  3.6110 -0.9826  0.4555
  202TIP3    H2  571   2.939   3.347   2.315 -0.6468  2.8428  1.7670
  203TIP3   OH2  572   4.553   2.991   5.397 -0.3615  0.3884 -0.0454
  203TIP3    H1  573   4.507   3.014   5.477  0.3501 -0.8666  0.7606
  203TIP3    H2  574   4.556   3.072   5.346  0.7207  1.6860  1.9891
  204TIP3   OH2  575   2.263   6.220   0.563 -0.3809  0.3912  0.0634
  204TIP3    H1  576   2.342   6.263   0.594 -0.5931  1.0814 -0.3314
  204TIP3    H2  577   2.197   6.290   0.561 -1.3298 -0.4215  1.5601
  205TIP3   OH2  578   6.828   1.833   5.317 -0.0112 -0.4537  0.2627
  205TIP3    H1  579   6.850   1.886   5.393  2.1257 -1.3789  0.3384
  205TIP3    H2  580   6.735   1.811   5.329 -0.4771  1.7090  1.1347
  206TIP3   OH2  581   3.391   0.112   2.312 -0.3280  0.3478 -0.2253
  206TIP3    H1  582   3.376   0.108   2.406  1.7916  1.3708  0.2171
  206TIP3    H2  583   3.315   0.159   2.278 -2.7007 -2.6929  0.4532
  207TIP3   OH2  584   3.673   5.180   2.827 -0.3531 -0.0359  0.3034
  207TIP3    H1  585   3.754   5.151   2.784  0.0074  0.5777  0.5612
  207TIP3    H2  586   3.668   5.273   2.809 -0.9767 -0.0607  0.3431
  208TIP3   OH2  587   1.547   2.667   1.683  0.0721 -0.2015 -0.0450
  208TIP3    H1  588   1.497   2.735   1.639  0.5377  0.4378  0.3956
  208TIP3    H2  589   1.571   2.606   1.612 -1.7065 -0.7902 -0.1835
  209TIP3   OH2  590   3.616   6.744   4.904 -0.0378  0.4246  0.2631
  209TIP3    H1  591   3.698   6.717   4.863 -1.1119 -1.8771 -0.5885
  209TIP3    H2  592   3.588   6.820   4.854  0.2808 -0.3863 -1.2170
  210TIP3   OH2  593   4.572   5.954   0.835  0.5178  0.0985 -0.0567
  210TIP3    H1  594   4.612   5.870   0.857  1.1934  0.7384  1.3108
  210TIP3    H2  595   4.539   5.988   0.919 -1.2542  0.4467 -0.8573
  211TIP3   OH2  596   3.946   1.403   1.306  0.4611 -0.7018  0.0496
  211TIP3    H1  597   3.908   1.326   1.349  0.4584  0.1951  1.7287
  211TIP3    H2  598   3.879   1.430   1.243  0.2941 -1.8122 -0.2823
  212TIP3   OH2  599   0.357   5.813   3.223  0.0591  0.0170 -0.4306
  212TIP3    H1  600   0.297   5.742   3.200 -0.1624 -0.9594  2.6830
  212TIP3    H2  601   0.305   5.893   3.214 -1.0635 -0.6251  0.1814
  213TIP3   OH2  602   3.197   2.354   3.049  0.0365 -0.4241  0.4801
  213TIP3    H1  603   3.177   2.399   3.131 -2.4871 -0.0217 -0.2902
  213TIP3    H2  604   3.119   2.302   3.030  0.8949 -1.1531 -1.2704
  214TIP3   OH2  605   6.183   5.904   4.978  1.3727 -0.3212 -0.1572
  214TIP3    H1  606   6.221   5.971   4.920  0.7596 -0.6574 -0.9641
  214TIP3    H2  607   6.097   5.886   4.941  0.6878 -0.0645  1.2609
  215TIP3   OH2  608   5.356   6.122   4.655 -0.2271 -0.3038  0.1486
  215TIP3    H1  609   5.320   6.184   4.591 -0.8433 -1.2981 -0.5069
  215TIP3    H2  610   5.388   6.176   4.726  2.8042  1.0848 -2.0467
  216TIP3   OH2  611   6.799   2.532   1.167  0.0587  0.1241 -0.6919
  216TIP3    H1  612   6.790   2.491   1.081  1.6731 -2.2302  0.1550
  216TIP3    H2  613   6.727   2.596   1.171 -0.9381 -0.7119 -3.1852
  217TIP3   OH2  614   0.725   1.361   3.177  0.1686 -0.3821 -0.0436
  217TIP3    H1  615   0.717   1.279   3.129 -1.7412 -0.2431 -0.0472
  217TIP3    H2  616   0.714   1.337   3.268 -1.6340 -0.0341 -0.1315
  218TIP3   OH2  617   2.927   3.186   1.404 -0.1922 -0.4542 -0.2053
  218TIP3    H1  618   2.990   3.114   1.403  1.6721  1.1173 -0.5755
  218TIP3    H2  619   2.922   3.215   1.312  1.5233  1.8730  0.3607
  219TIP3   OH2  620   0.040   1.219   0.223  0.5455  0.1376 -0.5340
  219TIP3    H1  621  -0.018   1.283   0.181  1.4998  0.7247 -1.0126
  219TIP3    H2  622   0.042   1.145   0.163 -1.0637 -0.6610  0.3204
  220TIP3   OH2  623   2.019   4.973   4.281  0.1844  0.0058  0.5968
  220TIP3    H1  624   2.079   4.902   4.301  0.9189  0.9510  1.9632
  220TIP3    H2  625   2.076   5.049   4.265 -0.5150  0.0931 -1.9729
  221TIP3   OH2  626   1.611   0.925   5.033  0.3141 -0.5286  0.7858
  221TIP3    H1  627   1.522   0.915   5.067 -0.1353  1.1978  0.2161
  221TIP3    H2  628   1.612   1.012   4.993  2.1384 -0.6919  0.3824
  222TIP3   OH2  629   5.753   0.432   4.330  0.3984 -0.0762  0.2119
  222TIP3    H1  630   5.683   0.491   4.358  0.2395  0.4344 -1.1712
  222TIP3    H2  631   5.824   0.489   4.301  2.0427 -0.5595  2.8937
  223TIP3   OH2  632   5.387   4.200   4.113  0.2399  0.1476  0.2820
  223TIP3    H1  633   5.422   4.285   4.086 -0.2386  0.5951  1.0204
  223TIP3    H2  634   5.391   4.202   4.209  0.6805 -0.8630  0.2892
  224TIP3   OH2  635   4.608   4.569   5.217 -0.5647  0.4955  0.1670
  224TIP3    H1  636   4.684   4.610   5.177  0.1008 -1.3439 -0.5804
  224TIP3    H2  637   4.543   4.565   5.146 -0.0758 -1.0531 -0.2201
  225TIP3   OH2  638   3.137   0.145   0.189 -0.1851 -0.1019 -0.6755
  225TIP3    H1  639   3.188   0.065   0.206  0.9956  1.0366  1.6699
  225TIP3    H2  640   3.197   0.201   0.140  0.0541  0.3878  0.1528
  226TIP3   OH2  641   3.990   1.053   4.947  0.8336 -0.3777 -0.3714
  226TIP3    H1  642   3.978   0.982   5.010 -2.0111  0.7904  0.5284
  226TIP3    H2  643   4.076   1.090   4.970  0.6718 -1.1242  1.6476
  227TIP3   OH2  644   3.271   2.069   2.741  0.7743  0.6133  0.0224
  227TIP3    H1  645   3.302   2.112   2.821  0.7489 -1.1437  1.0314
  227TIP3    H2  646   3.344   2.014   2.714 -0.2247 -1.0835  0.5777
  228TIP3   OH2  647   4.338   4.226   0.880 -0.2590  0.1493 -0.4602
  228TIP3    H1  648   4.409   4.291   0.883  0.1734 -0.1969 -2.1721
  228TIP3    H2  649   4.259   4.275   0.900  0.5866  0.2196  3.4126
  229TIP3   OH2  650   1.772   4.286   1.383 -0.3292  0.2452  0.2408
  229TIP3    H1  651   1.714   4.209   1.388  0.7480 -0.6143 -0.1952
  229TIP3    H2  652   1.777   4.306   1.290  0.2812  0.1488  0.2493
  230TIP3   OH2  653   2.004   4.436   3.883 -0.1656  0.4224 -0.0423
  230TIP3    H1  654   1.922   4.405   3.844  0.8298  0.6400 -2.4988
  230TIP3    H2  655   1.983   4.523   3.917 -1.0921  0.2404 -0.1193
  231TIP3   OH2  656   4.107   3.095   1.650 -0.0155  0.2744 -0.0177
  231TIP3    H1  657   4.161   3.093   1.729  1.7325  0.1172 -1.1876
  231TIP3    H2  658   4.095   3.188   1.632 -0.1727  0.3092  0.2531
  232TIP3   OH2  659   4.590   1.259   3.750 -0.1338 -0.0154  0.0825
  232TIP3    H1  660   4.660   1.223   3.695  0.0377  0.2657  0.1101
  232TIP3    H2  661   4.525   1.291   3.688  0.5310  1.2353  0.0012
  233TIP3   OH2  662   6.868   3.798   2.556 -0.6756  0.1953  0.3788
  233TIP3    H1  663   6.926   3.763   2.624  0.5236  1.0605 -0.1495
  233TIP3    H2  664   6.905   3.884   2.536 -1.0205 -0.0125 -1.3168
  234TIP3   OH2  665   6.425   1.074   1.781 -0.5831  0.9124  0.1416
  234TIP3    H1  666   6.336   1.093   1.749 -0.5566  1.6579  0.4899
  234TIP3    H2  667   6.423   1.098   1.873 -0.0290  0.8756  0.1645
  235TIP3   OH2  668   1.896   0.996   0.805  0.3799  0.1308  0.2352
  235TIP3    H1  669   1.901   0.950   0.721  0.9292 -3.3258  1.9796
  235TIP3    H2  670   1.802   1.000   0.824  0.3599 -1.4534  0.5821
  236TIP3   OH2  671   2.826   3.789   1.317  0.1318 -0.4285 -0.2294
  236TIP3    H1  672   2.760   3.731   1.356  0.9248 -0.3837  1.2695
  236TIP3    H2  673   2.890   3.730   1.277 -1.0032 -0.4632 -2.0766
  237TIP3   OH2  674   3.382   3.678   3.638 -0.2235 -1.4908 -0.0745
  237TIP3    H1  675   3.330   3.708   3.713  1.0987  0.6483  0.0651
  237TIP3    H2  676   3.448   3.621   3.676 -0.2150 -1.2710  0.2475
  238TIP3   OH2  677   6.724   5.456   2.552 -0.6088 -0.0569 -0.0697
  238TIP3    H1  678   6.744   5.410   2.633 -0.9158 -1.0324 -0.5419
  238TIP3    H2  679   6.654   5.517   2.576 -0.2946  0.0838  0.5198
  239TIP3   OH2  680   5.295   0.311   0.959  0.1922 -0.9628 -0.0483
  239TIP3    H1  681   5.343   0.371   1.016 -0.5191  0.8297 -1.2355
  239TIP3    H2  682   5.321   0.336   0.870 -1.6022 -1.0828 -0.6451
  240TIP3   OH2  683   2.677   6.329   4.175 -0.2370  0.4064 -0.0824
  240TIP3    H1  684   2.711   6.240   4.172 -0.1202  0.4722 -0.9650
  240TIP3    H2  685   2.755   6.383   4.193 -0.1933  0.3932 -0.2338
  241TIP3   OH2  686   6.564   4.926   4.643 -0.1006  0.0608 -0.0950
  241TIP3    H1  687   6.486   4.942   4.589  0.2204 -0.2040 -0.6440
  241TIP3    H2  688   6.637   4.949   4.586  0.2417 -0.1627  0.2554
  242TIP3   OH2  689   4.587   4.461   2.604 -0.3352 -0.3855 -0.2207
  242TIP3    H1  690   4.528   4.534   2.587 -1.2014 -1.6120 -3.1120
  242TIP3    H2  691   4.674   4.500   2.601 -0.7415  0.5047 -2.4528
  243TIP3   OH2  692   4.289   3.349   2.085  0.2283  0.4360  0.0085
  243TIP3    H1  693   4.310   3.404   2.010  0.3330  0.2460 -0.1036
  243TIP3    H2  694   4.248   3.408   2.147 -0.8897  0.3748 -0.6494
  244TIP3   OH2  695   4.405   1.840   0.799 -0.1781 -0.6087 -0.1225
  244TIP3    H1  696   4.486   1.796   0.824  0.0219  0.0350  0.3923
  244TIP3    H2  697   4.422   1.933   0.814 -0.6151 -0.3448 -1.1292
  245TIP3   OH2  698   6.740   5.864   0.104 -0.3093 -0.2606  0.1807
  245TIP3    H1  699   6.836   5.860   0.113 -0.0558  0.4223 -1.7170
  245TIP3    H2  700   6.715   5.941   0.156  0.1715 -0.4342  0.6791
  246TIP3   OH2  701   0.863   6.408   3.015  0.3765 -0.2842  0.3278
  246TIP3    H1  702   0.937   6.439   3.067 -0.7940  2.1859  0.6488
  246TIP3    H2  703   0.803   6.482   3.011 -1.0502 -1.4333 -1.8918
  247TIP3   OH2  704   1.791   6.622   5.452 -0.3072  0.5348  0.5988
  247TIP3    H1  705   1.851   6.645   5.381  0.8679  0.1295  1.4199
  247TIP3    H2  706   1.788   6.526   5.449 -0.5440  0.5363  0.8624
  248TIP3   OH2  707   7.163   4.177   3.512  0.1290  0.6346 -0.4872
  248TIP3    H1  708   7.179   4.234   3.437  1.6688  1.4202  0.3873
  248TIP3    H2  709   7.134   4.236   3.582 -0.8222 -0.0266 -0.2956
  249TIP3   OH2  710   5.327   4.751   4.529 -0.0034 -0.1614  0.1936
  249TIP3    H1  711   5.262   4.723   4.593 -2.0256  0.6776 -1.3664
  249TIP3    H2  712   5.292   4.722   4.445 -1.0241  4.4862 -1.2909
  250TIP3   OH2  713   6.896   1.772   4.912  0.0575 -0.0998 -0.3620
  250TIP3    H1  714   6.810   1.734   4.934 -0.3447  1.5420  1.1508
  250TIP3    H2  715   6.956   1.698   4.914 -1.1455 -1.1063 -0.2911
  251TIP3   OH2  716   6.792   4.411   1.379 -0.1904 -0.4955 -0.5541
  251TIP3    H1  717   6.837   4.495   1.373 -0.4496 -0.3851 -0.9810
  251TIP3    H2  718   6.717   4.428   1.436  0.6808 -0.8522  0.7561
  252TIP3   OH2  719   7.232   0.423   4.580  0.5079 -0.1218 -0.4063
  252TIP3    H1  720   7.184   0.445   4.660  0.8982  0.4203 -0.3140
  252TIP3    H2  721   7.164   0.394   4.518 -0.0027  1.0302 -0.4173
  253TIP3   OH2  722   1.072   1.071   4.761 -0.8219  0.9174 -0.4576
  253TIP3    H1  723   0.983   1.105   4.756 -0.9344  0.6030 -0.6138
  253TIP3    H2  724   1.115   1.126   4.826 -1.3687  0.5505  0.2399
  254TIP3   OH2  725   2.937   1.764   2.136 -0.1355 -0.0093 -0.3045
  254TIP3    H1  726   3.002   1.788   2.070  0.1438  0.7377  0.2269
  254TIP3    H2  727   2.933   1.840   2.195 -1.6746  0.0612 -0.4664
  255TIP3   OH2  728   2.278   0.961   0.335  0.2020  0.3704  0.3930
  255TIP3    H1  729   2.285   1.004   0.421  2.5646 -1.0073  0.9688
  255TIP3    H2  730   2.368   0.944   0.310 -0.4890  0.0005 -2.0397
  256TIP3   OH2  731   3.370   4.360   0.509 -0.9376 -0.0454 -0.4273
  256TIP3    H1  732   3.417   4.279   0.530 -0.8195  0.2662  0.5511
  256TIP3    H2  733   3.278   4.338   0.523 -1.0045 -0.3249 -1.2464
  257TIP3   OH2  734   3.974   3.659   2.565 -0.0203 -0.1241 -0.5717
  257TIP3    H1  735   4.064   3.626   2.574  0.5159  1.5608  0.7730
  257TIP3    H2  736   3.984   3.750   2.538 -1.4107 -0.4402 -2.3535
  258TIP3   OH2  737   1.714   5.208   0.071  1.1789 -0.5127 -0.3224
  258TIP3    H1  738   1.760   5.148   0.130 -0.4669  0.7514  2.4734
  258TIP3    H2  739   1.777   5.279   0.055  1.7296 -0.9860 -0.2595
  259TIP3   OH2  740   5.000   2.413   2.985  0.3024 -0.2728 -0.2169
  259TIP3    H1  741   4.973   2.352   3.054 -2.4214 -0.6320 -1.4616
  259TIP3    H2  742   4.998   2.361   2.904  3.2595  0.1818 -0.6863
  260TIP3   OH2  743   5.082   5.258   4.572  0.5260  0.6822 -0.0983
  260TIP3    H1  744   5.004   5.252   4.626  0.3941  2.5161 -0.0363
  260TIP3    H2  745   5.154   5.261   4.634  0.6575 -0.7125 -0.1491
  261TIP3   OH2  746   0.708   0.837   4.365 -0.2479 -0.1915  0.5207
  261TIP3    H1  747   0.724   0.845   4.460 -1.7508  4.2145  0.6130
  261TIP3    H2  748   0.633   0.779   4.358 -0.9411  0.4477  2.1752
  262TIP3   OH2  749   2.303   5.378   5.794 -0.5205  0.2061  0.8970
  262TIP3    H1  750   2.300   5.334   5.879 -1.9918  0.0393  0.7883
  262TIP3    H2  751   2.392   5.365   5.763  0.0431  0.2721  2.4134
  263TIP3   OH2  752   2.395   5.998   3.370 -0.4179  0.3856 -0.1348
  263TIP3    H1  753   2.392   5.920   3.426 -2.9546  0.4685 -0.0221
  263TIP3    H2  754   2.468   6.049   3.404 -0.9798 -0.2418  2.1784
  264TIP3   OH2  755   3.478   1.376   1.492  0.4799  0.0436  0.0600
  264TIP3    H1  756   3.494   1.294   1.538  1.6448  0.7011  0.8994
  264TIP3    H2  757   3.488   1.443   1.560 -2.0788  0.8147 -0.2287
  265TIP3   OH2  758   1.438   6.439   0.705  0.0604  0.0048 -1.2344
  265TIP3    H1  759   1.436   6.349   0.670  0.9967 -0.5080 -0.0340
  265TIP3    H2  760   1.356   6.477   0.674 -0.2292 -1.1685 -2.0170
  266TIP3   OH2  761   6.712   3.406   5.741 -0.2050 -0.3704 -0.3474
  266TIP3    H1  762   6.768   3.481   5.761  0.5438 -1.0107  0.0176
  266TIP3    H2  763   6.663   3.391   5.822  0.1522 -0.6904 -0.1835
  267TIP3   OH2  764   4.168   6.033   0.500 -0.0172  0.1431 -0.4073
  267TIP3    H1  765   4.259   6.019   0.524 -0.6933 -1.7555  1.3824
  267TIP3    H2  766   4.132   6.086   0.570 -0.2421  1.2087 -1.2976
  268TIP3   OH2  767   1.704   5.333   5.520  0.2671  0.1451 -0.0308
  268TIP3    H1  768   1.648   5.410   5.516  0.1608  0.0523 -0.2963
  268TIP3    H2  769   1.699   5.304   5.611  0.3027  0.4465  0.0674
  269TIP3   OH2  770   0.305   0.958   2.961 -0.0524  0.5667 -0.1250
  269TIP3    H1  771   0.236   0.916   3.012  1.0082  0.2434  1.0997
  269TIP3    H2  772   0.259   1.018   2.903 -1.4611 -0.7892 -0.4740
  270TIP3   OH2  773   5.849   5.164   2.831  0.0685  0.1335  0.3716
  270TIP3    H1  774   5.787   5.229   2.799  0.3067  0.5074  0.6658
  270TIP3    H2  775   5.934   5.192   2.798  0.0465 -0.5835 -0.3471
  271TIP3   OH2  776   2.538   4.577   2.606 -0.3777 -0.1185 -1.1481
  271TIP3    H1  777   2.510   4.487   2.618 -0.5885  0.0920  0.1493
  271TIP3    H2  778   2.482   4.628   2.665 -0.0531  0.8258 -1.6182
  272TIP3   OH2  779   4.732   3.613   2.416 -0.4849 -0.2761 -0.4189
  272TIP3    H1  780   4.708   3.691   2.466 -0.7537 -0.0020 -0.9632
  272TIP3    H2  781   4.713   3.636   2.325 -0.4772 -0.9438 -0.5950
  273TIP3   OH2  782   3.709   0.923   1.418 -0.0682  0.6820 -0.5049
  273TIP3    H1  783   3.734   0.896   1.506 -0.9373  0.6455 -0.2590
  273TIP3    H2  784   3.678   0.843   1.376  0.6886  0.6274 -0.9756
  274TIP3   OH2  785   2.743   4.601   2.441 -0.0420 -0.0861 -0.3260
  274TIP3    H1  786   2.669   4.583   2.500  0.5206  0.5636  0.6143
  274TIP3    H2  787   2.797   4.664   2.490  0.8466 -0.1298 -1.2288
  275TIP3   OH2  788   2.158   6.495   3.388  0.5676 -0.5357 -0.0280
  275TIP3    H1  789   2.221   6.423   3.383  0.9206 -0.2129 -0.3840
  275TIP3    H2  790   2.110   6.491   3.305 -1.7745 -2.4368  1.2868
  276TIP3   OH2  791   1.592   4.312   1.665 -0.5374 -0.1944  0.0311
  276TIP3    H1  792   1.630   4.397   1.688 -0.4376 -0.2124 -0.0674
  276TIP3    H2  793   1.585   4.265   1.749 -2.0278  0.4879  0.3283
  277TIP3   OH2  794   5.908   3.662   4.416  0.1798  0.0434 -0.3331
  277TIP3    H1  795   5.911   3.635   4.508 -2.8211 -0.3171 -0.2388
  277TIP3    H2  796   5.892   3.581   4.368 -0.8198  0.5347 -0.8687
  278TIP3   OH2  797   1.636   5.776   0.201 -0.2177  0.2155 -0.0095
  278TIP3    H1  798   1.577   5.701   0.202 -0.0323  0.0662 -0.0480
  278TIP3    H2  799   1.712   5.745   0.150  1.3076 -0.6663  2.6310
  279TIP3   OH2  800   3.936   1.681   5.788  0.1858  0.5249  0.3710
  279TIP3    H1  801   3.892   1.734   5.855 -0.9843 -0.9485  0.8052
  279TIP3    H2  802   3.961   1.744   5.721 -1.8849  1.5359  0.4725
  280TIP3   OH2  803   0.118   1.692   5.528  0.5211  0.6511  0.1068
  280TIP3    H1  804   0.160   1.710   5.444  1.0384  1.3914  0.5195
  280TIP3    H2  805   0.164   1.615   5.562  0.0307  0.0881 -0.4680
  281TIP3   OH2  806   5.271   1.823   1.610 -0.1374 -0.3525 -1.3273
  281TIP3    H1  807   5.204   1.768   1.569 -3.2060  2.7400 -0.8827
  281TIP3    H2  808   5.317   1.864   1.537  1.5397 -2.5846 -1.6383
  282TIP3   OH2  809   6.361   1.865   2.668 -0.0809 -0.5245  0.2316
  282TIP3    H1  810   6.338   1.803   2.737 -0.3602  0.6387  1.2252
  282TIP3    H2  811   6.309   1.943   2.688  0.2753  0.0457 -0.9689
  283TIP3   OH2  812   0.009   5.756   5.610 -0.4759  0.3498 -0.1658
  283TIP3    H1  813   0.015   5.841   5.568 -0.0690 -0.1325 -1.1134
  283TIP3    H2  814   0.095   5.740   5.648 -0.4692  0.2362 -0.2281
  284TIP3   OH2  815   0.813   4.140   3.288  0.5791 -0.2902 -0.2749
  284TIP3    H1  816   0.862   4.206   3.337 -0.2736  1.4502 -1.6329
  284TIP3    H2  817   0.871   4.116   3.215  1.2912 -1.8550  0.7488
  285TIP3   OH2  818   2.424   6.315   1.124  0.3034 -0.3903  0.3267
  285TIP3    H1  819   2.475   6.282   1.199  1.1875 -0.5486 -0.3325
  285TIP3    H2  820   2.424   6.242   1.062  2.4380  0.8234 -1.2294
  286TIP3   OH2  821   0.953   2.423   1.730  0.5569  0.4664  0.2574
  286TIP3    H1  822   0.914   2.356   1.787 -1.1937  1.6789  0.5653
  286TIP3    H2  823   1.031   2.381   1.694  0.3341 -1.2120  1.5885
  287TIP3   OH2  824   0.401   3.903   0.909  0.0714 -0.2377  0.2457
  287TIP3    H1  825   0.360   3.986   0.934  1.4954  0.3612  0.7312
  287TIP3    H2  826   0.420   3.913   0.816 -3.2058 -1.5814 -0.6803
  288TIP3   OH2  827   5.016   0.312   5.108  0.1680 -0.7020  0.2503
  288TIP3    H1  828   4.965   0.328   5.187 -0.5750 -0.1346 -0.3223
  288TIP3    H2  829   5.051   0.224   5.120 -0.6432 -0.9615  0.8382
  289TIP3   OH2  830   3.316   6.030   2.008 -0.0184  0.0589  0.7288
  289TIP3    H1  831   3.326   5.952   1.953  0.6126  0.7452 -0.1846
  289TIP3    H2  832   3.239   6.074   1.973  1.6597  1.6830 -1.2302
  290TIP3   OH2  833   4.365   6.229   2.616 -0.7063 -0.3277 -0.5084
  290TIP3    H1  834   4.440   6.210   2.673 -1.1659 -0.7801 -0.0387
  290TIP3    H2  835   4.369   6.324   2.603  0.5472 -0.4625 -1.3526
  291TIP3   OH2  836   2.877   6.282   1.267 -0.0573  0.0546 -0.0684
  291TIP3    H1  837   2.841   6.370   1.274 -0.4146 -0.1645  1.0057
  291TIP3    H2  838   2.805   6.224   1.292  0.1254 -0.5577 -0.9268
  292TIP3   OH2  839   6.081   4.431   4.442  0.5535 -0.3174 -0.3997
  292TIP3    H1  840   6.070   4.341   4.473  1.5346 -0.3493 -0.1093
  292TIP3    H2  841   6.034   4.485   4.506  1.2312 -0.5128  0.2811
  293TIP3   OH2  842   6.042   6.116   0.441 -0.3785 -0.1496  0.5910
  293TIP3    H1  843   6.077   6.076   0.520  0.1269 -0.6797  0.1138
  293TIP3    H2  844   5.988   6.189   0.472 -0.6639 -0.7124  1.4392
  294TIP3   OH2  845   6.326   6.446   2.828  0.5494 -0.0139  0.1740
  294TIP3    H1  846   6.278   6.367   2.854 -0.8971  0.3316 -1.3093
  294TIP3    H2  847   6.380   6.418   2.754 -1.7497  0.8455 -1.9241
  295TIP3   OH2  848   6.146   6.621   4.856 -0.8227 -0.1613  0.0034
  295TIP3    H1  849   6.102   6.667   4.928  0.3954 -0.8407  1.2148
  295TIP3    H2  850   6.238   6.619   4.881 -0.5968 -1.7668 -0.8306
  296TIP3   OH2  851   3.081   3.006   2.767 -0.3320  0.0319 -0.3756
  296TIP3    H1  852   3.054   2.932   2.822  2.0618 -0.9999 -0.4588
  296TIP3    H2  853   3.177   3.005   2.771 -0.1935  2.9847 -0.6161
  297TIP3   OH2  854   1.683   3.115   2.592  0.0920  0.1348  0.9333
  297TIP3    H1  855   1.677   3.019   2.583  1.8553 -0.0183  0.9358
  297TIP3    H2  856   1.679   3.147   2.502  1.6156 -0.1331  0.7453
  298TIP3   OH2  857   0.568   2.428   1.132 -0.0976  0.9539 -0.3277
  298TIP3    H1  858   0.612   2.506   1.100 -0.0479  1.0223 -0.0950
  298TIP3    H2  859   0.505   2.460   1.197  0.4813  0.7344  0.3562
  299TIP3   OH2  860   1.036   2.277   2.213  0.0379  0.9397 -0.4160
  299TIP3    H1  861   1.075   2.242   2.133 -0.0451  1.6501 -0.7748
  299TIP3    H2  862   0.978   2.347   2.183 -0.3145  0.9332  0.2325
  300TIP3   OH2  863   0.241   0.039   3.583  1.0595  0.1946 -0.8651
  300TIP3    H1  864   0.192   0.078   3.656  1.8179  1.0682 -0.7991
  300TIP3    H2  865   0.189   0.058   3.505  0.9799  0.5487 -0.7247
  301TIP3   OH2  866   5.580   3.668   3.751  0.8146 -0.3064 -0.0925
  301TIP3    H1  867   5.593   3.726   3.826  2.0124  0.0524 -0.5593
  301TIP3    H2  868   5.509   3.709   3.700  1.6032  0.7253 -0.3804
  302TIP3   OH2  869   4.629   3.374   4.836  0.2003  0.5442  0.3165
  302TIP3    H1  870   4.533   3.381   4.840  0.2802  2.4997 -0.0899
  302TIP3    H2  871   4.650   3.381   4.743  0.8444  3.2300  0.5806
  303TIP3   OH2  872   5.895   3.170   4.518 -0.0093 -0.2744 -0.3397
  303TIP3    H1  873   5.872   3.147   4.609 -0.5107 -0.4150 -0.5008
  303TIP3    H2  874   5.987   3.145   4.510  1.0369  2.6723  1.1101
  304TIP3   OH2  875   0.167   4.037   5.678  0.0320 -0.1654 -0.3637
  304TIP3    H1  876   0.121   3.961   5.712  1.2078 -0.1684  1.3300
  304TIP3    H2  877   0.098   4.091   5.637 -1.1069 -1.1740  0.1712
  305TIP3   OH2  878   0.643   3.763   3.353 -0.5377 -0.4749  0.4485
  305TIP3    H1  879   0.614   3.848   3.386  0.2551  0.2064 -0.5301
  305TIP3    H2  880   0.644   3.773   3.258  1.4295 -0.8952  0.3658
  306TIP3   OH2  881   7.116   3.760   5.795  0.2270  0.1355  0.4866
  306TIP3    H1  882   7.108   3.788   5.886  0.7284 -0.2117  0.6426
  306TIP3    H2  883   7.167   3.679   5.799  0.8982  0.5099 -0.1658
  307TIP3   OH2  884   6.857   0.961   5.721 -0.6213  0.1687 -0.4636
  307TIP3    H1  885   6.936   0.915   5.747 -0.9284 -1.4289 -2.1074
  307TIP3    H2  886   6.800   0.892   5.684 -1.9311  1.5705 -1.1851
  308TIP3   OH2  887   5.315   1.689   3.176  0.2196 -0.6509  0.0823
  308TIP3    H1  888   5.295   1.614   3.232 -0.1206 -0.7068 -0.1098
  308TIP3    H2  889   5.349   1.755   3.236 -2.6458  0.2883  0.8323
  309TIP3   OH2  890   7.205   2.225   1.416 -0.1485 -0.3852 -0.0391
  309TIP3    H1  891   7.168   2.156   1.471 -0.5839 -0.4856 -0.4452
  309TIP3    H2  892   7.135   2.291   1.410  0.9002  0.9954  1.8511
  310TIP3   OH2  893   1.902   3.564   4.936 -0.1472 -0.1087  0.1022
  310TIP3    H1  894   1.924   3.609   4.854  1.2941  0.5582  0.8072
  310TIP3    H2  895   1.838   3.498   4.911 -0.3576  0.6300 -1.4165
  311TIP3   OH2  896   5.040   6.310   2.088 -0.4795 -0.1019 -0.6129
  311TIP3    H1  897   5.018   6.402   2.106  1.6923  0.6742 -1.5100
  311TIP3    H2  898   5.058   6.273   2.175  0.7930  0.9919 -0.3627
  312TIP3   OH2  899   0.742   5.270   3.238  0.2219  0.2153 -0.6057
  312TIP3    H1  900   0.837   5.264   3.228  0.0753  0.6751 -2.7604
  312TIP3    H2  901   0.710   5.181   3.223  0.3734 -0.4356  2.2508
  313TIP3   OH2  902   5.708   4.382   5.139 -0.2185  0.3583  0.1870
  313TIP3    H1  903   5.656   4.441   5.194  0.7867 -0.5636  2.2486
  313TIP3    H2  904   5.643   4.334   5.088 -1.1710  1.5309  0.2421
  314TIP3   OH2  905   6.910   4.896   1.346  0.4190 -0.0762 -0.3328
  314TIP3    H1  906   6.910   4.981   1.302  0.6927 -0.3514 -0.8740
  314TIP3    H2  907   7.002   4.881   1.370  0.2266  0.2241  0.6448
  315TIP3   OH2  908   0.300   6.615   4.785 -0.3808 -0.6543  0.4578
  315TIP3    H1  909   0.256   6.610   4.700 -0.8538 -1.3237  0.7343
  315TIP3    H2  910   0.348   6.698   4.783 -1.6071  0.0580  0.1232
  316TIP3   OH2  911   0.687   4.578   0.506  0.0103  0.1024 -0.3347
  316TIP3    H1  912   0.635   4.653   0.535  1.7752  1.3324 -0.2001
  316TIP3    H2  913   0.704   4.595   0.414 -1.7562 -1.4992 -1.0067
  317TIP3   OH2  914   0.633   3.519   1.564  0.2036  0.0565  0.0986
  317TIP3    H1  915   0.591   3.595   1.606 -1.7870 -1.7356  1.5570
  317TIP3    H2  916   0.706   3.498   1.622  1.3991  1.3990 -0.8539
  318TIP3   OH2  917   4.500   3.276   5.536 -0.9837  0.0915  0.1588
  318TIP3    H1  918   4.410   3.310   5.539 -1.0975 -0.0378 -1.1621
  318TIP3    H2  919   4.521   3.274   5.443  0.1916 -0.4216  0.4252
  319TIP3   OH2  920   7.059   2.471   0.950  0.7025  0.6004  0.4321
  319TIP3    H1  921   7.095   2.526   1.019  0.4409  1.4227 -0.0758
  319TIP3    H2  922   6.966   2.496   0.944  0.4673 -0.2136  0.4994
  320TIP3   OH2  923   6.123   6.028   2.823  0.0215 -0.5968 -0.5070
  320TIP3    H1  924   6.185   6.085   2.777 -0.9718 -0.0867 -1.2578
  320TIP3    H2  925   6.113   6.069   2.909 -0.9756  0.6151 -1.1695
  321TIP3   OH2  926   3.122   0.592   4.449 -0.3030  0.2131  0.2309
  321TIP3    H1  927   3.142   0.632   4.364 -0.6721 -0.9947 -0.4353
  321TIP3    H2  928   3.137   0.499   4.436 -2.7630 -0.3122  0.7544
  322TIP3   OH2  929   6.480   1.998   1.875  0.2840 -0.2703 -0.1022
  322TIP3    H1  930   6.466   1.944   1.797  2.1128  1.1142 -1.4840
  322TIP3    H2  931   6.431   1.954   1.944 -1.5590 -1.4780 -2.0525
  323TIP3   OH2  932   6.655   6.769   0.379 -0.0476 -0.1150 -0.0563
  323TIP3    H1  933   6.574   6.770   0.430 -0.7980  0.5487 -1.2050
  323TIP3    H2  934   6.631   6.810   0.296  1.5675  0.4079 -0.2923
  324TIP3   OH2  935   1.312   6.471   1.285  0.1584 -0.3155  0.0524
  324TIP3    H1  936   1.310   6.521   1.204 -0.6955  0.2234  0.3820
  324TIP3    H2  937   1.341   6.533   1.351 -1.5146 -0.0237  0.5792
  325TIP3   OH2  938   4.341   3.874   4.686  0.1350 -0.0123  0.0763
  325TIP3    H1  939   4.345   3.875   4.590  0.5782  1.2445  0.0898
  325TIP3    H2  940   4.248   3.881   4.706 -0.0858 -1.6163 -0.2412
  326TIP3   OH2  941   2.061   1.674   5.020 -0.3357 -0.3782  0.0598
  326TIP3    H1  942   2.114   1.751   5.040  1.4541 -1.3457 -0.7120
  326TIP3    H2  943   1.982   1.685   5.074 -0.5552  2.3760 -0.6442
  327TIP3   OH2  944   3.728   3.760   1.056  0.2908  0.0611 -0.0761
  327TIP3    H1  945   3.792   3.722   1.115  0.7829  0.1981 -0.5098
  327TIP3    H2  946   3.766   3.749   0.969 -0.5122 -0.3245 -0.3950
  328TIP3   OH2  947   6.934   2.004   4.438 -0.5508 -0.2385 -0.3080
  328TIP3    H1  948   6.894   1.985   4.523  1.3047  0.9323  0.9062
  328TIP3    H2  949   6.940   2.099   4.436  0.1952 -0.2957 -1.3941
  329TIP3   OH2  950   3.634   4.698   4.192 -0.4694 -0.0281  0.1654
  329TIP3    H1  951   3.707   4.732   4.140  1.5204 -0.4356  2.5153
  329TIP3    H2  952   3.556   4.740   4.154  1.1524  1.8943 -1.2585
  330TIP3   OH2  953   6.705   0.670   5.656  0.1251  0.3643  0.6200
  330TIP3    H1  954   6.747   0.652   5.572 -1.2751  1.5181 -0.3629
  330TIP3    H2  955   6.647   0.744   5.639 -0.8763  0.0426  2.3787
  331TIP3   OH2  956   4.111   5.528   3.518 -0.1482 -0.0990 -0.1862
  331TIP3    H1  957   4.125   5.622   3.502  0.2617 -0.1251  0.0068
  331TIP3    H2  958   4.032   5.524   3.572 -0.5121  0.0979 -0.6970
  332TIP3   OH2  959   0.765   0.216   2.078  0.0243  0.3627  0.8537
  332TIP3    H1  960   0.747   0.122   2.084 -1.1803  0.5674  0.7928
  332TIP3    H2  961   0.684   0.257   2.109 -0.6348  1.4010 -1.9912
  333TIP3   OH2  962   1.902   5.633   1.327 -0.6065  0.0442  0.2320
  333TIP3    H1  963   1.972   5.693   1.302  2.1190 -3.2650 -0.8953
  333TIP3    H2  964   1.844   5.685   1.383 -0.6694  4.6899 -3.5052
  334TIP3   OH2  965   7.103   5.131   2.168 -0.2872  0.5570  0.1839
  334TIP3    H1  966   7.139   5.194   2.231  1.9133  0.0643 -0.4920
  334TIP3    H2  967   7.170   5.063   2.162 -1.0366 -0.0655 -1.7357
  335TIP3   OH2  968   2.444   2.623   2.760  0.0614 -0.1483  0.3114
  335TIP3    H1  969   2.349   2.631   2.748  0.1805  0.1296 -0.5486
  335TIP3    H2  970   2.457   2.626   2.854 -0.8268 -0.6803  0.4597
  336TIP3   OH2  971   2.710   3.238   0.921  0.3844  0.3942 -0.0767
  336TIP3    H1  972   2.642   3.171   0.911 -0.7285  1.3531  0.9482
  336TIP3    H2  973   2.769   3.222   0.847 -1.4678  0.1524 -1.5736
  337TIP3   OH2  974   7.115   5.182   0.948 -0.6343  0.3145  0.0709
  337TIP3    H1  975   7.023   5.160   0.933 -0.9160  1.3934  0.1037
  337TIP3    H2  976   7.112   5.259   1.005  0.3296 -0.5492  1.3457
  338TIP3   OH2  977   2.477   3.447   2.268 -0.1994  0.0860 -0.6679
  338TIP3    H1  978   2.558   3.496   2.283 -0.2930 -0.3765  1.6970
  338TIP3    H2  979   2.478   3.427   2.174  1.4438  1.7573 -1.0610
  339TIP3   OH2  980   3.772   4.464   3.277 -0.5139 -0.2517  0.2292
  339TIP3    H1  981   3.748   4.384   3.231  0.9627 -0.3075 -0.5143
  339TIP3    H2  982   3.862   4.449   3.307 -0.2616  1.0446  0.2023
  340TIP3   OH2  983   1.917   1.216   5.325  0.2920 -0.5104  0.5944
  340TIP3    H1  984   1.903   1.232   5.232 -0.9788  0.2722  0.8972
  340TIP3    H2  985   1.953   1.128   5.329 -1.2610 -1.2379 -0.5289
  341TIP3   OH2  986   0.213   4.844   3.307  0.2625 -0.0690  0.5183
  341TIP3    H1  987   0.206   4.750   3.323  1.2503 -0.1783  0.3805
  341TIP3    H2  988   0.127   4.870   3.274  0.2322 -1.0998 -0.2520
  342TIP3   OH2  989   0.985   1.269   5.177 -0.7370 -0.3534  0.3072
  342TIP3    H1  990   1.029   1.329   5.237  0.1060 -0.0830 -0.5544
  342TIP3    H2  991   0.894   1.299   5.176 -0.7623 -0.3568  1.4201
  343TIP3   OH2  992   1.101   5.385   1.746  0.0273  0.2403  0.0052
  343TIP3    H1  993   1.073   5.471   1.775 -1.3865  0.1431 -0.9871
  343TIP3    H2  994   1.197   5.389   1.747  0.0020  1.1605  1.8322
  344TIP3   OH2  995   1.844   5.987   1.336  0.6222  0.1619  0.1278
  344TIP3    H1  996   1.811   5.938   1.260  0.7428 -0.9483  0.7647
  344TIP3    H2  997   1.832   5.927   1.409  2.0436  0.5678  0.7229
  345TIP3   OH2  998   4.356   3.108   4.158  0.1287  0.5126  0.0054
  345TIP3    H1  999   4.299   3.182   4.137  0.2147  0.2275 -1.2931
  345TIP3    H2 1000   4.337   3.089   4.250 -1.9477  0.3811 -0.4024
  346TIP3   OH2 1001   0.193   5.594   3.160  0.4026  0.7945 -0.3209
  346TIP3    H1 1002   0.223   5.516   3.113 -1.2058  0.0601 -0.2049
  346TIP3    H2 1003   0.152   5.560   3.239 -0.7527  1.7193 -0.5004
  347TIP3   OH2 1004   6.630   2.064   2.926  0.2856 -0.3992 -0.0152
  347TIP3    H1 1005   6.638   2.096   3.016  0.1887 -1.6709  0.4682
  347TIP3    H2 1006   6.623   1.969   2.935  1.8382 -0.6920 -1.4731
  348TIP3   OH2 1007   0.497   0.561   1.718  0.3387  0.1635 -0.0723
  348TIP3    H1 1008   0.483   0.653   1.695  0.5591 -0.1565 -1.5769
  348TIP3    H2 1009   0.409   0.525   1.728  0.2542  0.6232  0.9620
  349TIP3   OH2 1010   6.193   1.112   0.804  0.1676  0.0988  0.1770
  349TIP3    H1 1011   6.206   1.140   0.895  1.8274  1.4217 -0.4009
  349TIP3    H2 1012   6.229   1.023   0.801  0.1568  0.0710  0.8077
  350TIP3   OH2 1013   3.107   1.485   5.772  0.3020  0.6016  0.6842
  350TIP3    H1 1014   3.108   1.536   5.691  0.3883  0.4507  0.5900
  350TIP3    H2 1015   3.068   1.401   5.748  1.1457  0.2273  0.5976
  351TIP3   OH2 1016   1.194   6.199   3.502 -0.4714  0.4447 -0.1630
  351TIP3    H1 1017   1.286   6.177   3.517 -0.5018  0.1008 -0.4720
  351TIP3    H2 1018   1.153   6.116   3.478 -0.6104  0.8156 -1.2390
  352TIP3   OH2 1019   1.847   2.467   0.222 -0.6745 -0.5176  0.2951
  352TIP3    H1 1020   1.898   2.388   0.204 -1.9441 -1.3572  0.2714
  352TIP3    H2 1021   1.769   2.435   0.267 -1.3517  0.7016  0.0207
  353TIP3   OH2 1022   1.294   3.363   0.527 -0.4015  0.1387 -0.0706
  353TIP3    H1 1023   1.369   3.422   0.535  0.3933 -1.0443  2.0674
  353TIP3    H2 1024   1.321   3.298   0.463  1.1383 -1.1875  1.8150
  354TIP3   OH2 1025   3.558   1.988   5.708 -0.0449 -0.5467  0.1842
  354TIP3    H1 1026   3.601   2.049   5.649 -0.1478 -1.2453 -0.6382
  354TIP3    H2 1027   3.527   2.042   5.780  1.5528  0.0780  0.4439
  355TIP3   OH2 1028   0.606   3.518   3.859  0.3281  0.0361 -0.0401
  355TIP3    H1 1029   0.568   3.538   3.945 -1.0013  1.6811 -0.9514
  355TIP3    H2 1030   0.669   3.449   3.877  0.0950  0.3268  2.2662
  356TIP3   OH2 1031   5.747   1.067   0.947  0.1886 -0.1074 -0.2761
  356TIP3    H1 1032   5.693   1.138   0.912  0.6920 -0.1254 -1.1163
  356TIP3    H2 1033   5.743   0.998   0.880  0.5620 -0.4513  0.0489
  357TIP3   OH2 1034   2.671   0.675   4.214 -0.0445  0.1205  0.1137
  357TIP3    H1 1035   2.657   0.674   4.119 -1.1213  1.2696  0.2385
  357TIP3    H2 1036   2.718   0.593   4.232 -1.3883 -1.0071 -1.1943
  358TIP3   OH2 1037   6.105   2.923   1.377 -0.0759 -0.1640  0.4664
  358TIP3    H1 1038   6.117   3.014   1.404  0.0159 -0.2227  0.6306
  358TIP3    H2 1039   6.163   2.873   1.436 -2.2420 -0.6346  2.3227
  359TIP3   OH2 1040   5.350   2.832   1.547  0.1007  0.4400 -0.0832
  359TIP3    H1 1041   5.382   2.911   1.591 -0.0766  0.0197  0.8161
  359TIP3    H2 1042   5.283   2.864   1.486 -1.5916  0.7955  1.8551
  360TIP3   OH2 1043  -0.015   4.592   5.837 -0.5648  0.3295 -0.0028
  360TIP3    H1 1044   0.040   4.670   5.849 -1.9366  1.5309 -1.0412
  360TIP3    H2 1045   0.013   4.556   5.754 -0.9538  0.6324 -0.2717
  361TIP3   OH2 1046   4.122   1.836   5.103 -0.4411 -0.1283  0.2929
  361TIP3    H1 1047   4.033   1.800   5.103  0.0506 -1.4376 -0.9657
  361TIP3    H2 1048   4.112   1.925   5.068 -1.5109  0.5955  2.2547
  362TIP3   OH2 1049   4.855   5.405   2.239 -0.0452  0.1542  0.0788
  362TIP3    H1 1050   4.944   5.387   2.270  0.3152  0.2423 -0.8778
  362TIP3    H2 1051   4.847   5.354   2.159 -0.6146  0.6868 -0.2085
  363TIP3   OH2 1052   5.761   5.422   3.891  0.6505  0.0284  0.2131
  363TIP3    H1 1053   5.819   5.349   3.873  0.3779 -0.1303 -0.0285
  363TIP3    H2 1054   5.819   5.496   3.907  0.9251 -0.2246  0.3944
  364TIP3   OH2 1055   0.178   1.043   5.141 -0.3969  0.3538  0.3477
  364TIP3    H1 1056   0.205   0.954   5.160 -0.8928  0.2684  0.6712
  364TIP3    H2 1057   0.083   1.039   5.133 -0.4365  0.8694  0.4755
  365TIP3   OH2 1058   3.048   4.974   5.084  0.0020 -0.1948  0.2232
  365TIP3    H1 1059   2.976   4.934   5.034  1.9674 -2.1721 -1.2148
  365TIP3    H2 1060   3.100   5.020   5.018  1.2984 -0.7814  0.7940
  366TIP3   OH2 1061   1.398   1.552   3.857 -0.4945  0.4268 -0.4018
  366TIP3    H1 1062   1.469   1.529   3.916 -0.1082  0.1354 -0.9657
  366TIP3    H2 1063   1.385   1.474   3.803 -0.8454  0.6771 -0.6881
  367TIP3   OH2 1064   7.131   4.106   3.967 -0.3131  0.1095  0.0986
  367TIP3    H1 1065   7.099   4.195   3.955  0.3840  0.0787 -2.5068
  367TIP3    H2 1066   7.218   4.106   3.928 -0.4592 -1.7787 -0.3339
  368TIP3   OH2 1067   1.334   1.295   5.160  0.4793 -0.0794  0.2461
  368TIP3    H1 1068   1.334   1.261   5.249 -2.0357 -0.2097  0.2807
  368TIP3    H2 1069   1.322   1.390   5.171 -0.2717 -0.1464  0.0692
  369TIP3   OH2 1070   4.017   0.150   1.908  0.4093  0.6363  0.3399
  369TIP3    H1 1071   4.036   0.065   1.948  0.0958  0.2200 -0.3821
  369TIP3    H2 1072   4.094   0.168   1.854 -1.0810 -1.0883 -2.6510
  370TIP3   OH2 1073   5.738   1.795   5.086 -0.4640 -0.4796 -0.0419
  370TIP3    H1 1074   5.667   1.797   5.150 -1.0273  2.3622 -0.6002
  370TIP3    H2 1075   5.694   1.782   5.002 -0.2385  0.2053 -0.2752
  371TIP3   OH2 1076   4.649   4.000   3.380 -0.2793  0.1223  0.0257
  371TIP3    H1 1077   4.696   3.917   3.373 -0.9746 -0.2825  0.1348
  371TIP3    H2 1078   4.582   3.996   3.312  0.2282  0.9616 -0.5467
  372TIP3   OH2 1079   3.013   4.424   5.073 -0.2355 -0.5650 -0.3241
  372TIP3    H1 1080   3.056   4.424   4.987 -0.2820 -0.2592 -0.3491
  372TIP3    H2 1081   2.920   4.419   5.053 -0.4575  2.2840 -0.4207
  373TIP3   OH2 1082   6.560   2.291   1.189  0.9996  0.1303  0.3716
  373TIP3    H1 1083   6.556   2.199   1.215 -2.0971  0.1170  0.2620
  373TIP3    H2 1084   6.611   2.292   1.108 -1.0791 -1.9533 -1.0682
  374TIP3   OH2 1085   3.694   0.180   3.781 -0.0813 -0.4385  0.7426
  374TIP3    H1 1086   3.695   0.160   3.687 -0.6263 -0.8311  0.8133
  374TIP3    H2 1087   3.761   0.122   3.818  0.4155  0.0027  0.5468
  375TIP3   OH2 1088   1.151   1.452   2.633  0.7468 -0.3849 -0.6158
  375TIP3    H1 1089   1.237   1.487   2.610  1.8862 -2.6797 -0.2385
  375TIP3    H2 1090   1.114   1.516   2.694  2.0339  0.8300 -1.0604
  376TIP3   OH2 1091   6.086   5.059   3.598 -0.0684  0.1291  0.0240
  376TIP3    H1 1092   6.154   5.040   3.662  0.9023  1.3497 -0.5934
  376TIP3    H2 1093   6.065   4.974   3.559  1.3299 -0.2411  0.0194
  377TIP3   OH2 1094   0.864   2.669   2.644  0.2073 -0.5080  0.2958
  377TIP3    H1 1095   0.952   2.633   2.655  0.7248  0.7375  0.3501
  377TIP3    H2 1096   0.811   2.593   2.617  1.6672 -0.9446 -1.5817
  378TIP3   OH2 1097   1.127   4.664   4.576  0.0057  0.1066  0.2090
  378TIP3    H1 1098   1.040   4.698   4.555 -0.5583 -0.3705  1.6482
  378TIP3    H2 1099   1.135   4.676   4.671  0.9049 -1.2139  0.3308
  379TIP3   OH2 1100   2.051   4.614   1.722 -0.6825  0.0255 -0.3295
  379TIP3    H1 1101   2.086   4.654   1.802 -0.7906 -1.2735  0.3885
  379TIP3    H2 1102   1.970   4.662   1.705  0.8695  2.4280 -1.4714
  380TIP3   OH2 1103   4.177   3.139   4.493  0.5329  0.2313  0.6180
  380TIP3    H1 1104   4.252   3.192   4.519 -1.4366  2.9013  1.4128
  380TIP3    H2 1105   4.135   3.115   4.576  0.8483 -1.8734  0.2269
  381TIP3   OH2 1106   5.377   0.644   4.689 -0.0044 -0.1531  0.2083
  381TIP3    H1 1107   5.401   0.732   4.718 -1.5566  1.1928 -2.2437
  381TIP3    H2 1108   5.448   0.619   4.628  0.0482 -0.2804  0.3211
  382TIP3   OH2 1109   7.183   4.295   4.531  0.0913  0.5581  0.0436
  382TIP3    H1 1110   7.168   4.251   4.448 -1.2099 -0.8078  0.9448
  382TIP3    H2 1111   7.103   4.279   4.582  0.4868  2.1132  1.2263
  383TIP3   OH2 1112   5.297   5.898   5.360  0.1814  0.0064  0.1593
  383TIP3    H1 1113   5.335   5.877   5.274 -0.5744 -1.1660  0.0825
  383TIP3    H2 1114   5.203   5.901   5.343  0.1374  1.8286  0.5532
  384TIP3   OH2 1115   4.840   5.693   1.396  0.2663  0.0829 -0.1172
  384TIP3    H1 1116   4.779   5.683   1.323 -1.8468 -1.7141  1.7073
  384TIP3    H2 1117   4.799   5.759   1.452  0.0379 -0.9902  1.0280
  385TIP3   OH2 1118   4.308   1.541   4.572 -0.1586 -0.3207 -0.5990
  385TIP3    H1 1119   4.242   1.605   4.544 -0.0918 -0.4124 -0.9765
  385TIP3    H2 1120   4.371   1.592   4.622 -0.2228 -0.1289 -0.7102
  386TIP3   OH2 1121   2.490   2.929   3.100 -0.1036  0.3937  0.3349
  386TIP3    H1 1122   2.509   2.869   3.172 -1.3353  0.3403  0.6237
  386TIP3    H2 1123   2.406   2.899   3.065  1.3876 -0.9273 -2.5248
  387TIP3   OH2 1124   0.524   1.973   4.789 -0.0388  0.3060 -0.0992
  387TIP3    H1 1125   0.430   1.973   4.770  0.0051  0.5214 -0.3165
  387TIP3    H2 1126   0.551   2.063   4.774  0.5187 -0.0804 -1.5586
  388TIP3   OH2 1127   0.488   5.073   0.061 -0.1198  0.1614 -0.3445
  388TIP3    H1 1128   0.572   5.079   0.017  0.1086  0.4268  0.1192
  388TIP3    H2 1129   0.436   5.145   0.022  0.5708  1.3411  0.8406
  389TIP3   OH2 1130   3.251   2.720   1.592 -0.3565  0.2177  0.1388
  389TIP3    H1 1131   3.162   2.740   1.563 -0.2228 -1.6664 -1.8667
  389TIP3    H2 1132   3.274   2.641   1.544  2.4503  0.6960  0.5350
  390TIP3   OH2 1133   0.285   5.865   0.742  0.4775 -0.0759 -0.1027
  390TIP3    H1 1134   0.309   5.890   0.831  1.8335 -1.6785  0.0441
  390TIP3    H2 1135   0.231   5.786   0.754 -1.8230  1.3181 -0.6233
  391TIP3   OH2 1136   6.717   1.116   3.157  0.4759  0.5855  0.6749
  391TIP3    H1 1137   6.748   1.026   3.164 -0.6435  0.0842 -0.3947
  391TIP3    H2 1138   6.624   1.111   3.180 -0.7095  0.6414 -3.2198
  392TIP3   OH2 1139   3.180   1.046   5.668 -0.4063 -0.7755 -0.2624
  392TIP3    H1 1140   3.241   1.063   5.739 -1.0319  0.9811 -0.1111
  392TIP3    H2 1141   3.222   0.977   5.617  1.2925 -0.2267  0.3198
  393TIP3   OH2 1142   1.606   4.766   0.693 -0.1907 -0.1351  0.0586
  393TIP3    H1 1143   1.639   4.725   0.614 -0.8185 -2.8032  1.0751
  393TIP3    H2 1144   1.587   4.693   0.752 -1.6832  1.6245  1.9114
  394TIP3   OH2 1145   1.808   4.544   4.718 -0.0324  0.0140  0.0674
  394TIP3    H1 1146   1.795   4.449   4.724 -0.4577  0.0356 -0.3973
  394TIP3    H2 1147   1.743   4.581   4.778 -0.8117  0.0501 -0.7709
  395TIP3   OH2 1148   0.924   0.615   3.318  0.3630 -0.6845  0.1006
  395TIP3    H1 1149   0.901   0.536   3.367  0.8430 -0.5970  0.4675
  395TIP3    H2 1150   0.840   0.655   3.296  0.1414  0.1027  2.1845
  396TIP3   OH2 1151   4.831   6.739   4.171  0.0646 -0.0996  0.2428
  396TIP3    H1 1152   4.886   6.682   4.223  0.4832  0.9041  0.9311
  396TIP3    H2 1153   4.742   6.705   4.184  0.3773 -1.0340  0.0268
  397TIP3   OH2 1154   1.851   2.058   3.075  0.4368 -0.3526 -0.1405
  397TIP3    H1 1155   1.912   1.996   3.035  3.8152  1.4100  1.7832
  397TIP3    H2 1156   1.855   2.135   3.018 -2.8180 -1.2881 -1.8646
  398TIP3   OH2 1157   1.188   4.998   3.385  0.2611 -0.7324  0.0333
  398TIP3    H1 1158   1.140   4.992   3.302  2.0696  1.0415 -1.2310
  398TIP3    H2 1159   1.238   4.917   3.389  0.6323 -0.5735 -0.9606
  399TIP3   OH2 1160   6.414   2.804   5.075 -0.3337 -0.4540  0.1933
  399TIP3    H1 1161   6.329   2.768   5.099  0.1264 -1.6959  0.0417
  399TIP3    H2 1162   6.394   2.878   5.018 -1.3201 -0.3412  0.6734
  400TIP3   OH2 1163   0.526   1.679   2.705  0.4208  0.3359 -0.3515
  400TIP3    H1 1164   0.522   1.764   2.750  2.9658  0.8496 -0.9368
  400TIP3    H2 1165   0.536   1.615   2.775 -0.6108  0.5817  0.0410
  401TIP3   OH2 1166   1.062   4.307   5.561 -0.1296  0.1813 -0.6443
  401TIP3    H1 1167   1.021   4.287   5.645 -0.7400 -0.2424 -1.0305
  401TIP3    H2 1168   1.129   4.372   5.581  0.2825 -0.5136  0.2922
  402TIP3   OH2 1169   3.173   0.936   1.146  0.1714 -0.5625 -0.0224
  402TIP3    H1 1170   3.262   0.902   1.156  0.6830  0.6815 -0.1660
  402TIP3    H2 1171   3.179   0.998   1.074 -1.0898 -1.3389 -0.8218
  403TIP3   OH2 1172   2.921   5.957   0.409 -0.7357  0.5914  0.1634
  403TIP3    H1 1173   2.937   5.922   0.496 -0.2839 -0.2790 -0.2551
  403TIP3    H2 1174   2.828   5.941   0.394 -0.3206 -1.5273 -0.4584
  404TIP3   OH2 1175   4.516   4.915   5.685  0.2062  0.4338 -0.3665
  404TIP3    H1 1176   4.429   4.947   5.710  0.3612  1.2099 -0.7890
  404TIP3    H2 1177   4.549   4.871   5.763 -1.3226 -1.5303 -0.7634
  405TIP3   OH2 1178   0.716   4.590   3.618  0.2791  0.0690  0.2451
  405TIP3    H1 1179   0.800   4.604   3.574  0.2027 -0.4939 -0.0997
  405TIP3    H2 1180   0.655   4.648   3.573  0.3478 -0.0089  0.0492
  406TIP3   OH2 1181   4.548   6.351   0.940  0.1090  0.3846 -0.2544
  406TIP3    H1 1182   4.482   6.382   1.002 -0.0128  2.0501 -1.1532
  406TIP3    H2 1183   4.510   6.369   0.854  1.3278  0.4982 -0.7910
  407TIP3   OH2 1184   3.848   5.537   0.641 -0.1802 -0.1848  0.4492
  407TIP3    H1 1185   3.924   5.505   0.691 -1.2116 -0.5060  1.8516
  407TIP3    H2 1186   3.875   5.623   0.610  0.8615 -0.3993  0.7165
  408TIP3   OH2 1187   2.295   6.694   4.661  0.2927  0.1859  0.3748
  408TIP3    H1 1188   2.293   6.774   4.713 -0.6018  0.7043 -0.4306
  408TIP3    H2 1189   2.308   6.624   4.725 -1.2231  0.7650  1.3631
  409TIP3   OH2 1190   5.785   0.834   3.345 -0.2992  0.4328 -0.2643
  409TIP3    H1 1191   5.769   0.843   3.251  1.8132  1.3840 -0.6005
  409TIP3    H2 1192   5.797   0.923   3.376 -2.0520  0.2192  1.1801
  410TIP3   OH2 1193   7.080   0.500   3.210  0.6545  0.4880 -0.4789
  410TIP3    H1 1194   7.097   0.406   3.220  0.0904  0.3493 -0.7632
  410TIP3    H2 1195   7.119   0.540   3.288  0.8153  0.0067 -0.3080
  411TIP3   OH2 1196   1.091   0.564   3.090 -0.2084 -0.1047 -0.0041
  411TIP3    H1 1197   1.091   0.631   3.021  0.3769  1.6132  1.5922
  411TIP3    H2 1198   1.008   0.575   3.135  0.0285 -0.2307  0.4745
  412TIP3   OH2 1199   4.091   2.157   1.625  0.3174  0.1901  0.6030
  412TIP3    H1 1200   4.081   2.136   1.718 -0.0632  0.5602  0.6535
  412TIP3    H2 1201   4.177   2.123   1.602  0.2375 -0.2966  0.9813
  413TIP3   OH2 1202   1.098   3.289   4.321 -0.0101  0.4060  0.0338
  413TIP3    H1 1203   1.095   3.194   4.330 -0.9845  0.3819 -0.4135
  413TIP3    H2 1204   1.008   3.318   4.338  0.1602  1.1989 -0.3504
  414TIP3   OH2 1205   2.307   3.160   5.444  0.4789 -0.1728  0.2100
  414TIP3    H1 1206   2.236   3.097   5.435 -0.6005  0.9664  0.3274
  414TIP3    H2 1207   2.317   3.172   5.538 -0.2815  0.8226  0.1853
  415TIP3   OH2 1208   2.778   4.386   3.464 -0.1243 -0.0540 -0.4757
  415TIP3    H1 1209   2.731   4.432   3.395 -3.6516  2.3054  3.0376
  415TIP3    H2 1210   2.733   4.301   3.471 -1.2116  0.5480  0.1656
  416TIP3   OH2 1211   2.843   5.229   1.453 -0.1506  0.6558  0.1125
  416TIP3    H1 1212   2.817   5.145   1.491 -0.6584  0.0725 -1.4466
  416TIP3    H2 1213   2.938   5.233   1.467 -0.3770  0.7030  1.8242
  417TIP3   OH2 1214   0.073   3.974   0.203 -0.2908 -0.4690  0.0215
  417TIP3    H1 1215   0.119   3.897   0.236  0.5793 -0.7680 -1.7205
  417TIP3    H2 1216  -0.019   3.948   0.199 -0.0045 -1.4295 -0.5330
  418TIP3   OH2 1217   6.811   0.137   4.077 -0.0935  0.5710  0.5011
  418TIP3    H1 1218   6.763   0.088   4.144  2.5333 -1.7629  0.8735
  418TIP3    H2 1219   6.744   0.162   4.013 -1.9449 -1.8596  1.3098
  419TIP3   OH2 1220   0.361   5.397   0.674 -0.3693 -0.0444 -0.2522
  419TIP3    H1 1221   0.375   5.439   0.589 -0.0896  2.5267  0.9580
  419TIP3    H2 1222   0.288   5.337   0.659  0.2579 -0.3618 -2.4943
  420TIP3   OH2 1223   1.829   4.460   0.796  0.3397 -0.8896 -0.1595
  420TIP3    H1 1224   1.849   4.366   0.804  0.6821 -0.8178 -0.1485
  420TIP3    H2 1225   1.765   4.465   0.725  1.2143 -1.0121 -0.9773
  421TIP3   OH2 1226   4.163   5.257   4.095  0.1477  0.2806 -0.1189
  421TIP3    H1 1227   4.197   5.325   4.154  1.1928 -0.5105  0.2221
  421TIP3    H2 1228   4.145   5.304   4.014  1.0865  0.9363  0.0262
  422TIP3   OH2 1229   2.610   6.702   1.125  0.4105 -0.3493 -0.1115
  422TIP3    H1 1230   2.643   6.641   1.192  0.7951 -2.0273 -1.7514
  422TIP3    H2 1231   2.687   6.748   1.094  0.1485  0.8803  0.9717
  423TIP3   OH2 1232   1.010   2.730   5.773  0.2234  0.1323  0.0229
  423TIP3    H1 1233   1.039   2.681   5.850 -2.1312 -0.8825  0.3619
  423TIP3    H2 1234   1.014   2.822   5.800  4.8585  0.3811 -0.6764
  424TIP3   OH2 1235   1.234   0.601   4.899 -0.6072 -0.2330 -0.4201
  424TIP3    H1 1236   1.326   0.620   4.881 -0.2544 -1.6386 -0.1974
  424TIP3    H2 1237   1.236   0.547   4.978 -1.7626  1.2347  0.6582
  425TIP3   OH2 1238   5.412   3.436   4.558  0.3279  0.0196 -0.0189
  425TIP3    H1 1239   5.326   3.462   4.525  0.5589 -1.4464 -1.9540
  425TIP3    H2 1240   5.393   3.365   4.620  0.1403 -0.6054 -0.7745
  426TIP3   OH2 1241   0.191   4.825   5.191  0.0690  0.2603  0.3437
  426TIP3    H1 1242   0.100   4.850   5.204 -0.2867 -0.4214 -0.7099
  426TIP3    H2 1243   0.219   4.874   5.114  0.5625  0.3678  0.5825
  427TIP3   OH2 1244   1.322   4.996   5.835 -0.5557 -0.3235  0.0349
  427TIP3    H1 1245   1.238   4.960   5.863 -1.5469  1.2210 -0.7837
  427TIP3    H2 1246   1.301   5.051   5.760  1.5166 -1.6560 -1.6700
  428TIP3   OH2 1247   5.455   3.060   1.665 -0.4980 -0.2315  0.2407
  428TIP3    H1 1248   5.400   3.138   1.670  0.0022  0.0863  0.9987
  428TIP3    H2 1249   5.539   3.093   1.630  0.1993 -0.1348  1.9087
  429TIP3   OH2 1250   2.090   1.537   2.842 -0.4374 -0.7742 -0.2198
  429TIP3    H1 1251   2.038   1.542   2.762 -0.0450 -0.5523 -0.4645
  429TIP3    H2 1252   2.163   1.597   2.827 -0.1846 -0.9782  0.1735
  430TIP3   OH2 1253   1.107   6.457   1.952 -0.1889  0.5784 -0.5437
  430TIP3    H1 1254   1.040   6.469   2.020  0.4554  0.1023  0.1994
  430TIP3    H2 1255   1.082   6.516   1.882 -0.3216  1.8353  0.5384
  431TIP3   OH2 1256   2.437   0.774   4.298  0.1900 -0.2648  0.1206
  431TIP3    H1 1257   2.418   0.841   4.232 -0.2958 -1.2063 -0.7253
  431TIP3    H2 1258   2.519   0.734   4.269  0.6749  0.1915  0.8252
  432TIP3   OH2 1259   3.640   2.115   3.512  0.3364  0.0258  0.0742
  432TIP3    H1 1260   3.673   2.130   3.601  0.1287 -0.7029  0.2865
  432TIP3    H2 1261   3.707   2.059   3.471  1.2752  1.7117 -0.8134
  433TIP3   OH2 1262   6.103   0.571   5.404  0.4109 -0.9003  0.0138
  433TIP3    H1 1263   6.124   0.487   5.363 -0.0302 -1.1240  0.2441
  433TIP3    H2 1264   6.189   0.610   5.421  0.6156 -0.5694 -1.5653
  434TIP3   OH2 1265   3.448   5.187   0.476 -0.3908  0.1436  0.9468
  434TIP3    H1 1266   3.421   5.254   0.415  2.7092  0.5632 -0.1531
  434TIP3    H2 1267   3.480   5.235   0.553  0.5321 -0.1045  0.7327
  435TIP3   OH2 1268   2.560   1.076   2.787  0.1541  0.1373 -0.1661
  435TIP3    H1 1269   2.510   1.148   2.748  2.3849  1.2008 -1.2346
  435TIP3    H2 1270   2.620   1.048   2.718  1.9755 -0.1547  1.4589
  436TIP3   OH2 1271   6.152   2.741   5.058 -0.1738  0.1238 -0.1215
  436TIP3    H1 1272   6.182   2.718   4.970  1.3719 -2.2828  0.9108
  436TIP3    H2 1273   6.083   2.806   5.044 -2.1228 -2.3334 -3.2704
  437TIP3   OH2 1274   5.363   6.173   1.205  0.1622  0.2708 -0.2726
  437TIP3    H1 1275   5.301   6.233   1.164  1.9311  0.5558 -2.7943
  437TIP3    H2 1276   5.335   6.086   1.176 -0.2375  0.1928  0.3227
  438TIP3   OH2 1277   6.055   5.938   5.699  0.3598 -0.4399 -0.2614
  438TIP3    H1 1278   6.079   5.951   5.607  1.6721 -0.7341  0.0285
  438TIP3    H2 1279   5.985   5.873   5.696 -0.6558  0.6378 -1.1407
  439TIP3   OH2 1280   5.829   3.898   5.764 -0.0608  0.7149  0.1995
  439TIP3    H1 1281   5.889   3.823   5.766  1.4751  1.6934 -2.6206
  439TIP3    H2 1282   5.886   3.974   5.751 -1.7066  2.1294  0.9226
  440TIP3   OH2 1283   1.271   2.807   3.643 -0.2086 -0.3386 -0.1243
  440TIP3    H1 1284   1.298   2.859   3.719  0.3004 -1.6281  0.6216
  440TIP3    H2 1285   1.343   2.816   3.581 -0.3851  0.2980 -0.2406
  441TIP3   OH2 1286   3.858   1.563   2.310 -0.5604  0.2494  0.3921
  441TIP3    H1 1287   3.782   1.605   2.350 -0.6348 -0.1435  0.6662
  441TIP3    H2 1288   3.822   1.487   2.264 -0.2001 -0.5754  1.4493
  442TIP3   OH2 1289   3.765   0.778   2.952  0.0870 -0.5704 -0.3054
  442TIP3    H1 1290   3.685   0.774   3.004 -0.0632 -3.2032 -0.6474
  442TIP3    H2 1291   3.743   0.835   2.878 -1.1272 -0.4610  0.1147
  443TIP3   OH2 1292   7.019   3.593   0.274  0.5623 -0.2152 -0.0838
  443TIP3    H1 1293   6.995   3.572   0.184 -2.9227 -0.0809  0.6569
  443TIP3    H2 1294   7.071   3.518   0.303 -0.3085 -1.4456 -1.5167
  444TIP3   OH2 1295   3.085   3.372   1.541 -0.5095 -0.3010  0.1146
  444TIP3    H1 1296   3.046   3.354   1.626 -0.3800 -1.2781 -0.0171
  444TIP3    H2 1297   3.030   3.325   1.478  0.8847 -1.8269 -0.0590
  445TIP3   OH2 1298   0.600   4.964   5.859 -0.0674  0.0702  0.1224
  445TIP3    H1 1299   0.570   4.954   5.768  1.0540  1.0615 -0.3893
  445TIP3    H2 1300   0.614   5.058   5.869 -0.8982  0.0622  1.5874
  446TIP3   OH2 1301   7.018   0.764   0.858  0.1607 -0.2184  0.0382
  446TIP3    H1 1302   7.022   0.753   0.763  1.0939 -1.8207  0.2266
  446TIP3    H2 1303   7.074   0.839   0.876  1.1332 -0.7758 -0.5769
  447TIP3   OH2 1304   7.116   5.528   1.405 -0.1886 -0.1168 -0.2661
  447TIP3    H1 1305   7.172   5.476   1.463  1.7885  1.0329 -1.0299
  447TIP3    H2 1306   7.063   5.582   1.464  0.0060 -0.7465  0.4920
  448TIP3   OH2 1307   2.723   3.149   2.833 -0.4634  0.2671  0.2538
  448TIP3    H1 1308   2.632   3.136   2.859 -0.7706 -0.2969 -1.0305
  448TIP3    H2 1309   2.727   3.119   2.743  0.7967  1.1458 -0.0172
  449TIP3   OH2 1310   0.996   0.987   4.075  0.1561  0.3623 -0.1188
  449TIP3    H1 1311   0.996   1.050   4.003 -0.3548  1.4043  0.7706
  449TIP3    H2 1312   1.005   1.040   4.154 -1.1436 -0.5971  0.7153
  450TIP3   OH2 1313   2.373   6.363   4.657 -0.0293 -0.2930  0.2901
  450TIP3    H1 1314   2.304   6.396   4.713 -0.8607  0.8702 -1.3456
  450TIP3    H2 1315   2.451   6.413   4.682  0.0143 -0.8959  1.4372
  451TIP3   OH2 1316   2.194   3.224   3.962  0.1943  0.2203  0.1972
  451TIP3    H1 1317   2.162   3.309   3.930 -0.0695  0.0536  0.0117
  451TIP3    H2 1318   2.270   3.246   4.015 -0.4342  0.6613  0.9553
  452TIP3   OH2 1319   0.430   6.392   5.454 -0.7121 -0.4529 -0.6731
  452TIP3    H1 1320   0.510   6.440   5.435 -0.0056 -0.5417  1.6940
  452TIP3    H2 1321   0.364   6.430   5.395  0.3678  1.7907 -0.5352
  453TIP3   OH2 1322   5.464   3.338   5.577  0.0743  0.4258  0.0795
  453TIP3    H1 1323   5.494   3.356   5.666  1.0365  0.2546 -0.2019
  453TIP3    H2 1324   5.530   3.279   5.541 -0.8223 -0.2897 -0.4309
  454TIP3   OH2 1325   1.036   1.259   1.899  0.2506 -0.1480 -0.0557
  454TIP3    H1 1326   1.120   1.255   1.853  0.3072 -0.7506  0.0904
  454TIP3    H2 1327   0.971   1.244   1.831  0.3516 -1.3955  0.0982
  455TIP3   OH2 1328   2.650   5.860   0.211 -0.7482 -0.2834  0.0568
  455TIP3    H1 1329   2.596   5.937   0.193 -1.5678 -0.5526  1.2484
  455TIP3    H2 1330   2.597   5.806   0.270  0.8222 -0.5518  1.2834
  456TIP3   OH2 1331   2.929   1.362   4.618 -0.2880  0.3900  0.2348
  456TIP3    H1 1332   2.917   1.456   4.631  2.1976  0.4752  2.8493
  456TIP3    H2 1333   2.851   1.323   4.658 -0.5577  1.3066  0.6446
  457TIP3   OH2 1334   3.286   0.505   4.895  0.4854 -0.4287  0.8851
  457TIP3    H1 1335   3.206   0.553   4.916  0.9151  0.1019  1.3289
  457TIP3    H2 1336   3.259   0.413   4.894 -0.6291 -0.1394 -1.2865
  458TIP3   OH2 1337   1.532   4.283   1.986  0.3938  0.9621  0.5498
  458TIP3    H1 1338   1.545   4.194   1.955  1.7904  1.0572  0.8152
  458TIP3    H2 1339   1.596   4.294   2.056  1.8404  2.8759 -0.9477
  459TIP3   OH2 1340   5.808   6.656   3.503 -0.4802 -0.3323  0.1403
  459TIP3    H1 1341   5.831   6.748   3.498 -0.1023 -0.1879  2.9062
  459TIP3    H2 1342   5.727   6.653   3.553 -0.4369 -1.4938  0.1840
  460TIP3   OH2 1343   4.270   2.452   0.786  0.3710 -0.2806 -0.0560
  460TIP3    H1 1344   4.364   2.457   0.802  0.5326  4.1912 -0.9284
  460TIP3    H2 1345   4.263   2.424   0.694  0.8534 -0.6724  0.0246
  461TIP3   OH2 1346   5.203   0.784   4.303  0.3005  0.0704  0.4063
  461TIP3    H1 1347   5.135   0.849   4.320  0.5143  0.9971 -1.9412
  461TIP3    H2 1348   5.155   0.702   4.293 -0.3746  0.5159 -0.1000
  462TIP3   OH2 1349   3.922   5.280   3.449 -0.2988  0.6595  0.3061
  462TIP3    H1 1350   3.868   5.317   3.519  1.4832  0.1952  2.0251
  462TIP3    H2 1351   3.984   5.349   3.427  0.1513  0.2614  0.3057
  463TIP3   OH2 1352   5.832   4.702   0.065  0.5008  0.0972 -0.0439
  463TIP3    H1 1353   5.799   4.617   0.094  1.1002 -0.0771  0.1524
  463TIP3    H2 1354   5.891   4.730   0.135 -0.6439  1.2751  0.5049
  464TIP3   OH2 1355   4.130   5.147   2.025  0.5444  0.4174  0.0262
  464TIP3    H1 1356   4.132   5.092   1.946 -2.9596 -0.0525  0.0866
  464TIP3    H2 1357   4.084   5.227   1.997 -1.8957 -0.2619  1.7307
  465TIP3   OH2 1358   6.894   2.923   3.510  0.0995  0.0794  0.2830
  465TIP3    H1 1359   6.934   2.842   3.479  1.2544  1.1024 -0.9825
  465TIP3    H2 1360   6.846   2.957   3.435 -1.5381 -0.0779  1.1936
  466TIP3   OH2 1361   1.920   3.559   3.877 -0.2558  0.9271  0.5226
  466TIP3    H1 1362   2.003   3.526   3.842 -1.0579 -1.3936  0.6321
  466TIP3    H2 1363   1.890   3.624   3.814  0.6323  0.2697 -0.5970
  467TIP3   OH2 1364   3.149   0.045   4.325  0.5843  0.2595  0.8050
  467TIP3    H1 1365   3.205   0.074   4.253  1.6654 -0.6869  1.2411
  467TIP3    H2 1366   3.080  -0.007   4.282 -0.0715  1.5252  0.2578
  468TIP3   OH2 1367   0.743   6.080   0.968 -0.4253 -0.2998 -0.1239
  468TIP3    H1 1368   0.715   6.171   0.978 -0.3318 -0.3448  0.5845
  468TIP3    H2 1369   0.712   6.056   0.880 -1.7307 -0.0366  0.2351
  469TIP3   OH2 1370   2.937   1.835   3.527 -0.1682 -0.1953  0.2766
  469TIP3    H1 1371   2.983   1.917   3.544  0.8266 -0.5066 -0.7586
  469TIP3    H2 1372   2.845   1.856   3.538  0.0914  0.9839  0.3405
  470TIP3   OH2 1373   1.459   0.104   0.660 -0.0550  0.1825  0.2809
  470TIP3    H1 1374   1.507   0.095   0.742 -0.0135  0.8436  0.3318
  470TIP3    H2 1375   1.373   0.135   0.685  0.1493  0.9698  0.0346
  471TIP3   OH2 1376   3.908   6.344   1.107 -0.0400 -0.4823  0.3287
  471TIP3    H1 1377   3.887   6.361   1.199 -1.1750  0.9692 -0.1701
  471TIP3    H2 1378   3.898   6.428   1.064  0.0172 -1.2330 -1.2173
  472TIP3   OH2 1379   4.137   1.092   1.301  0.0159  0.4551 -0.1435
  472TIP3    H1 1380   4.174   1.163   1.249  1.0126  0.1886  0.1858
  472TIP3    H2 1381   4.114   1.025   1.237  1.3095  0.0967 -0.2531
  473TIP3   OH2 1382   2.266   2.030   4.264 -0.2732 -0.4445  0.2151
  473TIP3    H1 1383   2.277   1.944   4.305 -1.1284 -0.6746 -0.0181
  473TIP3    H2 1384   2.172   2.048   4.272 -0.8562 -1.3115 -3.2421
  474TIP3   OH2 1385   6.442   2.183   5.799 -0.5764  0.0939  0.2603
  474TIP3    H1 1386   6.417   2.275   5.785  1.3045  0.6931  0.6275
  474TIP3    H2 1387   6.508   2.186   5.867 -0.8933 -1.6219  0.6908
  475TIP3   OH2 1388   5.629   4.438   2.108  0.5477  0.0242  0.1484
  475TIP3    H1 1389   5.578   4.401   2.180 -0.1231 -0.9155 -0.7952
  475TIP3    H2 1390   5.709   4.385   2.105 -0.3202 -1.2859 -1.0678
  476TIP3   OH2 1391   6.945   1.279   5.136  0.0229 -0.1595  0.1930
  476TIP3    H1 1392   6.905   1.221   5.200 -1.3061 -0.9649 -1.2793
  476TIP3    H2 1393   6.948   1.365   5.179 -2.2796 -0.3210  0.7908
  477TIP3   OH2 1394   6.645   4.143   2.917 -0.2263 -0.1941  0.0018
  477TIP3    H1 1395   6.615   4.135   2.827 -0.2496 -0.9976  0.0785
  477TIP3    H2 1396   6.574   4.187   2.963 -1.4442 -2.2997  0.2439
  478TIP3   OH2 1397   7.177   5.896   3.523 -0.4254  0.0024  0.1975
  478TIP3    H1 1398   7.105   5.833   3.522  0.6840 -1.3127  0.2970
  478TIP3    H2 1399   7.134   5.982   3.522 -1.9586 -0.7439 -0.5190
  479TIP3   OH2 1400   0.916   2.439   0.233 -0.8052  0.0422 -0.5035
  479TIP3    H1 1401   0.900   2.527   0.199 -2.9408 -0.1244 -0.0093
  479TIP3    H2 1402   0.933   2.386   0.154  0.6921  0.8727 -0.7929
  480TIP3   OH2 1403   1.701   0.130   0.790  0.3194 -0.4057 -0.7978
  480TIP3    H1 1404   1.790   0.097   0.774  0.4344  0.3121 -1.7682
  480TIP3    H2 1405   1.710   0.226   0.786  0.0118 -0.1753  2.0123
  481TIP3   OH2 1406   1.506   3.693   2.832 -0.0883  0.4274  0.2207
  481TIP3    H1 1407   1.513   3.733   2.746  0.1057 -2.6662 -1.3458
  481TIP3    H2 1408   1.464   3.609   2.816 -0.2949 -0.1553  3.2185
  482TIP3   OH2 1409   2.752   4.722   2.052 -0.5767 -0.1304 -0.2998
  482TIP3    H1 1410   2.771   4.648   2.110  0.3536 -0.1143 -0.5568
  482TIP3    H2 1411   2.806   4.705   1.974  1.1281  1.7259  0.3956
  483TIP3   OH2 1412   3.411   1.249   0.122  0.0586  0.3003  0.3041
  483TIP3    H1 1413   3.392   1.300   0.201 -2.2191  1.4957 -0.9357
  483TIP3    H2 1414   3.326   1.233   0.082  1.0015 -1.7109 -1.0985
  484TIP3   OH2 1415   3.093   3.053   2.360 -0.1968 -0.0954 -0.0401
  484TIP3    H1 1416   3.170   3.001   2.382 -0.2252 -0.0396  0.2064
  484TIP3    H2 1417   3.035   2.993   2.315 -0.3242 -0.3412  0.4431
  485TIP3   OH2 1418   1.375   2.804   2.865 -0.4482  0.3470 -0.3113
  485TIP3    H1 1419   1.308   2.818   2.933 -0.0259 -0.1699  0.2226
  485TIP3    H2 1420   1.367   2.880   2.808 -2.7359 -0.5689 -1.3247
  486TIP3   OH2 1421   5.071   5.510   5.465  0.0500  0.2801  0.1267
  486TIP3    H1 1422   5.111   5.471   5.543 -1.1297  0.7377  0.9968
  486TIP3    H2 1423   5.124   5.588   5.448  0.0405  0.4352  0.7658
  487TIP3   OH2 1424   4.396   2.764   2.119  0.1509 -0.0428 -0.0837
  487TIP3    H1 1425   4.369   2.846   2.160  2.1993  0.2460  0.8242
  487TIP3    H2 1426   4.371   2.774   2.027  2.2990  2.6238 -0.5265
  488TIP3   OH2 1427   1.698   3.434   0.946  0.4457  0.1817 -0.2097
  488TIP3    H1 1428   1.658   3.516   0.918 -1.0014 -0.1608  0.7217
  488TIP3    H2 1429   1.652   3.366   0.896  1.3958 -0.0835 -0.7323
  489TIP3   OH2 1430   0.806   2.466   1.502  0.4111 -0.1631 -0.5914
  489TIP3    H1 1431   0.798   2.377   1.470  1.1245 -0.5736  0.3231
  489TIP3    H2 1432   0.854   2.458   1.584  2.3208  1.2349 -1.4726
  490TIP3   OH2 1433   5.149   1.711   0.400 -0.2363 -0.1349  0.0011
  490TIP3    H1 1434   5.220   1.651   0.378  0.2440  0.6873 -0.7646
  490TIP3    H2 1435   5.193   1.793   0.424 -0.8907  0.0181  0.7110
  491TIP3   OH2 1436   4.045   1.646   3.885 -0.0430 -0.6045 -0.3686
  491TIP3    H1 1437   4.034   1.600   3.968  2.7119 -1.3865 -0.3686
  491TIP3    H2 1438   3.989   1.724   3.894  1.3054  0.1380  2.8659
  492TIP3   OH2 1439   0.887   1.456   3.727  0.0601  0.2783 -0.1106
  492TIP3    H1 1440   0.912   1.376   3.681  1.7092  1.8840 -2.2188
  492TIP3    H2 1441   0.806   1.484   3.684 -0.4763 -0.2098  0.5760
  493TIP3   OH2 1442   3.171   4.758   4.593  0.2322 -0.0032 -0.6918
  493TIP3    H1 1443   3.173   4.743   4.498 -3.8429 -1.5969 -0.7266
  493TIP3    H2 1444   3.131   4.845   4.602 -0.1025 -0.1792 -0.4569
  494TIP3   OH2 1445   0.257   0.323   3.253  0.4342 -0.0882 -0.4647
  494TIP3    H1 1446   0.264   0.415   3.280 -2.0553 -0.1294  0.5341
  494TIP3    H2 1447   0.322   0.278   3.306  1.3879  1.0025 -0.6473
  495TIP3   OH2 1448   2.055   6.429   2.613 -0.0269  0.5750  0.5401
  495TIP3    H1 1449   1.996   6.474   2.674  1.1410 -0.2566  2.3675
  495TIP3    H2 1450   2.142   6.461   2.636  0.4527  0.2408 -0.7274
  496TIP3   OH2 1451   1.046   5.025   2.837  0.1399 -0.1575  0.1756
  496TIP3    H1 1452   0.963   5.058   2.871  0.2750  0.5186 -0.1347
  496TIP3    H2 1453   1.093   5.103   2.808  1.3813 -0.4034  1.3969
  497TIP3   OH2 1454   3.677   1.539   4.983  0.3967 -0.1567 -0.3907
  497TIP3    H1 1455   3.595   1.492   4.965 -0.2540  0.6871  0.2561
  497TIP3    H2 1456   3.702   1.509   5.070  1.0004 -0.7058 -0.7455
  498TIP3   OH2 1457   3.236   0.222   5.750  0.1144 -0.2770  0.4277
  498TIP3    H1 1458   3.159   0.203   5.697  3.1047 -1.5178 -4.0061
  498TIP3    H2 1459   3.249   0.142   5.802 -0.9373 -0.5257  0.3250
  499TIP3   OH2 1460   1.873   4.820   1.783 -0.1156  0.1457  0.2980
  499TIP3    H1 1461   1.802   4.765   1.815  1.7887 -1.5427  1.9906
  499TIP3    H2 1462   1.864   4.902   1.832 -0.6732 -0.1902  0.7730
  500TIP3   OH2 1463   6.265   5.287   0.783  0.0012  0.2556 -0.5607
  500TIP3    H1 1464   6.266   5.334   0.867  1.0886 -0.0606 -0.3828
  500TIP3    H2 1465   6.239   5.353   0.719 -1.5418  0.3367  0.1054
  501TIP3   OH2 1466   3.532   3.152   1.304  0.1526 -0.1582  0.3422
  501TIP3    H1 1467   3.574   3.070   1.276  1.7956  0.6390  0.3670
  501TIP3    H2 1468   3.440   3.128   1.316  0.0782 -1.4348 -2.0508
  502TIP3   OH2 1469   1.356   4.929   0.604 -0.0790 -0.1115  0.3034
  502TIP3    H1 1470   1.433   4.880   0.634  0.2911  0.1732 -0.1630
  502TIP3    H2 1471   1.291   4.916   0.673  0.5856  0.1277  0.9829
  503TIP3   OH2 1472   6.254   6.747   0.292 -0.3118  0.2197  0.2732
  503TIP3    H1 1473   6.312   6.731   0.367  0.1035  1.9095  0.3720
  503TIP3    H2 1474   6.314   6.753   0.217 -0.5828 -0.0933  0.0309
  504TIP3   OH2 1475   4.322   3.440   5.290 -0.1238 -0.2972  0.0154
  504TIP3    H1 1476   4.363   3.527   5.283 -0.4432 -0.1730 -0.3297
  504TIP3    H2 1477   4.392   3.379   5.269 -0.2537 -0.0609 -1.1730
  505TIP3   OH2 1478   7.045   2.726   4.068 -0.0473  0.1329  0.3695
  505TIP3    H1 1479   7.139   2.709   4.072  0.0535  0.9229  1.6786
  505TIP3    H2 1480   7.037   2.803   4.012  0.3193  1.5998  2.2802
  506TIP3   OH2 1481   5.226   1.620   4.865  0.0572 -0.5373 -0.0230
  506TIP3    H1 1482   5.228   1.631   4.770  0.8167 -0.0839  0.0368
  506TIP3    H2 1483   5.211   1.527   4.879  1.3683 -0.8578 -0.5982
  507TIP3   OH2 1484   6.752   1.257   2.748 -0.2236 -0.0599  0.2766
  507TIP3    H1 1485   6.817   1.209   2.697 -0.8657  1.8379 -2.5279
  507TIP3    H2 1486   6.680   1.196   2.759 -0.2064 -0.4344 -1.4521
  508TIP3   OH2 1487   5.454   4.471   5.246 -0.1260  0.2213 -0.6573
  508TIP3    H1 1488   5.446   4.555   5.201 -0.1780  0.0484 -0.9737
  508TIP3    H2 1489   5.372   4.426   5.226  0.3408 -0.3334 -1.3715
  509TIP3   OH2 1490   1.461   4.787   2.117  0.1296  0.0411  0.0825
  509TIP3    H1 1491   1.373   4.811   2.087 -0.2325  0.4774  1.4175
  509TIP3    H2 1492   1.468   4.693   2.098 -1.7000 -0.6552  2.3517
  510TIP3   OH2 1493   3.135   6.265   2.559  0.4391  0.5009 -0.2707
  510TIP3    H1 1494   3.172   6.260   2.647 -0.6340 -1.3599  0.1344
  510TIP3    H2 1495   3.042   6.283   2.573  0.3877  0.9216 -1.0704
  511TIP3   OH2 1496   1.107   4.249   4.357 -0.0532 -0.4943 -0.1579
  511TIP3    H1 1497   1.093   4.161   4.321 -0.4341 -1.9541  3.1671
  511TIP3    H2 1498   1.104   4.237   4.452 -3.5579  3.6530  0.5749
  512TIP3   OH2 1499   4.750   5.899   1.535  0.5932  0.1246  0.6548
  512TIP3    H1 1500   4.793   5.934   1.613  0.9830  3.0918 -0.7654
  512TIP3    H2 1501   4.704   5.974   1.497  0.1307 -1.2829 -1.7754
  513TIP3   OH2 1502   3.228   6.215   2.833  0.4880 -0.6474  0.3243
  513TIP3    H1 1503   3.227   6.289   2.893  0.1303 -1.0712  0.8424
  513TIP3    H2 1504   3.318   6.182   2.837  0.4093 -0.8058  0.7826
  514TIP3   OH2 1505   1.396   6.247   0.054 -0.2597  0.4988 -0.2011
  514TIP3    H1 1506   1.471   6.192   0.029 -0.8128 -0.1027 -0.5587
  514TIP3    H2 1507   1.432   6.308   0.117  0.7897  0.9226 -1.1751
  515TIP3   OH2 1508   6.609   0.693   5.336 -0.8379  0.5598 -0.2357
  515TIP3    H1 1509   6.613   0.599   5.315  0.1537 -0.2911  3.1479
  515TIP3    H2 1510   6.701   0.719   5.346 -1.0435  2.2412 -2.1458
  516TIP3   OH2 1511   1.168   6.691   4.534  0.2091 -0.2487  0.1117
  516TIP3    H1 1512   1.256   6.729   4.536 -0.0457  0.3288  1.9551
  516TIP3    H2 1513   1.148   6.683   4.440  1.6559  0.9232 -0.3382
  517TIP3   OH2 1514   5.521   6.647   3.568 -0.1113  0.0083  0.0265
  517TIP3    H1 1515   5.506   6.553   3.553  0.1821 -0.2323  1.1147
  517TIP3    H2 1516   5.437   6.688   3.547 -0.5459 -0.6222  0.4732
  518TIP3   OH2 1517   5.223   6.389   4.084 -0.4904 -0.5106 -0.0965
  518TIP3    H1 1518   5.307   6.343   4.090 -1.1663 -1.7526  0.0687
  518TIP3    H2 1519   5.160   6.321   4.060 -1.4145  0.4548 -0.4737
  519TIP3   OH2 1520   5.770   2.013   5.790  0.4246 -0.4895  0.7233
  519TIP3    H1 1521   5.730   1.939   5.836 -0.7505  0.2153  0.8851
  519TIP3    H2 1522   5.834   1.974   5.732 -1.2911 -1.7834 -0.3855
  520TIP3   OH2 1523   1.446   2.019   0.599 -0.3969  0.5888  0.1132
  520TIP3    H1 1524   1.492   2.016   0.683  1.4255  0.7373 -0.8284
  520TIP3    H2 1525   1.495   1.960   0.543 -1.9353  0.0524 -0.7155
  521TIP3   OH2 1526   5.800   2.878   3.442 -0.2269 -0.2436 -0.1195
  521TIP3    H1 1527   5.768   2.956   3.488 -0.6871 -0.3767 -0.2074
  521TIP3    H2 1528   5.731   2.813   3.455  0.8350 -1.1410  1.2634
  522TIP3   OH2 1529   6.180   3.787   5.010  0.8004 -0.4325 -0.0089
  522TIP3    H1 1530   6.123   3.727   5.057  0.3875  0.7552  1.0394
  522TIP3    H2 1531   6.235   3.730   4.956  0.3813 -1.7379  0.9065
  523TIP3   OH2 1532   1.929   1.807   0.913 -0.7255 -0.0406  0.1444
  523TIP3    H1 1533   1.866   1.800   0.841 -1.2509  4.3951 -0.1000
  523TIP3    H2 1534   2.002   1.856   0.875 -0.3323  1.0495  2.1610
  524TIP3   OH2 1535   2.061   5.591   1.566  0.2414  0.3312  0.1814
  524TIP3    H1 1536   2.003   5.600   1.490 -0.3315 -0.3867  0.5175
  524TIP3    H2 1537   2.107   5.675   1.572 -1.4917  1.3011  0.5010
  525TIP3   OH2 1538   1.725   0.961   2.475  0.4463 -0.2211 -0.1289
  525TIP3    H1 1539   1.732   0.988   2.383 -0.6778  0.9273  0.0860
  525TIP3    H2 1540   1.706   1.042   2.522  1.4856 -0.7104  1.2032
  526TIP3   OH2 1541   5.185   1.061   2.006 -0.8019 -0.2315 -0.1698
  526TIP3    H1 1542   5.152   1.146   1.976 -0.5015  0.2364  0.7762
  526TIP3    H2 1543   5.226   1.080   2.090  0.7138 -1.0407 -0.6970
  527TIP3   OH2 1544   0.909   2.952   0.706  0.7634  0.6047  0.7888
  527TIP3    H1 1545   0.986   2.916   0.663  1.1667  1.4103  0.7989
  527TIP3    H2 1546   0.874   3.014   0.643  0.0848  0.1932  0.7623
  528TIP3   OH2 1547   1.171   3.891   1.823 -0.5034 -0.1918  0.3685
  528TIP3    H1 1548   1.176   3.837   1.902  0.5838  0.8482  1.0403
  528TIP3    H2 1549   1.143   3.830   1.754  1.8209 -1.9211  0.8238
  529TIP3   OH2 1550   3.847   2.905   2.844 -0.8637 -0.0314  0.3485
  529TIP3    H1 1551   3.852   2.956   2.925  0.3995 -0.4299  0.5443
  529TIP3    H2 1552   3.783   2.836   2.863  0.8013 -1.2818  1.7265
  530TIP3   OH2 1553   4.099   6.351   5.191  0.7602 -0.6973 -0.1659
  530TIP3    H1 1554   4.020   6.357   5.138 -1.8142 -1.2524  3.2551
  530TIP3    H2 1555   4.157   6.292   5.142 -1.7627 -1.9265 -1.8687
  531TIP3   OH2 1556   4.628   5.072   4.844 -0.2803  0.3950 -0.4657
  531TIP3    H1 1557   4.542   5.109   4.823 -0.9052  0.2473  1.6092
  531TIP3    H2 1558   4.642   5.005   4.777 -0.7629  1.8771 -2.1250
  532TIP3   OH2 1559   3.337   6.374   4.266 -0.0389 -0.0901 -0.4090
  532TIP3    H1 1560   3.396   6.346   4.335 -0.7729  1.6754  1.0319
  532TIP3    H2 1561   3.254   6.330   4.285 -0.1126  0.0453 -0.4098
  533TIP3   OH2 1562   4.403   2.336   2.047 -0.0460 -0.0218 -0.3421
  533TIP3    H1 1563   4.435   2.247   2.059  0.8670  0.2588 -0.5952
  533TIP3    H2 1564   4.424   2.381   2.129 -0.4724 -0.0244 -0.2272
  534TIP3   OH2 1565   2.150   5.565   0.747 -0.3067 -0.1205  0.5138
  534TIP3    H1 1566   2.094   5.510   0.692  1.5447 -1.8037  0.1802
  534TIP3    H2 1567   2.168   5.510   0.823  1.2369  0.1790  0.3895
  535TIP3   OH2 1568   6.468   4.180   1.338  0.2956  0.2366  0.1333
  535TIP3    H1 1569   6.410   4.182   1.414 -0.2293 -2.5836 -0.0780
  535TIP3    H2 1570   6.410   4.189   1.263  0.6636  1.6409 -0.0118
  536TIP3   OH2 1571   3.370   1.731   2.955 -0.5446 -0.4291  0.4904
  536TIP3    H1 1572   3.370   1.725   2.859  1.5363  0.9671  0.3300
  536TIP3    H2 1573   3.460   1.756   2.977 -0.2348 -3.1487  3.0205
  537TIP3   OH2 1574   1.829   6.323   5.252 -0.3947  0.0176  0.1596
  537TIP3    H1 1575   1.817   6.257   5.184  1.5111  1.0249 -1.2752
  537TIP3    H2 1576   1.755   6.383   5.240  0.9209  1.3359 -2.5835
  538TIP3   OH2 1577   2.456   1.090   3.250 -0.0686  0.1258  0.6613
  538TIP3    H1 1578   2.530   1.099   3.190 -0.3322  0.7673  0.4259
  538TIP3    H2 1579   2.429   1.180   3.268 -1.7543 -0.1228 -0.4606
  539TIP3   OH2 1580   6.097   1.930   2.698  0.1747 -0.6414  0.3843
  539TIP3    H1 1581   6.121   1.849   2.653  0.3548 -0.4161  0.0726
  539TIP3    H2 1582   6.012   1.954   2.662  0.6357 -0.0837 -0.3583
  540TIP3   OH2 1583   4.531   4.386   3.440  0.2817  0.2819 -0.2804
  540TIP3    H1 1584   4.563   4.298   3.459  1.0932  0.7882  0.8456
  540TIP3    H2 1585   4.514   4.386   3.346  0.2421 -1.0764 -0.2879
  541TIP3   OH2 1586   3.494   1.930   2.611  0.4416  0.7580 -0.2481
  541TIP3    H1 1587   3.504   2.019   2.577  2.3434  0.6344 -0.1375
  541TIP3    H2 1588   3.583   1.902   2.632 -0.2498 -0.6737  1.0194
  542TIP3   OH2 1589   5.715   2.478   2.631  0.1914 -0.4021  0.0787
  542TIP3    H1 1590   5.651   2.425   2.583  0.0425 -1.9203  1.7869
  542TIP3    H2 1591   5.663   2.524   2.697  0.6612 -0.5289  0.5527
  543TIP3   OH2 1592   4.648   2.047   3.972 -0.3545  0.2969  0.0367
  543TIP3    H1 1593   4.625   2.094   3.892 -1.1443 -0.5879 -0.2825
  543TIP3    H2 1594   4.626   2.107   4.043  1.2408  1.4625 -0.4064
  544TIP3   OH2 1595   3.853   1.308   1.783  0.2911 -0.2757  0.1286
  544TIP3    H1 1596   3.909   1.263   1.720  0.5887 -0.7756  0.7342
  544TIP3    H2 1597   3.849   1.399   1.752 -0.0835 -0.6396 -0.9522
  545TIP3   OH2 1598   1.789   1.723   1.676  0.4051  0.2742  0.3689
  545TIP3    H1 1599   1.758   1.661   1.742 -1.4507 -1.1677 -1.7121
  545TIP3    H2 1600   1.876   1.691   1.652  0.2044 -0.4687  0.6056
  546TIP3   OH2 1601   0.938  -0.027   0.285  0.5146  0.5325  0.3352
  546TIP3    H1 1602   1.007   0.002   0.226  1.2082 -0.3789  0.6735
  546TIP3    H2 1603   0.876   0.046   0.288  2.0088  1.8335  0.8805
  547TIP3   OH2 1604   5.451   1.331   5.914  0.1161  0.4239  0.1579
  547TIP3    H1 1605   5.413   1.271   5.850  1.3551 -0.0063 -0.2047
  547TIP3    H2 1606   5.481   1.405   5.861 -0.8442  1.0904  0.5275
  548TIP3   OH2 1607   3.664   2.404   2.396 -0.6811  0.0226 -0.6397
  548TIP3    H1 1608   3.655   2.497   2.416 -0.9737  0.0717 -0.9633
  548TIP3    H2 1609   3.664   2.401   2.300  0.2307 -0.2343 -0.6334
  549TIP3   OH2 1610   7.234   6.117   2.195  0.1057  0.4731  0.5459
  549TIP3    H1 1611   7.175   6.151   2.262 -0.2934 -0.3953  0.6493
  549TIP3    H2 1612   7.185   6.047   2.153  0.4880  0.7853 -0.4287
  550TIP3   OH2 1613   6.973   2.115   2.325  0.2191  0.1574  0.3235
  550TIP3    H1 1614   6.894   2.065   2.344 -0.8646  0.4671 -2.8837
  550TIP3    H2 1615   6.944   2.188   2.271  2.5862  0.7936 -0.2292
  551TIP3   OH2 1616   4.840   0.846   1.829 -0.1448  0.6946  0.9359
  551TIP3    H1 1617   4.825   0.937   1.855 -0.2422  0.8738  0.2705
  551TIP3    H2 1618   4.845   0.798   1.912 -1.1343  1.1397  1.2632
  552TIP3   OH2 1619   4.500   6.725   4.897 -0.3639  0.2296 -0.1823
  552TIP3    H1 1620   4.561   6.787   4.938  1.8951 -0.7479 -1.8436
  552TIP3    H2 1621   4.459   6.775   4.826  1.9990 -0.2436 -1.9924
  553TIP3   OH2 1622   2.317   3.754   5.009 -0.3799 -0.0844 -0.2832
  553TIP3    H1 1623   2.323   3.847   5.029 -0.7434  0.2307 -1.5654
  553TIP3    H2 1624   2.223   3.737   5.003 -0.4442 -1.0502  2.0817
  554TIP3   OH2 1625   6.742   1.820   1.588  0.6346  0.4517 -0.3111
  554TIP3    H1 1626   6.664   1.767   1.605  0.6273  0.9517  1.3538
  554TIP3    H2 1627   6.799   1.764   1.536  0.6721 -1.2503  1.4873
  555TIP3   OH2 1628   3.957   5.075   1.759 -0.3304  0.4208  0.4029
  555TIP3    H1 1629   3.903   5.143   1.720 -0.1062  0.8820  0.8792
  555TIP3    H2 1630   4.042   5.082   1.714 -0.0256  1.0489  1.0621
  556TIP3   OH2 1631   2.239   1.131   5.452 -0.3390 -0.1979  0.2885
  556TIP3    H1 1632   2.250   1.160   5.361  1.5801 -0.1396  0.4964
  556TIP3    H2 1633   2.177   1.059   5.447  0.4878 -0.8567 -1.2293
  557TIP3   OH2 1634   0.221   0.586   3.303 -0.2689  0.4396  0.1155
  557TIP3    H1 1635   0.224   0.629   3.389 -1.2683 -0.4008  0.5999
  557TIP3    H2 1636   0.171   0.647   3.248  0.6272  1.1140  0.0442
  558TIP3   OH2 1637   6.493   3.906   3.457 -0.0727  0.3995 -0.1478
  558TIP3    H1 1638   6.446   3.989   3.449 -0.6357  0.1132  0.1271
  558TIP3    H2 1639   6.433   3.849   3.507 -0.1737 -0.5408 -1.2964
  559TIP3   OH2 1640   3.061   4.960   0.358 -0.0335 -0.9126 -0.5443
  559TIP3    H1 1641   3.009   5.041   0.354  1.2299 -0.0820 -0.9299
  559TIP3    H2 1642   3.022   4.903   0.292  0.4977  0.3149 -1.9908
  560TIP3   OH2 1643   0.704   6.185   3.025  0.3810 -0.0089 -0.1672
  560TIP3    H1 1644   0.639   6.183   3.095 -0.2512  0.3829 -0.7162
  560TIP3    H2 1645   0.765   6.254   3.050 -0.4765  0.9046 -0.5226
  561TIP3   OH2 1646   4.206   3.101   2.489 -0.4611  0.8944 -0.3540
  561TIP3    H1 1647   4.247   3.136   2.568 -0.7252  1.0683 -0.2898
  561TIP3    H2 1648   4.123   3.064   2.521  0.7540 -1.8056 -0.0288
  562TIP3   OH2 1649   0.237   3.117   4.779  0.3767 -1.1155 -0.3109
  562TIP3    H1 1650   0.296   3.159   4.717 -0.6834 -1.4125 -1.5647
  562TIP3    H2 1651   0.169   3.182   4.796  1.1792 -0.6635  1.3566
  563TIP3   OH2 1652   6.405   1.335   1.010 -0.2567 -0.0781 -0.3017
  563TIP3    H1 1653   6.473   1.296   0.957 -1.9939 -0.5728 -2.3129
  563TIP3    H2 1654   6.395   1.424   0.975  0.1150  0.3832  0.7344
  564TIP3   OH2 1655   4.181   0.250   2.321 -0.0540 -0.1014  0.1383
  564TIP3    H1 1656   4.235   0.220   2.247  0.1317  0.9023 -0.1478
  564TIP3    H2 1657   4.097   0.204   2.309  0.0006 -0.0077 -0.6575
  565TIP3   OH2 1658   2.889   5.565   3.844 -0.4457  0.0642 -0.1909
  565TIP3    H1 1659   2.922   5.508   3.914  1.4206  0.7991 -0.4397
  565TIP3    H2 1660   2.952   5.554   3.773  0.6352  3.2421  0.1504
  566TIP3   OH2 1661   1.863   5.847   3.706  0.4065  0.7168 -0.1608
  566TIP3    H1 1662   1.773   5.817   3.715  0.5202 -0.2920 -1.9447
  566TIP3    H2 1663   1.895   5.853   3.796 -0.8867 -0.6813  0.4332
  567TIP3   OH2 1664   0.588   6.526   2.270  0.5542  0.3296  0.1733
  567TIP3    H1 1665   0.640   6.603   2.293  0.3320  0.3862  0.4963
  567TIP3    H2 1666   0.597   6.518   2.175  0.6093  0.7325  0.1448
  568TIP3   OH2 1667   5.538   2.908   1.891 -0.0230  0.1060 -0.1758
  568TIP3    H1 1668   5.452   2.900   1.932 -0.5228 -0.8839 -1.3433
  568TIP3    H2 1669   5.528   2.978   1.827  0.0458  0.0189 -0.2833
  569TIP3   OH2 1670   2.000   4.477   2.125 -0.5588 -0.1489 -0.3490
  569TIP3    H1 1671   2.088   4.475   2.162 -0.5946  1.9635 -0.0209
  569TIP3    H2 1672   2.011   4.448   2.034  0.3527 -0.5686 -0.1138
  570TIP3   OH2 1673   2.920   1.512   5.116  0.3411  0.6052 -0.4758
  570TIP3    H1 1674   2.885   1.431   5.078  1.0878  0.7846 -1.6136
  570TIP3    H2 1675   2.920   1.497   5.210  0.8777 -0.8917 -0.6941
  571TIP3   OH2 1676   3.911   5.597   3.271 -0.0706  0.0060  0.0735
  571TIP3    H1 1677   3.866   5.659   3.329  0.3810 -0.6747  1.1876
  571TIP3    H2 1678   3.992   5.577   3.317  1.3117  1.0338 -1.7957
  572TIP3   OH2 1679   5.647   5.045   4.127 -0.3820 -0.4002  0.3042
  572TIP3    H1 1680   5.586   5.038   4.201 -0.8515  1.3103  0.1354
  572TIP3    H2 1681   5.591   5.063   4.051  0.2612  0.7821  0.0723
  573TIP3   OH2 1682   0.710   4.942   1.857 -0.4337 -0.1779  0.1991
  573TIP3    H1 1683   0.698   4.918   1.949  1.5470 -0.4428  0.4311
  573TIP3    H2 1684   0.645   4.890   1.810 -2.8905  1.4652  1.5750
  574TIP3   OH2 1685   0.967   5.171   3.142  0.6141  0.4133 -0.0929
  574TIP3    H1 1686   1.026   5.247   3.133  1.2581 -0.1835 -1.1547
  574TIP3    H2 1687   0.912   5.175   3.064 -0.9021  1.0529  0.9718
  575TIP3   OH2 1688   3.745   5.332   3.661  0.2728  0.3209  0.3516
  575TIP3    H1 1689   3.661   5.377   3.663 -1.4164 -2.4897 -1.2128
  575TIP3    H2 1690   3.749   5.285   3.745 -0.2544 -0.3600  0.0069
  576TIP3   OH2 1691   5.714   6.618   1.676  0.0305 -0.3013 -0.2485
  576TIP3    H1 1692   5.682   6.699   1.636 -0.7683  0.7881  2.3532
  576TIP3    H2 1693   5.651   6.552   1.650 -0.2052  0.2565 -1.1309
  577TIP3   OH2 1694   3.998   4.388   1.614 -1.1713  0.7732 -0.0349
  577TIP3    H1 1695   3.941   4.315   1.592  0.3897  0.0558 -2.0589
  577TIP3    H2 1696   4.087   4.353   1.603 -0.3337  2.2872  1.4182
  578TIP3   OH2 1697   1.777   0.111   5.430  0.0275 -0.2717 -0.3829
  578TIP3    H1 1698   1.840   0.112   5.502  0.8884  0.6439 -1.1149
  578TIP3    H2 1699   1.823   0.069   5.358 -1.5562 -3.1451  0.1609
  579TIP3   OH2 1700   1.748   2.487   3.444  0.0710  0.1360  0.2010
  579TIP3    H1 1701   1.793   2.569   3.464 -0.7412  0.2631  1.6264
  579TIP3    H2 1702   1.664   2.494   3.490 -0.0686 -1.4213  0.2310
  580TIP3   OH2 1703   0.233   1.483   3.398 -0.1725 -0.2464  0.1523
  580TIP3    H1 1704   0.202   1.504   3.487 -1.6959  0.9912 -0.6189
  580TIP3    H2 1705   0.312   1.430   3.412 -1.0221 -1.0570  2.2319
  581TIP3   OH2 1706   1.345   0.457   5.110 -0.2607  0.4803 -0.9750
  581TIP3    H1 1707   1.289   0.396   5.158 -0.2455  0.1496 -1.3722
  581TIP3    H2 1708   1.400   0.497   5.178 -0.6231  0.4309 -0.6476
  582TIP3   OH2 1709   5.447   5.278   2.605  0.2354 -0.0519 -0.1147
  582TIP3    H1 1710   5.358   5.289   2.639  0.0564  1.3336 -0.9733
  582TIP3    H2 1711   5.437   5.276   2.510  1.2362  1.8553 -0.3151
  583TIP3   OH2 1712   3.279   4.924   4.367  0.2474  0.4342 -0.5292
  583TIP3    H1 1713   3.205   4.978   4.396 -0.0031 -0.2629  0.1780
  583TIP3    H2 1714   3.241   4.837   4.353  0.7594  0.2944 -1.0758
  584TIP3   OH2 1715   4.754   5.116   4.290  0.2688  0.2752 -0.4607
  584TIP3    H1 1716   4.835   5.082   4.253 -1.0505 -3.9087 -0.1005
  584TIP3    H2 1717   4.712   5.163   4.217  1.8002  0.2122 -1.4198
  585TIP3   OH2 1718   5.465   2.941   5.021 -0.2648  0.4365  0.4471
  585TIP3    H1 1719   5.493   2.983   4.939 -0.9687 -0.5294 -0.3057
  585TIP3    H2 1720   5.502   2.853   5.018 -1.3893 -0.0509  0.5461
  586TIP3   OH2 1721   0.061   3.616   5.380  0.1661  0.6616  0.3463
  586TIP3    H1 1722   0.147   3.623   5.422 -0.1026  0.7789  0.8793
  586TIP3    H2 1723   0.011   3.689   5.415  0.3693  1.6156 -1.2547
  587TIP3   OH2 1724   6.649   4.370   2.615 -0.4093 -0.2959 -0.1915
  587TIP3    H1 1725   6.673   4.412   2.697  1.3001 -2.6656  0.6131
  587TIP3    H2 1726   6.555   4.385   2.607 -0.2685  1.6442  1.1678
  588TIP3   OH2 1727   5.323   0.576   1.663  0.0803 -0.6031  0.0957
  588TIP3    H1 1728   5.298   0.633   1.736 -0.6720 -0.5899 -0.1680
  588TIP3    H2 1729   5.251   0.583   1.601  0.7244 -0.6067 -0.6620
  589TIP3   OH2 1730   0.735   2.768   3.591 -0.2312  0.2299 -0.4264
  589TIP3    H1 1731   0.730   2.682   3.632 -1.3322  0.3641 -0.2486
  589TIP3    H2 1732   0.768   2.750   3.503 -0.5419 -0.3874 -0.4226
  590TIP3   OH2 1733   2.663   6.281   0.097  0.1342 -0.2956  0.3551
  590TIP3    H1 1734   2.700   6.358   0.140  1.4499 -1.4543  1.4228
  590TIP3    H2 1735   2.683   6.293   0.004 -0.8092  1.2153  0.3131
  591TIP3   OH2 1736   4.873   2.812   1.843 -0.0193  0.3979  0.4573
  591TIP3    H1 1737   4.866   2.734   1.788  1.4017  0.6075 -0.0548
  591TIP3    H2 1738   4.927   2.873   1.793 -0.4058  1.4068  1.2097
  592TIP3   OH2 1739   1.655   4.919   2.269 -0.1144  0.3076  0.1870
  592TIP3    H1 1740   1.735   4.876   2.238 -0.1598 -1.6987  2.4921
  592TIP3    H2 1741   1.584   4.867   2.231 -0.2644  0.5960  0.0741
  593TIP3   OH2 1742   3.667   2.522   3.951  0.1161  0.1740 -0.3717
  593TIP3    H1 1743   3.714   2.602   3.975  0.3851  0.3339 -1.3716
  593TIP3    H2 1744   3.701   2.500   3.864 -1.7773  0.4214 -1.2443
  594TIP3   OH2 1745   2.560   2.096   0.730 -0.4659  0.2086 -1.0783
  594TIP3    H1 1746   2.574   2.159   0.660  0.3420  0.1423 -0.9831
  594TIP3    H2 1747   2.646   2.085   0.770 -0.8738  0.0732 -0.2193
  595TIP3   OH2 1748   2.269   5.155   1.550  0.0588  0.1858 -0.1486
  595TIP3    H1 1749   2.346   5.110   1.585 -0.0377  0.1713  0.0460
  595TIP3    H2 1750   2.198   5.092   1.561 -0.2716  0.7276  1.0009
  596TIP3   OH2 1751   2.966   2.319   4.599 -0.2715 -0.1696 -0.6288
  596TIP3    H1 1752   3.044   2.359   4.637 -0.4684 -2.0626  2.1590
  596TIP3    H2 1753   2.893   2.367   4.637 -0.4605 -0.8026 -0.1626
  597TIP3   OH2 1754   0.643   1.492   3.605 -0.6631 -0.0122 -0.0769
  597TIP3    H1 1755   0.615   1.402   3.591 -1.2722  0.2339 -0.4656
  597TIP3    H2 1756   0.573   1.532   3.657  0.1483 -0.0715  1.0985
  598TIP3   OH2 1757   4.411   3.511   0.225 -0.2344  0.1905  0.0331
  598TIP3    H1 1758   4.403   3.536   0.317  3.5707 -2.1457  1.2216
  598TIP3    H2 1759   4.459   3.584   0.184  1.1780 -0.2691  0.8129
  599TIP3   OH2 1760   0.373   3.420   2.948  0.2732 -0.4178  0.0775
  599TIP3    H1 1761   0.340   3.415   2.858  1.1167 -1.0852 -0.2073
  599TIP3    H2 1762   0.303   3.465   2.996 -0.2472 -0.1662 -0.8776
  600TIP3   OH2 1763   7.003   0.811   4.939  0.7721 -0.3637  0.3781
  600TIP3    H1 1764   7.022   0.904   4.942 -1.1283  0.0373  1.6321
  600TIP3    H2 1765   6.978   0.794   4.848  0.5955  0.4680  0.2708
  601TIP3   OH2 1766   6.066   6.169   4.711  0.0093  0.2088  0.4756
  601TIP3    H1 1767   6.152   6.158   4.752 -0.1658 -0.1777  0.7509
  601TIP3    H2 1768   6.075   6.247   4.656  0.1292  0.9679  1.5498
  602TIP3   OH2 1769   3.215   5.505   2.697  0.1279  0.1717  0.3246
  602TIP3    H1 1770   3.237   5.583   2.748  1.8266 -0.3010  0.3755
  602TIP3    H2 1771   3.174   5.540   2.618  0.4191  1.1067  0.5639
  603TIP3   OH2 1772   2.001   4.581   5.124 -0.4037 -0.2945 -0.3110
  603TIP3    H1 1773   2.044   4.628   5.196 -1.6459 -0.0977  0.3405
  603TIP3    H2 1774   1.924   4.635   5.103 -0.5790 -0.8467 -1.1386
  604TIP3   OH2 1775   1.172   0.971   5.579 -0.0572  0.2188  0.1988
  604TIP3    H1 1776   1.207   0.884   5.598  1.8388  1.1608  1.3821
  604TIP3    H2 1777   1.163   0.974   5.484 -1.5352 -1.7106  0.2147
  605TIP3   OH2 1778   1.975   2.703   0.243 -0.1020  0.1307 -1.0412
  605TIP3    H1 1779   2.057   2.688   0.195  0.7512  0.1256  0.3690
  605TIP3    H2 1780   1.934   2.616   0.247 -0.5649  0.2590 -2.3729
  606TIP3   OH2 1781   5.173   2.226   0.170  0.5844 -0.3944 -0.7115
  606TIP3    H1 1782   5.215   2.243   0.085  2.3977  1.2188  0.4412
  606TIP3    H2 1783   5.227   2.157   0.209  0.6661 -0.0636 -0.2404
  607TIP3   OH2 1784   0.448   0.327   2.972  0.3568 -0.1559  0.2187
  607TIP3    H1 1785   0.410   0.414   2.970  1.6902  0.4504 -0.3489
  607TIP3    H2 1786   0.396   0.276   2.910  0.2508  0.5404 -0.2697
  608TIP3   OH2 1787   4.667   1.485   3.221 -0.0240  0.2942 -0.1710
  608TIP3    H1 1788   4.582   1.442   3.222 -0.0683  0.3812  1.2268
  608TIP3    H2 1789   4.727   1.419   3.186 -0.3245 -0.4689  0.7144
  609TIP3   OH2 1790   2.439   5.439   0.103 -0.5722  0.4592 -0.3466
  609TIP3    H1 1791   2.384   5.403   0.033  0.3996 -1.3483 -0.2455
  609TIP3    H2 1792   2.398   5.409   0.184 -0.5308  0.7729 -0.2092
  610TIP3   OH2 1793   4.635   3.092   1.404 -0.1042  0.0942 -0.0308
  610TIP3    H1 1794   4.565   3.157   1.408  1.1537  1.4951 -0.1594
  610TIP3    H2 1795   4.593   3.011   1.434 -1.4251  1.1809  1.2329
  611TIP3   OH2 1796   4.409   0.741   3.436 -0.1805 -0.0837  0.5831
  611TIP3    H1 1797   4.454   0.802   3.377  1.0871 -3.4810 -2.3183
  611TIP3    H2 1798   4.322   0.730   3.397 -0.6469  0.3010  1.4776
  612TIP3   OH2 1799   7.230   0.393   3.719 -0.0916  0.1709  0.2781
  612TIP3    H1 1800   7.149   0.345   3.703  0.2360 -0.4943  0.5666
  612TIP3    H2 1801   7.207   0.485   3.703 -0.2870 -0.2235 -2.0394
  613TIP3   OH2 1802   1.512   5.395   1.540 -0.4375 -0.3856  0.0654
  613TIP3    H1 1803   1.530   5.378   1.447  0.5785 -0.6345  0.2896
  613TIP3    H2 1804   1.599   5.400   1.580 -0.8647 -0.1529  0.9856
  614TIP3   OH2 1805   7.135   1.360   2.684 -0.1677 -0.3792  0.4286
  614TIP3    H1 1806   7.217   1.339   2.639  0.1674  1.6082  0.0302
  614TIP3    H2 1807   7.155   1.349   2.777 -0.0202 -1.7187  0.2540
  615TIP3   OH2 1808   6.335   3.254   3.730  1.0741  0.0644  0.1712
  615TIP3    H1 1809   6.416   3.299   3.756  0.4151  1.8362 -0.6850
  615TIP3    H2 1810   6.340   3.251   3.635 -0.0620  0.6003  0.0867
  616TIP3   OH2 1811   3.519   6.152   5.533  0.4164 -0.7349  0.6517
  616TIP3    H1 1812   3.601   6.201   5.525 -0.5091  0.9495  1.0237
  616TIP3    H2 1813   3.513   6.104   5.450  0.9048  0.5349 -0.1560
  617TIP3   OH2 1814   4.724   2.665   2.176 -0.2605 -0.4312 -0.0155
  617TIP3    H1 1815   4.763   2.634   2.257 -0.0255 -2.5361 -0.8591
  617TIP3    H2 1816   4.630   2.668   2.193 -0.1027  0.6030  0.7539
  618TIP3   OH2 1817   1.122   5.394   3.121  0.0812  0.5882  0.3538
  618TIP3    H1 1818   1.083   5.482   3.123  2.5003  1.7222  1.9799
  618TIP3    H2 1819   1.194   5.401   3.058  0.2080 -0.2779  0.3934
  619TIP3   OH2 1820   4.017   5.879   2.511 -0.3082 -0.7118  0.2946
  619TIP3    H1 1821   4.019   5.788   2.541 -0.4610 -0.1210  2.1859
  619TIP3    H2 1822   4.106   5.911   2.524 -0.2612 -0.5727 -0.3342
  620TIP3   OH2 1823   4.395   4.576   5.064  0.3816 -0.3475 -0.2356
  620TIP3    H1 1824   4.370   4.494   5.106 -0.1208 -0.9942 -1.7432
  620TIP3    H2 1825   4.365   4.567   4.974  0.8000  1.2832 -0.5663
  621TIP3   OH2 1826   3.463   4.933   4.598 -0.3114 -0.3144  0.0597
  621TIP3    H1 1827   3.387   4.913   4.544  0.4674 -3.0495 -0.2009
  621TIP3    H2 1828   3.484   4.850   4.642  3.4867 -0.2226 -1.1762
  622TIP3   OH2 1829   6.497   5.681   5.841 -0.3403  0.1416  0.7158
  622TIP3    H1 1830   6.528   5.599   5.879 -3.0289 -1.3675 -0.0938
  622TIP3    H2 1831   6.513   5.672   5.748  0.6793  1.2137  0.7650
  623TIP3   OH2 1832   3.889   1.908   5.267 -0.4941 -0.2323 -0.0073
  623TIP3    H1 1833   3.812   1.947   5.226  0.2202  1.6133  0.3091
  623TIP3    H2 1834   3.890   1.945   5.356  1.2164  0.4821 -0.2814
  624TIP3   OH2 1835   2.347   1.841   0.220 -0.0940  0.2447 -0.1622
  624TIP3    H1 1836   2.435   1.864   0.249  1.0073 -1.8742 -1.5659
  624TIP3    H2 1837   2.329   1.756   0.260 -1.1735  0.2757 -0.5403
  625TIP3   OH2 1838   4.457   6.148   4.099 -0.2129  0.5732 -0.3390
  625TIP3    H1 1839   4.493   6.070   4.140 -0.0344  0.7978 -0.0605
  625TIP3    H2 1840   4.503   6.155   4.015 -1.0715 -0.2674 -0.8944
  626TIP3   OH2 1841   3.041   5.883   1.109  0.3847 -0.4851  0.2331
  626TIP3    H1 1842   3.114   5.946   1.104 -0.0060 -0.0483 -0.0652
  626TIP3    H2 1843   2.989   5.913   1.183 -0.4287  0.2409 -0.6070
  627TIP3   OH2 1844   2.486   5.713   1.854 -0.0267  0.0254 -0.0917
  627TIP3    H1 1845   2.478   5.661   1.934  1.6467 -0.8691 -0.4570
  627TIP3    H2 1846   2.445   5.797   1.875  0.5658 -0.1135  1.7818
  628TIP3   OH2 1847   4.738   0.032   4.200  0.3128  0.3192  0.1499
  628TIP3    H1 1848   4.770   0.027   4.109 -2.1279 -1.6076 -0.7110
  628TIP3    H2 1849   4.659   0.086   4.194  0.8184  1.2435  1.4099
  629TIP3   OH2 1850   0.069   4.863   1.638 -0.0876 -0.0242  0.3391
  629TIP3    H1 1851   0.163   4.880   1.637  0.0900 -0.8574  1.3695
  629TIP3    H2 1852   0.049   4.834   1.549  0.5297  0.6121 -0.0175
  630TIP3   OH2 1853   1.581   3.496   5.738  0.0750  0.1554 -0.1692
  630TIP3    H1 1854   1.485   3.496   5.730  0.0353 -0.5718  0.2558
  630TIP3    H2 1855   1.610   3.560   5.673 -0.6513 -0.2718 -0.9418
  631TIP3   OH2 1856   2.800   1.772   4.290  0.0467 -0.3942 -0.1326
  631TIP3    H1 1857   2.853   1.842   4.252 -1.3910  0.6366 -0.3664
  631TIP3    H2 1858   2.785   1.711   4.218  0.9345 -0.7217 -0.0487
  632TIP3   OH2 1859   4.105   3.961   1.512 -0.4059 -0.3165  0.1683
  632TIP3    H1 1860   4.139   3.971   1.601 -0.0586  0.3928 -0.0384
  632TIP3    H2 1861   4.173   3.913   1.465 -0.4562 -0.4227  0.2029
  633TIP3   OH2 1862   6.063   6.457   4.653  0.0257  0.4356  0.1360
  633TIP3    H1 1863   6.100   6.523   4.712  1.3813 -1.1504  1.1658
  633TIP3    H2 1864   5.970   6.454   4.676  0.5285 -0.2203  2.4033
  634TIP3   OH2 1865   4.812   0.689   2.055 -0.2714  0.2200 -0.5513
  634TIP3    H1 1866   4.808   0.600   2.019  1.4882  0.1750 -0.7665
  634TIP3    H2 1867   4.751   0.688   2.128 -1.2801 -0.7584 -1.3718
  635TIP3   OH2 1868   4.341   6.689   0.656  0.0592 -0.7052 -0.1445
  635TIP3    H1 1869   4.379   6.608   0.622  0.5379 -0.7414  0.4563
  635TIP3    H2 1870   4.247   6.680   0.639  0.2445 -0.8693 -1.1314
  636TIP3   OH2 1871   7.125   1.119   5.023 -1.4237 -0.4520  0.2577
  636TIP3    H1 1872   7.055   1.173   5.059 -1.9932 -1.7483  1.1450
  636TIP3    H2 1873   7.134   1.149   4.932 -0.9422  1.8768  1.0042
  637TIP3   OH2 1874   1.519   3.164   3.140  0.2077 -0.1786 -0.8202
  637TIP3    H1 1875   1.494   3.204   3.056 -1.8143  1.4100  0.4417
  637TIP3    H2 1876   1.437   3.154   3.187  1.1570 -2.1855  0.5590
  638TIP3   OH2 1877   6.552   1.783   5.342 -0.3652  0.1469  0.3750
  638TIP3    H1 1878   6.500   1.736   5.407 -0.2775 -1.0991 -0.4326
  638TIP3    H2 1879   6.551   1.727   5.265  1.1520  0.6846 -0.0728
  639TIP3   OH2 1880   6.081   2.185   0.170 -0.6277  0.1736 -0.2008
  639TIP3    H1 1881   6.163   2.174   0.121 -1.4029  1.0458 -1.7889
  639TIP3    H2 1882   6.039   2.099   0.166  1.5145 -1.2476  3.3339
  640TIP3   OH2 1883   1.968   3.658   4.660  0.6724  0.1641  0.4240
  640TIP3    H1 1884   1.937   3.628   4.574  1.1620  1.6227 -0.2933
  640TIP3    H2 1885   2.063   3.663   4.650  0.5513  3.4178 -0.0595
  641TIP3   OH2 1886   0.616   4.043   3.464 -0.2199 -0.7083  0.6113
  641TIP3    H1 1887   0.666   4.070   3.541  0.1547 -0.3406  0.2516
  641TIP3    H2 1888   0.676   4.059   3.391 -0.4287 -1.4058  0.2757
  642TIP3   OH2 1889   4.227   2.346   5.722  0.7723 -0.2090 -0.3650
  642TIP3    H1 1890   4.228   2.312   5.812  4.6078 -1.2292 -0.5962
  642TIP3    H2 1891   4.180   2.429   5.728 -0.1808 -0.8267  2.3014
  643TIP3   OH2 1892   0.639   2.216   5.303 -0.9210  0.6925  0.0250
  643TIP3    H1 1893   0.616   2.123   5.305 -0.7803  0.6690  0.6900
  643TIP3    H2 1894   0.696   2.225   5.227 -0.2706  0.0728  0.4210
  644TIP3   OH2 1895   3.149   4.985   1.176 -0.0276  0.3040 -0.5121
  644TIP3    H1 1896   3.235   5.022   1.159 -0.6807  1.7586 -0.7462
  644TIP3    H2 1897   3.109   4.977   1.090 -1.3723  2.7923 -0.1804
  645TIP3   OH2 1898   4.112   6.561   0.561 -0.1280  0.0890  0.5137
  645TIP3    H1 1899   4.099   6.466   0.561  1.1101 -0.1962  3.3274
  645TIP3    H2 1900   4.034   6.596   0.602 -1.1544  0.4938 -1.6424
  646TIP3   OH2 1901   0.107   5.781   4.143  0.0430  0.1460 -0.5242
  646TIP3    H1 1902   0.076   5.851   4.084 -0.5732  0.2942 -0.0318
  646TIP3    H2 1903   0.046   5.709   4.127 -0.4130  0.3488  0.2633
  647TIP3   OH2 1904   1.580   2.132   3.424  0.1971  0.3827  0.1436
  647TIP3    H1 1905   1.674   2.120   3.413  0.1380 -0.0421  0.0829
  647TIP3    H2 1906   1.541   2.059   3.377 -0.2142  1.3134 -0.9937
  648TIP3   OH2 1907   1.168   3.567   2.659  0.3194 -0.5425 -0.2549
  648TIP3    H1 1908   1.122   3.531   2.583 -0.8963  0.5686 -0.0662
  648TIP3    H2 1909   1.151   3.661   2.656  1.0398 -0.3505  0.8777
  649TIP3   OH2 1910   3.375   5.750   2.368  0.5676 -0.1053 -0.0929
  649TIP3    H1 1911   3.311   5.753   2.297 -1.3519 -0.1208  1.5614
  649TIP3    H2 1912   3.371   5.837   2.408 -0.2915 -0.8301  1.5339
  650TIP3   OH2 1913   0.390   0.585   1.968  0.2007 -0.5438 -0.1742
  650TIP3    H1 1914   0.434   0.548   1.892 -1.3540 -1.8112 -0.5249
  650TIP3    H2 1915   0.304   0.613   1.935 -0.1438 -0.2262  0.9209
  651TIP3   OH2 1916   4.287   4.033   2.960 -0.2689 -0.4768 -0.2699
  651TIP3    H1 1917   4.255   4.088   2.889  1.7353 -0.0612 -0.9292
  651TIP3    H2 1918   4.370   3.998   2.927 -0.8216 -2.8622  0.6396
  652TIP3   OH2 1919   3.629   4.601   1.314 -0.5805 -0.1319 -0.1715
  652TIP3    H1 1920   3.640   4.670   1.379 -0.1727 -0.0852 -0.2876
  652TIP3    H2 1921   3.626   4.520   1.365 -0.5830 -0.0666 -0.0687
  653TIP3   OH2 1922   5.430   6.227   3.987  0.0755 -0.0791 -0.2507
  653TIP3    H1 1923   5.378   6.284   3.930 -1.6658 -0.9635  0.3811
  653TIP3    H2 1924   5.488   6.180   3.927  0.6783  1.4354 -0.9041
  654TIP3   OH2 1925   7.138   5.485   4.199  0.2357 -0.1260 -0.1765
  654TIP3    H1 1926   7.108   5.401   4.164  1.3628 -1.3676  1.6536
  654TIP3    H2 1927   7.229   5.491   4.170  0.8843 -0.7152  1.6501
  655TIP3   OH2 1928   0.907   5.673   0.150  0.2732 -0.0673 -0.0206
  655TIP3    H1 1929   0.914   5.749   0.208 -1.0063  0.7042 -0.8389
  655TIP3    H2 1930   0.831   5.625   0.182  2.2610 -2.2324  1.8095
  656TIP3   OH2 1931   6.201   3.736   4.717 -0.2525 -0.1180  0.3241
  656TIP3    H1 1932   6.180   3.713   4.626  0.6088  0.7076 -0.1028
  656TIP3    H2 1933   6.164   3.823   4.729  2.8072  1.4293 -0.4808
  657TIP3   OH2 1934   4.780   5.142   5.236 -0.3910 -0.5078 -0.7253
  657TIP3    H1 1935   4.849   5.181   5.289 -0.3231  0.4016 -1.4624
  657TIP3    H2 1936   4.821   5.126   5.151 -0.0763 -3.2618 -0.1683
  658TIP3   OH2 1937   2.137   4.027   3.286  0.1951  0.0740  0.1403
  658TIP3    H1 1938   2.186   3.964   3.234  0.1322  0.8562 -0.9043
  658TIP3    H2 1939   2.084   3.974   3.345  1.2813 -0.8096  0.3522
  659TIP3   OH2 1940   0.523   1.225   3.694  0.3056 -0.7109 -0.4576
  659TIP3    H1 1941   0.479   1.255   3.774 -1.6748 -2.4395 -0.8132
  659TIP3    H2 1942   0.557   1.139   3.716  0.6302 -0.7784 -1.1960
  660TIP3   OH2 1943   2.946   6.818   4.685  0.3158  0.0899 -0.1387
  660TIP3    H1 1944   2.980   6.731   4.665  0.9516  0.7200 -2.0971
  660TIP3    H2 1945   2.997   6.847   4.760  1.9123 -0.2666 -1.0365
  661TIP3   OH2 1946   1.970   0.547   2.741 -0.1340 -0.0248  0.3047
  661TIP3    H1 1947   1.938   0.636   2.756 -1.3258 -0.4415  0.3560
  661TIP3    H2 1948   1.906   0.508   2.682  2.1062  0.1633 -2.4701
  662TIP3   OH2 1949   5.748   3.157   2.168 -0.0868 -0.5861  0.4540
  662TIP3    H1 1950   5.777   3.171   2.258 -1.5232  1.7809  0.6379
  662TIP3    H2 1951   5.657   3.127   2.177 -0.9682  1.6720 -0.1297
  663TIP3   OH2 1952   6.689   5.439   0.283  0.1842 -0.0379  0.2002
  663TIP3    H1 1953   6.673   5.350   0.251 -1.0062  0.2820 -0.1560
  663TIP3    H2 1954   6.689   5.430   0.378  1.9557 -0.7046  0.1721
  664TIP3   OH2 1955   0.335   0.080   3.092  0.8216  0.4784 -0.6858
  664TIP3    H1 1956   0.297   0.073   3.179  4.0606  0.6924  0.9053
  664TIP3    H2 1957   0.391   0.159   3.097  2.1031 -0.2484 -2.4844
  665TIP3   OH2 1958   0.470   1.777   4.103 -0.2068 -0.4083 -0.3358
  665TIP3    H1 1959   0.535   1.845   4.084 -0.4591 -0.1655 -0.3311
  665TIP3    H2 1960   0.501   1.739   4.185 -0.7239  0.5272  0.3141
  666TIP3   OH2 1961   5.827   4.607   1.482  0.5118  0.6848 -0.0341
  666TIP3    H1 1962   5.739   4.644   1.480  1.2055  2.4969  0.4045
  666TIP3    H2 1963   5.833   4.553   1.403 -0.8413  0.8611 -0.2769
  667TIP3   OH2 1964   1.243   6.418   4.204 -0.0979 -0.0214 -0.4183
  667TIP3    H1 1965   1.311   6.417   4.271 -0.4928 -2.2733  0.0401
  667TIP3    H2 1966   1.239   6.328   4.172 -3.0748 -0.0791 -0.1735
  668TIP3   OH2 1967   5.004   0.893   3.737  0.0276 -0.1787 -0.7237
  668TIP3    H1 1968   4.978   0.925   3.823  0.7466 -1.1561 -0.1363
  668TIP3    H2 1969   5.024   0.801   3.749 -0.8495 -0.5950 -2.1581
  669TIP3   OH2 1970   2.072   6.062   5.883  0.2854  0.6420  0.0047
  669TIP3    H1 1971   2.068   6.060   5.787  0.1505 -0.9203  0.0201
  669TIP3    H2 1972   1.982   6.044   5.911  0.6787 -0.7681  0.4074
  670TIP3   OH2 1973   0.680   3.782   2.115 -0.1746  0.6259 -0.0337
  670TIP3    H1 1974   0.748   3.736   2.067 -0.3239  0.4856 -0.1092
  670TIP3    H2 1975   0.614   3.716   2.135  1.0226  0.0732  2.5764
  671TIP3   OH2 1976   5.363   2.279   0.644 -0.5665  0.0946  0.1271
  671TIP3    H1 1977   5.326   2.322   0.567 -0.6968  0.6687  0.5038
  671TIP3    H2 1978   5.401   2.198   0.610 -1.2319  0.0044 -0.4370
  672TIP3   OH2 1979   0.926   1.568   3.290  0.0140 -0.3450  0.4294
  672TIP3    H1 1980   0.899   1.502   3.226 -0.8377  0.1340  0.2798
  672TIP3    H2 1981   0.870   1.644   3.272  1.4668  0.7098  0.0976
  673TIP3   OH2 1982   1.005   6.202   2.803 -0.9926 -0.1871  1.1182
  673TIP3    H1 1983   0.915   6.178   2.785 -1.3532 -0.1479  2.7092
  673TIP3    H2 1984   0.998   6.274   2.867  0.1368 -1.6880  3.0509
  674TIP3   OH2 1985   3.950   2.777   0.921  0.0358  0.1022 -0.5167
  674TIP3    H1 1986   4.031   2.734   0.893  0.0330 -0.1893 -0.0962
  674TIP3    H2 1987   3.904   2.799   0.840 -0.0729 -0.8936 -0.7379
  675TIP3   OH2 1988   3.808   1.779   3.954 -0.5573 -0.3710  0.0040
  675TIP3    H1 1989   3.808   1.729   4.035  1.5737  0.4013  0.5313
  675TIP3    H2 1990   3.772   1.864   3.979  2.3255  0.7178  0.7971
  676TIP3   OH2 1991   2.745   0.579   0.154  0.3455 -0.1698 -0.0468
  676TIP3    H1 1992   2.826   0.590   0.104 -0.7517 -0.3273 -1.9430
  676TIP3    H2 1993   2.676   0.581   0.088 -1.2409  0.3178  1.5561
  677TIP3   OH2 1994   0.351   4.059   1.942 -0.2188  0.4074 -0.1829
  677TIP3    H1 1995   0.414   3.991   1.963  1.4329  1.0027 -2.7217
  677TIP3    H2 1996   0.271   4.012   1.917 -0.5966 -0.3791  2.2601
  678TIP3   OH2 1997   3.357   6.211   4.737  0.5137  0.2145  0.5637
  678TIP3    H1 1998   3.314   6.295   4.752  0.3238  0.2762 -0.2528
  678TIP3    H2 1999   3.324   6.154   4.807  1.3829  1.0701  1.7070
  679TIP3   OH2 2000   0.018   3.963   2.471 -0.5521  0.0798  0.3922
  679TIP3    H1 2001  -0.028   3.883   2.445 -1.6477  0.7326  0.2778
  679TIP3    H2 2002   0.021   3.959   2.567  2.2254 -1.6197  0.3671
  680TIP3   OH2 2003   4.720   0.360   5.858 -0.0984  0.1648  0.1590
  680TIP3    H1 2004   4.787   0.316   5.806 -0.2788  1.3278 -1.0942
  680TIP3    H2 2005   4.652   0.293   5.871 -0.1012 -0.1237 -1.2103
  681TIP3   OH2 2006   0.458   4.993   2.355  0.1140 -0.1915  0.1001
  681TIP3    H1 2007   0.446   5.071   2.301  2.2623  0.6581  0.7241
  681TIP3    H2 2008   0.491   4.927   2.295  2.6196  0.7864  0.2499
  682TIP3   OH2 2009   1.705   1.436   3.247  0.1298  0.4293  0.0185
  682TIP3    H1 2010   1.761   1.504   3.209  1.4700 -1.9715 -2.6415
  682TIP3    H2 2011   1.760   1.358   3.251 -2.0548 -1.2051  0.5395
  683TIP3   OH2 2012   2.522   0.547   2.815  0.4783 -0.6825 -0.1359
  683TIP3    H1 2013   2.468   0.516   2.887 -0.8862  0.8063 -0.4624
  683TIP3    H2 2014   2.553   0.633   2.844  2.0886 -1.1753 -0.2782
  684TIP3   OH2 2015   0.059   5.023   0.143  0.2337  0.7248 -0.0494
  684TIP3    H1 2016   0.123   5.024   0.214 -1.2670 -2.6165  1.5563
  684TIP3    H2 2017  -0.024   5.004   0.185 -0.9750  0.0395 -2.5376
  685TIP3   OH2 2018   1.244   3.714   3.536 -0.5605 -0.3106  0.0659
  685TIP3    H1 2019   1.302   3.679   3.468 -1.9524 -1.3439 -0.6262
  685TIP3    H2 2020   1.243   3.645   3.603  3.5308  2.0155  2.9922
  686TIP3   OH2 2021   3.767   5.305   1.692  0.3575 -0.7322 -0.5932
  686TIP3    H1 2022   3.780   5.357   1.771  0.5284 -0.6163 -0.6954
  686TIP3    H2 2023   3.675   5.279   1.695  0.3865 -0.7994 -0.3147
  687TIP3   OH2 2024   7.082   4.549   0.805 -0.0503 -0.3782  0.0614
  687TIP3    H1 2025   7.054   4.613   0.739 -0.6609  0.7971  1.3815
  687TIP3    H2 2026   7.035   4.469   0.782 -1.2893  0.3824 -0.2030
  688TIP3   OH2 2027   5.328   6.624   0.883  0.4541  0.3943 -0.5384
  688TIP3    H1 2028   5.247   6.575   0.870  0.4779  0.2680 -0.2075
  688TIP3    H2 2029   5.376   6.574   0.948  0.2112  1.1775  0.2557
  689TIP3   OH2 2030   3.926   2.240   2.747  0.3410 -0.5186 -0.0964
  689TIP3    H1 2031   3.994   2.215   2.686  0.5668 -0.0657 -0.0324
  689TIP3    H2 2032   3.920   2.335   2.740  0.3053 -0.4681  0.5129
  690TIP3   OH2 2033   7.141   6.397   0.968 -0.1726 -0.4912 -0.6016
  690TIP3    H1 2034   7.198   6.467   1.001  0.0674 -0.3997 -1.1972
  690TIP3    H2 2035   7.195   6.318   0.971 -0.5960 -0.7584  0.5224
  691TIP3   OH2 2036   3.596   5.751   3.780 -0.9224  0.6328  0.7767
  691TIP3    H1 2037   3.606   5.843   3.807  0.5897  0.6247  0.3060
  691TIP3    H2 2038   3.648   5.702   3.844  0.7546  0.4013 -0.7030
  692TIP3   OH2 2039   2.265   2.793   1.413  0.0041 -0.0665 -0.0947
  692TIP3    H1 2040   2.183   2.780   1.365  0.0743  1.8077 -0.7902
  692TIP3    H2 2041   2.329   2.815   1.345  1.2092 -1.7724  0.3958
  693TIP3   OH2 2042   1.558   1.773   3.534  0.2172 -0.5001  0.4666
  693TIP3    H1 2043   1.553   1.795   3.441  0.2073  0.3573  0.6685
  693TIP3    H2 2044   1.593   1.683   3.535  0.9410 -0.2409 -0.3287
  694TIP3   OH2 2045   2.938   0.430   5.549 -0.2765 -0.3188  0.2517
  694TIP3    H1 2046   2.900   0.518   5.551 -1.8356 -0.9260 -0.5957
  694TIP3    H2 2047   2.964   0.413   5.640 -1.7169  0.2874  0.8046
  695TIP3   OH2 2048   2.380   2.388   1.057  0.2601 -0.0608 -0.2515
  695TIP3    H1 2049   2.432   2.384   0.978  0.3242 -0.8720 -0.1822
  695TIP3    H2 2050   2.444   2.393   1.128  0.3642 -2.4166 -0.0744
  696TIP3   OH2 2051   5.405   2.501   0.947 -0.0286  0.9024  0.5402
  696TIP3    H1 2052   5.469   2.453   0.895 -1.9890 -0.9050 -0.3732
  696TIP3    H2 2053   5.434   2.592   0.943  0.6466  0.6649 -2.6370
  697TIP3   OH2 2054   5.645   6.136   5.449  0.0972 -0.1610  0.2414
  697TIP3    H1 2055   5.644   6.230   5.471  0.4748  0.0603 -0.6580
  697TIP3    H2 2056   5.737   6.117   5.430  0.2122 -0.9930  1.5192
  698TIP3   OH2 2057   6.724   6.219   5.519  0.4019  0.0808  0.5175
  698TIP3    H1 2058   6.630   6.223   5.498 -0.0354 -0.1712  2.2239
  698TIP3    H2 2059   6.736   6.288   5.585  0.8216 -1.5973  2.2906
  699TIP3   OH2 2060   7.149   4.920   1.122 -0.0616 -0.4632  0.3795
  699TIP3    H1 2061   7.226   4.912   1.066  0.3007 -0.4709  0.8769
  699TIP3    H2 2062   7.117   5.008   1.106  1.7712  0.6319  2.3584
  700TIP3   OH2 2063   2.250   6.486   4.896  0.3987 -0.1043  0.6270
  700TIP3    H1 2064   2.161   6.460   4.919 -0.0362  0.0391 -0.7758
  700TIP3    H2 2065   2.272   6.555   4.959  0.3958 -1.6474  2.3998
  701TIP3   OH2 2066   1.835   3.980   5.237  0.7213 -0.6246  0.1145
  701TIP3    H1 2067   1.799   3.902   5.195 -0.8922  0.3672 -0.4244
  701TIP3    H2 2068   1.930   3.971   5.227  0.4742 -1.3496 -2.0827
  702TIP3   OH2 2069   1.993   1.815   2.951 -0.2418  0.0341 -0.4775
  702TIP3    H1 2070   1.968   1.726   2.978  0.8058  0.3417  1.7850
  702TIP3    H2 2071   1.937   1.834   2.877 -1.4931 -1.9973 -0.1422
  703TIP3   OH2 2072   6.214   3.639   1.994  0.0198 -0.3333 -0.3307
  703TIP3    H1 2073   6.175   3.684   2.069  1.8744  1.7714 -0.5600
  703TIP3    H2 2074   6.222   3.706   1.926  1.1181 -1.4643 -1.3847
  704TIP3   OH2 2075   6.614   3.312   5.449  0.9118  0.9238 -0.1749
  704TIP3    H1 2076   6.669   3.283   5.522  3.7942  0.2833 -2.4450
  704TIP3    H2 2077   6.556   3.238   5.432 -0.4495  1.4138  1.9280
  705TIP3   OH2 2078   5.816   4.707   3.690  0.4465 -0.0094 -0.6494
  705TIP3    H1 2079   5.867   4.773   3.737  0.5964  0.0663 -0.9130
  705TIP3    H2 2080   5.856   4.704   3.603  1.7179 -1.8605 -0.0631
  706TIP3   OH2 2081   1.983   4.926   2.849  0.1739  0.0746  0.0317
  706TIP3    H1 2082   2.014   4.924   2.758  0.2879  1.1051  0.0361
  706TIP3    H2 2083   2.062   4.915   2.902  0.1809  0.0593  0.0182
  707TIP3   OH2 2084   6.279   2.719   4.803 -0.0416 -0.6704 -0.2336
  707TIP3    H1 2085   6.280   2.649   4.738 -0.7974  0.3964 -1.4222
  707TIP3    H2 2086   6.367   2.757   4.799  0.4593 -1.6728  0.6001
  708TIP3   OH2 2087   4.956   5.628   0.024  0.2660  0.2200  0.1865
  708TIP3    H1 2088   4.950   5.647  -0.069 -2.3422  0.0302  0.2494
  708TIP3    H2 2089   4.999   5.705   0.061 -1.1272  1.5723 -0.8574
  709TIP3   OH2 2090   1.487   3.955   5.787 -0.1795 -0.5711  0.0512
  709TIP3    H1 2091   1.403   3.939   5.831 -0.1741  0.7583  0.6132
  709TIP3    H2 2092   1.464   3.967   5.695 -0.8334  1.1488  0.3930
  710TIP3   OH2 2093   1.211   6.443   3.784  0.2951  0.0465  0.5781
  710TIP3    H1 2094   1.296   6.468   3.821  0.7066 -0.5349  0.0277
  710TIP3    H2 2095   1.218   6.465   3.691 -0.1002 -0.1517  0.5011
  711TIP3   OH2 2096   3.484   6.811   5.292  0.4302  0.6054 -1.0597
  711TIP3    H1 2097   3.491   6.717   5.311  0.4144  0.6491 -0.8380
  711TIP3    H2 2098   3.575   6.842   5.289  0.4470  0.5320 -1.3998
  712TIP3   OH2 2099   3.627   1.656   2.427 -0.0137  0.5071 -0.1308
  712TIP3    H1 2100   3.552   1.608   2.461  0.5628 -0.3704 -0.0645
  712TIP3    H2 2101   3.658   1.709   2.501  0.1153  0.0162  0.1673
  713TIP3   OH2 2102   1.952   4.338   2.888  0.1742 -0.0366  0.0286
  713TIP3    H1 2103   1.941   4.320   2.981 -1.1644 -0.5255 -0.1890
  713TIP3    H2 2104   2.027   4.396   2.883  1.0188 -0.9615  1.2988
  714TIP3   OH2 2105   2.050   4.124   0.268 -0.0827 -0.1198  0.0568
  714TIP3    H1 2106   2.080   4.140   0.357 -0.7212  2.1626 -0.0821
  714TIP3    H2 2107   1.963   4.084   0.279 -0.6121  1.1040  0.4938
  715TIP3   OH2 2108   0.630   3.939   5.859  0.0850 -0.3002 -0.3119
  715TIP3    H1 2109   0.719   3.948   5.827  0.9586  1.3326  2.2494
  715TIP3    H2 2110   0.610   4.024   5.898 -2.4398 -0.7735 -0.3645
  716TIP3   OH2 2111   0.486   2.601   3.805  0.6981 -0.2606  0.2208
  716TIP3    H1 2112   0.441   2.640   3.730  1.8150  0.4165 -0.1356
  716TIP3    H2 2113   0.567   2.566   3.768  0.9748 -0.4749  1.0117
  717TIP3   OH2 2114   3.876   4.613   4.478  0.4629 -0.4088  0.4220
  717TIP3    H1 2115   3.795   4.566   4.459  0.6371 -0.1836 -0.9336
  717TIP3    H2 2116   3.852   4.677   4.544 -0.7987  0.6013 -0.9637
  718TIP3   OH2 2117   4.431   5.951   1.390  0.1377  0.4459  0.0426
  718TIP3    H1 2118   4.499   5.903   1.342  0.5671  2.1546 -1.1847
  718TIP3    H2 2119   4.480   6.017   1.440 -0.4374 -0.2569  1.5878
  719TIP3   OH2 2120   4.121   2.096   1.063 -0.3179  0.3931  0.2297
  719TIP3    H1 2121   4.060   2.025   1.042  1.2413 -1.8219  2.5237
  719TIP3    H2 2122   4.183   2.096   0.990 -0.3370 -0.6527  0.1868
  720TIP3   OH2 2123   1.831   5.586   2.654 -0.7989 -0.9819  0.0405
  720TIP3    H1 2124   1.921   5.590   2.622 -0.9100  0.6911 -0.1727
  720TIP3    H2 2125   1.824   5.501   2.698  0.8638 -1.1477  0.0273
  721TIP3   OH2 2126   0.552   0.965   3.175 -0.7300 -0.0410 -0.2610
  721TIP3    H1 2127   0.495   0.926   3.241 -0.7324  1.0141  0.3853
  721TIP3    H2 2128   0.497   1.033   3.134  0.5256  2.2347  1.5865
  722TIP3   OH2 2129   5.600   0.197   2.401  0.4962  0.7409  0.1903
  722TIP3    H1 2130   5.567   0.227   2.317 -1.4486  0.5508  0.8358
  722TIP3    H2 2131   5.666   0.131   2.379 -1.2952 -0.6909 -1.2327
  723TIP3   OH2 2132   4.812   0.031   2.586 -0.5262 -0.2320 -0.3170
  723TIP3    H1 2133   4.722   0.032   2.552 -0.8058 -0.4047  0.3944
  723TIP3    H2 2134   4.867   0.018   2.509 -1.2269 -2.2439 -0.5219
  724TIP3   OH2 2135   6.942   3.284   3.156  0.0946  0.0580 -0.2945
  724TIP3    H1 2136   6.978   3.356   3.209  1.4323 -0.1240 -0.9308
  724TIP3    H2 2137   6.848   3.303   3.152 -0.1342 -0.0894  2.3948
  725TIP3   OH2 2138   2.386   2.173   0.174  0.1443 -0.8848  0.3324
  725TIP3    H1 2139   2.473   2.133   0.162  1.1730  0.6369  2.1469
  725TIP3    H2 2140   2.400   2.265   0.154 -1.2106 -0.6930  0.2001
  726TIP3   OH2 2141   3.618   3.197   3.729  0.1516 -0.8009  0.0710
  726TIP3    H1 2142   3.664   3.117   3.705  1.7579  0.1415 -0.1124
  726TIP3    H2 2143   3.666   3.230   3.805  0.3400  0.6644 -0.6498
  727TIP3   OH2 2144   1.470   4.675   1.167 -0.3460  0.1646  0.0837
  727TIP3    H1 2145   1.510   4.607   1.113 -0.6331  0.2809 -0.2756
  727TIP3    H2 2146   1.381   4.645   1.183 -0.3033  0.1923  0.3870
  728TIP3   OH2 2147   5.461   6.341   4.784  0.0658 -0.1240  0.0839
  728TIP3    H1 2148   5.500   6.416   4.739 -1.7645  0.9793  0.2531
  728TIP3    H2 2149   5.367   6.354   4.776 -0.3297 -2.7162 -0.3373
  729TIP3   OH2 2150   3.825   4.557   1.741 -0.4216 -0.6381  0.0280
  729TIP3    H1 2151   3.894   4.505   1.701 -0.6400  0.7532 -2.3467
  729TIP3    H2 2152   3.841   4.646   1.710 -2.0444  0.0881  1.1530
  730TIP3   OH2 2153   3.624   1.207   0.599  0.6591  0.0962 -0.0283
  730TIP3    H1 2154   3.655   1.144   0.535  0.4955 -0.4410  0.4105
  730TIP3    H2 2155   3.648   1.169   0.684 -0.6293 -0.0432  0.2977
  731TIP3   OH2 2156   3.456   4.662   5.022  0.3634 -0.0833  0.2548
  731TIP3    H1 2157   3.443   4.708   4.939 -0.4116 -1.0948 -0.2194
  731TIP3    H2 2158   3.408   4.714   5.086  0.9334  0.6844  0.0661
  732TIP3   OH2 2159   0.828   0.403   0.784  0.0389 -0.0441 -0.2936
  732TIP3    H1 2160   0.825   0.382   0.878  1.3737 -1.8506 -0.5898
  732TIP3    H2 2161   0.863   0.323   0.743  0.6615  1.1345 -2.1845
  733TIP3   OH2 2162   6.985   4.754   5.908 -0.6591 -0.2861  0.5252
  733TIP3    H1 2163   6.954   4.783   5.823 -1.0981 -2.0483  0.0507
  733TIP3    H2 2164   7.059   4.696   5.888  0.7690  1.1059  1.4800
  734TIP3   OH2 2165   2.181   0.136   0.669  1.0161  0.0118 -0.1867
  734TIP3    H1 2166   2.266   0.119   0.627  0.4341  0.5484 -1.6554
  734TIP3    H2 2167   2.163   0.228   0.650  0.3829  0.0748  0.6579
  735TIP3   OH2 2168   2.263   0.771   5.267  0.4571 -0.2742  0.2659
  735TIP3    H1 2169   2.213   0.852   5.254  1.4040  0.3657  0.4998
  735TIP3    H2 2170   2.210   0.703   5.225 -0.6434  0.3619  0.5802
  736TIP3   OH2 2171   5.235   1.303   5.160 -0.2095  0.0740  0.5885
  736TIP3    H1 2172   5.176   1.286   5.086 -0.3018 -1.2428  0.9456
  736TIP3    H2 2173   5.188   1.268   5.236 -0.1351  1.4624  1.2937
  737TIP3   OH2 2174   3.555   6.324   4.417  0.1107 -0.1462 -0.6030
  737TIP3    H1 2175   3.548   6.397   4.479 -2.3474  0.0698 -1.0332
  737TIP3    H2 2176   3.628   6.348   4.360  1.3327  0.4575  1.1310
  738TIP3   OH2 2177   5.828   3.485   5.627 -0.6211 -0.4214 -0.7192
  738TIP3    H1 2178   5.831   3.562   5.571 -2.3265  0.7394  0.6747
  738TIP3    H2 2179   5.916   3.477   5.662  0.9495 -2.0029 -4.4369
  739TIP3   OH2 2180   3.446   4.220   2.220  0.2939  0.5123  0.3557
  739TIP3    H1 2181   3.416   4.138   2.178  2.6805 -0.0920 -0.3347
  739TIP3    H2 2182   3.530   4.197   2.259  0.8911  2.5895  0.3828
  740TIP3   OH2 2183   4.763   3.405   3.829 -0.1616 -0.0842  0.2739
  740TIP3    H1 2184   4.673   3.432   3.810 -0.3305 -0.6362  0.2766
  740TIP3    H2 2185   4.783   3.445   3.913 -0.0527  0.8608 -0.1877
  741TIP3   OH2 2186   0.904   5.334   4.806  0.0510  0.0499  0.0464
  741TIP3    H1 2187   0.912   5.324   4.711  3.1183  0.4098  0.1740
  741TIP3    H2 2188   0.942   5.419   4.825  0.0222 -0.2636  1.6702
  742TIP3   OH2 2189   6.731   6.596   2.631  0.4630  0.2178 -0.1988
  742TIP3    H1 2190   6.743   6.588   2.726 -0.9204 -0.9102 -0.0849
  742TIP3    H2 2191   6.637   6.591   2.618  0.5911  0.9567 -1.6007
  743TIP3   OH2 2192   3.455   1.110   3.290 -0.0969 -0.7008 -0.3629
  743TIP3    H1 2193   3.506   1.140   3.216 -0.0709 -1.6790 -0.7626
  743TIP3    H2 2194   3.449   1.185   3.348  2.1199 -0.6498 -0.1179
  744TIP3   OH2 2195   4.835   3.126   1.723 -0.4106  0.1835 -0.0182
  744TIP3    H1 2196   4.791   3.195   1.674  1.0967  0.5162 -0.9641
  744TIP3    H2 2197   4.902   3.171   1.774 -2.0855 -0.1381  2.5980
  745TIP3   OH2 2198   6.750   6.594   2.911  0.3473  0.1864  0.1299
  745TIP3    H1 2199   6.696   6.616   2.987 -1.7046 -1.5744 -0.6832
  745TIP3    H2 2200   6.829   6.556   2.948 -0.2557  0.0904  1.4038
  746TIP3   OH2 2201   1.873   2.695   4.682  0.1653  0.5386 -0.5164
  746TIP3    H1 2202   1.798   2.667   4.735 -0.3063 -1.3194 -2.0353
  746TIP3    H2 2203   1.834   2.721   4.598  1.1566  0.1956 -1.1010
  747TIP3   OH2 2204   3.349   2.990   0.695  0.6306  0.1525  0.2921
  747TIP3    H1 2205   3.397   3.067   0.727 -0.7262  0.8902  0.6376
  747TIP3    H2 2206   3.405   2.953   0.627  0.9520  1.9589 -0.4831
  748TIP3   OH2 2207   3.105   3.161   0.337 -0.5489  0.6510 -0.1694
  748TIP3    H1 2208   3.114   3.076   0.293  1.0049 -0.5056  2.1693
  748TIP3    H2 2209   3.150   3.223   0.279  1.7036 -0.8484 -0.1497
  749TIP3   OH2 2210   6.932   2.411   5.037  0.3888 -0.0871  0.6894
  749TIP3    H1 2211   6.862   2.355   5.005  1.1701  0.0436 -1.3527
  749TIP3    H2 2212   6.974   2.359   5.106 -1.0503 -0.5613  1.2457
  750TIP3   OH2 2213   3.338   3.318   1.464 -0.2575  0.3315 -0.1971
  750TIP3    H1 2214   3.337   3.222   1.473 -0.8815  0.3517 -0.0382
  750TIP3    H2 2215   3.260   3.348   1.510 -0.1729  0.9052 -0.4155
  751TIP3   OH2 2216   2.215   6.433   1.289 -0.6102  0.0985  0.4027
  751TIP3    H1 2217   2.285   6.390   1.239  0.9002  0.0930  2.3829
  751TIP3    H2 2218   2.135   6.386   1.264 -0.0872  0.5081 -2.4032
  752TIP3   OH2 2219   1.608   2.291   4.934 -0.3041 -0.0210 -1.0294
  752TIP3    H1 2220   1.615   2.293   4.838 -1.2055  0.8214 -1.0987
  752TIP3    H2 2221   1.685   2.339   4.965 -0.0574 -0.2141 -1.3388
  753TIP3   OH2 2222   1.740   5.243   2.347  0.4281  0.2369 -0.8586
  753TIP3    H1 2223   1.738   5.313   2.282 -0.1047 -0.2819 -1.4114
  753TIP3    H2 2224   1.731   5.162   2.296 -0.8472 -0.1383 -0.0767
  754TIP3   OH2 2225   4.623   0.771   4.763 -0.0681  0.5191  0.1923
  754TIP3    H1 2226   4.545   0.749   4.813  0.4526  1.3779  1.4370
  754TIP3    H2 2227   4.618   0.716   4.685 -1.4928 -0.0202  0.6327
  755TIP3   OH2 2228   5.282   2.156   3.863  0.2954 -0.6961  0.1442
  755TIP3    H1 2229   5.314   2.073   3.828 -0.0693 -0.2731 -1.2445
  755TIP3    H2 2230   5.198   2.170   3.819  0.3110  0.3716  0.4201
  756TIP3   OH2 2231   4.093   1.110   5.267  0.2068 -0.4633  0.7457
  756TIP3    H1 2232   4.116   1.147   5.182  1.2779 -0.1950  1.1297
  756TIP3    H2 2233   4.026   1.169   5.302  0.3196 -0.1344  0.4126
  757TIP3   OH2 2234   3.654   2.165   5.523 -0.5953  0.2732  0.1847
  757TIP3    H1 2235   3.590   2.129   5.462  0.3115 -0.6758 -0.2514
  757TIP3    H2 2236   3.691   2.240   5.478 -0.4613  0.0223 -0.1293
  758TIP3   OH2 2237   1.366   5.430   1.753 -0.1620  0.3233 -0.2701
  758TIP3    H1 2238   1.431   5.477   1.805  0.1282 -0.5682  0.1910
  758TIP3    H2 2239   1.409   5.417   1.668  0.5007 -0.7606  0.2164
  759TIP3   OH2 2240   6.296   6.386   3.175  0.3654  0.0577  0.7766
  759TIP3    H1 2241   6.381   6.408   3.138  0.0809  0.4391  0.3299
  759TIP3    H2 2242   6.304   6.405   3.269  0.5235  0.8606  0.6052
  760TIP3   OH2 2243   3.677   4.081   5.800  0.4835 -0.3771 -0.2882
  760TIP3    H1 2244   3.720   4.041   5.724 -0.2394 -0.5877 -0.6009
  760TIP3    H2 2245   3.749   4.112   5.855  1.0302 -0.7345 -0.7845
  761TIP3   OH2 2246   2.483   5.026   1.668 -0.1474  0.4005  0.6841
  761TIP3    H1 2247   2.559   5.023   1.726  1.5723  0.3303 -1.4492
  761TIP3    H2 2248   2.501   4.961   1.601 -1.0858  1.8101 -1.0256
  762TIP3   OH2 2249   7.002   6.083   4.498  0.1000  0.0410 -0.1836
  762TIP3    H1 2250   7.050   6.025   4.438 -0.5961 -0.5251 -0.2079
  762TIP3    H2 2251   6.910   6.070   4.474 -0.1481  0.1586  0.7007
  763TIP3   OH2 2252   4.347   5.092   0.357  0.1882  0.5687 -0.2079
  763TIP3    H1 2253   4.278   5.159   0.356 -1.5646 -1.1082 -1.8627
  763TIP3    H2 2254   4.417   5.129   0.304 -0.1585  1.6221  0.0334
  764TIP3   OH2 2255   3.293   2.783   4.493  0.1448  0.7505 -0.5329
  764TIP3    H1 2256   3.385   2.809   4.494  0.0508  1.0906 -0.7216
  764TIP3    H2 2257   3.274   2.759   4.584  1.5852 -3.4130 -1.0985
  765TIP3   OH2 2258   0.554   0.819   1.584 -1.1259 -0.3812 -0.0694
  765TIP3    H1 2259   0.517   0.898   1.624 -0.0489  0.9561 -1.6404
  765TIP3    H2 2260   0.500   0.804   1.507 -1.2780 -1.1665  0.1809
  766TIP3   OH2 2261   6.148   4.504   3.390  0.4153 -0.0981  0.5246
  766TIP3    H1 2262   6.203   4.452   3.332 -0.2743 -1.0404  0.6997
  766TIP3    H2 2263   6.089   4.551   3.332  1.6383  1.2420  0.3063
  767TIP3   OH2 2264   4.442   2.709   4.004 -0.0273  0.6093  0.0158
  767TIP3    H1 2265   4.350   2.727   4.024 -0.6176 -1.3978 -0.7226
  767TIP3    H2 2266   4.450   2.725   3.910 -0.2824 -1.5330 -0.4268
  768TIP3   OH2 2267   3.577   3.501   3.777  0.4667  0.2801 -0.2134
  768TIP3    H1 2268   3.604   3.487   3.868 -0.5251 -1.4022 -0.1246
  768TIP3    H2 2269   3.547   3.414   3.748  1.2376  0.6586 -2.3115
  769TIP3   OH2 2270   3.219   5.093   1.721  0.3365 -0.2485  0.6093
  769TIP3    H1 2271   3.237   5.185   1.703  0.9506 -0.7232 -1.5417
  769TIP3    H2 2272   3.153   5.094   1.790  1.5501  1.7481  1.8226
  770TIP3   OH2 2273   6.009   4.806   1.279 -0.2566  0.7281  0.5776
  770TIP3    H1 2274   5.956   4.886   1.273  0.9523  1.4599 -1.5362
  770TIP3    H2 2275   5.989   4.758   1.198  0.7176  0.0112  0.7397
  771TIP3   OH2 2276   1.486   2.685   1.111  0.0198  0.0657  0.3044
  771TIP3    H1 2277   1.412   2.672   1.171 -0.4644 -1.1712 -0.5291
  771TIP3    H2 2278   1.447   2.682   1.024  0.4623  3.5401 -0.1164
  772TIP3   OH2 2279   2.568   6.744   2.353  0.2016  0.2171  0.4461
  772TIP3    H1 2280   2.595   6.772   2.265  0.9552 -1.5592  0.0611
  772TIP3    H2 2281   2.527   6.659   2.339 -0.4618  0.3118  1.7274
  773TIP3   OH2 2282   0.687   2.939   3.878 -0.1509 -0.1814 -0.0875
  773TIP3    H1 2283   0.745   3.015   3.879  1.5426 -1.3973 -0.6729
  773TIP3    H2 2284   0.726   2.880   3.814 -2.0041 -1.1336 -0.4157
  774TIP3   OH2 2285   5.131   2.040   3.661  0.0670 -0.9184 -0.1469
  774TIP3    H1 2286   5.194   2.106   3.632  0.8313 -2.5870 -2.5540
  774TIP3    H2 2287   5.057   2.048   3.600 -1.9758  0.6571  2.3166
  775TIP3   OH2 2288   3.777   0.207   0.756  0.0953 -0.3243  0.0259
  775TIP3    H1 2289   3.789   0.158   0.675 -0.8256 -0.2737 -0.1504
  775TIP3    H2 2290   3.708   0.270   0.736 -0.8347 -0.9506  1.1326
  776TIP3   OH2 2291   2.748   3.138   1.857  0.0748 -1.0384  0.2576
  776TIP3    H1 2292   2.808   3.183   1.916 -0.9328  0.3714  0.2610
  776TIP3    H2 2293   2.662   3.150   1.897 -0.1064 -4.8186  1.3871
  777TIP3   OH2 2294   6.068   2.373   0.939  0.5873 -0.1268 -0.1994
  777TIP3    H1 2295   6.157   2.406   0.953  0.2462 -0.1440  2.6018
  777TIP3    H2 2296   6.074   2.279   0.955  0.3072 -0.3676 -1.4407
  778TIP3   OH2 2297   6.936   4.919   0.583 -0.4477  0.0149 -0.2153
  778TIP3    H1 2298   6.889   4.959   0.510  0.5025 -0.7357 -1.2819
  778TIP3    H2 2299   6.959   4.831   0.552  0.7521 -0.0072  0.6375
  779TIP3   OH2 2300   2.785   6.236   5.157  0.2391  0.1695 -0.3921
  779TIP3    H1 2301   2.874   6.272   5.166  0.3192 -0.2458  0.5746
  779TIP3    H2 2302   2.798   6.141   5.151 -0.1888  0.0310  0.6919
  780TIP3   OH2 2303   1.366   1.796   4.717 -0.0984 -0.3230 -0.6320
  780TIP3    H1 2304   1.324   1.710   4.720 -1.1321  0.1537 -0.9311
  780TIP3    H2 2305   1.421   1.798   4.795 -1.5306 -0.5334  0.4266
  781TIP3   OH2 2306   0.103   5.205   1.969 -0.1852  0.3776 -0.6090
  781TIP3    H1 2307   0.129   5.116   1.995  0.2914  0.8564  0.6344
  781TIP3    H2 2308   0.011   5.197   1.945  0.0914 -0.6228 -1.4237
  782TIP3   OH2 2309   0.910   6.398   0.153  0.0111  0.1996 -0.1264
  782TIP3    H1 2310   0.977   6.379   0.088  0.2714 -0.5271  0.3440
  782TIP3    H2 2311   0.827   6.376   0.110  0.3243 -3.7653  0.8581
  783TIP3   OH2 2312   1.700   4.321   3.271  0.2974  0.3441  1.0520
  783TIP3    H1 2313   1.680   4.413   3.253  0.1329  0.4425  1.7073
  783TIP3    H2 2314   1.636   4.272   3.219  1.3652  0.5481 -0.5171
  784TIP3   OH2 2315   4.531   3.639   4.681  0.0151 -0.3084 -0.1698
  784TIP3    H1 2316   4.440   3.668   4.683 -0.1381 -0.7966  0.4231
  784TIP3    H2 2317   4.529   3.551   4.718  0.7250 -0.3497 -0.2046
  785TIP3   OH2 2318   5.008   6.051   4.568  0.1964  0.1240  0.0923
  785TIP3    H1 2319   4.916   6.046   4.541  0.8625  0.5952 -2.5832
  785TIP3    H2 2320   5.041   6.131   4.527  1.8603 -0.1216  0.8531
  786TIP3   OH2 2321   3.007   5.953   4.257  0.7649 -0.6237  0.1962
  786TIP3    H1 2322   2.988   5.922   4.346  0.9073  0.1873  0.5303
  786TIP3    H2 2323   2.964   5.891   4.199 -1.5323  0.2060  0.8713
  787TIP3   OH2 2324   6.006   4.645   3.196 -1.2347  0.3530 -0.3018
  787TIP3    H1 2325   5.936   4.663   3.133 -0.4207 -0.7917 -1.5714
  787TIP3    H2 2326   6.087   4.650   3.145 -0.4923  0.1041  0.8091
  788TIP3   OH2 2327   4.317   3.027   5.611  0.5298  0.4497 -0.6886
  788TIP3    H1 2328   4.277   3.091   5.552 -2.5074  0.3287  1.0137
  788TIP3    H2 2329   4.246   2.967   5.632  1.2602  0.7309  3.3204
  789TIP3   OH2 2330   3.772   5.476   2.849  0.4078  0.1570  0.3885
  789TIP3    H1 2331   3.858   5.435   2.842  0.4424  0.3742 -0.7533
  789TIP3    H2 2332   3.778   5.553   2.792 -0.4440  0.3479  0.5445
  790TIP3   OH2 2333   0.092   5.949   3.247  0.4664 -0.2544 -0.1609
  790TIP3    H1 2334   0.033   5.949   3.171  1.9486 -0.4045 -1.3684
  790TIP3    H2 2335   0.048   5.894   3.311 -1.2375  0.5621 -0.5549
  791TIP3   OH2 2336   1.996   1.695   2.112  0.4556 -0.2570 -1.3477
  791TIP3    H1 2337   2.050   1.619   2.132  1.4252  0.5219 -0.9113
  791TIP3    H2 2338   1.906   1.663   2.118  0.7697 -0.8499  1.0154
  792TIP3   OH2 2339   0.798   0.335   1.051  0.4737  0.0063 -0.1675
  792TIP3    H1 2340   0.754   0.333   1.136 -0.5277 -0.1134 -0.6829
  792TIP3    H2 2341   0.881   0.289   1.066  0.7062  0.7616  0.9573
  793TIP3   OH2 2342   2.340   4.840   5.072 -0.3449 -0.2333  0.2109
  793TIP3    H1 2343   2.316   4.929   5.047 -1.4976 -0.0164  1.9394
  793TIP3    H2 2344   2.352   4.843   5.167  1.1352 -1.5970  0.1154
  794TIP3   OH2 2345   6.682   4.692   1.308  0.2627 -0.1280  0.6574
  794TIP3    H1 2346   6.690   4.722   1.399  0.7363  1.0488  0.2581
  794TIP3    H2 2347   6.770   4.700   1.273  0.2789 -1.5010  0.3456
  795TIP3   OH2 2348   3.072   0.276   5.071  0.4609 -0.5587  0.1842
  795TIP3    H1 2349   3.077   0.345   5.137  0.1122  0.1973 -0.5638
  795TIP3    H2 2350   3.161   0.240   5.067  0.3538 -1.0288  1.4765
  796TIP3   OH2 2351   2.680   2.944   1.119  0.1597  0.4108  0.2281
  796TIP3    H1 2352   2.705   2.863   1.163  2.8605  0.5627 -0.7962
  796TIP3    H2 2353   2.764   2.983   1.092 -1.1679  2.2220 -1.5974
  797TIP3   OH2 2354   2.206   4.728   1.947  0.4053 -0.2068  0.1269
  797TIP3    H1 2355   2.296   4.743   1.918  0.2041 -2.5997 -2.0962
  797TIP3    H2 2356   2.214   4.704   2.039  1.7556  1.7769  0.5903
  798TIP3   OH2 2357   0.103   4.871   3.736  0.4548  0.2133  0.4046
  798TIP3    H1 2358   0.088   4.782   3.705 -0.1202  0.1031  0.9832
  798TIP3    H2 2359   0.161   4.910   3.670 -0.5819 -0.0719 -0.7215
  799TIP3   OH2 2360   1.297   0.027   0.944  0.3076  0.1763 -0.0017
  799TIP3    H1 2361   1.246  -0.016   1.013 -0.3341 -1.6460 -1.5328
  799TIP3    H2 2362   1.231   0.054   0.879  0.9262  1.5648 -0.0784
  800TIP3   OH2 2363   1.433   2.306   0.966  0.2191  0.5069  0.3555
  800TIP3    H1 2364   1.413   2.369   0.896 -2.6386 -2.4019 -1.7795
  800TIP3    H2 2365   1.349   2.294   1.011  0.9568 -0.9080  1.4215
  801TIP3   OH2 2366   5.787   2.522   4.099 -0.5413 -0.4169  0.5472
  801TIP3    H1 2367   5.874   2.551   4.128 -0.8662  2.1387 -0.7263
  801TIP3    H2 2368   5.793   2.520   4.003 -1.6392 -1.0972  0.4771
  802TIP3   OH2 2369   2.682   6.337   5.743 -0.3499  0.4315 -0.2506
  802TIP3    H1 2370   2.734   6.279   5.686  1.4466  0.7979  0.9231
  802TIP3    H2 2371   2.591   6.314   5.724  0.2738 -2.6129 -0.0386
  803TIP3   OH2 2372   2.302   6.478   1.864  0.1818  0.1241 -0.1029
  803TIP3    H1 2373   2.371   6.528   1.822 -0.1078  1.3556  0.8351
  803TIP3    H2 2374   2.296   6.514   1.952 -0.2995 -1.3214  0.4957
  804TIP3   OH2 2375   3.967   3.920   0.549 -0.1510  0.3704  0.0208
  804TIP3    H1 2376   3.955   4.009   0.518  2.0396  0.1269 -1.7607
  804TIP3    H2 2377   4.060   3.914   0.572 -0.6062 -0.9878  1.7584
  805TIP3   OH2 2378   4.216   1.452   3.753  0.0010  0.1963 -0.2268
  805TIP3    H1 2379   4.159   1.517   3.794 -0.0638 -0.8572  1.4959
  805TIP3    H2 2380   4.269   1.418   3.826  1.7555  0.0436 -1.5081
  806TIP3   OH2 2381   3.338   6.385   5.456 -0.3739 -0.4251  0.0154
  806TIP3    H1 2382   3.330   6.480   5.462 -0.6349 -0.4543  0.1379
  806TIP3    H2 2383   3.421   6.365   5.500  0.4164 -0.1184 -1.2742
  807TIP3   OH2 2384   0.163   6.130   0.766 -0.6892  0.3010  0.0673
  807TIP3    H1 2385   0.211   6.055   0.732 -0.4601  0.5101 -0.0719
  807TIP3    H2 2386   0.164   6.194   0.695  0.7977  1.2081  0.8542
  808TIP3   OH2 2387   2.856   6.011   3.326  0.1308  0.3333  0.6527
  808TIP3    H1 2388   2.790   6.017   3.257  2.6754  0.2837 -2.0137
  808TIP3    H2 2389   2.856   6.097   3.368  0.3833  1.3693 -1.3546
  809TIP3   OH2 2390   4.280   0.147   1.787 -0.5261  0.2161 -0.1020
  809TIP3    H1 2391   4.225   0.130   1.711 -1.3706 -0.2221  0.5946
  809TIP3    H2 2392   4.295   0.242   1.785 -0.0220  0.1292 -1.1447
  810TIP3   OH2 2393   5.676   4.761   3.336  0.2109  0.0345  0.2256
  810TIP3    H1 2394   5.636   4.676   3.316  0.1051 -0.5050  2.4961
  810TIP3    H2 2395   5.742   4.773   3.267  1.6080 -2.8321  0.8924
  811TIP3   OH2 2396   3.234   2.691   4.238  0.0615 -0.0829  0.2040
  811TIP3    H1 2397   3.256   2.734   4.321 -0.3188  0.1340  0.1952
  811TIP3    H2 2398   3.220   2.599   4.261 -0.1609 -0.0008  0.4026
  812TIP3   OH2 2399   1.817   3.855   4.783  0.0465  0.0767  0.0154
  812TIP3    H1 2400   1.836   3.939   4.741  1.2748  0.1436  0.6608
  812TIP3    H2 2401   1.854   3.790   4.724  0.5117  0.0889  0.2890
  813TIP3   OH2 2402   5.848   6.175   4.480 -0.2017  0.0148 -0.6949
  813TIP3    H1 2403   5.779   6.110   4.465 -0.3139  0.5049 -2.5041
  813TIP3    H2 2404   5.809   6.258   4.450  0.6891  0.5404 -0.4213
  814TIP3   OH2 2405   4.754   6.696   0.761  0.1734  0.0340 -0.1607
  814TIP3    H1 2406   4.828   6.715   0.702 -0.4049  0.3174 -0.8120
  814TIP3    H2 2407   4.794   6.650   0.835  0.9489 -0.1698 -0.6863
  815TIP3   OH2 2408   3.197   0.048   0.832 -0.5551  0.5310 -0.6135
  815TIP3    H1 2409   3.153   0.081   0.754 -3.1773 -1.3946 -0.0894
  815TIP3    H2 2410   3.199  -0.047   0.820 -0.3025  0.2494  1.2919
  816TIP3   OH2 2411   6.004   1.483   3.599 -0.4781  0.5159 -0.0338
  816TIP3    H1 2412   5.959   1.542   3.539  0.6678  0.7467 -0.6890
  816TIP3    H2 2413   6.074   1.536   3.637 -1.3594  0.4806  1.7927
  817TIP3   OH2 2414   1.972   2.337   1.900 -0.5780  0.2599  0.3024
  817TIP3    H1 2415   1.972   2.388   1.819 -0.6997 -0.2211  0.0020
  817TIP3    H2 2416   1.899   2.373   1.951 -0.3996  0.6697  0.2721
  818TIP3   OH2 2417   0.762   2.884   1.611 -0.7457  0.2084  0.3361
  818TIP3    H1 2418   0.768   2.974   1.643 -0.4558  0.1495  0.4542
  818TIP3    H2 2419   0.736   2.833   1.688 -0.8249  0.1780  0.2896
  819TIP3   OH2 2420   1.434   3.045   2.781 -0.6200 -0.0042 -0.4860
  819TIP3    H1 2421   1.494   3.106   2.825 -1.1448 -0.3611  0.7590
  819TIP3    H2 2422   1.470   3.036   2.693  0.1004  1.2302 -0.3395
  820TIP3   OH2 2423   5.312   4.050   2.325  0.5848 -0.1098  0.2998
  820TIP3    H1 2424   5.314   4.089   2.412  0.5505  0.9238 -0.1484
  820TIP3    H2 2425   5.333   3.958   2.340 -1.8941 -0.5248  1.6888
  821TIP3   OH2 2426   2.947   5.540   2.103  0.0127 -0.1271 -0.8259
  821TIP3    H1 2427   2.855   5.526   2.128  0.4613  0.5066  1.3650
  821TIP3    H2 2428   2.996   5.482   2.161  1.0298 -0.3452 -1.8749
  822TIP3   OH2 2429   3.532   2.867   3.439  0.1175  0.6467 -0.0444
  822TIP3    H1 2430   3.436   2.870   3.437  0.0880  1.7122  1.1639
  822TIP3    H2 2431   3.555   2.785   3.396 -1.3921 -0.2247  0.7337
  823TIP3   OH2 2432   1.634   6.723   1.190  0.0909 -0.2133 -0.1392
  823TIP3    H1 2433   1.596   6.682   1.268  1.2963 -2.3954 -0.6068
  823TIP3    H2 2434   1.593   6.676   1.117  0.5191  0.3506 -0.7486
  824TIP3   OH2 2435   1.366   1.777   4.401  0.2813  0.2819 -0.1959
  824TIP3    H1 2436   1.411   1.703   4.442  1.0049  0.4151 -0.7251
  824TIP3    H2 2437   1.434   1.842   4.387  0.3687 -0.2646 -2.7930
  825TIP3   OH2 2438   5.015   2.207   4.195  0.2412  0.4180  0.3796
  825TIP3    H1 2439   5.067   2.288   4.195  0.5545  0.2185  0.9889
  825TIP3    H2 2440   5.029   2.169   4.282 -1.4794  0.7076  0.8112
  826TIP3   OH2 2441   1.072   4.495   2.563  0.6046  0.1645  0.0431
  826TIP3    H1 2442   1.044   4.521   2.475  1.9476  0.1347 -0.4145
  826TIP3    H2 2443   1.012   4.541   2.621  0.3353  1.0050 -0.8653
  827TIP3   OH2 2444   1.524   4.277   5.004  0.6778 -0.5026  0.4044
  827TIP3    H1 2445   1.553   4.330   5.079 -0.0287 -1.5870  1.4776
  827TIP3    H2 2446   1.497   4.341   4.938 -3.2690  0.6199  2.8165
  828TIP3   OH2 2447   5.556   1.659   2.869  0.0681 -0.1954  0.1322
  828TIP3    H1 2448   5.516   1.741   2.898 -0.3018  0.3436 -1.7772
  828TIP3    H2 2449   5.645   1.684   2.843 -0.3395 -0.1863 -1.3248
  829TIP3   OH2 2450   5.308   6.538   3.200 -0.5488  0.2966 -0.3508
  829TIP3    H1 2451   5.304   6.484   3.279  1.2298  0.3903 -0.1424
  829TIP3    H2 2452   5.367   6.490   3.142 -2.1326  0.0340 -1.8218
  830TIP3   OH2 2453   5.601   6.022   4.560 -0.0807 -0.3918  0.5392
  830TIP3    H1 2454   5.570   5.934   4.537 -0.9607 -0.0837  0.5268
  830TIP3    H2 2455   5.525   6.066   4.595  1.0775 -0.6788  3.7352
  831TIP3   OH2 2456   3.020   3.667   2.812  0.5006  0.1302  0.2311
  831TIP3    H1 2457   2.930   3.667   2.845  0.5342 -0.7659  0.3441
  831TIP3    H2 2458   3.031   3.754   2.773 -0.0441  0.6637  1.2201
  832TIP3   OH2 2459   2.936   5.368   2.669 -0.5415 -0.5802 -0.5108
  832TIP3    H1 2460   3.028   5.389   2.685  0.0185 -2.8144 -0.4097
  832TIP3    H2 2461   2.888   5.448   2.693  1.3842  0.7777 -1.0032
  833TIP3   OH2 2462   4.498   1.042   4.813  0.2246 -0.0325  0.1879
  833TIP3    H1 2463   4.542   1.089   4.884 -1.2977 -0.4251  1.4805
  833TIP3    H2 2464   4.537   0.955   4.814 -0.2221 -0.2398  1.0182
  834TIP3   OH2 2465   2.558   4.260   1.877 -0.0542 -0.1988  0.9117
  834TIP3    H1 2466   2.573   4.176   1.834 -0.3932 -0.4069  1.1948
  834TIP3    H2 2467   2.535   4.237   1.967  0.4873  0.2269  1.1635
  835TIP3   OH2 2468   6.917   1.509   2.623 -0.2191 -0.5162 -0.6764
  835TIP3    H1 2469   6.966   1.588   2.645  0.3144 -1.2889  1.0481
  835TIP3    H2 2470   6.983   1.440   2.621 -1.2518 -1.8037  2.8584
  836TIP3   OH2 2471   4.427   1.149   1.529 -0.3203  0.3157 -0.3989
  836TIP3    H1 2472   4.420   1.178   1.620  2.3486 -1.2536  0.4444
  836TIP3    H2 2473   4.340   1.114   1.508 -0.4616 -1.2861  2.3543
  837TIP3   OH2 2474   1.253   6.011   0.014  0.3340 -0.5840  0.1517
  837TIP3    H1 2475   1.172   6.049  -0.017 -0.2781 -1.7878  0.1898
  837TIP3    H2 2476   1.304   6.085   0.046 -1.2016  0.0914  1.1575
  838TIP3   OH2 2477   4.238   3.347   5.878  0.2145 -0.1725  0.0595
  838TIP3    H1 2478   4.246   3.383   5.789  0.5558  0.8235  0.4790
  838TIP3    H2 2479   4.321   3.301   5.892  0.4671  0.2980  0.1298
  839TIP3   OH2 2480   2.783   6.722   4.387 -0.0322 -0.3916  0.2576
  839TIP3    H1 2481   2.705   6.765   4.354 -0.2852 -1.0092  0.0225
  839TIP3    H2 2482   2.830   6.789   4.436  0.4480  0.6022 -1.5012
  840TIP3   OH2 2483   0.133   0.178   3.841 -0.1016  0.1285  0.6836
  840TIP3    H1 2484   0.075   0.183   3.917  1.1393  2.5025  1.6040
  840TIP3    H2 2485   0.119   0.260   3.794  0.7858 -0.3013 -0.3985
  841TIP3   OH2 2486   4.341   5.259   3.715 -0.5476  0.7599  0.0278
  841TIP3    H1 2487   4.341   5.302   3.629 -0.6822 -1.1024 -0.9412
  841TIP3    H2 2488   4.433   5.255   3.740 -0.4344  0.5847 -0.4145
  842TIP3   OH2 2489   1.071   4.934   3.157  0.0561 -0.2969 -0.1261
  842TIP3    H1 2490   1.117   4.902   3.079 -2.6878 -0.1742 -1.9227
  842TIP3    H2 2491   1.048   5.024   3.136  0.3342  0.1611  1.3948
  843TIP3   OH2 2492   2.925   4.918   3.729  0.3302  0.1488 -0.3416
  843TIP3    H1 2493   2.999   4.860   3.710  0.3402  0.2435 -0.5978
  843TIP3    H2 2494   2.933   4.989   3.665 -0.5562 -0.3685 -1.0446
  844TIP3   OH2 2495   2.140   0.826   2.301  0.0926  0.1361 -0.4129
  844TIP3    H1 2496   2.083   0.854   2.229  0.0259  0.4472 -0.2424
  844TIP3    H2 2497   2.095   0.855   2.380 -0.1134 -0.7058 -0.2077
  845TIP3   OH2 2498   5.265   3.574   3.341 -0.7126  0.0378  0.7641
  845TIP3    H1 2499   5.230   3.553   3.427 -0.8518 -2.3946  0.1823
  845TIP3    H2 2500   5.357   3.596   3.358 -1.1430  1.3060  1.6762
  846TIP3   OH2 2501   0.098   2.237   3.483  0.4368 -0.1278  0.3011
  846TIP3    H1 2502   0.066   2.210   3.569  1.0372 -0.4424  0.4345
  846TIP3    H2 2503   0.162   2.169   3.459 -1.8817 -1.7736 -1.7653
  847TIP3   OH2 2504   0.401   1.593   1.864  0.6458  0.2063  0.0829
  847TIP3    H1 2505   0.355   1.635   1.792  1.2911 -0.7743 -0.9260
  847TIP3    H2 2506   0.332   1.547   1.912  0.0156  1.9181  0.8979
  848TIP3   OH2 2507   1.589   0.599   2.381 -0.0020  0.1341  0.0993
  848TIP3    H1 2508   1.560   0.675   2.431 -0.1960  0.4623 -0.4974
  848TIP3    H2 2509   1.515   0.580   2.323  0.1681 -0.3179  0.0274
  849TIP3   OH2 2510   0.109   3.674   3.717  0.3495  0.2366  0.6458
  849TIP3    H1 2511   0.127   3.767   3.709  0.6875  0.0683 -0.7927
  849TIP3    H2 2512   0.190   3.636   3.750 -0.2292  0.6087  2.5933
  850TIP3   OH2 2513   5.721   0.341   5.151  0.2006 -0.8903 -0.4327
  850TIP3    H1 2514   5.669   0.277   5.199 -2.9771  0.0213 -2.3121
  850TIP3    H2 2515   5.811   0.326   5.179 -0.9625 -2.9885  2.6772
  851TIP3   OH2 2516   5.921   4.330   4.234 -0.4014  0.4645  0.6925
  851TIP3    H1 2517   6.002   4.340   4.283  0.3697 -0.0176 -0.4393
  851TIP3    H2 2518   5.860   4.288   4.295 -0.3236  2.2370  2.0533
  852TIP3   OH2 2519   4.655   1.718   0.438 -0.3006  0.3777 -0.0535
  852TIP3    H1 2520   4.620   1.731   0.350 -1.4526  0.2669  0.3737
  852TIP3    H2 2521   4.642   1.625   0.456 -0.1294  0.4128  0.2613
  853TIP3   OH2 2522   4.176   6.075   3.751 -0.3049 -0.1498 -0.1350
  853TIP3    H1 2523   4.251   6.066   3.693  0.3601 -1.3808  0.8516
  853TIP3    H2 2524   4.176   5.994   3.803  0.2373  1.6126  2.8310
  854TIP3   OH2 2525   6.112   2.480   5.122  0.4851 -0.0696 -0.2460
  854TIP3    H1 2526   6.157   2.430   5.055  1.2426 -0.9913  0.9196
  854TIP3    H2 2527   6.103   2.568   5.084  1.6147 -0.3530 -1.2291
  855TIP3   OH2 2528   2.413   2.597   5.100 -0.7176 -0.2839  0.4460
  855TIP3    H1 2529   2.382   2.594   5.009 -1.7705  2.3557  0.6270
  855TIP3    H2 2530   2.333   2.596   5.152 -0.2549  0.6194  1.2025
  856TIP3   OH2 2531   1.172   5.759   0.707 -0.1066  0.7186 -0.4122
  856TIP3    H1 2532   1.150   5.715   0.625 -1.9356  1.3413 -0.3078
  856TIP3    H2 2533   1.191   5.849   0.682 -0.3688  0.8381 -0.1918
  857TIP3   OH2 2534   6.722   5.445   3.100 -0.1997 -0.0618 -0.1762
  857TIP3    H1 2535   6.647   5.483   3.145 -1.2712 -0.0739 -1.8394
  857TIP3    H2 2536   6.795   5.502   3.123 -0.5748 -0.3375  1.8850
  858TIP3   OH2 2537   5.974   1.175   1.054  0.7692  0.1261  0.1170
  858TIP3    H1 2538   5.899   1.155   0.998  0.2527 -0.5821  1.0393
  858TIP3    H2 2539   5.991   1.268   1.039  1.3467 -0.2711 -2.0326
  859TIP3   OH2 2540   2.890   0.500   2.912  0.2048 -0.0975  0.1819
  859TIP3    H1 2541   2.882   0.408   2.936  0.8399  0.2219  1.7383
  859TIP3    H2 2542   2.839   0.547   2.977  3.2344  0.9137  2.0592
  860TIP3   OH2 2543   5.974   3.051   2.952  0.0264 -0.0385  0.6317
  860TIP3    H1 2544   5.985   3.043   3.047 -1.0747  0.3780  0.8006
  860TIP3    H2 2545   6.040   3.116   2.926  1.9937 -1.8631  0.7273
  861TIP3   OH2 2546   1.971   0.784   1.641 -0.1740 -0.0272 -0.4724
  861TIP3    H1 2547   2.022   0.770   1.720 -2.0708  0.7371  0.9573
  861TIP3    H2 2548   1.988   0.876   1.617 -0.8215  0.2149 -0.0199
  862TIP3   OH2 2549   2.179   2.210   0.975 -0.5309 -0.2330  0.2743
  862TIP3    H1 2550   2.255   2.265   0.994 -0.8986  0.4426 -0.1722
  862TIP3    H2 2551   2.131   2.206   1.058 -1.2521  1.3193 -0.0405
  863TIP3   OH2 2552   7.081   4.901   0.304  0.6315 -0.1488  0.9078
  863TIP3    H1 2553   7.070   4.823   0.359  0.3546 -0.1336  0.8738
  863TIP3    H2 2554   7.090   4.973   0.367 -1.4965  0.1346  0.9635
  864TIP3   OH2 2555   1.856   4.195   5.721  0.1618 -0.0969 -0.0425
  864TIP3    H1 2556   1.832   4.278   5.763  1.9101 -0.2300  1.3105
  864TIP3    H2 2557   1.912   4.220   5.648 -0.7611 -0.0219 -0.7499
  865TIP3   OH2 2558   5.945   3.509   3.412 -0.4997  0.0744 -0.1919
  865TIP3    H1 2559   5.909   3.505   3.501 -0.0402  0.0630 -0.0010
  865TIP3    H2 2560   5.870   3.497   3.355 -0.4708 -2.7056  0.2252
  866TIP3   OH2 2561   6.143   1.120   5.693 -0.1077  0.7139  0.5313
  866TIP3    H1 2562   6.221   1.066   5.681 -0.1087  0.4304  1.7616
  866TIP3    H2 2563   6.176   1.203   5.726 -0.2077  1.1044 -0.3253
  867TIP3   OH2 2564   2.222   3.290   1.177 -0.4415  0.2176  0.0353
  867TIP3    H1 2565   2.192   3.203   1.205 -0.4263 -0.6187 -2.3093
  867TIP3    H2 2566   2.315   3.291   1.198 -0.2309 -0.7455 -0.7355
  868TIP3   OH2 2567   6.739   2.818   2.315 -0.0281  0.0316 -0.1669
  868TIP3    H1 2568   6.678   2.745   2.320  0.1538 -0.0497  1.5292
  868TIP3    H2 2569   6.685   2.893   2.293 -0.9142  0.0693  1.8821
  869TIP3   OH2 2570   1.136   1.807   3.065  0.1487 -0.0083 -0.8630
  869TIP3    H1 2571   1.141   1.886   3.011 -2.6451 -0.9579 -2.7705
  869TIP3    H2 2572   1.073   1.829   3.134  0.5508 -0.1066 -0.4605
  870TIP3   OH2 2573   6.221   1.182   4.338 -0.1555  0.0669  0.0332
  870TIP3    H1 2574   6.238   1.242   4.265 -2.7263 -1.4476 -1.9937
  870TIP3    H2 2575   6.134   1.208   4.370 -0.2488 -1.0159  0.6967
  871TIP3   OH2 2576   1.655   3.663   5.271  0.2991 -0.0901  0.0405
  871TIP3    H1 2577   1.720   3.596   5.294 -0.3245 -0.4248  0.8839
  871TIP3    H2 2578   1.656   3.666   5.176  0.7874 -0.8547  0.0118
  872TIP3   OH2 2579   6.565   4.253   1.659 -0.6048  0.4109 -0.2797
  872TIP3    H1 2580   6.487   4.289   1.616 -0.4318  0.2686 -0.7220
  872TIP3    H2 2581   6.635   4.314   1.638  0.0088 -0.8585 -2.2408
  873TIP3   OH2 2582   5.553   5.559   5.092 -0.1339 -0.4734  0.1009
  873TIP3    H1 2583   5.556   5.594   5.003 -0.2350 -0.9829 -0.1078
  873TIP3    H2 2584   5.611   5.616   5.142  2.6129 -2.1321 -0.9785
  874TIP3   OH2 2585   3.269   0.777   5.883 -0.0565 -0.1032  0.0189
  874TIP3    H1 2586   3.177   0.802   5.877  0.2033  0.5538 -2.5196
  874TIP3    H2 2587   3.271   0.686   5.853  0.3703  0.7655 -2.8925
  875TIP3   OH2 2588   7.201   6.017   2.801  0.2658 -0.7899  0.5688
  875TIP3    H1 2589   7.179   6.027   2.709  1.1913  0.4271  0.4551
  875TIP3    H2 2590   7.218   6.106   2.831 -0.2796 -1.1368  1.9893
  876TIP3   OH2 2591   6.131   6.293   5.640  0.3809 -0.0607 -0.1617
  876TIP3    H1 2592   6.190   6.368   5.636  0.7113 -0.2843  0.4068
  876TIP3    H2 2593   6.179   6.222   5.597  1.4481 -0.8297  2.1605
  877TIP3   OH2 2594   6.940   5.351   0.090  0.3165  0.6530 -0.8398
  877TIP3    H1 2595   6.959   5.444   0.076 -0.2676  0.7692 -0.8528
  877TIP3    H2 2596   6.848   5.341   0.066 -0.5741  0.7373  2.1316
  878TIP3   OH2 2597   3.517   1.141   5.735  0.4816  0.1343  0.5081
  878TIP3    H1 2598   3.550   1.113   5.820 -1.0186  0.3954  1.2136
  878TIP3    H2 2599   3.448   1.205   5.755 -0.0191  0.0843 -0.8941
  879TIP3   OH2 2600   1.251   5.696   5.538  0.7143 -0.0555  0.6027
  879TIP3    H1 2601   1.253   5.769   5.600  0.4507  2.1347 -1.8362
  879TIP3    H2 2602   1.157   5.680   5.523  0.7145  1.4562 -1.3851
  880TIP3   OH2 2603   0.546   4.371   0.604  0.3322 -0.7516  0.1661
  880TIP3    H1 2604   0.576   4.444   0.550  1.5073 -1.9456 -0.8572
  880TIP3    H2 2605   0.607   4.369   0.678 -1.6805  1.3151  2.0586
  881TIP3   OH2 2606   5.591   4.161   2.162  0.1880 -0.0127 -0.2282
  881TIP3    H1 2607   5.583   4.098   2.234  0.3967  0.9920  0.6984
  881TIP3    H2 2608   5.636   4.112   2.093  3.6044  0.0461  1.7330
  882TIP3   OH2 2609   4.615   3.007   2.979  0.2906 -0.4957 -0.0456
  882TIP3    H1 2610   4.661   3.054   3.048  3.8339  0.1282 -2.5543
  882TIP3    H2 2611   4.557   3.072   2.939  0.1913 -0.1499  0.6520
  883TIP3   OH2 2612   4.589   4.716   5.447  0.2615 -0.4074  0.0784
  883TIP3    H1 2613   4.625   4.664   5.375  1.6816  1.1786 -0.4318
  883TIP3    H2 2614   4.504   4.676   5.465  1.0127 -2.5085 -0.6586
  884TIP3   OH2 2615   5.353   1.909   3.338 -0.1215 -0.0840  0.1211
  884TIP3    H1 2616   5.381   2.001   3.343 -0.9704  0.2029 -0.1011
  884TIP3    H2 2617   5.343   1.882   3.429  1.5756 -0.4404  0.2391
  885TIP3   OH2 2618   1.866   3.078   4.652  0.0300  0.3071 -0.6493
  885TIP3    H1 2619   1.945   3.127   4.628 -0.2695  1.3124  0.3887
  885TIP3    H2 2620   1.873   2.997   4.601  1.9716  0.1601 -0.2332
  886TIP3   OH2 2621   6.370   4.155   5.618  0.3658 -0.0706 -0.6560
  886TIP3    H1 2622   6.363   4.114   5.532 -1.3138  0.6499 -0.8843
  886TIP3    H2 2623   6.362   4.082   5.680 -2.7036 -0.1772 -1.0530
  887TIP3   OH2 2624   6.318   1.403   3.207  0.2240  0.3162 -0.2062
  887TIP3    H1 2625   6.345   1.439   3.291  1.5393  0.5357 -0.6864
  887TIP3    H2 2626   6.368   1.322   3.199 -0.0255  0.2067 -0.6967
  888TIP3   OH2 2627   3.572   0.416   2.085 -0.3552  0.7973  0.5138
  888TIP3    H1 2628   3.591   0.324   2.064  0.2363  1.0939 -0.3166
  888TIP3    H2 2629   3.642   0.442   2.144  0.2828  1.0958 -0.3490
  889TIP3   OH2 2630   1.740   3.935   3.052 -0.1149 -0.5952  0.5175
  889TIP3    H1 2631   1.751   3.981   2.969  0.4199  0.7701  1.3115
  889TIP3    H2 2632   1.791   3.854   3.041 -0.9184 -0.9475 -0.8362
  890TIP3   OH2 2633   7.110   0.167   0.707  0.7790  0.1230  0.6184
  890TIP3    H1 2634   7.127   0.092   0.763  1.4217  0.3785  0.7764
  890TIP3    H2 2635   7.152   0.240   0.752 -1.1367  0.9000  1.2772
  891TIP3   OH2 2636   1.726   0.972   3.491  0.5370 -0.5255 -0.3456
  891TIP3    H1 2637   1.753   0.940   3.404  0.3389 -1.0324 -0.2267
  891TIP3    H2 2638   1.635   0.945   3.498  0.3418  0.1456 -0.2651
  892TIP3   OH2 2639   5.291   3.156   4.119 -0.2792 -0.0762  0.3079
  892TIP3    H1 2640   5.349   3.080   4.113 -0.8607 -0.6663  1.8238
  892TIP3    H2 2641   5.346   3.226   4.155 -0.1027 -0.1869  0.2505
  893TIP3   OH2 2642   3.107   0.821   4.144 -0.1443  0.3472 -0.4368
  893TIP3    H1 2643   3.173   0.764   4.183  1.3789  1.7138 -0.8991
  893TIP3    H2 2644   3.098   0.893   4.207 -1.8257 -0.2141  0.0124
  894TIP3   OH2 2645   5.235   1.182   4.747 -0.4905  0.4633  0.5525
  894TIP3    H1 2646   5.165   1.242   4.720 -1.5200 -1.0677 -0.2946
  894TIP3    H2 2647   5.190   1.110   4.791  0.0202 -2.3673 -3.0831
  895TIP3   OH2 2648   6.611   5.823   1.685  0.2281 -0.6581  0.1903
  895TIP3    H1 2649   6.672   5.779   1.744 -1.7326 -2.3512  1.0666
  895TIP3    H2 2650   6.557   5.752   1.649 -0.1767  0.6000 -1.8245
  896TIP3   OH2 2651   4.781   5.253   0.142  0.7825  0.3813  0.1131
  896TIP3    H1 2652   4.809   5.179   0.195 -0.8297 -0.2410  0.1562
  896TIP3    H2 2653   4.797   5.224   0.052  2.0972  0.8372  0.1776
  897TIP3   OH2 2654   5.936   4.163   4.956  0.0190  0.4185 -0.3265
  897TIP3    H1 2655   5.964   4.166   4.865 -1.0242 -1.3476 -0.7487
  897TIP3    H2 2656   5.851   4.206   4.957  0.6200  1.6622  0.1099
  898TIP3   OH2 2657   1.758   2.892   5.635 -0.8341 -0.1402  0.5944
  898TIP3    H1 2658   1.667   2.913   5.653 -0.5687 -0.2343  2.1885
  898TIP3    H2 2659   1.761   2.796   5.636 -0.5811 -0.1393  1.4705
  899TIP3   OH2 2660   6.861   6.152   1.203 -0.1536  0.5637  0.2729
  899TIP3    H1 2661   6.953   6.132   1.220 -0.6288 -0.5508  1.8225
  899TIP3    H2 2662   6.833   6.086   1.140  0.0926  0.9048 -0.2010
  900TIP3   OH2 2663   1.912   1.723   4.238 -0.1218 -0.5990  0.4865
  900TIP3    H1 2664   1.902   1.752   4.147 -0.0848  0.6740  0.8597
  900TIP3    H2 2665   1.978   1.654   4.233  2.8156  1.9857 -0.0969
  901TIP3   OH2 2666   5.941   5.967   3.521 -0.2717  0.1852 -0.5742
  901TIP3    H1 2667   5.937   5.872   3.513  0.6489  0.1998 -1.4009
  901TIP3    H2 2668   5.854   5.997   3.494 -0.2942 -0.3798 -1.1476
  902TIP3   OH2 2669   2.407   6.076   1.679  0.0353  0.0938  0.1811
  902TIP3    H1 2670   2.341   6.125   1.631 -0.3435  0.1133  0.7182
  902TIP3    H2 2671   2.460   6.033   1.611  0.8335  1.8248 -0.3321
  903TIP3   OH2 2672   0.284   1.725   1.619  0.2504 -0.4513  0.1811
  903TIP3    H1 2673   0.194   1.708   1.646 -0.2697  1.1513 -0.3984
  903TIP3    H2 2674   0.288   1.697   1.528 -0.3458  1.4301 -0.4864
  904TIP3   OH2 2675   5.598   5.144   0.987 -0.1955  0.0305  0.2034
  904TIP3    H1 2676   5.607   5.135   1.082 -3.4118  0.6434  0.6990
  904TIP3    H2 2677   5.660   5.212   0.963 -0.3710  0.9472  2.1599
  905TIP3   OH2 2678   4.160   1.322   3.417 -0.0452 -0.3701  0.2396
  905TIP3    H1 2679   4.110   1.294   3.494  0.6819  1.3151  1.3827
  905TIP3    H2 2680   4.109   1.394   3.381 -0.8970 -1.7688 -1.5131
  906TIP3   OH2 2681   2.124   2.121   2.413  0.2322  0.4849  0.1974
  906TIP3    H1 2682   2.111   2.079   2.328 -0.5324  0.4692  0.3201
  906TIP3    H2 2683   2.082   2.207   2.404  0.9032  0.8301  0.2817
  907TIP3   OH2 2684   2.479   6.079   3.854 -0.6708  0.6089  0.0950
  907TIP3    H1 2685   2.421   6.032   3.914 -0.4347  0.5360  0.2632
  907TIP3    H2 2686   2.543   6.121   3.911  0.4816 -0.6988 -0.1867
  908TIP3   OH2 2687   5.444   5.463   1.805 -0.0600 -0.0372  0.0132
  908TIP3    H1 2688   5.501   5.424   1.739 -0.1668  1.6366 -1.1449
  908TIP3    H2 2689   5.486   5.547   1.826  0.5199 -0.9724  2.8880
  909TIP3   OH2 2690   7.008   4.239   1.360 -0.1765  0.8296 -0.4784
  909TIP3    H1 2691   7.062   4.274   1.431 -1.4799  0.8189  0.5529
  909TIP3    H2 2692   6.933   4.297   1.355  1.2531  2.6758 -3.9546
  910TIP3   OH2 2693   5.235   3.422   1.290  0.1449  0.1183  0.0714
  910TIP3    H1 2694   5.281   3.425   1.206  0.2079 -1.1471  0.0394
  910TIP3    H2 2695   5.171   3.493   1.285 -0.8772 -0.8518 -1.6669
  911TIP3   OH2 2696   3.724   2.943   3.650 -0.3866 -0.7514 -0.0510
  911TIP3    H1 2697   3.635   2.924   3.680  0.1786 -1.0849  1.5386
  911TIP3    H2 2698   3.745   2.872   3.590 -1.5387 -0.1081 -1.2750
  912TIP3   OH2 2699   2.929   4.041   3.955  0.1386  0.3992  0.1405
  912TIP3    H1 2700   2.931   4.124   3.907  0.6087  0.9593  1.0892
  912TIP3    H2 2701   2.916   4.066   4.047  1.0623 -0.5186  0.5479
  913TIP3   OH2 2702   4.732   5.448   0.828  0.3335 -0.4294 -0.0302
  913TIP3    H1 2703   4.825   5.425   0.837 -0.0863 -1.5029  2.4123
  913TIP3    H2 2704   4.693   5.374   0.781  0.4777 -0.6484  0.1923
  914TIP3   OH2 2705   0.979   3.890   5.347 -0.0089  0.6778  0.4983
  914TIP3    H1 2706   1.037   3.966   5.335 -0.8113  1.1638 -0.4476
  914TIP3    H2 2707   0.895   3.918   5.309  0.0641 -1.1542 -1.1917
  915TIP3   OH2 2708   6.204   5.242   4.684  0.6370  0.1022  0.2873
  915TIP3    H1 2709   6.172   5.296   4.612 -1.1852 -0.8680  0.3338
  915TIP3    H2 2710   6.299   5.258   4.685  0.5641  0.9270 -1.6451
  916TIP3   OH2 2711   5.474   3.749   4.775 -0.1025  0.5062  0.2057
  916TIP3    H1 2712   5.544   3.711   4.721 -0.3061  0.3183  0.0716
  916TIP3    H2 2713   5.394   3.725   4.729 -0.2937  0.0792  0.7622
  917TIP3   OH2 2714   2.941   2.920   4.177 -1.0802 -0.3466  0.0092
  917TIP3    H1 2715   2.875   2.880   4.233  1.4257 -3.0738  1.3023
  917TIP3    H2 2716   3.007   2.954   4.238  0.3166 -0.7894 -1.1920
  918TIP3   OH2 2717   4.815   4.624   5.645  0.0837 -0.5477  0.4388
  918TIP3    H1 2718   4.741   4.622   5.584 -0.1548  3.2809  0.3562
  918TIP3    H2 2719   4.892   4.635   5.590  0.7463 -3.5750  0.5901
  919TIP3   OH2 2720   2.938   5.843   0.129  0.0484 -0.0559 -0.3996
  919TIP3    H1 2721   2.855   5.889   0.124 -0.5237 -0.8980  0.9226
  919TIP3    H2 2722   2.972   5.863   0.216 -0.2504 -2.1156  0.2514
  920TIP3   OH2 2723   1.518   1.105   1.660  0.3986  0.2621 -0.0655
  920TIP3    H1 2724   1.584   1.037   1.645  0.3761  0.4996 -1.3126
  920TIP3    H2 2725   1.543   1.176   1.601 -1.7869 -0.2214 -1.6718
  921TIP3   OH2 2726   7.186   3.826   5.531 -0.7384  0.3118  0.1652
  921TIP3    H1 2727   7.184   3.922   5.527 -1.3564  0.2841 -0.2755
  921TIP3    H2 2728   7.168   3.806   5.623 -0.8983  0.6133  0.2029
  922TIP3   OH2 2729   3.453   2.356   3.964 -0.2706  0.6805  0.0410
  922TIP3    H1 2730   3.462   2.287   4.030 -0.1917 -0.4883 -1.1543
  922TIP3    H2 2731   3.543   2.383   3.945 -0.3038  1.1904  0.5521
  923TIP3   OH2 2732   5.069   5.971   3.947 -0.2021 -0.0866 -0.2971
  923TIP3    H1 2733   5.095   5.935   4.032  2.0184  1.0096 -0.4538
  923TIP3    H2 2734   5.022   6.052   3.968  1.5773  0.9337 -0.0940
  924TIP3   OH2 2735   0.031   1.412   2.247  0.0109  0.5059 -0.3606
  924TIP3    H1 2736  -0.019   1.492   2.227  1.7122  0.9562 -3.5355
  924TIP3    H2 2737   0.122   1.436   2.231  0.6888 -1.7763 -0.3046
  925TIP3   OH2 2738   1.158   1.076   0.138 -0.2562  0.0811  0.6086
  925TIP3    H1 2739   1.164   1.001   0.197  1.4596  0.2511  0.6859
  925TIP3    H2 2740   1.111   1.043   0.061 -2.4548 -0.1591  1.9802
  926TIP3   OH2 2741   2.536   2.693   4.187 -0.0714  0.0266 -0.1445
  926TIP3    H1 2742   2.552   2.787   4.191 -1.6681  0.2999  0.6896
  926TIP3    H2 2743   2.623   2.654   4.184  0.7208  1.4512  1.8843
  927TIP3   OH2 2744   4.307   0.547   0.543  0.2782 -0.0406  0.0411
  927TIP3    H1 2745   4.266   0.632   0.526 -0.1552 -0.3988 -0.7022
  927TIP3    H2 2746   4.234   0.487   0.556  0.5375 -0.6917 -1.3386
  928TIP3   OH2 2747   2.887   3.904   3.492 -0.0020  0.7099  0.3976
  928TIP3    H1 2748   2.889   3.837   3.561  1.8499  1.5353  1.2073
  928TIP3    H2 2749   2.846   3.859   3.417 -1.2804 -0.4678  1.7299
  929TIP3   OH2 2750   4.204   0.162   4.491  0.3054  0.1475 -0.4994
  929TIP3    H1 2751   4.290   0.191   4.461  1.1740  0.3290  1.9456
  929TIP3    H2 2752   4.223   0.090   4.551 -1.5003 -2.1347 -2.4402
  930TIP3   OH2 2753   1.343   1.891   0.054 -0.7004  0.3037  0.3119
  930TIP3    H1 2754   1.426   1.885   0.102 -0.5440  1.7561  0.2712
  930TIP3    H2 2755   1.299   1.808   0.073  0.3566 -0.1203  1.0729
  931TIP3   OH2 2756   2.254   1.933   1.097 -0.2268 -0.2390  0.7566
  931TIP3    H1 2757   2.248   2.004   1.033  0.5646 -0.5948  0.2756
  931TIP3    H2 2758   2.293   1.861   1.048  0.7410 -0.3988  1.7405
  932TIP3   OH2 2759   3.086   1.195   3.190 -0.0684  0.0298  0.0344
  932TIP3    H1 2760   3.116   1.113   3.229 -1.8253 -1.0939 -0.8657
  932TIP3    H2 2761   3.152   1.259   3.216  2.2164 -1.9504 -0.5346
  933TIP3   OH2 2762   0.401   4.644   1.484  0.1380 -0.5335 -0.2486
  933TIP3    H1 2763   0.488   4.623   1.451  0.1173 -0.5362 -0.3015
  933TIP3    H2 2764   0.344   4.640   1.407 -0.3270 -2.8325  0.1262
  934TIP3   OH2 2765   4.590   6.485   1.519  0.3475 -0.0746  0.5317
  934TIP3    H1 2766   4.640   6.479   1.438 -1.0416 -0.1014 -0.3620
  934TIP3    H2 2767   4.644   6.540   1.576  1.0969  0.4265 -0.6145
  935TIP3   OH2 2768   3.527   0.022   2.642 -0.1501  0.1832  0.9414
  935TIP3    H1 2769   3.445   0.059   2.611  0.4272  0.0984 -0.7775
  935TIP3    H2 2770   3.501  -0.055   2.693 -1.0985 -0.7340 -0.8393
  936TIP3   OH2 2771   4.019   3.217   3.246 -0.6145 -0.2715  0.1914
  936TIP3    H1 2772   3.945   3.163   3.274 -0.3142 -0.4290  0.7033
  936TIP3    H2 2773   3.979   3.295   3.209 -1.1033 -1.2900 -1.5653
  937TIP3   OH2 2774   3.564   5.446   3.367 -0.4751 -0.1412  0.6965
  937TIP3    H1 2775   3.625   5.434   3.295 -0.1415  0.0007  0.9503
  937TIP3    H2 2776   3.517   5.363   3.373 -1.1768  0.1654 -0.2879
  938TIP3   OH2 2777   2.171   1.547   0.787 -0.4809  0.2240  0.0487
  938TIP3    H1 2778   2.230   1.497   0.731 -0.8827  0.2199 -0.3723
  938TIP3    H2 2779   2.123   1.480   0.836 -2.9119  0.0153 -2.3887
  939TIP3   OH2 2780   5.818   2.578   5.700  0.3153 -0.0934 -0.6925
  939TIP3    H1 2781   5.839   2.517   5.771 -0.6869  1.0342  0.6138
  939TIP3    H2 2782   5.725   2.563   5.683  0.0624  1.0447 -0.3664
  940TIP3   OH2 2783   0.914   5.554   1.322 -0.0640 -0.6314 -0.0631
  940TIP3    H1 2784   0.948   5.640   1.297 -0.2903 -0.0182  1.6288
  940TIP3    H2 2785   0.989   5.508   1.358 -0.4179 -0.2719  1.1719
  941TIP3   OH2 2786   6.108   2.903   4.229  0.3718 -0.4572 -0.5360
  941TIP3    H1 2787   6.061   2.836   4.278 -2.3027  1.4737 -0.2487
  941TIP3    H2 2788   6.125   2.973   4.292 -0.5747  0.8340 -1.6300
  942TIP3   OH2 2789   6.300   0.106   4.488 -0.5736 -0.2558  0.3485
  942TIP3    H1 2790   6.315   0.166   4.415  1.7583 -1.0661  0.0645
  942TIP3    H2 2791   6.300   0.162   4.565  1.3658  0.2217  0.0712
  943TIP3   OH2 2792   2.927   0.336   1.512 -0.2018 -0.3970 -0.2757
  943TIP3    H1 2793   2.901   0.375   1.596  0.8623 -1.5221  0.6077
  943TIP3    H2 2794   3.018   0.363   1.501 -0.6807  0.7268 -1.6824
  944TIP3   OH2 2795   7.157   3.320   2.884 -0.1410  0.0656  0.7074
  944TIP3    H1 2796   7.147   3.347   2.975  1.1653  0.6816  0.7002
  944TIP3    H2 2797   7.198   3.233   2.888  0.1784  0.2130  0.7224
  945TIP3   OH2 2798   0.845   4.502   3.839  0.4416  0.1573  0.9690
  945TIP3    H1 2799   0.788   4.542   3.774  0.1570  1.6888  2.1085
  945TIP3    H2 2800   0.848   4.409   3.815 -2.5095  0.0104  0.8478
  946TIP3   OH2 2801   1.732   6.270   3.558  0.4758 -0.0957  0.1670
  946TIP3    H1 2802   1.757   6.198   3.501  0.3892  0.1232 -0.1513
  946TIP3    H2 2803   1.813   6.298   3.600  0.1948 -1.8082  1.9870
  947TIP3   OH2 2804   1.318   6.201   1.403 -0.2820 -0.0487 -0.0466
  947TIP3    H1 2805   1.387   6.135   1.407  0.1483  0.4004  0.0835
  947TIP3    H2 2806   1.352   6.268   1.343 -0.7579  0.0021 -0.2640
  948TIP3   OH2 2807   4.748   5.191   0.721  0.2467  0.0448 -0.0196
  948TIP3    H1 2808   4.659   5.186   0.685 -0.0787  0.8545  0.6368
  948TIP3    H2 2809   4.745   5.137   0.800 -0.3297  1.8796  1.2698
  949TIP3   OH2 2810   0.778   5.203   4.090  0.1065 -0.0632  0.4862
  949TIP3    H1 2811   0.694   5.181   4.049 -0.1059 -0.4377  1.1062
  949TIP3    H2 2812   0.802   5.287   4.053 -0.0250 -0.4479 -0.4959
  950TIP3   OH2 2813   1.823   1.253   0.761  0.1874  0.4952  0.2963
  950TIP3    H1 2814   1.855   1.164   0.752  0.7213  0.6060  0.9944
  950TIP3    H2 2815   1.731   1.244   0.787 -0.0812  0.1677 -0.7188
  951TIP3   OH2 2816   4.843   2.533   1.728 -0.1868 -0.1093  0.1871
  951TIP3    H1 2817   4.931   2.497   1.738 -0.6681 -1.2351  0.5451
  951TIP3    H2 2818   4.811   2.498   1.645 -0.7737 -0.7955  0.6835
  952TIP3   OH2 2819   2.626   2.717   0.048 -0.4258  0.1474 -0.2669
  952TIP3    H1 2820   2.688   2.695  -0.021 -1.8879 -0.8145 -1.3292
  952TIP3    H2 2821   2.549   2.749   0.002 -2.4913 -3.0404  0.6578
  953TIP3   OH2 2822   4.812   3.179   2.238 -0.4796 -0.1063  0.7930
  953TIP3    H1 2823   4.754   3.105   2.221 -2.8912  1.2119  2.5432
  953TIP3    H2 2824   4.768   3.254   2.197 -0.3732  1.0400  2.6433
  954TIP3   OH2 2825   5.431   5.982   3.322  0.5354 -0.3328 -0.2518
  954TIP3    H1 2826   5.343   5.947   3.333  0.6059 -0.1637  1.1089
  954TIP3    H2 2827   5.432   6.020   3.235 -0.1073 -2.1007 -1.0719
  955TIP3   OH2 2828   3.421   0.472   2.990 -0.3685 -0.2106  0.2290
  955TIP3    H1 2829   3.460   0.511   2.912 -0.6162  0.7715  0.5832
  955TIP3    H2 2830   3.350   0.416   2.956 -1.0488  0.8905 -0.2124
  956TIP3   OH2 2831   3.336   2.326   5.140  0.0426 -0.1017 -0.0064
  956TIP3    H1 2832   3.406   2.323   5.205  0.8389 -0.4595 -0.8660
  956TIP3    H2 2833   3.280   2.399   5.169  0.1348 -0.5286  1.3067
  957TIP3   OH2 2834   3.949   4.858   0.595  0.1401 -0.1426  0.3080
  957TIP3    H1 2835   4.032   4.820   0.625 -0.5682 -0.8289  1.4838
  957TIP3    H2 2836   3.939   4.827   0.505 -0.5238 -3.0313  1.2784
  958TIP3   OH2 2837   0.443   1.737   3.437  0.6347 -0.1215 -0.1022
  958TIP3    H1 2838   0.432   1.673   3.507  1.3796 -0.8050 -0.5998
  958TIP3    H2 2839   0.393   1.813   3.467 -0.6313 -1.0749  0.3014
  959TIP3   OH2 2840   2.300   1.102   1.529 -0.1696 -0.1316 -0.2157
  959TIP3    H1 2841   2.323   1.172   1.591 -0.4295  1.3764 -1.7559
  959TIP3    H2 2842   2.373   1.040   1.535  0.1475  0.3284  1.0769
  960TIP3   OH2 2843   6.501   6.543   5.428 -0.7417 -0.0253 -0.7456
  960TIP3    H1 2844   6.428   6.592   5.467 -0.1841 -0.1085  0.4132
  960TIP3    H2 2845   6.568   6.541   5.495  0.0477 -0.6170 -1.5306
  961TIP3   OH2 2846   5.448   6.396   3.427 -0.6163  0.2350  0.1495
  961TIP3    H1 2847   5.525   6.347   3.400 -0.1596 -0.0632  1.8769
  961TIP3    H2 2848   5.374   6.342   3.400 -0.1344 -0.9864  1.1693
  962TIP3   OH2 2849   5.732   6.507   1.132 -0.9786 -0.5282 -0.0684
  962TIP3    H1 2850   5.810   6.555   1.158 -1.8227  0.2725  1.0985
  962TIP3    H2 2851   5.729   6.432   1.191 -1.5691 -0.0424  0.5477
  963TIP3   OH2 2852   0.480   6.135   5.881  0.3082 -0.0713 -0.2241
  963TIP3    H1 2853   0.529   6.178   5.951  1.5381 -1.0109 -0.4617
  963TIP3    H2 2854   0.470   6.202   5.814  1.5106  0.0801 -0.2728
  964TIP3   OH2 2855   5.588   0.565   3.179  0.1209 -0.5967 -0.2463
  964TIP3    H1 2856   5.682   0.574   3.163 -0.2075 -0.5956 -2.4151
  964TIP3    H2 2857   5.583   0.520   3.264  1.9794  2.3583  1.6156
  965TIP3   OH2 2858   5.532   3.603   3.424  0.5826 -0.1242 -0.1692
  965TIP3    H1 2859   5.580   3.681   3.451  1.0466 -0.2455 -0.6301
  965TIP3    H2 2860   5.586   3.564   3.356  1.1771 -1.7762  1.1969
  966TIP3   OH2 2861   0.870   2.217   1.902  0.2456 -0.1864 -0.1536
  966TIP3    H1 2862   0.800   2.231   1.966  2.7490 -1.3738  3.1694
  966TIP3    H2 2863   0.848   2.134   1.861 -1.1588  0.3309 -0.5202
  967TIP3   OH2 2864   2.197   4.392   1.201 -0.3412 -0.2757  0.1471
  967TIP3    H1 2865   2.187   4.381   1.295 -0.3763 -1.3096  0.0403
  967TIP3    H2 2866   2.129   4.455   1.177 -0.0595  0.3114  0.8648
  968TIP3   OH2 2867   2.815   3.661   0.572  0.4605  0.0804 -0.3253
  968TIP3    H1 2868   2.819   3.664   0.476 -0.3132  2.3283 -0.3537
  968TIP3    H2 2869   2.827   3.752   0.599 -0.8639 -0.2628  1.6331
  969TIP3   OH2 2870   3.032   5.492   5.217  0.7338 -0.1851  0.4940
  969TIP3    H1 2871   3.075   5.507   5.132  0.0231 -1.4807 -0.1176
  969TIP3    H2 2872   3.090   5.534   5.280  2.2019 -0.7077 -0.4508
  970TIP3   OH2 2873   2.449   0.049   2.490 -0.5161 -0.2227 -0.3226
  970TIP3    H1 2874   2.363   0.014   2.512  0.1256 -0.8064  1.4498
  970TIP3    H2 2875   2.505   0.021   2.563  1.0773  0.4864 -1.2362
  971TIP3   OH2 2876   5.518   5.432   0.673  0.3465  0.3157  0.3583
  971TIP3    H1 2877   5.548   5.385   0.595 -0.4847  0.4353 -0.0477
  971TIP3    H2 2878   5.435   5.390   0.696  0.2666  0.7040  0.7885
  972TIP3   OH2 2879   3.162   1.307   1.370 -0.1785 -0.1411 -0.1581
  972TIP3    H1 2880   3.168   1.364   1.294 -0.0125  1.6207  1.1253
  972TIP3    H2 2881   3.197   1.223   1.340  1.6306  1.0280 -1.4988
  973TIP3   OH2 2882   6.478   5.088   4.861  0.4491 -0.3846 -0.5013
  973TIP3    H1 2883   6.534   5.020   4.824  1.0305 -0.7035  0.9032
  973TIP3    H2 2884   6.530   5.126   4.932 -0.4100  0.5903 -0.3693
  974TIP3   OH2 2885   3.253   4.561   4.817 -0.0199 -0.5110 -0.1723
  974TIP3    H1 2886   3.237   4.568   4.723 -1.1531 -0.1036  0.0435
  974TIP3    H2 2887   3.347   4.543   4.824  0.8815  2.9728 -1.2509
  975TIP3   OH2 2888   2.146   5.013   1.071  0.0465 -0.0371 -0.1781
  975TIP3    H1 2889   2.153   4.968   1.156  1.2486  0.2177 -0.1289
  975TIP3    H2 2890   2.128   5.104   1.094  0.5453  0.0651 -0.1869
  976TIP3   OH2 2891   4.077   4.896   2.567 -0.3163  0.3586 -0.7650
  976TIP3    H1 2892   4.057   4.905   2.474  0.9152  1.6866 -0.9324
  976TIP3    H2 2893   4.172   4.904   2.572 -0.3935  0.6621  0.6559
  977TIP3   OH2 2894   2.041   5.436   3.544 -0.0343 -0.6389  0.3558
  977TIP3    H1 2895   2.098   5.359   3.547 -1.3999 -1.6957  0.4542
  977TIP3    H2 2896   2.027   5.458   3.637 -0.7800 -1.1774  0.3823
  978TIP3   OH2 2897   4.302   1.729   1.765  0.3938  0.2666 -0.0759
  978TIP3    H1 2898   4.327   1.637   1.750 -0.9268 -0.1037 -0.1194
  978TIP3    H2 2899   4.273   1.761   1.680 -1.3009  0.0107  0.3605
  979TIP3   OH2 2900   2.452   5.415   5.217 -0.0171 -0.0993 -0.3961
  979TIP3    H1 2901   2.536   5.386   5.252 -0.1204  1.6332  1.4759
  979TIP3    H2 2902   2.442   5.504   5.249 -2.0040  0.1977 -1.6473
  980TIP3   OH2 2903   6.250   1.566   0.630 -0.3773 -0.9270  0.0686
  980TIP3    H1 2904   6.163   1.592   0.601  0.2649  0.9471 -0.3127
  980TIP3    H2 2905   6.265   1.617   0.710  0.3026 -1.3828  0.2439
  981TIP3   OH2 2906   4.441   3.966   3.216  0.2670 -0.7414 -0.0527
  981TIP3    H1 2907   4.429   3.993   3.125  1.5618 -0.4776 -0.1569
  981TIP3    H2 2908   4.422   3.872   3.215  0.0145 -0.6919 -0.5396
  982TIP3   OH2 2909   0.520   1.361   1.149 -0.1798  0.2052  0.2269
  982TIP3    H1 2910   0.476   1.287   1.108  2.9632 -0.6960 -1.9294
  982TIP3    H2 2911   0.544   1.330   1.236 -0.1486 -0.7892 -0.1268
  983TIP3   OH2 2912   5.072   3.692   3.219  0.0208 -0.4844 -0.2978
  983TIP3    H1 2913   5.018   3.632   3.270  2.4398 -1.2186  1.5882
  983TIP3    H2 2914   5.162   3.661   3.233  1.1330  1.9106 -1.5646
  984TIP3   OH2 2915   2.057   6.457   5.143 -0.4741 -0.8852 -0.5323
  984TIP3    H1 2916   2.127   6.427   5.201  0.4276  0.8544 -0.6409
  984TIP3    H2 2917   1.986   6.394   5.155  0.1210 -1.2152  1.5846
  985TIP3   OH2 2918   3.078   4.543   2.900  1.0380 -0.5994  0.3692
  985TIP3    H1 2919   3.091   4.636   2.879 -1.5057  0.3212  2.2916
  985TIP3    H2 2920   3.064   4.501   2.816 -0.7809  1.3663 -0.4070
  986TIP3   OH2 2921   4.733   3.411   2.823 -0.0108 -0.0818 -0.3720
  986TIP3    H1 2922   4.705   3.336   2.771  0.2967 -0.0736 -0.5520
  986TIP3    H2 2923   4.816   3.438   2.783 -0.1476  0.3870 -0.3458
  987TIP3   OH2 2924   2.374   1.181   4.814 -0.0251  0.4610 -0.3339
  987TIP3    H1 2925   2.436   1.250   4.790 -1.2509  1.4314 -0.8314
  987TIP3    H2 2926   2.315   1.174   4.739  0.1603 -1.2645 -0.3545
  988TIP3   OH2 2927   4.969   3.033   3.847 -0.1437 -0.1101  0.0297
  988TIP3    H1 2928   4.931   3.034   3.935 -1.8295  0.6537 -0.6524
  988TIP3    H2 2929   4.911   2.975   3.797  0.6593 -0.3459 -0.6479
  989TIP3   OH2 2930   5.855   3.632   1.954  0.2922 -0.4802 -0.3493
  989TIP3    H1 2931   5.907   3.563   1.995 -0.3303 -0.9419 -0.3248
  989TIP3    H2 2932   5.852   3.609   1.862  1.2131  0.2520 -0.5811
  990TIP3   OH2 2933   0.650   1.476   4.402  0.0268 -0.4988 -0.0888
  990TIP3    H1 2934   0.693   1.396   4.432 -0.4521 -0.4008  0.8835
  990TIP3    H2 2935   0.559   1.450   4.389  0.1213 -0.4070 -0.9712
  991TIP3   OH2 2936   4.133   2.775   3.273  0.2535 -0.1374 -0.3325
  991TIP3    H1 2937   4.158   2.866   3.256 -1.7333  0.2527 -1.3456
  991TIP3    H2 2938   4.064   2.756   3.210  1.2454 -2.6801 -0.7594
  992TIP3   OH2 2939   1.930   6.380   1.241  0.2795 -0.0416  0.0645
  992TIP3    H1 2940   1.941   6.296   1.196  0.8333 -0.4559  0.9400
  992TIP3    H2 2941   1.869   6.429   1.186 -0.1702 -1.0739 -0.3815
  993TIP3   OH2 2942   7.150   5.845   2.280 -0.1894  0.4768 -0.9295
  993TIP3    H1 2943   7.074   5.794   2.253 -0.4253 -0.1344  0.7685
  993TIP3    H2 2944   7.187   5.878   2.198  0.0411 -2.4848 -2.1455
  994TIP3   OH2 2945   4.953   5.363   2.778  0.0186  0.0060 -0.0597
  994TIP3    H1 2946   4.962   5.456   2.796  1.4691  0.1421 -1.2217
  994TIP3    H2 2947   4.864   5.353   2.746 -1.1495  0.4519  2.7872
  995TIP3   OH2 2948   3.674   5.985   3.003 -0.1582 -0.9779  0.0279
  995TIP3    H1 2949   3.716   5.899   3.012  0.9891 -0.3732  0.6896
  995TIP3    H2 2950   3.729   6.032   2.941  0.1494 -0.1848  0.8774
  996TIP3   OH2 2951   2.066   0.857   0.980 -0.0707  1.1305 -0.4056
  996TIP3    H1 2952   2.016   0.902   0.911  1.2387  0.9129 -1.5493
  996TIP3    H2 2953   2.030   0.890   1.062 -1.0040  2.1608 -1.2042
  997TIP3   OH2 2954   2.741   2.503   2.406  0.1846 -0.1602 -0.0700
  997TIP3    H1 2955   2.710   2.414   2.425  0.3444 -0.3908 -0.8669
  997TIP3    H2 2956   2.661   2.552   2.386  0.2815 -0.7920 -2.2803
  998TIP3   OH2 2957   1.017   4.154   2.665  0.4576  0.5073  0.1200
  998TIP3    H1 2958   1.074   4.193   2.600  0.3995  0.3716 -0.0125
  998TIP3    H2 2959   0.951   4.107   2.614  1.7159 -1.5272  0.2582
  999TIP3   OH2 2960   4.814   0.862   3.318 -0.2340  0.2030 -0.2657
  999TIP3    H1 2961   4.751   0.867   3.391  0.0297  0.9944 -0.0834
  999TIP3    H2 2962   4.762   0.829   3.244  0.0644 -3.3420  0.8995
 1000TIP3   OH2 2963   5.069   1.924   2.502 -0.5371 -0.2873 -0.0505
 1000TIP3    H1 2964   5.014   1.847   2.519 -0.9362  0.2117  0.9907
 1000TIP3    H2 2965   5.006   1.994   2.483 -0.1927 -0.0642 -0.3791
 1001TIP3   OH2 2966   2.617   5.978   2.509 -0.0033 -0.2215  0.0867
 1001TIP3    H1 2967   2.660   5.893   2.513 -0.1740 -0.2943  0.4028
 1001TIP3    H2 2968   2.538   5.963   2.458  1.2193  0.2967 -2.0669
 1002TIP3   OH2 2969   5.397   5.963   3.780  0.5356  0.1290  0.0167
 1002TIP3    H1 2970   5.322   6.016   3.754 -0.3250 -1.5128 -1.0449
 1002TIP3    H2 2971   5.377   5.933   3.868 -0.2568 -0.5808 -0.3897
 1003TIP3   OH2 2972   4.985   1.354   1.338 -0.1437 -0.0261  0.2180
 1003TIP3    H1 2973   4.895   1.367   1.368  0.1796 -1.3092  1.8715
 1003TIP3    H2 2974   5.008   1.436   1.294 -2.0362  0.3963 -0.0631
 1004TIP3   OH2 2975   6.077   4.457   2.243 -0.3248 -0.3013 -0.2692
 1004TIP3    H1 2976   6.095   4.512   2.320 -0.1116  2.0439 -1.8990
 1004TIP3    H2 2977   6.038   4.517   2.180 -0.3251 -2.1267 -2.0877
 1005TIP3   OH2 2978   6.543   3.589   5.462  0.1842 -0.1679 -0.3573
 1005TIP3    H1 2979   6.546   3.493   5.459  1.9682 -0.1464 -1.9309
 1005TIP3    H2 2980   6.616   3.616   5.405 -2.0615  2.1341 -2.3671
 1006TIP3   OH2 2981   2.607   0.581   5.044  0.4076  0.2252 -0.5902
 1006TIP3    H1 2982   2.576   0.580   5.135 -0.4712  2.4349 -0.7976
 1006TIP3    H2 2983   2.639   0.492   5.029 -1.3016 -0.8044  1.2419
 1007TIP3   OH2 2984   6.652   4.589   2.230 -0.8382 -0.4690 -0.4613
 1007TIP3    H1 2985   6.718   4.614   2.166 -0.5586  1.9186  0.6348
 1007TIP3    H2 2986   6.680   4.504   2.262  0.7899 -0.2495 -1.2102
 1008TIP3   OH2 2987   4.142   4.299   0.712  0.1693 -0.0300 -0.6396
 1008TIP3    H1 2988   4.079   4.248   0.662  0.4073 -1.7603  0.7101
 1008TIP3    H2 2989   4.217   4.241   0.721  2.0481  1.9615 -2.2081
 1009TIP3   OH2 2990   4.726   1.501   5.117  0.3069 -0.4219 -0.4148
 1009TIP3    H1 2991   4.763   1.461   5.196 -1.0005 -2.4308 -0.7410
 1009TIP3    H2 2992   4.640   1.532   5.144  0.4842  0.3261 -0.6862
 1010TIP3   OH2 2993   5.144   4.812   0.403  0.5158  0.6058 -0.0566
 1010TIP3    H1 2994   5.098   4.851   0.478  0.0116  0.1541 -0.1235
 1010TIP3    H2 2995   5.201   4.746   0.441  0.1565  0.2800 -0.0801
 1011TIP3   OH2 2996   2.251   1.614   0.363 -0.5756  0.6318 -0.1468
 1011TIP3    H1 2997   2.156   1.619   0.362 -0.6565 -0.4577 -0.8700
 1011TIP3    H2 2998   2.271   1.538   0.308  0.7263  1.0717 -0.3254
 1012TIP3   OH2 2999   1.229   3.070   5.599  0.6102  0.5398  0.0467
 1012TIP3    H1 3000   1.208   3.147   5.546 -1.3909  0.7616  1.0951
 1012TIP3    H2 3001   1.147   3.020   5.604  1.0800 -0.1394  1.8395
 1013TIP3   OH2 3002   4.446   3.982   4.438  0.7233  0.3187 -0.1513
 1013TIP3    H1 3003   4.466   4.043   4.510 -0.3640  1.6818 -0.9597
 1013TIP3    H2 3004   4.528   3.933   4.425  1.3447  0.9567  1.1216
 1014TIP3   OH2 3005   3.552   3.917   2.103 -0.3222  0.1722 -0.3788
 1014TIP3    H1 3006   3.459   3.918   2.124 -0.2503  1.4902 -0.0488
 1014TIP3    H2 3007   3.556   3.932   2.008 -0.4512 -0.0933 -0.4257
 1015TIP3   OH2 3008   0.846   1.285   4.752 -0.4728  0.2215 -0.0428
 1015TIP3    H1 3009   0.780   1.237   4.803  1.1048 -0.5652  1.3592
 1015TIP3    H2 3010   0.859   1.366   4.801  0.2665 -0.0518  0.2288
 1016TIP3   OH2 3011   0.968   2.010   0.811 -0.5404 -0.2259 -0.2879
 1016TIP3    H1 3012   1.020   1.994   0.732  2.3730  1.5681  1.0834
 1016TIP3    H2 3013   0.964   1.925   0.854  0.8876 -0.5533 -0.7250
 1017TIP3   OH2 3014   2.982   2.808   2.278 -0.4960  0.0066  0.1038
 1017TIP3    H1 3015   2.894   2.819   2.240 -0.7220 -0.5270  0.4528
 1017TIP3    H2 3016   2.982   2.718   2.311  0.2437 -0.0518 -0.0430
 1018TIP3   OH2 3017   5.997   4.913   0.717 -0.1139  0.0704  0.2368
 1018TIP3    H1 3018   6.075   4.913   0.661 -0.3807  1.4857 -0.1733
 1018TIP3    H2 3019   5.993   5.002   0.752 -0.4996 -0.5206  1.7644
 1019TIP3   OH2 3020   5.314   3.011   4.560  0.0839 -0.1438 -0.1321
 1019TIP3    H1 3021   5.393   3.063   4.575 -0.0119  0.2753 -1.0006
 1019TIP3    H2 3022   5.346   2.921   4.550  0.1412 -0.5252  2.6258
 1020TIP3   OH2 3023   7.119   6.087   1.180  0.3041 -0.0802 -0.2931
 1020TIP3    H1 3024   7.133   6.039   1.098  0.6714  0.3989 -0.5149
 1020TIP3    H2 3025   7.177   6.162   1.174  0.5558 -0.1991  0.5483
 1021TIP3   OH2 3026   3.924   1.361   0.737 -0.2792 -0.4287  0.3879
 1021TIP3    H1 3027   3.933   1.266   0.736  1.3362 -0.2938 -0.3155
 1021TIP3    H2 3028   3.927   1.386   0.645 -1.8545  0.2473  0.4783
 1022TIP3   OH2 3029   0.401   1.090   1.094  0.5226  0.3294  0.3863
 1022TIP3    H1 3030   0.326   1.101   1.152 -0.7905 -4.2825 -0.0508
 1022TIP3    H2 3031   0.363   1.081   1.006  1.6318 -0.9520 -0.0005
 1023TIP3   OH2 3032   0.718   4.101   3.973  0.1192 -0.1666 -0.2903
 1023TIP3    H1 3033   0.664   4.153   4.032  1.5130  0.6859  0.2933
 1023TIP3    H2 3034   0.789   4.069   4.029  0.6218 -0.6354 -1.1828
 1024TIP3   OH2 3035   0.636   5.921   0.429  0.0307 -0.2225 -0.0207
 1024TIP3    H1 3036   0.648   6.010   0.396 -2.0324  0.2110  0.2738
 1024TIP3    H2 3037   0.571   5.883   0.370 -0.6247 -0.8348  1.0781
 1025TIP3   OH2 3038   6.777   2.968   5.176  0.6945  0.3303 -0.4628
 1025TIP3    H1 3039   6.870   2.979   5.195  0.9140 -1.5726 -0.2244
 1025TIP3    H2 3040   6.769   2.987   5.083  1.4289 -0.0187 -0.6061
 1026TIP3   OH2 3041   5.868   3.009   1.227  0.2099  0.5137 -0.1372
 1026TIP3    H1 3042   5.783   2.995   1.269 -0.1709  1.1570 -0.6584
 1026TIP3    H2 3043   5.932   2.970   1.287 -0.3675  0.8862  0.7396
 1027TIP3   OH2 3044   2.036   3.471   1.195 -0.6625 -0.1473 -0.0530
 1027TIP3    H1 3045   2.053   3.514   1.278 -1.6580  0.6269 -0.2276
 1027TIP3    H2 3046   2.113   3.416   1.180  0.5147  1.3405  0.3136
 1028TIP3   OH2 3047   0.885   4.770   1.698 -0.3966  0.5598 -0.7229
 1028TIP3    H1 3048   0.790   4.780   1.686 -0.6459  0.5708  1.0944
 1028TIP3    H2 3049   0.896   4.678   1.724  0.0965  0.5782 -0.8569
 1029TIP3   OH2 3050   6.324   0.747   3.531  0.5024  0.7128 -0.7109
 1029TIP3    H1 3051   6.229   0.757   3.527  0.2700  0.1137  1.8007
 1029TIP3    H2 3052   6.354   0.821   3.583  1.1539 -0.2010  0.2472
 1030TIP3   OH2 3053   0.644   1.953   3.744 -0.2938  0.3561 -0.8658
 1030TIP3    H1 3054   0.684   1.871   3.715  1.6944  0.6011  0.9644
 1030TIP3    H2 3055   0.606   1.933   3.829  0.2018  1.3265 -0.4032
 1031TIP3   OH2 3056   3.156   0.624   2.074 -0.4992  0.1157 -0.2284
 1031TIP3    H1 3057   3.251   0.623   2.075 -0.4727 -0.7092 -1.2934
 1031TIP3    H2 3058   3.132   0.612   1.982 -1.6123 -1.0706  0.1673
 1032TIP3   OH2 3059   4.359   1.843   0.124 -0.0657 -0.0690  0.8179
 1032TIP3    H1 3060   4.444   1.879   0.096 -0.2132  0.2063  0.7226
 1032TIP3    H2 3061   4.297   1.915   0.111 -0.7063 -0.9024 -1.1233
 1033TIP3   OH2 3062   6.744   4.606   3.141  0.1232 -0.2217 -0.0433
 1033TIP3    H1 3063   6.780   4.663   3.074 -0.4754  2.5285  1.8110
 1033TIP3    H2 3064   6.651   4.626   3.143  0.0787 -0.4241  1.3948
 1034TIP3   OH2 3065   5.320   5.347   5.368  0.5708  0.0559 -0.1762
 1034TIP3    H1 3066   5.319   5.357   5.272 -1.9663  0.7979 -0.1453
 1034TIP3    H2 3067   5.240   5.390   5.397  0.7521 -1.0809  2.2155
 1035TIP3   OH2 3068   5.646   0.126   1.353  0.0553 -0.7077 -0.1467
 1035TIP3    H1 3069   5.575   0.125   1.288 -0.5375 -0.9957  0.4894
 1035TIP3    H2 3070   5.724   0.151   1.303 -1.0036  2.7846 -0.3332
 1036TIP3   OH2 3071   4.738   6.008   4.475  0.1071 -0.1601 -0.5539
 1036TIP3    H1 3072   4.693   5.940   4.426  2.1550 -1.4901 -0.7192
 1036TIP3    H2 3073   4.695   6.008   4.561 -3.0962  1.7709 -1.9508
 1037TIP3   OH2 3074   1.968   4.536   1.099 -0.6840  0.1642 -0.6680
 1037TIP3    H1 3075   1.987   4.593   1.173  1.9902 -1.2052 -0.1745
 1037TIP3    H2 3076   1.898   4.581   1.051 -1.2296  1.9748  1.6634
 1038TIP3   OH2 3077   6.050   5.633   0.741 -0.8979 -0.3606 -0.0017
 1038TIP3    H1 3078   6.096   5.572   0.683 -0.4215 -0.4294  0.4440
 1038TIP3    H2 3079   6.003   5.692   0.681  0.9501  0.6476 -0.5338
 1039TIP3   OH2 3080   3.587   4.098   0.291 -0.3925  0.5404  0.2105
 1039TIP3    H1 3081   3.679   4.073   0.289 -0.1602  1.4029 -0.6286
 1039TIP3    H2 3082   3.548   4.047   0.220 -0.7270 -0.3814  1.0358
 1040TIP3   OH2 3083   5.874   2.832   2.312 -0.2234  0.5725  0.3193
 1040TIP3    H1 3084   5.831   2.767   2.367 -0.6475 -0.3978 -1.1003
 1040TIP3    H2 3085   5.819   2.838   2.234  1.8253 -0.2163 -1.2722
 1041TIP3   OH2 3086   1.768   3.733   2.126  0.4522 -0.5714  0.2115
 1041TIP3    H1 3087   1.684   3.768   2.097  1.2070  1.3438  0.2369
 1041TIP3    H2 3088   1.750   3.695   2.212 -0.0393  1.5421  1.0973
 1042TIP3   OH2 3089   2.700   3.989   5.857  0.1310 -0.3970 -0.2107
 1042TIP3    H1 3090   2.675   3.965   5.767 -1.4123  0.4924 -0.0592
 1042TIP3    H2 3091   2.766   3.924   5.882  0.9626 -0.3871 -2.1461
 1043TIP3   OH2 3092   5.650   6.027   3.816 -0.3632 -0.4295 -0.0892
 1043TIP3    H1 3093   5.559   6.016   3.788 -0.5321 -1.8446  0.9252
 1043TIP3    H2 3094   5.695   5.952   3.779  0.5402  0.5330 -1.0159
 1044TIP3   OH2 3095   3.458   5.088   5.281 -0.0261 -0.0622 -0.1611
 1044TIP3    H1 3096   3.519   5.016   5.296  0.0946  0.1841  0.5492
 1044TIP3    H2 3097   3.454   5.135   5.364 -1.4682 -0.2815 -0.0683
 1045TIP3   OH2 3098   1.523   3.039   4.747  0.3665 -0.1050  0.5782
 1045TIP3    H1 3099   1.574   3.068   4.671  0.2017  2.4296  1.3258
 1045TIP3    H2 3100   1.440   3.008   4.710  0.6695  0.1688 -0.3517
 1046TIP3   OH2 3101   0.228   6.416   1.254  0.0118  0.4820  0.3512
 1046TIP3    H1 3102   0.217   6.485   1.319  0.4918 -1.7752  3.0113
 1046TIP3    H2 3103   0.245   6.337   1.305 -0.9016 -1.7341 -2.4787
 1047TIP3   OH2 3104   6.128   1.294   2.825  0.2901  0.1251  0.1110
 1047TIP3    H1 3105   6.193   1.223   2.830  2.6642  2.2259  1.3143
 1047TIP3    H2 3106   6.091   1.286   2.737 -0.3597 -3.1902  0.5468
 1048TIP3   OH2 3107   5.083   5.283   2.313 -0.3943 -0.1197 -0.2040
 1048TIP3    H1 3108   5.172   5.298   2.343 -0.5076  1.3605 -0.5085
 1048TIP3    H2 3109   5.093   5.229   2.234  0.0282 -2.2052  1.2075
 1049TIP3   OH2 3110   6.809   1.251   4.036 -0.2638 -0.1395 -0.1902
 1049TIP3    H1 3111   6.720   1.221   4.057 -0.6451  1.2083  0.1954
 1049TIP3    H2 3112   6.812   1.250   3.940 -0.9419  0.4612 -0.2296
 1050TIP3   OH2 3113   3.488   3.875   1.426 -0.1109  0.1976 -0.6601
 1050TIP3    H1 3114   3.492   3.935   1.351  1.9422 -1.3124 -1.8527
 1050TIP3    H2 3115   3.462   3.791   1.389 -1.2417 -0.1107  0.7170
 1051TIP3   OH2 3116   2.830   5.322   3.532 -0.1607  0.0753  0.3289
 1051TIP3    H1 3117   2.762   5.277   3.583 -0.1514  1.7680  1.9274
 1051TIP3    H2 3118   2.783   5.355   3.455 -0.6051 -0.8356  0.1870
 1052TIP3   OH2 3119   5.938   2.351   2.065 -0.3986  0.1721  0.4155
 1052TIP3    H1 3120   6.032   2.367   2.054 -0.2963 -0.5426  0.2150
 1052TIP3    H2 3121   5.928   2.328   2.157  0.2100 -3.4188 -0.2786
 1053TIP3   OH2 3122   6.711   1.471   5.739  0.0002 -0.4706 -0.0113
 1053TIP3    H1 3123   6.778   1.514   5.792  0.1026 -0.6650  0.0193
 1053TIP3    H2 3124   6.722   1.507   5.651 -1.0518  0.8706  0.3688
 1054TIP3   OH2 3125   5.974   6.588   0.020  0.1178 -0.5246  0.4690
 1054TIP3    H1 3126   6.024   6.593  -0.061 -1.0630 -0.7287 -0.3016
 1054TIP3    H2 3127   5.958   6.679   0.044 -0.1362 -0.4576  0.0664
 1055TIP3   OH2 3128   3.816   6.359   1.371 -0.0441 -0.0255  0.0008
 1055TIP3    H1 3129   3.784   6.278   1.411  1.3065 -1.2939 -1.3711
 1055TIP3    H2 3130   3.844   6.413   1.445 -0.4856 -1.0112  0.9136
 1056TIP3   OH2 3131   6.735   3.608   2.375  0.2371  0.0041 -0.5613
 1056TIP3    H1 3132   6.674   3.611   2.301 -0.7768 -1.0647  0.2102
 1056TIP3    H2 3133   6.761   3.699   2.387 -1.1511  0.4855 -0.9620
 1057TIP3   OH2 3134   4.841   3.302   1.385  0.0111  0.2365 -0.0078
 1057TIP3    H1 3135   4.800   3.386   1.404  0.1222  0.2499  0.1702
 1057TIP3    H2 3136   4.775   3.236   1.407  0.7998  0.1393  2.3330
 1058TIP3   OH2 3137   1.779   5.820   0.461  0.3887  0.2259  0.5494
 1058TIP3    H1 3138   1.751   5.733   0.435  0.8108  0.4494 -0.6991
 1058TIP3    H2 3139   1.835   5.805   0.538  0.7961 -0.6471  0.0948
 1059TIP3   OH2 3140   4.043   4.365   3.373 -0.0749  0.4005  0.0754
 1059TIP3    H1 3141   4.118   4.332   3.324 -0.6319  1.9557 -1.9289
 1059TIP3    H2 3142   4.081   4.428   3.435  0.2072  2.6077 -2.1996
 1060TIP3   OH2 3143   6.014   6.348   5.283 -0.0047  0.3783  0.9281
 1060TIP3    H1 3144   6.022   6.378   5.373 -0.4423  0.8499  0.8140
 1060TIP3    H2 3145   6.100   6.363   5.245  0.5458 -0.9124  1.5807
 1061TIP3   OH2 3146   1.455   4.543   3.965 -0.2273 -0.0903  0.3468
 1061TIP3    H1 3147   1.460   4.504   4.052 -1.0314 -1.0717 -0.0343
 1061TIP3    H2 3148   1.381   4.603   3.970 -0.1380  0.0166  0.3978
 1062TIP3   OH2 3149   4.891   3.194   5.255 -0.1254 -0.5961  0.2167
 1062TIP3    H1 3150   4.897   3.237   5.170  0.3630  0.5984  0.8280
 1062TIP3    H2 3151   4.894   3.100   5.235 -2.7335 -0.4640 -1.2983
 1063TIP3   OH2 3152   1.567   6.480   5.292 -0.2192 -0.5875 -0.0336
 1063TIP3    H1 3153   1.500   6.511   5.232 -1.9301 -1.8752  1.1156
 1063TIP3    H2 3154   1.600   6.558   5.336  0.4743  0.2739 -2.0108
 1064TIP3   OH2 3155   5.877   1.934   4.282 -0.5072 -0.8481 -0.4482
 1064TIP3    H1 3156   5.875   1.900   4.371 -3.5252  1.3653  0.5005
 1064TIP3    H2 3157   5.867   2.029   4.292 -0.7692 -0.5135 -3.1409
 1065TIP3   OH2 3158   6.399   1.870   3.233  0.0270  0.0493  0.1596
 1065TIP3    H1 3159   6.490   1.864   3.260 -0.5048  1.7749  2.6443
 1065TIP3    H2 3160   6.401   1.855   3.138  2.8067 -0.2967  0.1938
 1066TIP3   OH2 3161   6.299   0.745   1.290  0.7274 -0.2100 -0.1386
 1066TIP3    H1 3162   6.337   0.812   1.346  1.9446 -0.2986 -0.8346
 1066TIP3    H2 3163   6.327   0.769   1.202  1.7546 -2.0080 -0.3274
 1067TIP3   OH2 3164   5.491   4.943   2.636  0.1776  0.5181 -0.0686
 1067TIP3    H1 3165   5.519   4.871   2.692  1.8295  0.1772 -1.2414
 1067TIP3    H2 3166   5.448   5.005   2.695 -2.0214 -1.7263  0.8566
 1068TIP3   OH2 3167   4.401   5.942   0.283 -0.0969  0.1606 -0.9010
 1068TIP3    H1 3168   4.405   5.988   0.367  0.9516  0.5809 -1.1609
 1068TIP3    H2 3169   4.331   5.878   0.294  0.8158 -0.6278  0.7098
 1069TIP3   OH2 3170   2.452   2.386   2.519 -0.1613  0.0020 -0.4508
 1069TIP3    H1 3171   2.393   2.460   2.513  0.8612  0.7114 -2.4099
 1069TIP3    H2 3172   2.427   2.328   2.447 -0.3561 -1.1522  0.5017
 1070TIP3   OH2 3173   6.971   1.983   0.964  0.3568  0.3140 -0.5698
 1070TIP3    H1 3174   6.906   2.033   0.915  0.7936  1.6880  0.2065
 1070TIP3    H2 3175   7.044   1.973   0.903 -0.0290 -0.0364 -0.9790
 1071TIP3   OH2 3176   2.186   6.711   0.660 -0.3183  0.6006 -0.2310
 1071TIP3    H1 3177   2.117   6.756   0.707  0.2195  2.6106 -1.2729
 1071TIP3    H2 3178   2.208   6.769   0.587  1.3516 -0.7337 -0.8629
 1072TIP3   OH2 3179   4.866   0.298   5.338  0.1404 -0.2385  0.7321
 1072TIP3    H1 3180   4.903   0.218   5.375 -0.4955 -0.8611  0.0475
 1072TIP3    H2 3181   4.800   0.326   5.401  1.0621  0.3169  1.4645
 1073TIP3   OH2 3182   5.568   3.060   2.900 -0.4500 -0.5023 -0.4676
 1073TIP3    H1 3183   5.505   3.021   2.839 -0.5120 -1.2301  0.0519
 1073TIP3    H2 3184   5.533   3.040   2.987  0.7269 -1.3351 -0.1515
 1074TIP3   OH2 3185   1.289   2.755   3.190  0.1064  0.0873 -0.2551
 1074TIP3    H1 3186   1.256   2.815   3.123  1.7248 -1.0618 -2.2070
 1074TIP3    H2 3187   1.273   2.668   3.154  1.5013 -0.5616  0.6064
 1075TIP3   OH2 3188   0.780   2.215   0.801 -0.4305 -0.2529  0.7817
 1075TIP3    H1 3189   0.828   2.137   0.775 -0.9724 -0.2148 -0.4263
 1075TIP3    H2 3190   0.749   2.253   0.718 -1.8901  0.1184  1.4539
 1076TIP3   OH2 3191   5.216   6.563   3.719  0.0597 -0.6900  0.0859
 1076TIP3    H1 3192   5.219   6.658   3.736  2.1471 -0.7732  0.3438
 1076TIP3    H2 3193   5.174   6.556   3.633 -0.0767  0.4592  0.0328
 1077TIP3   OH2 3194   2.131   6.174   2.527 -0.5831  0.4096 -0.1894
 1077TIP3    H1 3195   2.091   6.257   2.552  0.6528  0.9873 -0.0502
 1077TIP3    H2 3196   2.219   6.177   2.565 -0.7926 -1.3353  0.5432
 1078TIP3   OH2 3197   0.131   4.507   2.062  0.1338  0.0862  0.4559
 1078TIP3    H1 3198   0.203   4.560   2.027 -1.6801  1.9297 -0.7272
 1078TIP3    H2 3199   0.174   4.441   2.116  2.7076  0.9601 -0.3627
 1079TIP3   OH2 3200   4.972   0.371   4.295 -0.2831  0.3423  0.5946
 1079TIP3    H1 3201   4.968   0.440   4.362  2.1776 -0.9388  2.2244
 1079TIP3    H2 3202   5.050   0.393   4.244 -0.3023 -0.4704  0.2135
 1080TIP3   OH2 3203   2.268   1.365   0.256 -0.2475 -0.3552  0.2305
 1080TIP3    H1 3204   2.211   1.314   0.314 -0.3629  0.1209  0.5517
 1080TIP3    H2 3205   2.254   1.328   0.169 -2.1640  0.6550  0.0442
 1081TIP3   OH2 3206   5.971   5.153   1.406  0.7837  0.0449 -1.3207
 1081TIP3    H1 3207   6.037   5.125   1.342  2.4788 -1.8960  1.0799
 1081TIP3    H2 3208   6.015   5.220   1.457  0.1920  0.1108 -0.8950
 1082TIP3   OH2 3209   3.120   2.375   2.567 -0.7882 -0.5199 -0.3051
 1082TIP3    H1 3210   3.216   2.367   2.560 -0.6416  0.7553 -0.1041
 1082TIP3    H2 3211   3.089   2.371   2.477 -0.5006 -0.4876 -0.4092
 1083TIP3   OH2 3212   4.572   5.558   2.520 -0.4619 -0.1096 -0.0976
 1083TIP3    H1 3213   4.552   5.510   2.440 -0.0457 -0.7696  0.1823
 1083TIP3    H2 3214   4.629   5.629   2.492  0.0729 -0.6234 -0.3313
 1084TIP3   OH2 3215   6.632   6.553   1.313  0.0898 -0.1586 -0.4961
 1084TIP3    H1 3216   6.727   6.550   1.326 -0.1229  0.6825  1.6645
 1084TIP3    H2 3217   6.604   6.462   1.312  0.6702 -0.4048  1.4627
 1085TIP3   OH2 3218   5.060   0.258   2.000 -0.8228  0.0674  0.3400
 1085TIP3    H1 3219   5.125   0.323   2.027 -0.1418  0.3913 -1.9136
 1085TIP3    H2 3220   5.054   0.268   1.905 -2.8333 -1.2234  0.2812
 1086TIP3   OH2 3221   6.721   1.007   1.953 -0.2926 -0.4209 -0.2503
 1086TIP3    H1 3222   6.701   1.100   1.952  2.2292  0.2011  0.4222
 1086TIP3    H2 3223   6.644   0.965   1.913 -1.8946  1.8163  0.2951
 1087TIP3   OH2 3224   4.984   4.836   5.364 -0.0146 -0.1440  0.2804
 1087TIP3    H1 3225   5.009   4.879   5.282  0.3638 -0.8088  0.0381
 1087TIP3    H2 3226   4.979   4.908   5.427 -1.0568  0.4889 -0.4785
 1088TIP3   OH2 3227   5.755   2.071   0.571  0.1125 -0.1785 -0.0934
 1088TIP3    H1 3228   5.831   2.060   0.628 -0.7465 -1.4148  0.8829
 1088TIP3    H2 3229   5.747   1.987   0.525 -1.1657 -0.4365  0.5217
 1089TIP3   OH2 3230   4.653   6.271   3.264  0.3226  0.1994  0.8873
 1089TIP3    H1 3231   4.625   6.300   3.177  0.2278 -1.0631  0.4690
 1089TIP3    H2 3232   4.634   6.345   3.322  1.1796  1.3815 -0.2944
 1090TIP3   OH2 3233   3.897   3.651   5.389 -0.2923 -0.0926 -0.0607
 1090TIP3    H1 3234   3.920   3.588   5.321  1.1672  0.4340 -0.0884
 1090TIP3    H2 3235   3.981   3.685   5.420 -1.0241  2.0730 -0.2751
 1091TIP3   OH2 3236   1.442   2.533   5.641  0.3108  0.4423 -0.5131
 1091TIP3    H1 3237   1.357   2.575   5.633 -0.4101 -1.0791 -1.2717
 1091TIP3    H2 3238   1.498   2.579   5.578  0.4551  2.2782  0.8746
 1092TIP3   OH2 3239   1.854   1.769   2.340  0.6614  0.3246  0.5641
 1092TIP3    H1 3240   1.920   1.728   2.284 -1.1253 -0.5169 -1.0585
 1092TIP3    H2 3241   1.847   1.859   2.307  0.9010  0.3739  0.6473
 1093TIP3   OH2 3242   1.951   6.208   2.077  0.5384 -0.2624 -0.0028
 1093TIP3    H1 3243   1.890   6.158   2.023 -1.9618  1.6248  0.8618
 1093TIP3    H2 3244   1.946   6.166   2.163 -0.3133  0.4350  0.3046
 1094TIP3   OH2 3245   0.492   6.663   4.322  0.1525 -0.1998  0.0009
 1094TIP3    H1 3246   0.492   6.625   4.234  1.8502 -2.0623  0.7207
 1094TIP3    H2 3247   0.474   6.589   4.380  0.4419  0.7199  1.3113
 1095TIP3   OH2 3248   3.011   5.329   2.288 -0.5316  0.2819  0.3533
 1095TIP3    H1 3249   2.936   5.277   2.315 -0.8043  0.2327 -0.4864
 1095TIP3    H2 3250   3.052   5.279   2.217 -0.1566  0.6812  0.2805
 1096TIP3   OH2 3251   6.347   1.704   5.510 -0.1502 -0.4375 -0.5176
 1096TIP3    H1 3252   6.343   1.610   5.490  0.0080 -0.3740 -0.8675
 1096TIP3    H2 3253   6.336   1.709   5.605 -1.3385 -0.7265 -0.6254
 1097TIP3   OH2 3254   6.096   3.290   4.717 -0.4101  0.2173 -0.5751
 1097TIP3    H1 3255   6.128   3.201   4.733 -0.7190 -0.1790 -2.0004
 1097TIP3    H2 3256   6.173   3.337   4.683 -0.2641  0.4889  0.1146
 1098TIP3   OH2 3257   6.816   2.824   4.869  0.3342  0.0801 -0.6903
 1098TIP3    H1 3258   6.884   2.774   4.914  0.3183  1.5481  1.1060
 1098TIP3    H2 3259   6.857   2.909   4.851 -0.6865  0.6348 -0.4834
 1099TIP3   OH2 3260   3.024   0.131   0.632 -0.6308  0.2394 -0.0105
 1099TIP3    H1 3261   2.988   0.197   0.691  2.9816 -0.5949  3.5656
 1099TIP3    H2 3262   3.072   0.180   0.566 -0.6985  1.2272  0.6600
 1100TIP3   OH2 3263   0.842   1.818   2.825 -0.0595 -0.0149  0.1492
 1100TIP3    H1 3264   0.888   1.773   2.754  1.6592 -1.3643  2.0117
 1100TIP3    H2 3265   0.889   1.900   2.835 -1.1371  0.7914 -1.0823
 1101TIP3   OH2 3266   3.234   2.261   0.064  0.1924 -0.1296 -0.5470
 1101TIP3    H1 3267   3.225   2.314  -0.015 -1.1864 -1.3023 -1.2275
 1101TIP3    H2 3268   3.244   2.171   0.032 -5.3188 -1.4452  0.3708
 1102TIP3   OH2 3269   3.990   4.192   3.809 -0.3848  0.4404  0.1839
 1102TIP3    H1 3270   4.086   4.196   3.811 -0.3700  0.3732  2.3746
 1102TIP3    H2 3271   3.969   4.160   3.722  1.5183  1.6839 -0.7943
 1103TIP3   OH2 3272   3.725   0.244   1.182  0.3139 -0.0002  0.0437
 1103TIP3    H1 3273   3.784   0.293   1.239  1.0035  1.4619 -1.8312
 1103TIP3    H2 3274   3.781   0.179   1.140  0.1155 -0.0955 -0.0739
 1104TIP3   OH2 3275   1.905   5.526   1.020 -0.2819 -0.6912 -0.0790
 1104TIP3    H1 3276   1.898   5.433   0.995 -4.5263 -0.3295 -1.0401
 1104TIP3    H2 3277   1.902   5.525   1.115  0.0206 -1.5329 -0.0636
 1105TIP3   OH2 3278   3.265   1.015   1.479  0.5198 -0.7700  0.4856
 1105TIP3    H1 3279   3.352   1.055   1.478  0.4567 -0.5750 -1.6222
 1105TIP3    H2 3280   3.259   0.968   1.396 -1.1677 -1.3161  0.8662
 1106TIP3   OH2 3281   5.074   4.335   4.060 -0.3972  0.2892  0.4494
 1106TIP3    H1 3282   5.103   4.281   3.986  0.5400 -1.1892  1.8505
 1106TIP3    H2 3283   4.979   4.340   4.049 -0.5019 -1.5619  0.1995
 1107TIP3   OH2 3284   2.356   3.442   0.187  0.0364  0.0994 -0.1004
 1107TIP3    H1 3285   2.278   3.494   0.205  0.3425  0.1863  1.1243
 1107TIP3    H2 3286   2.425   3.486   0.236  1.3898  1.3470 -2.9187
 1108TIP3   OH2 3287   4.487   5.505   5.592 -0.3495 -0.4154 -0.2917
 1108TIP3    H1 3288   4.571   5.472   5.561 -1.0178 -0.6269 -1.9973
 1108TIP3    H2 3289   4.504   5.595   5.618  0.5879 -0.7460  0.3161
 1109TIP3   OH2 3290   6.251   3.226   4.240  0.6146 -0.1390  0.0094
 1109TIP3    H1 3291   6.254   3.210   4.146 -0.7512  1.4061 -0.3499
 1109TIP3    H2 3292   6.201   3.153   4.275 -1.6350  0.8289 -0.9621
 1110TIP3   OH2 3293   7.017   2.700   3.414 -0.4706  0.0649 -0.1189
 1110TIP3    H1 3294   6.946   2.641   3.387 -0.8190 -0.6310  2.1128
 1110TIP3    H2 3295   7.095   2.645   3.412 -0.4812  0.0375  0.1576
 1111TIP3   OH2 3296   5.822   2.117   4.836  0.3021 -0.2198  0.2523
 1111TIP3    H1 3297   5.860   2.172   4.767 -0.4153  1.5748  1.2247
 1111TIP3    H2 3298   5.788   2.041   4.789  1.1999  0.2014 -1.1738
 1112TIP3   OH2 3299   5.879   4.314   5.496 -0.3686 -0.7596 -0.2316
 1112TIP3    H1 3300   5.908   4.223   5.496  0.3048 -0.5524 -0.1621
 1112TIP3    H2 3301   5.789   4.311   5.465 -1.4144 -1.7795  2.5305
 1113TIP3   OH2 3302   0.036   0.692   1.173  0.5304  0.0824  0.2556
 1113TIP3    H1 3303  -0.056   0.686   1.146  0.3920  0.5246  0.6059
 1113TIP3    H2 3304   0.086   0.677   1.092  0.1696 -0.9017  0.2062
 1114TIP3   OH2 3305   3.089   4.565   5.288 -0.7017  0.2847 -0.1428
 1114TIP3    H1 3306   3.056   4.653   5.272 -0.7151  0.3285  0.1198
 1114TIP3    H2 3307   3.059   4.514   5.213 -1.6375  0.2488  0.2462
 1115TIP3   OH2 3308   5.486   2.693   2.318  0.1767 -0.0697 -0.0421
 1115TIP3    H1 3309   5.561   2.636   2.299  1.0848  0.9599  0.3539
 1115TIP3    H2 3310   5.496   2.767   2.258 -0.9596 -0.2746 -0.5151
 1116TIP3   OH2 3311   3.116   3.930   3.768 -0.0602  0.2504 -0.0265
 1116TIP3    H1 3312   3.071   3.974   3.840  0.4881  0.1876  0.3656
 1116TIP3    H2 3313   3.054   3.865   3.736  0.6633 -1.7178  2.2654
 1117TIP3   OH2 3314   2.906   1.286   0.139 -0.0375  0.1018  0.1600
 1117TIP3    H1 3315   2.944   1.203   0.168 -2.0137 -0.8608  0.1839
 1117TIP3    H2 3316   2.880   1.270   0.048 -1.4880  0.2682  0.5182
 1118TIP3   OH2 3317   2.907   5.789   0.654  0.6032  0.2880 -0.3248
 1118TIP3    H1 3318   2.946   5.714   0.700  0.4996 -0.0525 -0.7804
 1118TIP3    H2 3319   2.825   5.755   0.618  0.5600  0.6158 -0.5413
 1119TIP3   OH2 3320   5.578   3.199   5.196 -0.1909  0.5460 -0.1479
 1119TIP3    H1 3321   5.503   3.159   5.151 -1.0671  1.9273  0.0183
 1119TIP3    H2 3322   5.566   3.293   5.183  0.6002  0.8765  1.3100
 1120TIP3   OH2 3323   3.247   4.919   3.441 -0.2303  0.2187 -0.4694
 1120TIP3    H1 3324   3.208   5.001   3.471 -1.8247 -0.6850  0.0610
 1120TIP3    H2 3325   3.222   4.912   3.349  1.2194  1.0437 -0.9485
 1121TIP3   OH2 3326   0.406   0.179   4.884 -0.2356  0.0450  0.2456
 1121TIP3    H1 3327   0.396   0.084   4.880 -1.3774  0.0585  1.6260
 1121TIP3    H2 3328   0.492   0.193   4.923 -0.5395 -0.4799  1.1442
 1122TIP3   OH2 3329   0.344   0.271   5.265  0.2737 -0.2941 -0.1543
 1122TIP3    H1 3330   0.278   0.213   5.227 -0.2154  0.3529 -0.2999
 1122TIP3    H2 3331   0.424   0.219   5.264  0.5041 -0.0337 -2.8970
 1123TIP3   OH2 3332   4.861   0.862   4.862  0.0484  0.2192  0.4018
 1123TIP3    H1 3333   4.788   0.807   4.834 -1.5783  1.3199  2.2172
 1123TIP3    H2 3334   4.855   0.863   4.958  1.1858  2.0157  0.5107
 1124TIP3   OH2 3335   1.193   5.676   1.189 -0.3950  0.1833  0.1688
 1124TIP3    H1 3336   1.288   5.679   1.185 -0.4421  1.0065 -2.0456
 1124TIP3    H2 3337   1.167   5.647   1.101 -2.1459 -2.5809  1.4651
 1125TIP3   OH2 3338   2.626   3.872   0.795 -0.2506 -0.0875 -0.2422
 1125TIP3    H1 3339   2.693   3.880   0.727  0.8173 -0.7724  0.6817
 1125TIP3    H2 3340   2.601   3.963   0.814 -0.3924  0.1239 -1.3582
 1126TIP3   OH2 3341   4.050   0.161   0.723 -0.5272  0.0677  0.6108
 1126TIP3    H1 3342   3.996   0.208   0.786  0.4818  0.3212  1.3140
 1126TIP3    H2 3343   4.019   0.070   0.728 -1.1007  0.2678  0.7478
 1127TIP3   OH2 3344   6.552   3.217   4.261  0.2878  0.2600 -0.1161
 1127TIP3    H1 3345   6.567   3.150   4.194  0.0446 -0.5617  0.6262
 1127TIP3    H2 3346   6.464   3.249   4.243 -0.7639 -1.6874  1.2301
 1128TIP3   OH2 3347   1.241   6.056   2.798  0.3993 -0.2799  0.2962
 1128TIP3    H1 3348   1.249   6.020   2.887 -1.4149 -0.8579  0.2768
 1128TIP3    H2 3349   1.169   6.118   2.804 -0.4532 -1.0971 -0.9737
 1129TIP3   OH2 3350   1.853   1.055   3.707 -0.8798  0.4455  0.4007
 1129TIP3    H1 3351   1.812   1.028   3.790  0.3586 -2.1474  0.2666
 1129TIP3    H2 3352   1.801   1.011   3.640  0.2388 -0.3707  0.0484
 1130TIP3   OH2 3353   6.126   4.674   2.501  0.2118 -0.2336 -0.3758
 1130TIP3    H1 3354   6.219   4.695   2.491  0.5865 -2.0349 -1.1101
 1130TIP3    H2 3355   6.083   4.758   2.514  1.9504  0.6299  0.0495
 1131TIP3   OH2 3356   7.133   2.214   0.129 -0.3020 -0.2826  0.0865
 1131TIP3    H1 3357   7.069   2.178   0.067  0.2901 -0.7849 -0.2429
 1131TIP3    H2 3358   7.196   2.262   0.074  0.1115 -0.5561  0.3170
 1132TIP3   OH2 3359   6.404   1.381   3.809  0.5707 -0.4664  0.3919
 1132TIP3    H1 3360   6.330   1.332   3.845 -0.2372  1.4636  1.5188
 1132TIP3    H2 3361   6.428   1.442   3.878 -0.7491  3.1168 -2.0415
 1133TIP3   OH2 3362   5.333   5.658   5.476  0.1156 -0.1589  0.6492
 1133TIP3    H1 3363   5.417   5.626   5.443 -0.1371 -0.3482  0.1807
 1133TIP3    H2 3364   5.326   5.747   5.440  0.0496 -0.1940  0.5766
 1134TIP3   OH2 3365   3.389   2.204   2.969  0.0975 -0.5038 -0.0521
 1134TIP3    H1 3366   3.413   2.174   3.056 -1.7231 -2.8113 -0.2346
 1134TIP3    H2 3367   3.305   2.248   2.981 -0.9276 -2.1584 -0.7589
 1135TIP3   OH2 3368   1.216   5.247   2.795 -0.4010  0.0671  0.8621
 1135TIP3    H1 3369   1.264   5.307   2.851 -0.4048  0.5704  0.3359
 1135TIP3    H2 3370   1.283   5.203   2.742 -0.4694  0.3140  0.5679
 1136TIP3   OH2 3371   2.220   1.806   4.701  0.3355 -0.3642  0.7180
 1136TIP3    H1 3372   2.130   1.775   4.696 -0.5854  2.3269 -1.9019
 1136TIP3    H2 3373   2.264   1.762   4.627  0.6769 -0.2413  0.8467
 1137TIP3   OH2 3374   3.608   3.002   3.962  0.4620 -0.2358  0.3138
 1137TIP3    H1 3375   3.589   3.096   3.967  1.4892  0.0155 -0.3015
 1137TIP3    H2 3376   3.701   2.997   3.943  0.4441 -1.3949  0.4591
 1138TIP3   OH2 3377   3.146   0.534   5.864  0.0166  0.4334  0.0833
 1138TIP3    H1 3378   3.135   0.447   5.827 -0.6868  1.6726 -2.8156
 1138TIP3    H2 3379   3.063   0.554   5.906 -0.2184  0.1460 -0.2469
 1139TIP3   OH2 3380   1.467   3.645   4.977 -0.0524  0.3900  0.7469
 1139TIP3    H1 3381   1.378   3.634   4.943 -0.5437  0.5496  1.9439
 1139TIP3    H2 3382   1.465   3.729   5.022  1.1785  1.1990 -0.6003
 1140TIP3   OH2 3383   4.285   2.229   4.486 -0.6626  0.1710 -0.0428
 1140TIP3    H1 3384   4.356   2.239   4.422 -0.6824  1.8935  0.1575
 1140TIP3    H2 3385   4.309   2.151   4.537  0.5102  0.0933 -0.6797
 1141TIP3   OH2 3386   1.422   0.208   4.218  0.6213  0.0610  0.2660
 1141TIP3    H1 3387   1.329   0.230   4.226  0.4856 -0.1241 -0.7104
 1141TIP3    H2 3388   1.467   0.284   4.254  0.0918 -0.1686  1.4691
 1142TIP3   OH2 3389   0.011   2.108   4.920  0.0261 -0.6407  0.0806
 1142TIP3    H1 3390   0.075   2.052   4.876  1.0017  0.9470 -0.6114
 1142TIP3    H2 3391   0.063   2.172   4.967 -1.0249  0.8748 -0.7324
 1143TIP3   OH2 3392   2.124   1.681   3.298 -0.4671 -0.7304  0.0029
 1143TIP3    H1 3393   2.104   1.756   3.242 -1.8321 -0.7823  0.3702
 1143TIP3    H2 3394   2.202   1.641   3.259  2.0076  2.3863  1.3406
 1144TIP3   OH2 3395   2.018   5.572   5.156 -0.3970 -0.1473 -0.1241
 1144TIP3    H1 3396   1.992   5.487   5.120  1.3456  0.0091 -1.9211
 1144TIP3    H2 3397   2.091   5.552   5.215 -2.5051 -0.2657  2.6411
 1145TIP3   OH2 3398   4.589   5.530   2.923 -0.3180  0.6515 -1.5410
 1145TIP3    H1 3399   4.667   5.555   2.973  1.4237  0.5198 -4.0228
 1145TIP3    H2 3400   4.516   5.570   2.971  1.0747 -0.1485  1.5161
 1146TIP3   OH2 3401   4.555   6.332   2.913 -0.0322 -0.3437 -0.2987
 1146TIP3    H1 3402   4.607   6.404   2.875  1.0704  0.1696  1.9763
 1146TIP3    H2 3403   4.582   6.255   2.865 -0.1158  0.5300 -1.7993
 1147TIP3   OH2 3404   3.347   5.329   3.124  0.1169 -0.8088 -0.5370
 1147TIP3    H1 3405   3.390   5.404   3.082  0.1949 -0.0980  0.7553
 1147TIP3    H2 3406   3.378   5.253   3.075  1.7211 -0.1867 -0.5626
 1148TIP3   OH2 3407   4.870   5.897   5.002  0.1025 -0.0757  0.7526
 1148TIP3    H1 3408   4.937   5.901   4.934  1.1185 -1.0227  1.6654
 1148TIP3    H2 3409   4.867   5.985   5.038  1.5559 -0.2468  1.3434
 1149TIP3   OH2 3410   5.611   6.513   2.846  0.0383 -0.1051 -0.2454
 1149TIP3    H1 3411   5.563   6.528   2.765  0.0830 -0.3369 -0.3169
 1149TIP3    H2 3412   5.584   6.584   2.904 -0.1100 -0.0259 -0.4110
 1150TIP3   OH2 3413   4.188   4.478   2.145 -0.7285 -1.1107 -0.5189
 1150TIP3    H1 3414   4.102   4.465   2.185 -1.3409  1.1159 -0.9925
 1150TIP3    H2 3415   4.169   4.507   2.056  0.4070  1.7887  0.0877
 1151TIP3   OH2 3416   5.737   1.489   0.034 -0.1911  0.4310  0.1448
 1151TIP3    H1 3417   5.674   1.417   0.036  0.3568 -0.0948 -0.6933
 1151TIP3    H2 3418   5.686   1.564   0.001 -0.2940 -0.0896 -0.9206
 1152TIP3   OH2 3419   5.136   5.180   2.651  0.4442  0.0500 -0.1792
 1152TIP3    H1 3420   5.196   5.142   2.716 -0.7283 -0.4500  0.6510
 1152TIP3    H2 3421   5.066   5.218   2.703 -0.3621 -0.0833 -1.1500
 1153TIP3   OH2 3422   4.331   3.836   1.445 -0.2697  0.1328  0.3442
 1153TIP3    H1 3423   4.382   3.911   1.413  0.8063 -0.0696  1.5383
 1153TIP3    H2 3424   4.369   3.761   1.400 -0.4903  0.1474  0.1310
 1154TIP3   OH2 3425   2.379   6.226   2.853  0.4256  0.1710  0.2015
 1154TIP3    H1 3426   2.396   6.136   2.823 -0.1701 -0.0282  0.4422
 1154TIP3    H2 3427   2.461   6.272   2.838  0.7938 -0.4593  0.2349
 1155TIP3   OH2 3428   6.082   0.437   1.935  0.4453  0.1644 -0.2068
 1155TIP3    H1 3429   6.067   0.346   1.961  0.3179  0.3898  0.5380
 1155TIP3    H2 3430   6.078   0.486   2.017  4.5982  0.3541  0.0966
 1156TIP3   OH2 3431   2.088   3.230   0.839  0.7862 -0.4525  0.2413
 1156TIP3    H1 3432   2.030   3.286   0.890  0.7196  0.2271 -0.5761
 1156TIP3    H2 3433   2.176   3.256   0.865  0.7593  0.1718 -0.2743
 1157TIP3   OH2 3434   3.517   3.950   4.040 -0.8212 -0.2578 -0.3859
 1157TIP3    H1 3435   3.440   4.006   4.030 -0.2599  0.3195 -1.6905
 1157TIP3    H2 3436   3.588   3.998   3.998  1.1846  0.8603  3.7619
 1158TIP3   OH2 3437   4.691   3.925   3.812  0.3450 -0.0591  0.3298
 1158TIP3    H1 3438   4.647   4.006   3.785  0.1432 -0.6695 -1.2397
 1158TIP3    H2 3439   4.726   3.888   3.731 -1.6280 -2.7668  0.5791
 1159TIP3   OH2 3440   0.480   5.788   2.213 -0.1789  0.4940 -0.0395
 1159TIP3    H1 3441   0.470   5.720   2.147 -0.3587 -0.4273  0.9036
 1159TIP3    H2 3442   0.390   5.817   2.231 -0.2558 -0.1768  0.7153
 1160TIP3   OH2 3443   7.092   5.438   0.789 -0.0563  0.7233 -0.1674
 1160TIP3    H1 3444   7.050   5.449   0.875 -1.0567  0.3108 -0.5953
 1160TIP3    H2 3445   7.058   5.510   0.736 -2.9099 -1.4476 -1.5292
 1161TIP3   OH2 3446   5.774   4.831   0.450 -0.2300 -0.3275  0.3560
 1161TIP3    H1 3447   5.740   4.890   0.518 -0.6308 -1.8000  1.5052
 1161TIP3    H2 3448   5.698   4.806   0.399 -0.2497 -0.7179  0.5755
 1162TIP3   OH2 3449   1.653   2.083   1.763 -0.2002 -0.0452  0.0857
 1162TIP3    H1 3450   1.698   2.102   1.681 -2.9124 -0.3880 -1.6120
 1162TIP3    H2 3451   1.629   2.168   1.798  2.8763  0.2439  1.8252
 1163TIP3   OH2 3452   3.501   1.210   3.721  0.0617 -0.1042  0.0362
 1163TIP3    H1 3453   3.586   1.217   3.765  0.5115 -1.8454 -0.4992
 1163TIP3    H2 3454   3.459   1.133   3.761  0.4588 -1.7229 -2.4667
 1164TIP3   OH2 3455   5.012   6.552   1.050 -0.9069  0.2615  0.3567
 1164TIP3    H1 3456   4.927   6.522   1.020 -0.6084 -1.6600  1.3024
 1164TIP3    H2 3457   5.062   6.569   0.970 -1.6660 -0.1064 -0.1983
 1165TIP3   OH2 3458   6.651   2.204   5.557 -0.0433  0.0813 -0.0090
 1165TIP3    H1 3459   6.581   2.244   5.505 -0.2256  0.8888  0.8351
 1165TIP3    H2 3460   6.610   2.184   5.641  0.6352  0.1552  0.3420
 1166TIP3   OH2 3461   2.990   5.832   1.581 -0.2058 -0.1637 -0.2684
 1166TIP3    H1 3462   3.052   5.762   1.557  1.9243  0.2594  3.2845
 1166TIP3    H2 3463   2.912   5.785   1.610  0.0277 -0.9044 -0.7813
 1167TIP3   OH2 3464   7.156   4.181   4.282 -0.1421  0.1777 -0.0363
 1167TIP3    H1 3465   7.193   4.098   4.253  0.2117  1.0609 -2.2803
 1167TIP3    H2 3466   7.064   4.176   4.258 -0.4096 -0.0404  0.9869
 1168TIP3   OH2 3467   3.293   0.167   1.103  0.2782  0.2939  0.4250
 1168TIP3    H1 3468   3.298   0.226   1.027  0.5432 -0.7753 -0.4044
 1168TIP3    H2 3469   3.233   0.098   1.076  1.1580 -0.6416  0.8032
 1169TIP3   OH2 3470   0.850   3.872   1.745  0.3531  0.4604 -0.8817
 1169TIP3    H1 3471   0.845   3.947   1.804  1.9770  1.0210 -1.4153
 1169TIP3    H2 3472   0.871   3.797   1.801  2.3536  1.0708 -0.7469
 1170TIP3   OH2 3473   2.886   6.774   1.618  0.5897  0.2093 -0.2479
 1170TIP3    H1 3474   2.958   6.784   1.680 -0.2537  0.0293  0.7918
 1170TIP3    H2 3475   2.910   6.830   1.543  1.7206  0.2660  0.1454
 1171TIP3   OH2 3476   5.633   4.351   0.424  0.2615 -0.7163 -0.0195
 1171TIP3    H1 3477   5.618   4.269   0.377 -0.8838 -0.7319  0.3608
 1171TIP3    H2 3478   5.553   4.402   0.412  1.3157  0.8079 -1.1186
 1172TIP3   OH2 3479   2.666   6.036   4.663 -0.3039  0.1281  0.0311
 1172TIP3    H1 3480   2.667   6.096   4.589  1.6725  1.8745  1.3539
 1172TIP3    H2 3481   2.627   6.087   4.734 -1.8931 -1.4157  0.3241
 1173TIP3   OH2 3482   4.826   6.369   3.715  0.0276 -0.3594  0.2233
 1173TIP3    H1 3483   4.753   6.411   3.761 -1.5481 -2.0087 -0.6439
 1173TIP3    H2 3484   4.865   6.440   3.663  0.6788  1.1209  2.5510
 1174TIP3   OH2 3485   2.247   5.804   1.575 -0.0222 -0.0080  0.7121
 1174TIP3    H1 3486   2.327   5.757   1.600 -0.9480 -2.2868 -0.3834
 1174TIP3    H2 3487   2.279   5.886   1.537  1.6554  0.2786  2.5962
 1175TIP3   OH2 3488   6.041   3.147   3.202 -0.5297  0.2101  0.1259
 1175TIP3    H1 3489   6.066   3.239   3.195 -0.3030  0.1572  0.2130
 1175TIP3    H2 3490   5.996   3.140   3.286  0.4095  0.0318  0.6299
 1176TIP3   OH2 3491   4.135   5.153   0.820 -0.1983 -0.4136 -0.0149
 1176TIP3    H1 3492   4.105   5.155   0.910  2.2486 -2.8189  0.9958
 1176TIP3    H2 3493   4.056   5.138   0.768 -1.4990 -0.0774  1.7859
 1177TIP3   OH2 3494   0.653   5.566   5.200 -0.3022 -0.2783  0.1466
 1177TIP3    H1 3495   0.736   5.555   5.246  0.4880  2.4117 -0.4245
 1177TIP3    H2 3496   0.652   5.497   5.134  1.3438 -0.5522  0.3759
 1178TIP3   OH2 3497   1.992   4.417   0.251  0.0944 -0.3511  0.2515
 1178TIP3    H1 3498   2.059   4.437   0.316 -0.4225  0.0970  0.6600
 1178TIP3    H2 3499   2.017   4.331   0.216  1.9070  0.5982 -0.9463
 1179TIP3   OH2 3500   1.612   1.663   5.613 -0.1451  0.1766 -0.0900
 1179TIP3    H1 3501   1.529   1.663   5.565 -0.3969  0.3209  0.3457
 1179TIP3    H2 3502   1.619   1.575   5.649 -1.0073  0.6720  1.4018
 1180TIP3   OH2 3503   0.479   5.876   5.525 -0.6383  0.4483  0.1325
 1180TIP3    H1 3504   0.428   5.955   5.543 -3.4968 -1.4082  0.7534
 1180TIP3    H2 3505   0.456   5.816   5.595  1.1601 -1.1179 -0.5356
 1181TIP3   OH2 3506   4.480   4.577   4.596 -0.0224 -0.3915 -0.8390
 1181TIP3    H1 3507   4.399   4.567   4.546  0.1389 -1.5632 -0.8864
 1181TIP3    H2 3508   4.546   4.532   4.544  0.1704 -1.5475  0.3505
 1182TIP3   OH2 3509   3.801   2.470   0.063 -0.1092 -0.3542 -0.6139
 1182TIP3    H1 3510   3.887   2.445   0.029 -0.1064 -0.5479 -0.4637
 1182TIP3    H2 3511   3.760   2.517  -0.009  0.7978  1.2943 -0.1147
 1183TIP3   OH2 3512   1.982   5.486   1.791 -0.1575  0.4216  0.2673
 1183TIP3    H1 3513   2.043   5.416   1.813 -1.5388 -0.2668  2.0856
 1183TIP3    H2 3514   2.002   5.507   1.700  1.8332 -0.7244  0.3795
 1184TIP3   OH2 3515   3.343   4.713   2.106  0.1760 -0.3203 -0.0732
 1184TIP3    H1 3516   3.432   4.679   2.097  0.1155 -0.1906 -1.3164
 1184TIP3    H2 3517   3.310   4.719   2.017 -0.7502  0.5345  0.2996
 1185TIP3   OH2 3518   5.574   5.380   0.354  0.3597 -0.0442  0.3087
 1185TIP3    H1 3519   5.482   5.402   0.341  0.5023  0.3540 -0.0680
 1185TIP3    H2 3520   5.574   5.287   0.377 -0.0780 -0.2340 -0.4421
 1186TIP3   OH2 3521   1.361   4.530   2.513  0.3030  0.3304 -0.4389
 1186TIP3    H1 3522   1.310   4.560   2.588  1.6559  1.2867  0.1366
 1186TIP3    H2 3523   1.439   4.489   2.552  1.5731  1.8259 -1.2730
 1187TIP3   OH2 3524   4.862   4.973   2.620  0.5645 -0.7558  0.2476
 1187TIP3    H1 3525   4.876   4.879   2.612  0.4005 -0.7712  0.1328
 1187TIP3    H2 3526   4.912   5.012   2.548  0.8648 -0.7343  0.4687
 1188TIP3   OH2 3527   5.942   4.064   5.525  0.2861 -0.2287  0.2085
 1188TIP3    H1 3528   6.007   4.000   5.554 -0.9825 -1.7619 -0.1937
 1188TIP3    H2 3529   5.929   4.045   5.432  0.0786  0.8205  0.0061
 1189TIP3   OH2 3530   2.333   3.604   1.141  0.1381 -0.1620 -0.4463
 1189TIP3    H1 3531   2.369   3.563   1.062 -0.6336  0.9911 -1.4317
 1189TIP3    H2 3532   2.367   3.694   1.139 -0.2716  0.0155  0.2802
 1190TIP3   OH2 3533   0.283   4.147   0.958 -0.1320 -0.1955 -0.2939
 1190TIP3    H1 3534   0.313   4.210   0.894 -0.6475 -0.5781 -0.9266
 1190TIP3    H2 3535   0.303   4.186   1.043 -0.0577  0.6156 -0.6839
 1191TIP3   OH2 3536   2.853   2.500   5.428 -0.1374  0.8684  0.3291
 1191TIP3    H1 3537   2.832   2.408   5.445 -0.1750  0.7164 -0.5023
 1191TIP3    H2 3538   2.782   2.531   5.372  0.6978  0.9486 -0.7223
 1192TIP3   OH2 3539   3.232   6.678   3.683  0.4599  0.1017 -0.0046
 1192TIP3    H1 3540   3.299   6.742   3.707  0.2926 -0.0228  0.8234
 1192TIP3    H2 3541   3.201   6.643   3.766  1.2203 -1.7512 -0.4506
 1193TIP3   OH2 3542   0.817   1.634   4.771 -0.6415  0.3758  0.2732
 1193TIP3    H1 3543   0.740   1.674   4.733  0.3670  2.4793  0.2912
 1193TIP3    H2 3544   0.888   1.655   4.710 -0.0845 -1.7064  0.1337
 1194TIP3   OH2 3545   3.988   2.200   3.539  0.7613  0.4269 -0.4806
 1194TIP3    H1 3546   3.949   2.275   3.584  0.0071 -0.2688  0.0692
 1194TIP3    H2 3547   4.080   2.223   3.528  1.2426  0.2364  2.3576
 1195TIP3   OH2 3548   0.627   1.323   0.205 -0.0032 -0.1363 -0.1746
 1195TIP3    H1 3549   0.605   1.382   0.277  0.4965  0.0834 -0.1959
 1195TIP3    H2 3550   0.624   1.236   0.243 -0.4623 -0.0774 -0.0710
 1196TIP3   OH2 3551   2.195   0.311   4.633 -0.0568 -0.1934  0.1266
 1196TIP3    H1 3552   2.121   0.326   4.691  0.7388  0.3762  1.0229
 1196TIP3    H2 3553   2.159   0.261   4.559 -1.1504 -0.6351  0.9451
 1197TIP3   OH2 3554   1.335   5.569   3.164  0.1116 -0.6850 -0.0200
 1197TIP3    H1 3555   1.414   5.622   3.175 -0.4632 -0.1092  1.7599
 1197TIP3    H2 3556   1.272   5.608   3.224 -1.5631 -1.1053 -1.4271
 1198TIP3   OH2 3557   5.914   3.785   3.389 -0.0662  0.2602  0.0880
 1198TIP3    H1 3558   5.964   3.703   3.395 -0.9314 -0.1889  1.9029
 1198TIP3    H2 3559   5.968   3.848   3.437  0.4089  0.6683 -0.9666
 1199TIP3   OH2 3560   3.767   4.382   0.542  0.0376  0.0255  0.2752
 1199TIP3    H1 3561   3.723   4.383   0.457  0.4002 -0.1591  0.0816
 1199TIP3    H2 3562   3.787   4.474   0.559  0.0079  0.0573  0.1372
 1200TIP3   OH2 3563   3.455   2.293   0.720  0.4679  0.4162  0.0982
 1200TIP3    H1 3564   3.466   2.226   0.653  1.1761  0.3939  0.2321
 1200TIP3    H2 3565   3.534   2.287   0.773 -0.1571  0.3269  1.0327
 1201TIP3   OH2 3566   3.488   6.513   1.554 -0.0876  0.3246 -0.1857
 1201TIP3    H1 3567   3.461   6.421   1.543 -1.2089  0.6669 -0.4151
 1201TIP3    H2 3568   3.463   6.535   1.643  0.3919  0.3484 -0.0539
 1202TIP3   OH2 3569   2.661   4.033   4.152 -0.1603 -0.0756 -0.0371
 1202TIP3    H1 3570   2.631   4.047   4.062 -0.0899 -0.1025 -0.0649
 1202TIP3    H2 3571   2.586   4.056   4.206 -0.4100 -0.6400 -0.1292
 1203TIP3   OH2 3572   2.184   1.476   1.492  0.0536  0.0531  0.1038
 1203TIP3    H1 3573   2.155   1.527   1.568  1.9231  0.4595  0.6024
 1203TIP3    H2 3574   2.128   1.506   1.421 -1.9463 -0.5484  1.3504
 1204TIP3   OH2 3575   4.859   4.706   2.566 -0.3482 -0.4221  0.5276
 1204TIP3    H1 3576   4.879   4.626   2.614  0.2103 -1.4730 -1.3367
 1204TIP3    H2 3577   4.845   4.676   2.476  1.6077  1.7617 -0.6036
 1205TIP3   OH2 3578   5.392   2.285   4.120 -0.1807 -0.1016  0.3214
 1205TIP3    H1 3579   5.357   2.373   4.131  1.8008  0.7416  0.2518
 1205TIP3    H2 3580   5.354   2.254   4.037 -0.7556  0.7349  0.2622
 1206TIP3   OH2 3581   3.855   0.614   5.315 -0.2876 -0.4111  0.5247
 1206TIP3    H1 3582   3.882   0.568   5.236  0.7014  1.2967 -0.1796
 1206TIP3    H2 3583   3.920   0.683   5.326 -0.6817 -0.3137  2.5753
 1207TIP3   OH2 3584   1.523   1.133   0.594 -1.2858 -0.5489  0.5571
 1207TIP3    H1 3585   1.569   1.066   0.544 -0.1342  1.9946 -2.0655
 1207TIP3    H2 3586   1.453   1.162   0.536 -0.6558  1.6849  0.8391
 1208TIP3   OH2 3587   3.043   3.152   3.263  0.5141  0.2826  0.0038
 1208TIP3    H1 3588   3.010   3.151   3.173  1.6616  1.0251 -0.4606
 1208TIP3    H2 3589   2.969   3.126   3.317 -0.3397  0.3192 -1.1181
 1209TIP3   OH2 3590   2.378   3.877   4.561  0.0110  0.0808 -0.0324
 1209TIP3    H1 3591   2.324   3.813   4.606 -0.1335 -0.2346 -0.6361
 1209TIP3    H2 3592   2.468   3.845   4.571 -0.2142 -1.5822 -2.3494
 1210TIP3   OH2 3593   4.378   4.719   1.940 -0.2194 -0.3494  0.1156
 1210TIP3    H1 3594   4.413   4.772   2.012 -0.9264  1.9478 -1.1374
 1210TIP3    H2 3595   4.442   4.731   1.869 -1.6423  0.9749 -1.0138
 1211TIP3   OH2 3596   5.148   5.167   0.969  1.0836 -0.0855 -0.2782
 1211TIP3    H1 3597   5.101   5.171   1.053  1.2918 -0.9996 -0.1040
 1211TIP3    H2 3598   5.162   5.073   0.955  0.8517  0.0501 -1.4563
 1212TIP3   OH2 3599   4.432   4.309   4.834  0.6242 -0.1785 -0.3524
 1212TIP3    H1 3600   4.363   4.251   4.867  1.3957 -1.1013 -0.3048
 1212TIP3    H2 3601   4.492   4.320   4.909 -0.2196  1.8580  0.0913
 1213TIP3   OH2 3602   2.863   0.129   1.347 -0.0823  0.3347 -0.6905
 1213TIP3    H1 3603   2.892   0.198   1.406  1.0633 -1.0955  0.5050
 1213TIP3    H2 3604   2.926   0.130   1.275  1.6707 -1.2601  0.7499
 1214TIP3   OH2 3605   6.932   2.389   2.458  0.2475 -0.2585 -0.0645
 1214TIP3    H1 3606   6.902   2.399   2.367  1.2988  0.8387 -0.3255
 1214TIP3    H2 3607   6.867   2.333   2.499 -1.6926  1.3641 -0.7975
 1215TIP3   OH2 3608   5.867   5.940   3.158  0.2973 -0.1831  0.0125
 1215TIP3    H1 3609   5.941   5.997   3.179 -0.0694  0.3096 -0.0392
 1215TIP3    H2 3610   5.804   5.996   3.113 -0.4318 -0.4242  0.7067
 1216TIP3   OH2 3611   1.252   3.484   4.690 -0.0704  0.4673 -0.3367
 1216TIP3    H1 3612   1.188   3.420   4.658 -0.0016  0.3879 -0.3176
 1216TIP3    H2 3613   1.315   3.431   4.739 -0.8620  0.7319  1.0207
 1217TIP3   OH2 3614   6.137   1.990   4.339  0.1883 -0.3374 -0.3030
 1217TIP3    H1 3615   6.211   1.968   4.282  0.2023  0.0295 -0.4310
 1217TIP3    H2 3616   6.068   1.930   4.313  0.4720 -0.7478 -0.1193
 1218TIP3   OH2 3617   2.688   6.366   3.875 -0.1208 -0.3153 -0.0572
 1218TIP3    H1 3618   2.659   6.327   3.958 -0.0038 -0.5531 -0.1297
 1218TIP3    H2 3619   2.782   6.380   3.886 -0.5281  2.3161  0.9577
 1219TIP3   OH2 3620   3.691   5.154   3.307  0.6009  0.0883 -0.0529
 1219TIP3    H1 3621   3.771   5.186   3.349 -0.3410  2.2349  0.2649
 1219TIP3    H2 3622   3.689   5.200   3.223 -0.8082  0.8935  0.4018
 1220TIP3   OH2 3623   2.356   2.740   0.307  0.1117 -0.2648 -0.3197
 1220TIP3    H1 3624   2.449   2.730   0.329 -0.1903 -0.8931  0.7416
 1220TIP3    H2 3625   2.325   2.651   0.292 -0.5908 -0.1871  0.5613
 1221TIP3   OH2 3626   6.742   3.560   1.858 -0.3146  0.4211 -0.4526
 1221TIP3    H1 3627   6.652   3.574   1.888 -0.0529  0.7285  0.2210
 1221TIP3    H2 3628   6.773   3.648   1.833  0.4010  0.6517  1.1011
 1222TIP3   OH2 3629   6.183   2.748   2.334  0.0459 -0.0098  0.1783
 1222TIP3    H1 3630   6.148   2.663   2.306  1.5540  0.2112 -2.7124
 1222TIP3    H2 3631   6.255   2.726   2.392 -1.9695 -0.5249  2.6770
 1223TIP3   OH2 3632   3.154   5.222   5.748  0.0137 -0.1045 -0.3675
 1223TIP3    H1 3633   3.217   5.153   5.727  0.8115  0.3122  0.6120
 1223TIP3    H2 3634   3.131   5.207   5.839  2.8439  2.8699  1.0464
 1224TIP3   OH2 3635   3.008   1.151   0.690 -0.5977  0.4524 -0.3290
 1224TIP3    H1 3636   3.064   1.079   0.719 -0.2862  1.0008  0.4681
 1224TIP3    H2 3637   3.069   1.222   0.669 -0.8774  0.3868 -1.4576
 1225TIP3   OH2 3638   3.795   3.844   3.787  0.3277 -0.0331 -0.3015
 1225TIP3    H1 3639   3.819   3.756   3.757 -0.9226 -0.7237  0.6055
 1225TIP3    H2 3640   3.712   3.862   3.743  0.6591  0.7641 -0.6062
 1226TIP3   OH2 3641   5.811   5.415   5.262  0.1852  0.3608  0.2818
 1226TIP3    H1 3642   5.792   5.327   5.228 -0.3105  1.0600 -1.3535
 1226TIP3    H2 3643   5.818   5.403   5.357 -1.2808 -1.2057  0.2454
 1227TIP3   OH2 3644   0.902   1.484   1.619 -0.4648 -0.3446 -0.4263
 1227TIP3    H1 3645   0.854   1.507   1.539 -0.1526 -0.6333 -0.7026
 1227TIP3    H2 3646   0.834   1.473   1.685 -1.0524 -3.0719 -1.3377
 1228TIP3   OH2 3647   2.565   6.788   3.727  0.2583 -0.1330  0.0400
 1228TIP3    H1 3648   2.656   6.810   3.746  0.2253 -1.1926  1.6521
 1228TIP3    H2 3649   2.532   6.749   3.808 -1.4510 -0.3674 -0.7085
 1229TIP3   OH2 3650   4.237   3.824   3.791 -0.3017  0.3492  0.3177
 1229TIP3    H1 3651   4.246   3.891   3.723 -1.5955  0.1224 -0.0908
 1229TIP3    H2 3652   4.284   3.862   3.866 -1.6283  2.0918  0.3432
 1230TIP3   OH2 3653   2.672   5.408   3.335 -0.3075 -0.0270  0.2782
 1230TIP3    H1 3654   2.702   5.499   3.328  2.0810 -0.8339 -0.6281
 1230TIP3    H2 3655   2.590   5.406   3.285 -0.6910  1.7020  0.7558
 1231TIP3   OH2 3656   5.191   2.943   5.038 -0.0725  0.4136 -0.0405
 1231TIP3    H1 3657   5.286   2.942   5.039 -0.0648  0.4552 -0.6169
 1231TIP3    H2 3658   5.167   2.936   4.946 -0.6061  1.5638 -0.0096
 1232TIP3   OH2 3659   5.385   5.829   4.741  0.4464  0.0628  0.1263
 1232TIP3    H1 3660   5.314   5.779   4.700  1.5194 -0.4887 -1.1159
 1232TIP3    H2 3661   5.367   5.920   4.716  0.2406 -0.0897 -0.3003
 1233TIP3   OH2 3662   2.241   2.029   5.843 -0.0079  0.2743 -0.5198
 1233TIP3    H1 3663   2.280   2.029   5.931 -0.2744 -1.1424 -0.3921
 1233TIP3    H2 3664   2.216   2.121   5.829  0.0433  0.5326  0.8748
 1234TIP3   OH2 3665   1.505   3.470   3.125  0.1497  0.0748  1.0477
 1234TIP3    H1 3666   1.557   3.534   3.076 -2.0706 -0.5789 -2.4600
 1234TIP3    H2 3667   1.552   3.387   3.114  0.5274  0.2133  1.5464
 1235TIP3   OH2 3668   1.890   5.550   2.384  0.5753  0.4131  0.8694
 1235TIP3    H1 3669   1.927   5.603   2.314  1.3196 -1.6611 -0.4049
 1235TIP3    H2 3670   1.965   5.527   2.439  0.6237 -0.8314  0.3211
 1236TIP3   OH2 3671   5.752   6.202   2.711  0.3227  0.5462  0.5083
 1236TIP3    H1 3672   5.748   6.293   2.681 -0.2219  0.4733  0.3496
 1236TIP3    H2 3673   5.666   6.185   2.748  0.3584  0.0377  0.3726
 1237TIP3   OH2 3674   1.281   3.210   5.818  0.9843  0.1313  0.5081
 1237TIP3    H1 3675   1.310   3.148   5.886 -0.6194 -0.4406  0.7193
 1237TIP3    H2 3676   1.290   3.162   5.736  3.5356  1.0424  0.1810
 1238TIP3   OH2 3677   2.447   2.672   0.882  0.4738 -0.1780 -0.4351
 1238TIP3    H1 3678   2.505   2.604   0.917  0.6341 -0.1488 -0.6382
 1238TIP3    H2 3679   2.480   2.687   0.793  0.3763  0.0938 -0.4246
 1239TIP3   OH2 3680   5.464   0.896   4.684  1.0800  0.5379 -0.6340
 1239TIP3    H1 3681   5.430   0.950   4.755 -0.4426 -0.9781 -0.1548
 1239TIP3    H2 3682   5.456   0.951   4.606 -0.0233  1.1584 -0.0963
 1240TIP3   OH2 3683   2.967   6.440   4.887  0.5316  0.1700 -0.1632
 1240TIP3    H1 3684   2.987   6.351   4.916  0.7736  0.4744  0.6539
 1240TIP3    H2 3685   3.045   6.466   4.837 -0.2944 -0.7121 -2.0135
 1241TIP3   OH2 3686   3.519   6.577   4.135 -0.0063  0.2844  0.7177
 1241TIP3    H1 3687   3.443   6.537   4.177 -0.2283 -0.0724 -0.0060
 1241TIP3    H2 3688   3.538   6.655   4.187 -0.1427 -0.2639  1.5961
 1242TIP3   OH2 3689   4.307   4.204   1.249  0.3800 -0.7053 -0.5313
 1242TIP3    H1 3690   4.371   4.249   1.194  0.7157 -0.3151  0.1637
 1242TIP3    H2 3691   4.224   4.211   1.201  0.4296  0.6389 -0.4584
 1243TIP3   OH2 3692   5.833   4.376   0.836 -0.5170 -0.0100 -0.3074
 1243TIP3    H1 3693   5.821   4.463   0.874  0.4801  1.0776 -2.3270
 1243TIP3    H2 3694   5.769   4.373   0.765 -1.2295 -1.3503  0.3617
 1244TIP3   OH2 3695   0.372   5.913   5.769  0.2074 -0.4122 -0.1833
 1244TIP3    H1 3696   0.398   5.986   5.825  0.5389 -1.0761  0.5453
 1244TIP3    H2 3697   0.301   5.948   5.716 -0.7867 -0.0342  1.3291
 1245TIP3   OH2 3698   3.180   0.503   1.804 -0.0806  0.4181  0.2584
 1245TIP3    H1 3699   3.151   0.412   1.790 -0.1388  0.5057 -0.2006
 1245TIP3    H2 3700   3.131   0.553   1.738 -1.5934  1.0794  1.8179
 1246TIP3   OH2 3701   0.814   2.071   3.552 -1.2547  0.6156  0.5224
 1246TIP3    H1 3702   0.856   2.125   3.620 -0.0943  1.0397 -0.4845
 1246TIP3    H2 3703   0.806   1.984   3.592  0.6961  0.4981  0.7531
 1247TIP3   OH2 3704   6.537   4.097   4.637 -0.6440 -0.9166 -0.8809
 1247TIP3    H1 3705   6.539   4.030   4.706  0.9278 -0.3489 -0.3140
 1247TIP3    H2 3706   6.527   4.180   4.684 -0.4521 -0.5952 -1.3932
 1248TIP3   OH2 3707   1.668   3.083   0.998 -0.1566 -0.4802  0.2264
 1248TIP3    H1 3708   1.758   3.106   1.020  0.4103 -2.1579 -0.1935
 1248TIP3    H2 3709   1.666   3.081   0.902 -0.7242 -0.1696  0.2263
 1249TIP3   OH2 3710   2.055   5.451   4.294 -0.0360 -0.1384 -0.2958
 1249TIP3    H1 3711   1.994   5.411   4.231 -0.9258 -1.4077  1.2901
 1249TIP3    H2 3712   2.110   5.378   4.323 -0.2533  0.2212  1.0669
 1250TIP3   OH2 3713   5.812   4.821   4.206  0.8490  0.4618  0.6781
 1250TIP3    H1 3714   5.875   4.833   4.278 -1.8229  1.0917  3.0920
 1250TIP3    H2 3715   5.739   4.877   4.229 -0.1680  0.6689 -2.6361
 1251TIP3   OH2 3716   4.704   2.577   5.574  0.0200  0.2140  0.5257
 1251TIP3    H1 3717   4.687   2.615   5.488  0.9493  0.0105  0.2386
 1251TIP3    H2 3718   4.626   2.597   5.625  0.1739  1.8734  0.1647
 1252TIP3   OH2 3719   1.822   4.075   0.421 -0.0574  0.7188  0.0639
 1252TIP3    H1 3720   1.861   4.013   0.483 -3.2666 -1.6747 -0.0718
 1252TIP3    H2 3721   1.762   4.022   0.369 -0.8698  3.5061 -2.0420
 1253TIP3   OH2 3722   5.276   2.147   3.034 -0.0740 -0.3230 -0.2036
 1253TIP3    H1 3723   5.315   2.216   2.980  1.3233 -1.0692 -0.2026
 1253TIP3    H2 3724   5.231   2.090   2.972 -1.8249  0.9348 -0.1317
 1254TIP3   OH2 3725   1.180   0.043   0.173  0.1514  0.6829 -0.1406
 1254TIP3    H1 3726   1.274   0.035   0.155  0.1626  1.1603 -0.3213
 1254TIP3    H2 3727   1.158   0.131   0.143  0.2148  1.6538  2.3706
 1255TIP3   OH2 3728   4.815   3.509   4.076 -0.5314  0.0129 -0.0720
 1255TIP3    H1 3729   4.753   3.556   4.133 -0.4434  0.7928 -0.6190
 1255TIP3    H2 3730   4.853   3.443   4.134  1.0487  2.0631  1.3686
 1256TIP3   OH2 3731   1.860   0.809   4.997  0.0002  0.1707  0.5812
 1256TIP3    H1 3732   1.828   0.727   4.960  2.0943 -0.5921  0.3458
 1256TIP3    H2 3733   1.781   0.859   5.016 -1.3720 -2.2884  1.7007
 1257TIP3   OH2 3734   3.120   2.285   2.262 -0.0706 -0.2877 -0.2330
 1257TIP3    H1 3735   3.208   2.299   2.228  0.0971 -1.3240 -0.2706
 1257TIP3    H2 3736   3.078   2.230   2.197 -1.6208  2.2033 -1.4860
 1258TIP3   OH2 3737   3.576   4.945   2.544  0.0853  0.3666  0.1825
 1258TIP3    H1 3738   3.522   5.006   2.595 -1.0703 -0.9309  0.5911
 1258TIP3    H2 3739   3.650   4.926   2.601 -0.1118  0.5658  0.5126
 1259TIP3   OH2 3740   0.445   5.730   2.509 -0.4482  0.3492 -0.1274
 1259TIP3    H1 3741   0.382   5.797   2.534  1.6910  1.9491  1.3208
 1259TIP3    H2 3742   0.432   5.660   2.573 -1.5042  0.1247 -0.5651
 1260TIP3   OH2 3743   1.485   0.416   3.673  0.0134 -0.4097 -0.3502
 1260TIP3    H1 3744   1.444   0.429   3.758 -0.2256 -2.3191 -0.1478
 1260TIP3    H2 3745   1.579   0.421   3.690 -0.0318 -0.9406  0.0669
 1261TIP3   OH2 3746   5.557   4.770   1.494 -0.0607  0.3181  0.6517
 1261TIP3    H1 3747   5.508   4.850   1.471 -1.5329 -0.9670 -0.9862
 1261TIP3    H2 3748   5.585   4.785   1.584 -0.3054  2.6687  0.4228
 1262TIP3   OH2 3749   7.019   2.968   2.880 -0.1364  0.5934 -0.2716
 1262TIP3    H1 3750   7.021   2.873   2.867 -1.4273  0.4711  0.2856
 1262TIP3    H2 3751   7.012   2.979   2.975  1.1230  1.2855 -0.2386
 1263TIP3   OH2 3752   5.249   1.160   1.020 -0.1736  0.0368  0.0297
 1263TIP3    H1 3753   5.177   1.149   0.959  0.2648  0.2103 -0.5201
 1263TIP3    H2 3754   5.214   1.129   1.104 -1.2153  1.0636 -0.0085
 1264TIP3   OH2 3755   4.176   3.479   3.604  0.9288 -0.0398  0.0054
 1264TIP3    H1 3756   4.125   3.446   3.678  2.7503 -1.6151  0.6541
 1264TIP3    H2 3757   4.239   3.409   3.586  0.8515  0.5134 -2.7581
 1265TIP3   OH2 3758   6.634   0.905   3.852  0.4900 -0.1441  0.6766
 1265TIP3    H1 3759   6.661   0.902   3.760 -3.2795 -0.1613 -0.6209
 1265TIP3    H2 3760   6.601   0.994   3.864  2.7408  0.5217  2.7368
 1266TIP3   OH2 3761   5.859   0.206   1.191  0.8413 -0.5018  0.3965
 1266TIP3    H1 3762   5.839   0.275   1.127  1.2050 -1.7920 -1.1894
 1266TIP3    H2 3763   5.933   0.241   1.242  1.4748  0.0300 -0.8302
 1267TIP3   OH2 3764   2.594   2.007   1.487 -0.0940 -0.3714  0.7299
 1267TIP3    H1 3765   2.582   1.914   1.506 -1.1705 -0.0292  1.8881
 1267TIP3    H2 3766   2.532   2.025   1.415 -1.1090 -0.2316  1.6066
 1268TIP3   OH2 3767   2.875   5.899   1.323  0.1336  0.1021  0.3079
 1268TIP3    H1 3768   2.904   5.879   1.412  0.4578  0.3480  0.2608
 1268TIP3    H2 3769   2.802   5.960   1.335 -0.4707 -0.6296  0.4319
 1269TIP3   OH2 3770   5.291   0.249   3.427 -0.0250  0.2256 -0.8519
 1269TIP3    H1 3771   5.357   0.208   3.483  1.2062  2.6044 -0.4036
 1269TIP3    H2 3772   5.321   0.231   3.338  0.6012  0.2808 -0.6584
 1270TIP3   OH2 3773   0.258   1.086   1.351  0.1913 -0.0554  0.3593
 1270TIP3    H1 3774   0.185   1.060   1.407 -0.1676  1.0494  0.4302
 1270TIP3    H2 3775   0.328   1.109   1.413  0.2176 -0.0407  0.3239
 1271TIP3   OH2 3776   0.943   4.689   2.716  0.1647  0.0152 -0.3874
 1271TIP3    H1 3777   0.939   4.777   2.679  1.4280  0.7956  1.1882
 1271TIP3    H2 3778   0.908   4.699   2.804 -2.6335 -1.7580 -1.1935
 1272TIP3   OH2 3779   1.156   3.553   5.118 -0.3751  0.2715 -0.2640
 1272TIP3    H1 3780   1.217   3.609   5.166 -2.7836  1.4571  1.6222
 1272TIP3    H2 3781   1.134   3.602   5.040 -0.3886  0.7344  0.0282
 1273TIP3   OH2 3782   2.012   1.615   2.592 -0.6753  0.4135 -0.3691
 1273TIP3    H1 3783   1.972   1.543   2.543 -0.5586  0.0289  0.0888
 1273TIP3    H2 3784   2.095   1.632   2.547 -0.0338 -0.6977  0.3474
 1274TIP3   OH2 3785   6.522   6.580   5.170 -0.6115  0.3645 -0.4604
 1274TIP3    H1 3786   6.544   6.558   5.260 -2.7034 -1.0744 -0.2269
 1274TIP3    H2 3787   6.603   6.569   5.121 -0.2126 -2.4453  0.6562
 1275TIP3   OH2 3788   6.596   5.622   5.058 -0.3086 -0.2789 -0.0044
 1275TIP3    H1 3789   6.569   5.702   5.013 -1.6102 -0.2253  0.8186
 1275TIP3    H2 3790   6.648   5.653   5.133  0.9605 -0.3250 -0.8304
 1276TIP3   OH2 3791   1.348   6.709   5.156  0.8872 -0.1365 -0.5693
 1276TIP3    H1 3792   1.287   6.705   5.229  0.2118  0.4454 -1.0827
 1276TIP3    H2 3793   1.409   6.779   5.180  1.8638 -1.2505  0.3067
 1277TIP3   OH2 3794   6.932   4.731   2.971 -0.4838  0.2618  0.4976
 1277TIP3    H1 3795   7.010   4.692   3.011 -0.6388  1.6395  2.2940
 1277TIP3    H2 3796   6.965   4.782   2.897 -0.2504 -2.8619 -1.7304
 1278TIP3   OH2 3797   4.058   3.113   5.243 -0.1007 -0.1162 -0.1264
 1278TIP3    H1 3798   4.127   3.105   5.177 -0.6661 -1.5591 -0.6020
 1278TIP3    H2 3799   3.990   3.165   5.201  0.4519  0.8428  0.1439
 1279TIP3   OH2 3800   2.254   0.346   5.371  0.2411 -0.3465  0.5697
 1279TIP3    H1 3801   2.234   0.409   5.301 -2.2758 -0.9419  0.6490
 1279TIP3    H2 3802   2.301   0.275   5.326 -1.0720 -0.5804 -0.5049
 1280TIP3   OH2 3803   6.144   5.305   3.762  0.0747 -0.4883  0.3962
 1280TIP3    H1 3804   6.070   5.245   3.746 -1.3894  0.4284  3.0809
 1280TIP3    H2 3805   6.220   5.247   3.770 -0.8736 -1.7681  0.5567
 1281TIP3   OH2 3806   2.068   2.868   4.453  0.4779 -0.1293 -0.6452
 1281TIP3    H1 3807   2.077   2.945   4.397  0.6936  1.2067  1.1343
 1281TIP3    H2 3808   1.974   2.852   4.455  0.1570  1.5788  0.7868
 1282TIP3   OH2 3809   5.639   6.156   0.923  0.7305 -0.2573 -0.2674
 1282TIP3    H1 3810   5.649   6.239   0.970  0.6180 -1.0875  1.3012
 1282TIP3    H2 3811   5.622   6.181   0.833  1.3970  1.4150  0.0339
 1283TIP3   OH2 3812   1.370   5.838   2.436  0.5697 -0.1446 -0.6467
 1283TIP3    H1 3813   1.385   5.817   2.344  3.1397 -1.8985  0.0451
 1283TIP3    H2 3814   1.419   5.919   2.450  1.4155 -0.6516 -0.5573
 1284TIP3   OH2 3815   6.555   4.647   4.709  0.2415 -0.3494 -0.6267
 1284TIP3    H1 3816   6.466   4.635   4.677 -0.6647 -1.5910  2.0444
 1284TIP3    H2 3817   6.568   4.742   4.711 -1.5769 -0.0715  0.1901
 1285TIP3   OH2 3818   5.181   4.222   2.094  0.0830 -0.4715  0.0036
 1285TIP3    H1 3819   5.239   4.160   2.138 -0.2130 -0.6418  0.1564
 1285TIP3    H2 3820   5.221   4.234   2.008  1.0803  0.4587  0.5849
 1286TIP3   OH2 3821   6.243   6.600   1.555  0.0724 -0.2573  0.5739
 1286TIP3    H1 3822   6.173   6.555   1.601 -0.8552 -0.9442 -1.3933
 1286TIP3    H2 3823   6.324   6.564   1.592 -0.6227 -0.9513  1.4494
 1287TIP3   OH2 3824   5.328   0.389   2.142  0.4275 -0.1196  0.4062
 1287TIP3    H1 3825   5.411   0.429   2.117  0.5039 -0.3596  0.2697
 1287TIP3    H2 3826   5.352   0.301   2.173  0.2578 -0.0777  0.6597
 1288TIP3   OH2 3827   4.665   5.402   0.349  0.2431 -0.0555  0.0447
 1288TIP3    H1 3828   4.729   5.465   0.384  1.0130 -0.6182 -0.3245
 1288TIP3    H2 3829   4.708   5.365   0.272  0.4644 -2.1536  1.1017
 1289TIP3   OH2 3830   2.788   1.967   2.649 -0.1838  0.3193 -0.3492
 1289TIP3    H1 3831   2.768   1.987   2.557  0.6994 -1.0768 -0.8814
 1289TIP3    H2 3832   2.882   1.949   2.649 -0.4701 -1.3524  0.4912
 1290TIP3   OH2 3833   4.370   0.592   4.405 -0.4136 -0.0009 -0.3245
 1290TIP3    H1 3834   4.448   0.554   4.445  0.0415  0.4865 -0.7373
 1290TIP3    H2 3835   4.372   0.684   4.431 -3.0630 -0.7134  3.1814
 1291TIP3   OH2 3836   7.128   1.876   0.148 -0.2245 -0.2485  0.4304
 1291TIP3    H1 3837   7.081   1.939   0.203  1.0727 -0.1860  1.5230
 1291TIP3    H2 3838   7.133   1.796   0.202 -1.7841 -1.3122 -0.9016
 1292TIP3   OH2 3839   5.374   6.140   1.488 -0.0402  0.0785 -0.2875
 1292TIP3    H1 3840   5.306   6.196   1.523 -1.0023 -2.2491  1.8938
 1292TIP3    H2 3841   5.353   6.130   1.395 -0.9581  1.6946 -0.2723
 1293TIP3   OH2 3842   5.847   2.473   5.079 -0.4144  0.2244 -0.0420
 1293TIP3    H1 3843   5.928   2.454   5.126 -0.9960 -0.4162  0.7317
 1293TIP3    H2 3844   5.867   2.551   5.027  0.2063  1.0573  1.3952
 1294TIP3   OH2 3845   5.284   1.816   2.064  0.2003  0.2790 -0.4677
 1294TIP3    H1 3846   5.369   1.841   2.029  0.6201  0.5371  0.7041
 1294TIP3    H2 3847   5.237   1.898   2.076  0.9210  0.4483  1.6968
 1295TIP3   OH2 3848   2.729   3.245   2.219 -0.0928 -0.0254  0.1772
 1295TIP3    H1 3849   2.716   3.320   2.278 -1.9048 -0.1166 -0.0438
 1295TIP3    H2 3850   2.660   3.184   2.244 -0.2539 -0.5026 -1.3732
 1296TIP3   OH2 3851   7.029   3.163   5.163 -0.8753 -0.0497  0.3808
 1296TIP3    H1 3852   6.941   3.200   5.173  0.0228  2.8149 -1.2919
 1296TIP3    H2 3853   7.087   3.229   5.201  0.7192 -0.6084 -0.9666
 1297TIP3   OH2 3854   5.724   5.997   0.559  0.6911  0.1795 -0.4651
 1297TIP3    H1 3855   5.653   5.970   0.502 -1.4599  1.3041  1.5305
 1297TIP3    H2 3856   5.719   6.093   0.561  0.8296  0.1822  1.4181
 1298TIP3   OH2 3857   2.699   1.287   4.322  0.2711 -0.0967 -0.4826
 1298TIP3    H1 3858   2.679   1.209   4.374  1.7529 -0.4457 -0.4005
 1298TIP3    H2 3859   2.628   1.348   4.343 -1.1308 -1.5348 -0.8461
 1299TIP3   OH2 3860   4.887   0.339   0.382 -0.4793 -0.1027  0.1136
 1299TIP3    H1 3861   4.819   0.306   0.442  0.3753 -1.5316  0.3537
 1299TIP3    H2 3862   4.943   0.263   0.366  1.5538  1.2113  0.5818
 1300TIP3   OH2 3863   0.563   4.831   4.863 -1.0002  0.1606 -0.5668
 1300TIP3    H1 3864   0.622   4.895   4.903 -1.5919  1.2873 -1.4147
 1300TIP3    H2 3865   0.568   4.754   4.920  2.2153 -0.2858 -1.2408
 1301TIP3   OH2 3866   2.843   3.424   1.715  0.0491  0.5564  0.0561
 1301TIP3    H1 3867   2.860   3.332   1.735 -0.1007  0.9794  2.4623
 1301TIP3    H2 3868   2.747   3.430   1.711 -0.0531  0.9336  2.0397
 1302TIP3   OH2 3869   0.120   3.047   5.753  0.0835  0.4300 -0.8261
 1302TIP3    H1 3870   0.047   2.996   5.717 -0.3442 -0.8587  1.6659
 1302TIP3    H2 3871   0.198   2.995   5.732 -0.1435 -0.2077 -0.1566
 1303TIP3   OH2 3872   2.545   3.608   4.478  0.1729 -0.0966  0.3194
 1303TIP3    H1 3873   2.582   3.682   4.526 -1.2179  0.5795  0.4093
 1303TIP3    H2 3874   2.543   3.637   4.387 -2.7135  1.0836  0.6531
 1304TIP3   OH2 3875   5.312   4.748   3.802 -0.4158 -0.9400 -0.1725
 1304TIP3    H1 3876   5.402   4.755   3.771 -0.6981 -1.4186 -1.1264
 1304TIP3    H2 3877   5.316   4.779   3.893  0.1966  1.8070 -1.0291
 1305TIP3   OH2 3878   1.517   0.521   1.128  0.4138 -0.4202 -0.2545
 1305TIP3    H1 3879   1.612   0.528   1.134  0.4038  1.0763 -1.4021
 1305TIP3    H2 3880   1.499   0.514   1.034 -0.6923  1.0206 -0.1827
 1306TIP3   OH2 3881   4.905   2.359   3.223  0.4524 -0.1395 -0.4728
 1306TIP3    H1 3882   4.861   2.288   3.270  0.6476 -1.1379 -1.7337
 1306TIP3    H2 3883   4.937   2.417   3.292 -2.1378  0.2344  0.5256
 1307TIP3   OH2 3884   2.654   5.914   3.703  0.2094  0.2458 -0.2961
 1307TIP3    H1 3885   2.651   5.896   3.609  0.0980 -0.4886 -0.1607
 1307TIP3    H2 3886   2.569   5.955   3.723  0.0864  0.0618 -0.4479
 1308TIP3   OH2 3887   2.557   4.442   4.565 -0.0479  0.5474  0.7389
 1308TIP3    H1 3888   2.627   4.456   4.629  0.0278 -0.3485  0.8674
 1308TIP3    H2 3889   2.589   4.371   4.510 -0.4729  0.7522  0.2238
 1309TIP3   OH2 3890   2.414   5.487   0.570  0.1385  0.0833 -0.7367
 1309TIP3    H1 3891   2.406   5.444   0.655 -0.5838 -0.7093 -1.1905
 1309TIP3    H2 3892   2.431   5.415   0.509  1.2918  0.7094 -1.1880
 1310TIP3   OH2 3893   3.639   2.745   3.040 -0.3947  0.0907 -0.1399
 1310TIP3    H1 3894   3.582   2.717   2.969  0.0261 -0.0526 -0.4244
 1310TIP3    H2 3895   3.600   2.707   3.119 -2.1471  2.0850  0.0284
 1311TIP3   OH2 3896   3.067   0.628   0.267  0.0412 -0.0354 -0.4033
 1311TIP3    H1 3897   3.157   0.611   0.239 -0.3092  0.6453 -2.0790
 1311TIP3    H2 3898   3.024   0.543   0.265  0.6739 -0.3876  0.5561
 1312TIP3   OH2 3899   0.030   0.594   2.506 -0.2510 -0.0671  0.4120
 1312TIP3    H1 3900   0.024   0.527   2.438  1.4674  0.0787  0.0725
 1312TIP3    H2 3901   0.027   0.546   2.588 -0.8916 -0.3777  0.2123
 1313TIP3   OH2 3902   0.113   5.366   5.316 -0.4727  0.2934  0.1601
 1313TIP3    H1 3903   0.097   5.313   5.394  0.5508  0.1524  0.2885
 1313TIP3    H2 3904   0.088   5.455   5.342 -0.3440  0.2108  0.5739
 1314TIP3   OH2 3905   6.467   2.964   1.871 -0.6599  0.1491  0.5728
 1314TIP3    H1 3906   6.542   2.994   1.922  0.3374 -2.0597  0.5175
 1314TIP3    H2 3907   6.501   2.950   1.783 -1.9075  1.9851 -0.2731
 1315TIP3   OH2 3908   4.880   1.046   2.211  0.0115  0.1395  0.4451
 1315TIP3    H1 3909   4.955   1.012   2.259 -0.7912 -1.3610  0.7030
 1315TIP3    H2 3910   4.892   1.014   2.121 -0.0108  0.4036  0.3466
 1316TIP3   OH2 3911   3.661   0.198   2.453  0.3769  0.4233 -0.5337
 1316TIP3    H1 3912   3.622   0.142   2.520  2.4367 -0.0487  0.3483
 1316TIP3    H2 3913   3.598   0.197   2.381 -0.0508 -2.3843 -0.2306
 1317TIP3   OH2 3914   6.529   1.138   4.124  0.3245 -0.1627  0.8584
 1317TIP3    H1 3915   6.488   1.142   4.038 -0.5114 -1.4899  1.1622
 1317TIP3    H2 3916   6.582   1.058   4.122 -0.0037 -0.4191  1.6855
 1318TIP3   OH2 3917   3.303   1.735   4.184  0.0083 -0.3272 -0.0370
 1318TIP3    H1 3918   3.387   1.779   4.196 -0.4476  1.3826 -2.3870
 1318TIP3    H2 3919   3.316   1.680   4.107 -0.7636 -0.7562  0.1332
 1319TIP3   OH2 3920   3.102   6.002   0.730 -0.0702  0.1331  0.3908
 1319TIP3    H1 3921   3.062   6.088   0.719  0.4061  0.0943 -2.6073
 1319TIP3    H2 3922   3.030   5.940   0.715 -0.3209 -0.0335  2.1154
 1320TIP3   OH2 3923   4.312   6.420   5.768  0.1993  0.2091  0.0926
 1320TIP3    H1 3924   4.286   6.494   5.823  1.0068  0.6406 -0.0784
 1320TIP3    H2 3925   4.408   6.426   5.764  0.1443  0.6993 -2.0057
 1321TIP3   OH2 3926   4.684   4.069   0.499  0.5228  0.0816 -0.2927
 1321TIP3    H1 3927   4.708   4.057   0.591 -2.5819 -2.5295  0.3648
 1321TIP3    H2 3928   4.642   4.155   0.496  0.0890 -0.0673  0.9137
 1322TIP3   OH2 3929   2.431   1.503   3.416 -0.5063  0.1393 -0.7555
 1322TIP3    H1 3930   2.381   1.455   3.350  0.0440  0.9105 -1.7719
 1322TIP3    H2 3931   2.522   1.495   3.388 -0.3092  0.8803 -0.3601
 1323TIP3   OH2 3932   4.051   0.306   3.218  0.3364 -0.0877 -0.0405
 1323TIP3    H1 3933   3.991   0.381   3.218 -0.7989 -0.8568  2.5461
 1323TIP3    H2 3934   4.015   0.246   3.152  0.0156  0.7465 -0.6342
 1324TIP3   OH2 3935   4.834   1.750   2.585  0.0416 -0.3288 -0.2346
 1324TIP3    H1 3936   4.763   1.760   2.648  0.2178 -0.7835  0.0408
 1324TIP3    H2 3937   4.857   1.657   2.589  0.0104 -0.3723 -1.0161
 1325TIP3   OH2 3938   0.338   1.250   2.138 -0.1901 -0.2178 -0.1942
 1325TIP3    H1 3939   0.308   1.320   2.080  0.3509 -0.4393 -0.7578
 1325TIP3    H2 3940   0.432   1.268   2.149 -0.1375 -0.6101 -0.0017
 1326TIP3   OH2 3941   0.104   3.544   0.092 -0.0326 -0.3124 -0.1168
 1326TIP3    H1 3942   0.063   3.477   0.036 -0.4245  1.6875 -2.3912
 1326TIP3    H2 3943   0.191   3.557   0.054 -0.3530  1.1890 -0.3847
 1327TIP3   OH2 3944   6.628   6.054   4.796 -0.0886  0.3567  0.3028
 1327TIP3    H1 3945   6.577   6.110   4.737 -0.5336  0.7538  1.0497
 1327TIP3    H2 3946   6.705   6.106   4.818  0.2103  0.1053 -0.1184
 1328TIP3   OH2 3947   6.644   0.464   2.576 -0.0406 -0.5328  0.4446
 1328TIP3    H1 3948   6.632   0.397   2.509 -0.1678  1.5948 -1.7662
 1328TIP3    H2 3949   6.725   0.438   2.621  0.3690 -1.7012 -0.8948
 1329TIP3   OH2 3950   6.246   5.385   5.284  0.1128  0.0070 -0.5867
 1329TIP3    H1 3951   6.242   5.457   5.346  1.9116 -1.3517  1.2678
 1329TIP3    H2 3952   6.328   5.397   5.237 -0.2722 -0.0752 -1.3078
 1330TIP3   OH2 3953   2.999   5.043   2.338  0.0885  0.5233  0.1079
 1330TIP3    H1 3954   3.079   4.999   2.309  0.1572  0.7842 -0.0960
 1330TIP3    H2 3955   2.928   4.990   2.300  0.1256 -0.4746  1.3557
 1331TIP3   OH2 3956   3.973   6.116   1.970  0.5686 -0.6298 -0.7456
 1331TIP3    H1 3957   4.040   6.179   1.942  1.3653 -0.9431  0.4043
 1331TIP3    H2 3958   3.989   6.104   2.063 -1.4512 -0.2983 -0.3097
 1332TIP3   OH2 3959   4.154   5.353   1.082  0.1673  0.5078  0.2839
 1332TIP3    H1 3960   4.089   5.366   1.013 -0.1346 -0.1551  0.4392
 1332TIP3    H2 3961   4.107   5.375   1.163  0.0101 -0.3535  0.4346
 1333TIP3   OH2 3962   6.630   0.791   2.843  0.0367  0.2549 -0.2326
 1333TIP3    H1 3963   6.688   0.715   2.846 -0.1726 -0.1256 -3.0646
 1333TIP3    H2 3964   6.586   0.791   2.928 -0.5919 -3.3313 -0.4005
 1334TIP3   OH2 3965   3.516   5.707   1.127 -0.6504 -0.5505 -0.4997
 1334TIP3    H1 3966   3.437   5.686   1.178  0.0852  0.1051  0.9818
 1334TIP3    H2 3967   3.490   5.781   1.072 -0.4625  1.4211  1.8629
 1335TIP3   OH2 3968   6.958   5.915   0.611  0.5342 -0.5008  0.2368
 1335TIP3    H1 3969   7.040   5.963   0.595  0.7809 -1.2996 -1.0310
 1335TIP3    H2 3970   6.896   5.983   0.638  1.0429  0.4665 -0.9191
 1336TIP3   OH2 3971   0.984   0.118   1.055  0.1848  0.1323  0.6123
 1336TIP3    H1 3972   1.045   0.175   1.010  1.4294 -1.2757  0.4282
 1336TIP3    H2 3973   0.972   0.044   0.995 -2.4154  0.7450  0.2433
 1337TIP3   OH2 3974   4.631   2.908   1.671  0.1751  0.4336  0.0250
 1337TIP3    H1 3975   4.605   2.913   1.763  0.2097  0.6474  0.0229
 1337TIP3    H2 3976   4.699   2.974   1.661  0.9000 -0.2793  0.0823
 1338TIP3   OH2 3977   2.341   4.191   5.340  0.5792  0.2627 -0.5037
 1338TIP3    H1 3978   2.418   4.148   5.378 -0.2293 -0.0359  0.8690
 1338TIP3    H2 3979   2.335   4.275   5.386  0.7996  0.8401 -1.5100
 1339TIP3   OH2 3980   0.752   2.367   4.115 -0.1919 -0.0511 -0.3758
 1339TIP3    H1 3981   0.794   2.430   4.174  0.5033 -0.3943 -0.5054
 1339TIP3    H2 3982   0.758   2.283   4.161 -1.4363  0.0154 -0.0417
 1340TIP3   OH2 3983   6.048   1.732   2.456  0.1908  0.4201 -0.2357
 1340TIP3    H1 3984   6.086   1.661   2.507 -1.0458  1.0069  1.5704
 1340TIP3    H2 3985   6.042   1.697   2.367  1.1520 -1.1148  0.2770
 1341TIP3   OH2 3986   6.468   6.217   0.088 -0.1448  0.0688  0.6045
 1341TIP3    H1 3987   6.421   6.279   0.032 -0.5008  0.6920  1.5712
 1341TIP3    H2 3988   6.420   6.218   0.171  0.0664 -1.2288  0.7674
 1342TIP3   OH2 3989   0.607   6.501   5.208 -0.7952 -0.3439  0.2981
 1342TIP3    H1 3990   0.701   6.503   5.223 -0.7736 -1.5943  0.4359
 1342TIP3    H2 3991   0.589   6.412   5.179 -2.0795 -0.4055  1.1987
 1343TIP3   OH2 3992   4.597   0.901   3.764 -0.5593 -0.4298  0.6036
 1343TIP3    H1 3993   4.636   0.957   3.697  2.5317 -0.8672  1.8681
 1343TIP3    H2 3994   4.558   0.829   3.715  0.5159 -0.1100 -0.7774
 1344TIP3   OH2 3995   4.625   0.293   2.050 -0.8447  0.2351 -0.3510
 1344TIP3    H1 3996   4.684   0.364   2.025 -1.9562  0.5441 -2.3398
 1344TIP3    H2 3997   4.539   0.335   2.054 -1.1208 -0.4299  1.4072
 1345TIP3   OH2 3998   5.183   5.278   3.027  0.1078  0.1397 -0.3822
 1345TIP3    H1 3999   5.232   5.285   3.109  0.8466  0.3430 -0.8322
 1345TIP3    H2 4000   5.130   5.357   3.024  0.3381  0.2993 -0.2647
 1346TIP3   OH2 4001   6.924   0.813   3.863  0.5187  0.2201  0.2427
 1346TIP3    H1 4002   6.836   0.832   3.831  1.0517  1.5315 -0.4898
 1346TIP3    H2 4003   6.969   0.897   3.861  1.8313 -0.4606  0.5016
 1347TIP3   OH2 4004   3.610   6.504   1.238 -0.3627 -0.0221  0.3088
 1347TIP3    H1 4005   3.672   6.443   1.277  0.3824  0.3256 -0.3137
 1347TIP3    H2 4006   3.527   6.456   1.237 -0.3940 -0.0856  2.1811
 1348TIP3   OH2 4007   4.096   3.748   4.945 -0.2718  0.6305  0.0108
 1348TIP3    H1 4008   4.146   3.802   4.883  1.3696 -1.0927 -0.2397
 1348TIP3    H2 4009   4.046   3.688   4.890 -1.1981  1.1115  0.3116
 1349TIP3   OH2 4010   6.928   2.756   5.430  0.7348  0.1684  0.1148
 1349TIP3    H1 4011   6.875   2.678   5.413  0.1466  0.6551 -0.3380
 1349TIP3    H2 4012   6.894   2.791   5.513 -0.0569  0.7900 -0.4507
 1350TIP3   OH2 4013   5.241   2.266   3.579 -0.2085 -0.4172 -0.3260
 1350TIP3    H1 4014   5.278   2.241   3.493  1.0965  0.2236  0.0197
 1350TIP3    H2 4015   5.244   2.361   3.579  0.9577 -0.4202  0.8803
 1351TIP3   OH2 4016   0.192   3.302   1.641 -0.3654 -0.2618 -0.1539
 1351TIP3    H1 4017   0.200   3.287   1.547  2.7386  1.0545 -0.2230
 1351TIP3    H2 4018   0.177   3.396   1.649 -0.0060 -0.2659  0.6977
 1352TIP3   OH2 4019   4.057   0.629   0.723 -0.1254 -0.1729 -0.4971
 1352TIP3    H1 4020   4.037   0.540   0.693  0.7400 -0.3446 -0.5861
 1352TIP3    H2 4021   4.087   0.674   0.644 -0.8754  0.3004 -0.5185
 1353TIP3   OH2 4022   5.469   5.946   5.582 -0.6634 -0.1754 -0.4752
 1353TIP3    H1 4023   5.554   5.983   5.555 -0.1501 -1.3786 -0.5543
 1353TIP3    H2 4024   5.411   5.964   5.509 -0.4251  0.4524 -0.5225
 1354TIP3   OH2 4025   3.300   5.020   5.651  0.1783 -0.6993 -0.3352
 1354TIP3    H1 4026   3.230   4.997   5.590  2.0282 -0.4974 -2.6687
 1354TIP3    H2 4027   3.285   4.964   5.726 -2.3301 -0.8196 -0.8327
 1355TIP3   OH2 4028   5.035   3.683   0.908  0.1396  0.6155 -0.3716
 1355TIP3    H1 4029   5.059   3.591   0.899  0.6110  0.9214 -3.0273
 1355TIP3    H2 4030   4.940   3.683   0.912  0.1164  0.0230 -0.7761
 1356TIP3   OH2 4031   1.552   6.154   0.668 -0.2134  0.2515 -0.0159
 1356TIP3    H1 4032   1.547   6.126   0.759  0.8881 -0.6964 -0.2164
 1356TIP3    H2 4033   1.529   6.076   0.617 -1.1568  0.8612 -0.5547
 1357TIP3   OH2 4034   6.364   5.984   0.378 -0.2692 -0.3726 -0.2332
 1357TIP3    H1 4035   6.279   5.990   0.335  0.1189  0.9163 -0.8645
 1357TIP3    H2 4036   6.345   5.940   0.461 -1.1388 -2.2688 -1.3661
 1358TIP3   OH2 4037   2.315   1.807   1.489  0.0789 -0.2471 -0.1529
 1358TIP3    H1 4038   2.267   1.867   1.545 -1.9293 -1.6403 -0.2793
 1358TIP3    H2 4039   2.257   1.790   1.415  2.0271  0.3236 -1.9183
 1359TIP3   OH2 4040   0.812   1.853   1.314  0.1094  0.1628  0.2195
 1359TIP3    H1 4041   0.717   1.859   1.310  0.0852  0.0837  0.6348
 1359TIP3    H2 4042   0.843   1.906   1.240 -0.2581  0.0756  0.0008
 1360TIP3   OH2 4043   6.140   0.772   5.741 -0.2914  0.2939  0.5617
 1360TIP3    H1 4044   6.211   0.831   5.715 -0.5185 -0.3801 -1.8885
 1360TIP3    H2 4045   6.173   0.684   5.719 -2.5147  0.0864 -2.6728
 1361TIP3   OH2 4046   4.928   4.622   3.411 -0.0409  0.3590  0.4422
 1361TIP3    H1 4047   4.925   4.692   3.345 -1.4310  2.3083  2.4310
 1361TIP3    H2 4048   4.836   4.604   3.430  0.3235 -1.2082  0.8618
 1362TIP3   OH2 4049   4.857   0.573   2.494  0.0580  0.3082  0.1595
 1362TIP3    H1 4050   4.844   0.533   2.408  1.3892  0.4482 -0.1153
 1362TIP3    H2 4051   4.932   0.631   2.484 -0.8957  1.7659  0.9449
 1363TIP3   OH2 4052   1.738   4.970   3.566  0.0012  0.1714  0.2541
 1363TIP3    H1 4053   1.684   5.031   3.517  0.5427  1.6127  1.3919
 1363TIP3    H2 4054   1.828   5.002   3.555  0.3105 -0.4613  0.7925
 1364TIP3   OH2 4055   6.420   4.996   5.241  0.2701 -0.1122  0.7775
 1364TIP3    H1 4056   6.496   5.047   5.211  0.9817 -0.5742  1.7776
 1364TIP3    H2 4057   6.375   5.055   5.301 -1.0910  0.7670 -0.9935
 1365TIP3   OH2 4058   4.408   6.506   1.980  0.2210 -0.1944 -0.2690
 1365TIP3    H1 4059   4.502   6.495   1.995  0.2954  0.2006 -0.4123
 1365TIP3    H2 4060   4.377   6.419   1.954  0.8321 -0.0362 -1.6596
 1366TIP3   OH2 4061   3.342   2.737   5.027 -0.6885 -0.2167 -0.0951
 1366TIP3    H1 4062   3.353   2.772   5.116  0.2065 -1.1373  0.1777
 1366TIP3    H2 4063   3.422   2.688   5.011 -0.6796  0.2565 -1.5781
 1367TIP3   OH2 4064   6.784   3.895   0.069  0.0569  0.5221  0.2226
 1367TIP3    H1 4065   6.715   3.934   0.014 -0.3994 -0.3910  0.1309
 1367TIP3    H2 4066   6.765   3.928   0.157 -0.3447  0.4809  0.1547
 1368TIP3   OH2 4067   4.114   1.957   3.557  0.1402  0.1135 -0.8548
 1368TIP3    H1 4068   4.087   2.048   3.570 -0.2292  0.1333 -1.6954
 1368TIP3    H2 4069   4.161   1.934   3.638  1.4012  1.4628 -1.1489
 1369TIP3   OH2 4070   6.399   5.441   1.409 -0.0328  0.3625 -0.0729
 1369TIP3    H1 4071   6.313   5.401   1.406  0.4199 -0.6550  0.1204
 1369TIP3    H2 4072   6.402   5.497   1.332 -0.4340 -0.5060 -0.7353
 1370TIP3   OH2 4073   5.600   4.611   5.805 -0.1480 -0.3011 -0.6063
 1370TIP3    H1 4074   5.579   4.668   5.731  1.0280 -0.0963 -0.7944
 1370TIP3    H2 4075   5.524   4.554   5.814 -0.9693  0.7168 -0.9659
 1371TIP3   OH2 4076   6.084   1.788   4.706  0.1158  0.0162 -0.0803
 1371TIP3    H1 4077   6.097   1.784   4.801 -0.0624  1.6992  0.0422
 1371TIP3    H2 4078   6.157   1.841   4.674  0.7071 -1.3222 -1.0234
 1372TIP3   OH2 4079   0.866   3.707   0.318  0.0159 -0.4718  0.3085
 1372TIP3    H1 4080   0.956   3.700   0.350  0.8631  0.3647 -1.7305
 1372TIP3    H2 4081   0.861   3.793   0.278 -1.3263 -0.9706 -0.6822
 1373TIP3   OH2 4082   2.425   4.346   5.060 -0.0370 -0.0707  0.7550
 1373TIP3    H1 4083   2.332   4.326   5.061 -0.2888  1.0588  1.1437
 1373TIP3    H2 4084   2.463   4.282   4.999 -1.2982  0.3957 -0.5773
 1374TIP3   OH2 4085   6.769   4.670   0.097 -0.2174 -0.1289 -0.0213
 1374TIP3    H1 4086   6.804   4.588   0.133  1.3061  0.2083 -0.6827
 1374TIP3    H2 4087   6.725   4.644   0.017 -2.1746 -0.6487  1.1460
 1375TIP3   OH2 4088   1.222   3.587   2.281  0.5866  0.1190  0.7120
 1375TIP3    H1 4089   1.301   3.568   2.331 -0.6238 -0.5529  2.5012
 1375TIP3    H2 4090   1.153   3.538   2.327 -0.8770  0.7838 -0.7001
 1376TIP3   OH2 4091   2.825   6.512   5.452  0.4664 -0.8021 -0.3469
 1376TIP3    H1 4092   2.733   6.485   5.444  0.2680  0.0145 -1.0021
 1376TIP3    H2 4093   2.833   6.541   5.543  0.1050 -0.9900 -0.2505
 1377TIP3   OH2 4094   6.623   4.917   0.713 -0.2763  0.0719  0.3954
 1377TIP3    H1 4095   6.586   4.992   0.759 -0.7489  0.3415 -0.4186
 1377TIP3    H2 4096   6.686   4.880   0.776 -0.3086  0.9160  0.9461
 1378TIP3   OH2 4097   1.683   2.627   0.110 -0.1268 -0.0985 -0.3562
 1378TIP3    H1 4098   1.656   2.552   0.057  0.9906  0.3106 -1.5695
 1378TIP3    H2 4099   1.767   2.601   0.147  0.0232  0.3606 -0.3679
 1379TIP3   OH2 4100   5.513   0.939   5.718 -0.1757  0.4339  0.0020
 1379TIP3    H1 4101   5.536   0.875   5.650  2.6664  0.2299  1.0279
 1379TIP3    H2 4102   5.418   0.942   5.716 -0.4922 -3.8254 -0.1519
 1380TIP3   OH2 4103   4.008   2.519   4.111  0.4783  0.5277  0.4510
 1380TIP3    H1 4104   3.934   2.576   4.092  0.6755  0.3014 -1.2158
 1380TIP3    H2 4105   4.062   2.568   4.173 -1.5851  0.2168  2.5982
 1381TIP3   OH2 4106   3.206   6.286   3.453 -0.3151 -0.4051 -0.2036
 1381TIP3    H1 4107   3.175   6.376   3.447 -1.6977 -0.7538  1.0512
 1381TIP3    H2 4108   3.271   6.278   3.384  1.6460  2.2256  1.2023
 1382TIP3   OH2 4109   6.817   5.074   1.137  0.0688 -0.3838 -0.1658
 1382TIP3    H1 4110   6.742   5.020   1.160 -0.7226  0.6930 -0.1018
 1382TIP3    H2 4111   6.802   5.099   1.045 -0.4752  1.0623  0.2802
 1383TIP3   OH2 4112   1.569   1.086   0.863 -0.3500  0.0683  0.0257
 1383TIP3    H1 4113   1.511   1.087   0.786  0.6021  1.2930 -0.7386
 1383TIP3    H2 4114   1.541   1.011   0.914 -0.7711 -1.0360 -1.7307
 1384TIP3   OH2 4115   3.552   5.827   1.488  0.4296 -0.0719 -0.3533
 1384TIP3    H1 4116   3.551   5.895   1.555 -0.5510 -0.2207 -0.1859
 1384TIP3    H2 4117   3.590   5.869   1.411 -2.1272  1.4122 -0.9563
 1385TIP3   OH2 4118   0.643   1.581   1.457 -0.2125  0.2494  0.4369
 1385TIP3    H1 4119   0.573   1.606   1.397  0.0706 -1.0232 -0.4576
 1385TIP3    H2 4120   0.616   1.616   1.542 -1.1847  1.0717 -0.1979
 1386TIP3   OH2 4121   2.169   2.913   5.031  0.1856  0.5099 -0.1168
 1386TIP3    H1 4122   2.181   2.978   5.100  0.2682  0.1156  0.2467
 1386TIP3    H2 4123   2.092   2.862   5.059 -0.5916  1.1764 -0.9737
 1387TIP3   OH2 4124   2.278   3.162   5.722  0.3514  0.0209 -0.6156
 1387TIP3    H1 4125   2.308   3.246   5.756 -1.8081  1.1388 -1.3093
 1387TIP3    H2 4126   2.196   3.145   5.768 -2.6345  1.5090 -4.8309
 1388TIP3   OH2 4127   0.553   5.656   4.077 -0.3580 -0.7598 -0.2664
 1388TIP3    H1 4128   0.478   5.650   4.137  0.0978 -0.4108  0.3490
 1388TIP3    H2 4129   0.530   5.726   4.017  0.0720  0.3240  0.7952
 1389TIP3   OH2 4130   2.565   6.638   5.252  0.3614 -0.3292 -0.1134
 1389TIP3    H1 4131   2.496   6.640   5.186 -0.8614  3.1696  1.0591
 1389TIP3    H2 4132   2.549   6.558   5.301  0.2210 -2.1056 -2.8110
 1390TIP3   OH2 4133   5.216   6.347   1.592  0.2602  0.4582  0.2292
 1390TIP3    H1 4134   5.199   6.296   1.672  1.7553 -0.9640 -0.3052
 1390TIP3    H2 4135   5.129   6.378   1.565 -0.7497 -1.8047  0.6193
 1391TIP3   OH2 4136   2.290   3.041   2.284  0.6049 -0.2904  0.3601
 1391TIP3    H1 4137   2.365   3.090   2.318  0.4067 -0.2804  0.8008
 1391TIP3    H2 4138   2.236   3.107   2.240 -0.0188  0.0421  1.5658
 1392TIP3   OH2 4139   4.520   3.654   2.793 -0.5203 -0.3264 -0.3162
 1392TIP3    H1 4140   4.439   3.705   2.783 -0.1179  0.5311  0.6464
 1392TIP3    H2 4141   4.588   3.720   2.806 -0.0143 -1.0943  1.1448
 1393TIP3   OH2 4142   5.632   6.028   4.090 -0.0372  0.0042  0.0706
 1393TIP3    H1 4143   5.650   6.026   3.996  0.4828  0.4746  0.1535
 1393TIP3    H2 4144   5.536   6.029   4.096 -0.0737 -0.3792 -0.4434
 1394TIP3   OH2 4145   0.455   3.793   4.405  0.7835 -0.2006  0.5107
 1394TIP3    H1 4146   0.523   3.858   4.384  0.4328  0.2990  0.8926
 1394TIP3    H2 4147   0.388   3.843   4.451  0.2305 -0.7249  0.2850
 1395TIP3   OH2 4148   0.969   3.410   4.799 -0.1561 -0.0859  0.0986
 1395TIP3    H1 4149   0.967   3.495   4.754  2.7465  0.4633  0.7805
 1395TIP3    H2 4150   0.881   3.374   4.787 -0.9242  2.1693 -1.8177
 1396TIP3   OH2 4151   0.569   2.616   1.407 -0.1834 -0.1592  0.5476
 1396TIP3    H1 4152   0.627   2.543   1.429 -1.4181 -0.5260  2.8865
 1396TIP3    H2 4153   0.495   2.607   1.466 -2.5841  0.4288 -2.1160
 1397TIP3   OH2 4154   3.528   1.554   0.815  0.2399 -0.1582 -0.0997
 1397TIP3    H1 4155   3.559   1.486   0.874 -1.3785  0.6438  1.7894
 1397TIP3    H2 4156   3.456   1.514   0.767 -3.0335  0.8939  3.3877
 1398TIP3   OH2 4157   1.155   4.297   2.079 -0.4092 -0.4983  0.0509
 1398TIP3    H1 4158   1.215   4.329   2.146 -0.8133  1.9520 -0.6513
 1398TIP3    H2 4159   1.204   4.307   1.997 -1.1010 -0.2992 -0.3426
 1399TIP3   OH2 4160   5.656   2.768   0.976 -0.3195  0.0324 -0.1067
 1399TIP3    H1 4161   5.638   2.740   0.887 -1.0570 -0.7926  0.2874
 1399TIP3    H2 4162   5.713   2.845   0.966 -0.9881  0.3998 -1.2921
 1400TIP3   OH2 4163   3.831   4.928   1.972 -0.2731 -0.5447 -0.0551
 1400TIP3    H1 4164   3.898   4.861   1.988 -0.5173 -0.5177  1.1353
 1400TIP3    H2 4165   3.879   5.002   1.936  0.6576  0.1100  2.3524
 1401TIP3   OH2 4166   2.481   0.882   3.468  0.2523 -0.0515  0.1073
 1401TIP3    H1 4167   2.402   0.921   3.429  0.5243  0.0266 -0.3747
 1401TIP3    H2 4168   2.491   0.799   3.421 -0.7428 -1.0860  1.6252
 1402TIP3   OH2 4169   5.603   3.081   5.805 -0.1002  0.0607  0.3162
 1402TIP3    H1 4170   5.564   3.034   5.732 -0.0758 -1.8746  1.4788
 1402TIP3    H2 4171   5.696   3.088   5.782  0.4580 -2.8940  1.2014
 1403TIP3   OH2 4172   6.707   2.092   1.602  0.3300 -0.7039 -0.2193
 1403TIP3    H1 4173   6.642   2.115   1.668  1.5137  0.5197  0.5689
 1403TIP3    H2 4174   6.726   1.999   1.619 -0.4343 -0.7989  0.1842
 1404TIP3   OH2 4175   2.557   6.356   1.525 -0.0542 -0.1578  0.6451
 1404TIP3    H1 4176   2.462   6.364   1.535 -0.1278 -0.0427 -0.1049
 1404TIP3    H2 4177   2.569   6.280   1.470  0.2853 -0.0631  0.5898
 1405TIP3   OH2 4178   1.892   0.094   4.917  0.3896  0.0672  0.2591
 1405TIP3    H1 4179   1.880   0.144   4.998  5.2702  2.4907 -0.1698
 1405TIP3    H2 4180   1.957   0.027   4.939  0.0220 -0.7822 -1.1171
 1406TIP3   OH2 4181   2.801   0.859   5.319  0.1061 -0.0204  0.3747
 1406TIP3    H1 4182   2.789   0.765   5.305  1.8885 -0.3037  0.4609
 1406TIP3    H2 4183   2.846   0.889   5.240  0.8036  0.4671  0.9441
 1407TIP3   OH2 4184   2.145   5.670   0.072 -0.8705 -0.1212 -0.6407
 1407TIP3    H1 4185   2.128   5.731   0.145  0.8672 -1.6927  1.1788
 1407TIP3    H2 4186   2.226   5.702   0.033 -0.0334 -1.1219  0.2265
 1408TIP3   OH2 4187   2.073   4.856   2.337  0.2162 -0.1146 -0.2760
 1408TIP3    H1 4188   2.136   4.925   2.317 -0.0082  0.4728  0.9827
 1408TIP3    H2 4189   2.125   4.777   2.348  0.5311 -0.0399 -1.1279
 1409TIP3   OH2 4190   3.399   1.179   5.463 -0.8636  0.0032  0.2498
 1409TIP3    H1 4191   3.397   1.273   5.448 -1.2338  0.0362  0.4848
 1409TIP3    H2 4192   3.421   1.170   5.556  1.2197 -0.1921 -0.2222
 1410TIP3   OH2 4193   0.826   5.849   4.109  0.3636  0.4606 -0.3719
 1410TIP3    H1 4194   0.732   5.860   4.099  0.5563  1.8656 -0.8776
 1410TIP3    H2 4195   0.854   5.805   4.029 -0.1388 -2.1740  0.7849
 1411TIP3   OH2 4196   1.802   1.342   2.155 -0.1472 -0.2022  0.2332
 1411TIP3    H1 4197   1.770   1.432   2.144  0.2590 -0.0329  0.4182
 1411TIP3    H2 4198   1.767   1.314   2.239  0.6946  0.2038  0.7275
 1412TIP3   OH2 4199   5.245   2.432   2.758  0.3188  0.1733  0.2117
 1412TIP3    H1 4200   5.205   2.351   2.726  0.9883  0.0009 -0.2008
 1412TIP3    H2 4201   5.306   2.404   2.826 -0.0605  0.4110  0.6512
 1413TIP3   OH2 4202   4.083   2.563   1.130  0.4026 -0.1883 -0.5081
 1413TIP3    H1 4203   4.013   2.498   1.125  1.5740 -1.4933 -0.4295
 1413TIP3    H2 4204   4.047   2.640   1.086 -0.9755 -0.9187 -0.7158
 1414TIP3   OH2 4205   4.198   6.738   4.523 -0.5771 -0.2536  0.7307
 1414TIP3    H1 4206   4.245   6.821   4.524 -0.2002 -0.4373  2.9358
 1414TIP3    H2 4207   4.107   6.762   4.511 -0.7288  0.7118  3.2191
 1415TIP3   OH2 4208   0.656   0.708   5.349 -0.2797 -0.2396  0.3712
 1415TIP3    H1 4209   0.582   0.749   5.394  0.9022 -0.1553  2.3996
 1415TIP3    H2 4210   0.722   0.778   5.344 -0.5586 -0.0772 -2.1298
 1416TIP3   OH2 4211   7.076   6.096   3.745  0.4552  0.2130 -0.1483
 1416TIP3    H1 4212   7.053   6.183   3.780 -0.3167  0.0928 -0.3293
 1416TIP3    H2 4213   6.991   6.057   3.721  0.9205  0.1128 -1.7377
 1417TIP3   OH2 4214   1.385   4.891   2.803 -0.2686 -0.2030  0.2907
 1417TIP3    H1 4215   1.294   4.917   2.789 -0.6729 -1.7701 -0.2433
 1417TIP3    H2 4216   1.381   4.796   2.813  1.1869 -0.1802  1.4304
 1418TIP3   OH2 4217   2.864   2.467   2.061  0.3227 -0.4025  0.2777
 1418TIP3    H1 4218   2.829   2.547   2.020  1.9730  0.6077  0.7707
 1418TIP3    H2 4219   2.914   2.498   2.136 -0.1114 -2.0263  1.2930
 1419TIP3   OH2 4220   1.957   3.208   2.384 -0.0395 -0.1860  0.4664
 1419TIP3    H1 4221   2.019   3.201   2.311 -0.0463  0.5299  0.3848
 1419TIP3    H2 4222   1.897   3.135   2.371 -1.5127  1.2838 -1.6617
 1420TIP3   OH2 4223   4.347   2.548   1.140  0.0614  0.4044  0.1588
 1420TIP3    H1 4224   4.253   2.562   1.128  0.4524  1.6391 -2.0084
 1420TIP3    H2 4225   4.358   2.453   1.131 -1.3160 -0.3234  4.0611
 1421TIP3   OH2 4226   5.737   5.893   2.649  0.4775  0.1101  0.8346
 1421TIP3    H1 4227   5.727   5.986   2.671 -2.2947 -0.1708  1.1647
 1421TIP3    H2 4228   5.729   5.890   2.554  1.9373  0.3060  0.6870
 1422TIP3   OH2 4229   3.333   5.368   0.322  0.6708 -0.2926 -0.3332
 1422TIP3    H1 4230   3.330   5.311   0.245  2.9343  2.1708 -2.4335
 1422TIP3    H2 4231   3.254   5.420   0.317  1.7407  1.2670 -2.3036
 1423TIP3   OH2 4232   5.721   3.517   4.843 -0.0446  0.0748  0.1459
 1423TIP3    H1 4233   5.630   3.532   4.817 -0.1647 -0.7230  0.0799
 1423TIP3    H2 4234   5.743   3.593   4.897 -1.3845 -0.6509  1.8097
 1424TIP3   OH2 4235   4.840   6.078   5.196 -0.2928 -0.3018 -0.2698
 1424TIP3    H1 4236   4.876   6.121   5.274 -1.2624  1.2058 -0.6080
 1424TIP3    H2 4237   4.745   6.094   5.202 -0.3230  0.4457 -2.0830
 1425TIP3   OH2 4238   2.731   4.381   5.002  0.1218  0.7578  0.4065
 1425TIP3    H1 4239   2.638   4.405   5.001  0.1501  0.9232  1.3426
 1425TIP3    H2 4240   2.752   4.364   4.910 -0.7305  1.1200  0.1364
 1426TIP3   OH2 4241   2.596   1.868   0.366 -0.4001 -0.1171  0.7284
 1426TIP3    H1 4242   2.531   1.855   0.435  2.0626  2.3154  3.8375
 1426TIP3    H2 4243   2.646   1.787   0.364 -3.8159 -2.4649 -2.4588
 1427TIP3   OH2 4244   4.551   0.548   4.049  0.3041 -0.3524  0.0828
 1427TIP3    H1 4245   4.505   0.513   3.973  1.3261 -0.4665 -0.4931
 1427TIP3    H2 4246   4.506   0.630   4.069  1.6557  1.0651 -2.2991
 1428TIP3   OH2 4247   7.044   3.365   4.988  0.4901 -0.1205  0.3763
 1428TIP3    H1 4248   7.063   3.452   5.024  3.7048 -0.5292 -0.0061
 1428TIP3    H2 4249   7.036   3.308   5.064 -1.2230  0.3803  0.6120
 1429TIP3   OH2 4250   2.224   0.941   1.934  0.0335 -0.0656 -0.2986
 1429TIP3    H1 4251   2.147   0.961   1.881 -0.8340 -2.7547 -0.2063
 1429TIP3    H2 4252   2.204   0.976   2.021  0.4124  2.1756 -1.0500
 1430TIP3   OH2 4253   4.218   3.231   5.446 -0.2926 -0.2097 -0.3323
 1430TIP3    H1 4254   4.150   3.180   5.402 -1.0836  0.3409  0.2187
 1430TIP3    H2 4255   4.246   3.295   5.381 -2.3928  1.4703  0.2966
 1431TIP3   OH2 4256   5.551   5.285   4.984 -0.0439 -0.4916 -0.3180
 1431TIP3    H1 4257   5.549   5.317   4.894 -1.1708 -0.8381 -0.4437
 1431TIP3    H2 4258   5.537   5.362   5.038  0.3350 -0.3279 -0.4508
 1432TIP3   OH2 4259   4.236   3.997   1.744  0.2464 -0.5389  0.0559
 1432TIP3    H1 4260   4.300   4.062   1.771 -0.3042 -0.2390  0.6656
 1432TIP3    H2 4261   4.186   3.977   1.823  0.6114 -1.9557 -0.0379
 1433TIP3   OH2 4262   2.589   6.003   4.351 -0.3779 -0.1823 -0.0696
 1433TIP3    H1 4263   2.513   6.038   4.396  0.1722  0.2129  0.5801
 1433TIP3    H2 4264   2.615   5.927   4.404  0.7045  0.7125  0.7375
 1434TIP3   OH2 4265   5.631   0.776   1.485 -0.2354  0.0051  0.4202
 1434TIP3    H1 4266   5.561   0.806   1.427  0.9083 -0.5630 -1.3375
 1434TIP3    H2 4267   5.693   0.849   1.487 -0.3125  0.0592  1.0408
 1435TIP3   OH2 4268   5.890   6.119   5.357 -0.6739  0.4485  0.7592
 1435TIP3    H1 4269   5.952   6.190   5.340  1.0724 -1.0052  0.7361
 1435TIP3    H2 4270   5.897   6.061   5.281 -1.4198 -0.1948  1.1562
 1436TIP3   OH2 4271   5.198   1.180   1.353 -0.7401  0.0826  0.2337
 1436TIP3    H1 4272   5.136   1.253   1.355 -0.8192  0.0063  1.0466
 1436TIP3    H2 4273   5.146   1.104   1.325 -1.2721 -0.1918  1.8555
 1437TIP3   OH2 4274   0.166   4.635   0.245  0.7849 -0.0069 -0.0422
 1437TIP3    H1 4275   0.227   4.671   0.180  0.9816 -0.0243  0.1304
 1437TIP3    H2 4276   0.083   4.625   0.198  0.7575  0.5697 -0.1206
 1438TIP3   OH2 4277   4.009   4.845   5.383 -0.1342  0.0759 -0.2558
 1438TIP3    H1 4278   4.057   4.845   5.301 -0.2229  0.2040 -0.3087
 1438TIP3    H2 4279   3.963   4.929   5.384  1.6969  1.1278  1.0155
 1439TIP3   OH2 4280   0.268   2.561   2.525  0.4109  0.1072 -0.3422
 1439TIP3    H1 4281   0.215   2.519   2.457 -0.8855  0.5318  0.3635
 1439TIP3    H2 4282   0.276   2.495   2.594 -2.6192  1.2313  1.2894
 1440TIP3   OH2 4283   3.138   1.199   3.880 -0.8943  0.1608  0.3657
 1440TIP3    H1 4284   3.190   1.194   3.960 -0.4631  0.0889  0.0853
 1440TIP3    H2 4285   3.169   1.279   3.837 -0.2656 -0.4269 -0.3105
 1441TIP3   OH2 4286   0.057   5.071   5.062 -0.1836 -0.1420  0.1706
 1441TIP3    H1 4287   0.066   5.155   5.016  2.2549 -0.0609  0.6722
 1441TIP3    H2 4288   0.044   5.095   5.153  1.0425 -0.2620  0.3979
 1442TIP3   OH2 4289   2.716   1.750   3.211 -0.6339  0.4913 -0.0241
 1442TIP3    H1 4290   2.809   1.737   3.192  0.0199  1.5008  2.1482
 1442TIP3    H2 4291   2.670   1.691   3.150  1.4856 -1.2823 -0.0133
 1443TIP3   OH2 4292   5.142   0.978   2.660  0.3709 -0.4999 -0.2485
 1443TIP3    H1 4293   5.189   1.011   2.736 -1.6158  0.5440  0.6208
 1443TIP3    H2 4294   5.137   0.884   2.673 -0.5148 -0.2711  1.3047
 1444TIP3   OH2 4295   0.579   5.947   2.004  0.2048  0.0814 -0.1979
 1444TIP3    H1 4296   0.673   5.952   1.990  0.2830 -1.2431 -0.3164
 1444TIP3    H2 4297   0.566   5.868   2.058 -0.6344  1.6530  2.0584
 1445TIP3   OH2 4298   5.869   0.236   2.615  0.0337 -0.3899 -0.1133
 1445TIP3    H1 4299   5.814   0.173   2.569  0.8304 -2.5357  1.6776
 1445TIP3    H2 4300   5.821   0.256   2.695  0.6738 -0.2377  0.2388
 1446TIP3   OH2 4301   1.296   4.367   1.852  0.2108 -0.2024 -0.5379
 1446TIP3    H1 4302   1.372   4.361   1.909 -0.4584 -0.4615  0.3593
 1446TIP3    H2 4303   1.304   4.293   1.792 -0.4090 -1.5308  0.9357
 1447TIP3   OH2 4304   0.362   0.785   1.394  0.1554 -0.3692  0.7250
 1447TIP3    H1 4305   0.334   0.863   1.348 -0.3086 -1.0962 -0.2625
 1447TIP3    H2 4306   0.285   0.728   1.394  0.0765 -0.3245  2.5911
 1448TIP3   OH2 4307   0.024   5.075   4.374  0.4497  0.8703 -0.1430
 1448TIP3    H1 4308   0.082   5.035   4.438  1.2091  1.8354 -0.1960
 1448TIP3    H2 4309   0.064   5.054   4.289  0.2331  0.7906 -0.2268
 1449TIP3   OH2 4310   0.638   1.009   2.287  0.0920 -0.3157  0.1096
 1449TIP3    H1 4311   0.586   0.945   2.238 -1.3884  0.1456  1.0224
 1449TIP3    H2 4312   0.592   1.018   2.371  2.0061 -0.3539  1.2240
 1450TIP3   OH2 4313   3.958   5.441   1.299  0.0541  0.2318 -0.2153
 1450TIP3    H1 4314   3.972   5.488   1.381 -1.2361  0.4740 -0.1045
 1450TIP3    H2 4315   3.899   5.497   1.248  0.4646 -0.1299 -1.1222
 1451TIP3   OH2 4316   4.936   0.290   3.741 -0.2577  0.0827 -0.4671
 1451TIP3    H1 4317   4.859   0.315   3.792  1.1268  1.0964  1.2162
 1451TIP3    H2 4318   4.934   0.194   3.741 -1.6652  0.0928 -0.7200
 1452TIP3   OH2 4319   2.127   4.395   1.464 -0.8220 -0.3145  0.2992
 1452TIP3    H1 4320   2.201   4.396   1.525 -0.1001  1.0972 -0.5452
 1452TIP3    H2 4321   2.063   4.337   1.505 -0.0898  0.0631  2.0834
 1453TIP3   OH2 4322   5.003   4.846   2.259  0.1948 -0.1035  0.3548
 1453TIP3    H1 4323   5.082   4.818   2.306  0.5442 -1.0327 -0.7416
 1453TIP3    H2 4324   4.988   4.936   2.288  2.1680  0.4016 -0.0751
 1454TIP3   OH2 4325   0.974   5.862   3.656 -0.0501  0.7665 -0.5225
 1454TIP3    H1 4326   0.924   5.943   3.671 -0.4395  0.3587  0.4761
 1454TIP3    H2 4327   1.065   5.890   3.657 -0.1167  1.0462  1.0676
 1455TIP3   OH2 4328   5.090   5.430   3.553 -0.5768  0.2601 -0.4735
 1455TIP3    H1 4329   5.077   5.515   3.594 -0.4541 -0.2163  0.6170
 1455TIP3    H2 4330   5.181   5.429   3.526 -0.5506  0.4372 -0.3924
 1456TIP3   OH2 4331   6.605   3.745   2.914 -0.7209 -0.0935  0.2455
 1456TIP3    H1 4332   6.691   3.787   2.919 -0.1239 -1.4383  2.2435
 1456TIP3    H2 4333   6.602   3.686   2.989 -3.5854  0.2159  0.4710
 1457TIP3   OH2 4334   2.050   2.202   4.304 -0.1341 -0.4187 -0.1647
 1457TIP3    H1 4335   2.099   2.274   4.263 -2.1827  0.3460 -1.4062
 1457TIP3    H2 4336   1.962   2.209   4.267 -1.3706 -1.3883  2.3576
 1458TIP3   OH2 4337   3.798   3.344   2.322 -0.0472  0.4150 -0.1728
 1458TIP3    H1 4338   3.795   3.426   2.371  0.2197  0.1504  0.2866
 1458TIP3    H2 4339   3.885   3.344   2.281 -0.0655  0.3796 -0.2119
 1459TIP3   OH2 4340   3.644   2.306   5.193 -0.3978  0.0373 -1.1542
 1459TIP3    H1 4341   3.625   2.345   5.278 -0.3280 -0.6093 -0.8370
 1459TIP3    H2 4342   3.599   2.363   5.130 -1.2983 -0.0409 -0.6081
 1460TIP3   OH2 4343   0.283   5.942   3.804  0.2184 -0.1424  0.1055
 1460TIP3    H1 4344   0.202   5.961   3.851 -1.0506 -2.0872 -1.1318
 1460TIP3    H2 4345   0.352   5.947   3.870 -1.4267 -2.5035  2.1774
 1461TIP3   OH2 4346   0.395   5.221   4.174 -0.3060  0.0885 -0.0230
 1461TIP3    H1 4347   0.312   5.255   4.207  0.0404  0.7635  0.1669
 1461TIP3    H2 4348   0.443   5.196   4.253  0.4950  1.6334  0.0064
 1462TIP3   OH2 4349   4.802   0.214   1.743 -0.2563 -0.2089  0.3221
 1462TIP3    H1 4350   4.721   0.175   1.711  0.6028 -0.6273 -1.4325
 1462TIP3    H2 4351   4.870   0.149   1.724  0.2611 -0.8543  3.7502
 1463TIP3   OH2 4352   4.589   0.023   1.977  0.1763  0.2303 -0.0727
 1463TIP3    H1 4353   4.601   0.117   1.993 -0.9039  0.2387  0.7696
 1463TIP3    H2 4354   4.656  -0.019   2.030 -0.7512  0.4510  1.3445
 1464TIP3   OH2 4355   2.072   3.710   0.867  0.9965  0.4771 -0.2900
 1464TIP3    H1 4356   2.165   3.722   0.851  0.8657  0.8106 -0.8285
 1464TIP3    H2 4357   2.063   3.619   0.894  1.2803 -0.0476 -1.8549
 1465TIP3   OH2 4358   0.954   2.242   2.647 -0.6287 -0.2354 -0.6235
 1465TIP3    H1 4359   0.899   2.253   2.569  0.8876 -0.9035 -1.8404
 1465TIP3    H2 4360   1.035   2.203   2.614  0.1871 -0.2417  1.2576
 1466TIP3   OH2 4361   5.487   5.203   5.535  0.0907  0.1894 -0.0259
 1466TIP3    H1 4362   5.442   5.270   5.484 -0.0647  0.7910  0.8740
 1466TIP3    H2 4363   5.490   5.239   5.624  0.4894 -0.7615  0.3570
 1467TIP3   OH2 4364   5.449   6.480   1.079  0.4201  0.1981  0.6519
 1467TIP3    H1 4365   5.543   6.502   1.077  1.3827 -3.3208  0.9838
 1467TIP3    H2 4366   5.419   6.513   1.164  1.2954  1.4586  0.5093
 1468TIP3   OH2 4367   0.443   4.140   3.838  0.2611  0.0230  0.0123
 1468TIP3    H1 4368   0.408   4.208   3.780 -0.7400 -1.2615 -0.9427
 1468TIP3    H2 4369   0.514   4.100   3.788  0.7034  0.2044  0.4855
 1469TIP3   OH2 4370   7.121   0.033   1.970 -0.2606  0.3578  0.2813
 1469TIP3    H1 4371   7.132   0.128   1.973 -0.2895  0.3782 -0.1268
 1469TIP3    H2 4372   7.208  -0.002   1.991 -0.4471  0.4573  1.2637
 1470TIP3   OH2 4373   4.093   3.583   0.185  0.2372  0.0925  0.4146
 1470TIP3    H1 4374   4.089   3.566   0.091  0.5788 -1.5936  0.6719
 1470TIP3    H2 4375   4.099   3.496   0.225 -2.0918  0.6320  2.1414
 1471TIP3   OH2 4376   1.603   5.899   1.168  0.9152  0.0167  0.0220
 1471TIP3    H1 4377   1.536   5.861   1.111  0.2439 -0.8398  1.3386
 1471TIP3    H2 4378   1.591   5.855   1.252  1.9768  1.1496  0.7992
 1472TIP3   OH2 4379   4.189   2.871   1.918  0.6994 -0.5229  0.2980
 1472TIP3    H1 4380   4.097   2.867   1.944  0.7516 -1.0283  0.4170
 1472TIP3    H2 4381   4.194   2.817   1.839  0.7535  0.1116 -0.1381
 1473TIP3   OH2 4382   2.240   2.887   2.997 -0.0759 -0.3627  0.0081
 1473TIP3    H1 4383   2.192   2.829   2.940 -1.8976 -0.0180  1.1236
 1473TIP3    H2 4384   2.229   2.974   2.959  2.1189 -0.5818 -1.3076
 1474TIP3   OH2 4385   1.459   1.925   5.002 -0.3426 -0.3512  0.2845
 1474TIP3    H1 4386   1.515   1.973   5.062 -2.1231  1.8606  0.2875
 1474TIP3    H2 4387   1.371   1.937   5.036 -1.2411 -0.3507 -1.8902
 1475TIP3   OH2 4388   6.313   6.551   1.920  0.0001 -0.1308 -0.7161
 1475TIP3    H1 4389   6.252   6.536   1.847  0.8929  0.2863 -1.5636
 1475TIP3    H2 4390   6.399   6.554   1.879  0.5307 -0.0061  0.3845
 1476TIP3   OH2 4391   6.992   3.040   2.611 -0.6701 -0.5741 -0.4340
 1476TIP3    H1 4392   7.065   2.982   2.590  0.3329  0.3904  0.3244
 1476TIP3    H2 4393   6.970   3.019   2.702 -1.2069 -0.7124 -0.5930
 1477TIP3   OH2 4394   1.793   2.246   4.209  0.5779  0.4479 -0.6410
 1477TIP3    H1 4395   1.741   2.240   4.128  0.0574  2.0723 -0.4756
 1477TIP3    H2 4396   1.739   2.203   4.275  0.0506  0.9104 -0.7587
 1478TIP3   OH2 4397   2.951   0.509   3.891  0.4148  0.0134  0.3557
 1478TIP3    H1 4398   2.939   0.545   3.978  1.6748 -1.8399  1.3664
 1478TIP3    H2 4399   2.996   0.578   3.842  0.2552  0.8441  1.3471
 1479TIP3   OH2 4400   0.583   2.053   4.311 -0.0414 -0.4500  0.3755
 1479TIP3    H1 4401   0.499   2.098   4.316 -0.6158 -1.5418  1.1772
 1479TIP3    H2 4402   0.601   2.026   4.402 -0.1212 -2.4784 -0.1591
 1480TIP3   OH2 4403   2.184   5.528   4.570 -0.1059  0.2191  0.0217
 1480TIP3    H1 4404   2.246   5.562   4.635  1.2724 -0.7593 -0.7106
 1480TIP3    H2 4405   2.129   5.468   4.618  0.0606  0.4693  0.5325
 1481TIP3   OH2 4406   6.415   4.105   4.385  0.2916  0.4747 -0.1624
 1481TIP3    H1 4407   6.414   4.045   4.310 -1.4109 -2.2421  1.8738
 1481TIP3    H2 4408   6.480   4.069   4.445  0.1559  1.4239  0.5896
 1482TIP3   OH2 4409   3.463   4.691   2.615 -0.0656  0.2830 -0.2100
 1482TIP3    H1 4410   3.379   4.671   2.574 -0.1511  0.2908 -0.0422
 1482TIP3    H2 4411   3.477   4.784   2.597  0.1016  0.1844 -0.5831
 1483TIP3   OH2 4412   3.107   1.355   4.823  0.3571  0.3458 -0.3439
 1483TIP3    H1 4413   3.045   1.335   4.752 -1.2043  1.3043  0.6960
 1483TIP3    H2 4414   3.180   1.397   4.778  0.6860 -1.5457 -1.7132
 1484TIP3   OH2 4415   5.459   5.011   1.506 -0.7310 -0.3826  0.5897
 1484TIP3    H1 4416   5.431   5.088   1.456  0.2180 -0.6202 -0.3372
 1484TIP3    H2 4417   5.409   5.016   1.588  1.2425  2.7342  1.7982
 1485TIP3   OH2 4418   4.785   3.890   2.646 -0.0141 -0.5960  0.7392
 1485TIP3    H1 4419   4.719   3.890   2.577  1.4182 -0.4298 -0.6955
 1485TIP3    H2 4420   4.830   3.974   2.636  2.0960 -1.7361 -0.0682
 1486TIP3   OH2 4421   5.671   2.803   1.514  0.3270 -0.0556 -0.2277
 1486TIP3    H1 4422   5.691   2.896   1.528  0.0492 -0.0123 -0.1074
 1486TIP3    H2 4423   5.579   2.802   1.486  0.1071 -0.3405  0.4568
 1487TIP3   OH2 4424   5.311   1.481   0.412  0.2118 -0.1569 -0.5500
 1487TIP3    H1 4425   5.231   1.428   0.412 -1.2508  1.9173 -1.1395
 1487TIP3    H2 4426   5.357   1.454   0.492 -1.6513 -0.6365  0.4272
 1488TIP3   OH2 4427   5.253   0.918   3.356 -0.3962 -0.0186  0.4262
 1488TIP3    H1 4428   5.309   0.870   3.295 -0.1320  0.9138 -0.0830
 1488TIP3    H2 4429   5.294   0.904   3.441  0.1973  0.0506  0.1573
 1489TIP3   OH2 4430   4.897   1.801   4.817 -0.2925 -0.1714 -0.3775
 1489TIP3    H1 4431   4.964   1.786   4.751 -0.0901 -0.6151 -0.0769
 1489TIP3    H2 4432   4.831   1.854   4.772  0.3411  0.4301 -0.6215
 1490TIP3   OH2 4433   3.306   5.718   5.880  0.3396 -0.3406  0.1809
 1490TIP3    H1 4434   3.289   5.623   5.881  0.7699 -0.4269 -0.2085
 1490TIP3    H2 4435   3.224   5.756   5.851 -0.1945 -0.5050  1.4150
 1491TIP3   OH2 4436   4.080   3.922   4.669  0.3024 -0.7982 -0.2018
 1491TIP3    H1 4437   4.014   3.968   4.719  1.4414  1.7228 -0.8701
 1491TIP3    H2 4438   4.045   3.919   4.580  2.0322  3.0588 -1.2297
 1492TIP3   OH2 4439   5.703   4.026   1.932 -0.0560  0.0227  0.4667
 1492TIP3    H1 4440   5.790   4.007   1.897 -0.0743  1.7565 -0.6703
 1492TIP3    H2 4441   5.656   3.943   1.925 -0.0443  0.1406 -3.7960
 1493TIP3   OH2 4442   6.355   4.283   5.890 -0.1146 -0.6277 -0.5763
 1493TIP3    H1 4443   6.373   4.320   5.804  0.1383 -0.5027 -0.4687
 1493TIP3    H2 4444   6.293   4.212   5.873  0.4029 -0.9946 -0.9281
 1494TIP3   OH2 4445   5.380   3.665   5.454  0.1194 -0.0546  0.4414
 1494TIP3    H1 4446   5.313   3.685   5.519 -0.6398  0.5205 -0.4928
 1494TIP3    H2 4447   5.342   3.597   5.399  0.6902 -0.4278  0.5004
 1495TIP3   OH2 4448   0.199   4.304   3.983  0.4661  0.6898 -0.1176
 1495TIP3    H1 4449   0.220   4.377   3.925  0.0389  0.6130 -0.3719
 1495TIP3    H2 4450   0.172   4.233   3.924  1.2559  0.1897  0.0969
 1496TIP3   OH2 4451   1.769   0.918   3.925 -0.6035 -0.3358 -0.4979
 1496TIP3    H1 4452   1.726   0.839   3.955 -1.0192 -0.3719 -1.1813
 1496TIP3    H2 4453   1.854   0.917   3.969 -0.5772 -1.1901 -0.5592
 1497TIP3   OH2 4454   6.252   4.192   1.152  0.3430  0.3451 -0.2282
 1497TIP3    H1 4455   6.249   4.227   1.063  1.1861  0.9278 -0.0434
 1497TIP3    H2 4456   6.230   4.099   1.142  0.8284  0.3109 -1.1010
 1498TIP3   OH2 4457   0.099   6.149   4.905 -0.0641  0.0950  0.1394
 1498TIP3    H1 4458   0.079   6.130   4.996 -1.1514  0.3638 -0.0256
 1498TIP3    H2 4459   0.014   6.143   4.860  0.3113  0.7765 -0.6986
 1499TIP3   OH2 4460   7.108   6.402   2.739  0.3524 -0.1960 -0.6505
 1499TIP3    H1 4461   7.079   6.398   2.648 -0.5285  0.2677 -0.3988
 1499TIP3    H2 4462   7.036   6.364   2.789 -0.1915  1.6699  0.0624
 1500TIP3   OH2 4463   6.720   3.933   4.526  0.2752 -0.3683  0.0155
 1500TIP3    H1 4464   6.746   3.876   4.598  0.2459  1.3874  1.4924
 1500TIP3    H2 4465   6.654   3.991   4.564 -0.6022 -0.1333 -1.7588
 1501TIP3   OH2 4466   0.815   5.186   2.921  0.3408  0.3617  0.9479
 1501TIP3    H1 4467   0.811   5.266   2.868 -0.6126  0.9849  1.9154
 1501TIP3    H2 4468   0.724   5.160   2.932  0.6771 -1.6209 -0.4027
 1502TIP3   OH2 4469   1.462   5.057   3.126  0.1649  0.4705 -0.1459
 1502TIP3    H1 4470   1.397   5.002   3.081  0.1099  0.6371 -0.2711
 1502TIP3    H2 4471   1.532   5.069   3.062 -0.3409  1.4831 -0.5334
 1503TIP3   OH2 4472   5.408   1.473   5.049  0.4724  0.3971  0.0283
 1503TIP3    H1 4473   5.350   1.420   5.104  0.0954  0.2303 -0.5107
 1503TIP3    H2 4474   5.462   1.409   5.003  0.8220  0.5372  0.2384
 1504TIP3   OH2 4475   1.063   6.707   5.895 -0.6197 -0.7214 -0.2665
 1504TIP3    H1 4476   1.023   6.656   5.825  0.0587  1.0901 -2.0761
 1504TIP3    H2 4477   1.128   6.762   5.851 -1.9530  2.3840  1.3687
 1505TIP3   OH2 4478   7.063   3.903   3.522  0.4693 -0.1261  0.7872
 1505TIP3    H1 4479   7.096   3.873   3.437  0.3237  0.4494  0.5195
 1505TIP3    H2 4480   7.063   3.998   3.515 -1.3697 -0.1036  0.7444
 1506TIP3   OH2 4481   1.448   3.738   0.245  0.1879 -0.2577 -0.7211
 1506TIP3    H1 4482   1.397   3.660   0.267  3.0517 -2.1695 -0.2480
 1506TIP3    H2 4483   1.459   3.733   0.150  0.9318 -0.8606 -0.6144
 1507TIP3   OH2 4484   1.564   5.146   0.880  0.1100  0.2965  0.0403
 1507TIP3    H1 4485   1.515   5.067   0.900  2.1656 -1.4499 -1.4272
 1507TIP3    H2 4486   1.629   5.152   0.950  0.9174 -0.1984 -0.6491
 1508TIP3   OH2 4487   4.870   6.308   5.017 -0.6249  0.1748 -0.3318
 1508TIP3    H1 4488   4.957   6.341   4.994 -0.9236  0.7969 -0.5789
 1508TIP3    H2 4489   4.887   6.224   5.059 -0.0236 -0.6267 -2.1012
 1509TIP3   OH2 4490   3.138   3.023   1.269  0.5021 -0.1911 -0.2996
 1509TIP3    H1 4491   3.193   2.962   1.220  0.3547  0.6354 -1.5267
 1509TIP3    H2 4492   3.186   3.106   1.266 -0.2293  0.2326 -0.3262
 1510TIP3   OH2 4493   0.827   0.155   2.808  0.0692 -0.3319 -0.0900
 1510TIP3    H1 4494   0.824   0.245   2.843 -1.4599 -0.9840  1.6242
 1510TIP3    H2 4495   0.818   0.100   2.886 -0.5189 -1.9542 -1.2693
 1511TIP3   OH2 4496   5.481   0.157   3.241  0.2848  0.3507 -0.2987
 1511TIP3    H1 4497   5.549   0.176   3.306 -0.7946  0.4420  0.8376
 1511TIP3    H2 4498   5.522   0.094   3.182  1.1729 -0.0445  0.6992
 1512TIP3   OH2 4499   3.395   0.233   4.886 -0.3268  0.0267 -0.1002
 1512TIP3    H1 4500   3.442   0.308   4.850 -0.4660  0.4226  0.5300
 1512TIP3    H2 4501   3.327   0.214   4.822 -1.1316  1.2777  0.3611
 1513TIP3   OH2 4502   6.525   1.800   2.986 -0.1130 -0.1417  0.3771
 1513TIP3    H1 4503   6.436   1.782   2.955 -0.8272  0.1626  2.1368
 1513TIP3    H2 4504   6.553   1.718   3.027  0.5920 -0.3582 -0.5025
 1514TIP3   OH2 4505   1.492   5.572   2.620  0.5646 -0.2719  0.1002
 1514TIP3    H1 4506   1.477   5.652   2.670  0.0921  0.4519 -1.1556
 1514TIP3    H2 4507   1.421   5.513   2.647 -1.7560  1.3092 -2.0733
 1515TIP3   OH2 4508   3.303   3.438   3.937  0.0940  0.1605 -0.2673
 1515TIP3    H1 4509   3.310   3.528   3.906  1.5109 -0.0508 -0.6068
 1515TIP3    H2 4510   3.250   3.394   3.870 -0.0811  0.5942 -0.4151
 1516TIP3   OH2 4511   0.210   0.983   1.759 -0.5470  0.0047 -0.1836
 1516TIP3    H1 4512   0.267   1.029   1.697 -0.6027 -0.2263 -0.4110
 1516TIP3    H2 4513   0.232   1.019   1.844  0.3129 -0.4483 -0.2018
 1517TIP3   OH2 4514   5.671   4.509   3.795  0.3282 -0.4373 -0.3960
 1517TIP3    H1 4515   5.735   4.569   3.756  0.8998 -0.5413  0.3752
 1517TIP3    H2 4516   5.694   4.505   3.888 -0.5370 -0.8080 -0.1851
 1518TIP3   OH2 4517   1.948   0.032   0.760 -0.3507 -0.5051  0.1070
 1518TIP3    H1 4518   2.024   0.084   0.733 -0.1478 -1.5542 -1.5287
 1518TIP3    H2 4519   1.984  -0.055   0.777 -0.9657 -0.6142  0.8536
 1519TIP3   OH2 4520   6.006   3.605   0.196 -0.3348  0.1225 -0.4397
 1519TIP3    H1 4521   5.978   3.695   0.214  0.3308  0.3211 -0.3716
 1519TIP3    H2 4522   5.985   3.592   0.103 -1.0073  0.1284 -0.2921
 1520TIP3   OH2 4523   2.436   0.871   2.249  0.8151  0.1229  0.0205
 1520TIP3    H1 4524   2.424   0.808   2.178  3.3780 -2.6013  1.7616
 1520TIP3    H2 4525   2.349   0.882   2.286 -0.2010 -0.0209 -2.1437
 1521TIP3   OH2 4526   6.470   2.997   4.771 -0.1727 -0.1031  0.5342
 1521TIP3    H1 4527   6.509   2.910   4.772  0.2060  0.0597  0.3631
 1521TIP3    H2 4528   6.537   3.053   4.810  0.9132  0.6450 -2.1756
 1522TIP3   OH2 4529   5.076   5.821   1.751  0.2555 -0.5102  0.8361
 1522TIP3    H1 4530   5.077   5.892   1.816 -0.3844 -0.1626  0.4792
 1522TIP3    H2 4531   5.118   5.858   1.674  1.7975 -1.2045  1.3189
 1523TIP3   OH2 4532   5.278   3.369   5.268 -0.3479  0.2626 -0.4263
 1523TIP3    H1 4533   5.203   3.381   5.326 -0.5803 -0.4862 -0.5611
 1523TIP3    H2 4534   5.294   3.275   5.268  0.5496  0.4010 -0.4580
 1524TIP3   OH2 4535   5.374   0.087   1.188  0.1351 -0.0804 -0.3088
 1524TIP3    H1 4536   5.390  -0.007   1.179  0.2980 -0.1658  0.7988
 1524TIP3    H2 4537   5.365   0.118   1.097 -0.7553 -1.2896 -0.6631
 1525TIP3   OH2 4538   1.604   5.237   2.845 -0.1286  0.1636  0.2409
 1525TIP3    H1 4539   1.642   5.150   2.832 -0.4937  0.1112 -0.5744
 1525TIP3    H2 4540   1.609   5.278   2.758 -2.1635  0.0500  0.0221
 1526TIP3   OH2 4541   5.966   4.127   1.853  0.3354  0.2136  0.4297
 1526TIP3    H1 4542   5.960   4.058   1.788  2.3551  0.3161  0.0404
 1526TIP3    H2 4543   6.061   4.137   1.867 -0.0241  0.1083  3.4819
 1527TIP3   OH2 4544   2.597   5.376   5.754 -0.1414 -0.1614 -0.1281
 1527TIP3    H1 4545   2.674   5.407   5.802  0.3976 -0.2334 -0.9172
 1527TIP3    H2 4546   2.593   5.433   5.676 -0.4627 -0.6244 -0.4553
 1528TIP3   OH2 4547   5.930   3.361   2.575  0.0770  0.2362 -0.3294
 1528TIP3    H1 4548   5.981   3.399   2.646 -0.4658 -1.6590  1.1648
 1528TIP3    H2 4549   5.989   3.301   2.531 -0.5181 -1.2029  0.7663
 1529TIP3   OH2 4550   6.463   6.480   0.616  0.6290  0.2328 -0.0897
 1529TIP3    H1 4551   6.441   6.436   0.533 -1.9529  0.3965  0.4114
 1529TIP3    H2 4552   6.461   6.410   0.681  1.3779  0.3236  0.0425
 1530TIP3   OH2 4553   0.418   4.925   2.609 -0.1624  0.0707  0.0568
 1530TIP3    H1 4554   0.381   5.013   2.619 -2.4399 -0.9031  0.8707
 1530TIP3    H2 4555   0.456   4.924   2.521 -2.2597  1.1467 -0.9169
 1531TIP3   OH2 4556   2.254   4.665   2.306  0.8117 -0.3726 -0.2146
 1531TIP3    H1 4557   2.269   4.597   2.241  1.9707  0.0550 -0.4066
 1531TIP3    H2 4558   2.340   4.684   2.342  0.8561  2.3961 -1.5604
 1532TIP3   OH2 4559   0.787   5.412   2.743 -0.0673  0.6147 -0.5201
 1532TIP3    H1 4560   0.697   5.431   2.715  0.5854  2.9169 -1.3421
 1532TIP3    H2 4561   0.832   5.496   2.736  1.9842 -0.3136  0.6047
 1533TIP3   OH2 4562   3.904   2.996   4.018 -0.2202 -0.3155 -0.0861
 1533TIP3    H1 4563   3.911   3.048   4.099  1.0869 -0.3192 -0.1732
 1533TIP3    H2 4564   3.980   3.022   3.967  0.0456 -1.7698 -0.4711
 1534TIP3   OH2 4565   6.769   0.466   0.592 -0.0348  0.3793  0.4471
 1534TIP3    H1 4566   6.716   0.527   0.541 -0.4274 -0.3389 -0.0274
 1534TIP3    H2 4567   6.724   0.460   0.676 -1.1704 -0.7745 -0.1916
 1535TIP3   OH2 4568   5.235   0.761   1.239 -0.0864 -0.3713 -0.8106
 1535TIP3    H1 4569   5.174   0.812   1.292  0.1830  1.1518 -1.9067
 1535TIP3    H2 4570   5.186   0.683   1.213 -1.2304  0.3643 -0.8864
 1536TIP3   OH2 4571   6.144   3.543   0.577 -0.6986  0.3455 -0.0029
 1536TIP3    H1 4572   6.052   3.518   0.586 -1.2578  2.1445 -0.3629
 1536TIP3    H2 4573   6.187   3.506   0.654 -1.1779 -2.6807 -1.0567
 1537TIP3   OH2 4574   4.732   3.742   3.257  1.0587  0.4972  0.3098
 1537TIP3    H1 4575   4.735   3.669   3.196 -1.6643  1.7130 -1.4849
 1537TIP3    H2 4576   4.805   3.798   3.232  0.8950  0.2182 -0.8509
 1538TIP3   OH2 4577   1.803   2.483   5.052  0.0813  0.4288  0.0759
 1538TIP3    H1 4578   1.820   2.571   5.020 -0.9782  1.1930  1.4901
 1538TIP3    H2 4579   1.886   2.457   5.094  0.8255  0.1902 -1.4726
 1539TIP3   OH2 4580   1.511   4.392   0.269  0.1833  0.1378 -0.2663
 1539TIP3    H1 4581   1.448   4.419   0.202  0.8972 -0.4771 -1.2008
 1539TIP3    H2 4582   1.545   4.475   0.304 -1.0185  0.4717  0.1490
 1540TIP3   OH2 4583   1.813   1.766   3.327  0.0075  0.2102 -0.0120
 1540TIP3    H1 4584   1.896   1.719   3.337  0.1299 -0.3243 -2.6818
 1540TIP3    H2 4585   1.776   1.733   3.245 -3.4861 -0.4348  1.6465
 1541TIP3   OH2 4586   3.024   0.918   5.875 -0.2741  0.3419  0.4036
 1541TIP3    H1 4587   2.937   0.948   5.900  0.1126  1.9311 -0.0584
 1541TIP3    H2 4588   3.024   0.923   5.779 -0.1243 -1.0191  0.3112
 1542TIP3   OH2 4589   5.864   0.979   4.537  0.4040  0.7024  0.3619
 1542TIP3    H1 4590   5.885   0.982   4.443  1.2725  2.3338  0.5546
 1542TIP3    H2 4591   5.838   1.069   4.558  3.5969  1.3508  2.3504
 1543TIP3   OH2 4592   1.424   2.377   5.095  0.2032  0.2843  0.2536
 1543TIP3    H1 4593   1.339   2.334   5.084 -0.1463  0.9975  0.0761
 1543TIP3    H2 4594   1.471   2.357   5.015 -0.5411  1.4846 -0.5231
 1544TIP3   OH2 4595   4.113   6.760   2.146 -0.2762  0.1307  0.0550
 1544TIP3    H1 4596   4.173   6.718   2.207 -1.3756 -3.4604 -1.1061
 1544TIP3    H2 4597   4.167   6.782   2.070 -0.1428 -2.1513 -0.5776
 1545TIP3   OH2 4598   5.258   4.308   2.825  0.3753 -0.4572 -0.0431
 1545TIP3    H1 4599   5.169   4.342   2.832  0.4875 -0.2872  0.6493
 1545TIP3    H2 4600   5.248   4.214   2.841  0.0846 -0.7525 -1.8204
 1546TIP3   OH2 4601   5.717   4.147   5.694  0.3722 -0.1800  0.6473
 1546TIP3    H1 4602   5.754   4.075   5.644  1.2703  0.2024  0.7431
 1546TIP3    H2 4603   5.717   4.221   5.633 -1.0600 -0.3774  0.3714
 1547TIP3   OH2 4604   3.963   5.967   4.920 -0.2931 -0.1481  0.4480
 1547TIP3    H1 4605   3.923   5.957   5.006  0.5148 -0.0700  0.8410
 1547TIP3    H2 4606   3.936   6.054   4.891  1.2945  0.7896  1.6408
 1548TIP3   OH2 4607   2.835   2.532   5.084  0.1249 -0.0614 -0.2462
 1548TIP3    H1 4608   2.758   2.505   5.133  1.3090  0.4643  2.0734
 1548TIP3    H2 4609   2.834   2.628   5.089  0.4924 -0.0151 -0.9236
 1549TIP3   OH2 4610   3.519   3.183   0.813  0.2639  0.4120 -0.0683
 1549TIP3    H1 4611   3.476   3.268   0.819 -1.2900 -0.2382 -1.3604
 1549TIP3    H2 4612   3.583   3.184   0.884 -0.4478  2.2392  0.6118
 1550TIP3   OH2 4613   7.008   6.372   3.788  0.0179  0.3587 -0.1632
 1550TIP3    H1 4614   6.934   6.420   3.826 -0.7197 -0.6790 -0.2618
 1550TIP3    H2 4615   7.051   6.331   3.863 -0.9615 -1.0292 -0.3355
 1551TIP3   OH2 4616   3.587   1.353   2.982 -0.6734 -0.1487  0.5753
 1551TIP3    H1 4617   3.624   1.410   3.050 -0.0802  0.3020 -0.1027
 1551TIP3    H2 4618   3.622   1.266   3.003  3.0344  0.6332 -1.4709
 1552TIP3   OH2 4619   1.257   0.693   5.707 -0.1670 -0.3488 -0.3399
 1552TIP3    H1 4620   1.346   0.670   5.682  0.3260 -0.9014  1.7072
 1552TIP3    H2 4621   1.266   0.737   5.792 -1.9450 -2.1632  0.8867
 1553TIP3   OH2 4622   5.900   1.480   2.911 -0.6187  0.4687 -0.0595
 1553TIP3    H1 4623   5.966   1.415   2.937 -0.2063  0.7178 -0.4566
 1553TIP3    H2 4624   5.817   1.433   2.917 -0.4042  0.1365  0.4154
 1554TIP3   OH2 4625   6.922   3.383   2.261  0.3257  0.0395 -0.0060
 1554TIP3    H1 4626   6.902   3.316   2.195  0.3372  2.2639 -2.4169
 1554TIP3    H2 4627   6.842   3.436   2.266  1.3293  1.6441 -0.4631
 1555TIP3   OH2 4628   5.391   1.317   4.183 -0.3612  0.0404 -0.0308
 1555TIP3    H1 4629   5.378   1.333   4.277  1.5001 -0.8445  0.4234
 1555TIP3    H2 4630   5.325   1.252   4.160  0.3082 -1.0876  1.1218
 1556TIP3   OH2 4631   3.348   1.569   0.579 -0.4691  0.0341 -0.3867
 1556TIP3    H1 4632   3.437   1.545   0.553 -0.9622 -1.8049 -0.5362
 1556TIP3    H2 4633   3.341   1.662   0.558  0.4717 -0.4401 -3.1368
 1557TIP3   OH2 4634   5.576   2.354   0.805 -0.2920  0.2902  0.1657
 1557TIP3    H1 4635   5.514   2.294   0.765 -0.1905  0.2838  0.0183
 1557TIP3    H2 4636   5.599   2.415   0.735  1.3122 -0.8329 -0.3424
 1558TIP3   OH2 4637   0.211   1.079   0.609 -0.0677 -0.0205 -0.0094
 1558TIP3    H1 4638   0.245   1.025   0.680 -0.8970 -0.6660 -0.0905
 1558TIP3    H2 4639   0.263   1.054   0.532  0.9137  0.7686  0.3823
 1559TIP3   OH2 4640   0.452   6.546   0.811  0.5105  0.5104 -0.4604
 1559TIP3    H1 4641   0.437   6.604   0.736  0.2701 -0.2661 -1.0199
 1559TIP3    H2 4642   0.447   6.458   0.775  1.1796  0.1345  0.3263
 1560TIP3   OH2 4643   6.932   6.619   5.581 -0.3194 -0.1678  0.3618
 1560TIP3    H1 4644   6.986   6.676   5.637  0.5955 -0.6050 -0.0473
 1560TIP3    H2 4645   6.906   6.675   5.508 -1.2609  0.3202  1.0443
 1561TIP3   OH2 4646   6.905   3.220   4.178  0.1840 -0.0476 -0.7317
 1561TIP3    H1 4647   6.980   3.211   4.119 -0.6528  0.1229 -1.8378
 1561TIP3    H2 4648   6.918   3.151   4.243  0.7616 -0.6997 -1.5140
 1562TIP3   OH2 4649   6.232   5.150   0.161 -0.5684 -0.5508  0.1211
 1562TIP3    H1 4650   6.259   5.138   0.252 -0.0312  0.3483  0.0806
 1562TIP3    H2 4651   6.220   5.060   0.128  0.2807 -0.9098  0.7553
 1563TIP3   OH2 4652   6.940   1.674   1.974  0.2575  0.3601 -0.0104
 1563TIP3    H1 4653   6.914   1.673   2.066  1.9219  0.1586  0.4845
 1563TIP3    H2 4654   7.033   1.694   1.976  0.1636  1.1121 -1.7043
 1564TIP3   OH2 4655   4.809   5.673   2.143  0.2832 -0.1281 -0.1450
 1564TIP3    H1 4656   4.811   5.588   2.185  1.8204 -0.5397 -0.9758
 1564TIP3    H2 4657   4.851   5.659   2.058 -2.8570  0.6057 -1.9696
 1565TIP3   OH2 4658   4.657   5.751   3.316  0.1670 -0.4190 -0.1918
 1565TIP3    H1 4659   4.629   5.700   3.240 -0.0411  0.6143 -0.8356
 1565TIP3    H2 4660   4.633   5.698   3.391  0.9261 -1.7410 -0.8527
 1566TIP3   OH2 4661   2.129   1.405   4.980  0.4541  0.7091 -0.0051
 1566TIP3    H1 4662   2.053   1.373   4.931  0.8627  0.0492 -0.2151
 1566TIP3    H2 4663   2.113   1.499   4.989  1.9005  1.5978 -4.3298
 1567TIP3   OH2 4664   6.159   0.160   0.664  0.4796 -0.0711  0.3282
 1567TIP3    H1 4665   6.149   0.174   0.758 -0.4080  1.6331  0.0164
 1567TIP3    H2 4666   6.170   0.247   0.627  1.6934 -0.7635 -1.0873
 1568TIP3   OH2 4667   6.797   5.715   2.411  0.1331  0.0071  0.1167
 1568TIP3    H1 4668   6.811   5.803   2.446  2.4656 -0.0880 -0.4661
 1568TIP3    H2 4669   6.804   5.657   2.487 -0.4987  0.2211  0.3497
 1569TIP3   OH2 4670   5.452   6.078   3.072 -0.0979  0.6337 -0.0777
 1569TIP3    H1 4671   5.411   6.075   2.985 -0.7617  3.1978  0.0686
 1569TIP3    H2 4672   5.544   6.095   3.054  0.1868 -0.9678 -0.2906
 1570TIP3   OH2 4673   5.974   3.613   5.138 -0.2624  0.2205 -0.2847
 1570TIP3    H1 4674   5.979   3.571   5.224  2.0829  1.0832  0.0908
 1570TIP3    H2 4675   6.003   3.546   5.077  1.5486  0.6201  0.0777
 1571TIP3   OH2 4676   3.003   2.758   5.210 -0.1219 -0.4285  0.1938
 1571TIP3    H1 4677   2.917   2.787   5.238 -0.9601 -2.5021 -0.0158
 1571TIP3    H2 4678   3.052   2.747   5.292 -0.4175 -0.2650  0.3934
 1572TIP3   OH2 4679   5.839   1.606   1.547  0.5338  0.0491  0.5719
 1572TIP3    H1 4680   5.850   1.562   1.632  3.0363 -0.7839 -0.1015
 1572TIP3    H2 4681   5.857   1.538   1.482  0.3463  1.0836 -0.6046
 1573TIP3   OH2 4682   5.221   2.157   1.182 -0.8200  0.0094 -0.3934
 1573TIP3    H1 4683   5.205   2.246   1.151 -0.4667 -0.4884 -2.1296
 1573TIP3    H2 4684   5.317   2.148   1.181 -0.8073 -0.1101  0.6702
 1574TIP3   OH2 4685   4.781   3.682   0.910  0.4141 -0.1607  0.4849
 1574TIP3    H1 4686   4.744   3.729   0.836  0.0821 -0.0844  0.6971
 1574TIP3    H2 4687   4.716   3.616   0.932  0.2648  0.1619  1.0446
 1575TIP3   OH2 4688   5.639   2.725   4.224  0.4211  0.6955 -0.8880
 1575TIP3    H1 4689   5.713   2.750   4.279 -0.8850 -0.2459  1.4118
 1575TIP3    H2 4690   5.676   2.660   4.163  1.3011 -0.5907  0.9295
 1576TIP3   OH2 4691   3.276   5.163   0.890  0.7288  0.3633  0.0474
 1576TIP3    H1 4692   3.219   5.206   0.954  1.7531 -0.3860  1.5076
 1576TIP3    H2 4693   3.238   5.186   0.805 -0.4216  1.7414  0.8925
 1577TIP3   OH2 4694   5.517   1.037   4.033  0.3210 -0.5324 -0.2178
 1577TIP3    H1 4695   5.459   1.074   4.100  0.8281  0.2124 -0.1784
 1577TIP3    H2 4696   5.556   1.114   3.991 -0.1282 -0.9738 -1.4914
 1578TIP3   OH2 4697   3.118   2.635   0.110 -0.2102  0.0108 -0.2523
 1578TIP3    H1 4698   3.064   2.706   0.148 -0.9814 -0.0586 -1.1746
 1578TIP3    H2 4699   3.131   2.574   0.183 -1.4591 -0.0065 -0.0173
 1579TIP3   OH2 4700   7.151   6.338   4.337 -0.5938 -0.0332  0.2335
 1579TIP3    H1 4701   7.086   6.372   4.398 -0.4336 -2.1851  1.7269
 1579TIP3    H2 4702   7.164   6.247   4.363 -0.3431 -1.0452 -2.9297
 1580TIP3   OH2 4703   3.170   6.735   3.080 -0.5059  0.0430  0.1285
 1580TIP3    H1 4704   3.103   6.666   3.071  0.0535 -0.5572  0.5221
 1580TIP3    H2 4705   3.234   6.699   3.141  1.0737 -0.1028 -1.5250
 1581TIP3   OH2 4706   2.421   0.804   3.107 -0.1520  0.0089 -0.8533
 1581TIP3    H1 4707   2.412   0.766   3.194  2.3111 -1.7891 -1.2645
 1581TIP3    H2 4708   2.443   0.896   3.123 -1.8154  0.2560  0.3019
 1582TIP3   OH2 4709   0.311   3.996   2.907 -0.0033  0.0587 -0.6809
 1582TIP3    H1 4710   0.358   3.924   2.951 -1.7447  0.2873  1.7549
 1582TIP3    H2 4711   0.311   3.971   2.815  0.1844 -2.6741 -0.0348
 1583TIP3   OH2 4712   4.544   2.314   4.416  0.1967 -0.0914  0.2926
 1583TIP3    H1 4713   4.533   2.406   4.440  0.1050  0.2024 -0.8108
 1583TIP3    H2 4714   4.600   2.278   4.485  1.8978  1.2787 -0.2764
 1584TIP3   OH2 4715   4.031   2.024   1.877 -0.1813 -0.0427 -0.7361
 1584TIP3    H1 4716   3.946   2.046   1.915 -0.1393 -1.5629  0.3262
 1584TIP3    H2 4717   4.089   2.014   1.952  0.4507 -0.9007 -1.3171
 1585TIP3   OH2 4718   0.974   2.919   5.036 -0.1800 -0.5758  0.1938
 1585TIP3    H1 4719   0.938   2.863   5.105  0.5356 -1.4595 -0.1242
 1585TIP3    H2 4720   1.062   2.941   5.067 -0.5868  0.6975  0.4838
 1586TIP3   OH2 4721   1.493   3.330   2.005  1.1102 -0.1952 -0.3279
 1586TIP3    H1 4722   1.538   3.295   1.928  1.0050  1.1607 -1.0369
 1586TIP3    H2 4723   1.548   3.402   2.035  0.8953 -0.3991  0.5861
 1587TIP3   OH2 4724   5.696   5.986   3.406 -0.3338  0.1280 -0.8779
 1587TIP3    H1 4725   5.734   5.923   3.344 -0.0241 -0.3083 -0.2541
 1587TIP3    H2 4726   5.602   5.965   3.407 -0.4730  0.6539 -1.7837
 1588TIP3   OH2 4727   2.041   3.323   4.481  0.2996 -0.1661 -0.0318
 1588TIP3    H1 4728   2.111   3.383   4.455  0.3802  0.3518  1.3136
 1588TIP3    H2 4729   2.086   3.244   4.510  0.3987  0.3651  1.3563
 1589TIP3   OH2 4730   4.607   4.747   1.158 -0.2927  0.1031 -0.3961
 1589TIP3    H1 4731   4.538   4.804   1.122  0.6402  0.5824 -1.4881
 1589TIP3    H2 4732   4.646   4.800   1.228  1.3810  1.4055 -2.1953
 1590TIP3   OH2 4733   5.545   3.897   2.632  0.5657  0.1161  0.1576
 1590TIP3    H1 4734   5.505   3.811   2.625  1.1319 -0.2383  1.0526
 1590TIP3    H2 4735   5.566   3.921   2.542  2.4848 -1.7155  0.0143
 1591TIP3   OH2 4736   2.937   1.244   2.132  0.1516 -0.2621  0.6571
 1591TIP3    H1 4737   2.943   1.281   2.044  0.8673 -1.0096  0.3783
 1591TIP3    H2 4738   2.986   1.304   2.188  1.5660 -0.9146  0.1576
 1592TIP3   OH2 4739   4.509   3.978   1.205  0.0062 -0.3217 -0.1927
 1592TIP3    H1 4740   4.428   4.019   1.175  0.1521 -1.3553 -2.1680
 1592TIP3    H2 4741   4.579   4.032   1.167  0.1956 -1.3160 -1.3243
 1593TIP3   OH2 4742   3.710   1.243   3.884 -0.3379  0.0558 -0.6069
 1593TIP3    H1 4743   3.691   1.281   3.970 -0.2744 -1.3500  0.0659
 1593TIP3    H2 4744   3.787   1.291   3.853  0.1289  0.0697  0.4981
 1594TIP3   OH2 4745   6.690   5.730   3.683 -0.1430 -0.2526  1.1313
 1594TIP3    H1 4746   6.761   5.785   3.650 -0.4158 -0.1309  0.7374
 1594TIP3    H2 4747   6.719   5.640   3.665 -0.8413 -0.1568 -0.6200
 1595TIP3   OH2 4748   1.439   4.408   4.199 -0.1216  0.0581  0.1729
 1595TIP3    H1 4749   1.406   4.326   4.162 -0.4406 -0.0282  0.6374
 1595TIP3    H2 4750   1.369   4.437   4.259  1.3421 -1.0713  2.5851
 1596TIP3   OH2 4751   3.275   3.890   0.430 -0.4173 -0.2317 -0.1776
 1596TIP3    H1 4752   3.222   3.811   0.444  0.7631 -1.2592 -1.2743
 1596TIP3    H2 4753   3.365   3.859   0.438  0.0554  1.1669  0.0872
 1597TIP3   OH2 4754   3.976   0.425   2.075  0.1271  0.1021  0.1407
 1597TIP3    H1 4755   4.049   0.478   2.106  0.2105 -0.1795  0.4306
 1597TIP3    H2 4756   4.016   0.358   2.021 -0.0478  0.7913 -0.8711
 1598TIP3   OH2 4757   3.235   1.682   4.468  0.0655  0.9324  0.0393
 1598TIP3    H1 4758   3.139   1.680   4.472  0.0371  1.7536 -0.1915
 1598TIP3    H2 4759   3.255   1.685   4.375  0.3611 -0.4772  0.0254
 1599TIP3   OH2 4760   2.101   4.048   5.175 -0.1108 -0.3604  0.2079
 1599TIP3    H1 4761   2.107   3.996   5.095  0.0987 -2.0739  1.3080
 1599TIP3    H2 4762   2.189   4.085   5.186  0.0058 -0.5592 -0.0383
 1600TIP3   OH2 4763   2.654   0.324   2.077 -0.4422  0.0316  0.0874
 1600TIP3    H1 4764   2.602   0.263   2.129 -0.3371 -0.0189  0.1335
 1600TIP3    H2 4765   2.609   0.408   2.087 -0.0458  0.1648  0.8092
 1601TIP3   OH2 4766   0.317   2.015   0.319 -0.1691  0.2260  0.1605
 1601TIP3    H1 4767   0.295   2.074   0.247 -3.2537 -1.3284 -0.3398
 1601TIP3    H2 4768   0.301   2.067   0.398  0.5010  1.0867 -0.2590
 1602TIP3   OH2 4769   4.084   3.904   2.280  0.3230  0.2268  0.5334
 1602TIP3    H1 4770   4.102   3.912   2.187 -2.8612 -2.5213 -0.4940
 1602TIP3    H2 4771   4.094   3.993   2.314  2.8915  1.0888 -2.0561
 1603TIP3   OH2 4772   2.924   0.443   3.181 -0.1191  0.1253 -0.2177
 1603TIP3    H1 4773   2.876   0.509   3.131  0.2126 -1.3077 -2.6255
 1603TIP3    H2 4774   3.001   0.488   3.213 -0.5534  1.2288 -0.6707
 1604TIP3   OH2 4775   2.638   3.059   5.607  0.2508  0.0360  0.4258
 1604TIP3    H1 4776   2.636   3.011   5.690 -1.6988 -0.0387  0.3766
 1604TIP3    H2 4777   2.615   3.149   5.630  0.5729  0.2106  0.0788
 1605TIP3   OH2 4778   4.078   3.523   5.130  0.4687  0.0065 -0.6855
 1605TIP3    H1 4779   4.155   3.494   5.179 -0.6280  1.4827  2.1622
 1605TIP3    H2 4780   4.108   3.602   5.084  0.6879  0.6399  0.4946
 1606TIP3   OH2 4781   4.274   4.975   5.812 -0.1472 -0.0165 -0.4137
 1606TIP3    H1 4782   4.206   4.980   5.744 -1.2434 -0.4167  0.6026
 1606TIP3    H2 4783   4.236   4.918   5.879  0.1653  1.6869  1.3109
 1607TIP3   OH2 4784   4.842   5.591   0.435  0.1476 -0.1846 -0.1808
 1607TIP3    H1 4785   4.853   5.633   0.520  0.4078 -1.6662  0.5349
 1607TIP3    H2 4786   4.799   5.658   0.381 -0.6612  0.5297  1.3034
 1608TIP3   OH2 4787   2.122   3.025   1.223  0.1900  0.0653  0.1679
 1608TIP3    H1 4788   2.169   2.991   1.146  0.6730 -0.1776  0.5655
 1608TIP3    H2 4789   2.105   2.948   1.276  1.2752  0.4184  1.0658
 1609TIP3   OH2 4790   3.841   1.643   1.403  0.6956  0.0241 -0.7844
 1609TIP3    H1 4791   3.787   1.616   1.329  1.7426 -0.1735 -1.5103
 1609TIP3    H2 4792   3.783   1.638   1.479 -0.1381 -0.6967 -1.4450
 1610TIP3   OH2 4793   3.492   2.029   5.358 -0.2703  0.0295  0.5493
 1610TIP3    H1 4794   3.544   1.950   5.344  1.4319  1.2277 -0.2160
 1610TIP3    H2 4795   3.420   2.022   5.295  0.2514 -0.5837  0.0071
 1611TIP3   OH2 4796   0.574   4.879   4.598 -0.1384  0.2510  0.5422
 1611TIP3    H1 4797   0.566   4.863   4.692 -1.1128  0.2700  0.4685
 1611TIP3    H2 4798   0.502   4.830   4.559 -1.0539  1.9755 -0.0055
 1612TIP3   OH2 4799   4.169   1.470   2.838 -0.5795  0.0637  0.9086
 1612TIP3    H1 4800   4.112   1.468   2.914  0.1738  2.0233  1.6067
 1612TIP3    H2 4801   4.258   1.470   2.875 -0.1324 -1.5433 -0.0868
 1613TIP3   OH2 4802   5.575   4.719   2.067 -0.0846  0.3019  0.1620
 1613TIP3    H1 4803   5.591   4.626   2.054 -0.0097  0.6229 -2.6411
 1613TIP3    H2 4804   5.569   4.729   2.162  0.9303 -2.3633  0.6029
 1614TIP3   OH2 4805   3.813   1.186   5.123  0.2399 -0.2239  0.2339
 1614TIP3    H1 4806   3.773   1.116   5.175 -0.3394  1.1038  1.6711
 1614TIP3    H2 4807   3.860   1.141   5.054 -0.9118 -1.9909  0.5315
 1615TIP3   OH2 4808   5.814   2.962   5.458  0.5185 -0.1537 -0.0877
 1615TIP3    H1 4809   5.798   2.887   5.515 -1.1112 -1.2990 -1.8991
 1615TIP3    H2 4810   5.908   2.959   5.440  0.6118 -1.3285  0.4662
 1616TIP3   OH2 4811   4.770   4.044   4.734 -0.1744 -0.1270 -0.1601
 1616TIP3    H1 4812   4.735   3.978   4.794 -0.9577  2.1582  2.0445
 1616TIP3    H2 4813   4.693   4.092   4.703  0.5144  1.0070 -0.1671
 1617TIP3   OH2 4814   5.014   1.997   0.021  0.3142 -0.5438  0.0784
 1617TIP3    H1 4815   5.048   1.907   0.026 -0.6386 -0.9681 -0.6154
 1617TIP3    H2 4816   5.043   2.038   0.102 -0.1869 -1.8288  0.9543
 1618TIP3   OH2 4817   7.193   3.715   1.062  0.1086  0.7397 -0.1613
 1618TIP3    H1 4818   7.168   3.632   1.022  0.5101 -0.2369  1.5023
 1618TIP3    H2 4819   7.221   3.770   0.989  0.0221 -0.6640 -1.2820
 1619TIP3   OH2 4820   5.713   4.177   4.352  0.2048 -0.4973  0.2575
 1619TIP3    H1 4821   5.707   4.215   4.440  0.1050 -3.3416  1.6224
 1619TIP3    H2 4822   5.623   4.150   4.332  0.0124  1.1273 -1.2846
 1620TIP3   OH2 4823   6.400   4.176   3.513  0.5879  0.0029  0.4693
 1620TIP3    H1 4824   6.417   4.165   3.607 -1.0299 -0.9336  0.6923
 1620TIP3    H2 4825   6.315   4.219   3.509  1.6220  2.1153 -0.5910
 1621TIP3   OH2 4826   4.025   0.603   2.365  0.3029 -0.1003 -0.4989
 1621TIP3    H1 4827   4.106   0.655   2.360 -0.4690  1.1112 -1.0457
 1621TIP3    H2 4828   4.047   0.531   2.423  1.6737  0.3976 -0.3375
 1622TIP3   OH2 4829   3.666   2.119   2.912  0.8127  0.1552 -0.3454
 1622TIP3    H1 4830   3.628   2.064   2.980  0.4141 -2.4518 -2.4789
 1622TIP3    H2 4831   3.591   2.151   2.863  1.1016  1.8053  0.2470
 1623TIP3   OH2 4832   3.922   6.717   4.950 -0.3948 -0.0546 -0.0562
 1623TIP3    H1 4833   3.901   6.632   4.988 -1.2021  0.7544  1.3544
 1623TIP3    H2 4834   4.014   6.732   4.974 -0.8511  0.3830  1.5149
 1624TIP3   OH2 4835   3.584   4.966   5.612  0.3445 -0.3336  0.2576
 1624TIP3    H1 4836   3.501   5.013   5.623  0.8576  0.7499 -0.3525
 1624TIP3    H2 4837   3.577   4.924   5.527  0.1210 -0.8945  0.5474
 1625TIP3   OH2 4838   1.633   0.061   3.769  0.1546  0.0102 -0.4285
 1625TIP3    H1 4839   1.550   0.058   3.816  0.7001  2.0496  0.7831
 1625TIP3    H2 4840   1.688  -0.004   3.813 -0.2223 -0.0596 -0.0554
 1626TIP3   OH2 4841   1.411   6.081   2.567 -0.2241 -0.0723  0.1445
 1626TIP3    H1 4842   1.477   6.118   2.626  1.6751 -1.5939 -0.9201
 1626TIP3    H2 4843   1.339   6.055   2.625  0.0657  1.5924  1.3361
 1627TIP3   OH2 4844   0.450   5.292   4.846 -0.0670  0.5060  0.1813
 1627TIP3    H1 4845   0.374   5.236   4.860 -0.5535  0.7526 -1.3775
 1627TIP3    H2 4846   0.508   5.240   4.791  1.1027  0.1751  1.6372
 1628TIP3   OH2 4847   1.822   2.928   0.194 -0.5275 -0.5151 -0.1338
 1628TIP3    H1 4848   1.864   2.974   0.267  1.6690  0.8706 -2.1039
 1628TIP3    H2 4849   1.858   2.839   0.198  0.4386 -0.1359 -0.1370
 1629TIP3   OH2 4850   1.188   5.653   4.947 -0.1259 -0.4364  0.4719
 1629TIP3    H1 4851   1.201   5.562   4.976  0.4139 -0.3882  0.3888
 1629TIP3    H2 4852   1.170   5.701   5.028  1.1461 -0.3446  0.7135
 1630TIP3   OH2 4853   4.645   0.286   5.488 -0.0607  0.1531  0.8107
 1630TIP3    H1 4854   4.584   0.215   5.466  0.5611  0.0430 -0.7323
 1630TIP3    H2 4855   4.680   0.261   5.573  0.5596 -1.7481  0.0755
 1631TIP3   OH2 4856   3.055   3.343   4.527 -0.0657 -0.0364 -0.9147
 1631TIP3    H1 4857   3.012   3.396   4.594 -3.1191  0.8029 -3.3404
 1631TIP3    H2 4858   3.068   3.258   4.569 -1.0962  0.6808  0.9948
 1632TIP3   OH2 4859   3.690   1.758   0.865 -0.3067  0.3305 -0.3028
 1632TIP3    H1 4860   3.622   1.696   0.837  0.0258 -0.5720  0.8327
 1632TIP3    H2 4861   3.757   1.703   0.906  0.8251  1.2747 -0.8337
 1633TIP3   OH2 4862   1.086   0.742   2.366 -0.1157 -0.2499  0.2921
 1633TIP3    H1 4863   1.070   0.698   2.449 -1.1671 -0.7522 -0.1560
 1633TIP3    H2 4864   1.022   0.814   2.363 -0.3125 -0.4372 -0.2120
 1634TIP3   OH2 4865   5.468   0.808   3.256 -0.4686 -0.1441  0.1983
 1634TIP3    H1 4866   5.539   0.851   3.207  0.1100 -0.4939  0.7331
 1634TIP3    H2 4867   5.480   0.715   3.239  0.1192 -0.3225  1.5065
 1635TIP3   OH2 4868   5.842   5.445   4.446 -0.1233  0.1980 -0.3639
 1635TIP3    H1 4869   5.767   5.471   4.393 -0.1588  0.9611  0.0535
 1635TIP3    H2 4870   5.806   5.384   4.510  0.0617 -1.4095 -1.7086
 1636TIP3   OH2 4871   0.662   4.442   5.647  0.1658 -0.2036  1.0243
 1636TIP3    H1 4872   0.577   4.469   5.680 -0.3071  2.1971 -1.7508
 1636TIP3    H2 4873   0.715   4.522   5.648  2.1049 -1.4093  1.6976
 1637TIP3   OH2 4874   6.905   5.922   2.776 -0.3014  0.0008  0.3155
 1637TIP3    H1 4875   6.908   6.013   2.744  1.3069 -0.4846 -1.0610
 1637TIP3    H2 4876   6.959   5.873   2.714 -0.8700 -1.8599  1.2242
 1638TIP3   OH2 4877   0.135   2.357   5.047  0.2526  0.0379 -0.4182
 1638TIP3    H1 4878   0.164   2.445   5.021  1.3198 -0.1977 -0.0887
 1638TIP3    H2 4879   0.073   2.372   5.119  1.2257  0.5004  0.3528
 1639TIP3   OH2 4880   6.803   5.097   2.846  0.1862 -0.1171 -0.1380
 1639TIP3    H1 4881   6.847   5.182   2.842  0.3708 -0.2426 -1.0402
 1639TIP3    H2 4882   6.754   5.099   2.928  1.0512  0.4368  0.3869
 1640TIP3   OH2 4883   4.110   2.552   1.690 -0.2647  0.5430  0.0349
 1640TIP3    H1 4884   4.188   2.516   1.731 -0.0476  0.9666  0.0047
 1640TIP3    H2 4885   4.123   2.536   1.596 -0.5827 -0.0847  0.0950
 1641TIP3   OH2 4886   6.579   2.510   4.648  0.2489 -0.0747  0.0800
 1641TIP3    H1 4887   6.566   2.558   4.730 -3.1038 -0.4379 -0.1093
 1641TIP3    H2 4888   6.568   2.576   4.580  2.1057  0.0438 -0.1506
 1642TIP3   OH2 4889   5.345   5.661   0.046 -0.4807  0.1009  0.0633
 1642TIP3    H1 4890   5.351   5.716  -0.032  2.1877 -0.0014  0.1035
 1642TIP3    H2 4891   5.393   5.709   0.114  0.0526 -1.2597  0.7039
 1643TIP3   OH2 4892   1.254   0.909   1.246  0.2608 -0.4071 -0.5198
 1643TIP3    H1 4893   1.312   0.835   1.263 -1.1779 -1.1810  1.3731
 1643TIP3    H2 4894   1.244   0.951   1.331 -0.5826  0.7562 -1.1692
 1644TIP3   OH2 4895   3.538   0.594   2.632  0.0268 -0.5121  0.1302
 1644TIP3    H1 4896   3.580   0.665   2.681  0.6413 -0.7878  0.0089
 1644TIP3    H2 4897   3.605   0.563   2.571 -0.1137 -1.4555  0.4435
 1645TIP3   OH2 4898   1.525   3.995   1.146 -0.0074  0.0539 -0.6374
 1645TIP3    H1 4899   1.566   3.920   1.103 -0.7350 -0.3933 -0.5665
 1645TIP3    H2 4900   1.482   4.043   1.075 -0.6990 -0.3558 -0.5077
 1646TIP3   OH2 4901   0.581   0.038   1.915 -0.2904 -0.0615  0.1809
 1646TIP3    H1 4902   0.539   0.041   1.829  0.1995  0.0050 -0.0638
 1646TIP3    H2 4903   0.578   0.128   1.946 -1.4108 -0.2613  0.7127
 1647TIP3   OH2 4904   0.372   6.124   5.466 -0.5818 -0.0606 -0.0693
 1647TIP3    H1 4905   0.410   6.210   5.481 -3.4578  1.2162  0.7044
 1647TIP3    H2 4906   0.405   6.097   5.380  2.0553  0.7850  0.6086
 1648TIP3   OH2 4907   1.959   6.529   3.200 -0.3463  0.2109  0.2723
 1648TIP3    H1 4908   1.909   6.601   3.162  0.3074  0.5663  0.0753
 1648TIP3    H2 4909   1.900   6.454   3.194 -0.2597  0.2460 -1.4912
 1649TIP3   OH2 4910   5.190   1.485   3.774 -0.7522  0.0371 -0.1176
 1649TIP3    H1 4911   5.116   1.500   3.716 -0.9336 -0.5788 -0.0574
 1649TIP3    H2 4912   5.214   1.572   3.807 -1.8265  0.1772  0.3254
 1650TIP3   OH2 4913   1.871   5.762   0.739 -0.0176  0.0660  0.2930
 1650TIP3    H1 4914   1.951   5.732   0.696  0.4283  0.8545  0.5597
 1650TIP3    H2 4915   1.897   5.840   0.787 -1.3302  1.4855 -1.1628
 1651TIP3   OH2 4916   1.783   2.857   1.715 -0.0739 -0.0161  0.1654
 1651TIP3    H1 4917   1.699   2.834   1.753 -0.3489 -0.3288 -0.6097
 1651TIP3    H2 4918   1.841   2.785   1.739 -0.2581 -0.2335 -0.0291
 1652TIP3   OH2 4919   1.264   0.648   0.686  0.1060  0.0371 -0.2246
 1652TIP3    H1 4920   1.247   0.704   0.611 -1.0730 -0.5917 -0.4643
 1652TIP3    H2 4921   1.187   0.591   0.691  0.9358 -1.0742  0.4305
 1653TIP3   OH2 4922   6.827   1.241   4.377 -0.1797  0.1690 -0.0348
 1653TIP3    H1 4923   6.777   1.293   4.440 -0.5720 -1.7766  1.3519
 1653TIP3    H2 4924   6.767   1.226   4.304 -0.8530 -0.2385  0.5953
 1654TIP3   OH2 4925   0.786   1.507   1.878 -0.0559  0.4027  0.7025
 1654TIP3    H1 4926   0.760   1.418   1.856  0.3353  0.4934 -0.1593
 1654TIP3    H2 4927   0.807   1.503   1.971  0.2862 -0.4857  0.5996
 1655TIP3   OH2 4928   4.574   6.419   2.351 -0.2600  0.1792 -0.3244
 1655TIP3    H1 4929   4.656   6.388   2.390  0.1507  0.6174 -0.8220
 1655TIP3    H2 4930   4.601   6.465   2.272 -0.7212  2.8464  0.9491
 1656TIP3   OH2 4931   3.910   1.425   3.791  0.2608  0.5024 -0.2054
 1656TIP3    H1 4932   3.960   1.506   3.795  1.5271 -0.2789  0.7813
 1656TIP3    H2 4933   3.965   1.365   3.740  0.4071 -0.3955  0.9515
 1657TIP3   OH2 4934   6.364   5.179   1.553 -0.3822 -0.4040  0.2771
 1657TIP3    H1 4935   6.422   5.233   1.499 -0.8191  1.6172  1.6869
 1657TIP3    H2 4936   6.422   5.115   1.593  0.2855 -0.5811 -0.9270
 1658TIP3   OH2 4937   2.776   3.769   4.980 -0.1067 -0.4502 -0.4095
 1658TIP3    H1 4938   2.758   3.712   5.054  0.4685  0.5803  0.5404
 1658TIP3    H2 4939   2.690   3.783   4.939 -0.1819 -2.4396 -1.0212
 1659TIP3   OH2 4940   0.657   4.945   0.362 -0.0808 -0.5475  0.6012
 1659TIP3    H1 4941   0.638   4.876   0.298  1.5448 -1.2898  0.8762
 1659TIP3    H2 4942   0.748   4.969   0.346  0.4071 -0.7959  2.6428
 1660TIP3   OH2 4943   0.789   6.662   4.939  0.2059 -0.7051  0.0663
 1660TIP3    H1 4944   0.882   6.651   4.923  0.1258 -0.9404 -0.2473
 1660TIP3    H2 4945   0.751   6.576   4.923  0.1867 -1.1157  2.0508
 1661TIP3   OH2 4946   2.766   3.851   5.628  0.0181 -0.1131  0.5576
 1661TIP3    H1 4947   2.781   3.870   5.535 -3.3497  0.9759  0.1035
 1661TIP3    H2 4948   2.684   3.801   5.629  1.7304 -3.1943  2.7770
 1662TIP3   OH2 4949   5.615   1.568   1.086  0.4355 -0.3712  0.0918
 1662TIP3    H1 4950   5.703   1.532   1.075  0.4865 -0.1982 -0.0740
 1662TIP3    H2 4951   5.561   1.493   1.110  0.7876 -0.3373  1.0256
 1663TIP3   OH2 4952   3.468   4.670   1.106 -0.3500 -0.0396 -0.4041
 1663TIP3    H1 4953   3.535   4.633   1.163 -0.8505  0.0291  0.2442
 1663TIP3    H2 4954   3.506   4.752   1.074 -0.2189  0.1198  0.1530
 1664TIP3   OH2 4955   4.630   3.764   0.669  0.8042  0.6918 -0.3227
 1664TIP3    H1 4956   4.588   3.821   0.605  0.5028 -0.4225 -1.1621
 1664TIP3    H2 4957   4.560   3.706   0.700  1.5433 -0.7893 -1.2824
 1665TIP3   OH2 4958   2.607   3.491   5.476 -0.5945  0.2851  0.5035
 1665TIP3    H1 4959   2.543   3.530   5.416 -0.0215  0.9723  0.3286
 1665TIP3    H2 4960   2.692   3.523   5.446 -0.0784 -1.2719  0.2394
 1666TIP3   OH2 4961   4.047   5.580   2.313 -0.2546 -0.3834 -0.1728
 1666TIP3    H1 4962   4.096   5.655   2.279  0.5787 -0.7908  0.1162
 1666TIP3    H2 4963   3.965   5.618   2.345  1.0420  0.7710  2.0091
 1667TIP3   OH2 4964   4.563   6.047   1.071  0.0017 -0.0890  0.2634
 1667TIP3    H1 4965   4.612   6.118   1.114 -2.4728  1.4406  0.7493
 1667TIP3    H2 4966   4.486   6.035   1.126 -0.8222 -1.5285 -1.1470
 1668TIP3   OH2 4967   0.587   6.009   2.381 -0.3420 -0.0861 -0.8809
 1668TIP3    H1 4968   0.658   6.055   2.427  0.7988  0.4077 -3.0432
 1668TIP3    H2 4969   0.509   6.060   2.401  0.5501  1.5586 -1.4805
 1669TIP3   OH2 4970   0.991   0.832   4.637 -0.0670 -0.2775  0.5342
 1669TIP3    H1 4971   0.993   0.750   4.686  0.5697 -0.1439  0.7424
 1669TIP3    H2 4972   0.997   0.900   4.705  1.2713 -0.0955  0.2584
 1670TIP3   OH2 4973   1.964   1.326   0.082 -0.2107 -0.5936 -0.1727
 1670TIP3    H1 4974   2.030   1.289   0.024 -0.3716 -2.9394  0.9679
 1670TIP3    H2 4975   2.005   1.324   0.169 -1.1498 -0.4306  0.2880
 1671TIP3   OH2 4976   1.849   2.019   5.795  0.5081 -0.4591  0.2234
 1671TIP3    H1 4977   1.860   2.111   5.772 -0.6131 -0.2314  0.5061
 1671TIP3    H2 4978   1.914   1.973   5.743  1.6203  0.5622  0.6648
 1672TIP3   OH2 4979   4.511   1.370   5.698 -0.8541 -0.2935 -0.9396
 1672TIP3    H1 4980   4.501   1.425   5.776  1.7411 -0.6901 -0.2083
 1672TIP3    H2 4981   4.450   1.407   5.634  0.7049  3.5162 -0.5085
 1673TIP3   OH2 4982   5.985   2.249   5.842 -0.1793  0.4689  0.3710
 1673TIP3    H1 4983   6.046   2.303   5.892  1.0130 -0.3600 -0.1424
 1673TIP3    H2 4984   6.019   2.252   5.752 -0.8837 -0.0251  0.0792
 1674TIP3   OH2 4985   6.686   1.972   5.120  0.0666  0.0616 -0.0254
 1674TIP3    H1 4986   6.764   1.958   5.174  0.0182  0.5379  0.1718
 1674TIP3    H2 4987   6.613   1.944   5.176  0.0619  0.0141 -0.0553
 1675TIP3   OH2 4988   3.649   6.640   0.980 -0.6512 -0.2892 -0.0562
 1675TIP3    H1 4989   3.743   6.647   0.993 -0.6333 -1.9191  1.0436
 1675TIP3    H2 4990   3.618   6.589   1.056 -2.6848  1.6977  0.5659
 1676TIP3   OH2 4991   6.820   4.375   2.254 -0.2732  0.3993 -0.0976
 1676TIP3    H1 4992   6.832   4.331   2.337  1.8706 -1.0066 -1.0664
 1676TIP3    H2 4993   6.902   4.423   2.239 -0.3598  0.1307 -1.6643
 1677TIP3   OH2 4994   5.536   0.953   0.135 -0.1966 -0.0580 -0.0216
 1677TIP3    H1 4995   5.470   0.902   0.089 -0.3953 -1.0402  1.2992
 1677TIP3    H2 4996   5.491   1.034   0.160 -0.5322 -0.1895 -0.2034
 1678TIP3   OH2 4997   6.740   0.570   4.859  0.2256  0.1122 -0.1256
 1678TIP3    H1 4998   6.829   0.556   4.890  0.3934  0.6089 -0.3749
 1678TIP3    H2 4999   6.694   0.610   4.934  0.5741  1.1124 -0.4295
 1679TIP3   OH2 5000   0.532   0.727   2.211  0.5102 -0.3284 -0.1720
 1679TIP3    H1 5001   0.519   0.645   2.259  3.1244  0.1058  1.4939
 1679TIP3    H2 5002   0.518   0.704   2.119 -0.6985 -2.1642  0.4354
 1680TIP3   OH2 5003   5.685   4.281   4.591 -0.2185 -0.2818 -0.2844
 1680TIP3    H1 5004   5.622   4.233   4.645 -1.6063 -0.2383 -1.7901
 1680TIP3    H2 5005   5.672   4.373   4.616 -0.4089 -0.3151 -0.2575
 1681TIP3   OH2 5006   4.613   0.050   1.016 -0.5050  0.3904  0.5937
 1681TIP3    H1 5007   4.527   0.017   1.041 -0.2276 -1.1504 -0.3192
 1681TIP3    H2 5008   4.667  -0.029   1.009  0.1669  0.9840 -1.9331
 1682TIP3   OH2 5009   2.373   1.394   3.675 -0.4996  0.2480 -0.0791
 1682TIP3    H1 5010   2.413   1.312   3.645  1.2114  1.1111 -0.2656
 1682TIP3    H2 5011   2.380   1.453   3.600 -2.0279  0.4831 -0.0613
 1683TIP3   OH2 5012   5.567   2.044   2.832 -0.3687 -0.3986 -0.1619
 1683TIP3    H1 5013   5.510   1.977   2.868 -2.4127  0.9527 -0.7565
 1683TIP3    H2 5014   5.629   2.064   2.903 -0.0303 -2.4749  0.1987
 1684TIP3   OH2 5015   0.650   6.178   4.022  0.2865 -0.3034  0.4914
 1684TIP3    H1 5016   0.660   6.273   4.026  1.6616 -0.4347  0.7215
 1684TIP3    H2 5017   0.672   6.148   4.111 -0.4131 -0.8175  0.4981
 1685TIP3   OH2 5018   1.247   5.691   1.579 -0.5093 -0.8861 -0.5647
 1685TIP3    H1 5019   1.218   5.653   1.662  0.5280  1.4807  0.9728
 1685TIP3    H2 5020   1.180   5.756   1.557 -1.3364 -2.2018 -2.2320
 1686TIP3   OH2 5021   5.815   5.522   1.733 -0.0156 -0.3893  0.8216
 1686TIP3    H1 5022   5.861   5.548   1.653 -1.5310 -0.7282 -0.2023
 1686TIP3    H2 5023   5.823   5.426   1.735  0.4033 -0.3495  1.3367
 1687TIP3   OH2 5024   0.426   4.737   0.245 -0.0868 -0.3400 -0.2166
 1687TIP3    H1 5025   0.433   4.646   0.274 -0.6925 -0.7404 -1.2815
 1687TIP3    H2 5026   0.465   4.738   0.158  0.5374  0.5746  0.0563
 1688TIP3   OH2 5027   5.459   5.248   0.116  0.2881 -0.1950 -0.5407
 1688TIP3    H1 5028   5.418   5.279   0.035 -2.0617 -1.0171  0.2556
 1688TIP3    H2 5029   5.408   5.289   0.185  1.5404 -0.4210  0.5541
 1689TIP3   OH2 5030   4.272   3.740   1.974  0.2472  0.0732  0.5660
 1689TIP3    H1 5031   4.367   3.741   1.988  0.2976  1.7037  0.2235
 1689TIP3    H2 5032   4.262   3.707   1.884  0.6085  1.4317 -0.0006
 1690TIP3   OH2 5033   2.886   1.993   5.839 -0.0157  0.2918 -0.2839
 1690TIP3    H1 5034   2.894   2.077   5.883 -0.2727 -0.6753  1.7352
 1690TIP3    H2 5035   2.795   1.967   5.853  0.4901 -1.0864  0.6408
 1691TIP3   OH2 5036   1.377   0.610   4.137  0.5652 -0.1479 -0.5425
 1691TIP3    H1 5037   1.405   0.700   4.124  0.0301  0.1789  0.4915
 1691TIP3    H2 5038   1.310   0.615   4.205 -0.4131 -1.1746 -1.4049
 1692TIP3   OH2 5039   1.818   6.362   2.930 -0.5269  0.2019 -0.0762
 1692TIP3    H1 5040   1.791   6.341   3.020  1.0021 -0.2004  0.3201
 1692TIP3    H2 5041   1.752   6.320   2.875 -1.0357 -0.2329  0.8412
 1693TIP3   OH2 5042   1.625   0.394   2.145  0.0071 -0.5997 -0.1168
 1693TIP3    H1 5043   1.628   0.354   2.232 -0.7689  1.1523  0.7720
 1693TIP3    H2 5044   1.620   0.320   2.084  0.1678 -1.8535  1.3456
 1694TIP3   OH2 5045   2.683   1.400   2.034  0.1198 -0.9985 -0.1301
 1694TIP3    H1 5046   2.736   1.321   2.033 -0.1349 -1.1930  0.7328
 1694TIP3    H2 5047   2.694   1.436   2.122  1.1686  0.5814 -0.8472
 1695TIP3   OH2 5048   0.379   1.276   3.900 -1.1054  0.3018  0.1973
 1695TIP3    H1 5049   0.405   1.246   3.988  0.6086 -0.4054 -0.5038
 1695TIP3    H2 5050   0.319   1.348   3.917 -1.1226 -0.0589  1.9550
 1696TIP3   OH2 5051   4.934   3.388   0.700  0.5155 -0.3024 -0.2853
 1696TIP3    H1 5052   4.864   3.441   0.663 -0.3197 -1.2878 -0.1665
 1696TIP3    H2 5053   4.982   3.355   0.624  2.0275  1.8517 -0.3373
 1697TIP3   OH2 5054   3.253   6.551   1.033  0.2509  0.4359  0.0382
 1697TIP3    H1 5055   3.257   6.562   0.938  1.4001  0.7551  0.1055
 1697TIP3    H2 5056   3.303   6.625   1.068 -0.9635  0.8708  0.9438
 1698TIP3   OH2 5057   4.509   4.480   2.205 -0.4434 -0.0559 -0.1892
 1698TIP3    H1 5058   4.429   4.532   2.195 -0.1562  0.0804 -2.2651
 1698TIP3    H2 5059   4.483   4.407   2.262 -1.9104  0.2587 -0.4106
 1699TIP3   OH2 5060   6.791   3.965   0.370 -0.1307 -0.3634  0.0702
 1699TIP3    H1 5061   6.810   3.961   0.464  0.3637  1.5654  0.0937
 1699TIP3    H2 5062   6.866   3.921   0.329  0.0254 -0.5536  0.5472
 1700TIP3   OH2 5063   2.601   4.930   3.517 -0.1235 -0.0030 -0.0100
 1700TIP3    H1 5064   2.666   4.871   3.556 -2.0666 -1.5783  1.0420
 1700TIP3    H2 5065   2.603   4.911   3.424  1.5248  0.6475 -0.1423
 1701TIP3   OH2 5066   0.533   1.025   1.916 -0.7551  0.1621  0.1637
 1701TIP3    H1 5067   0.504   1.056   1.831  0.1466  0.7120  0.0353
 1701TIP3    H2 5068   0.453   1.008   1.965 -1.2867  1.0518 -0.3685
 1702TIP3   OH2 5069   1.685   2.944   4.940 -0.0232 -0.1213  0.1335
 1702TIP3    H1 5070   1.737   3.022   4.958  2.4243 -1.1353 -1.9055
 1702TIP3    H2 5071   1.638   2.965   4.860 -1.0001 -0.0324  0.7200
 1703TIP3   OH2 5072   2.302   1.987  -0.016  0.3208 -0.1323 -0.4545
 1703TIP3    H1 5073   2.316   1.905   0.031 -1.4531 -0.2164 -0.0341
 1703TIP3    H2 5074   2.327   2.055   0.047 -1.0108 -0.2794  0.2624
 1704TIP3   OH2 5075   0.087   6.275   2.917 -0.1434  0.2407 -0.2563
 1704TIP3    H1 5076   0.037   6.338   2.865 -0.0155  0.6527  0.1041
 1704TIP3    H2 5077   0.074   6.304   3.008  0.4940  0.1672 -0.1373
 1705TIP3   OH2 5078   5.859   1.559   5.328  0.5051  0.4008 -0.1971
 1705TIP3    H1 5079   5.952   1.578   5.345 -0.4948  2.6140  4.1786
 1705TIP3    H2 5080   5.819   1.646   5.317 -1.0425 -0.5402 -2.9319
 1706TIP3   OH2 5081   1.523   5.138   4.154 -0.0900  0.2243  0.2937
 1706TIP3    H1 5082   1.455   5.085   4.194  0.2688  0.9076  1.8631
 1706TIP3    H2 5083   1.603   5.117   4.202  0.4290  0.8416 -0.2622
 1707TIP3   OH2 5084   5.614   1.233   0.071 -0.0073 -0.1274 -0.1112
 1707TIP3    H1 5085   5.657   1.149   0.085  1.3079  0.4679 -0.4239
 1707TIP3    H2 5086   5.547   1.238   0.139  1.6246 -0.3044  1.5652
 1708TIP3   OH2 5087   4.191   6.062   4.427  0.3655 -0.1531  0.2034
 1708TIP3    H1 5088   4.148   6.139   4.466 -0.1005 -0.1080 -0.3771
 1708TIP3    H2 5089   4.120   6.018   4.380  1.0074  0.0598 -0.9860
 1709TIP3   OH2 5090   3.581   0.018   3.309  0.2344 -0.0278  0.8123
 1709TIP3    H1 5091   3.500   0.066   3.292  1.2299  2.0627  1.5751
 1709TIP3    H2 5092   3.589   0.017   3.405  1.8776  1.2772  0.7369
 1710TIP3   OH2 5093   0.156   0.628   1.401  0.5172 -0.3243  0.2231
 1710TIP3    H1 5094   0.162   0.534   1.389 -1.2448 -0.2448 -1.8792
 1710TIP3    H2 5095   0.078   0.654   1.352  0.6370  2.1634  1.1936
 1711TIP3   OH2 5096   4.998   4.655   0.983  0.4449 -0.1277 -0.0527
 1711TIP3    H1 5097   4.958   4.718   1.042 -1.0914 -0.3397 -0.8098
 1711TIP3    H2 5098   5.049   4.597   1.040  0.2624  0.5946  0.8655
 1712TIP3   OH2 5099   5.396   1.948   1.414  0.1535  0.0322 -0.1932
 1712TIP3    H1 5100   5.366   1.942   1.323 -0.9799 -2.1477  0.2715
 1712TIP3    H2 5101   5.487   1.920   1.412  0.2751  0.4532 -0.7086
 1713TIP3   OH2 5102   6.613   1.573   1.249 -0.3408  0.2150  0.0435
 1713TIP3    H1 5103   6.670   1.544   1.321 -0.9942  0.0271  0.4938
 1713TIP3    H2 5104   6.633   1.513   1.177 -0.0908  0.0414  0.2543
 1714TIP3   OH2 5105   4.191   5.815   3.112  1.0597 -0.4604 -0.0148
 1714TIP3    H1 5106   4.172   5.906   3.134 -2.8510 -1.0192 -0.3465
 1714TIP3    H2 5107   4.143   5.799   3.032  0.3192 -3.2070  0.8540
 1715TIP3   OH2 5108   2.976   2.089   2.103  0.6027 -0.8465 -0.3984
 1715TIP3    H1 5109   3.006   2.075   2.013  0.4808  1.2202 -0.8077
 1715TIP3    H2 5110   2.887   2.122   2.094  1.2489  1.2609  0.3172
 1716TIP3   OH2 5111   0.757   6.343   5.526 -0.0836  0.0014  0.0690
 1716TIP3    H1 5112   0.835   6.326   5.472 -0.0508 -0.2708  0.2005
 1716TIP3    H2 5113   0.731   6.257   5.558 -2.7683 -0.5671 -3.1012
 1717TIP3   OH2 5114   5.429   2.025   0.559 -0.4149 -0.1121 -0.3717
 1717TIP3    H1 5115   5.376   1.947   0.575  0.2904 -0.3876  0.7523
 1717TIP3    H2 5116   5.518   1.992   0.547  0.5400  0.6155  3.3087
 1718TIP3   OH2 5117   4.992   3.210   1.122 -1.2858  0.3785 -0.3658
 1718TIP3    H1 5118   4.977   3.135   1.066 -1.9204  0.0032  0.2820
 1718TIP3    H2 5119   4.959   3.183   1.208 -0.8030  1.1133  0.0683
 1719TIP3   OH2 5120   4.068   2.862   3.642 -0.4805  0.3038  0.9297
 1719TIP3    H1 5121   3.994   2.844   3.584 -0.4431  0.9034  0.6844
 1719TIP3    H2 5122   4.093   2.952   3.621 -0.8635  0.7639  2.3081
 1720TIP3   OH2 5123   1.177   4.963   1.295  0.3361  0.2864  0.0468
 1720TIP3    H1 5124   1.266   5.000   1.288  0.2212  0.8536  1.3569
 1720TIP3    H2 5125   1.187   4.889   1.354  0.2573 -0.8278 -1.2944
 1721TIP3   OH2 5126   4.934   0.570   5.779 -0.2311 -0.8557 -0.4924
 1721TIP3    H1 5127   5.007   0.525   5.738 -1.4334 -1.9500 -1.5249
 1721TIP3    H2 5128   4.883   0.501   5.821 -0.1083  0.0154  1.1796
 1722TIP3   OH2 5129   3.115   0.668   2.912  0.1134  0.4609  0.5899
 1722TIP3    H1 5130   3.036   0.614   2.914  0.5337 -0.1673  0.7247
 1722TIP3    H2 5131   3.181   0.612   2.870  0.6726  0.6965  1.1293
 1723TIP3   OH2 5132   3.980   2.282   1.217 -0.0445 -0.0178 -0.9550
 1723TIP3    H1 5133   4.038   2.241   1.152 -0.3376 -1.8656 -0.1053
 1723TIP3    H2 5134   3.938   2.209   1.261 -1.0821  1.2438  0.2262
 1724TIP3   OH2 5135   6.490   0.316   3.733 -0.1228  0.3796 -0.3385
 1724TIP3    H1 5136   6.511   0.358   3.649 -1.3594  2.4220  0.3069
 1724TIP3    H2 5137   6.395   0.313   3.735 -0.1704  1.6198  1.5316
 1725TIP3   OH2 5138   5.649   1.901   3.260  0.0900  0.3010 -0.2576
 1725TIP3    H1 5139   5.697   1.984   3.265  1.8181 -0.6669 -0.1003
 1725TIP3    H2 5140   5.573   1.914   3.316 -0.0663  2.0211 -0.8054
 1726TIP3   OH2 5141   6.295   1.446   5.446  0.2568  0.5919 -0.4095
 1726TIP3    H1 5142   6.234   1.444   5.373  0.1683 -1.9023 -0.3300
 1726TIP3    H2 5143   6.377   1.413   5.410 -0.1477 -1.9943  0.8369
 1727TIP3   OH2 5144   6.328   2.536   3.547 -0.7552 -0.3439 -0.4264
 1727TIP3    H1 5145   6.365   2.624   3.540 -1.8193  0.2343  0.6934
 1727TIP3    H2 5146   6.377   2.484   3.484  1.8989  0.3621  0.9240
 1728TIP3   OH2 5147   6.687   6.532   5.616  0.3298  0.3190  0.1650
 1728TIP3    H1 5148   6.780   6.553   5.625  0.3853 -0.6542  2.6221
 1728TIP3    H2 5149   6.665   6.485   5.697 -1.7951 -1.3785 -1.2836
 1729TIP3   OH2 5150   7.057   6.660   3.542  0.3391  0.1476  0.1890
 1729TIP3    H1 5151   7.003   6.739   3.547 -3.6795 -2.2859 -0.3708
 1729TIP3    H2 5152   7.113   6.664   3.620 -0.3635  3.0891  0.6463
 1730TIP3   OH2 5153   6.425   6.566   4.306  0.8051 -0.3193  0.2173
 1730TIP3    H1 5154   6.393   6.651   4.336 -0.3629 -0.1864 -1.3005
 1730TIP3    H2 5155   6.504   6.587   4.255 -0.4326  0.0954 -1.6206
 1731TIP3   OH2 5156   0.610   2.938   4.909  0.7360 -0.1943 -0.1306
 1731TIP3    H1 5157   0.687   2.883   4.927  1.2525  0.7561  0.6100
 1731TIP3    H2 5158   0.617   3.011   4.971  1.5210  2.1791 -2.8171
 1732TIP3   OH2 5159   5.078   4.225   5.897  0.3517 -0.2897  0.2678
 1732TIP3    H1 5160   5.160   4.191   5.862 -0.6705 -1.6494 -0.9381
 1732TIP3    H2 5161   5.072   4.314   5.863  0.6711 -0.6686 -0.8211
 1733TIP3   OH2 5162   7.110   1.845   5.270  0.0621 -0.8942 -0.6012
 1733TIP3    H1 5163   7.047   1.811   5.333  2.4686 -0.3094  2.3967
 1733TIP3    H2 5164   7.061   1.907   5.217 -1.9116 -0.5868  1.4495
 1734TIP3   OH2 5165   1.250   3.069   0.371 -0.3209 -0.3362 -0.0727
 1734TIP3    H1 5166   1.316   3.136   0.351  0.0519 -0.5334  0.4840
 1734TIP3    H2 5167   1.279   3.031   0.454 -1.0030 -0.5962  0.0484
 1735TIP3   OH2 5168   6.104   0.170   0.111  0.1600  0.6411 -0.0367
 1735TIP3    H1 5169   6.167   0.199   0.178  1.5615 -1.8879 -0.1500
 1735TIP3    H2 5170   6.029   0.139   0.161  0.1612  1.0475  0.2289
 1736TIP3   OH2 5171   0.802   1.702   3.838  0.3671 -0.7243 -0.2379
 1736TIP3    H1 5172   0.788   1.728   3.929  1.2005  0.7820 -0.5137
 1736TIP3    H2 5173   0.827   1.609   3.844  1.8154 -0.2910  1.2253
 1737TIP3   OH2 5174   4.644   4.721   0.385  0.1474 -0.6440 -0.6131
 1737TIP3    H1 5175   4.623   4.785   0.317 -0.5602 -2.4313 -2.1597
 1737TIP3    H2 5176   4.728   4.684   0.358  0.3584 -0.6740  0.0562
 1738TIP3   OH2 5177   6.227   2.414   5.788 -0.1298 -0.4251  0.1679
 1738TIP3    H1 5178   6.279   2.453   5.718  0.9778 -1.2912  0.4784
 1738TIP3    H2 5179   6.176   2.487   5.824  0.6684  0.3919 -0.3412
 1739TIP3   OH2 5180   3.787   2.949   0.786 -0.0550  0.5397 -0.0005
 1739TIP3    H1 5181   3.768   2.937   0.693  1.4640 -2.0442 -0.0792
 1739TIP3    H2 5182   3.873   2.992   0.787 -0.8747  2.2470  0.2717
 1740TIP3   OH2 5183   3.411   6.747   1.121  0.2508  0.9534  0.0440
 1740TIP3    H1 5184   3.440   6.836   1.142  0.0725  0.8002  0.9680
 1740TIP3    H2 5185   3.483   6.711   1.068  1.6277  0.7321  1.9424
 1741TIP3   OH2 5186   0.320   1.654   3.061 -0.3952  0.2123 -0.3147
 1741TIP3    H1 5187   0.374   1.728   3.087 -0.9498  0.5788 -0.1753
 1741TIP3    H2 5188   0.281   1.682   2.978 -0.4536 -0.0035 -0.3595
 1742TIP3   OH2 5189   3.155   6.485   0.769  0.1177  0.2046 -0.1515
 1742TIP3    H1 5190   3.189   6.569   0.736  0.1923 -0.1808 -1.0908
 1742TIP3    H2 5191   3.069   6.506   0.804  0.8815  1.0178  1.3582
 1743TIP3   OH2 5192   0.682   0.548   3.732  0.0376 -0.5456 -0.2319
 1743TIP3    H1 5193   0.734   0.604   3.790 -0.2348  0.6863 -1.1293
 1743TIP3    H2 5194   0.658   0.605   3.659  1.5015 -2.3868 -2.2648
 1744TIP3   OH2 5195   5.971   2.696   3.134  0.1431 -0.0219 -0.4187
 1744TIP3    H1 5196   6.060   2.692   3.100  0.3104  0.4412 -0.0566
 1744TIP3    H2 5197   5.983   2.706   3.229 -0.2294  2.6186 -0.5825
 1745TIP3   OH2 5198   7.044   5.775   5.102  0.4343 -0.0599 -0.4473
 1745TIP3    H1 5199   6.965   5.819   5.133 -0.4318 -0.5792 -1.7821
 1745TIP3    H2 5200   7.116   5.823   5.141 -0.5147  1.4720 -0.5099
 1746TIP3   OH2 5201   4.543   1.554   4.227  0.3848  0.2838  0.4418
 1746TIP3    H1 5202   4.576   1.635   4.187 -0.2412 -0.1074 -0.9225
 1746TIP3    H2 5203   4.459   1.539   4.184 -0.0579 -0.4671  1.5410
 1747TIP3   OH2 5204   5.634   4.866   1.736  0.1698 -0.7395  0.8269
 1747TIP3    H1 5205   5.669   4.909   1.659 -1.0563 -1.9186 -0.4435
 1747TIP3    H2 5206   5.689   4.897   1.808  0.7347  1.1419 -0.3492
 1748TIP3   OH2 5207   5.342   5.782   3.528 -0.4542 -0.1021  0.2010
 1748TIP3    H1 5208   5.428   5.777   3.487 -0.7951  0.1497 -0.5690
 1748TIP3    H2 5209   5.359   5.812   3.617  0.2781 -0.3740  0.1594
 1749TIP3   OH2 5210   3.947   3.992   3.602  0.3101 -0.0489 -0.3463
 1749TIP3    H1 5211   3.895   3.936   3.659 -0.3055  1.1129  0.2733
 1749TIP3    H2 5212   3.909   3.980   3.515  1.0607 -1.6013 -0.5028
 1750TIP3   OH2 5213   3.496   6.361   0.572 -0.2656  0.0798 -0.2006
 1750TIP3    H1 5214   3.497   6.419   0.647  0.7080 -1.1758  0.7985
 1750TIP3    H2 5215   3.420   6.304   0.586  0.2545 -0.5386  0.1584
 1751TIP3   OH2 5216   5.136   5.194   4.860 -0.2798  0.2384  0.1715
 1751TIP3    H1 5217   5.147   5.099   4.853  0.3146  0.3516 -0.5030
 1751TIP3    H2 5218   5.197   5.221   4.928 -0.1331  0.1903  0.0593
 1752TIP3   OH2 5219   4.741   0.513   4.976 -0.0652 -0.1639  0.0497
 1752TIP3    H1 5220   4.673   0.518   4.909  0.1739  0.3904 -0.1585
 1752TIP3    H2 5221   4.798   0.442   4.947 -0.9364 -1.1198  0.5985
 1753TIP3   OH2 5222   0.760   6.639   1.507 -0.7321 -0.1023 -0.4677
 1753TIP3    H1 5223   0.690   6.653   1.571 -0.2120  0.1273  0.0696
 1753TIP3    H2 5224   0.717   6.644   1.422 -1.3127  0.3786 -0.1548
 1754TIP3   OH2 5225   6.553   3.940   3.828  0.6312 -0.3835  0.1979
 1754TIP3    H1 5226   6.643   3.966   3.848  0.1648  0.7051  0.9322
 1754TIP3    H2 5227   6.512   4.019   3.794 -0.7940 -0.0941  2.4142
 1755TIP3   OH2 5228   2.508   3.438   1.708  0.3092  0.6944  0.3289
 1755TIP3    H1 5229   2.432   3.490   1.684  0.6070 -0.1191 -2.7926
 1755TIP3    H2 5230   2.495   3.354   1.664  2.1228 -0.1721  1.3029
 1756TIP3   OH2 5231   2.265   2.872   0.557  0.4976  0.2189  0.2399
 1756TIP3    H1 5232   2.217   2.793   0.529 -0.6694  1.4212 -1.3720
 1756TIP3    H2 5233   2.198   2.925   0.601  0.7853  1.1282 -0.4060
 1757TIP3   OH2 5234   2.279   2.556   4.855  0.1899 -0.5053 -0.2137
 1757TIP3    H1 5235   2.238   2.610   4.787 -3.7428 -1.0471  1.4641
 1757TIP3    H2 5236   2.277   2.467   4.818  0.1513 -0.4868 -0.2572
 1758TIP3   OH2 5237   0.968   3.697   3.511 -0.0036  0.4883 -0.0189
 1758TIP3    H1 5238   0.956   3.623   3.453 -2.1113  0.8762 -0.1522
 1758TIP3    H2 5239   1.063   3.705   3.521  0.2921 -1.5498 -0.8242
 1759TIP3   OH2 5240   0.358   0.096   2.517 -0.2279 -0.3498  0.1270
 1759TIP3    H1 5241   0.418   0.084   2.590 -1.0494  0.0636  0.8876
 1759TIP3    H2 5242   0.378   0.184   2.483 -0.1442 -0.3689  0.1264
 1760TIP3   OH2 5243   4.592   2.767   1.448 -0.6687  0.0037  0.6548
 1760TIP3    H1 5244   4.649   2.690   1.441 -0.1509  0.3646  0.8830
 1760TIP3    H2 5245   4.610   2.802   1.535 -1.2050  0.1521  0.7076
 1761TIP3   OH2 5246   6.621   1.190   0.895  0.0996 -0.5096 -0.3138
 1761TIP3    H1 5247   6.583   1.155   0.975 -1.6544  2.0086  0.0947
 1761TIP3    H2 5248   6.676   1.120   0.860  1.5644 -1.4473  3.4622
 1762TIP3   OH2 5249   0.799   4.466   1.139  0.0328 -0.2242  0.2653
 1762TIP3    H1 5250   0.724   4.471   1.080  0.8474 -0.1556 -0.7967
 1762TIP3    H2 5251   0.767   4.417   1.215 -0.8237 -1.0210 -0.5911
 1763TIP3   OH2 5252   1.756   4.303   0.092 -0.7064  0.3159 -0.2174
 1763TIP3    H1 5253   1.801   4.386   0.074 -1.4781  0.5857 -0.9733
 1763TIP3    H2 5254   1.700   4.322   0.167  2.0218 -0.6271  2.1972
 1764TIP3   OH2 5255   7.246   2.909   3.251  0.3750  0.8954  0.0798
 1764TIP3    H1 5256   7.192   2.894   3.329 -0.6875  0.6562 -0.6800
 1764TIP3    H2 5257   7.183   2.927   3.182  1.2133 -0.4246 -1.0750
 1765TIP3   OH2 5258   0.832   2.061   4.797  0.1022  0.4343  0.4954
 1765TIP3    H1 5259   0.772   2.014   4.856  0.7716  1.4322  2.0415
 1765TIP3    H2 5260   0.775   2.115   4.743 -0.4685  0.6475  1.2805
 1766TIP3   OH2 5261   5.472   4.319   5.785 -0.7937 -0.2217  0.0138
 1766TIP3    H1 5262   5.420   4.353   5.712  0.1003  0.3321 -0.3734
 1766TIP3    H2 5263   5.545   4.273   5.743  0.1149  0.7036  0.5464
 1767TIP3   OH2 5264   4.281   3.594   0.711  0.2197  0.4195 -0.0750
 1767TIP3    H1 5265   4.265   3.663   0.775  0.3177  0.3005  0.0782
 1767TIP3    H2 5266   4.195   3.554   0.696  0.3116 -0.0055  0.5013
 1768TIP3   OH2 5267   5.627   5.711   5.671  0.0804 -0.5832 -0.0686
 1768TIP3    H1 5268   5.577   5.792   5.672 -0.1418 -0.7153 -0.5133
 1768TIP3    H2 5269   5.611   5.673   5.585  2.7505  0.4830 -1.1167
 1769TIP3   OH2 5270   4.422   1.976   1.820  0.0484  0.3606 -0.2849
 1769TIP3    H1 5271   4.382   1.891   1.805  1.7566 -0.5991  0.3316
 1769TIP3    H2 5272   4.371   2.037   1.765 -1.8450 -0.8406  0.0400
 1770TIP3   OH2 5273   6.134   5.461   0.528 -0.0322  0.1013 -0.3498
 1770TIP3    H1 5274   6.218   5.470   0.482 -0.0364  1.1123 -0.1761
 1770TIP3    H2 5275   6.068   5.478   0.461 -0.1679 -1.8589 -0.7735
 1771TIP3   OH2 5276   6.409   3.963   0.665 -0.4139  0.0573  0.4724
 1771TIP3    H1 5277   6.428   3.950   0.572 -0.3276 -0.8135  0.6069
 1771TIP3    H2 5278   6.319   3.998   0.667  0.0183  1.2587  0.0091
 1772TIP3   OH2 5279   7.146   0.578   2.193  0.0977 -0.2034 -0.3471
 1772TIP3    H1 5280   7.204   0.508   2.223 -1.0151 -1.3270 -0.7455
 1772TIP3    H2 5281   7.179   0.602   2.107 -0.2459 -1.1045 -0.7328
 1773TIP3   OH2 5282   2.926   4.674   4.218 -0.3376 -0.1291 -0.0127
 1773TIP3    H1 5283   2.843   4.672   4.265  0.0244  2.0993  0.8292
 1773TIP3    H2 5284   2.904   4.704   4.130 -0.7652 -2.4870 -0.7759
 1774TIP3   OH2 5285   5.000   2.869   3.186 -1.1069 -0.4439 -0.0706
 1774TIP3    H1 5286   4.948   2.790   3.172 -0.7257 -1.1027  1.9302
 1774TIP3    H2 5287   5.063   2.868   3.113 -0.8813 -2.1888  0.0906
 1775TIP3   OH2 5288   4.854   5.181   3.896  0.3207  0.5258 -0.4695
 1775TIP3    H1 5289   4.906   5.233   3.957  0.6740 -0.1890 -0.1509
 1775TIP3    H2 5290   4.910   5.107   3.874 -0.3503  0.0406 -0.5673
 1776TIP3   OH2 5291   4.774   3.934   5.105 -0.1778 -0.3011 -0.1905
 1776TIP3    H1 5292   4.856   3.915   5.061 -0.6532  1.3083 -1.9282
 1776TIP3    H2 5293   4.709   3.879   5.060 -0.4621  0.4388 -0.7144
 1777TIP3   OH2 5294   2.060   4.705   5.360 -0.4661 -0.0408  0.1147
 1777TIP3    H1 5295   2.005   4.680   5.434  0.2595  0.5364  0.8674
 1777TIP3    H2 5296   2.058   4.801   5.360  0.4001 -0.0149  0.0594
 1778TIP3   OH2 5297   4.687   3.799   4.864 -0.3080  0.2417  0.4380
 1778TIP3    H1 5298   4.630   3.767   4.794 -2.9400  2.7730  1.1938
 1778TIP3    H2 5299   4.752   3.731   4.876 -3.0708 -2.8422 -0.6655
 1779TIP3   OH2 5300   5.950   4.089   2.262 -0.0636  0.3837  0.7873
 1779TIP3    H1 5301   6.013   4.076   2.192 -0.6523  1.3583  0.0508
 1779TIP3    H2 5302   6.003   4.104   2.340  0.5989 -1.1231  0.6519
 1780TIP3   OH2 5303   0.607   1.943   5.625 -0.2378  0.6617  0.2792
 1780TIP3    H1 5304   0.657   1.966   5.547 -1.2008  0.4343 -0.4050
 1780TIP3    H2 5305   0.552   2.019   5.642 -2.3083 -0.4464 -1.1010
 1781TIP3   OH2 5306   3.837   2.787   3.433 -0.0963  0.2596 -0.1513
 1781TIP3    H1 5307   3.888   2.707   3.444 -0.6764 -0.2572 -1.1044
 1781TIP3    H2 5308   3.801   2.781   3.345  1.1715  2.3590 -0.8834
 1782TIP3   OH2 5309   1.705   0.965   2.879  0.5379 -0.0442  0.5258
 1782TIP3    H1 5310   1.687   1.017   2.957 -1.4853 -0.4241  0.3717
 1782TIP3    H2 5311   1.619   0.932   2.852  1.5361 -2.1183 -0.3322
 1783TIP3   OH2 5312   0.130   1.685   2.852  0.7623  0.2296 -0.3381
 1783TIP3    H1 5313   0.090   1.678   2.765  1.3944  0.1793 -0.6255
 1783TIP3    H2 5314   0.056   1.675   2.912  0.4630 -0.7614 -0.8473
 1784TIP3   OH2 5315   6.033   0.617   2.166 -0.0654 -0.3240 -0.1229
 1784TIP3    H1 5316   6.102   0.555   2.189  0.3952  0.2246  0.0134
 1784TIP3    H2 5317   6.065   0.701   2.198 -1.4612 -0.2749  1.2806
 1785TIP3   OH2 5318   3.061   6.542   4.663  0.1636 -0.4927 -0.0614
 1785TIP3    H1 5319   3.086   6.549   4.571 -1.4120  1.3639 -0.4055
 1785TIP3    H2 5320   3.145   6.536   4.709  0.9743 -2.8918 -1.6264
 1786TIP3   OH2 5321   6.860   2.370   1.668 -0.5232  0.1116 -0.2207
 1786TIP3    H1 5322   6.768   2.387   1.685 -0.8764 -2.4002  0.8819
 1786TIP3    H2 5323   6.862   2.336   1.579 -0.9976 -1.5984  0.3799
 1787TIP3   OH2 5324   5.171   5.088   2.092 -0.2408 -0.0775  0.4148
 1787TIP3    H1 5325   5.189   5.158   2.029 -0.1918 -2.7326 -2.8263
 1787TIP3    H2 5326   5.092   5.045   2.058 -0.8271 -1.0314  2.8176
 1788TIP3   OH2 5327   2.757   1.079   0.820  0.5138  0.2130  0.3424
 1788TIP3    H1 5328   2.788   1.061   0.908 -0.3535  2.2030  1.1294
 1788TIP3    H2 5329   2.830   1.123   0.776  0.4300  0.5994  0.5892
 1789TIP3   OH2 5330   3.301   5.701   5.568  0.1843 -0.2610  0.5253
 1789TIP3    H1 5331   3.292   5.621   5.619  1.4633 -0.6868  0.1119
 1789TIP3    H2 5332   3.324   5.768   5.633  0.7350 -0.5697  0.6504
 1790TIP3   OH2 5333   3.003   1.738   3.957  0.3667 -0.4545 -0.3652
 1790TIP3    H1 5334   2.987   1.819   4.007  1.2243  1.1955 -2.5855
 1790TIP3    H2 5335   2.931   1.681   3.981 -1.6591  1.8805 -0.4302
 1791TIP3   OH2 5336   5.951   6.445   3.853  0.0047 -0.4181 -0.4044
 1791TIP3    H1 5337   5.916   6.530   3.878 -1.0147 -0.9372  0.0090
 1791TIP3    H2 5338   5.876   6.386   3.860  1.2966 -1.9180  2.1312
 1792TIP3   OH2 5339   0.036   3.559   4.710 -0.3296  0.1981  0.2098
 1792TIP3    H1 5340   0.071   3.471   4.724  1.2080  0.3936 -1.8225
 1792TIP3    H2 5341   0.034   3.569   4.615  0.9102  2.8394  0.3605
 1793TIP3   OH2 5342   3.113   1.719   3.344 -0.1984  0.2309 -0.4085
 1793TIP3    H1 5343   3.059   1.787   3.384  1.3321  0.7203  0.9519
 1793TIP3    H2 5344   3.057   1.642   3.340 -0.8524  0.5688  1.4446
 1794TIP3   OH2 5345   7.128   2.967   3.949  0.3821 -0.3080  0.5140
 1794TIP3    H1 5346   7.092   2.995   3.865 -1.5706  0.3505  1.5324
 1794TIP3    H2 5347   7.223   2.977   3.938  0.3077 -1.5044 -2.0387
 1795TIP3   OH2 5348   6.369   1.658   4.294  0.0578  0.2548 -0.4430
 1795TIP3    H1 5349   6.335   1.595   4.357  0.8703 -0.6609 -0.8901
 1795TIP3    H2 5350   6.447   1.616   4.258  0.0459  1.0849 -1.4904
 1796TIP3   OH2 5351   2.129   5.788   3.098 -0.2239 -0.5350  0.2359
 1796TIP3    H1 5352   2.164   5.736   3.170 -0.0514  0.4672  0.8789
 1796TIP3    H2 5353   2.099   5.869   3.138 -0.3386 -0.0581 -0.7870
 1797TIP3   OH2 5354   2.981   0.863   1.333  0.3136  0.1034  0.1489
 1797TIP3    H1 5355   2.899   0.913   1.331  0.2044 -0.0809 -1.3366
 1797TIP3    H2 5356   3.034   0.901   1.263  1.2672 -0.1801  0.6994
 1798TIP3   OH2 5357   3.550   0.996   2.869  0.4903  0.0840  0.1705
 1798TIP3    H1 5358   3.546   0.979   2.775 -0.6300  1.8018 -0.1408
 1798TIP3    H2 5359   3.458   1.004   2.896  0.8250  1.5459  0.9984
 1799TIP3   OH2 5360   4.849   6.084   0.580 -0.5640 -0.5513 -0.4407
 1799TIP3    H1 5361   4.871   5.995   0.555 -2.1889 -0.4732 -2.4524
 1799TIP3    H2 5362   4.866   6.088   0.674  0.7612 -2.5684 -0.5486
 1800TIP3   OH2 5363   4.310   5.914   2.705  0.1215 -0.0424  0.6541
 1800TIP3    H1 5364   4.311   5.962   2.622  0.7195 -0.8356  0.1936
 1800TIP3    H2 5365   4.353   5.831   2.685 -1.0443 -0.8441  1.4013
 1801TIP3   OH2 5366   3.412   0.248   3.445 -0.0387 -0.0017  0.2946
 1801TIP3    H1 5367   3.415   0.266   3.351 -1.3875 -0.5540  0.1194
 1801TIP3    H2 5368   3.322   0.268   3.471  0.5611  1.0764  1.6922
 1802TIP3   OH2 5369   0.522   3.308   3.150 -0.0337 -0.1042  0.0090
 1802TIP3    H1 5370   0.606   3.322   3.106  0.2678  2.6362  1.3081
 1802TIP3    H2 5371   0.458   3.345   3.090 -0.1730 -0.7564 -0.2572
 1803TIP3   OH2 5372   6.674   5.238   0.550  0.0845 -0.4349  0.3930
 1803TIP3    H1 5373   6.764   5.249   0.580 -0.0323  0.0804  0.5745
 1803TIP3    H2 5374   6.675   5.157   0.499  0.8259 -0.0254 -0.2701
 1804TIP3   OH2 5375   5.586   4.050   3.715  0.5624  0.2862 -0.1537
 1804TIP3    H1 5376   5.590   4.057   3.810  0.5018 -0.6715 -0.0640
 1804TIP3    H2 5377   5.673   4.020   3.690  0.8298  1.3273 -0.4859
 1805TIP3   OH2 5378   6.089   3.400   2.793  0.3413 -0.0204 -0.4592
 1805TIP3    H1 5379   6.032   3.434   2.862  1.0032 -0.9013  0.5610
 1805TIP3    H2 5380   6.172   3.445   2.807 -0.1490  1.4963 -2.1409
 1806TIP3   OH2 5381   0.793   5.774   2.360  0.4687 -0.2192 -0.6171
 1806TIP3    H1 5382   0.868   5.833   2.356  1.0625 -1.0063 -1.3977
 1806TIP3    H2 5383   0.830   5.687   2.352 -0.6104 -0.5716 -2.5563
 1807TIP3   OH2 5384   6.540   6.582   1.757  0.2807  0.0549 -0.2191
 1807TIP3    H1 5385   6.566   6.672   1.739 -0.9519  0.3047 -0.8649
 1807TIP3    H2 5386   6.584   6.530   1.689 -1.0822  0.5112 -1.5103
 1808TIP3   OH2 5387   2.081   1.460   2.227 -0.2067 -0.4882  0.0518
 1808TIP3    H1 5388   2.044   1.373   2.238  0.2447 -0.5574  1.1337
 1808TIP3    H2 5389   2.155   1.463   2.288 -2.0727  1.6905  2.4591
 1809TIP3   OH2 5390   3.100   3.461   4.900 -0.6155  0.0375 -0.7539
 1809TIP3    H1 5391   3.066   3.479   4.812 -0.3341 -1.0975 -1.1039
 1809TIP3    H2 5392   3.022   3.445   4.953 -0.9432  2.6899 -0.2775
 1810TIP3   OH2 5393   3.411   2.846   1.775  0.0553  0.2719 -0.2045
 1810TIP3    H1 5394   3.358   2.921   1.747  0.2956  0.8463  0.8291
 1810TIP3    H2 5395   3.354   2.770   1.762 -0.1238  0.5909 -1.4561
 1811TIP3   OH2 5396   4.551   5.660   5.031 -1.2029  0.0079 -0.2725
 1811TIP3    H1 5397   4.533   5.686   4.941 -1.8420 -0.3828 -0.2605
 1811TIP3    H2 5398   4.469   5.675   5.077 -0.7263  0.7370  0.3781
 1812TIP3   OH2 5399   4.453   6.762   1.921  0.1267  0.8437 -0.3640
 1812TIP3    H1 5400   4.526   6.770   1.982 -0.7952  2.7091  0.5967
 1812TIP3    H2 5401   4.428   6.670   1.924  0.6623  0.7349  1.4385
 1813TIP3   OH2 5402   3.988   6.339   5.834  0.1437  0.3496 -0.0336
 1813TIP3    H1 5403   4.077   6.368   5.855  0.8899 -1.5329 -0.3723
 1813TIP3    H2 5404   3.963   6.285   5.909 -0.8060  1.0014  0.1373
 1814TIP3   OH2 5405   6.942   1.563   3.314  0.0985  0.6083 -0.4041
 1814TIP3    H1 5406   6.881   1.497   3.283 -0.4845 -0.5316  2.7662
 1814TIP3    H2 5407   6.986   1.594   3.235 -0.3021 -2.8332 -2.1721
 1815TIP3   OH2 5408   6.040   2.637   0.749  0.6229 -0.3077  0.7693
 1815TIP3    H1 5409   6.019   2.646   0.842 -1.5399 -0.7873  0.3864
 1815TIP3    H2 5410   6.015   2.721   0.710 -0.2162 -0.7330  0.3625
 1816TIP3   OH2 5411   1.060   4.370   5.129 -0.4406  0.7925  0.4868
 1816TIP3    H1 5412   1.101   4.312   5.065 -0.2558  0.0356  1.2587
 1816TIP3    H2 5413   1.131   4.389   5.191 -1.5018 -1.7305  2.6818
 1817TIP3   OH2 5414   4.426   5.673   2.714 -0.4222 -0.2437  0.1505
 1817TIP3    H1 5415   4.484   5.618   2.661 -0.9967 -0.9114  0.2052
 1817TIP3    H2 5416   4.477   5.693   2.792 -0.2583 -0.8157  0.1913
 1818TIP3   OH2 5417   3.668   4.276   3.110  0.1086 -0.5672  0.0491
 1818TIP3    H1 5418   3.661   4.195   3.160  0.3315 -0.6059  0.0188
 1818TIP3    H2 5419   3.579   4.292   3.078 -0.0593 -0.4823  0.5453
 1819TIP3   OH2 5420   6.047   1.231   3.754  0.1988 -0.1600 -0.1837
 1819TIP3    H1 5421   6.016   1.293   3.689 -0.0339 -1.2067 -1.0867
 1819TIP3    H2 5422   6.066   1.285   3.831 -0.9109  0.8960 -0.6195
 1820TIP3   OH2 5423   4.368   3.413   4.732 -0.7684  0.3198  0.1683
 1820TIP3    H1 5424   4.275   3.391   4.741 -0.6798 -1.0196 -1.6129
 1820TIP3    H2 5425   4.399   3.358   4.660  1.4110  0.7784  0.6797
 1821TIP3   OH2 5426   6.265   6.420   3.454  0.6818 -0.3272 -0.1072
 1821TIP3    H1 5427   6.309   6.366   3.519  0.2713 -0.7145 -0.1377
 1821TIP3    H2 5428   6.183   6.446   3.497  1.9462  2.3973  0.8731
 1822TIP3   OH2 5429   2.858   4.129   5.524 -0.6223 -0.0182 -0.0812
 1822TIP3    H1 5430   2.902   4.047   5.548  0.3563  0.7194  0.7005
 1822TIP3    H2 5431   2.798   4.147   5.597  2.4791  2.3156  2.1420
 1823TIP3   OH2 5432   2.881   0.620   0.617 -0.0882  0.3072 -0.4480
 1823TIP3    H1 5433   2.812   0.646   0.678  0.7703  0.1539  0.6106
 1823TIP3    H2 5434   2.919   0.703   0.588 -2.0284  0.5398 -2.6942
 1824TIP3   OH2 5435   3.056   2.087   2.575 -0.3052 -0.0067 -0.1625
 1824TIP3    H1 5436   3.017   2.158   2.626 -2.0159 -0.1734 -1.1588
 1824TIP3    H2 5437   3.141   2.072   2.615 -0.0164  2.4065  0.2536
 1825TIP3   OH2 5438   7.047   0.133   4.993  0.1931  0.1810  0.1916
 1825TIP3    H1 5439   7.052   0.163   5.084 -1.0958  0.0135  0.3383
 1825TIP3    H2 5440   7.027   0.212   4.943 -2.2736 -0.1607  0.4702
 1826TIP3   OH2 5441   1.965   5.204   2.759  0.5158  0.3736 -0.2335
 1826TIP3    H1 5442   2.061   5.204   2.752  0.5764  1.9981  0.1417
 1826TIP3    H2 5443   1.941   5.112   2.762  1.8564 -0.1710 -3.0257
 1827TIP3   OH2 5444   5.324   2.572   1.571 -0.4147 -0.1693  0.1331
 1827TIP3    H1 5445   5.232   2.583   1.592  0.0627 -0.0538  2.4337
 1827TIP3    H2 5446   5.357   2.661   1.558 -0.2555 -0.0621  1.1911
 1828TIP3   OH2 5447   3.796   3.830   4.632 -0.1464  0.3521  0.3619
 1828TIP3    H1 5448   3.835   3.858   4.549  0.4096  0.2928  0.6026
 1828TIP3    H2 5449   3.812   3.903   4.692 -1.5418  0.8892  0.1323
 1829TIP3   OH2 5450   2.396   1.096   3.724  0.4603  0.4345 -0.3281
 1829TIP3    H1 5451   2.440   1.057   3.800  2.4568  2.6588 -0.2279
 1829TIP3    H2 5452   2.304   1.098   3.748  0.9296  0.2205  1.6744
 1830TIP3   OH2 5453   2.754   2.089   2.880 -0.4121  0.0302  0.4358
 1830TIP3    H1 5454   2.820   2.049   2.938 -2.0681 -0.0477  2.3796
 1830TIP3    H2 5455   2.765   2.043   2.797  1.0373 -0.9646  1.1256
 1831TIP3   OH2 5456   3.639   6.744   4.436 -0.4315 -0.4231  0.1594
 1831TIP3    H1 5457   3.710   6.766   4.496  1.1464 -1.6855 -1.1436
 1831TIP3    H2 5458   3.644   6.811   4.367 -1.5649  0.4026  0.8278
 1832TIP3   OH2 5459   4.883   5.850   3.787  0.0373  0.6220 -0.4543
 1832TIP3    H1 5460   4.948   5.885   3.849  0.8804  0.6043 -1.3009
 1832TIP3    H2 5461   4.906   5.890   3.703 -0.1513 -0.5014 -1.0623
 1833TIP3   OH2 5462   0.594   6.627   1.290  0.5137 -0.2788 -0.3986
 1833TIP3    H1 5463   0.509   6.613   1.247  0.0344 -0.7563  0.6722
 1833TIP3    H2 5464   0.643   6.681   1.228 -0.7704  0.4761 -0.8016
 1834TIP3   OH2 5465   2.760   0.227   0.367 -0.4370 -0.0570 -0.0763
 1834TIP3    H1 5466   2.753   0.200   0.276 -1.2363 -4.2167  0.9742
 1834TIP3    H2 5467   2.672   0.255   0.391 -0.7201 -0.8527 -0.1488
 1835TIP3   OH2 5468   4.310   0.288   3.037 -0.7570  0.3816 -0.0121
 1835TIP3    H1 5469   4.319   0.200   3.001 -2.8058 -0.2887  0.9408
 1835TIP3    H2 5470   4.248   0.278   3.109 -1.1988  2.6434  0.0005
 1836TIP3   OH2 5471   5.539   5.298   2.141  0.4469 -0.5663  0.1059
 1836TIP3    H1 5472   5.596   5.353   2.087 -1.2472 -0.8561 -2.1133
 1836TIP3    H2 5473   5.482   5.254   2.078 -1.8502 -0.7044  2.1599
 1837TIP3   OH2 5474   0.095   3.559   4.428 -0.2308 -0.2725 -0.3204
 1837TIP3    H1 5475   0.156   3.487   4.413  0.6484  0.0765  1.3737
 1837TIP3    H2 5476   0.149   3.637   4.428 -0.7280  0.0885  0.8180
 1838TIP3   OH2 5477   6.780   4.368   3.755  0.4735  0.1270 -0.3180
 1838TIP3    H1 5478   6.770   4.309   3.830  0.6870 -1.3818 -1.4256
 1838TIP3    H2 5479   6.708   4.430   3.764 -1.7241 -2.1782 -0.7595
 1839TIP3   OH2 5480   4.892   2.999   0.981 -0.3760 -0.4784  0.0724
 1839TIP3    H1 5481   4.937   2.972   0.901  1.9071 -0.1657  1.1628
 1839TIP3    H2 5482   4.909   2.929   1.043  0.8986  0.8375  1.2866
 1840TIP3   OH2 5483   6.817   2.396   1.922  0.1103  0.1195  0.0416
 1840TIP3    H1 5484   6.843   2.391   1.830 -2.4801 -0.4901 -0.7400
 1840TIP3    H2 5485   6.849   2.315   1.962 -0.1387 -0.3638 -0.7326
 1841TIP3   OH2 5486   2.439   5.195   4.465 -0.1155 -0.1617  0.5570
 1841TIP3    H1 5487   2.503   5.248   4.514  0.1677  1.8512 -1.7670
 1841TIP3    H2 5488   2.493   5.139   4.409 -0.3771  0.2971 -0.1638
 1842TIP3   OH2 5489   1.316   4.472   3.230  0.1608 -0.1621  0.0853
 1842TIP3    H1 5490   1.406   4.505   3.226  0.3134 -0.5495  0.2444
 1842TIP3    H2 5491   1.309   4.431   3.316  0.4873 -1.9527 -0.7017
 1843TIP3   OH2 5492   4.274   5.102   1.300  0.1647 -0.3121 -0.6037
 1843TIP3    H1 5493   4.239   5.090   1.212  1.2319 -0.9650 -0.9641
 1843TIP3    H2 5494   4.237   5.185   1.330 -1.1841 -0.6900 -1.1734
 1844TIP3   OH2 5495   6.750   5.235   4.958 -0.1325 -0.1782  0.5467
 1844TIP3    H1 5496   6.715   5.323   4.951 -2.5067 -1.1157 -0.1579
 1844TIP3    H2 5497   6.792   5.219   4.873 -1.9173 -0.5826 -0.2982
 1845TIP3   OH2 5498   5.930   1.061   2.050 -0.2120 -0.1343 -0.6803
 1845TIP3    H1 5499   5.909   1.040   2.141  0.3446 -0.3112 -0.5879
 1845TIP3    H2 5500   6.020   1.092   2.052 -0.0324 -0.5810 -1.2261
 1846TIP3   OH2 5501   2.099   6.005   1.784  0.7488  0.1468  0.0104
 1846TIP3    H1 5502   2.115   6.095   1.813  1.9589 -0.4504  1.3260
 1846TIP3    H2 5503   2.150   5.997   1.703  0.3172  0.7514 -0.3304
 1847TIP3   OH2 5504   3.892   1.193   1.048 -0.1975  0.1911  0.2399
 1847TIP3    H1 5505   3.986   1.194   1.029 -0.1664  0.2618  0.3999
 1847TIP3    H2 5506   3.872   1.283   1.070 -0.8150  0.7700 -2.3237
 1848TIP3   OH2 5507   5.662   3.020   3.638  0.2698 -0.6015  0.0805
 1848TIP3    H1 5508   5.577   3.002   3.597  0.4190 -0.5577 -0.2511
 1848TIP3    H2 5509   5.651   3.107   3.677  0.3147 -0.3896 -0.3751
 1849TIP3   OH2 5510   0.603   1.687   1.722  0.2913 -0.0931 -0.0464
 1849TIP3    H1 5511   0.525   1.643   1.755  0.6347  0.4288  1.5826
 1849TIP3    H2 5512   0.668   1.674   1.791  2.4476 -2.5378 -2.3449
 1850TIP3   OH2 5513   4.103   4.301   1.052 -0.0892 -0.0995 -0.3990
 1850TIP3    H1 5514   4.027   4.259   1.011  0.2080 -0.0819 -0.9799
 1850TIP3    H2 5515   4.068   4.379   1.095 -0.4895 -0.4126 -0.1502
 1851TIP3   OH2 5516   2.916   3.086   4.875  0.2839 -0.3707  0.0617
 1851TIP3    H1 5517   2.959   3.052   4.953 -2.9146 -0.5629  1.9166
 1851TIP3    H2 5518   2.851   3.019   4.852 -0.8534  1.0045 -0.9167
 1852TIP3   OH2 5519   5.344   2.270   2.156  0.0675 -0.9300  0.0662
 1852TIP3    H1 5520   5.413   2.276   2.222 -0.8008 -1.3491  1.0283
 1852TIP3    H2 5521   5.302   2.356   2.156 -0.6768 -1.2785  0.9060
 1853TIP3   OH2 5522   4.188   5.454   4.298  0.1642 -0.4447  0.5678
 1853TIP3    H1 5523   4.098   5.482   4.314 -0.1286 -0.8436 -0.3246
 1853TIP3    H2 5524   4.241   5.513   4.351 -0.5945  0.0746  0.7672
 1854TIP3   OH2 5525   6.419   4.472   2.847  0.1024  0.1270  0.0670
 1854TIP3    H1 5526   6.502   4.453   2.892 -0.4883  0.6548  1.4180
 1854TIP3    H2 5527   6.428   4.562   2.817 -0.6428  0.8093  1.7936
 1855TIP3   OH2 5528   4.990   3.962   0.885 -0.3416 -0.4683  0.4079
 1855TIP3    H1 5529   4.960   3.963   0.975 -0.2865 -1.4402  0.4398
 1855TIP3    H2 5530   4.995   3.870   0.861  0.7374 -0.2706 -0.2207
 1856TIP3   OH2 5531   2.527   0.156   2.244 -0.1463 -0.4167  0.2405
 1856TIP3    H1 5532   2.484   0.135   2.327 -0.6015  2.2347  0.7430
 1856TIP3    H2 5533   2.488   0.094   2.181 -0.4651 -1.8590  1.7842
 1857TIP3   OH2 5534   3.685   4.105   0.943  0.3681  0.1729 -0.3101
 1857TIP3    H1 5535   3.751   4.098   1.012 -2.8388 -2.2317  2.8811
 1857TIP3    H2 5536   3.653   4.195   0.949  0.1419  0.0100  1.4707
 1858TIP3   OH2 5537   0.486   0.689   4.356  0.0332 -0.0372  0.9226
 1858TIP3    H1 5538   0.404   0.696   4.307 -0.2883 -0.9636  1.2990
 1858TIP3    H2 5539   0.464   0.634   4.431  1.3613 -1.6808  0.1784
 1859TIP3   OH2 5540   0.960   6.196   4.020 -0.0397 -0.4414 -0.1138
 1859TIP3    H1 5541   0.882   6.148   4.049 -0.7409  0.9032  0.3405
 1859TIP3    H2 5542   1.024   6.182   4.090 -0.5550  0.0287  0.4581
 1860TIP3   OH2 5543   2.609   2.318   5.644 -0.1799 -0.1452 -0.1866
 1860TIP3    H1 5544   2.597   2.264   5.566  1.9055  0.2223 -0.7960
 1860TIP3    H2 5545   2.696   2.356   5.635 -1.8651  4.3003 -0.3690
 1861TIP3   OH2 5546   4.896   1.090   1.412  0.1728  0.2881  0.4598
 1861TIP3    H1 5547   4.940   1.084   1.497  2.4255  0.6311 -0.6148
 1861TIP3    H2 5548   4.921   1.176   1.378 -0.8728  0.2471 -0.4836
 1862TIP3   OH2 5549   5.716   1.295   4.199 -0.0329  0.0720  0.6327
 1862TIP3    H1 5550   5.651   1.306   4.269 -0.0391 -0.6087  0.7379
 1862TIP3    H2 5551   5.690   1.358   4.132 -0.5963  0.0478  0.8275
 1863TIP3   OH2 5552   4.285   4.213   0.164  0.1145 -0.2999  0.3714
 1863TIP3    H1 5553   4.220   4.278   0.140  0.6549  0.0363 -0.2177
 1863TIP3    H2 5554   4.249   4.130   0.132 -0.3336 -0.2165  0.6599
 1864TIP3   OH2 5555   2.649   2.822   0.689 -0.2038  0.7643 -0.1178
 1864TIP3    H1 5556   2.647   2.772   0.608  1.0282 -0.4510  0.5417
 1864TIP3    H2 5557   2.741   2.819   0.716 -0.6507  0.8083  1.5027
 1865TIP3   OH2 5558   3.219   4.886   3.160  0.3314 -0.4653 -0.8780
 1865TIP3    H1 5559   3.296   4.927   3.119  0.2902 -0.4254 -0.9159
 1865TIP3    H2 5560   3.144   4.926   3.115  0.3141 -1.4743 -1.7832
 1866TIP3   OH2 5561   0.417   2.279   4.298  0.3064 -0.0169  0.3422
 1866TIP3    H1 5562   0.462   2.333   4.233  2.7133  0.5036  2.3190
 1866TIP3    H2 5563   0.381   2.342   4.361 -1.8155 -0.5212 -0.2660
 1867TIP3   OH2 5564   5.745   1.428   0.860 -0.8003  0.3705 -0.0727
 1867TIP3    H1 5565   5.668   1.372   0.872  0.3097 -0.9624  1.2937
 1867TIP3    H2 5566   5.786   1.396   0.780 -1.5009  0.9002 -0.6524
 1868TIP3   OH2 5567   2.868   3.157   0.716 -0.2337  0.1550 -0.2546
 1868TIP3    H1 5568   2.922   3.078   0.721  0.2935  0.3843 -1.7734
 1868TIP3    H2 5569   2.858   3.173   0.623 -1.2176  1.3006  0.0274
 1869TIP3   OH2 5570   0.023   1.645   1.925  0.0774 -0.1776 -0.2783
 1869TIP3    H1 5571   0.005   1.645   1.831  0.4923  0.1275 -0.3628
 1869TIP3    H2 5572   0.057   1.733   1.942  1.7385 -0.8013 -0.1954
 1870TIP3   OH2 5573   0.544   0.701   3.086 -0.3326 -0.3660  0.4694
 1870TIP3    H1 5574   0.560   0.794   3.104 -0.8871 -0.0236 -0.6920
 1870TIP3    H2 5575   0.621   0.673   3.035 -0.2732 -0.4833  0.6243
 1871TIP3   OH2 5576   6.608   3.585   0.606  0.5619 -0.6417  0.2215
 1871TIP3    H1 5577   6.664   3.584   0.529 -0.1629 -0.8177 -0.3132
 1871TIP3    H2 5578   6.519   3.580   0.571  0.2080 -0.3326  1.0514
 1872TIP3   OH2 5579   3.161   2.615   0.666  0.1213  0.8943  0.1640
 1872TIP3    H1 5580   3.098   2.623   0.595  2.2362  0.9605 -1.8002
 1872TIP3    H2 5581   3.156   2.524   0.694  0.2034  0.5341 -0.9833
 1873TIP3   OH2 5582   5.088   6.546   2.837 -0.8795 -0.2296 -0.0820
 1873TIP3    H1 5583   5.170   6.561   2.883 -1.4818  0.4268  0.8076
 1873TIP3    H2 5584   5.041   6.629   2.842 -0.8960 -0.0557 -2.0924
 1874TIP3   OH2 5585   2.770   4.855   4.052  0.6780  0.0232 -0.0524
 1874TIP3    H1 5586   2.849   4.908   4.059  0.1305  1.2029 -2.0071
 1874TIP3    H2 5587   2.726   4.887   3.974 -2.3017  0.1576  1.5109
 1875TIP3   OH2 5588   4.039   3.046   0.682 -0.1110 -0.0227 -0.0093
 1875TIP3    H1 5589   4.129   3.073   0.701 -0.6157  1.0260  1.0502
 1875TIP3    H2 5590   4.020   3.083   0.596  0.4196 -0.1367 -0.1800
 1876TIP3   OH2 5591   5.634   4.058   3.267 -0.0707 -0.3113 -0.0884
 1876TIP3    H1 5592   5.650   3.990   3.333  0.0531 -1.6636 -1.4375
 1876TIP3    H2 5593   5.701   4.124   3.284 -0.8608  0.0395  1.9328
 1877TIP3   OH2 5594   2.698   4.364   5.405 -0.2406  0.2047  0.0252
 1877TIP3    H1 5595   2.725   4.328   5.489 -1.8936 -1.0081  0.1043
 1877TIP3    H2 5596   2.758   4.325   5.341  0.0162 -0.1301  0.4706
 1878TIP3   OH2 5597   1.426   1.334   1.254 -0.6488  0.2364 -0.4277
 1878TIP3    H1 5598   1.347   1.283   1.234  0.5060 -1.8480  0.0569
 1878TIP3    H2 5599   1.484   1.318   1.180  0.5177 -0.8669  0.6924
 1879TIP3   OH2 5600   5.821   5.289   0.644  0.0694  0.3994  0.4379
 1879TIP3    H1 5601   5.849   5.339   0.567 -0.2470 -0.0245  0.0407
 1879TIP3    H2 5602   5.903   5.253   0.679  0.0000 -1.6622 -1.3048
 1880TIP3   OH2 5603   5.072   4.709   5.002 -0.4273  0.2348 -0.2134
 1880TIP3    H1 5604   5.076   4.631   4.948 -0.6678 -0.4690  0.7618
 1880TIP3    H2 5605   5.013   4.686   5.074 -0.2768  1.2141  0.2460
 1881TIP3   OH2 5606   5.710   2.573   4.635 -0.0819 -0.2844 -0.0924
 1881TIP3    H1 5607   5.778   2.507   4.646 -0.5371 -0.7021  0.2903
 1881TIP3    H2 5608   5.750   2.641   4.582  0.4747 -0.7562 -0.2818
 1882TIP3   OH2 5609   1.642   5.661   3.610  0.1015  0.7317 -0.2868
 1882TIP3    H1 5610   1.599   5.580   3.583  2.5099 -0.8677  0.3321
 1882TIP3    H2 5611   1.607   5.680   3.697  0.9899 -0.8574  0.4538
 1883TIP3   OH2 5612   1.534   5.555   5.502  1.2503  0.0980 -0.3405
 1883TIP3    H1 5613   1.566   5.605   5.577 -0.9451 -1.4270  1.7504
 1883TIP3    H2 5614   1.442   5.580   5.495  1.6954  1.2862 -3.5585
 1884TIP3   OH2 5615   0.214   0.428   0.437  0.1719  0.0656 -0.4417
 1884TIP3    H1 5616   0.204   0.493   0.506 -0.4309 -0.4328 -0.0420
 1884TIP3    H2 5617   0.292   0.378   0.462 -1.0496 -1.2894  0.9093
 1885TIP3   OH2 5618   4.067   2.774   2.232  0.7668  0.3952  0.0708
 1885TIP3    H1 5619   4.061   2.684   2.199  0.9387  0.1921  0.5715
 1885TIP3    H2 5620   4.151   2.806   2.198  0.6130  0.4387 -0.2738
 1886TIP3   OH2 5621   4.841   4.572   3.049 -0.1436 -0.2995 -0.4330
 1886TIP3    H1 5622   4.928   4.611   3.050 -0.7829  1.2023 -0.5667
 1886TIP3    H2 5623   4.854   4.482   3.081  1.4829 -0.2091 -0.7788
 1887TIP3   OH2 5624   0.183   3.994   1.223  0.0716  0.7340 -0.4106
 1887TIP3    H1 5625   0.255   3.992   1.160 -0.0737  0.9941 -0.5885
 1887TIP3    H2 5626   0.104   4.000   1.168 -0.4369 -3.5480 -0.4603
 1888TIP3   OH2 5627   7.095   1.369   4.592 -0.2274  0.2452 -0.2961
 1888TIP3    H1 5628   7.004   1.385   4.617  0.1157  1.2352  0.3938
 1888TIP3    H2 5629   7.109   1.425   4.516 -0.0272  0.5707 -0.0240
 1889TIP3   OH2 5630   4.998   5.826   5.283 -0.4124  0.5598  0.3300
 1889TIP3    H1 5631   4.919   5.843   5.336 -0.0999 -0.0579  1.0067
 1889TIP3    H2 5632   4.993   5.890   5.212 -1.1209  1.0533  0.8089
 1890TIP3   OH2 5633   4.805   2.044   0.503 -0.2796 -0.5604  0.8691
 1890TIP3    H1 5634   4.897   2.068   0.517 -0.9595  2.4824  0.9009
 1890TIP3    H2 5635   4.804   2.002   0.416  1.3972 -2.8762  1.8704
 1891TIP3   OH2 5636   6.729   2.266   0.979  0.1267  0.3656  0.0644
 1891TIP3    H1 5637   6.759   2.348   0.941 -1.0183  0.4894 -0.6130
 1891TIP3    H2 5638   6.707   2.211   0.904 -0.1143 -0.1708  0.5170
 1892TIP3   OH2 5639   4.956   4.850   3.205  0.2760  0.2588 -0.2922
 1892TIP3    H1 5640   5.038   4.852   3.154 -0.3543 -1.4982 -1.4791
 1892TIP3    H2 5641   4.893   4.898   3.150 -0.0112 -0.2583 -0.4195
 1893TIP3   OH2 5642   0.374   3.795   3.890 -0.6593  0.0440 -0.0788
 1893TIP3    H1 5643   0.309   3.739   3.932 -1.4117  0.0650 -1.1742
 1893TIP3    H2 5644   0.454   3.781   3.941 -1.1159 -1.1786  0.3389
 1894TIP3   OH2 5645   6.293   0.868   0.836 -0.1353 -0.3522 -0.7556
 1894TIP3    H1 5646   6.343   0.841   0.913  0.5104  0.9237 -0.7019
 1894TIP3    H2 5647   6.210   0.821   0.844 -0.0442 -0.3154  0.6648
 1895TIP3   OH2 5648   6.400   6.239   1.054 -0.4117  0.0489  0.1333
 1895TIP3    H1 5649   6.425   6.177   1.122  0.7566  2.3578  1.9724
 1895TIP3    H2 5650   6.481   6.284   1.031 -1.1729  0.7820 -1.2400
 1896TIP3   OH2 5651   2.191   2.507   0.216 -0.1218 -0.0028 -0.3956
 1896TIP3    H1 5652   2.149   2.423   0.197 -0.8144  0.5994 -1.6632
 1896TIP3    H2 5653   2.229   2.535   0.133  1.7386  0.0848  0.4314
 1897TIP3   OH2 5654   5.471   1.070   4.475  0.0249 -0.1945 -0.1703
 1897TIP3    H1 5655   5.380   1.092   4.454  0.2787  0.1595 -0.9610
 1897TIP3    H2 5656   5.514   1.155   4.483 -0.3322 -0.1951  3.3787
 1898TIP3   OH2 5657   1.365   1.343   2.324  0.6708 -0.4082  0.2715
 1898TIP3    H1 5658   1.330   1.315   2.239 -0.6045 -0.0874  0.6701
 1898TIP3    H2 5659   1.321   1.287   2.388  1.2135 -0.2704  0.7775
 1899TIP3   OH2 5660   6.955   1.402   2.985  0.1896  0.2536 -0.1167
 1899TIP3    H1 5661   6.959   1.361   2.899 -2.2383 -1.4630  0.5048
 1899TIP3    H2 5662   6.933   1.494   2.967  1.2374  0.2856 -1.3537
 1900TIP3   OH2 5663   4.984   5.096   5.515 -0.3514  0.0509 -0.4894
 1900TIP3    H1 5664   4.937   5.178   5.498  0.1208  0.7765  1.4299
 1900TIP3    H2 5665   5.071   5.125   5.544 -0.4192 -1.0955  0.9317
 1901TIP3   OH2 5666   0.485   3.306   5.712 -0.2619 -0.1871 -0.8121
 1901TIP3    H1 5667   0.535   3.244   5.659  0.0698 -0.4177 -0.2273
 1901TIP3    H2 5668   0.537   3.387   5.708  0.3911 -0.5428  0.1380
 1902TIP3   OH2 5669   6.576   2.176   3.706 -0.5330 -0.5291 -0.5612
 1902TIP3    H1 5670   6.531   2.256   3.733 -0.3766 -0.6557  0.1005
 1902TIP3    H2 5671   6.669   2.199   3.705 -0.3476 -1.0591  1.0349
 1903TIP3   OH2 5672   6.892   6.439   5.841  0.0021 -0.3321  0.0908
 1903TIP3    H1 5673   6.921   6.393   5.920 -2.7055  0.7445  1.8588
 1903TIP3    H2 5674   6.904   6.532   5.862 -2.1346  0.0329 -0.0978
 1904TIP3   OH2 5675   5.756   0.448   5.604 -0.0670  0.6204  0.2489
 1904TIP3    H1 5676   5.796   0.370   5.643 -2.6814 -1.9865 -1.7728
 1904TIP3    H2 5677   5.679   0.465   5.657 -0.4081  0.7515 -0.2790
 1905TIP3   OH2 5678   6.015   5.187   0.782 -0.6261 -0.4475 -0.0854
 1905TIP3    H1 5679   5.988   5.184   0.874 -1.6462  0.2757 -0.3455
 1905TIP3    H2 5680   6.110   5.191   0.786 -0.6750  0.2646  0.9643
 1906TIP3   OH2 5681   6.266   2.147   4.040 -0.4346  0.1911 -0.8435
 1906TIP3    H1 5682   6.260   2.056   4.068 -1.7702  0.7948  1.0778
 1906TIP3    H2 5683   6.357   2.172   4.059 -0.2944 -0.4975 -0.5793
 1907TIP3   OH2 5684   4.005   5.820   4.229 -0.7901  0.4010 -0.6227
 1907TIP3    H1 5685   3.938   5.868   4.278 -0.7472 -0.3096  0.1504
 1907TIP3    H2 5686   4.061   5.781   4.297  1.0035  1.7774 -1.2401
 1908TIP3   OH2 5687   6.267   2.223   1.680 -0.0785 -0.3052 -0.0635
 1908TIP3    H1 5688   6.341   2.172   1.713 -0.4527 -0.6907  0.1889
 1908TIP3    H2 5689   6.295   2.253   1.594  0.5572 -0.0471  0.2234
 1909TIP3   OH2 5690   3.748   4.651   0.654 -0.6285  0.2958 -0.3449
 1909TIP3    H1 5691   3.743   4.650   0.750  1.1600 -0.3057 -0.2194
 1909TIP3    H2 5692   3.805   4.725   0.634  0.3958 -0.5917 -0.8272
 1910TIP3   OH2 5693   1.334   4.119   2.299 -0.4854 -0.7707 -0.2046
 1910TIP3    H1 5694   1.326   4.029   2.268  0.8561 -1.1947  0.5714
 1910TIP3    H2 5695   1.408   4.117   2.361 -0.6385  0.7913  0.0873
 1911TIP3   OH2 5696   6.284   3.458   1.619  0.2890  0.3254  0.3055
 1911TIP3    H1 5697   6.352   3.484   1.557  1.0688 -1.4989  0.3111
 1911TIP3    H2 5698   6.325   3.464   1.705  0.1454  0.1186  0.3912
 1912TIP3   OH2 5699   0.897   0.971   2.311  0.0609  0.2446  0.4254
 1912TIP3    H1 5700   0.949   1.027   2.254 -0.9767 -0.2250 -1.0200
 1912TIP3    H2 5701   0.806   0.992   2.291 -0.3473 -0.0931  1.7617
 1913TIP3   OH2 5702   3.169   0.327   4.369 -0.2720 -0.1194  0.1725
 1913TIP3    H1 5703   3.173   0.274   4.290 -1.7035 -0.9908  0.6317
 1913TIP3    H2 5704   3.225   0.281   4.432 -2.0567 -1.5985  0.7956
 1914TIP3   OH2 5705   0.820   3.886   4.953 -0.4793 -0.5367  0.1881
 1914TIP3    H1 5706   0.883   3.936   5.005 -0.4799  0.8571 -1.0810
 1914TIP3    H2 5707   0.751   3.863   5.014 -0.3308  0.7817  0.8896
 1915TIP3   OH2 5708   1.364   0.464   5.378  0.4033 -0.3805  0.4125
 1915TIP3    H1 5709   1.287   0.417   5.409 -1.4843  2.1104 -0.2034
 1915TIP3    H2 5710   1.383   0.528   5.446  1.3337 -0.3128  0.1064
 1916TIP3   OH2 5711   0.828   4.768   4.640  0.3520 -0.9472  0.3261
 1916TIP3    H1 5712   0.747   4.726   4.669 -0.0857 -0.9021 -0.7690
 1916TIP3    H2 5713   0.799   4.847   4.595  1.0725 -0.3705  0.8565
 1917TIP3   OH2 5714   0.750   5.971   5.859  0.0005 -0.1494  0.0648
 1917TIP3    H1 5715   0.822   6.028   5.885 -1.4218  0.3237  3.6155
 1917TIP3    H2 5716   0.672   6.026   5.867 -0.9463 -0.9946 -2.4190
 1918TIP3   OH2 5717   3.599   6.529   5.483 -0.6967  0.0799 -0.4412
 1918TIP3    H1 5718   3.685   6.555   5.515 -1.5827  2.1986  0.4138
 1918TIP3    H2 5719   3.616   6.485   5.400  1.1995  0.5190 -0.3232
 1919TIP3   OH2 5720   5.116   6.422   5.062  0.3825 -0.0019 -0.3719
 1919TIP3    H1 5721   5.126   6.354   5.130 -0.8316  0.5896  0.4518
 1919TIP3    H2 5722   5.041   6.474   5.092 -2.2749 -1.5497 -3.7001
 1920TIP3   OH2 5723   3.514   2.464   0.478  0.0782  0.1451 -0.3281
 1920TIP3    H1 5724   3.510   2.388   0.536 -3.2825 -0.2479 -0.8948
 1920TIP3    H2 5725   3.478   2.536   0.530 -0.9548  0.2805 -1.2042
 1921TIP3   OH2 5726   1.801   6.036   0.245 -0.0694 -0.5531 -0.1130
 1921TIP3    H1 5727   1.817   6.028   0.339  2.3518 -2.4045 -0.5883
 1921TIP3    H2 5728   1.732   5.972   0.227 -0.6259 -0.1080  0.3902
 1922TIP3   OH2 5729   1.869   6.668   4.123 -0.3505  0.3063 -0.3391
 1922TIP3    H1 5730   1.809   6.652   4.196 -1.1398  1.7024 -0.6473
 1922TIP3    H2 5731   1.956   6.673   4.164 -0.3325 -2.1772  0.0521
 1923TIP3   OH2 5732   3.333   4.853   5.166 -0.2009 -0.2482 -0.0007
 1923TIP3    H1 5733   3.389   4.927   5.193 -0.9299 -0.1545  1.3508
 1923TIP3    H2 5734   3.267   4.893   5.109 -0.4259  0.1025  0.4989
 1924TIP3   OH2 5735   3.478   5.981   0.563  0.1269  0.0047 -0.5671
 1924TIP3    H1 5736   3.533   6.006   0.637 -1.5750  1.8759  0.1538
 1924TIP3    H2 5737   3.426   5.908   0.595  0.1973  0.0629 -0.3185
 1925TIP3   OH2 5738   2.450   2.536   5.744  0.3192 -0.4731  0.4995
 1925TIP3    H1 5739   2.508   2.464   5.719 -0.9990 -1.2760 -0.3805
 1925TIP3    H2 5740   2.465   2.548   5.838  2.4750 -0.0890  0.1545
 1926TIP3   OH2 5741   6.265   2.282   4.346  0.5612 -0.2140 -0.1352
 1926TIP3    H1 5742   6.232   2.196   4.317  0.8974  0.1421 -1.6378
 1926TIP3    H2 5743   6.348   2.262   4.388 -0.1368 -0.7944  1.0184
 1927TIP3   OH2 5744   2.730   2.788   1.918  0.4644 -0.0143  0.4226
 1927TIP3    H1 5745   2.782   2.841   1.857 -2.0336  0.8043 -1.1598
 1927TIP3    H2 5746   2.678   2.730   1.862 -1.4743  0.3304  1.7384
 1928TIP3   OH2 5747   2.519   3.922   2.201 -0.1001 -0.1781  0.0284
 1928TIP3    H1 5748   2.584   3.927   2.272  2.1240 -2.9034 -1.5780
 1928TIP3    H2 5749   2.463   3.849   2.226 -0.1715 -0.2591 -0.3636
 1929TIP3   OH2 5750   0.783   6.383   4.910 -0.1563 -0.2615  0.2354
 1929TIP3    H1 5751   0.856   6.386   4.848  0.2361  0.5908  0.7266
 1929TIP3    H2 5752   0.812   6.324   4.979 -0.3198 -0.6650 -0.0328
 1930TIP3   OH2 5753   6.610   1.232   4.952  0.0687 -0.0479  0.1288
 1930TIP3    H1 5754   6.619   1.171   4.879  0.5012 -0.3727  0.4543
 1930TIP3    H2 5755   6.615   1.178   5.030  1.1964  0.4818  0.4413
 1931TIP3   OH2 5756   6.896   5.789   0.973  0.5231 -0.5093 -0.5246
 1931TIP3    H1 5757   6.915   5.807   1.065  1.4088 -1.8503 -0.4150
 1931TIP3    H2 5758   6.962   5.839   0.925  1.7132 -1.7765 -0.2982
 1932TIP3   OH2 5759   1.796   3.395   5.884 -0.5867 -0.5742 -0.4296
 1932TIP3    H1 5760   1.760   3.473   5.842  0.6765  0.3699  0.1512
 1932TIP3    H2 5761   1.827   3.340   5.812 -2.1274 -0.8826 -0.8757
 1933TIP3   OH2 5762   5.362   3.620   4.123 -0.2677 -0.2011 -0.8847
 1933TIP3    H1 5763   5.387   3.685   4.188 -1.1504 -0.5719 -0.1454
 1933TIP3    H2 5764   5.274   3.645   4.096 -0.4804 -0.8738 -0.8497
 1934TIP3   OH2 5765   6.937   2.394   2.178 -0.5736  0.2284  0.3125
 1934TIP3    H1 5766   7.031   2.408   2.167 -0.3951  0.3650  1.8269
 1934TIP3    H2 5767   6.897   2.436   2.102  0.6693 -1.1903 -1.1820
 1935TIP3   OH2 5768   5.147   5.553   0.256 -0.2721 -0.3865 -0.1435
 1935TIP3    H1 5769   5.157   5.606   0.176 -2.9616 -0.0990 -0.3793
 1935TIP3    H2 5770   5.060   5.576   0.288 -0.0629 -2.0612  1.7506
 1936TIP3   OH2 5771   6.116   4.094   3.024 -0.5463 -0.3751 -0.5644
 1936TIP3    H1 5772   6.151   4.148   2.953  2.9696 -1.7830 -0.1078
 1936TIP3    H2 5773   6.021   4.105   3.018 -0.3143  1.0166 -4.2739
 1937TIP3   OH2 5774   1.985   4.176   1.525  0.3216 -0.4766  0.2146
 1937TIP3    H1 5775   2.026   4.112   1.468 -0.8650 -0.9816 -0.0974
 1937TIP3    H2 5776   1.907   4.204   1.478  0.9338  1.4047  0.2283
 1938TIP3   OH2 5777   2.003   1.346   0.963 -0.0378  0.4028 -0.5942
 1938TIP3    H1 5778   1.952   1.304   0.894 -0.8714  1.9049 -0.9243
 1938TIP3    H2 5779   1.970   1.435   0.967  2.0820  1.2365 -0.3004
 1939TIP3   OH2 5780   6.626   1.317   5.252 -0.2898 -0.0934 -0.2252
 1939TIP3    H1 5781   6.588   1.230   5.264  1.3852 -0.7092  1.0071
 1939TIP3    H2 5782   6.699   1.303   5.191 -1.3944  0.9113 -1.8744
 1940TIP3   OH2 5783   5.282   2.544   2.176 -0.1721  0.0641 -0.0313
 1940TIP3    H1 5784   5.208   2.603   2.161  0.1069  0.3229 -0.3975
 1940TIP3    H2 5785   5.359   2.600   2.171  0.0820 -0.2958 -0.1927
 1941TIP3   OH2 5786   0.681   0.195   5.312  0.2314  0.3636 -0.5811
 1941TIP3    H1 5787   0.707   0.244   5.390  2.7912 -0.6978 -0.6853
 1941TIP3    H2 5788   0.670   0.105   5.341 -1.9129  0.4500 -0.9038
 1942TIP3   OH2 5789   0.945   0.504   4.180 -0.0660 -0.5952  0.2481
 1942TIP3    H1 5790   0.925   0.594   4.156  0.6379 -0.3847  0.4224
 1942TIP3    H2 5791   0.878   0.480   4.244  0.1519  0.0476  0.7268
 1943TIP3   OH2 5792   5.188   0.059   0.911  0.6085  0.1215 -0.5383
 1943TIP3    H1 5793   5.102   0.070   0.870  0.1006 -1.4454  0.0530
 1943TIP3    H2 5794   5.230   0.144   0.900 -0.6608  0.6499 -1.6401
 1944TIP3   OH2 5795   1.126   1.673   3.779 -0.6724  0.0502  0.0650
 1944TIP3    H1 5796   1.216   1.639   3.780 -1.0331 -1.4415  4.8738
 1944TIP3    H2 5797   1.074   1.601   3.745 -0.1681  1.3127 -3.8678
 1945TIP3   OH2 5798   2.242   3.365   1.567  0.0382 -0.2186  0.2979
 1945TIP3    H1 5799   2.159   3.317   1.560 -1.1504  1.5972  1.1526
 1945TIP3    H2 5800   2.218   3.447   1.610  2.6249 -0.4118  2.3089
 1946TIP3   OH2 5801   0.407   3.057   3.332  0.6650 -0.1625  0.3883
 1946TIP3    H1 5802   0.430   3.001   3.257  0.0968  1.8704 -1.4140
 1946TIP3    H2 5803   0.450   3.016   3.407  1.4192 -2.2003 -1.0816
 1947TIP3   OH2 5804   2.137   4.533   4.212  0.6703  0.3308  0.1740
 1947TIP3    H1 5805   2.130   4.438   4.223  0.7968  0.2611 -0.2940
 1947TIP3    H2 5806   2.052   4.567   4.238  1.0128  0.2167  1.5452
 1948TIP3   OH2 5807   5.823   0.728   1.960 -0.6414  0.7440  0.0023
 1948TIP3    H1 5808   5.777   0.741   2.044 -0.7361  0.0908  0.0537
 1948TIP3    H2 5809   5.913   0.755   1.977 -0.7816  1.1289  0.1612
 1949TIP3   OH2 5810   3.418   5.695   5.113  0.7808 -0.6709 -0.2131
 1949TIP3    H1 5811   3.419   5.765   5.049  1.3247 -0.5397 -0.0615
 1949TIP3    H2 5812   3.405   5.739   5.197 -3.4611 -1.0231 -0.4451
 1950TIP3   OH2 5813   2.293   2.060   4.790 -0.6071  0.0436 -0.0082
 1950TIP3    H1 5814   2.232   1.989   4.771 -1.1183  0.7192 -0.9340
 1950TIP3    H2 5815   2.350   2.064   4.714  1.0187 -0.9616  1.0810
 1951TIP3   OH2 5816   4.436   0.801   2.977  0.3002 -0.4651 -0.6729
 1951TIP3    H1 5817   4.352   0.844   2.956  0.1161  0.2104  1.2271
 1951TIP3    H2 5818   4.415   0.708   2.978  0.0270 -0.4413 -2.0281
 1952TIP3   OH2 5819   3.182   2.987   0.929  0.7042 -0.0272 -0.1939
 1952TIP3    H1 5820   3.175   3.081   0.941 -0.9246 -0.1717  0.1871
 1952TIP3    H2 5821   3.236   2.976   0.851  1.5539  1.1878  0.1985
 1953TIP3   OH2 5822   6.176   5.923   5.451 -0.7021  0.8869 -0.0802
 1953TIP3    H1 5823   6.152   5.986   5.383 -1.1515  1.4932  0.6323
 1953TIP3    H2 5824   6.242   5.968   5.504 -0.2511  0.3643 -0.1877
 1954TIP3   OH2 5825   1.954   2.654   5.875 -0.4668  0.0017  0.0492
 1954TIP3    H1 5826   1.866   2.641   5.840 -0.5106  1.3121 -0.4013
 1954TIP3    H2 5827   1.959   2.596   5.951 -1.3078 -0.9297 -0.5918
 1955TIP3   OH2 5828   1.758   1.192   0.375 -0.5399  0.8151 -0.1574
 1955TIP3    H1 5829   1.715   1.235   0.449  0.3736 -0.7928  1.4127
 1955TIP3    H2 5830   1.687   1.171   0.315 -1.4275  1.5143  0.6093
 1956TIP3   OH2 5831   4.753   0.476   1.871 -0.8161  0.5157 -0.4606
 1956TIP3    H1 5832   4.777   0.544   1.807 -0.2895 -0.4443 -1.3116
 1956TIP3    H2 5833   4.774   0.394   1.827 -1.6057 -0.2106  0.4912
 1957TIP3   OH2 5834   6.456   5.335   4.708 -0.2909  0.8515  0.5272
 1957TIP3    H1 5835   6.476   5.246   4.736 -1.4499  0.1902 -0.6825
 1957TIP3    H2 5836   6.540   5.382   4.716  0.3909 -0.3946  0.9215
 1958TIP3   OH2 5837   4.643   4.327   0.426  0.1041  0.7095  0.2607
 1958TIP3    H1 5838   4.736   4.349   0.421  0.7004 -1.8848 -1.8008
 1958TIP3    H2 5839   4.609   4.348   0.339 -0.6180 -0.8256  0.1518
 1959TIP3   OH2 5840   1.874   4.690   2.805 -0.3142  0.3218  0.2790
 1959TIP3    H1 5841   1.925   4.771   2.808  0.6948 -0.2753 -0.5241
 1959TIP3    H2 5842   1.864   4.670   2.712  1.5374 -1.7398  0.4361
 1960TIP3   OH2 5843   2.061   1.908   5.655 -0.5489  0.5524 -0.2101
 1960TIP3    H1 5844   2.131   1.945   5.709 -1.0892  1.9512 -0.4431
 1960TIP3    H2 5845   2.075   1.813   5.660  1.0284  0.7760  0.1959
 1961TIP3   OH2 5846   3.261   6.448   4.878  1.0834 -0.5046 -0.0039
 1961TIP3    H1 5847   3.273   6.542   4.875 -2.6538  0.1032 -0.1410
 1961TIP3    H2 5848   3.342   6.415   4.917  1.7273  2.9446  1.9997
 1962TIP3   OH2 5849   2.003   6.119   0.057  0.0300 -0.3295 -0.4678
 1962TIP3    H1 5850   2.020   6.211   0.075  0.9820 -0.5314 -0.2892
 1962TIP3    H2 5851   1.954   6.087   0.133  0.1141 -0.0933 -0.3164
 1963TIP3   OH2 5852   3.452   6.575   4.495 -0.1810 -0.3004  0.3124
 1963TIP3    H1 5853   3.394   6.638   4.538  0.8965  0.7865  0.2524
 1963TIP3    H2 5854   3.519   6.629   4.453 -0.2493 -1.4238 -1.3182
 1964TIP3   OH2 5855   5.502   4.963   3.017 -0.6283 -0.2890 -0.1352
 1964TIP3    H1 5856   5.579   5.003   3.055 -1.3468  1.5662 -0.4968
 1964TIP3    H2 5857   5.531   4.878   2.986  0.1791 -1.6064  3.7499
 1965TIP3   OH2 5858   6.345   1.305   0.657  0.8723 -0.1537 -0.7751
 1965TIP3    H1 5859   6.304   1.240   0.714 -0.3027  1.7304  0.6391
 1965TIP3    H2 5860   6.290   1.383   0.666  2.4475  1.1830 -2.1081
 1966TIP3   OH2 5861   5.260   1.964   0.295  0.0499  0.1449  0.1749
 1966TIP3    H1 5862   5.345   1.990   0.261  0.2435  0.5088  0.9172
 1966TIP3    H2 5863   5.227   1.901   0.231  2.0643 -2.1016  1.2193
 1967TIP3   OH2 5864   2.351   1.460   5.524  0.6638  0.2742 -0.3552
 1967TIP3    H1 5865   2.359   1.424   5.436 -1.9104 -2.0707  0.2372
 1967TIP3    H2 5866   2.435   1.439   5.566  1.5553  0.5807 -1.9231
 1968TIP3   OH2 5867   5.449   6.597   1.362  0.5002  0.0186  0.5787
 1968TIP3    H1 5868   5.446   6.684   1.320  0.3602 -0.0892  0.3627
 1968TIP3    H2 5869   5.358   6.576   1.380  0.4453 -0.5086 -0.2616
 1969TIP3   OH2 5870   2.771   0.916   1.726  0.7529 -0.2186 -0.5548
 1969TIP3    H1 5871   2.700   0.851   1.727  0.8603 -0.3410  0.4519
 1969TIP3    H2 5872   2.851   0.864   1.725  0.9876 -0.3579  3.7750
 1970TIP3   OH2 5873   1.317   3.322   3.532 -0.0807  0.0760  0.2031
 1970TIP3    H1 5874   1.362   3.239   3.517  0.8180  0.1384  2.2962
 1970TIP3    H2 5875   1.224   3.299   3.534  0.0548 -0.6183 -0.6967
 1971TIP3   OH2 5876   1.209   6.208   0.928  0.6539  0.0380  0.0385
 1971TIP3    H1 5877   1.143   6.142   0.905  1.9126 -0.9632 -0.8589
 1971TIP3    H2 5878   1.160   6.276   0.974 -0.9889 -0.6953 -0.5486
 1972TIP3   OH2 5879   3.380   1.123   0.845 -0.4978  0.0179  0.0761
 1972TIP3    H1 5880   3.460   1.074   0.827 -0.6911 -0.5436  0.7029
 1972TIP3    H2 5881   3.357   1.162   0.761 -0.9953 -1.9625 -0.7709
 1973TIP3   OH2 5882   5.985   3.130   3.496  0.9677 -0.2600 -0.2756
 1973TIP3    H1 5883   6.070   3.099   3.525  0.5031 -0.2844  1.1138
 1973TIP3    H2 5884   5.949   3.179   3.571 -0.1640 -0.1092 -0.8848
 1974TIP3   OH2 5885   3.939   4.631   3.757 -0.2452  0.6039 -0.1797
 1974TIP3    H1 5886   4.011   4.612   3.817 -0.2352  1.7700  0.1995
 1974TIP3    H2 5887   3.975   4.698   3.698 -0.2155 -0.5926 -1.5710
 1975TIP3   OH2 5888   3.711   6.445   3.033  0.3456  0.2865  0.1534
 1975TIP3    H1 5889   3.701   6.531   3.073  0.5361  0.5347 -0.3234
 1975TIP3    H2 5890   3.799   6.447   2.994 -0.8440  1.1199 -2.7956
 1976TIP3   OH2 5891   6.574   4.328   5.657 -0.4516 -0.5341  0.6680
 1976TIP3    H1 5892   6.654   4.277   5.643 -0.0446 -0.0093  1.0174
 1976TIP3    H2 5893   6.504   4.274   5.621  0.2425 -0.3053 -1.1380
 1977TIP3   OH2 5894   0.010   2.034   0.803 -0.1533  0.0752  0.4116
 1977TIP3    H1 5895   0.024   2.100   0.870  1.4116  0.1668  0.0339
 1977TIP3    H2 5896   0.050   1.955   0.838  1.3732  0.3154 -0.6811
 1978TIP3   OH2 5897   2.307   4.561   3.899  0.3211 -0.0802 -0.2171
 1978TIP3    H1 5898   2.279   4.479   3.939 -0.6888  0.7423  0.8299
 1978TIP3    H2 5899   2.276   4.556   3.809 -2.7014  0.4666  0.6733
 1979TIP3   OH2 5900   0.834   5.762   0.750  0.5533  0.4436 -0.3707
 1979TIP3    H1 5901   0.852   5.788   0.659  1.1341  2.3860  0.2517
 1979TIP3    H2 5902   0.916   5.725   0.781  0.0902 -1.0788 -0.8781
 1980TIP3   OH2 5903   4.008   2.808   1.703  0.0841 -0.5963  0.0982
 1980TIP3    H1 5904   3.972   2.819   1.791 -1.9126 -0.8505 -0.6366
 1980TIP3    H2 5905   4.060   2.727   1.708 -0.0007 -0.6003  1.0445
 1981TIP3   OH2 5906   4.708   2.120   5.600  0.6705  0.3797 -0.1029
 1981TIP3    H1 5907   4.741   2.172   5.527 -0.1375  0.7209 -0.2350
 1981TIP3    H2 5908   4.786   2.082   5.640  1.2407  1.3888 -0.2398
 1982TIP3   OH2 5909   5.560   4.236   4.956  0.0575 -0.2261  0.1034
 1982TIP3    H1 5910   5.469   4.223   4.983 -0.7015  2.6338 -0.6756
 1982TIP3    H2 5911   5.575   4.171   4.888 -1.0913 -1.3172  0.8425
 1983TIP3   OH2 5912   5.154   3.591   0.640 -0.1405 -0.3609 -0.7078
 1983TIP3    H1 5913   5.062   3.615   0.631 -0.1679 -0.5385 -0.8893
 1983TIP3    H2 5914   5.194   3.617   0.557  0.3563  1.4439  0.0486
 1984TIP3   OH2 5915   2.754   4.880   1.173  0.0066  0.0679  0.5521
 1984TIP3    H1 5916   2.826   4.818   1.180 -0.4256 -0.6528 -0.9834
 1984TIP3    H2 5917   2.682   4.838   1.220 -0.4243 -0.8744 -0.8660
 1985TIP3   OH2 5918   0.360   3.231   0.195 -0.1918  1.0294 -0.0831
 1985TIP3    H1 5919   0.420   3.305   0.183  0.8402  0.4009  0.9135
 1985TIP3    H2 5920   0.378   3.174   0.120  2.2471 -0.2819  1.3732
 1986TIP3   OH2 5921   2.665   4.468   4.069  0.3882 -0.0384  0.3754
 1986TIP3    H1 5922   2.645   4.561   4.084  2.7269  0.7177 -0.6717
 1986TIP3    H2 5923   2.650   4.455   3.975  2.4373  0.0269 -0.0210
 1987TIP3   OH2 5924   4.816   5.559   3.747 -0.2551 -0.4646 -0.0507
 1987TIP3    H1 5925   4.851   5.648   3.742  3.2700 -1.6023  1.5141
 1987TIP3    H2 5926   4.857   5.513   3.674 -1.5364 -1.0291 -0.4502
 1988TIP3   OH2 5927   6.213   3.718   3.335  0.4183  0.3892 -0.2944
 1988TIP3    H1 5928   6.282   3.651   3.331 -0.3031 -0.4881  1.0951
 1988TIP3    H2 5929   6.239   3.783   3.269  1.2672 -1.1287 -1.5360
 1989TIP3   OH2 5930   2.570   6.687   5.832  0.7850 -0.6262 -0.0977
 1989TIP3    H1 5931   2.530   6.629   5.896  1.2154  0.9273  1.6760
 1989TIP3    H2 5932   2.497   6.713   5.775 -0.9007  1.9958  2.9247
 1990TIP3   OH2 5933   4.281   6.042   0.977  0.0106  0.3312 -1.2005
 1990TIP3    H1 5934   4.199   6.031   1.025  1.8400 -0.1920  2.0740
 1990TIP3    H2 5935   4.263   6.114   0.916 -2.3972  1.3657  0.5614
 1991TIP3   OH2 5936   6.296   2.161   5.241 -0.1021 -0.0386  0.5991
 1991TIP3    H1 5937   6.326   2.113   5.318  1.7317  0.7925  0.4663
 1991TIP3    H2 5938   6.203   2.178   5.258 -0.4780 -2.4071  1.2383
 1992TIP3   OH2 5939   6.994   4.529   5.637 -0.2198  0.1519  0.1418
 1992TIP3    H1 5940   6.978   4.622   5.620 -1.2680 -0.2044 -0.9237
 1992TIP3    H2 5941   7.082   4.514   5.604 -0.0036  0.7832  0.4065
 1993TIP3   OH2 5942   6.860   3.563   3.927 -0.2491  0.3305  0.0510
 1993TIP3    H1 5943   6.778   3.597   3.961  0.0179  1.7009 -0.5924
 1993TIP3    H2 5944   6.894   3.633   3.871  1.5100 -0.0696  0.5413
 1994TIP3   OH2 5945   1.387   1.377   5.781 -0.1316 -0.0807  0.7592
 1994TIP3    H1 5946   1.375   1.445   5.848  0.5461  0.8768 -0.0707
 1994TIP3    H2 5947   1.474   1.341   5.799  0.9305  1.5845 -0.8134
 1995TIP3   OH2 5948   2.580   4.768   2.962 -0.2939  0.2589 -0.3299
 1995TIP3    H1 5949   2.644   4.708   2.924 -0.6092 -0.8865  0.8725
 1995TIP3    H2 5950   2.617   4.790   3.048 -0.6298  1.0599 -0.3845
 1996TIP3   OH2 5951   5.170   2.076   2.099 -0.2741 -0.2193  0.6475
 1996TIP3    H1 5952   5.089   2.120   2.071  0.4840 -0.1939 -1.7508
 1996TIP3    H2 5953   5.228   2.148   2.124 -0.5005 -0.1452  0.9698
 1997TIP3   OH2 5954   6.836   1.577   0.269  0.2837  0.0113 -0.6662
 1997TIP3    H1 5955   6.929   1.552   0.270  0.1338 -0.5327 -0.4999
 1997TIP3    H2 5956   6.826   1.636   0.344  0.2491 -0.8138 -0.0111
 1998TIP3   OH2 5957   3.363   4.355   4.609  0.0485 -0.3640 -0.6450
 1998TIP3    H1 5958   3.303   4.287   4.639 -1.1723  1.3056  0.9190
 1998TIP3    H2 5959   3.425   4.365   4.681 -0.8557  1.3453 -0.0543
 1999TIP3   OH2 5960   4.280   2.657   0.576  0.4986 -0.6103 -0.0468
 1999TIP3    H1 5961   4.366   2.696   0.587  1.6968 -3.4100  1.7869
 1999TIP3    H2 5962   4.296   2.575   0.530 -1.2398 -0.9844 -0.0641
 2000TIP3   OH2 5963   1.628   5.368   0.408 -0.1960  0.1457  0.2882
 2000TIP3    H1 5964   1.545   5.354   0.361 -0.2202  5.0223 -1.6995
 2000TIP3    H2 5965   1.602   5.397   0.495 -0.3780 -1.5674  0.8395
 2001TIP3   OH2 5966   4.658   4.705   5.870 -0.8305  0.2751 -0.6819
 2001TIP3    H1 5967   4.644   4.617   5.905 -2.2965  0.0319 -1.7833
 2001TIP3    H2 5968   4.704   4.691   5.787  1.5954  0.7778  0.4911
 2002TIP3   OH2 5969   1.897   5.491   0.619  0.2062  0.0451  0.1159
 2002TIP3    H1 5970   1.871   5.553   0.688  0.6003 -0.5281  0.7896
 2002TIP3    H2 5971   1.862   5.407   0.648 -0.7825  0.0213 -1.0528
 2003TIP3   OH2 5972   6.349   2.031   2.424 -0.3522  0.3078 -0.1258
 2003TIP3    H1 5973   6.314   1.953   2.467  0.2084  0.9738  1.5873
 2003TIP3    H2 5974   6.444   2.016   2.419 -0.2695  0.7748 -0.0140
 2004TIP3   OH2 5975   5.328   1.188   5.689 -0.1600  0.5313  0.0641
 2004TIP3    H1 5976   5.334   1.097   5.660  0.8645  0.9344 -1.0958
 2004TIP3    H2 5977   5.234   1.206   5.693 -0.3675 -0.0025 -1.6682
 2005TIP3   OH2 5978   7.165   6.596   3.031 -0.3649 -0.4444 -0.2224
 2005TIP3    H1 5979   7.180   6.512   2.987 -1.1709 -0.1920 -1.0124
 2005TIP3    H2 5980   7.072   6.595   3.052 -0.4103  0.3193 -0.3781
 2006TIP3   OH2 5981   0.822   4.291   2.490  0.1390 -0.0189 -0.6244
 2006TIP3    H1 5982   0.826   4.241   2.571 -2.0298  0.7469  0.0215
 2006TIP3    H2 5983   0.913   4.313   2.471  0.6752  0.3526  1.9746
 2007TIP3   OH2 5984   5.483   2.124   0.211 -0.1406 -0.0251  0.2971
 2007TIP3    H1 5985   5.551   2.161   0.267  0.0769  0.8372 -0.5124
 2007TIP3    H2 5986   5.515   2.137   0.122 -1.1729  0.0202 -0.0866
 2008TIP3   OH2 5987   1.735   3.148   3.325  0.2382  0.4255  0.8815
 2008TIP3    H1 5988   1.660   3.143   3.266 -0.7687 -0.5459  2.1824
 2008TIP3    H2 5989   1.779   3.229   3.300  0.2948 -0.3140 -1.6607
 2009TIP3   OH2 5990   3.156   3.527   3.057 -0.2894  0.0858  0.2793
 2009TIP3    H1 5991   3.089   3.530   2.988 -2.1429 -0.3337  1.9537
 2009TIP3    H2 5992   3.216   3.598   3.035 -0.6801 -0.1880 -1.8640
 2010TIP3   OH2 5993   2.195   2.976   0.221 -0.0470  0.0562  0.2712
 2010TIP3    H1 5994   2.179   2.910   0.153 -0.0174 -0.0699  0.3870
 2010TIP3    H2 5995   2.239   2.928   0.291 -1.6272 -0.2101  1.1276
 2011TIP3   OH2 5996   0.661   2.652   5.802 -1.0844  0.4891  0.0478
 2011TIP3    H1 5997   0.592   2.604   5.848 -0.6566  0.0154  0.2075
 2011TIP3    H2 5998   0.695   2.713   5.868  0.5623 -1.2210  0.9171
 2012TIP3   OH2 5999   3.009   4.017   1.381 -0.2085 -0.1606 -0.1305
 2012TIP3    H1 6000   2.932   3.964   1.359  0.3567 -1.1862  0.3073
 2012TIP3    H2 6001   3.065   3.958   1.431  1.9333 -0.2084 -2.4168
 2013TIP3   OH2 6002   2.488   4.644   3.520  0.1449 -0.2384 -0.8554
 2013TIP3    H1 6003   2.496   4.584   3.446  1.2415  0.6675 -1.5044
 2013TIP3    H2 6004   2.578   4.653   3.553 -0.3492 -0.8055  0.7485
 2014TIP3   OH2 6005   0.442   5.565   2.034 -0.3477  0.2403  0.1121
 2014TIP3    H1 6006   0.507   5.518   1.982 -0.2512 -0.6638  1.0432
 2014TIP3    H2 6007   0.360   5.555   1.985  0.0139  0.6004 -0.5839
 2015TIP3   OH2 6008   1.809   5.021   5.784 -0.1265  0.5433 -0.1620
 2015TIP3    H1 6009   1.727   5.004   5.830 -0.9179  0.8889 -1.3883
 2015TIP3    H2 6010   1.850   5.092   5.833 -2.4005  3.0424 -1.5939
 2016TIP3   OH2 6011   6.308   6.326   5.242  0.5408  0.9442  0.4825
 2016TIP3    H1 6012   6.352   6.309   5.158 -1.5541  1.8356 -0.8623
 2016TIP3    H2 6013   6.352   6.403   5.277  0.3548  1.5745 -0.6331
 2017TIP3   OH2 6014   4.933   2.505   3.468  0.1671 -0.1715 -0.2384
 2017TIP3    H1 6015   4.970   2.526   3.554  0.4783 -1.2391 -0.0946
 2017TIP3    H2 6016   4.910   2.590   3.431  0.4616  0.3417  0.7051
 2018TIP3   OH2 6017   2.431   3.341   0.615 -0.8467 -0.1564  0.2626
 2018TIP3    H1 6018   2.492   3.373   0.681  0.5220  1.7946 -1.8284
 2018TIP3    H2 6019   2.454   3.249   0.604 -1.3521 -0.6589  2.6602
 2019TIP3   OH2 6020   3.321   0.910   0.124 -0.0307  0.5947  0.1376
 2019TIP3    H1 6021   3.291   0.964   0.197  1.6523  1.2367  0.4073
 2019TIP3    H2 6022   3.409   0.943   0.104  0.3570 -0.9133 -0.8477
 2020TIP3   OH2 6023   2.947   2.022   4.618 -0.2290  0.7186 -0.3539
 2020TIP3    H1 6024   2.909   1.934   4.612  0.7019  0.0150  2.5129
 2020TIP3    H2 6025   2.887   2.077   4.569 -1.9332 -1.1936 -0.5550
 2021TIP3   OH2 6026   2.953   0.906   5.521  0.1210 -0.1402  0.4559
 2021TIP3    H1 6027   2.905   0.879   5.443 -0.9876 -0.9059  1.3677
 2021TIP3    H2 6028   3.045   0.890   5.500 -0.1773 -0.4352 -0.6461
 2022TIP3   OH2 6029   0.226   6.646   4.518  0.6583 -0.6374 -0.2917
 2022TIP3    H1 6030   0.132   6.645   4.536  0.4255  0.1673 -1.3456
 2022TIP3    H2 6031   0.242   6.569   4.463  0.5216 -0.5273 -0.4880
 2023TIP3   OH2 6032   6.474   3.645   1.845 -0.1571 -0.0342 -0.2157
 2023TIP3    H1 6033   6.406   3.666   1.909  0.6092  2.1793 -0.0481
 2023TIP3    H2 6034   6.463   3.551   1.828 -2.0296 -0.1233  1.1949
 2024TIP3   OH2 6035   3.941   1.639   4.978 -0.5221  0.3640  0.2674
 2024TIP3    H1 6036   3.847   1.623   4.971 -0.4654  0.4015 -0.7206
 2024TIP3    H2 6037   3.981   1.571   4.924  0.0138  0.4630  0.5300
 2025TIP3   OH2 6038   3.782   0.592   2.488  0.0129  0.4500  0.3304
 2025TIP3    H1 6039   3.876   0.606   2.472  0.4327 -1.1023  1.2257
 2025TIP3    H2 6040   3.752   0.543   2.411 -0.0227  0.7384  0.1574
 2026TIP3   OH2 6041   5.669   1.034   0.646 -0.3288 -0.3591  0.4917
 2026TIP3    H1 6042   5.706   1.051   0.559  0.4098 -0.3646  0.7989
 2026TIP3    H2 6043   5.575   1.053   0.637 -0.2347 -0.2478 -0.2735
 2027TIP3   OH2 6044   2.488   6.002   2.755  0.7455  0.0093 -0.5015
 2027TIP3    H1 6045   2.527   5.986   2.669  1.1650 -0.4432 -0.2330
 2027TIP3    H2 6046   2.476   5.914   2.793 -0.9700  0.1002 -0.7585
 2028TIP3   OH2 6047   3.759   2.367   0.446 -0.0128  0.4040  0.0636
 2028TIP3    H1 6048   3.820   2.441   0.441  0.7108 -0.0517  1.5005
 2028TIP3    H2 6049   3.672   2.408   0.445  0.3697  1.2664  0.5068
 2029TIP3   OH2 6050   0.002   0.917   4.646 -0.8216  0.5089  0.7608
 2029TIP3    H1 6051   0.058   0.966   4.707  0.7803 -2.7546  2.1745
 2029TIP3    H2 6052   0.054   0.839   4.624 -3.7382 -1.3505 -0.0443
 2030TIP3   OH2 6053   4.552   0.825   1.813  0.0952 -0.0769  0.1128
 2030TIP3    H1 6054   4.646   0.818   1.825  0.1771  1.5873  0.7852
 2030TIP3    H2 6055   4.536   0.919   1.806 -1.7917 -0.1091  2.6092
 2031TIP3   OH2 6056   1.237   0.653   2.636 -0.4546  0.0900 -0.2690
 2031TIP3    H1 6057   1.311   0.609   2.594 -0.8094 -0.2144 -0.5743
 2031TIP3    H2 6058   1.162   0.597   2.617 -0.9421  0.9089 -0.7963
 2032TIP3   OH2 6059   0.597   1.317   2.689  0.5544 -0.2010  0.1315
 2032TIP3    H1 6060   0.674   1.353   2.734  1.2723 -0.7706 -0.5965
 2032TIP3    H2 6061   0.526   1.378   2.709  1.6289  1.4062 -0.6955
 2033TIP3   OH2 6062   1.055   4.671   4.252  0.1097  0.0558 -0.4178
 2033TIP3    H1 6063   1.093   4.719   4.178  0.7293  0.9203  0.4426
 2033TIP3    H2 6064   1.122   4.606   4.274 -0.5420 -0.9574 -1.2966
 2034TIP3   OH2 6065   2.364   5.052   2.815 -0.1636  0.1765  0.4307
 2034TIP3    H1 6066   2.313   5.000   2.877 -0.0184 -0.2551  0.1908
 2034TIP3    H2 6067   2.433   5.092   2.869 -1.7369  2.1811  1.0997
 2035TIP3   OH2 6068   1.328   4.763   3.411  0.1692 -0.4775  0.0333
 2035TIP3    H1 6069   1.424   4.761   3.418  0.5548 -3.1616 -3.2568
 2035TIP3    H2 6070   1.298   4.690   3.466  0.0928 -0.2290  0.3223
 2036TIP3   OH2 6071   2.833   0.665   5.597  0.6336  0.4793  0.0632
 2036TIP3    H1 6072   2.750   0.641   5.556  1.0621  0.2230 -0.6807
 2036TIP3    H2 6073   2.861   0.744   5.551  2.0736 -0.8728 -1.5824
 2037TIP3   OH2 6074   3.026   2.163   2.961 -0.0126 -0.0369  0.4941
 2037TIP3    H1 6075   3.020   2.070   2.939  0.6484  0.0804 -0.2180
 2037TIP3    H2 6076   2.990   2.208   2.884  0.1264  0.3154  0.6331
 2038TIP3   OH2 6077   1.526   5.873   5.494  0.4340  0.2635  0.8334
 2038TIP3    H1 6078   1.465   5.835   5.557  1.0812 -1.5272  0.4564
 2038TIP3    H2 6079   1.491   5.848   5.409  1.3118 -0.2255  0.5971
 2039TIP3   OH2 6080   2.325   4.165   3.443  0.4434  0.2153  0.0986
 2039TIP3    H1 6081   2.383   4.169   3.367  0.8048  0.7214  0.3907
 2039TIP3    H2 6082   2.253   4.110   3.415  1.6169 -1.3805  0.0978
 2040TIP3   OH2 6083   6.086   1.350   1.999  0.0089  0.0090 -0.4183
 2040TIP3    H1 6084   6.011   1.345   2.059 -0.2934  0.8988 -0.7111
 2040TIP3    H2 6085   6.148   1.285   2.032  0.0334  0.7855  1.1152
 2041TIP3   OH2 6086   1.861   1.718   5.213 -0.1477  0.1124 -0.8995
 2041TIP3    H1 6087   1.797   1.667   5.262  1.3206 -1.7976 -0.9000
 2041TIP3    H2 6088   1.907   1.769   5.279 -1.1051  0.9326 -0.8257
 2042TIP3   OH2 6089   4.864   2.925   4.812 -0.1422  0.3408 -0.3379
 2042TIP3    H1 6090   4.904   2.838   4.813  1.2103  0.9096  1.7029
 2042TIP3    H2 6091   4.770   2.907   4.806  0.1629 -1.2187 -1.0064
 2043TIP3   OH2 6092   3.517   0.761   3.098 -0.2743 -0.0369 -0.3631
 2043TIP3    H1 6093   3.481   0.685   3.143 -1.6902 -0.1647 -1.6083
 2043TIP3    H2 6094   3.441   0.807   3.063  0.5985  1.5307 -0.3288
 2044TIP3   OH2 6095   4.448   4.088   2.665  0.6772 -0.4167  0.3939
 2044TIP3    H1 6096   4.473   4.017   2.605  0.3241 -0.3732  0.1898
 2044TIP3    H2 6097   4.492   4.068   2.747  1.0225 -0.5760  0.1680
 2045TIP3   OH2 6098   4.831   3.207   4.302  0.3143  0.7584 -0.5039
 2045TIP3    H1 6099   4.746   3.164   4.314 -0.3464  2.2746  0.6875
 2045TIP3    H2 6100   4.884   3.176   4.376  0.4959  0.4662 -0.7602
 2046TIP3   OH2 6101   0.220   5.913   2.914 -0.0140  0.4615  0.0103
 2046TIP3    H1 6102   0.247   6.002   2.938 -1.2953  0.2157  2.7073
 2046TIP3    H2 6103   0.126   5.912   2.929 -0.1134 -1.2218 -0.5354
 2047TIP3   OH2 6104   2.532   0.947   0.225 -0.4854  0.6294 -0.3070
 2047TIP3    H1 6105   2.538   1.043   0.221 -0.6806  0.5974 -1.8052
 2047TIP3    H2 6106   2.589   0.916   0.155 -2.2806 -0.2627 -1.4468
 2048TIP3   OH2 6107   5.524   5.642   2.396  0.1925 -0.1012  0.7958
 2048TIP3    H1 6108   5.454   5.620   2.335  1.6236  1.2871 -1.4977
 2048TIP3    H2 6109   5.481   5.694   2.464 -1.1304  0.0429 -0.1054
 2049TIP3   OH2 6110   3.511   2.026   4.470 -0.6106  0.5538  0.2111
 2049TIP3    H1 6111   3.543   2.115   4.484  0.0460  0.1539  1.4743
 2049TIP3    H2 6112   3.440   2.016   4.534 -0.7058  0.1811  0.0482
 2050TIP3   OH2 6113   3.538   6.638   3.878 -0.2228  0.3411  0.3825
 2050TIP3    H1 6114   3.514   6.730   3.868  0.5939  0.5616  0.3984
 2050TIP3    H2 6115   3.511   6.616   3.967 -1.5223  0.2116 -0.0180
 2051TIP3   OH2 6116   2.365   6.035   5.682 -0.2003  0.3772  0.2870
 2051TIP3    H1 6117   2.394   5.962   5.737 -0.7453  1.1028  1.5831
 2051TIP3    H2 6118   2.274   6.015   5.663  0.2116 -0.3047 -1.1300
 2052TIP3   OH2 6119   6.434   1.358   2.247 -0.2058 -0.3194  0.3043
 2052TIP3    H1 6120   6.350   1.396   2.270 -0.2780 -1.4771  2.1467
 2052TIP3    H2 6121   6.461   1.310   2.325  1.9860 -0.3090 -0.3730
 2053TIP3   OH2 6122   6.116   5.342   1.534  0.2681  0.7868  0.8524
 2053TIP3    H1 6123   6.153   5.429   1.546  2.3088  0.0121  0.6294
 2053TIP3    H2 6124   6.190   5.282   1.547 -1.3445 -1.0167  2.5061
 2054TIP3   OH2 6125   4.314   4.680   0.923  0.1032  0.3551  0.5189
 2054TIP3    H1 6126   4.330   4.768   0.888 -0.5465 -0.0666 -0.9041
 2054TIP3    H2 6127   4.397   4.635   0.913  0.2582  0.6005  0.6657
 2055TIP3   OH2 6128   3.280   5.495   1.961 -0.3994  0.1501 -0.1346
 2055TIP3    H1 6129   3.253   5.541   2.040 -0.2853 -0.9796  0.5753
 2055TIP3    H2 6130   3.375   5.488   1.968 -0.3487  0.3451 -0.5533
 2056TIP3   OH2 6131   4.598   5.251   4.110 -0.1055 -0.6658 -0.3847
 2056TIP3    H1 6132   4.662   5.290   4.051  2.2146 -0.0392  2.3346
 2056TIP3    H2 6133   4.515   5.294   4.086  0.9926  0.5851 -2.2058
 2057TIP3   OH2 6134   6.089   2.939   2.572  0.8584 -0.1188  0.0733
 2057TIP3    H1 6135   6.013   2.938   2.630  0.9756 -0.4953  0.2238
 2057TIP3    H2 6136   6.164   2.953   2.630  0.7380  2.4849 -0.2875
 2058TIP3   OH2 6137   5.130   2.939   5.750  0.5097 -0.5785 -0.2575
 2058TIP3    H1 6138   5.166   2.853   5.773 -1.7616 -1.2043  1.2882
 2058TIP3    H2 6139   5.190   2.973   5.684  1.5061 -3.3292 -0.9118
 2059TIP3   OH2 6140   1.713   1.484   2.646  0.8890 -0.0293  0.2220
 2059TIP3    H1 6141   1.695   1.415   2.710  1.0687  0.0044  0.3102
 2059TIP3    H2 6142   1.793   1.455   2.602  1.6463  0.6929  1.0754
 2060TIP3   OH2 6143   5.618   3.191   0.627 -0.3505  0.6490 -0.5760
 2060TIP3    H1 6144   5.577   3.213   0.710  0.4806  0.5745 -0.1344
 2060TIP3    H2 6145   5.599   3.266   0.570  0.1434  1.2771  0.0688
 2061TIP3   OH2 6146   1.014   1.190   2.176 -0.8280 -0.0424  0.2903
 2061TIP3    H1 6147   1.048   1.214   2.090  2.0590 -0.3104  1.2500
 2061TIP3    H2 6148   1.009   1.273   2.223  1.4086 -0.2884  1.0557
 2062TIP3   OH2 6149   6.145   4.006   0.740  0.4164  0.0799  0.0024
 2062TIP3    H1 6150   6.056   3.972   0.732  0.1547  0.6278  0.4697
 2062TIP3    H2 6151   6.135   4.086   0.791  1.1194  0.4144 -0.3749
 2063TIP3   OH2 6152   3.088   0.210   3.196  0.3671 -0.1104  0.0944
 2063TIP3    H1 6153   3.006   0.258   3.191  0.6481  0.3871  0.1811
 2063TIP3    H2 6154   3.147   0.268   3.245  1.2087  0.1774 -1.1937
 2064TIP3   OH2 6155   4.298   0.684   2.355  0.0394  0.2006  0.0868
 2064TIP3    H1 6156   4.337   0.615   2.408 -1.6983 -0.8514  0.0843
 2064TIP3    H2 6157   4.320   0.765   2.401 -0.0398 -0.5575  1.5184
 2065TIP3   OH2 6158   6.941   3.681   1.516 -0.2104 -0.1573 -0.4517
 2065TIP3    H1 6159   6.856   3.637   1.509  0.5369 -1.9480  0.7616
 2065TIP3    H2 6160   6.976   3.679   1.427 -0.1559 -2.2475 -0.4401
 2066TIP3   OH2 6161   5.070   1.133   3.615 -0.5345  0.5072 -0.1231
 2066TIP3    H1 6162   5.084   1.038   3.615  0.2028  0.6052 -0.5770
 2066TIP3    H2 6163   5.112   1.164   3.694 -1.6667  0.3494  0.5637
 2067TIP3   OH2 6164   1.241   5.095   0.961 -0.7766 -0.5161  0.1579
 2067TIP3    H1 6165   1.231   5.165   0.896 -0.1375 -2.5161 -2.2606
 2067TIP3    H2 6166   1.307   5.128   1.022 -0.3318  0.9037 -1.0297
 2068TIP3   OH2 6167   1.976   6.400   4.871  0.3454  0.4435 -0.4891
 2068TIP3    H1 6168   1.927   6.334   4.822 -0.9362  1.0045 -0.0255
 2068TIP3    H2 6169   1.909   6.448   4.920  1.2925  1.7086 -0.3694
 2069TIP3   OH2 6170   3.453   0.453   4.671 -0.4957 -0.1842 -0.0117
 2069TIP3    H1 6171   3.445   0.534   4.621 -0.5594  0.8060  1.5271
 2069TIP3    H2 6172   3.392   0.463   4.744  1.1958 -0.5431  1.5558
 2070TIP3   OH2 6173   6.612   3.085   3.586 -0.9274  0.2882 -0.3782
 2070TIP3    H1 6174   6.672   3.144   3.541 -1.8381  1.3083 -0.2890
 2070TIP3    H2 6175   6.659   3.059   3.665 -0.9905  1.9259  0.2321
 2071TIP3   OH2 6176   6.895   2.495   3.907  0.6070 -0.2720  0.7527
 2071TIP3    H1 6177   6.907   2.567   3.969 -2.0158  1.8605 -0.9720
 2071TIP3    H2 6178   6.931   2.529   3.824 -0.7580 -0.8613 -0.1188
 2072TIP3   OH2 6179   4.813   1.011   5.410 -0.2093  0.3102 -0.1420
 2072TIP3    H1 6180   4.768   0.965   5.340  0.9279 -0.1729 -0.5873
 2072TIP3    H2 6181   4.842   0.941   5.469  3.2768  0.1208 -1.8355
 2073TIP3   OH2 6182   1.961   1.306   5.750 -0.5931  0.3778 -0.3819
 2073TIP3    H1 6183   1.958   1.238   5.817  0.2784  0.6225 -0.0929
 2073TIP3    H2 6184   2.041   1.288   5.701 -1.0648  0.3849 -1.1655
 2074TIP3   OH2 6185   1.395   5.190   2.577 -0.0579 -0.1873 -0.1211
 2074TIP3    H1 6186   1.354   5.261   2.528 -1.5793 -0.1541  1.0961
 2074TIP3    H2 6187   1.420   5.126   2.511  0.6678  1.1417 -1.1740
 2075TIP3   OH2 6188   2.453   4.516   1.690 -0.8298  0.0424 -0.1937
 2075TIP3    H1 6189   2.416   4.428   1.694  2.4349 -1.4978 -0.5938
 2075TIP3    H2 6190   2.469   4.539   1.782 -0.7849 -0.2306 -0.1305
 2076TIP3   OH2 6191   0.727   2.953   2.931  0.4643  0.2926  0.0348
 2076TIP3    H1 6192   0.816   2.918   2.937  0.8555  1.0756 -0.9180
 2076TIP3    H2 6193   0.718   2.978   2.839 -0.7733  0.1605  0.1044
 2077TIP3   OH2 6194   5.835   1.531   0.335  0.2561  0.1951  0.0134
 2077TIP3    H1 6195   5.740   1.538   0.323  0.1601 -0.7082  0.2033
 2077TIP3    H2 6196   5.871   1.556   0.250 -0.1453  0.5723 -0.0526
 2078TIP3   OH2 6197   2.796   0.321   0.687  0.0559  0.8821 -0.0584
 2078TIP3    H1 6198   2.836   0.408   0.688 -0.5589  1.1649 -0.0213
 2078TIP3    H2 6199   2.746   0.318   0.606 -0.1514  0.6639  0.0765
 2079TIP3   OH2 6200   4.942   0.013   4.575  0.1223 -0.1348  0.3822
 2079TIP3    H1 6201   4.902   0.095   4.546  0.9460  0.0983 -0.0982
 2079TIP3    H2 6202   4.868  -0.049   4.579 -0.0712 -0.1160 -1.9492
 2080TIP3   OH2 6203   0.162   6.301   5.337  0.1575  0.3345 -0.4023
 2080TIP3    H1 6204   0.069   6.277   5.346  0.0223 -0.8754 -3.6904
 2080TIP3    H2 6205   0.210   6.225   5.369 -0.1043 -0.2140 -1.2517
 2081TIP3   OH2 6206   3.648   5.366   4.496 -0.1026  0.5394 -0.4716
 2081TIP3    H1 6207   3.639   5.425   4.421  0.0109 -0.8316 -1.6239
 2081TIP3    H2 6208   3.596   5.289   4.472  1.0075 -0.4839  0.2533
 2082TIP3   OH2 6209   4.792   2.852   3.720  0.3217  0.3306 -0.5738
 2082TIP3    H1 6210   4.720   2.790   3.736 -0.0416  1.1111  0.9979
 2082TIP3    H2 6211   4.775   2.885   3.632  1.7525 -3.3354 -2.4465
 2083TIP3   OH2 6212   7.075   3.033   3.663  0.0452 -0.7441 -0.0547
 2083TIP3    H1 6213   7.156   2.990   3.638 -1.4598 -3.7724 -0.1231
 2083TIP3    H2 6214   7.009   2.998   3.603 -1.4625  1.0987  0.4246
 2084TIP3   OH2 6215   2.575   2.607   2.112 -0.9027  0.6665 -0.2377
 2084TIP3    H1 6216   2.605   2.669   2.046 -0.1772  0.3211 -0.2430
 2084TIP3    H2 6217   2.575   2.656   2.194  0.0132  0.5855 -0.1798
 2085TIP3   OH2 6218   3.095   2.373   1.897 -0.1679 -0.2852 -0.7156
 2085TIP3    H1 6219   3.039   2.409   1.966 -1.7873 -0.9148 -1.6438
 2085TIP3    H2 6220   3.034   2.347   1.828  1.2615 -1.3781 -1.6216
 2086TIP3   OH2 6221   5.576   1.436   3.345 -0.0511  0.3058 -0.0790
 2086TIP3    H1 6222   5.564   1.347   3.312 -0.1038  0.2463  0.1012
 2086TIP3    H2 6223   5.622   1.482   3.274  1.0697 -0.1880  0.3105
 2087TIP3   OH2 6224   3.863   3.886   5.665  0.5912 -0.3516  0.2024
 2087TIP3    H1 6225   3.949   3.844   5.671  0.7347  0.1588  3.1709
 2087TIP3    H2 6226   3.801   3.814   5.679  0.4877 -0.6506 -1.5506
 2088TIP3   OH2 6227   5.720   0.001   4.604 -0.0249 -0.1584  0.3431
 2088TIP3    H1 6228   5.700   0.031   4.515  1.5948 -0.6095 -0.2114
 2088TIP3    H2 6229   5.695   0.074   4.660 -2.0789 -0.2707 -0.3455
 2089TIP3   OH2 6230   2.418   5.701   3.791  0.1120 -0.1914  0.2992
 2089TIP3    H1 6231   2.498   5.652   3.811  0.5027  0.3245  0.0149
 2089TIP3    H2 6232   2.363   5.688   3.868  0.6501 -0.1744  0.6952
 2090TIP3   OH2 6233   0.184   3.661   2.368 -0.0079 -0.2959 -0.6002
 2090TIP3    H1 6234   0.194   3.720   2.293 -0.6644 -1.2428 -1.4646
 2090TIP3    H2 6235   0.090   3.661   2.386  0.3283  1.4851  1.5693
 2091TIP3   OH2 6236   1.082   5.038   3.871  0.0667  0.4481  0.4948
 2091TIP3    H1 6237   1.025   5.028   3.948 -0.7050  2.0325  0.1617
 2091TIP3    H2 6238   1.166   5.002   3.900 -0.4981  0.0222  1.7111
 2092TIP3   OH2 6239   6.081   0.467   0.980  0.3517  0.2613  0.1176
 2092TIP3    H1 6240   6.155   0.501   0.930 -0.9443  0.6960 -1.6187
 2092TIP3    H2 6241   6.029   0.419   0.916 -1.5102  1.0349  0.9689
 2093TIP3   OH2 6242   1.323   2.663   4.774 -0.1187  0.2323  0.9360
 2093TIP3    H1 6243   1.318   2.747   4.819 -3.0862 -0.5335  2.3014
 2093TIP3    H2 6244   1.280   2.678   4.689  2.1930  0.7685 -0.2270
 2094TIP3   OH2 6245   5.119   1.765   1.133 -0.0207 -0.0045  0.0410
 2094TIP3    H1 6246   5.193   1.813   1.094  0.1505 -0.2556  0.0569
 2094TIP3    H2 6247   5.048   1.829   1.134  0.4317  0.5062  0.7917
 2095TIP3   OH2 6248   2.158   2.856   2.432 -0.2806 -0.1702 -0.0815
 2095TIP3    H1 6249   2.200   2.924   2.379  0.2149 -0.7690 -0.4694
 2095TIP3    H2 6250   2.202   2.861   2.517 -0.5362  0.2730  0.0246
 2096TIP3   OH2 6251   6.948   0.586   2.577 -0.2050 -0.2409  0.4238
 2096TIP3    H1 6252   6.950   0.681   2.574 -0.5818 -0.2331  0.4105
 2096TIP3    H2 6253   6.944   0.559   2.485 -0.3723 -0.2627  0.4373
 2097TIP3   OH2 6254   6.384   6.758   5.543 -0.5417 -0.4459  0.0579
 2097TIP3    H1 6255   6.303   6.806   5.527 -1.1735 -1.8357 -1.1164
 2097TIP3    H2 6256   6.448   6.796   5.482 -0.5375  0.0555  0.3673
 2098TIP3   OH2 6257   4.418   5.513   0.218  0.1764  0.0070 -0.2235
 2098TIP3    H1 6258   4.474   5.501   0.294 -0.0463  0.7829  0.0680
 2098TIP3    H2 6259   4.426   5.431   0.169  1.9819  0.3022 -0.4651
 2099TIP3   OH2 6260   6.743   6.447   1.922  0.1840 -0.4864 -0.7686
 2099TIP3    H1 6261   6.663   6.500   1.924 -0.5811 -1.6407  0.2384
 2099TIP3    H2 6262   6.806   6.502   1.876 -0.8540  0.9169 -0.5917
 2100TIP3   OH2 6263   0.551   5.621   0.041  0.1433  0.3737 -0.2339
 2100TIP3    H1 6264   0.608   5.619  -0.036  1.1013  1.0772  0.4386
 2100TIP3    H2 6265   0.599   5.574   0.108  0.2992  1.6581  0.5783
 2101TIP3   OH2 6266   2.509   6.485   0.403 -0.6358 -0.5067 -0.1022
 2101TIP3    H1 6267   2.580   6.457   0.345 -0.5804  0.5678 -0.5776
 2101TIP3    H2 6268   2.502   6.415   0.467 -0.0727 -1.2875 -0.8606
 2102TIP3   OH2 6269   6.437   0.253   1.372  0.2418 -0.7244  0.4733
 2102TIP3    H1 6270   6.396   0.214   1.449 -0.8626  2.1731  1.4457
 2102TIP3    H2 6271   6.531   0.253   1.392 -0.0182 -0.1865  1.7502
 2103TIP3   OH2 6272   4.978   4.097   1.902 -0.2581  0.6511  0.3243
 2103TIP3    H1 6273   5.030   4.111   1.982  0.4602  1.4936 -0.2659
 2103TIP3    H2 6274   5.037   4.048   1.844 -0.2979  1.1977 -0.1780
 2104TIP3   OH2 6275   6.372   1.004   5.453 -0.4132  0.1979  0.2390
 2104TIP3    H1 6276   6.424   1.040   5.381 -0.0787 -0.4185  0.1636
 2104TIP3    H2 6277   6.281   1.014   5.424 -0.3242  0.9471  0.2118
 2105TIP3   OH2 6278   2.651   5.374   4.589 -0.1887  0.2814  0.7774
 2105TIP3    H1 6279   2.728   5.431   4.593  0.0523  0.2165 -1.4359
 2105TIP3    H2 6280   2.675   5.297   4.642  2.1099 -0.5884 -1.3036
 2106TIP3   OH2 6281   4.229   2.344   2.945 -0.1440 -0.1523  0.1652
 2106TIP3    H1 6282   4.254   2.415   3.003 -2.3945  0.0060  1.0679
 2106TIP3    H2 6283   4.186   2.388   2.871  1.4366 -0.4379 -0.9815
 2107TIP3   OH2 6284   5.435   2.430   0.269  0.2849 -0.3982  0.1748
 2107TIP3    H1 6285   5.444   2.337   0.246  0.1777 -0.3368 -0.1247
 2107TIP3    H2 6286   5.521   2.456   0.300 -0.2506 -1.2050  2.5515
 2108TIP3   OH2 6287   5.363   2.211   3.325  0.0092 -0.2173  0.1271
 2108TIP3    H1 6288   5.447   2.254   3.342 -0.6579  0.9252  0.7008
 2108TIP3    H2 6289   5.359   2.204   3.230  0.1646  1.0152  0.0052
 2109TIP3   OH2 6290   0.640   1.664   0.141 -0.1529  0.2595  0.6418
 2109TIP3    H1 6291   0.581   1.731   0.175  1.0723  0.2112  3.1147
 2109TIP3    H2 6292   0.727   1.705   0.142  0.1403 -0.2223 -1.2870
 2110TIP3   OH2 6293   1.686   2.538   1.484  0.1525  0.1867 -0.1368
 2110TIP3    H1 6294   1.708   2.469   1.421  1.1751 -0.0740  0.4840
 2110TIP3    H2 6295   1.736   2.614   1.455 -1.2475  0.8179 -1.0314
 2111TIP3   OH2 6296   3.255   5.509   0.623 -1.0917 -0.1686  0.6986
 2111TIP3    H1 6297   3.229   5.598   0.598  1.4932  0.0918 -1.5468
 2111TIP3    H2 6298   3.350   5.506   0.607 -1.2145 -3.5666 -0.1453
 2112TIP3   OH2 6299   5.082   0.750   0.223 -0.0698 -0.1222  0.4201
 2112TIP3    H1 6300   5.120   0.663   0.228 -1.3773 -0.7549 -0.2270
 2112TIP3    H2 6301   5.004   0.745   0.278 -1.6558 -0.2162 -1.7005
 2113TIP3   OH2 6302   6.688   3.813   1.562  0.1257  0.0024 -0.3813
 2113TIP3    H1 6303   6.674   3.857   1.646  1.7892  0.3887 -0.2712
 2113TIP3    H2 6304   6.776   3.841   1.535 -0.2747 -0.3242 -2.1277
 2114TIP3   OH2 6305   0.028   0.160   1.006  0.7426 -0.3001 -0.8419
 2114TIP3    H1 6306   0.025   0.251   0.974 -1.5007  1.5644  3.7430
 2114TIP3    H2 6307   0.108   0.157   1.059 -0.2567 -0.1891  0.7388
 2115TIP3   OH2 6308   1.386   1.242   3.170  0.7688 -0.9013  0.3588
 2115TIP3    H1 6309   1.300   1.284   3.177  0.5285 -1.4085  0.4772
 2115TIP3    H2 6310   1.425   1.252   3.256  1.1962  0.1002  0.0641
 2116TIP3   OH2 6311   5.916   3.854   0.157 -0.3113 -0.2970  0.0339
 2116TIP3    H1 6312   5.948   3.929   0.207  0.3383 -0.5920  0.0778
 2116TIP3    H2 6313   5.822   3.854   0.171 -0.5720  1.5306 -1.3672
 2117TIP3   OH2 6314   5.020   1.251   1.821  0.3474 -0.9409  0.2874
 2117TIP3    H1 6315   4.952   1.242   1.888  0.8880  0.0467  1.0086
 2117TIP3    H2 6316   4.999   1.333   1.777  1.8542  0.1695  1.5080
 2118TIP3   OH2 6317   0.842   0.778   4.118 -0.5359 -0.0590 -0.4427
 2118TIP3    H1 6318   0.903   0.849   4.099 -1.4918  0.7649 -0.5049
 2118TIP3    H2 6319   0.799   0.805   4.200 -1.6157 -0.0675 -0.9898
 2119TIP3   OH2 6320   5.146   2.937   1.338  0.2930 -0.3179 -0.0740
 2119TIP3    H1 6321   5.055   2.964   1.335  0.1195 -0.9785 -1.6786
 2119TIP3    H2 6322   5.154   2.869   1.271  1.9941 -0.1597 -0.0918
 2120TIP3   OH2 6323   3.254   0.519   4.051 -0.0657  0.1758  0.2332
 2120TIP3    H1 6324   3.210   0.440   4.085  0.7690 -0.1724  0.5239
 2120TIP3    H2 6325   3.274   0.497   3.960  1.6661 -0.6390  0.7558
 2121TIP3   OH2 6326   4.605   3.333   2.136 -0.9568 -0.5341 -0.3700
 2121TIP3    H1 6327   4.519   3.352   2.100 -2.1426  0.9724  2.8290
 2121TIP3    H2 6328   4.597   3.245   2.172 -1.2041 -0.4100 -0.1085
 2122TIP3   OH2 6329   3.786   3.606   2.361  0.1903  0.3293  0.4374
 2122TIP3    H1 6330   3.854   3.611   2.428 -0.1292 -1.7142  0.9800
 2122TIP3    H2 6331   3.705   3.626   2.408  0.0469 -0.4808  0.5621
 2123TIP3   OH2 6332   7.013   0.699   5.843 -0.0072  0.2090 -0.0481
 2123TIP3    H1 6333   6.925   0.729   5.862 -0.5881 -1.2496 -0.3080
 2123TIP3    H2 6334   7.003   0.607   5.818  1.6686 -0.2461  0.7391
 2124TIP3   OH2 6335   2.784   2.475   4.749  0.2964 -0.4824 -0.3472
 2124TIP3    H1 6336   2.765   2.439   4.836  1.3491  0.4653  0.3087
 2124TIP3    H2 6337   2.719   2.543   4.735  1.1971  0.6035  0.5211
 2125TIP3   OH2 6338   0.509   0.034   2.304  0.0758 -0.3548 -0.0144
 2125TIP3    H1 6339   0.428   0.034   2.354 -0.2287  0.8425 -0.4827
 2125TIP3    H2 6340   0.492  -0.024   2.230 -0.4271  0.0542 -0.2231
 2126TIP3   OH2 6341   3.664   1.059   4.311 -0.1334 -0.1230  0.3246
 2126TIP3    H1 6342   3.616   1.078   4.230 -0.6554  1.0078  0.8749
 2126TIP3    H2 6343   3.751   1.095   4.296  0.0341 -0.6779 -0.0485
 2127TIP3   OH2 6344   0.823   1.770   3.561  0.3478  0.2291 -0.1420
 2127TIP3    H1 6345   0.841   1.780   3.655  0.9998  0.4468 -0.2871
 2127TIP3    H2 6346   0.798   1.678   3.552 -0.8980  0.4809  0.4261
 2128TIP3   OH2 6347   7.079   4.980   1.919  0.6969  0.1985  0.0740
 2128TIP3    H1 6348   7.068   5.044   1.990 -0.9072  0.0896 -0.0379
 2128TIP3    H2 6349   7.136   4.912   1.957  0.2694  0.3888  1.0985
 2129TIP3   OH2 6350   1.217   0.005   2.053  0.1918  0.1949 -0.1519
 2129TIP3    H1 6351   1.152  -0.014   1.985  0.0827 -0.9412  0.2553
 2129TIP3    H2 6352   1.169   0.056   2.118 -0.0203  0.2363 -0.3365
 2130TIP3   OH2 6353   4.953   0.169   0.828  0.6239 -0.5150 -0.3707
 2130TIP3    H1 6354   4.947   0.227   0.904 -0.0927 -1.2216  0.1457
 2130TIP3    H2 6355   4.979   0.225   0.756  1.3853  0.1709  0.4107
 2131TIP3   OH2 6356   3.739   3.273   3.973  0.0400  0.1069 -0.1777
 2131TIP3    H1 6357   3.688   3.344   4.012  0.4437 -0.4885  1.5180
 2131TIP3    H2 6358   3.784   3.232   4.047  2.1052 -0.1067 -1.4839
 2132TIP3   OH2 6359   2.867   3.192   0.447  0.5910 -0.5346 -1.1004
 2132TIP3    H1 6360   2.947   3.184   0.394  1.6813 -0.2395  0.4228
 2132TIP3    H2 6361   2.835   3.280   0.429  1.0766 -0.3545 -1.0942
 2133TIP3   OH2 6362   0.033   4.914   2.250  0.0411 -0.1322 -0.2364
 2133TIP3    H1 6363   0.027   4.842   2.187  0.2422 -1.5608  1.3173
 2133TIP3    H2 6364   0.104   4.889   2.309  0.6913  1.7663 -0.1388
 2134TIP3   OH2 6365   0.489   5.928   4.024  0.4080 -0.2664 -0.4484
 2134TIP3    H1 6366   0.430   5.935   4.099  0.1862 -0.8638 -0.5670
 2134TIP3    H2 6367   0.523   6.017   4.013  0.0733 -0.0691  0.0573
 2135TIP3   OH2 6368   1.169   4.099   5.337 -0.2891  0.1117  0.6528
 2135TIP3    H1 6369   1.189   4.137   5.251 -3.0543  1.6230  0.5759
 2135TIP3    H2 6370   1.195   4.167   5.399 -2.0041  0.7718  0.7114
 2136TIP3   OH2 6371   6.323   3.459   4.655  0.0239  0.0339  0.1673
 2136TIP3    H1 6372   6.364   3.468   4.569 -0.2684 -0.1317  0.0085
 2136TIP3    H2 6373   6.302   3.549   4.682  0.4822  0.1197  0.2493
 2137TIP3   OH2 6374   5.049   0.735   3.354  0.1489  0.3979 -0.7702
 2137TIP3    H1 6375   5.099   0.816   3.363 -0.6057  0.6838  1.4900
 2137TIP3    H2 6376   4.961   0.763   3.329 -0.1025  0.2789 -0.0260
 2138TIP3   OH2 6377   2.548   2.393   3.290 -0.0504  0.1297  1.2367
 2138TIP3    H1 6378   2.547   2.460   3.357 -0.2724  1.2448  0.1536
 2138TIP3    H2 6379   2.542   2.310   3.338  1.9695  0.7651  2.7116
 2139TIP3   OH2 6380   3.375   0.852   2.124  0.3697  0.0062 -0.6385
 2139TIP3    H1 6381   3.426   0.781   2.085  0.2354  0.6674 -2.0903
 2139TIP3    H2 6382   3.393   0.928   2.068  3.1385  2.0761  2.6760
 2140TIP3   OH2 6383   3.016   3.903   2.607  0.0411 -0.0113  0.4772
 2140TIP3    H1 6384   2.943   3.928   2.550 -0.2315 -0.6184  0.5406
 2140TIP3    H2 6385   3.083   3.870   2.547 -0.4442 -1.1274  0.5237
 2141TIP3   OH2 6386   4.631   6.479   5.178  0.3178 -0.1668  0.2899
 2141TIP3    H1 6387   4.546   6.486   5.135  0.8408 -0.5350 -0.8417
 2141TIP3    H2 6388   4.637   6.387   5.204  0.3568 -0.1346  0.3966
 2142TIP3   OH2 6389   5.302   6.125   2.050  0.3394  0.3208  0.2265
 2142TIP3    H1 6390   5.359   6.197   2.078  1.1202  0.1165 -0.7511
 2142TIP3    H2 6391   5.276   6.082   2.131  1.6233  0.4049  0.7125
 2143TIP3   OH2 6392   4.935   2.300   3.843 -0.2241 -0.3207 -0.1592
 2143TIP3    H1 6393   4.851   2.269   3.810  1.1361 -2.8170 -1.5172
 2143TIP3    H2 6394   4.982   2.221   3.869  2.6533  0.6823 -1.7778
 2144TIP3   OH2 6395   6.568   0.204   4.003 -0.6220  0.4177  0.1267
 2144TIP3    H1 6396   6.502   0.150   3.960  1.7736 -0.9825 -2.1251
 2144TIP3    H2 6397   6.540   0.294   3.985 -2.6387 -0.0921  0.5137
 2145TIP3   OH2 6398   6.431   4.768   2.249  0.9331  0.3212  0.5127
 2145TIP3    H1 6399   6.371   4.730   2.184 -1.9942  1.4480  2.3532
 2145TIP3    H2 6400   6.506   4.708   2.249  0.9078 -0.0222 -3.4320
 2146TIP3   OH2 6401   2.300   4.266   1.737  0.4620 -0.1315  0.3763
 2146TIP3    H1 6402   2.306   4.190   1.680 -0.0311 -0.0570  0.2170
 2146TIP3    H2 6403   2.374   4.257   1.797  1.8516  0.5729 -1.1861
 2147TIP3   OH2 6404   5.084   3.651   4.058 -0.3216  0.3897 -0.1612
 2147TIP3    H1 6405   5.038   3.568   4.069 -1.1843  0.7453 -0.9345
 2147TIP3    H2 6406   5.052   3.706   4.130 -0.5015  0.3716 -0.2268
 2148TIP3   OH2 6407   7.030   6.305   0.280  0.4344  0.2949 -0.6598
 2148TIP3    H1 6408   7.014   6.386   0.231  1.0588 -0.0196 -1.3968
 2148TIP3    H2 6409   7.019   6.330   0.371 -0.0366  1.0609 -0.9164
 2149TIP3   OH2 6410   6.030   4.296   0.285  0.0241 -0.0580 -0.0292
 2149TIP3    H1 6411   5.993   4.250   0.210 -0.3926  1.0708 -0.5390
 2149TIP3    H2 6412   6.083   4.230   0.330  0.7352 -0.6128 -1.6162
 2150TIP3   OH2 6413   5.500   2.258   1.092  0.0214  0.3651  0.0100
 2150TIP3    H1 6414   5.564   2.199   1.053 -1.5993 -1.3064 -0.2734
 2150TIP3    H2 6415   5.488   2.327   1.028  1.1608  0.4210 -0.1483
 2151TIP3   OH2 6416   7.058   5.927   1.473 -0.0582  0.7215 -0.2110
 2151TIP3    H1 6417   7.004   6.002   1.496  2.1007  2.2534  0.2010
 2151TIP3    H2 6418   7.140   5.965   1.441  0.6462 -1.4597 -1.2298
 2152TIP3   OH2 6419   1.804   6.026   3.398  0.2177 -0.6458  0.3586
 2152TIP3    H1 6420   1.779   5.943   3.359  1.6601 -1.5629  1.3164
 2152TIP3    H2 6421   1.792   6.013   3.492 -0.7406  0.6773  0.4614
 2153TIP3   OH2 6422   0.218   4.228   4.401 -0.2083 -0.1202  0.0686
 2153TIP3    H1 6423   0.149   4.290   4.426 -0.9068 -0.9275  0.1828
 2153TIP3    H2 6424   0.288   4.283   4.365 -0.7267  0.7464  0.3552
 2154TIP3   OH2 6425   5.609   4.266   5.445 -0.0906  0.3865  0.3857
 2154TIP3    H1 6426   5.545   4.330   5.414 -1.2945 -1.0081 -0.1344
 2154TIP3    H2 6427   5.606   4.195   5.381  0.3216 -0.7384  1.5576
 2155TIP3   OH2 6428   2.311   5.347   0.324  0.3770 -0.0636 -0.2449
 2155TIP3    H1 6429   2.242   5.413   0.325 -0.0998 -0.5435 -0.7013
 2155TIP3    H2 6430   2.287   5.286   0.393  2.2369  1.6111  2.0701
 2156TIP3   OH2 6431   1.675   3.483   0.172 -0.1404  0.1910  0.3662
 2156TIP3    H1 6432   1.639   3.559   0.219 -0.8629 -0.2351  0.5043
 2156TIP3    H2 6433   1.715   3.429   0.241  0.9030  0.7158  0.2031
 2157TIP3   OH2 6434   1.334   2.334   3.652  0.3498  0.2532  0.1321
 2157TIP3    H1 6435   1.412   2.388   3.665  0.6949 -0.2869  0.2936
 2157TIP3    H2 6436   1.332   2.276   3.728  1.2816 -1.5671 -1.1850
 2158TIP3   OH2 6437   7.121   6.264   1.848 -0.3820 -0.2955 -0.1552
 2158TIP3    H1 6438   7.175   6.299   1.918 -1.7555  2.8540 -0.4920
 2158TIP3    H2 6439   7.180   6.208   1.797  1.5910  0.2722  1.3869
 2159TIP3   OH2 6440   3.396   3.462   1.078 -0.8486  0.2125  0.4086
 2159TIP3    H1 6441   3.364   3.472   0.989 -1.2795  0.9391  0.6351
 2159TIP3    H2 6442   3.471   3.403   1.071 -0.2916  1.0151 -0.5638
 2160TIP3   OH2 6443   2.309   2.805   3.481 -0.0277  0.1586  0.5194
 2160TIP3    H1 6444   2.240   2.828   3.420  2.2285  0.4557 -2.1347
 2160TIP3    H2 6445   2.321   2.710   3.469  1.3634  0.4429 -0.6787
 2161TIP3   OH2 6446   4.453   3.415   2.649  0.1959 -0.3189  0.0518
 2161TIP3    H1 6447   4.467   3.491   2.705  0.0238  0.0600 -0.4108
 2161TIP3    H2 6448   4.533   3.409   2.596 -0.2692  0.2511 -0.7320
 2162TIP3   OH2 6449   6.810   0.655   0.195  0.4197  0.0384 -0.1634
 2162TIP3    H1 6450   6.779   0.565   0.185  1.0192  0.0256 -2.6798
 2162TIP3    H2 6451   6.854   0.674   0.112  2.9261  1.6764  1.4301
 2163TIP3   OH2 6452   3.753   3.167   2.559  0.2439 -0.0662  0.2472
 2163TIP3    H1 6453   3.742   3.247   2.508 -2.3685 -1.1706 -1.1017
 2163TIP3    H2 6454   3.728   3.191   2.648  0.0590  0.7627 -0.0234
 2164TIP3   OH2 6455   1.784   3.334   4.543  0.7118 -0.8043  0.2996
 2164TIP3    H1 6456   1.877   3.319   4.525  0.9000  0.6988 -0.0678
 2164TIP3    H2 6457   1.744   3.247   4.533  1.9212 -1.3063 -0.4430
 2165TIP3   OH2 6458   5.073   0.395   2.502 -0.1785 -0.0730 -0.2365
 2165TIP3    H1 6459   5.079   0.318   2.558  1.0474  1.0129  1.2056
 2165TIP3    H2 6460   5.006   0.450   2.543  0.9915  0.8969  0.4314
 2166TIP3   OH2 6461   6.989   0.781   4.154  0.1816 -0.1439 -0.1172
 2166TIP3    H1 6462   7.074   0.736   4.154  0.5061  0.4495 -0.7464
 2166TIP3    H2 6463   6.972   0.799   4.062 -0.5267 -0.0596  0.0279
 2167TIP3   OH2 6464   3.287   0.865   5.507 -0.0769 -0.5302  0.3840
 2167TIP3    H1 6465   3.378   0.886   5.529  0.0684 -1.1698  0.3923
 2167TIP3    H2 6466   3.291   0.779   5.466 -0.9283 -1.5424  2.3168
 2168TIP3   OH2 6467   1.922   0.825   0.585  0.0511 -0.1113  0.0749
 2168TIP3    H1 6468   1.864   0.749   0.596  0.1601 -0.2452 -0.2474
 2168TIP3    H2 6469   2.010   0.788   0.584  0.1015  0.0074 -0.1536
 2169TIP3   OH2 6470   1.575   0.022   4.111  0.3230 -0.2753 -0.1034
 2169TIP3    H1 6471   1.540   0.105   4.143  3.7687  1.4323 -0.2471
 2169TIP3    H2 6472   1.502  -0.020   4.067 -1.3489  3.2087 -0.9972
 2170TIP3   OH2 6473   0.308   1.292   4.965  0.2208  0.4488  0.0774
 2170TIP3    H1 6474   0.327   1.198   4.963  0.6783  0.5389  0.1265
 2170TIP3    H2 6475   0.377   1.332   4.912 -0.1285  0.7327 -0.1645
 2171TIP3   OH2 6476   5.049   0.943   2.981 -0.2190  0.5630  0.1425
 2171TIP3    H1 6477   4.988   0.900   2.920 -1.2184 -0.5722  1.8737
 2171TIP3    H2 6478   5.097   0.870   3.022 -0.0690  1.2525  1.2255
 2172TIP3   OH2 6479   0.444   5.794   0.232 -0.6227 -0.7177 -0.7186
 2172TIP3    H1 6480   0.469   5.765   0.144  0.1491 -0.0196 -0.7405
 2172TIP3    H2 6481   0.353   5.822   0.222 -0.3959 -0.1865 -1.4271
 2173TIP3   OH2 6482   5.462   5.031   0.790  0.1327 -0.0519 -0.0899
 2173TIP3    H1 6483   5.526   5.019   0.719 -1.7736 -1.0918 -1.7201
 2173TIP3    H2 6484   5.513   5.070   0.861  2.5256 -0.6031 -1.3820
 2174TIP3   OH2 6485   4.450   2.493   2.683  0.1355  0.0186 -0.3694
 2174TIP3    H1 6486   4.402   2.495   2.600 -0.3518  0.1247 -0.0940
 2174TIP3    H2 6487   4.423   2.574   2.728  2.4258  1.3428 -1.2012
 2175TIP3   OH2 6488   1.281   2.314   5.489  0.5202 -0.1873 -0.4031
 2175TIP3    H1 6489   1.213   2.246   5.487 -1.6862  1.7978  1.4552
 2175TIP3    H2 6490   1.277   2.349   5.578  0.5287  3.3691 -1.6752
 2176TIP3   OH2 6491   4.977   4.781   1.599 -0.2295  0.0827 -0.2560
 2176TIP3    H1 6492   5.069   4.760   1.617  0.9942  2.5557 -2.9150
 2176TIP3    H2 6493   4.950   4.718   1.532 -0.3755 -0.3745  0.2234
 2177TIP3   OH2 6494   2.769   6.517   0.683  0.5360 -0.0638 -0.7438
 2177TIP3    H1 6495   2.722   6.597   0.659 -0.5775  0.0095  1.3826
 2177TIP3    H2 6496   2.834   6.546   0.747 -0.5001 -0.9078  0.7626
 2178TIP3   OH2 6497   5.168   3.833   0.424 -0.1882  0.8260 -0.4708
 2178TIP3    H1 6498   5.222   3.910   0.403  0.9949  0.3352  0.6182
 2178TIP3    H2 6499   5.081   3.855   0.390 -0.0280  2.8846  0.2858
 2179TIP3   OH2 6500   0.928   3.413   2.012  0.1252  0.0442 -0.1819
 2179TIP3    H1 6501   0.972   3.328   2.006 -1.5204 -0.7825 -1.4988
 2179TIP3    H2 6502   0.898   3.418   2.102  1.1040 -0.2963  0.1808
 2180TIP3   OH2 6503   7.203   6.098   5.175 -0.2656  0.0749 -0.0567
 2180TIP3    H1 6504   7.195   6.142   5.259  1.8531  0.8925 -0.2236
 2180TIP3    H2 6505   7.113   6.078   5.149 -1.0465  1.2271  1.6409
 2181TIP3   OH2 6506   3.754   5.366   3.165 -0.0955  0.4765 -0.1699
 2181TIP3    H1 6507   3.835   5.399   3.203  0.1011  0.4979 -0.5946
 2181TIP3    H2 6508   3.758   5.393   3.073  0.1849 -0.9156 -0.6004
 2182TIP3   OH2 6509   4.490   0.521   5.120  0.0368 -0.1063  0.7710
 2182TIP3    H1 6510   4.567   0.557   5.077  0.1828  0.8993  1.8131
 2182TIP3    H2 6511   4.516   0.512   5.212 -0.8974 -0.3245  1.0262
 2183TIP3   OH2 6512   6.204   3.104   2.782  0.3483 -0.3277  0.2320
 2183TIP3    H1 6513   6.192   3.190   2.741 -0.4638  0.6693  2.4045
 2183TIP3    H2 6514   6.286   3.111   2.830  1.1308 -1.3674 -0.9087
 2184TIP3   OH2 6515   2.284   5.856   1.003 -0.3237 -0.6027  0.0570
 2184TIP3    H1 6516   2.355   5.792   0.997  0.5551  0.3397  0.1311
 2184TIP3    H2 6517   2.316   5.932   0.954  1.4371  2.2871  4.9536
 2185TIP3   OH2 6518   4.735   0.520   1.167  0.9980  0.3981 -0.0179
 2185TIP3    H1 6519   4.686   0.437   1.166  0.5373  0.6731 -0.5015
 2185TIP3    H2 6520   4.721   0.557   1.080  3.1622 -0.1520 -0.6695
 2186TIP3   OH2 6521   6.185   1.188   1.659  0.2100 -0.0719  0.3959
 2186TIP3    H1 6522   6.177   1.227   1.572  0.4002 -1.4325 -0.2641
 2186TIP3    H2 6523   6.098   1.195   1.697 -0.6749 -2.0493 -1.0869
 2187TIP3   OH2 6524   3.250   0.830   5.192 -0.0904  0.0762  0.2960
 2187TIP3    H1 6525   3.338   0.867   5.181 -0.6815  2.0069  1.5601
 2187TIP3    H2 6526   3.254   0.785   5.276  0.0023 -0.8879 -0.2124
 2188TIP3   OH2 6527   2.130   2.129   0.717 -0.1859 -0.0240  0.0063
 2188TIP3    H1 6528   2.159   2.188   0.786  0.9695 -1.3106  0.6679
 2188TIP3    H2 6529   2.174   2.047   0.735  0.0464 -0.4548 -2.1839
 2189TIP3   OH2 6530   3.945   3.913   4.407  0.1803  0.1006 -0.1468
 2189TIP3    H1 6531   4.028   3.918   4.359  0.0866  0.7729 -0.2460
 2189TIP3    H2 6532   3.882   3.884   4.343 -0.3308  2.7512 -0.9755
 2190TIP3   OH2 6533   1.486   3.688   4.015  0.2361 -0.7532 -0.2987
 2190TIP3    H1 6534   1.513   3.642   3.936  0.5891 -1.6933  0.3550
 2190TIP3    H2 6535   1.509   3.629   4.086 -0.6133 -0.1778  0.4763
 2191TIP3   OH2 6536   1.960   0.921   2.111 -0.2838 -0.0782 -0.0350
 2191TIP3    H1 6537   1.891   0.871   2.155 -0.1162 -0.2829 -0.0027
 2191TIP3    H2 6538   1.914   0.994   2.071 -0.2795  0.8154  1.5242
 2192TIP3   OH2 6539   4.848   0.573   5.228  0.7959  0.2495 -0.5625
 2192TIP3    H1 6540   4.817   0.545   5.142  0.5794  0.4718 -0.5568
 2192TIP3    H2 6541   4.887   0.494   5.266  0.0652 -0.0826 -0.4938
 2193TIP3   OH2 6542   6.287   3.284   5.799  0.3462  1.2408 -0.3990
 2193TIP3    H1 6543   6.205   3.307   5.755  0.8177  3.3373 -0.2571
 2193TIP3    H2 6544   6.274   3.310   5.890  1.4850  2.4907 -0.5699
 2194TIP3   OH2 6545   5.080   3.696   5.350  0.1113  0.0368 -0.2210
 2194TIP3    H1 6546   5.003   3.705   5.405 -0.6720  1.4089 -1.4674
 2194TIP3    H2 6547   5.047   3.662   5.267  0.9186  0.1557 -0.6060
 2195TIP3   OH2 6548   1.616   6.512   3.637 -0.1008  0.2412 -0.0477
 2195TIP3    H1 6549   1.584   6.536   3.550 -3.2154 -1.9192  0.3274
 2195TIP3    H2 6550   1.653   6.424   3.626  2.2340  1.0917  0.3608
 2196TIP3   OH2 6551   0.667   1.127   0.432  0.2955 -0.1866  0.0898
 2196TIP3    H1 6552   0.756   1.159   0.444  0.7943 -1.9257  1.3647
 2196TIP3    H2 6553   0.676   1.033   0.418 -1.3782 -0.5846  1.2809
 2197TIP3   OH2 6554   0.302   4.980   3.566  0.2935 -0.5307 -0.5303
 2197TIP3    H1 6555   0.339   4.954   3.482  0.2625 -2.2914 -0.0321
 2197TIP3    H2 6556   0.366   5.042   3.602  0.4016  0.0811 -1.7358
 2198TIP3   OH2 6557   4.331   5.157   3.248 -0.7345 -0.1344  0.0853
 2198TIP3    H1 6558   4.291   5.077   3.213  1.3877 -0.9881 -0.5585
 2198TIP3    H2 6559   4.414   5.128   3.284 -0.5690  1.5874  1.1986
 2199TIP3   OH2 6560   4.427   2.158   4.874  0.3285  0.0786 -0.0575
 2199TIP3    H1 6561   4.461   2.239   4.913 -1.9235  0.6409  0.8882
 2199TIP3    H2 6562   4.355   2.132   4.932  0.9646 -2.6211 -0.3367
 2200TIP3   OH2 6563   6.874   6.393   5.347  0.0091  0.0445 -0.7525
 2200TIP3    H1 6564   6.796   6.375   5.400 -0.1223 -0.1390 -1.0065
 2200TIP3    H2 6565   6.874   6.489   5.337  0.1691  0.1011 -0.2207
 2201TIP3   OH2 6566   4.147   5.845   5.106 -0.3114  0.0775  0.3387
 2201TIP3    H1 6567   4.082   5.814   5.169 -0.4963 -2.1557 -0.8729
 2201TIP3    H2 6568   4.231   5.835   5.151 -0.5356 -0.2667  0.6849
 2202TIP3   OH2 6569   0.345   0.956   0.804 -0.1714  0.0961 -0.4544
 2202TIP3    H1 6570   0.437   0.934   0.821 -0.1449  0.3162 -0.3123
 2202TIP3    H2 6571   0.304   0.872   0.785  0.6325  0.2662 -3.4102
 2203TIP3   OH2 6572   5.920   1.119   2.950 -0.1790 -0.6112  0.5215
 2203TIP3    H1 6573   5.916   1.036   2.998 -3.3160  0.1256  1.7969
 2203TIP3    H2 6574   5.977   1.174   3.003  0.2871 -1.3311  0.7797
 2204TIP3   OH2 6575   5.677   2.465   2.235  0.4409 -0.5526 -0.5890
 2204TIP3    H1 6576   5.675   2.391   2.295 -1.2316 -0.5554 -0.6106
 2204TIP3    H2 6577   5.693   2.426   2.149 -1.7691 -1.1040 -0.8129
 2205TIP3   OH2 6578   0.223   3.391   2.457  0.1689 -0.1152  0.6284
 2205TIP3    H1 6579   0.227   3.470   2.402 -1.9229 -0.9763 -0.8588
 2205TIP3    H2 6580   0.144   3.403   2.509  0.4667 -0.7378  1.2320
 2206TIP3   OH2 6581   5.102   0.703   2.412 -0.4668 -0.0352  0.1143
 2206TIP3    H1 6582   5.122   0.717   2.504  1.4656  2.1046 -0.5223
 2206TIP3    H2 6583   5.188   0.700   2.369 -1.2838 -1.7724 -1.5418
 2207TIP3   OH2 6584   5.027   2.394   2.057  0.2359 -0.1860 -0.8907
 2207TIP3    H1 6585   4.972   2.392   1.979 -0.2155  0.7652 -0.6135
 2207TIP3    H2 6586   5.048   2.487   2.070  0.0379 -0.2860  0.2981
 2208TIP3   OH2 6587   6.898   4.317   2.514 -0.3385 -0.0127  0.1145
 2208TIP3    H1 6588   6.815   4.328   2.561  0.9844 -1.3393  2.9971
 2208TIP3    H2 6589   6.945   4.399   2.530 -1.1724  0.9801 -1.9991
 2209TIP3   OH2 6590   5.947   4.588   4.630 -0.2064 -0.0074  0.0484
 2209TIP3    H1 6591   5.947   4.554   4.719 -0.8723  0.4896  0.2484
 2209TIP3    H2 6592   5.996   4.670   4.634  1.8267 -1.1235 -0.5319
 2210TIP3   OH2 6593   4.880   3.361   3.577 -0.3663  0.4977 -0.7519
 2210TIP3    H1 6594   4.961   3.396   3.616 -0.7699  2.7653 -1.7992
 2210TIP3    H2 6595   4.828   3.334   3.652  0.6292  0.7106  0.0512
 2211TIP3   OH2 6596   1.882   3.289   3.792 -0.3091  0.1653  0.1690
 2211TIP3    H1 6597   1.851   3.201   3.815  0.4607 -0.2157 -0.2061
 2211TIP3    H2 6598   1.878   3.339   3.874  1.1900 -0.8084  0.8855
 2212TIP3   OH2 6599   6.365   0.905   5.779  0.2197  0.1167 -0.2182
 2212TIP3    H1 6600   6.417   0.915   5.699  0.6324  0.7436  0.1177
 2212TIP3    H2 6601   6.429   0.879   5.846 -0.0442  0.0579  0.0130
 2213TIP3   OH2 6602   4.998   3.716   2.956 -0.6865 -0.2929  0.2129
 2213TIP3    H1 6603   5.094   3.722   2.951 -0.7166  0.9695  0.8393
 2213TIP3    H2 6604   4.977   3.735   3.047 -1.6566  1.5629 -0.3551
 2214TIP3   OH2 6605   3.138   0.915   0.696 -0.3302 -0.7648  0.2099
 2214TIP3    H1 6606   3.161   0.840   0.641  1.4866 -0.3605  0.3389
 2214TIP3    H2 6607   3.187   0.900   0.777  0.8210  1.0017 -0.1120
 2215TIP3   OH2 6608   1.956   6.643   1.927 -0.3032 -0.3865 -0.5794
 2215TIP3    H1 6609   1.961   6.590   1.847 -0.6737  0.4193 -1.1539
 2215TIP3    H2 6610   2.044   6.679   1.937  0.5973 -2.8110  1.0534
 2216TIP3   OH2 6611   0.198   4.094   2.306  0.0965 -0.4031 -0.3530
 2216TIP3    H1 6612   0.147   4.043   2.369  0.7917 -0.4753  0.1572
 2216TIP3    H2 6613   0.149   4.086   2.224 -0.9397 -0.1205  0.2192
 2217TIP3   OH2 6614   0.533   1.129   4.611  0.1073 -0.3463 -0.2427
 2217TIP3    H1 6615   0.447   1.153   4.576  0.1278  0.2983  0.1232
 2217TIP3    H2 6616   0.540   1.179   4.692  0.3660 -1.2530  0.3083
 2218TIP3   OH2 6617   3.379   4.755   2.858  0.2927 -0.4324  0.2376
 2218TIP3    H1 6618   3.454   4.807   2.885  0.4987 -0.5178 -0.1549
 2218TIP3    H2 6619   3.407   4.715   2.776  0.1163 -1.1163  0.5071
 2219TIP3   OH2 6620   4.505   0.170   4.089 -0.4990  0.5421 -0.5475
 2219TIP3    H1 6621   4.454   0.248   4.067 -0.5532  0.0002 -2.4685
 2219TIP3    H2 6622   4.534   0.135   4.005  1.0520 -0.5109  0.3637
 2220TIP3   OH2 6623   1.536   5.763   4.986 -0.0916  0.0343  0.0448
 2220TIP3    H1 6624   1.471   5.786   5.053 -0.5644  1.2566 -0.7958
 2220TIP3    H2 6625   1.507   5.679   4.952  0.4753 -0.8917  1.7459
 2221TIP3   OH2 6626   5.965   2.773   1.949  0.2574 -0.4717  0.1593
 2221TIP3    H1 6627   6.015   2.692   1.946  0.0555 -0.6185  0.7154
 2221TIP3    H2 6628   6.027   2.840   1.919 -0.4219 -1.1941 -3.3121
 2222TIP3   OH2 6629   6.491   2.644   0.842  0.0807  0.5186 -0.5237
 2222TIP3    H1 6630   6.500   2.609   0.753  1.2713  0.4930 -0.4109
 2222TIP3    H2 6631   6.495   2.739   0.830  1.0102  0.5026 -0.4442
 2223TIP3   OH2 6632   0.404   3.496   1.167  0.6606 -0.0020 -0.4074
 2223TIP3    H1 6633   0.375   3.415   1.125  1.9184 -1.1424  0.8124
 2223TIP3    H2 6634   0.369   3.566   1.112 -1.3642 -1.3380 -0.9025
 2224TIP3   OH2 6635   2.559   1.798   2.803 -0.0094  0.5401  0.5929
 2224TIP3    H1 6636   2.642   1.799   2.755 -0.4558 -0.0702 -0.2211
 2224TIP3    H2 6637   2.575   1.739   2.877 -0.7480 -2.6646 -1.6007
 2225TIP3   OH2 6638   2.660   5.817   3.083  0.2157  0.2764 -0.0659
 2225TIP3    H1 6639   2.718   5.883   3.045  1.9800 -1.7899 -1.1696
 2225TIP3    H2 6640   2.572   5.856   3.077  1.0825  2.2182 -1.2533
 2226TIP3   OH2 6641   3.663   5.861   1.906 -0.0649  0.5120 -0.4064
 2226TIP3    H1 6642   3.689   5.825   1.991 -0.5745 -1.7492 -1.1488
 2226TIP3    H2 6643   3.746   5.886   1.865  0.3655 -0.3089 -0.0576
 2227TIP3   OH2 6644   6.212   4.888   5.089  0.1679 -0.1470 -0.3865
 2227TIP3    H1 6645   6.206   4.943   5.011  0.2790 -0.7497 -0.8274
 2227TIP3    H2 6646   6.289   4.921   5.136 -0.4220  0.8067 -0.0535
 2228TIP3   OH2 6647   5.883   3.418   4.348  0.0277 -0.4378 -0.6001
 2228TIP3    H1 6648   5.904   3.355   4.417 -0.5005 -0.6243 -0.6050
 2228TIP3    H2 6649   5.884   3.366   4.267 -2.0057 -0.8303 -0.4405
 2229TIP3   OH2 6650   4.980   3.613   4.599 -0.5033 -0.0230 -0.2078
 2229TIP3    H1 6651   4.967   3.706   4.578  1.9279  1.1299  2.6289
 2229TIP3    H2 6652   4.940   3.602   4.685  0.2475 -1.2762  0.0011
 2230TIP3   OH2 6653   1.916   6.729   5.758 -0.0893 -0.5431  0.6394
 2230TIP3    H1 6654   2.002   6.694   5.781 -0.0277 -1.3808 -0.7437
 2230TIP3    H2 6655   1.895   6.687   5.674 -0.6021  1.7518 -0.4584
 2231TIP3   OH2 6656   0.995   3.261   0.594 -0.3110  0.4117  0.1042
 2231TIP3    H1 6657   1.083   3.234   0.566 -0.2020 -2.1723  2.4248
 2231TIP3    H2 6658   1.002   3.355   0.609  2.0999  0.2649  0.2926
 2232TIP3   OH2 6659   5.996   4.789   1.582 -0.1755  0.5809 -0.5537
 2232TIP3    H1 6660   5.927   4.726   1.598 -0.3228  0.9223  0.2236
 2232TIP3    H2 6661   5.997   4.801   1.487 -0.9396  0.3011 -0.6039
 2233TIP3   OH2 6662   0.679   3.782   1.024 -0.2303  0.7719 -0.3049
 2233TIP3    H1 6663   0.602   3.806   0.973 -0.8813 -0.6037 -0.0089
 2233TIP3    H2 6664   0.748   3.769   0.959 -1.1382 -1.2989 -0.9137
 2234TIP3   OH2 6665   1.232   2.626   1.434  0.1625  0.3477  0.1109
 2234TIP3    H1 6666   1.168   2.679   1.481 -1.0621 -1.1722  0.2390
 2234TIP3    H2 6667   1.180   2.576   1.371  1.2780 -0.6920 -0.0210
 2235TIP3   OH2 6668   2.532   4.629   5.069  0.8347  0.0579 -0.5267
 2235TIP3    H1 6669   2.478   4.693   5.024  0.8036 -0.4713 -1.2681
 2235TIP3    H2 6670   2.479   4.549   5.071  1.0386 -0.0692 -0.0097
 2236TIP3   OH2 6671   5.727   1.659   1.918 -0.1702  0.1713  0.5503
 2236TIP3    H1 6672   5.780   1.609   1.855 -0.9726  1.9721 -1.7290
 2236TIP3    H2 6673   5.661   1.598   1.949 -0.3159 -0.5858 -1.1211
 2237TIP3   OH2 6674   1.803   0.438   2.544 -0.0012 -0.2540 -0.3765
 2237TIP3    H1 6675   1.782   0.472   2.457 -0.0997 -2.8804 -1.4679
 2237TIP3    H2 6676   1.717   0.422   2.585 -0.0681 -1.9182 -1.0716
 2238TIP3   OH2 6677   5.242   0.492   5.095 -0.1862 -0.0157 -0.3629
 2238TIP3    H1 6678   5.310   0.425   5.089  1.0013  1.1674 -0.8230
 2238TIP3    H2 6679   5.165   0.454   5.054  0.7459 -0.7491 -1.4676
 2239TIP3   OH2 6680   6.655   0.987   2.656 -0.5020  0.5139 -0.6514
 2239TIP3    H1 6681   6.663   0.922   2.587  1.0634  0.1301 -0.1540
 2239TIP3    H2 6682   6.630   0.937   2.734  0.0942  0.5937 -0.4063
 2240TIP3   OH2 6683   5.271   5.582   2.275  0.3044  0.0904  0.3353
 2240TIP3    H1 6684   5.234   5.558   2.190  0.0444  0.6868  0.2742
 2240TIP3    H2 6685   5.195   5.595   2.332  0.3930  1.3144  0.2112
 2241TIP3   OH2 6686   3.591   6.021   1.683  0.1355  0.5039  0.2492
 2241TIP3    H1 6687   3.625   5.943   1.726 -0.9474 -0.3757 -0.4468
 2241TIP3    H2 6688   3.608   6.092   1.745  3.1213  0.1406  0.0218
 2242TIP3   OH2 6689   3.593   4.528   4.407 -0.1837  0.2190  0.6668
 2242TIP3    H1 6690   3.600   4.440   4.370 -0.4817 -0.5163  2.2578
 2242TIP3    H2 6691   3.613   4.587   4.334 -0.0151 -1.1591 -0.4403
 2243TIP3   OH2 6692   6.886   2.299   1.394 -0.0973  0.0851 -0.4028
 2243TIP3    H1 6693   6.926   2.229   1.343  1.2696  1.4377 -1.2879
 2243TIP3    H2 6694   6.814   2.332   1.340  0.1150  0.2319 -0.5997
 2244TIP3   OH2 6695   0.165   4.561   5.241  0.3976 -0.0231  0.4148
 2244TIP3    H1 6696   0.236   4.523   5.189 -0.6255 -0.3121 -0.8092
 2244TIP3    H2 6697   0.180   4.655   5.238 -0.0516  0.0192 -1.0519
 2245TIP3   OH2 6698   6.206   0.889   3.230 -0.0461 -0.0052 -0.6186
 2245TIP3    H1 6699   6.240   0.919   3.315 -1.5084 -2.4738  0.9515
 2245TIP3    H2 6700   6.115   0.917   3.229 -0.0613 -0.0586 -1.3633
 2246TIP3   OH2 6701   0.646   0.276   1.277 -0.5100 -0.2968 -0.4596
 2246TIP3    H1 6702   0.683   0.196   1.313  0.6569  0.2082 -0.4948
 2246TIP3    H2 6703   0.556   0.278   1.310 -0.0838 -0.8606  0.7745
 2247TIP3   OH2 6704   6.433   4.463   4.957  0.2578  0.3018 -0.5461
 2247TIP3    H1 6705   6.442   4.535   4.894  0.3972  3.1661  2.4526
 2247TIP3    H2 6706   6.523   4.441   4.981  0.2040  1.0555  0.4404
 2248TIP3   OH2 6707   0.739   5.488   5.601 -0.5604 -0.6661  0.5164
 2248TIP3    H1 6708   0.733   5.583   5.616  0.7839 -0.7660  2.1062
 2248TIP3    H2 6709   0.833   5.472   5.594 -0.5974 -2.1475  2.6185
 2249TIP3   OH2 6710   0.313   6.205   1.433  0.1359  0.5728  0.0041
 2249TIP3    H1 6711   0.385   6.156   1.394  1.1919 -0.5932  3.0992
 2249TIP3    H2 6712   0.355   6.276   1.481 -0.9186  0.8965  0.4816
 2250TIP3   OH2 6713   6.354   0.382   4.697 -0.1172  0.3101  0.2762
 2250TIP3    H1 6714   6.306   0.425   4.626 -0.7996 -0.0197  0.5295
 2250TIP3    H2 6715   6.337   0.437   4.774 -0.4299 -0.0354  0.4547
 2251TIP3   OH2 6716   7.088   3.556   1.271 -0.6118  0.1252  0.0177
 2251TIP3    H1 6717   7.146   3.504   1.215 -0.5005 -1.3757  1.4417
 2251TIP3    H2 6718   7.102   3.646   1.243  0.5886 -0.4292 -1.3026
 2252TIP3   OH2 6719   2.939   2.793   5.840  0.5670  0.1027  0.3264
 2252TIP3    H1 6720   3.020   2.807   5.889  0.9312 -0.1766 -0.1850
 2252TIP3    H2 6721   2.912   2.881   5.814  2.0673  0.0442 -1.6371
 2253TIP3   OH2 6722   6.522   5.764   3.373 -0.2317 -0.5424 -0.3533
 2253TIP3    H1 6723   6.517   5.833   3.439  2.1689  0.7971 -1.4688
 2253TIP3    H2 6724   6.460   5.791   3.305  0.3752  0.3218 -0.5773
 2254TIP3   OH2 6725   0.370   3.867   5.349 -0.1496  0.4010  0.5482
 2254TIP3    H1 6726   0.439   3.800   5.353 -1.0418 -0.5875  0.1192
 2254TIP3    H2 6727   0.391   3.928   5.419  1.3679  0.3418  0.1760
 2255TIP3   OH2 6728   4.656   2.124   0.807  0.4161  0.5527 -0.1833
 2255TIP3    H1 6729   4.733   2.165   0.768 -1.4824  1.9037 -2.7799
 2255TIP3    H2 6730   4.661   2.032   0.781  1.5507  0.4365  0.4013
 2256TIP3   OH2 6731   6.080   3.170   1.147 -0.2243 -0.2777  0.1896
 2256TIP3    H1 6732   6.017   3.104   1.177  0.2738 -0.3840  1.0331
 2256TIP3    H2 6733   6.067   3.174   1.052 -2.4702  0.6851  0.4618
 2257TIP3   OH2 6734   5.966   5.694   2.333  0.3017  0.6476 -0.3464
 2257TIP3    H1 6735   5.901   5.625   2.321 -0.0794  0.8413  0.5630
 2257TIP3    H2 6736   5.916   5.772   2.355  0.6834  1.4000 -1.9715
 2258TIP3   OH2 6737   2.056   3.541   1.487  0.0473  0.5310  0.1329
 2258TIP3    H1 6738   2.003   3.495   1.552  0.0519 -0.0188 -0.2412
 2258TIP3    H2 6739   2.036   3.633   1.501 -0.7857  0.3549  0.1978
 2259TIP3   OH2 6740   5.500   6.384   3.138  0.1069 -0.2871 -0.0289
 2259TIP3    H1 6741   5.468   6.296   3.118  1.1071 -0.9290  1.0192
 2259TIP3    H2 6742   5.593   6.382   3.114  0.1180  0.5172 -0.0768
 2260TIP3   OH2 6743   4.235   3.740   2.467  0.3060 -0.2672  0.3910
 2260TIP3    H1 6744   4.254   3.659   2.421  1.0010 -0.1341  0.4278
 2260TIP3    H2 6745   4.188   3.794   2.404  0.3476 -0.4789  0.1794
 2261TIP3   OH2 6746   1.057   6.286   4.985  0.2327  0.2444 -0.3408
 2261TIP3    H1 6747   1.120   6.259   4.917 -0.2858  2.6451 -1.9227
 2261TIP3    H2 6748   1.098   6.363   5.025 -0.6229  0.3780  0.2952
 2262TIP3   OH2 6749   1.282   1.663   0.883 -0.2778 -0.5245  0.2848
 2262TIP3    H1 6750   1.367   1.704   0.894 -0.3748 -0.7983  2.8583
 2262TIP3    H2 6751   1.286   1.620   0.798  2.0290 -0.2880  0.2167
 2263TIP3   OH2 6752   3.364   6.746   0.435 -0.2618 -0.5035  0.2274
 2263TIP3    H1 6753   3.325   6.810   0.375  0.7544  0.1954  0.2824
 2263TIP3    H2 6754   3.393   6.674   0.378 -0.2649 -0.3302  0.0050
 2264TIP3   OH2 6755   1.782   6.310   3.209 -0.4390 -0.0666  0.7779
 2264TIP3    H1 6756   1.856   6.250   3.209 -0.3559  0.0160 -0.2297
 2264TIP3    H2 6757   1.707   6.257   3.236 -0.3274 -0.5652  0.1137
 2265TIP3   OH2 6758   3.588   2.881   0.982 -0.2511  0.8382 -0.1993
 2265TIP3    H1 6759   3.572   2.793   0.948  0.3142  0.8570 -0.5312
 2265TIP3    H2 6760   3.631   2.927   0.910  1.5267  0.6973  0.6979
 2266TIP3   OH2 6761   6.177   4.069   5.080  0.2453 -0.6401 -0.1007
 2266TIP3    H1 6762   6.091   4.096   5.048 -0.7998 -1.5812  1.7610
 2266TIP3    H2 6763   6.178   3.974   5.068  0.0064 -0.9629  2.0584
 2267TIP3   OH2 6764   0.197   6.667   0.461 -0.4874  0.6860 -0.0809
 2267TIP3    H1 6765   0.204   6.577   0.492 -1.9832  0.4260 -0.4223
 2267TIP3    H2 6766   0.274   6.711   0.497  1.2544 -1.1225 -1.3745
 2268TIP3   OH2 6767   2.177   2.202   3.088 -0.0800  0.2780  0.1634
 2268TIP3    H1 6768   2.264   2.175   3.057 -0.1444  0.2422  0.0113
 2268TIP3    H2 6769   2.142   2.124   3.132 -1.1792 -0.6772 -2.2027
 2269TIP3   OH2 6770   3.088   2.082   3.601 -0.3308 -0.2656 -0.0555
 2269TIP3    H1 6771   3.142   2.008   3.629 -1.9789 -2.0820 -1.4146
 2269TIP3    H2 6772   3.030   2.099   3.675  0.8507  0.5043  0.7205
 2270TIP3   OH2 6773   2.319   2.177   0.447  0.0184 -0.1524  0.0778
 2270TIP3    H1 6774   2.343   2.187   0.355  0.3257 -0.9746  0.0617
 2270TIP3    H2 6775   2.228   2.207   0.451  0.1352  0.2961 -0.4023
 2271TIP3   OH2 6776   3.339   4.016   2.521  0.5760  0.1528  0.0960
 2271TIP3    H1 6777   3.326   4.107   2.493  0.2812 -0.0067 -0.3073
 2271TIP3    H2 6778   3.433   4.006   2.528  0.6929  0.0392 -1.4201
 2272TIP3   OH2 6779   0.151   2.638   0.684  0.2213  0.2370 -0.3568
 2272TIP3    H1 6780   0.118   2.625   0.595 -2.3019  1.0605  0.3668
 2272TIP3    H2 6781   0.198   2.721   0.680 -0.2962  0.5197 -0.8383
 2273TIP3   OH2 6782   5.179   0.439   4.145 -0.3955 -0.5732 -0.1102
 2273TIP3    H1 6783   5.249   0.473   4.090  0.8495 -1.9252  0.5741
 2273TIP3    H2 6784   5.213   0.445   4.235 -1.5570 -0.3336  0.3338
 2274TIP3   OH2 6785   0.374   0.291   3.922 -0.0166 -0.0698  0.5712
 2274TIP3    H1 6786   0.332   0.308   4.006 -1.9246  1.2705 -0.5632
 2274TIP3    H2 6787   0.324   0.220   3.884 -0.2311  0.4305 -0.1066
 2275TIP3   OH2 6788   3.818   2.968   4.885  0.0534  0.4256 -0.0463
 2275TIP3    H1 6789   3.817   3.064   4.885 -0.4020  0.4310  0.7120
 2275TIP3    H2 6790   3.809   2.944   4.792 -0.8636  1.1180 -0.1523
 2276TIP3   OH2 6791   4.389   4.553   2.970  0.4465  0.4652 -0.0735
 2276TIP3    H1 6792   4.398   4.488   2.900 -0.3821  0.4345 -0.1515
 2276TIP3    H2 6793   4.335   4.622   2.933 -0.3276  0.2705  0.6550
 2277TIP3   OH2 6794   6.562   1.451   0.572 -0.2260  0.2061  0.1246
 2277TIP3    H1 6795   6.511   1.370   0.581  0.1896  0.0100  0.7481
 2277TIP3    H2 6796   6.560   1.470   0.479 -0.3945 -0.4849 -0.0186
 2278TIP3   OH2 6797   2.586   5.165   1.380 -0.0900 -0.5686 -0.9746
 2278TIP3    H1 6798   2.565   5.098   1.445 -1.5018  1.4886  0.8244
 2278TIP3    H2 6799   2.680   5.178   1.389 -0.1699 -0.7239  0.2832
 2279TIP3   OH2 6800   7.149   0.337   5.533  0.1207  0.2430  0.2370
 2279TIP3    H1 6801   7.189   0.306   5.614 -1.0448 -0.3366  0.6078
 2279TIP3    H2 6802   7.057   0.309   5.539  0.2121 -0.5839 -1.6753
 2280TIP3   OH2 6803   2.783   2.764   1.300 -0.2910 -0.3163  0.2975
 2280TIP3    H1 6804   2.872   2.751   1.333 -0.6298  0.5676  1.6433
 2280TIP3    H2 6805   2.728   2.761   1.378 -1.2471  0.8391 -0.2919
 2281TIP3   OH2 6806   4.792   1.249   5.628 -0.4994  0.0961  0.5238
 2281TIP3    H1 6807   4.702   1.283   5.634 -0.4035  0.3325  0.6424
 2281TIP3    H2 6808   4.787   1.178   5.564 -0.2686  1.8126 -1.5046
 2282TIP3   OH2 6809   4.283   0.155   2.067 -0.1968 -0.3510 -0.5016
 2282TIP3    H1 6810   4.307   0.240   2.031  0.8753 -0.7199 -0.6839
 2282TIP3    H2 6811   4.303   0.092   1.998 -0.2436 -0.8319 -0.0869
 2283TIP3   OH2 6812   1.486   3.883   2.007 -0.3476 -0.2064  0.1272
 2283TIP3    H1 6813   1.496   3.820   1.935 -3.5335 -0.2462 -0.3944
 2283TIP3    H2 6814   1.518   3.966   1.970  0.2124 -0.7015 -0.5228
 2284TIP3   OH2 6815   3.070   4.607   0.950 -0.1557  0.0545  0.2686
 2284TIP3    H1 6816   2.992   4.554   0.941  0.0307 -0.2601  0.4673
 2284TIP3    H2 6817   3.039   4.698   0.945 -0.5093 -0.0705  0.1998
 2285TIP3   OH2 6818   4.853   6.583   1.343  0.6232 -0.1956  0.2279
 2285TIP3    H1 6819   4.917   6.603   1.274  1.6147  0.3024  1.2516
 2285TIP3    H2 6820   4.808   6.666   1.358  1.9545  0.3102  1.6885
 2286TIP3   OH2 6821   0.601   3.510   2.796 -0.0579 -0.2194 -0.3873
 2286TIP3    H1 6822   0.547   3.461   2.734 -0.2601  1.3939 -1.5476
 2286TIP3    H2 6823   0.544   3.525   2.871 -0.6806 -0.0033 -0.8914
 2287TIP3   OH2 6824   3.316   4.050   4.275 -0.0236 -0.2017 -0.1015
 2287TIP3    H1 6825   3.297   4.063   4.183  0.1775 -1.3077 -0.3058
 2287TIP3    H2 6826   3.373   4.124   4.298  0.8181 -0.5106 -1.1315
 2288TIP3   OH2 6827   0.411   1.378   4.338 -0.0686 -0.3149  0.6693
 2288TIP3    H1 6828   0.394   1.301   4.392  0.5371  0.1539  1.5437
 2288TIP3    H2 6829   0.326   1.423   4.332 -0.0137 -0.0551  1.7358
 2289TIP3   OH2 6830   3.160   5.260   2.056  0.0850  0.2403  0.3128
 2289TIP3    H1 6831   3.229   5.219   2.108  0.1862  0.4736  0.3596
 2289TIP3    H2 6832   3.202   5.334   2.013 -0.0837  0.2540  0.1689
 2290TIP3   OH2 6833   6.419   0.574   4.415 -0.0794  0.2234 -0.1699
 2290TIP3    H1 6834   6.324   0.581   4.418 -0.0428  0.4767  0.4929
 2290TIP3    H2 6835   6.445   0.631   4.342 -0.3603  1.0298  0.3455
 2291TIP3   OH2 6836   2.179   2.531   0.514 -0.5213 -0.1123 -0.2724
 2291TIP3    H1 6837   2.094   2.576   0.517  0.4701  2.0430 -1.6448
 2291TIP3    H2 6838   2.176   2.478   0.434 -0.3354  0.5904 -0.7611
 2292TIP3   OH2 6839   4.733   0.617   2.744  0.1049  0.2553  0.0417
 2292TIP3    H1 6840   4.773   0.559   2.679 -3.1785 -2.5411  0.2150
 2292TIP3    H2 6841   4.744   0.571   2.827 -0.6512  0.9636  0.5516
 2293TIP3   OH2 6842   5.458   6.644   0.384  0.1277 -0.3310  0.4166
 2293TIP3    H1 6843   5.509   6.696   0.446 -1.8155 -0.4783  2.2748
 2293TIP3    H2 6844   5.512   6.567   0.367  0.7496 -0.2539  1.9028
 2294TIP3   OH2 6845   7.015   4.167   1.750 -0.4681  0.4146 -0.3667
 2294TIP3    H1 6846   6.947   4.108   1.781  0.8210 -0.1616  1.5570
 2294TIP3    H2 6847   7.060   4.119   1.681 -1.1390  0.2401 -0.6828
 2295TIP3   OH2 6848   1.964   1.591   0.430  0.6460 -0.2239  0.0185
 2295TIP3    H1 6849   1.987   1.673   0.473  1.3926 -1.0162  1.1849
 2295TIP3    H2 6850   1.896   1.552   0.485 -0.8645  0.3272 -1.3897
 2296TIP3   OH2 6851   1.604   0.762   2.613  0.1412 -0.6990 -0.0365
 2296TIP3    H1 6852   1.543   0.825   2.651 -1.9302 -1.2205 -2.2504
 2296TIP3    H2 6853   1.672   0.816   2.573 -0.7267  0.0838 -0.4919
 2297TIP3   OH2 6854   4.586   2.911   4.146 -0.8821  0.7518 -0.0983
 2297TIP3    H1 6855   4.570   2.843   4.080  1.6321  0.8892 -0.9227
 2297TIP3    H2 6856   4.507   2.966   4.143 -2.4240 -1.3195 -0.3336
 2298TIP3   OH2 6857   4.127   5.355   1.682 -0.4812  0.5969 -1.1697
 2298TIP3    H1 6858   4.205   5.394   1.642 -0.4004 -0.4071 -2.0352
 2298TIP3    H2 6859   4.054   5.398   1.638 -0.4044  0.9820 -0.9179
 2299TIP3   OH2 6860   3.119   6.637   2.278  0.4405  0.5444  0.4807
 2299TIP3    H1 6861   3.175   6.639   2.200  0.1817 -0.7378  0.2301
 2299TIP3    H2 6862   3.098   6.544   2.289 -3.5069  1.1320 -0.7881
 2300TIP3   OH2 6863   4.179   0.048   0.507  0.0080  0.9485 -0.4034
 2300TIP3    H1 6864   4.152   0.076   0.595  0.5623  1.2212 -0.3166
 2300TIP3    H2 6865   4.130   0.105   0.448 -0.5986  0.5625 -0.2861
 2301TIP3   OH2 6866   5.217   3.130   1.989 -0.0581 -0.2429 -0.6040
 2301TIP3    H1 6867   5.186   3.170   2.071 -0.0033  0.3155 -0.8572
 2301TIP3    H2 6868   5.289   3.185   1.961  0.6729 -1.0936 -0.4381
 2302TIP3   OH2 6869   2.352   5.325   0.792  0.1205  0.0403  0.2473
 2302TIP3    H1 6870   2.396   5.240   0.783  0.0260 -0.0697  0.7801
 2302TIP3    H2 6871   2.293   5.313   0.866  0.0751  0.5598  0.2964
 2303TIP3   OH2 6872   3.069   3.446   0.086  0.1366 -0.3343  0.0924
 2303TIP3    H1 6873   3.144   3.445   0.026  1.8793  4.5618  1.6891
 2303TIP3    H2 6874   2.993   3.462   0.030  1.4374  2.1379 -1.1210
 2304TIP3   OH2 6875   5.689   0.942   3.102 -0.2513 -0.1054 -0.1935
 2304TIP3    H1 6876   5.708   0.903   3.017 -0.8435  1.4274 -1.0762
 2304TIP3    H2 6877   5.739   1.024   3.103 -0.2474 -0.0947  0.9459
 2305TIP3   OH2 6878   2.418   0.051   0.541 -0.5762  0.0079  0.0638
 2305TIP3    H1 6879   2.457   0.134   0.513  2.4525 -0.4451  2.3695
 2305TIP3    H2 6880   2.476  -0.016   0.505 -2.7650 -1.1978 -1.4566
 2306TIP3   OH2 6881   4.680   5.823   0.365  0.6501  0.1137  0.0244
 2306TIP3    H1 6882   4.599   5.867   0.342 -0.0847 -1.4819 -0.5937
 2306TIP3    H2 6883   4.681   5.821   0.461  0.8417  1.6698  0.0667
 2307TIP3   OH2 6884   2.739   2.294   1.430 -0.0269  0.5650  0.2896
 2307TIP3    H1 6885   2.706   2.221   1.378 -0.5488  0.3383  0.9209
 2307TIP3    H2 6886   2.784   2.252   1.504  0.7782  0.8788 -0.0134
 2308TIP3   OH2 6887   3.434   2.372   4.853 -0.9051 -0.0324 -0.3252
 2308TIP3    H1 6888   3.387   2.352   4.934 -0.2444  1.9285  0.6190
 2308TIP3    H2 6889   3.371   2.420   4.800 -1.5806 -1.9626 -1.3584
 2309TIP3   OH2 6890   0.884   6.742   4.549  0.2020 -0.7324 -0.2141
 2309TIP3    H1 6891   0.961   6.693   4.519  1.4756  1.1651 -0.2400
 2309TIP3    H2 6892   0.834   6.759   4.469  0.6613 -0.4840 -0.4497
 2310TIP3   OH2 6893   2.137   6.361   5.667 -0.1924 -0.9957  0.0842
 2310TIP3    H1 6894   2.082   6.381   5.743 -0.2801 -0.9588  0.0110
 2310TIP3    H2 6895   2.130   6.438   5.610 -0.1589 -1.0394  0.0198
 2311TIP3   OH2 6896   5.096   0.523   1.240 -0.3543  0.0240 -0.7034
 2311TIP3    H1 6897   5.061   0.534   1.152 -0.1512 -0.2748 -0.8229
 2311TIP3    H2 6898   5.096   0.428   1.254  0.0435  0.0426 -0.5597
 2312TIP3   OH2 6899   0.947   0.718   5.554  0.4623  0.6352  0.3556
 2312TIP3    H1 6900   1.027   0.673   5.527  0.4595  1.1059 -0.4732
 2312TIP3    H2 6901   0.935   0.787   5.489 -2.9636 -2.0032 -2.2041
 2313TIP3   OH2 6902   1.962   1.161   4.575 -0.5324 -0.2727  0.2394
 2313TIP3    H1 6903   1.958   1.066   4.573  2.2635 -0.4860  1.4685
 2313TIP3    H2 6904   1.917   1.188   4.494 -1.3135 -2.5906 -0.1727
 2314TIP3   OH2 6905   1.370   2.885   4.934  0.0506  0.1466  0.4940
 2314TIP3    H1 6906   1.418   2.832   4.997 -0.7850  0.7266  1.6579
 2314TIP3    H2 6907   1.438   2.933   4.887  0.9694 -3.0996 -1.7854
 2315TIP3   OH2 6908   3.540   4.676   4.615  1.1150 -0.0151 -0.1784
 2315TIP3    H1 6909   3.543   4.653   4.522  4.3600 -1.3373  0.1223
 2315TIP3    H2 6910   3.527   4.593   4.660  0.0446  0.5567  0.6224
 2316TIP3   OH2 6911   4.221   0.618   2.096  0.4327  0.1073 -0.1304
 2316TIP3    H1 6912   4.241   0.648   2.185 -0.4455 -1.4495  0.6302
 2316TIP3    H2 6913   4.276   0.673   2.039 -0.5270  2.6249  1.1907
 2317TIP3   OH2 6914   4.699   1.859   0.689  0.3046 -0.3614 -0.3177
 2317TIP3    H1 6915   4.701   1.784   0.629 -0.0933 -0.2218 -0.5050
 2317TIP3    H2 6916   4.749   1.927   0.644 -1.5206  0.3669 -1.3310
 2318TIP3   OH2 6917   2.750   4.122   3.545 -0.3277  0.2846 -0.8526
 2318TIP3    H1 6918   2.819   4.062   3.520  0.3777  1.1639 -1.0798
 2318TIP3    H2 6919   2.681   4.066   3.582  1.7394 -0.4042  2.2971
 2319TIP3   OH2 6920   2.360   2.234   2.725 -0.3729  0.0826  0.0160
 2319TIP3    H1 6921   2.372   2.179   2.648 -0.3499 -0.4234  0.3794
 2319TIP3    H2 6922   2.378   2.323   2.693  3.9609 -0.4553  0.3058
 2320TIP3   OH2 6923   6.575   2.439   1.618  0.3819 -0.0172 -0.1058
 2320TIP3    H1 6924   6.522   2.371   1.576  1.0562 -0.7113  0.1233
 2320TIP3    H2 6925   6.572   2.513   1.558 -2.6125  0.7911  0.8825
 2321TIP3   OH2 6926   3.967   2.256   0.252 -0.0121 -0.1513  0.2386
 2321TIP3    H1 6927   3.932   2.230   0.337  1.4833 -1.1803  0.5825
 2321TIP3    H2 6928   3.965   2.351   0.253  1.0661 -0.1136  1.9082
 2322TIP3   OH2 6929   1.783   2.879   4.444 -0.0366 -0.2098  0.3408
 2322TIP3    H1 6930   1.691   2.856   4.433  0.0934 -1.0761  0.9589
 2322TIP3    H2 6931   1.796   2.953   4.386 -1.1553  0.0030  0.3369
 2323TIP3   OH2 6932   5.075   1.014   2.403 -0.0857  0.0125  0.2069
 2323TIP3    H1 6933   5.134   0.948   2.366  0.3733 -0.0350  1.0060
 2323TIP3    H2 6934   5.086   1.005   2.498 -2.6121 -1.1618  0.4673
 2324TIP3   OH2 6935   3.365   3.983   3.418  0.1993  0.4752  0.4669
 2324TIP3    H1 6936   3.430   4.048   3.448 -0.3621 -0.1389  3.3459
 2324TIP3    H2 6937   3.282   4.029   3.423 -0.0302  0.0162  1.0876
 2325TIP3   OH2 6938   6.213   2.235   2.325 -0.5038  0.2465 -0.2157
 2325TIP3    H1 6939   6.254   2.158   2.365 -0.7446  0.1425 -0.1663
 2325TIP3    H2 6940   6.274   2.262   2.256 -0.6038 -0.2267 -0.4945
 2326TIP3   OH2 6941   3.895   4.005   3.013  0.1948  0.0066  0.2082
 2326TIP3    H1 6942   3.944   4.087   3.010  0.9785 -0.4541  0.1912
 2326TIP3    H2 6943   3.930   3.958   3.088 -1.1182  0.2053  0.9725
 2327TIP3   OH2 6944   7.064   4.382   3.968  0.3305 -0.3506 -0.3269
 2327TIP3    H1 6945   7.121   4.429   4.029  0.2431  1.1628 -1.3476
 2327TIP3    H2 6946   6.977   4.416   3.987  0.0605 -1.1035 -0.1912
 2328TIP3   OH2 6947   3.200   5.284   1.347 -0.0390 -0.3344 -0.3595
 2328TIP3    H1 6948   3.234   5.348   1.411 -0.0730 -0.0156 -0.6580
 2328TIP3    H2 6949   3.170   5.211   1.401  0.4015 -0.2876 -0.0379
 2329TIP3   OH2 6950   0.842   2.945   2.636 -0.0267 -0.2281  0.0255
 2329TIP3    H1 6951   0.930   2.969   2.606 -0.7648 -0.6423 -2.7264
 2329TIP3    H2 6952   0.839   2.850   2.628 -0.3201 -0.3548  1.4202
 2330TIP3   OH2 6953   4.676   2.414   3.071  0.3456  0.2234  0.2832
 2330TIP3    H1 6954   4.718   2.402   3.155 -1.3269 -1.3920  0.9625
 2330TIP3    H2 6955   4.730   2.365   3.009 -0.1203 -1.2559  1.0112
 2331TIP3   OH2 6956   2.191   3.500   3.831  0.7300  0.2439 -0.2933
 2331TIP3    H1 6957   2.275   3.462   3.806 -0.1725 -1.6567 -0.6112
 2331TIP3    H2 6958   2.205   3.595   3.827  1.7032  0.0856 -4.3399
 2332TIP3   OH2 6959   6.565   2.694   1.443  0.5351  0.5277 -0.2047
 2332TIP3    H1 6960   6.606   2.768   1.487  2.6963  0.8567 -2.5521
 2332TIP3    H2 6961   6.575   2.712   1.349 -2.2960 -0.9491 -0.9176
 2333TIP3   OH2 6962   5.572   0.612   4.474 -0.3049  0.4588 -0.0522
 2333TIP3    H1 6963   5.645   0.655   4.519 -0.7961  1.3186 -0.0535
 2333TIP3    H2 6964   5.544   0.675   4.408  0.9459 -1.0867 -2.2087
 2334TIP3   OH2 6965   0.639   6.697   5.592  0.1128 -0.0418  0.2635
 2334TIP3    H1 6966   0.636   6.748   5.511  0.2028  0.0228  0.3006
 2334TIP3    H2 6967   0.721   6.649   5.587  0.5305  0.6120  0.7095
 2335TIP3   OH2 6968   3.932   3.512   3.257 -0.1948 -0.3147  0.2607
 2335TIP3    H1 6969   3.938   3.474   3.345 -0.4307 -0.1914  0.3312
 2335TIP3    H2 6970   3.858   3.573   3.262  1.4134  1.7203  0.7445
 2336TIP3   OH2 6971   0.911   5.642   2.048 -0.2237 -1.0466 -0.4297
 2336TIP3    H1 6972   0.820   5.617   2.030 -0.4515  0.3858 -1.4930
 2336TIP3    H2 6973   0.906   5.736   2.069  0.8829 -1.2246  0.7340
 2337TIP3   OH2 6974   5.575   2.140   5.345  0.3658  0.1275  0.1736
 2337TIP3    H1 6975   5.611   2.070   5.399 -0.9525 -1.2917 -0.6975
 2337TIP3    H2 6976   5.638   2.149   5.273  1.3359  0.9691  1.0808
 2338TIP3   OH2 6977   0.487   1.041   5.016  0.6050  0.2790  0.1026
 2338TIP3    H1 6978   0.500   1.077   5.104  0.4240 -1.1735  0.7390
 2338TIP3    H2 6979   0.480   0.947   5.028  0.6436  0.0344 -1.4872
 2339TIP3   OH2 6980   4.248   4.271   3.880  0.0014  0.7349  0.3531
 2339TIP3    H1 6981   4.280   4.356   3.852  0.8841  0.8335  1.5503
 2339TIP3    H2 6982   4.288   4.258   3.967  1.1289 -1.5501 -0.4199
 2340TIP3   OH2 6983   4.191   6.535   1.617 -0.0226  0.1826 -0.3502
 2340TIP3    H1 6984   4.096   6.521   1.609  0.0906 -0.3223 -0.8269
 2340TIP3    H2 6985   4.230   6.450   1.596  0.6207  0.8582 -2.0155
 2341TIP3   OH2 6986   2.448   3.260   2.910  0.0999 -0.4845  0.2482
 2341TIP3    H1 6987   2.488   3.273   2.824 -1.0841 -0.3552 -0.3069
 2341TIP3    H2 6988   2.438   3.349   2.946  1.3332 -0.5803  0.8995
 2342TIP3   OH2 6989   3.442   4.022   5.350 -0.1241  0.3376  0.5346
 2342TIP3    H1 6990   3.441   3.940   5.400  1.6369 -0.7450 -1.0281
 2342TIP3    H2 6991   3.435   3.994   5.258 -0.8161  2.0588  0.0152
 2343TIP3   OH2 6992   4.246   2.778   0.170  0.2615 -0.0395  0.6716
 2343TIP3    H1 6993   4.174   2.816   0.219 -1.9813 -3.4660  0.3490
 2343TIP3    H2 6994   4.304   2.740   0.237  0.4345  0.5287  0.8451
 2344TIP3   OH2 6995   6.224   2.479   1.446 -0.2024 -0.1228  0.1829
 2344TIP3    H1 6996   6.279   2.444   1.377 -1.0469 -0.2979 -0.4247
 2344TIP3    H2 6997   6.154   2.526   1.399  0.2572  1.4042  0.9423
 2345TIP3   OH2 6998   2.512   2.424   0.217  0.5816  0.5151 -1.0846
 2345TIP3    H1 6999   2.579   2.416   0.286 -1.6109 -0.9520  1.0420
 2345TIP3    H2 7000   2.552   2.483   0.153  2.6613  2.3471  1.6024
 2346TIP3   OH2 7001   6.531   5.976   3.542  0.4004 -0.3366 -0.0600
 2346TIP3    H1 7002   6.444   5.957   3.578  0.1488  0.9769  0.0652
 2346TIP3    H2 7003   6.591   5.937   3.605 -0.0797 -1.2350 -0.1307
 2347TIP3   OH2 7004   1.989   1.236   2.799  0.0709  0.3801  0.2796
 2347TIP3    H1 7005   2.055   1.276   2.855 -0.1527  0.6831  0.3316
 2347TIP3    H2 7006   2.037   1.204   2.723  0.3831 -0.0670  0.6615
 2348TIP3   OH2 7007   3.836   4.404   3.947 -0.3392  0.2999  0.0287
 2348TIP3    H1 7008   3.901   4.370   3.887 -2.0364  0.1222 -1.8260
 2348TIP3    H2 7009   3.867   4.492   3.969  0.6691  0.1025 -0.5470
 2349TIP3   OH2 7010   5.561   3.818   3.956 -0.6863 -0.4229 -0.3682
 2349TIP3    H1 7011   5.596   3.907   3.959  3.3609 -1.8383  1.3882
 2349TIP3    H2 7012   5.489   3.819   4.019 -0.1183  1.4172  0.3273
 2350TIP3   OH2 7013   3.713   2.057   1.536 -0.1357  0.1993 -0.2215
 2350TIP3    H1 7014   3.716   2.123   1.605 -0.5281 -0.5709  0.5544
 2350TIP3    H2 7015   3.754   2.099   1.461 -0.3957  1.3247  0.2481
 2351TIP3   OH2 7016   0.816   1.738   4.100  0.1176  0.0156 -0.6603
 2351TIP3    H1 7017   0.862   1.726   4.183 -0.5517 -1.1511 -0.4189
 2351TIP3    H2 7018   0.831   1.829   4.076 -3.2968  1.8556  3.0158
 2352TIP3   OH2 7019   2.899   6.613   2.982 -0.0787 -0.3744 -0.0545
 2352TIP3    H1 7020   2.923   6.642   2.894  1.8177  3.1661  1.4400
 2352TIP3    H2 7021   2.818   6.660   3.002 -1.0988 -1.9852 -0.2084
 2353TIP3   OH2 7022   0.269   3.690   1.035 -0.2135  0.0299  0.1061
 2353TIP3    H1 7023   0.184   3.705   0.994 -0.1965  0.3120  0.1705
 2353TIP3    H2 7024   0.326   3.757   0.997 -0.3586  0.7226  1.0608
 2354TIP3   OH2 7025   5.191   5.994   0.995 -0.3526 -0.1976  0.0770
 2354TIP3    H1 7026   5.251   5.923   1.019 -1.2199 -0.4500  1.6123
 2354TIP3    H2 7027   5.225   6.026   0.912  2.0744 -0.1434  0.9988
 2355TIP3   OH2 7028   7.113   0.551   0.155 -0.3487 -0.0159 -0.0590
 2355TIP3    H1 7029   7.142   0.461   0.145 -0.8178 -0.0805 -0.9833
 2355TIP3    H2 7030   7.065   0.552   0.239  0.8031 -0.2892  0.6211
 2356TIP3   OH2 7031   2.659   2.339   2.663  0.1270 -0.2892 -0.7339
 2356TIP3    H1 7032   2.588   2.359   2.602  0.5280 -0.1893 -1.1707
 2356TIP3    H2 7033   2.615   2.324   2.747 -0.4639 -0.7550 -1.1151
 2357TIP3   OH2 7034   4.973   2.393   0.248 -0.0563  0.0261  0.2424
 2357TIP3    H1 7035   5.044   2.333   0.224  1.7105  1.4776  1.5562
 2357TIP3    H2 7036   4.900   2.369   0.191  1.6511 -1.1964 -1.5134
 2358TIP3   OH2 7037   3.389   1.651   5.000 -0.6597 -0.2947 -0.1860
 2358TIP3    H1 7038   3.408   1.557   4.994 -0.4698 -0.1657 -2.5618
 2358TIP3    H2 7039   3.352   1.673   4.914 -3.2701  1.2708  1.2060
 2359TIP3   OH2 7040   1.479   5.534   4.828 -0.1455 -0.7030  0.7486
 2359TIP3    H1 7041   1.414   5.558   4.762  0.4628  0.3388  0.5105
 2359TIP3    H2 7042   1.440   5.459   4.873 -0.8165 -1.0796 -0.4153
 2360TIP3   OH2 7043   3.475   6.528   3.632 -0.4846 -0.1486 -0.0833
 2360TIP3    H1 7044   3.510   6.541   3.719  0.0270  0.1907 -0.3341
 2360TIP3    H2 7045   3.380   6.521   3.645 -0.3121 -1.4071  0.6362
 2361TIP3   OH2 7046   5.561   6.212   0.107  0.3674  0.1493 -0.4316
 2361TIP3    H1 7047   5.597   6.125   0.123 -1.0426 -0.5258 -0.7731
 2361TIP3    H2 7048   5.635   6.271   0.121  1.5650 -1.1486 -0.9624
 2362TIP3   OH2 7049   2.204   5.668   3.958 -0.0012 -0.2043 -0.0443
 2362TIP3    H1 7050   2.180   5.580   3.930  0.1536 -0.4221  0.4782
 2362TIP3    H2 7051   2.224   5.658   4.052 -0.3795  0.4644  0.1112
 2363TIP3   OH2 7052   6.890   2.644   2.901 -0.1286 -0.4675  0.3483
 2363TIP3    H1 7053   6.851   2.719   2.947  0.0661  1.1349 -1.9192
 2363TIP3    H2 7054   6.815   2.589   2.877 -0.5959  0.3596 -0.1859
 2364TIP3   OH2 7055   1.437   2.910   3.883  0.0145 -0.2144 -0.3625
 2364TIP3    H1 7056   1.496   2.840   3.859 -0.3715 -0.2363 -1.3181
 2364TIP3    H2 7057   1.478   2.990   3.848  0.0653 -0.0703  0.0214
 2365TIP3   OH2 7058   3.295   3.237   2.485  0.3199  0.0181 -0.1149
 2365TIP3    H1 7059   3.363   3.173   2.506 -0.2338  0.1677  2.4519
 2365TIP3    H2 7060   3.217   3.184   2.466  0.3393 -0.0862  0.1020
 2366TIP3   OH2 7061   4.768   0.892   4.411 -0.2934  0.3787  0.3878
 2366TIP3    H1 7062   4.786   0.947   4.487 -0.3109 -0.1238  0.7616
 2366TIP3    H2 7063   4.692   0.933   4.369  0.6013  1.4939 -0.1985
 2367TIP3   OH2 7064   3.820   4.923   3.397 -0.1375 -0.0526 -0.3335
 2367TIP3    H1 7065   3.802   4.955   3.485 -2.1636 -1.6246 -0.1164
 2367TIP3    H2 7066   3.748   4.956   3.344 -0.7645 -1.8294 -0.6664
 2368TIP3   OH2 7067   4.552   4.486   1.736  0.7499 -0.3689  0.7061
 2368TIP3    H1 7068   4.470   4.496   1.687  0.8324 -0.9908  0.4373
 2368TIP3    H2 7069   4.621   4.502   1.672  0.8493 -0.5499  0.7655
 2369TIP3   OH2 7070   3.144   6.539   4.403  0.2842  0.0250  0.9278
 2369TIP3    H1 7071   3.223   6.494   4.374  0.4592  0.7256  0.2830
 2369TIP3    H2 7072   3.140   6.618   4.349  0.8197  1.6151  3.0601
 2370TIP3   OH2 7073   3.671   5.982   0.763  0.8586  0.0917  0.0247
 2370TIP3    H1 7074   3.697   5.899   0.804 -0.3651  0.2881  1.2609
 2370TIP3    H2 7075   3.672   6.045   0.834 -0.4689  0.6431 -0.4098
 2371TIP3   OH2 7076   5.689   3.304   3.667  0.6363 -0.4003  0.0478
 2371TIP3    H1 7077   5.724   3.392   3.653 -0.9270  0.6671  2.2706
 2371TIP3    H2 7078   5.627   3.291   3.596 -1.2646  1.5554  1.2569
 2372TIP3   OH2 7079   6.026   4.257   4.715  0.5771  0.1830  0.0902
 2372TIP3    H1 7080   6.117   4.278   4.736  0.2187  0.8566  1.0853
 2372TIP3    H2 7081   5.975   4.328   4.755 -0.5870 -1.6849  2.1989
 2373TIP3   OH2 7082   3.038   5.360   4.132 -0.5120 -0.1003  0.4610
 2373TIP3    H1 7083   3.085   5.295   4.183 -0.8418 -0.0739  0.8101
 2373TIP3    H2 7084   3.103   5.428   4.114 -0.4057 -0.0767  0.9112
 2374TIP3   OH2 7085   2.654   5.765   0.937  0.1000 -0.7136 -0.2549
 2374TIP3    H1 7086   2.742   5.727   0.933  0.4862  0.2157 -0.6374
 2374TIP3    H2 7087   2.598   5.699   0.896  0.5653 -1.4376  0.2387
 2375TIP3   OH2 7088   0.236   2.575   2.136 -0.0095  0.7592 -0.3144
 2375TIP3    H1 7089   0.206   2.664   2.150 -1.6280  0.4537 -1.5893
 2375TIP3    H2 7090   0.158   2.526   2.109  1.3204 -0.3675 -2.5015
 2376TIP3   OH2 7091   1.938   3.818   0.210  0.4198 -0.1098  0.2899
 2376TIP3    H1 7092   2.026   3.791   0.186  0.3875 -0.7297  0.8743
 2376TIP3    H2 7093   1.926   3.902   0.165  1.0645 -0.3337 -0.3083
 2377TIP3   OH2 7094   0.817   1.990   1.072 -0.0652  0.0494 -0.5271
 2377TIP3    H1 7095   0.744   2.026   1.020  1.4296 -0.5765 -3.2581
 2377TIP3    H2 7096   0.890   2.050   1.055  1.1635 -1.5880 -1.2744
 2378TIP3   OH2 7097   2.715   1.246   2.528 -0.1937 -0.0449  0.4187
 2378TIP3    H1 7098   2.694   1.168   2.476  1.3006 -0.4130  0.3052
 2378TIP3    H2 7099   2.778   1.215   2.593  0.3248  1.0444  0.4626
 2379TIP3   OH2 7100   5.652   3.289   2.684  0.3307  0.0711 -0.1233
 2379TIP3    H1 7101   5.641   3.195   2.688 -0.6412  0.2200  1.1253
 2379TIP3    H2 7102   5.744   3.303   2.707  0.2327 -0.5295  0.6954
 2380TIP3   OH2 7103   2.649   5.515   3.040  0.1648  0.0259  0.2461
 2380TIP3    H1 7104   2.642   5.610   3.031 -1.8613 -0.1595 -0.7803
 2380TIP3    H2 7105   2.561   5.483   3.022  0.6466 -2.0219  1.2355
 2381TIP3   OH2 7106   3.003   1.951   2.342  0.2563 -0.6685  0.1754
 2381TIP3    H1 7107   3.015   2.015   2.273 -1.5822 -0.2014  0.2502
 2381TIP3    H2 7108   2.995   2.003   2.422  1.8253 -1.1770  0.7175
 2382TIP3   OH2 7109   7.096   4.493   2.218  0.3337  0.2171  0.0614
 2382TIP3    H1 7110   7.159   4.472   2.149  1.9063 -2.0260  2.0098
 2382TIP3    H2 7111   7.149   4.532   2.288 -0.7354 -0.1255  1.0904
 2383TIP3   OH2 7112   0.144   5.796   0.228  0.2463 -0.1326  0.3129
 2383TIP3    H1 7113   0.099   5.813   0.145  1.0760 -2.0017 -0.5647
 2383TIP3    H2 7114   0.099   5.720   0.265  0.4737  0.1169  1.1181
 2384TIP3   OH2 7115   0.612   2.672   5.139  0.1097 -0.4288 -0.1270
 2384TIP3    H1 7116   0.602   2.592   5.191 -1.5397 -1.4242 -1.8535
 2384TIP3    H2 7117   0.525   2.712   5.138  0.9708  1.5918  0.9411
 2385TIP3   OH2 7118   2.965   0.386   0.205  0.2519  0.0093 -0.0679
 2385TIP3    H1 7119   2.968   0.313   0.144 -0.1053  1.1135 -1.4590
 2385TIP3    H2 7120   2.871   0.404   0.216  0.3161  2.4234 -2.5062
 2386TIP3   OH2 7121   6.659   1.452   2.113  0.2539 -0.7819 -0.3476
 2386TIP3    H1 7122   6.663   1.547   2.105  0.7495 -0.7729 -0.0475
 2386TIP3    H2 7123   6.579   1.435   2.162  0.0442 -0.5368 -0.6002
 2387TIP3   OH2 7124   5.484   3.914   5.495 -0.1653  0.3891  0.0111
 2387TIP3    H1 7125   5.448   3.830   5.466  2.4561 -0.4768 -1.0018
 2387TIP3    H2 7126   5.483   3.909   5.591  0.9228 -1.3093 -0.0266
 2388TIP3   OH2 7127   6.064   0.548   4.647  0.4200  0.1397  0.6452
 2388TIP3    H1 7128   6.069   0.633   4.603  1.5467  1.2738  2.8637
 2388TIP3    H2 7129   6.115   0.489   4.590  0.3260  1.1040 -0.4868
 2389TIP3   OH2 7130   4.100   5.350   2.427 -0.1596  0.1230  0.5988
 2389TIP3    H1 7131   4.073   5.437   2.397  1.4241  0.5152  0.1952
 2389TIP3    H2 7132   4.060   5.290   2.365  0.8623  0.7623 -0.7390
 2390TIP3   OH2 7133   7.156   1.867   1.215 -0.5944 -0.5981 -0.1398
 2390TIP3    H1 7134   7.140   1.795   1.155 -2.5066  0.5424 -1.0847
 2390TIP3    H2 7135   7.249   1.885   1.206 -0.5650 -1.3502 -1.7253
 2391TIP3   OH2 7136   0.158   5.098   1.005  0.1278 -0.2694 -0.9552
 2391TIP3    H1 7137   0.088   5.133   0.950 -1.8241 -0.7293  1.0543
 2391TIP3    H2 7138   0.172   5.165   1.072  1.0754 -0.5259 -0.8747
 2392TIP3   OH2 7139   3.875   5.075   5.338 -0.5717 -0.5484  0.1274
 2392TIP3    H1 7140   3.806   5.141   5.349 -0.0667  0.1285 -0.6179
 2392TIP3    H2 7141   3.945   5.122   5.293  0.1319 -1.3914  0.3290
 2393TIP3   OH2 7142   4.885   3.066   5.612  0.2559  0.0492 -0.1913
 2393TIP3    H1 7143   4.973   3.074   5.649  0.6258 -0.0663 -1.0288
 2393TIP3    H2 7144   4.856   2.979   5.638 -0.9971  1.2870  2.9988
 2394TIP3   OH2 7145   0.533   0.076   3.826  0.8927  0.4881 -0.4113
 2394TIP3    H1 7146   0.585   0.122   3.760  0.5714  2.2215  0.5090
 2394TIP3    H2 7147   0.513   0.142   3.892 -1.0162 -0.5620  0.1353
 2395TIP3   OH2 7148   1.998   2.168   3.598  0.1384 -0.1365  0.4363
 2395TIP3    H1 7149   2.075   2.112   3.587  0.8152  1.0364 -1.0731
 2395TIP3    H2 7150   1.935   2.135   3.533  0.1449  0.2003  0.2594
 2396TIP3   OH2 7151   3.966   3.277   5.573  0.4121  0.1287 -0.0270
 2396TIP3    H1 7152   3.985   3.207   5.635  0.4326  0.4302  0.3108
 2396TIP3    H2 7153   3.937   3.232   5.494  0.5574 -0.2645  0.1416
 2397TIP3   OH2 7154   0.778   2.667   4.904 -0.4178  0.4688  0.1212
 2397TIP3    H1 7155   0.728   2.679   4.985 -1.1083  0.2904 -0.2657
 2397TIP3    H2 7156   0.794   2.573   4.899  0.5522  0.6005  0.5796
 2398TIP3   OH2 7157   0.818   5.241   0.091 -0.6422 -0.0541  0.1463
 2398TIP3    H1 7158   0.795   5.173   0.027 -0.1204  0.7896 -0.9826
 2398TIP3    H2 7159   0.887   5.202   0.145 -0.4175 -0.4608 -0.4284
 2399TIP3   OH2 7160   0.057   4.426   4.196  0.5501 -0.0754 -0.1965
 2399TIP3    H1 7161   0.013   4.361   4.251 -0.5480  1.2463  0.5496
 2399TIP3    H2 7162   0.111   4.375   4.137  1.1543 -1.5868  1.5881
 2400TIP3   OH2 7163   6.518   6.732   3.509  0.5500  0.5399  0.4489
 2400TIP3    H1 7164   6.528   6.641   3.535  0.3458  0.3020 -0.2737
 2400TIP3    H2 7165   6.424   6.744   3.499  0.5426  0.9643  1.0017
 2401TIP3   OH2 7166   4.332   4.575   5.737 -0.2163  0.2318  0.4500
 2401TIP3    H1 7167   4.290   4.594   5.652 -0.9300  0.3970  0.8321
 2401TIP3    H2 7168   4.276   4.619   5.801  1.1784  1.4632  0.8956
 2402TIP3   OH2 7169   5.721   3.510   3.243  0.0050  0.0202  0.3941
 2402TIP3    H1 7170   5.717   3.444   3.173  1.0020  0.4489 -0.0861
 2402TIP3    H2 7171   5.748   3.590   3.199 -0.4360  0.5677  1.1041
 2403TIP3   OH2 7172   0.459   3.693   2.400 -0.9186 -0.4395 -0.3565
 2403TIP3    H1 7173   0.371   3.657   2.409 -0.7308 -0.9997 -0.7515
 2403TIP3    H2 7174   0.478   3.688   2.306 -0.4969 -0.2416 -0.2863
 2404TIP3   OH2 7175   6.504   4.591   5.300 -0.2774 -0.2653  0.3196
 2404TIP3    H1 7176   6.598   4.600   5.312 -0.0556 -2.1495  0.2596
 2404TIP3    H2 7177   6.495   4.544   5.217 -1.2967  0.4032  0.0321
 2405TIP3   OH2 7178   2.377   5.814   0.025  0.8096  0.0720  0.3653
 2405TIP3    H1 7179   2.390   5.866  -0.055 -0.0487 -0.0657  0.1258
 2405TIP3    H2 7180   2.345   5.877   0.090  0.7861  0.0415  0.3833
 2406TIP3   OH2 7181   1.811   3.491   3.617 -0.4243 -0.3337  0.2181
 2406TIP3    H1 7182   1.815   3.409   3.666  0.0339 -2.4490 -3.0508
 2406TIP3    H2 7183   1.903   3.512   3.598 -0.5884  0.4237  0.2249
 2407TIP3   OH2 7184   4.839   2.967   2.831 -0.1786 -0.2401 -0.2254
 2407TIP3    H1 7185   4.745   2.986   2.833 -0.1408 -0.0724 -0.0917
 2407TIP3    H2 7186   4.868   2.978   2.921  0.0995  0.3439 -0.3823
 2408TIP3   OH2 7187   2.878   3.701   0.313  0.4031  0.0124 -0.9996
 2408TIP3    H1 7188   2.855   3.792   0.294 -0.4553 -0.1742 -0.9025
 2408TIP3    H2 7189   2.966   3.691   0.276  0.4491  0.8334 -1.1500
 2409TIP3   OH2 7190   6.342   3.968   5.839 -0.2300 -0.2584  0.4634
 2409TIP3    H1 7191   6.369   3.877   5.842 -0.0825 -0.2789 -0.7995
 2409TIP3    H2 7192   6.269   3.974   5.900 -1.2487 -1.5935 -0.5645
 2410TIP3   OH2 7193   0.552   5.508   4.435 -0.0295 -0.5165  0.0820
 2410TIP3    H1 7194   0.618   5.568   4.401  0.7001 -1.4982 -0.3102
 2410TIP3    H2 7195   0.470   5.558   4.435  0.5852  0.5006 -0.0881
 2411TIP3   OH2 7196   3.054   3.125   5.513  0.0127  0.0825 -0.5055
 2411TIP3    H1 7197   2.997   3.048   5.505  2.4129 -1.9697  0.8199
 2411TIP3    H2 7198   3.083   3.124   5.604 -0.3745  3.0241 -0.2587
 2412TIP3   OH2 7199   5.799   2.575   1.504 -0.3368  0.1156  0.0442
 2412TIP3    H1 7200   5.874   2.581   1.446 -1.4047  0.1170 -1.4058
 2412TIP3    H2 7201   5.758   2.661   1.501 -1.8898 -0.6129 -1.3583
 2413TIP3   OH2 7202   5.670   3.492   1.013  0.5199  0.0776  0.1800
 2413TIP3    H1 7203   5.703   3.580   0.991 -1.0675  1.4824  2.9357
 2413TIP3    H2 7204   5.695   3.438   0.937  1.1170  2.9754 -1.8763
 2414TIP3   OH2 7205   1.026   6.243   1.431 -0.0894 -0.4022 -0.0094
 2414TIP3    H1 7206   1.014   6.319   1.488  1.5368  0.0616 -0.2088
 2414TIP3    H2 7207   1.122   6.233   1.425 -0.2439 -2.7935  0.4415
 2415TIP3   OH2 7208   5.439   2.902   2.720 -0.2482  0.5198 -0.7638
 2415TIP3    H1 7209   5.450   2.808   2.728 -1.1240  0.5238  0.8168
 2415TIP3    H2 7210   5.345   2.917   2.733 -0.0065  1.6814 -0.1862
 2416TIP3   OH2 7211   3.240   1.954   2.111 -0.2884 -0.5931 -0.1284
 2416TIP3    H1 7212   3.277   1.866   2.119 -0.6451 -0.6740  0.7355
 2416TIP3    H2 7213   3.263   1.982   2.022  1.8864 -0.6175  0.3734
 2417TIP3   OH2 7214   2.259   6.658   2.937 -0.3173 -0.2300  0.1799
 2417TIP3    H1 7215   2.293   6.621   2.855 -2.2789  0.4559 -1.0208
 2417TIP3    H2 7216   2.275   6.752   2.930 -0.8608 -0.1193  0.4071
 2418TIP3   OH2 7217   3.346   3.724   2.962  0.1179 -0.2782  0.1061
 2418TIP3    H1 7218   3.383   3.799   3.008  0.4707  0.3546 -1.1746
 2418TIP3    H2 7219   3.294   3.762   2.891  0.2516 -1.2408 -0.5299
 2419TIP3   OH2 7220   5.989   1.802   4.044 -0.3732  0.1372 -0.6673
 2419TIP3    H1 7221   5.910   1.837   4.003 -0.6059  1.1062  0.5318
 2419TIP3    H2 7222   5.995   1.849   4.128  2.0442  0.8417 -1.1566
 2420TIP3   OH2 7223   6.735   1.791   0.105 -0.1384  0.3943  0.2591
 2420TIP3    H1 7224   6.784   1.719   0.143 -1.5633  0.5142  2.4886
 2420TIP3    H2 7225   6.781   1.870   0.134 -0.7518  0.4588  1.1060
 2421TIP3   OH2 7226   0.124   6.275   2.007  0.0461 -0.5050  0.0292
 2421TIP3    H1 7227   0.074   6.216   2.062 -0.6256 -1.5701 -1.6477
 2421TIP3    H2 7228   0.210   6.280   2.049 -0.1978 -1.8859  0.7434
 2422TIP3   OH2 7229   5.175   3.868   3.444 -0.8794  0.4802 -0.5165
 2422TIP3    H1 7230   5.156   3.819   3.363  1.1402  0.3198 -0.9656
 2422TIP3    H2 7231   5.119   3.945   3.439 -4.4327 -1.8504  0.3832
 2423TIP3   OH2 7232   6.368   6.779   2.341 -0.4153 -0.4480  0.1397
 2423TIP3    H1 7233   6.343   6.751   2.253 -0.8848  2.0037 -0.5902
 2423TIP3    H2 7234   6.285   6.807   2.381  0.1187  0.7309  0.4504
 2424TIP3   OH2 7235   2.733   0.356   5.408 -0.1751  0.5859  0.4829
 2424TIP3    H1 7236   2.820   0.373   5.446  0.5213  2.5794 -1.8246
 2424TIP3    H2 7237   2.675   0.416   5.454 -0.0006  0.5381  0.7709
 2425TIP3   OH2 7238   4.480   5.220   0.710 -0.8588 -0.2246  0.5714
 2425TIP3    H1 7239   4.481   5.271   0.791 -0.0011 -0.4604  0.7149
 2425TIP3    H2 7240   4.407   5.257   0.660  0.2220  1.7175  0.3166
 2426TIP3   OH2 7241   3.663   4.655   5.759 -0.2760  0.2441 -0.0791
 2426TIP3    H1 7242   3.602   4.625   5.691  0.4514  0.8524 -1.0290
 2426TIP3    H2 7243   3.617   4.639   5.841 -1.6465  0.5423 -0.7574
 2427TIP3   OH2 7244   5.228   4.623   1.812 -0.5953  0.2051  0.0992
 2427TIP3    H1 7245   5.213   4.675   1.891 -0.5340  1.3129 -0.5952
 2427TIP3    H2 7246   5.311   4.579   1.828  0.3549  1.8588 -0.0666
 2428TIP3   OH2 7247   0.473   2.506   1.994  0.1287  0.3009 -0.1185
 2428TIP3    H1 7248   0.468   2.584   1.939 -0.4226  0.0359 -0.4477
 2428TIP3    H2 7249   0.407   2.519   2.062  0.6173  0.4995  0.3315
 2429TIP3   OH2 7250   2.151   0.550   0.402  0.1053 -0.0021  0.1604
 2429TIP3    H1 7251   2.237   0.508   0.405 -0.0152 -0.2747 -0.2690
 2429TIP3    H2 7252   2.088   0.479   0.411 -0.0720  0.3041  1.6399
 2430TIP3   OH2 7253   4.732   4.545   1.520  0.3092 -0.0359  0.1826
 2430TIP3    H1 7254   4.807   4.566   1.464 -0.5791  0.4869 -0.8479
 2430TIP3    H2 7255   4.659   4.534   1.460 -1.3033  3.1739  1.2754
 2431TIP3   OH2 7256   5.119   1.246   3.356 -0.2856 -0.4777  0.4266
 2431TIP3    H1 7257   5.116   1.195   3.437 -0.6411 -0.6543  0.3041
 2431TIP3    H2 7258   5.050   1.209   3.302 -4.1845  3.3174  2.1997
 2432TIP3   OH2 7259   6.518   5.654   0.911  0.1780  0.2192 -0.2194
 2432TIP3    H1 7260   6.556   5.709   0.842 -1.0826  0.0733 -1.0749
 2432TIP3    H2 7261   6.427   5.683   0.917 -0.1075 -0.7481  0.3765
 2433TIP3   OH2 7262   1.644   2.657   0.456  0.6211  0.2487 -0.1648
 2433TIP3    H1 7263   1.712   2.679   0.393  0.0873  1.5611 -0.3018
 2433TIP3    H2 7264   1.638   2.733   0.513  1.4905 -1.1105  1.8869
 2434TIP3   OH2 7265   7.095   1.788   2.996 -0.5850 -0.6069  0.0465
 2434TIP3    H1 7266   7.130   1.783   3.085  1.8162 -1.7150 -0.8605
 2434TIP3    H2 7267   7.006   1.756   3.002  0.0288 -2.1066  1.8314
 2435TIP3   OH2 7268   4.076   0.510   2.830 -0.1041  0.1746  0.0368
 2435TIP3    H1 7269   4.013   0.467   2.773 -1.6094  0.6650  1.2636
 2435TIP3    H2 7270   4.148   0.448   2.838 -0.2345 -0.2465 -1.6919
 2436TIP3   OH2 7271   5.549   0.811   0.439  0.6672  0.7254 -0.0428
 2436TIP3    H1 7272   5.506   0.747   0.383  1.6782 -1.0593  1.1405
 2436TIP3    H2 7273   5.635   0.824   0.398  1.8248 -1.3773  1.5367
 2437TIP3   OH2 7274   5.801   1.578   2.568 -0.2086 -0.2172  0.0642
 2437TIP3    H1 7275   5.843   1.651   2.522  0.6604 -1.9124 -2.0398
 2437TIP3    H2 7276   5.862   1.556   2.639  1.2035 -0.9110 -1.2937
 2438TIP3   OH2 7277   6.486   3.930   4.178  0.0238  0.3150 -0.3527
 2438TIP3    H1 7278   6.581   3.919   4.181  0.0938  0.4606 -1.5469
 2438TIP3    H2 7279   6.471   3.986   4.102 -0.9237  1.4597  0.6338
 2439TIP3   OH2 7280   3.902   1.002   5.641  0.2247  0.0290  0.2419
 2439TIP3    H1 7281   3.837   1.071   5.627  0.4057  0.4159  1.2649
 2439TIP3    H2 7282   3.886   0.972   5.731  0.1477 -1.2603 -0.1873
 2440TIP3   OH2 7283   0.629   4.896   5.597  0.1528  0.1547 -0.6433
 2440TIP3    H1 7284   0.588   4.882   5.511 -0.5462 -1.1277 -0.1272
 2440TIP3    H2 7285   0.679   4.816   5.612  0.1249  0.2991  0.2287
 2441TIP3   OH2 7286   1.452   3.307   2.902 -0.2146  0.4627 -0.2932
 2441TIP3    H1 7287   1.450   3.308   2.806 -0.5044  1.5076 -0.2804
 2441TIP3    H2 7288   1.375   3.357   2.928 -0.0176  0.3703  0.4922
 2442TIP3   OH2 7289   3.188   5.329   3.772 -0.3884 -0.1173 -0.1591
 2442TIP3    H1 7290   3.197   5.242   3.809 -0.7827 -0.4078 -0.7286
 2442TIP3    H2 7291   3.191   5.388   3.848  1.4451 -0.4932  0.1093
 2443TIP3   OH2 7292   4.114   4.419   0.377  0.3791 -0.1571 -0.3330
 2443TIP3    H1 7293   4.053   4.488   0.352 -0.3610 -0.7836 -0.3007
 2443TIP3    H2 7294   4.189   4.430   0.318 -1.0390 -1.2029 -2.4401
 2444TIP3   OH2 7295   3.614   4.088   2.402 -0.6365 -0.1079 -0.0634
 2444TIP3    H1 7296   3.665   4.108   2.480 -0.6270  0.1176 -0.1265
 2444TIP3    H2 7297   3.642   4.000   2.376  0.5828  0.4666 -0.7743
 2445TIP3   OH2 7298   4.384   1.347   3.116 -0.1006  0.3923  0.3228
 2445TIP3    H1 7299   4.394   1.256   3.086  2.9439  0.5642  0.4901
 2445TIP3    H2 7300   4.395   1.400   3.037  0.0841  0.6428  0.5148
 2446TIP3   OH2 7301   1.089   1.781   4.356  0.0092  0.5999  0.2288
 2446TIP3    H1 7302   1.096   1.716   4.286 -3.0712 -0.1739  0.5270
 2446TIP3    H2 7303   1.180   1.798   4.382  1.1314 -0.4417 -2.6756
 2447TIP3   OH2 7304   4.376   6.488   0.322  0.3129 -0.0535  0.0795
 2447TIP3    H1 7305   4.330   6.464   0.402 -0.0306 -1.4933 -0.5148
 2447TIP3    H2 7306   4.402   6.404   0.283  2.7027  0.6501 -0.0510
 2448TIP3   OH2 7307   6.865   2.560   3.234  0.3474  0.5815  0.1224
 2448TIP3    H1 7308   6.821   2.510   3.166 -0.8420  2.0845 -0.2772
 2448TIP3    H2 7309   6.949   2.585   3.197 -0.1244  1.0358 -0.6685
 2449TIP3   OH2 7310   4.304   3.959   5.415  0.4892  0.5690  0.0701
 2449TIP3    H1 7311   4.213   3.982   5.393  0.9866  1.7334 -0.8683
 2449TIP3    H2 7312   4.311   3.977   5.509 -0.0642  1.1091  0.0108
 2450TIP3   OH2 7313   4.622   2.572   0.532 -0.5731  0.2477 -0.3338
 2450TIP3    H1 7314   4.692   2.637   0.524 -1.6900  1.3343 -1.9550
 2450TIP3    H2 7315   4.667   2.488   0.531  1.1506  0.8693  4.2027
 2451TIP3   OH2 7316   1.216   2.633   2.179  0.4189 -0.2166  0.5171
 2451TIP3    H1 7317   1.250   2.619   2.268 -1.9233 -2.6168  1.1473
 2451TIP3    H2 7318   1.130   2.672   2.192  0.0614 -0.5495 -0.6926
 2452TIP3   OH2 7319   3.093   6.398   3.013  0.4249  0.1700 -0.2934
 2452TIP3    H1 7320   3.070   6.336   3.081 -0.6062  0.3941 -0.4304
 2452TIP3    H2 7321   3.021   6.461   3.011  0.8986  0.7161 -0.9396
 2453TIP3   OH2 7322   4.409   5.727   3.599 -0.2459  0.5755 -0.0061
 2453TIP3    H1 7323   4.498   5.709   3.569 -0.6084 -3.5152  0.9045
 2453TIP3    H2 7324   4.357   5.728   3.519  0.1643 -0.4639 -0.3051
 2454TIP3   OH2 7325   0.735   0.672   5.059 -0.0961 -0.1470 -0.0409
 2454TIP3    H1 7326   0.725   0.647   5.151 -0.4558 -2.0084 -0.5593
 2454TIP3    H2 7327   0.792   0.605   5.022  1.9796  1.8357 -0.7008
 2455TIP3   OH2 7328   0.965   0.831   0.930  0.3724  0.0810 -0.0405
 2455TIP3    H1 7329   1.053   0.796   0.946 -0.2290 -1.0567  0.9111
 2455TIP3    H2 7330   0.928   0.844   1.017 -0.1131  1.3817 -0.4155
 2456TIP3   OH2 7331   1.633   2.264   3.664 -0.0160  0.5581 -0.0074
 2456TIP3    H1 7332   1.682   2.346   3.653 -1.1850  1.0190 -2.3182
 2456TIP3    H2 7333   1.575   2.260   3.588 -2.3619 -0.8213  1.7295
 2457TIP3   OH2 7334   3.768   3.871   1.524 -0.0992 -0.1053  0.4362
 2457TIP3    H1 7335   3.828   3.862   1.450  0.2141 -1.2506  0.8192
 2457TIP3    H2 7336   3.682   3.881   1.483  0.1546 -0.0233 -0.0903
 2458TIP3   OH2 7337   6.110   5.349   1.828 -0.9051 -0.1544  0.2128
 2458TIP3    H1 7338   6.131   5.439   1.806  0.3043 -0.4061  0.2747
 2458TIP3    H2 7339   6.100   5.348   1.923 -1.6914  0.0494  0.1434
 2459TIP3   OH2 7340   2.264   3.223   2.617  0.1529  0.3075 -0.3420
 2459TIP3    H1 7341   2.299   3.135   2.630  0.5941  0.2637 -1.6582
 2459TIP3    H2 7342   2.335   3.281   2.645 -0.6127  0.2970  1.7793
 2460TIP3   OH2 7343   4.181   2.797   2.533 -0.3867 -0.2525 -0.3136
 2460TIP3    H1 7344   4.101   2.782   2.583 -0.6924 -0.4626 -0.8528
 2460TIP3    H2 7345   4.150   2.819   2.445  0.1009  1.6354 -0.0495
 2461TIP3   OH2 7346   1.284   5.366   4.956 -0.1294 -0.2789 -0.0891
 2461TIP3    H1 7347   1.221   5.315   5.008  0.0358 -1.1333 -0.7234
 2461TIP3    H2 7348   1.264   5.343   4.865 -2.7189  3.7003 -0.8001
 2462TIP3   OH2 7349   4.418   1.412   3.595  0.6321 -0.5090  0.6559
 2462TIP3    H1 7350   4.472   1.490   3.612 -0.7742  0.5429  0.4908
 2462TIP3    H2 7351   4.331   1.436   3.625 -0.6012 -0.7629 -2.3445
 2463TIP3   OH2 7352   1.366   0.904   4.105 -0.6125  0.1373  0.1824
 2463TIP3    H1 7353   1.281   0.895   4.063 -0.7958 -0.9487  0.7545
 2463TIP3    H2 7354   1.377   0.999   4.116 -1.2014  0.3535 -0.9600
 2464TIP3   OH2 7355   5.875   3.779   2.572  0.0866  0.1857 -0.1278
 2464TIP3    H1 7356   5.890   3.692   2.535 -0.1245  0.3975 -0.7154
 2464TIP3    H2 7357   5.803   3.815   2.521 -1.0925 -0.0137  1.3181
 2465TIP3   OH2 7358   6.505   6.279   5.012  0.2330 -0.2281 -0.1432
 2465TIP3    H1 7359   6.597   6.253   5.017  0.2187 -0.0666  1.5944
 2465TIP3    H2 7360   6.505   6.358   4.959  1.0836 -0.3100 -0.2779
 2466TIP3   OH2 7361   1.182   2.800   4.303 -0.3172  0.5274 -0.1080
 2466TIP3    H1 7362   1.243   2.761   4.241  0.3325  0.5906  0.4766
 2466TIP3    H2 7363   1.131   2.726   4.337 -0.4477  0.4517 -0.4611
 2467TIP3   OH2 7364   2.913   6.755   5.327 -0.3062  0.1520  0.0728
 2467TIP3    H1 7365   2.951   6.701   5.258  0.2761  0.5416  0.0859
 2467TIP3    H2 7366   2.857   6.694   5.376 -0.7000 -0.1353 -0.7122
 2468TIP3   OH2 7367   7.098   0.555   3.517 -0.7276 -0.1567 -0.4708
 2468TIP3    H1 7368   7.144   0.634   3.488 -0.0491 -0.7226 -0.9536
 2468TIP3    H2 7369   7.062   0.579   3.602  2.9803 -0.5930  1.4363
 2469TIP3   OH2 7370   0.681   2.072   2.698  0.7194  0.2627  0.0592
 2469TIP3    H1 7371   0.705   1.979   2.692 -1.9418 -0.5844  1.1058
 2469TIP3    H2 7372   0.751   2.111   2.750  2.4721 -0.8650 -1.3219
 2470TIP3   OH2 7373   3.228   1.981   4.253 -0.2893  0.1170 -0.1562
 2470TIP3    H1 7374   3.270   1.895   4.246  2.4618  1.3094  0.2018
 2470TIP3    H2 7375   3.201   2.002   4.163  0.5150 -0.4595 -0.5453
 2471TIP3   OH2 7376   1.295   2.905   4.591  0.3856  0.2285 -0.4316
 2471TIP3    H1 7377   1.251   2.983   4.557 -0.2627  0.0384 -0.0282
 2471TIP3    H2 7378   1.239   2.832   4.565  1.8365 -0.2968 -2.3003
 2472TIP3   OH2 7379   3.703   5.709   5.513 -0.0942 -0.1565 -0.2034
 2472TIP3    H1 7380   3.751   5.792   5.509  0.1670 -0.1871  1.4149
 2472TIP3    H2 7381   3.724   5.674   5.600 -0.8012 -1.5562 -0.5723
 2473TIP3   OH2 7382   2.890  -0.010   3.876  0.2729  0.7650  0.6396
 2473TIP3    H1 7383   2.977  -0.046   3.860 -1.1266 -1.3390 -3.5332
 2473TIP3    H2 7384   2.894   0.078   3.839  0.0347 -0.2680 -2.0262
 2474TIP3   OH2 7385   2.583   0.209   5.228  0.6080 -0.0425  0.1282
 2474TIP3    H1 7386   2.649   0.156   5.183  0.1134 -1.5035  1.0374
 2474TIP3    H2 7387   2.633   0.276   5.274  1.2514  0.3183 -1.0582
 2475TIP3   OH2 7388   2.274   4.044   1.582 -0.0881  0.1916 -0.3596
 2475TIP3    H1 7389   2.203   4.001   1.629  0.6209 -0.1787  0.4024
 2475TIP3    H2 7390   2.304   3.979   1.519  0.1410  0.0280 -0.0850
 2476TIP3   OH2 7391   5.891   1.454   1.763  0.5228  0.0487 -0.1297
 2476TIP3    H1 7392   5.815   1.397   1.776 -0.2064  1.2715  1.3657
 2476TIP3    H2 7393   5.961   1.414   1.813  0.7952 -0.9296 -1.2699
 2477TIP3   OH2 7394   4.032   3.723   3.509  0.0630  0.4167  0.4517
 2477TIP3    H1 7395   4.019   3.817   3.523 -0.0080  0.7007 -1.3236
 2477TIP3    H2 7396   3.946   3.684   3.522  0.0295  0.6174  0.8684
 2478TIP3   OH2 7397   4.687   1.121   2.935  0.6969  0.3323  0.2018
 2478TIP3    H1 7398   4.667   1.083   2.850  0.2106 -0.7117  0.7693
 2478TIP3    H2 7399   4.624   1.081   2.995  2.2726 -0.4414  1.4212
 2479TIP3   OH2 7400   7.070   6.102   5.838 -0.4952 -0.2569  0.1453
 2479TIP3    H1 7401   7.125   6.157   5.782  0.1020 -1.8040 -0.8413
 2479TIP3    H2 7402   7.045   6.160   5.910  2.1159  0.6139  0.4498
 2480TIP3   OH2 7403   2.350   6.511   2.704 -0.1117  0.5266  0.0367
 2480TIP3    H1 7404   2.361   6.417   2.713  0.5217  0.6710  0.8687
 2480TIP3    H2 7405   2.439   6.547   2.708 -0.3013  1.1201 -0.7864
 2481TIP3   OH2 7406   2.920   0.372   2.214  0.2855  0.0314  0.4323
 2481TIP3    H1 7407   2.843   0.375   2.157 -0.1187 -0.8157  0.9211
 2481TIP3    H2 7408   2.928   0.461   2.249  0.1434  0.3876 -0.4106
 2482TIP3   OH2 7409   2.210   3.706   4.128  0.0748 -0.1697 -0.4239
 2482TIP3    H1 7410   2.236   3.712   4.036 -0.3840 -3.3597 -0.8722
 2482TIP3    H2 7411   2.293   3.703   4.176  0.3590 -0.7481 -0.9479
 2483TIP3   OH2 7412   6.778   0.867   1.578  0.1398  0.4388  0.5406
 2483TIP3    H1 7413   6.736   0.809   1.641  2.1411  0.1871  1.7472
 2483TIP3    H2 7414   6.713   0.935   1.561 -1.7314 -1.3449  0.1876
 2484TIP3   OH2 7415   2.379   6.595   1.009 -0.4512  0.6220  0.3369
 2484TIP3    H1 7416   2.461   6.644   1.020  0.5144 -0.6669 -0.7999
 2484TIP3    H2 7417   2.395   6.511   1.052 -1.2673  0.4204  0.2700
 2485TIP3   OH2 7418   0.039   0.812   5.658  0.3750 -0.0469 -0.0013
 2485TIP3    H1 7419   0.018   0.790   5.749  0.0872 -1.4857 -0.4007
 2485TIP3    H2 7420   0.133   0.830   5.658  0.4748 -0.5694  0.4798
 2486TIP3   OH2 7421   0.467   2.624   3.033  0.6404  0.0056  0.0773
 2486TIP3    H1 7422   0.522   2.658   2.961  0.8105 -1.6016 -0.5820
 2486TIP3    H2 7423   0.384   2.601   2.991 -0.4131  1.8557  0.9662
 2487TIP3   OH2 7424   4.794   2.808   5.682 -0.1067  0.5700 -0.1748
 2487TIP3    H1 7425   4.817   2.754   5.606 -0.4767 -0.2074  0.2611
 2487TIP3    H2 7426   4.820   2.756   5.758 -0.8905  0.8046  0.2650
 2488TIP3   OH2 7427   1.902   5.834   1.014 -0.0897  0.0373 -0.5338
 2488TIP3    H1 7428   1.855   5.751   1.001  0.8976 -0.3413 -1.9044
 2488TIP3    H2 7429   1.977   5.811   1.069 -1.1232  0.5308  1.1600
 2489TIP3   OH2 7430   0.992   1.369   0.913  0.1868  0.1498  0.3866
 2489TIP3    H1 7431   0.957   1.281   0.927 -0.2145  0.2388 -0.0582
 2489TIP3    H2 7432   0.915   1.425   0.903  0.4406  0.3778 -0.3830
 2490TIP3   OH2 7433   1.580   0.354   5.001  0.0076  0.0931  0.4547
 2490TIP3    H1 7434   1.499   0.389   5.038 -0.1389  0.0941  0.1300
 2490TIP3    H2 7435   1.552   0.281   4.947  0.2289  0.0660  0.3763
 2491TIP3   OH2 7436   4.497   3.480   4.290 -0.3057  0.2872  0.7060
 2491TIP3    H1 7437   4.411   3.522   4.286  0.4107  1.8237  0.6734
 2491TIP3    H2 7438   4.491   3.405   4.230 -0.7908  1.9904 -1.4911
 2492TIP3   OH2 7439   3.695   0.601   0.137 -0.1724 -0.2955 -0.1554
 2492TIP3    H1 7440   3.698   0.667   0.206  0.6001 -0.8737  0.3926
 2492TIP3    H2 7441   3.654   0.645   0.063 -0.7293  0.4391  0.5663
 2493TIP3   OH2 7442   6.705   6.005   1.015 -0.0844  0.1513 -0.2275
 2493TIP3    H1 7443   6.722   5.926   0.964  2.5061  0.0455  0.6362
 2493TIP3    H2 7444   6.651   6.060   0.958 -0.3393 -1.4282 -1.5901
 2494TIP3   OH2 7445   4.844   5.586   5.070 -0.4914  0.5935  0.0486
 2494TIP3    H1 7446   4.808   5.674   5.084 -4.2063 -0.6118 -0.6905
 2494TIP3    H2 7447   4.868   5.555   5.157  1.3462  2.4393  0.2640
 2495TIP3   OH2 7448   4.505   5.969   4.772 -0.2831  0.1885 -0.1754
 2495TIP3    H1 7449   4.430   5.938   4.722 -0.8570  1.1019  0.1016
 2495TIP3    H2 7450   4.564   5.894   4.776 -1.6752 -0.9199  0.5781
 2496TIP3   OH2 7451   2.020   3.884   3.630 -0.6549  0.3173 -0.0364
 2496TIP3    H1 7452   1.934   3.882   3.588 -0.5441  3.2537 -0.5855
 2496TIP3    H2 7453   2.001   3.899   3.722 -0.7526  1.7860 -0.2789
 2497TIP3   OH2 7454   3.668   2.292   1.040 -0.9434  0.6200 -0.4797
 2497TIP3    H1 7455   3.741   2.263   0.985 -2.2273  1.0672 -2.5311
 2497TIP3    H2 7456   3.663   2.387   1.025 -0.7500  0.9125  1.1729
 2498TIP3   OH2 7457   2.779   3.439   0.375 -0.4968  0.5920 -0.4210
 2498TIP3    H1 7458   2.706   3.448   0.436  0.1744  1.7665  0.2412
 2498TIP3    H2 7459   2.792   3.526   0.339 -0.5231  0.0317 -1.8621
 2499TIP3   OH2 7460   6.316   1.741   2.302 -0.1338  0.0899  0.4841
 2499TIP3    H1 7461   6.258   1.750   2.379 -0.3925 -2.3610  0.6704
 2499TIP3    H2 7462   6.397   1.706   2.338 -0.1236 -0.7160 -0.3015
 2500TIP3   OH2 7463   1.038   3.874   1.276  0.3113  0.1128  1.0972
 2500TIP3    H1 7464   1.040   3.807   1.344 -0.8995 -0.7823  0.2777
 2500TIP3    H2 7465   0.960   3.926   1.295  0.6571  0.6422  1.1065
 2501TIP3   OH2 7466   4.946   6.416   1.539  0.0846  0.2317  0.3675
 2501TIP3    H1 7467   4.929   6.474   1.465  1.6385 -0.5795 -0.6708
 2501TIP3    H2 7468   4.922   6.329   1.507  0.8810 -0.1419  0.7741
 2502TIP3   OH2 7469   2.018   6.462   1.734 -0.3766 -0.0292  0.5571
 2502TIP3    H1 7470   2.111   6.456   1.715 -0.3605  2.7754 -0.9064
 2502TIP3    H2 7471   1.975   6.426   1.656 -0.4309  1.1567  0.0098
 2503TIP3   OH2 7472   5.477   3.714   5.066 -0.1567  0.3366 -0.1776
 2503TIP3    H1 7473   5.558   3.750   5.101  1.6561 -1.5771 -2.0749
 2503TIP3    H2 7474   5.488   3.718   4.971 -1.3212 -1.9195 -0.4835
 2504TIP3   OH2 7475   5.463   3.368   4.175 -0.6743 -0.3214 -0.2762
 2504TIP3    H1 7476   5.419   3.446   4.210  0.8413 -0.1749  1.4486
 2504TIP3    H2 7477   5.512   3.399   4.099  1.5983  0.9649  1.5787
 2505TIP3   OH2 7478   4.480   0.676   3.698  0.4635 -0.3263  0.5310
 2505TIP3    H1 7479   4.475   0.681   3.603  1.2950 -2.0899  0.3510
 2505TIP3    H2 7480   4.398   0.635   3.725 -1.5945  3.5879  1.0372
 2506TIP3   OH2 7481   4.352   0.971   0.792 -0.1500 -0.6333 -0.4806
 2506TIP3    H1 7482   4.358   0.978   0.696  0.4219  0.0757 -0.3991
 2506TIP3    H2 7483   4.259   0.980   0.811 -0.7422 -3.8139 -1.1827
 2507TIP3   OH2 7484   2.996   2.793   2.878 -0.3956 -0.3920 -0.6310
 2507TIP3    H1 7485   3.052   2.768   2.952  0.1368  0.1647 -0.8426
 2507TIP3    H2 7486   2.909   2.760   2.902 -0.3681  0.3286  0.5299
 2508TIP3   OH2 7487   6.709   4.277   0.874 -0.0199 -0.0255  0.4828
 2508TIP3    H1 7488   6.630   4.225   0.886 -0.5721  1.1564  2.3761
 2508TIP3    H2 7489   6.743   4.291   0.963  0.5273  2.1394  0.0009
 2509TIP3   OH2 7490   5.174   5.447   1.246 -0.4887 -0.3389 -0.6522
 2509TIP3    H1 7491   5.258   5.427   1.205  0.4306 -0.3707  1.1667
 2509TIP3    H2 7492   5.193   5.520   1.305 -2.4006  1.6966 -2.3356
 2510TIP3   OH2 7493   4.577   2.510   4.814 -0.6889  0.2754  0.1714
 2510TIP3    H1 7494   4.515   2.449   4.773  1.0017 -1.4096 -0.0534
 2510TIP3    H2 7495   4.590   2.474   4.902  0.6345  0.0354 -0.1012
 2511TIP3   OH2 7496   5.034   1.036   1.650 -0.2612  0.4471  0.3379
 2511TIP3    H1 7497   5.045   0.963   1.712 -0.8988  0.8956  1.0007
 2511TIP3    H2 7498   5.019   1.112   1.706 -0.5920  0.9134 -0.3746
 2512TIP3   OH2 7499   5.992   4.769   2.227  0.0859  0.0249 -0.0911
 2512TIP3    H1 7500   5.952   4.718   2.156 -0.8100 -0.2061  0.5532
 2512TIP3    H2 7501   5.918   4.788   2.286  0.7761  0.3880  0.6678
 2513TIP3   OH2 7502   4.292   2.595   5.415 -0.3227  0.3844 -0.2830
 2513TIP3    H1 7503   4.197   2.595   5.400 -0.3697  2.5602 -0.3003
 2513TIP3    H2 7504   4.321   2.680   5.383  1.2032  0.9285  2.2931
 2514TIP3   OH2 7505   5.429   5.020   2.214 -0.4378 -0.1134 -0.1396
 2514TIP3    H1 7506   5.493   5.029   2.144 -1.7358 -0.9507 -1.4900
 2514TIP3    H2 7507   5.347   5.051   2.176 -1.0969 -0.1965  1.1524
 2515TIP3   OH2 7508   1.054   0.589   1.128 -0.4937  0.1662  0.2741
 2515TIP3    H1 7509   1.000   0.615   1.203  0.1673 -0.7020  1.0668
 2515TIP3    H2 7510   1.108   0.517   1.161 -1.7668 -1.7792 -1.6348
 2516TIP3   OH2 7511   2.675   3.313   3.780 -0.0186 -0.5551  0.3707
 2516TIP3    H1 7512   2.750   3.370   3.766  0.7173 -1.2210  1.4284
 2516TIP3    H2 7513   2.637   3.344   3.862 -0.3574 -0.7954  0.3056
 2517TIP3   OH2 7514   0.957   5.615   2.714 -0.6409  0.2290  0.0967
 2517TIP3    H1 7515   1.031   5.633   2.657 -0.8861 -0.1503 -0.3578
 2517TIP3    H2 7516   0.973   5.666   2.793 -1.3223  2.4487 -1.1061
 2518TIP3   OH2 7517   3.018   6.099   5.442  0.4403  0.0466  0.0364
 2518TIP3    H1 7518   3.043   6.078   5.352 -0.5206 -0.6898 -0.0757
 2518TIP3    H2 7519   2.947   6.037   5.462 -1.7947  2.4673  0.0968
 2519TIP3   OH2 7520   3.933   6.669   0.341  0.7224 -0.4300  0.0559
 2519TIP3    H1 7521   3.936   6.764   0.356  0.0600 -0.2016 -1.0912
 2519TIP3    H2 7522   3.875   6.636   0.409  0.9393 -0.0043  0.4503
 2520TIP3   OH2 7523   3.651   6.368   4.697  0.0470  0.1890 -0.4510
 2520TIP3    H1 7524   3.696   6.453   4.702  1.3144 -0.5158  0.6127
 2520TIP3    H2 7525   3.571   6.381   4.749  0.8638  0.3823  0.8084
 2521TIP3   OH2 7526   5.033   2.915   3.464 -0.1970 -0.4855  0.9859
 2521TIP3    H1 7527   5.039   2.896   3.370  1.0342 -0.7683  1.1043
 2521TIP3    H2 7528   4.939   2.914   3.483 -0.5047  0.2660 -0.3782
 2522TIP3   OH2 7529   4.478   6.105   3.637  0.5156 -0.3611  0.0031
 2522TIP3    H1 7530   4.430   6.033   3.596 -0.7939  0.0837  0.6884
 2522TIP3    H2 7531   4.440   6.184   3.599  1.2845 -0.0119 -0.0507
 2523TIP3   OH2 7532   6.383   6.477   5.726 -0.0310 -0.1881 -0.7791
 2523TIP3    H1 7533   6.448   6.444   5.665 -0.0674  0.7860 -1.3662
 2523TIP3    H2 7534   6.418   6.455   5.813  1.0351  0.2212 -1.0883
 2524TIP3   OH2 7535   5.047   3.579   2.496 -0.3429  0.1704  0.3839
 2524TIP3    H1 7536   4.970   3.631   2.474 -0.9014 -1.0569 -0.6783
 2524TIP3    H2 7537   5.031   3.547   2.584 -0.8078  0.3450  0.3654
 2525TIP3   OH2 7538   2.145   4.357   5.056  0.0210  0.4714  0.6512
 2525TIP3    H1 7539   2.100   4.279   5.088 -1.5169  0.9081 -0.3317
 2525TIP3    H2 7540   2.104   4.429   5.103  0.7564  0.7696  0.8387
 2526TIP3   OH2 7541   5.361   1.284   1.968  0.4240  0.1597  0.3791
 2526TIP3    H1 7542   5.286   1.288   2.027  0.4874  2.3069  0.4055
 2526TIP3    H2 7543   5.323   1.277   1.880  0.1609  1.4548  0.3770
 2527TIP3   OH2 7544   3.088   6.367   2.280  0.2492  0.5034  0.5763
 2527TIP3    H1 7545   3.047   6.292   2.237  0.7003 -0.0100  1.0247
 2527TIP3    H2 7546   3.129   6.330   2.358  2.8816  0.6966 -0.6210
 2528TIP3   OH2 7547   3.790   1.475   4.555  0.2138 -0.1246 -0.0651
 2528TIP3    H1 7548   3.766   1.529   4.631 -1.5138  0.3661 -0.9081
 2528TIP3    H2 7549   3.735   1.397   4.562  1.2821 -0.8828  0.0842
 2529TIP3   OH2 7550   4.731   3.558   2.044 -0.1112 -0.1876 -0.4876
 2529TIP3    H1 7551   4.655   3.615   2.036  0.3765  0.2486 -2.3763
 2529TIP3    H2 7552   4.695   3.469   2.048 -0.7703  0.1033  0.5138
 2530TIP3   OH2 7553   6.616   1.525   1.598 -0.2639 -0.3178 -0.0228
 2530TIP3    H1 7554   6.707   1.507   1.572 -0.0742  2.4907 -1.7743
 2530TIP3    H2 7555   6.582   1.441   1.628  2.6168 -1.6684 -0.2435
 2531TIP3   OH2 7556   4.738   6.164   0.137  0.2136  0.2417 -0.2214
 2531TIP3    H1 7557   4.779   6.079   0.126  1.6641  0.9061 -0.1215
 2531TIP3    H2 7558   4.801   6.215   0.188 -0.5807  1.4106 -0.3676
 2532TIP3   OH2 7559   2.021   5.270   1.376 -0.0447 -0.5736  0.1538
 2532TIP3    H1 7560   2.108   5.236   1.357  0.0447 -1.0457  1.3323
 2532TIP3    H2 7561   2.028   5.311   1.462 -0.9995 -0.6955  0.3090
 2533TIP3   OH2 7562   1.256   1.171   1.108 -0.4004  0.1756  0.5504
 2533TIP3    H1 7563   1.241   1.158   1.014  0.0965 -0.5493  0.5624
 2533TIP3    H2 7564   1.269   1.082   1.143 -0.0749  0.4751  1.2149
 2534TIP3   OH2 7565   4.288   3.467   1.200 -0.7472  0.8207 -0.0554
 2534TIP3    H1 7566   4.219   3.506   1.254 -0.0876  3.2697 -0.8998
 2534TIP3    H2 7567   4.323   3.539   1.149  0.4704 -0.9223 -1.8326
 2535TIP3   OH2 7568   4.585   5.755   5.624  0.4296  0.4160  0.3922
 2535TIP3    H1 7569   4.501   5.797   5.606  0.5106 -0.2233 -1.7732
 2535TIP3    H2 7570   4.646   5.796   5.563  1.3649 -0.1799  0.8976
 2536TIP3   OH2 7571   2.305   5.781   5.048  0.0684  0.2804  0.1106
 2536TIP3    H1 7572   2.260   5.709   5.004 -0.9824  1.2724 -0.4909
 2536TIP3    H2 7573   2.236   5.825   5.099  0.4630  1.4423 -0.3242
 2537TIP3   OH2 7574   1.280   0.844   3.116  0.0140  0.5421  0.1271
 2537TIP3    H1 7575   1.269   0.852   3.022 -0.3249  0.5783  0.1694
 2537TIP3    H2 7576   1.371   0.816   3.127  0.0449  0.5050 -0.2110
 2538TIP3   OH2 7577   7.016  -0.028   2.270 -0.5350 -0.0042 -0.2536
 2538TIP3    H1 7578   7.058  -0.007   2.186  1.7913  1.4602  1.1429
 2538TIP3    H2 7579   6.974   0.054   2.296  2.1170  0.8734  1.7296
 2539TIP3   OH2 7580   4.373   4.264   4.125  0.3012  0.4501 -0.0514
 2539TIP3    H1 7581   4.432   4.337   4.144 -0.4351  0.9797  0.2563
 2539TIP3    H2 7582   4.426   4.185   4.142  1.2848  0.8885 -0.9441
 2540TIP3   OH2 7583   2.329   5.937   0.566  0.8659 -0.0559 -0.4154
 2540TIP3    H1 7584   2.309   6.031   0.561  2.9839  0.5353  0.7291
 2540TIP3    H2 7585   2.425   5.934   0.569  0.8362 -2.2775 -0.4811
 2541TIP3   OH2 7586   5.032   1.141   5.699  0.9231  0.3420  0.0776
 2541TIP3    H1 7587   5.015   1.125   5.791  0.2855  0.7721  0.0443
 2541TIP3    H2 7588   4.954   1.188   5.668  0.5128 -0.9800 -0.9951
 2542TIP3   OH2 7589   6.819   4.592   4.971  0.4828  0.4010 -0.0109
 2542TIP3    H1 7590   6.750   4.654   4.993 -1.3558 -1.4473 -0.2074
 2542TIP3    H2 7591   6.836   4.545   5.053 -0.3188 -0.8249 -0.5281
 2543TIP3   OH2 7592   2.279   2.553   3.321 -0.4370 -0.0769  0.7597
 2543TIP3    H1 7593   2.259   2.460   3.329  0.6636 -0.4612 -0.4929
 2543TIP3    H2 7594   2.204   2.591   3.276 -0.5093 -0.5329  0.4930
 2544TIP3   OH2 7595   6.879   6.660   1.827  0.1198  0.4355 -0.7589
 2544TIP3    H1 7596   6.832   6.687   1.749 -1.8948  2.5761  1.0426
 2544TIP3    H2 7597   6.968   6.693   1.815 -0.2506  1.0282 -1.9775
 2545TIP3   OH2 7598   6.869   5.340   1.219 -0.0725 -0.0525  0.9188
 2545TIP3    H1 7599   6.822   5.268   1.176 -0.4798  1.3894 -1.2059
 2545TIP3    H2 7600   6.883   5.310   1.308 -4.0772 -1.0772  1.3911
 2546TIP3   OH2 7601   2.782   6.512   4.646  0.7399 -0.0303  0.4656
 2546TIP3    H1 7602   2.873   6.517   4.675  1.0374  0.5772 -0.5296
 2546TIP3    H2 7603   2.777   6.572   4.571 -0.6705  0.5390  0.9852
 2547TIP3   OH2 7604   1.755   3.889   2.531  0.3920  0.7887  0.3016
 2547TIP3    H1 7605   1.845   3.896   2.497  0.5109 -0.0484  0.4445
 2547TIP3    H2 7606   1.765   3.878   2.625  0.1773 -0.2975  0.2040
 2548TIP3   OH2 7607   2.500   5.771   5.821  0.6187  0.0967 -0.3415
 2548TIP3    H1 7608   2.443   5.743   5.750 -1.2163  0.4415  0.9293
 2548TIP3    H2 7609   2.585   5.733   5.799  0.0153 -0.1555 -2.4733
 2549TIP3   OH2 7610   7.043   5.257   1.932  1.0971  0.0322  0.7859
 2549TIP3    H1 7611   7.095   5.329   1.897  1.5954 -0.3769  0.6714
 2549TIP3    H2 7612   7.039   5.274   2.026 -0.0294  0.9939  0.5787
 2550TIP3   OH2 7613   3.254   0.156   1.476 -0.4623 -0.3909 -0.3623
 2550TIP3    H1 7614   3.229   0.064   1.465  0.1109 -0.4976 -0.7765
 2550TIP3    H2 7615   3.301   0.178   1.396 -0.7421  0.3144 -0.3376
 2551TIP3   OH2 7616   4.681   4.813   2.149  0.1376 -0.3584 -0.1349
 2551TIP3    H1 7617   4.718   4.768   2.225 -0.3963  0.1142  0.4200
 2551TIP3    H2 7618   4.680   4.747   2.080  1.1722 -0.6304  0.0935
 2552TIP3   OH2 7619   1.190   0.984   1.520 -0.0816 -0.2375 -0.7553
 2552TIP3    H1 7620   1.145   0.905   1.549 -0.6993  0.1796 -0.5528
 2552TIP3    H2 7621   1.179   1.046   1.592  2.4750 -0.7125  0.1637
 2553TIP3   OH2 7622   1.088   3.159   2.005  0.3225 -0.3311 -0.4865
 2553TIP3    H1 7623   1.122   3.140   2.092  0.7699 -1.6709 -0.9246
 2553TIP3    H2 7624   1.084   3.074   1.961 -2.6633 -0.1432 -0.8253
 2554TIP3   OH2 7625   3.086   3.263   0.931  0.4123 -0.1683  0.5094
 2554TIP3    H1 7626   3.005   3.268   0.881  0.3677  1.2869  0.6955
 2554TIP3    H2 7627   3.139   3.335   0.898  0.4928  0.6687  2.3501
 2555TIP3   OH2 7628   0.611   2.159   1.008 -0.1335  0.5454  0.2435
 2555TIP3    H1 7629   0.648   2.219   1.073  0.8299  1.0321 -0.7146
 2555TIP3    H2 7630   0.669   2.167   0.932 -0.0402 -1.5147  0.0319
 2556TIP3   OH2 7631   5.051   2.268   0.948  0.2713 -0.1566  0.1262
 2556TIP3    H1 7632   4.980   2.243   1.007 -0.7967  1.2501 -0.4901
 2556TIP3    H2 7633   5.088   2.347   0.987  0.7612 -0.2531 -0.1363
 2557TIP3   OH2 7634   6.889   0.222   0.548 -0.2342  0.3116  0.4752
 2557TIP3    H1 7635   6.857   0.309   0.572 -1.1644 -0.1060  0.8001
 2557TIP3    H2 7636   6.979   0.220   0.579  1.0621  2.4243 -2.6304
 2558TIP3   OH2 7637   0.407   6.056   5.192  0.2061 -0.6965  0.1565
 2558TIP3    H1 7638   0.443   6.119   5.130  0.7014 -1.4561 -0.3480
 2558TIP3    H2 7639   0.448   5.973   5.168  0.9775 -0.8821  1.9719
 2559TIP3   OH2 7640   6.617   2.322   5.165  0.1934 -0.0618  0.0594
 2559TIP3    H1 7641   6.676   2.262   5.211 -0.4172  0.2969  1.3773
 2559TIP3    H2 7642   6.540   2.328   5.222  0.6736  2.8091  0.5646
 2560TIP3   OH2 7643   2.394   4.551   5.611 -0.7939 -0.1024  0.4912
 2560TIP3    H1 7644   2.352   4.541   5.526 -0.9710  1.8301  0.2947
 2560TIP3    H2 7645   2.369   4.473   5.661 -2.0261 -0.4798 -0.6690
 2561TIP3   OH2 7646   0.347   4.351   0.767  0.3117 -0.0919  0.0101
 2561TIP3    H1 7647   0.284   4.421   0.782 -0.7725 -0.9380 -0.5046
 2561TIP3    H2 7648   0.417   4.392   0.716  0.3877  0.9534  0.9176
 2562TIP3   OH2 7649   2.426   0.753   1.294  0.0196 -0.1231 -0.4530
 2562TIP3    H1 7650   2.365   0.820   1.266 -1.2672 -0.4906  1.3294
 2562TIP3    H2 7651   2.420   0.685   1.226  0.5212  1.0204 -1.6918
 2563TIP3   OH2 7652   1.428   1.514   2.557  0.8340 -0.7037  0.1257
 2563TIP3    H1 7653   1.512   1.526   2.601  1.4199 -1.2009 -0.8402
 2563TIP3    H2 7654   1.448   1.522   2.464 -0.2815 -0.3053 -0.0947
 2564TIP3   OH2 7655   1.128   5.659   4.534 -0.5988 -0.0190 -0.9586
 2564TIP3    H1 7656   1.093   5.661   4.444  0.6953  1.4759 -1.4756
 2564TIP3    H2 7657   1.217   5.626   4.525  0.4614  2.4893 -0.6557
 2565TIP3   OH2 7658   6.139   1.267   0.380 -0.6383  0.0474 -0.3851
 2565TIP3    H1 7659   6.057   1.251   0.333 -1.5011 -0.2225  1.1602
 2565TIP3    H2 7660   6.146   1.362   0.385 -1.0702  0.0661 -0.1588
 2566TIP3   OH2 7661   2.202   5.348   5.544 -0.4789 -0.8080  0.1777
 2566TIP3    H1 7662   2.261   5.359   5.618 -0.2060 -0.8050 -0.0384
 2566TIP3    H2 7663   2.117   5.376   5.577  0.1375  1.9899 -0.2972
 2567TIP3   OH2 7664   5.992   5.528   2.577  1.1312 -0.3005 -0.0720
 2567TIP3    H1 7665   6.005   5.595   2.509  0.2211 -2.0748 -2.1231
 2567TIP3    H2 7666   5.988   5.446   2.528 -0.4726 -1.5959  2.0733
 2568TIP3   OH2 7667   1.862   0.595   3.179  0.0134  0.0255 -0.0169
 2568TIP3    H1 7668   1.803   0.579   3.105 -0.3543 -2.4918  0.7136
 2568TIP3    H2 7669   1.807   0.636   3.246 -0.6895 -1.2669  0.2402
 2569TIP3   OH2 7670   6.969   5.780   5.761 -0.1142  0.5448  0.0319
 2569TIP3    H1 7671   6.935   5.862   5.724  0.3185  1.3056  1.2502
 2569TIP3    H2 7672   7.058   5.774   5.726 -0.8335 -0.4999 -1.7017
 2570TIP3   OH2 7673   2.342   0.319   2.446  0.0192 -0.1210  0.2003
 2570TIP3    H1 7674   2.290   0.383   2.494  0.1726  0.5105 -0.4639
 2570TIP3    H2 7675   2.432   0.350   2.454  0.1672 -0.5931  0.3948
 2571TIP3   OH2 7676   2.956   5.834   2.097 -0.0281  0.8555  0.2767
 2571TIP3    H1 7677   2.868   5.853   2.062 -0.1615  1.2118  0.7879
 2571TIP3    H2 7678   2.953   5.741   2.120 -0.0231  0.6793 -0.4041
 2572TIP3   OH2 7679   6.197   4.928   2.299  0.4224 -0.6600  0.4383
 2572TIP3    H1 7680   6.281   4.884   2.287  0.4561 -0.6321  0.5744
 2572TIP3    H2 7681   6.136   4.879   2.243  0.9586  0.5865 -1.3295
 2573TIP3   OH2 7682   6.589   0.050   5.252  0.0477 -0.1974 -0.0431
 2573TIP3    H1 7683   6.516   0.100   5.215  0.2042  0.1839  0.1645
 2573TIP3    H2 7684   6.548  -0.030   5.285 -0.0040 -0.8635 -1.6364
 2574TIP3   OH2 7685   6.880   3.988   1.420  0.1038 -0.1772  0.2941
 2574TIP3    H1 7686   6.813   3.965   1.356  0.0904 -0.7289  0.5037
 2574TIP3    H2 7687   6.916   4.071   1.388  0.4593 -0.7030 -0.7129
 2575TIP3   OH2 7688   6.550   6.203   1.602 -0.1745 -0.2777  0.6428
 2575TIP3    H1 7689   6.556   6.155   1.685  0.6228 -1.1293  0.1114
 2575TIP3    H2 7690   6.628   6.259   1.601 -1.0344  0.9736  1.2008
 2576TIP3   OH2 7691   5.920   5.789   4.414 -0.0159  0.4174  0.2636
 2576TIP3    H1 7692   5.943   5.706   4.456 -0.0418 -0.8983 -2.1282
 2576TIP3    H2 7693   5.997   5.844   4.427 -0.0307  0.0761  1.9626
 2577TIP3   OH2 7694   6.250   6.264   0.297 -0.1570 -0.1397 -0.1140
 2577TIP3    H1 7695   6.179   6.214   0.338 -1.1156 -0.1531 -1.6958
 2577TIP3    H2 7696   6.212   6.350   0.279  0.4488  0.0745 -0.4001
 2578TIP3   OH2 7697   1.174   0.780   2.883 -0.5912  0.1594 -0.1245
 2578TIP3    H1 7698   1.115   0.854   2.870 -0.8504 -0.0100  0.0751
 2578TIP3    H2 7699   1.196   0.751   2.795  0.3579  1.1340 -0.2282
 2579TIP3   OH2 7700   4.425   1.212   1.819 -0.5332 -0.2576 -0.5200
 2579TIP3    H1 7701   4.410   1.306   1.818  1.2477  0.0625 -0.6443
 2579TIP3    H2 7702   4.496   1.200   1.882 -0.9968 -1.5644 -0.2236
 2580TIP3   OH2 7703   3.099   3.686   1.250  0.1916 -0.3300  0.1082
 2580TIP3    H1 7704   3.169   3.749   1.237  0.5867 -0.9809 -1.0455
 2580TIP3    H2 7705   3.121   3.643   1.333 -0.4455  1.4584  1.2599
 2581TIP3   OH2 7706   4.124   3.073   3.854  0.1361 -0.0034  0.3514
 2581TIP3    H1 7707   4.192   3.014   3.823  1.6267  1.4727  0.6445
 2581TIP3    H2 7708   4.094   3.119   3.775 -1.2006 -1.2807  0.0849
 2582TIP3   OH2 7709   1.657   5.349   2.601 -0.0739 -0.0704 -0.2015
 2582TIP3    H1 7710   1.608   5.430   2.589  1.1236  0.4902 -1.5056
 2582TIP3    H2 7711   1.677   5.319   2.512 -0.4043 -1.7580  0.2567
 2583TIP3   OH2 7712   4.242   5.862   1.722  0.0600 -0.2477  0.3561
 2583TIP3    H1 7713   4.180   5.838   1.791 -0.4826  0.0838 -0.0148
 2583TIP3    H2 7714   4.238   5.958   1.718  0.5427 -0.2272  0.2773
 2584TIP3   OH2 7715   1.439   1.373   3.443  0.0804 -0.7780  0.3154
 2584TIP3    H1 7716   1.425   1.434   3.371 -1.0745  0.9777  1.9102
 2584TIP3    H2 7717   1.511   1.411   3.494 -1.2907 -0.1186  1.8710
 2585TIP3   OH2 7718   5.817   6.525   0.373  0.0087 -0.5912 -0.1525
 2585TIP3    H1 7719   5.792   6.616   0.356 -1.4011 -0.5977  1.5782
 2585TIP3    H2 7720   5.829   6.487   0.286 -0.1970  1.0246 -0.9257
 2586TIP3   OH2 7721   3.160   4.572   2.264 -0.3199 -0.1915  0.5041
 2586TIP3    H1 7722   3.101   4.518   2.210 -1.6591  1.3655  0.3232
 2586TIP3    H2 7723   3.220   4.612   2.201 -1.0981  0.6561  0.2711
 2587TIP3   OH2 7724   6.886   3.505   4.474  0.7297 -0.2246  0.1086
 2587TIP3    H1 7725   6.823   3.567   4.510 -0.5360 -1.1662 -0.4380
 2587TIP3    H2 7726   6.834   3.444   4.422  2.0377 -1.2605 -0.0521
 2588TIP3   OH2 7727   7.138   6.639   4.577  0.2190  0.3993  0.4418
 2588TIP3    H1 7728   7.074   6.570   4.559 -0.1602  0.8761 -0.0577
 2588TIP3    H2 7729   7.172   6.618   4.664  0.7019 -0.8840 -0.0326
 2589TIP3   OH2 7730   6.177   5.357   4.410 -0.4682 -0.5194  0.5518
 2589TIP3    H1 7731   6.133   5.272   4.400  0.8299 -1.2155  0.5598
 2589TIP3    H2 7732   6.235   5.362   4.334  0.2459 -0.1298  1.1121
 2590TIP3   OH2 7733   6.198   3.942   2.481  0.3955 -0.2082  0.2082
 2590TIP3    H1 7734   6.210   3.933   2.387  1.4114 -0.3852  0.3457
 2590TIP3    H2 7735   6.155   4.027   2.492 -0.1057 -0.3733 -0.4346
 2591TIP3   OH2 7736   4.002   4.828   1.695 -0.6585 -0.5746  0.0855
 2591TIP3    H1 7737   3.934   4.893   1.713  0.6802  1.1693 -0.7989
 2591TIP3    H2 7738   4.032   4.849   1.607  1.7303 -0.5626  0.8229
 2592TIP3   OH2 7739   7.060   6.090   4.758  0.4669  1.1585 -0.0293
 2592TIP3    H1 7740   7.051   6.069   4.665  1.4913 -1.1691  0.3271
 2592TIP3    H2 7741   7.084   6.007   4.799  1.1751  2.3649  2.1536
 2593TIP3   OH2 7742   2.389   4.893   3.692  0.1929 -0.4313  0.3591
 2593TIP3    H1 7743   2.470   4.891   3.641 -0.2832  0.3692 -0.4595
 2593TIP3    H2 7744   2.368   4.801   3.708  1.9702 -0.6409  1.7556
 2594TIP3   OH2 7745   1.495   4.843   1.713  0.0606  0.2585  0.2605
 2594TIP3    H1 7746   1.412   4.890   1.722  1.2288  2.7036 -0.6179
 2594TIP3    H2 7747   1.483   4.788   1.636 -1.1957 -0.5382  0.9927
 2595TIP3   OH2 7748   2.939   1.969   4.191  0.1107 -0.1378  0.3879
 2595TIP3    H1 7749   2.914   2.043   4.135 -1.9748 -0.3544  0.9555
 2595TIP3    H2 7750   3.031   1.985   4.212  0.2334  1.2741 -1.0476
 2596TIP3   OH2 7751   2.572   3.990   1.411 -0.2450 -0.4760 -0.6418
 2596TIP3    H1 7752   2.658   3.953   1.391  1.8672  3.2933  0.5474
 2596TIP3    H2 7753   2.572   4.075   1.366 -3.2219 -0.1900 -0.2783
 2597TIP3   OH2 7754   7.220   4.569   1.723  0.3833  0.0547  0.3622
 2597TIP3    H1 7755   7.279   4.644   1.711 -0.0269  0.3313  0.0145
 2597TIP3    H2 7756   7.137   4.609   1.751 -0.1429 -0.1641 -0.8091
 2598TIP3   OH2 7757   2.391   2.941   1.809 -0.6674  0.3212 -0.6514
 2598TIP3    H1 7758   2.332   2.867   1.826 -0.4425 -0.0037 -1.2339
 2598TIP3    H2 7759   2.423   2.967   1.896 -2.1435  0.9205 -0.2645
 2599TIP3   OH2 7760   6.363   0.707   5.463  0.5082  0.4081  0.5032
 2599TIP3    H1 7761   6.453   0.693   5.434  0.0891  0.9342 -1.2176
 2599TIP3    H2 7762   6.341   0.794   5.429 -1.2506 -0.4854 -0.8386
 2600TIP3   OH2 7763   3.480   6.176   4.020 -0.5753 -0.5385 -0.3101
 2600TIP3    H1 7764   3.557   6.133   4.057 -1.0325 -1.0227  0.0989
 2600TIP3    H2 7765   3.515   6.237   3.956  0.2846  0.8803  1.4498
 2601TIP3   OH2 7766   2.789   4.739   3.509  0.8850 -0.2800 -0.0165
 2601TIP3    H1 7767   2.809   4.759   3.418  0.8710 -0.2198 -0.0066
 2601TIP3    H2 7768   2.806   4.645   3.518  0.3833 -0.3938 -0.2136
 2602TIP3   OH2 7769   6.589   3.660   2.154  0.0807 -0.1425  0.0393
 2602TIP3    H1 7770   6.583   3.756   2.154  1.0779 -0.0358  1.8654
 2602TIP3    H2 7771   6.498   3.631   2.157 -0.2242  0.7530 -0.1361
 2603TIP3   OH2 7772   3.683   5.503   1.025  0.6645 -0.0636  0.3125
 2603TIP3    H1 7773   3.636   5.420   1.034  0.1290  0.1519 -0.3999
 2603TIP3    H2 7774   3.638   5.563   1.086  1.5122 -0.4752  1.3726
 2604TIP3   OH2 7775   2.210   0.460   4.392  0.0677  0.1107  0.1821
 2604TIP3    H1 7776   2.203   0.429   4.482 -1.4485 -0.6776 -0.1747
 2604TIP3    H2 7777   2.302   0.485   4.382  0.1586  0.6542  2.0693
 2605TIP3   OH2 7778   4.163   0.378   2.553 -0.3246  0.3106 -0.0516
 2605TIP3    H1 7779   4.071   0.358   2.573  0.0518  0.3022  1.7511
 2605TIP3    H2 7780   4.180   0.331   2.471 -1.1724 -1.8861  0.9721
 2606TIP3   OH2 7781   5.169   4.617   1.200 -0.4038  0.2588  0.3689
 2606TIP3    H1 7782   5.154   4.707   1.227 -3.5636 -0.3239  0.9647
 2606TIP3    H2 7783   5.256   4.595   1.234  1.4594  3.6357 -1.6527
 2607TIP3   OH2 7784   0.161   6.695   3.442 -0.2650 -0.1571  0.1185
 2607TIP3    H1 7785   0.256   6.700   3.430  0.0042  0.7222  2.1306
 2607TIP3    H2 7786   0.146   6.606   3.474 -0.3602 -0.8433 -1.7648
 2608TIP3   OH2 7787   3.170   6.557   3.447  0.1117 -0.3664 -0.0903
 2608TIP3    H1 7788   3.216   6.611   3.382 -0.9143  0.7259  0.0721
 2608TIP3    H2 7789   3.166   6.612   3.525 -1.1009 -0.6090  0.0263
 2609TIP3   OH2 7790   2.725   5.187   2.596  0.7772 -0.2156  0.3147
 2609TIP3    H1 7791   2.795   5.242   2.633  0.7181 -0.0102  0.1242
 2609TIP3    H2 7792   2.716   5.115   2.659  1.9524 -0.8703 -0.2340
 2610TIP3   OH2 7793   3.374   1.752   4.699  0.1621 -0.1535  0.0685
 2610TIP3    H1 7794   3.341   1.827   4.748  1.0469  0.3321 -0.0545
 2610TIP3    H2 7795   3.329   1.758   4.614  2.3188  1.9871 -1.0659
 2611TIP3   OH2 7796   2.042   3.472   1.846 -0.4088 -0.1709 -0.7198
 2611TIP3    H1 7797   2.011   3.409   1.781 -0.6738 -2.1337  1.1782
 2611TIP3    H2 7798   1.962   3.510   1.883 -0.3588 -0.7655  0.0175
 2612TIP3   OH2 7799   6.467   4.385   0.755 -0.2629 -0.4008  0.0228
 2612TIP3    H1 7800   6.549   4.338   0.771 -0.5104 -1.1438 -0.8132
 2612TIP3    H2 7801   6.495   4.470   0.721  0.1753 -0.5361  0.0382
 2613TIP3   OH2 7802   6.597   4.368   4.650  0.1378 -0.2918 -0.1331
 2613TIP3    H1 7803   6.588   4.456   4.687  0.1316  0.1270 -1.0872
 2613TIP3    H2 7804   6.531   4.365   4.581  0.4891 -0.8595 -0.4475
 2614TIP3   OH2 7805   4.625   2.454   3.822  0.0545 -0.5606 -0.3462
 2614TIP3    H1 7806   4.586   2.531   3.781  0.3427 -1.4263 -2.3261
 2614TIP3    H2 7807   4.713   2.483   3.848 -0.3668  0.1788  0.3145
 2615TIP3   OH2 7808   6.638   2.125   3.207  0.0982  0.2085  0.5304
 2615TIP3    H1 7809   6.670   2.056   3.264 -1.0877  0.0714  1.0664
 2615TIP3    H2 7810   6.551   2.146   3.241 -0.6424  0.1364 -1.2176
 2616TIP3   OH2 7811   0.337   3.525   1.880 -0.2332 -0.1356  0.6221
 2616TIP3    H1 7812   0.409   3.469   1.853 -2.5180 -2.7825 -0.4102
 2616TIP3    H2 7813   0.280   3.531   1.803 -1.3532  1.5363  1.5120
 2617TIP3   OH2 7814   0.453   3.757   2.869 -0.1927  0.5594  0.4981
 2617TIP3    H1 7815   0.511   3.781   2.797  1.1356 -0.3995  1.1949
 2617TIP3    H2 7816   0.373   3.725   2.826 -0.4489  2.3745 -0.4701
 2618TIP3   OH2 7817   5.725   2.791   2.083 -0.2497  0.5030 -0.4772
 2618TIP3    H1 7818   5.662   2.827   2.020  0.9236  2.6144 -0.5231
 2618TIP3    H2 7819   5.797   2.758   2.029 -2.3490 -4.7564 -0.6949
 2619TIP3   OH2 7820   3.823   0.254   5.466  0.1090 -0.3623 -0.1621
 2619TIP3    H1 7821   3.871   0.176   5.438 -0.1561 -0.2560 -0.9400
 2619TIP3    H2 7822   3.840   0.260   5.560  0.0598 -1.4089 -0.0761
 2620TIP3   OH2 7823   5.857   1.344   0.612 -0.6162 -0.3097 -0.2367
 2620TIP3    H1 7824   5.903   1.262   0.598 -0.3823 -0.1102 -0.6376
 2620TIP3    H2 7825   5.779   1.338   0.557 -1.6730 -1.1130  1.2686
 2621TIP3   OH2 7826   2.857   3.947   1.082  0.2869  0.0845  0.1084
 2621TIP3    H1 7827   2.860   3.883   1.154  0.3748 -0.1236 -0.0798
 2621TIP3    H2 7828   2.764   3.970   1.075  0.3200  0.3316  0.4884
 2622TIP3   OH2 7829   2.034   0.613   5.592  0.1481 -0.1794  0.5300
 2622TIP3    H1 7830   2.093   0.541   5.569  3.4406  1.8098  2.0016
 2622TIP3    H2 7831   1.966   0.573   5.645  1.2220 -2.3515  0.3514
 2623TIP3   OH2 7832   2.546   0.651   5.313 -0.0864 -0.1848  0.1348
 2623TIP3    H1 7833   2.530   0.621   5.402  1.1191  1.9274  1.1512
 2623TIP3    H2 7834   2.476   0.715   5.296  0.3032  0.2170  0.0049
 2624TIP3   OH2 7835   4.081   4.813   2.256 -0.1079  0.0335 -0.0936
 2624TIP3    H1 7836   4.071   4.799   2.162  0.8197 -1.0096 -0.0541
 2624TIP3    H2 7837   4.014   4.878   2.277 -0.5480  0.0480 -1.4118
 2625TIP3   OH2 7838   2.625   1.587   2.968  0.1454 -0.0474 -0.4917
 2625TIP3    H1 7839   2.556   1.526   2.996  1.3430 -1.1439  0.1377
 2625TIP3    H2 7840   2.701   1.531   2.951  2.1508  1.4162  2.7256
 2626TIP3   OH2 7841   0.892   3.498   4.095 -0.3659  0.5564 -0.2945
 2626TIP3    H1 7842   0.980   3.536   4.104  0.0714 -0.2706 -0.9748
 2626TIP3    H2 7843   0.893   3.456   4.009 -0.0989 -2.8586  1.2231
 2627TIP3   OH2 7844   5.433   2.635   2.753  0.3536  0.0743 -0.8894
 2627TIP3    H1 7845   5.360   2.575   2.764  0.6842 -0.5736 -2.0609
 2627TIP3    H2 7846   5.494   2.613   2.824 -0.4097  0.3775 -0.1270
 2628TIP3   OH2 7847   5.875   4.190   1.253  0.1369 -0.1512 -0.1417
 2628TIP3    H1 7848   5.881   4.285   1.245  1.2855 -0.2474 -0.6397
 2628TIP3    H2 7849   5.830   4.162   1.174 -0.7078  0.0145  0.2711
 2629TIP3   OH2 7850   5.083   0.092   2.877  0.0775  0.7352 -0.0064
 2629TIP3    H1 7851   5.005   0.134   2.842 -1.1646 -0.2190  1.4927
 2629TIP3    H2 7852   5.155   0.152   2.856 -1.1758  2.0624 -0.6153
 2630TIP3   OH2 7853   0.210   5.211   3.213  0.1025 -0.4780  0.0243
 2630TIP3    H1 7854   0.293   5.236   3.252 -0.8192  1.0252  1.1120
 2630TIP3    H2 7855   0.155   5.183   3.286 -0.8764  0.1157 -0.4511
 2631TIP3   OH2 7856   4.901   0.407   1.466 -0.9437  0.1636  0.1770
 2631TIP3    H1 7857   4.831   0.436   1.524 -0.7335 -0.8550  0.9683
 2631TIP3    H2 7858   4.856   0.369   1.391 -1.2328 -0.1892  0.5300
 2632TIP3   OH2 7859   3.250   3.334   0.520 -0.3630 -0.2607  0.0738
 2632TIP3    H1 7860   3.252   3.376   0.435  2.0216 -1.1432 -0.3805
 2632TIP3    H2 7861   3.161   3.298   0.527 -0.9999  0.9312 -1.4525
 2633TIP3   OH2 7862   0.211   5.783   4.936 -0.1951 -0.0795  0.3483
 2633TIP3    H1 7863   0.210   5.758   5.028 -0.0565 -0.7893  0.1634
 2633TIP3    H2 7864   0.269   5.719   4.894  0.9882  1.1633  0.0189
 2634TIP3   OH2 7865   2.094   5.540   2.568  0.0666  0.5481 -0.0623
 2634TIP3    H1 7866   2.164   5.475   2.575 -1.0415 -0.6747  0.1147
 2634TIP3    H2 7867   2.118   5.608   2.631  2.6250  1.7250 -2.1053
 2635TIP3   OH2 7868   2.477   0.405   4.391  0.7722  0.2106 -0.3625
 2635TIP3    H1 7869   2.477   0.322   4.438 -0.5670 -0.7774 -1.9967
 2635TIP3    H2 7870   2.567   0.437   4.398  0.7886 -0.1669  2.2712
 2636TIP3   OH2 7871   6.461   4.303   1.900 -0.0686  0.3702  0.0604
 2636TIP3    H1 7872   6.511   4.269   1.973  0.3791 -0.7503 -0.7553
 2636TIP3    H2 7873   6.504   4.269   1.822 -0.6157  1.4284 -0.7335
 2637TIP3   OH2 7874   2.664   1.643   3.700 -0.3110  0.1141 -0.0875
 2637TIP3    H1 7875   2.738   1.605   3.653  0.0392  0.2143  0.3766
 2637TIP3    H2 7876   2.638   1.576   3.763  0.0599  0.4852  0.4681
 2638TIP3   OH2 7877   6.192   0.438   5.107  0.0273 -0.1063 -0.5836
 2638TIP3    H1 7878   6.149   0.400   5.030 -0.3316 -0.0809 -0.3933
 2638TIP3    H2 7879   6.286   0.428   5.088  0.0011  1.5247 -1.8530
 2639TIP3   OH2 7880   2.440   6.731   1.605 -0.3995 -0.3152 -0.2969
 2639TIP3    H1 7881   2.500   6.790   1.652 -0.3733  0.5379 -1.3648
 2639TIP3    H2 7882   2.449   6.756   1.513 -0.9204 -1.5308 -0.6923
 2640TIP3   OH2 7883   6.182   2.846   2.997  0.2461  0.7122  0.1899
 2640TIP3    H1 7884   6.185   2.897   3.078 -1.9501  1.2359  0.0050
 2640TIP3    H2 7885   6.132   2.900   2.936 -0.4952 -0.8235 -0.6297
 2641TIP3   OH2 7886   6.488   3.457   1.311 -0.1033 -0.4018 -0.5055
 2641TIP3    H1 7887   6.510   3.433   1.221 -0.8525 -1.3625 -0.4405
 2641TIP3    H2 7888   6.400   3.494   1.306  0.1619  0.2951 -0.2699
 2642TIP3   OH2 7889   5.504   0.387   2.663 -0.4818  0.3451  0.7646
 2642TIP3    H1 7890   5.537   0.305   2.627 -0.0401  0.4501  0.9298
 2642TIP3    H2 7891   5.418   0.364   2.700 -0.6192  0.0854  0.2948
 2643TIP3   OH2 7892   3.916   0.299   0.002  0.3048  0.4231 -0.0039
 2643TIP3    H1 7893   3.951   0.220  -0.039  0.8264  0.3615  0.5547
 2643TIP3    H2 7894   3.943   0.293   0.094  0.2865  1.2062  0.0608
 2644TIP3   OH2 7895   5.396   4.721   5.114  0.0900 -0.0339 -0.8053
 2644TIP3    H1 7896   5.388   4.814   5.096 -0.5421  0.0052 -0.3796
 2644TIP3    H2 7897   5.313   4.684   5.082  1.0155 -0.7072 -2.5035
 2645TIP3   OH2 7898   5.398   0.547   1.392  0.1273 -0.3710 -0.1414
 2645TIP3    H1 7899   5.427   0.592   1.471  0.3556 -1.7300  0.5799
 2645TIP3    H2 7900   5.322   0.597   1.363 -0.2262 -0.0844  1.1851
 2646TIP3   OH2 7901   4.405   2.477   3.123  0.0062  0.7577  0.7507
 2646TIP3    H1 7902   4.499   2.495   3.120  0.0479  0.3843 -0.7402
 2646TIP3    H2 7903   4.397   2.384   3.102 -0.7955  1.2857 -1.6565
 2647TIP3   OH2 7904   2.317   4.218   3.949 -0.2509 -0.5960 -0.0730
 2647TIP3    H1 7905   2.411   4.203   3.942  0.0348  1.5139 -1.5448
 2647TIP3    H2 7906   2.296   4.198   4.041  2.0909  1.1894  0.9500
 2648TIP3   OH2 7907   4.196   1.119   2.418  0.2463 -0.1623  0.2462
 2648TIP3    H1 7908   4.255   1.044   2.408  0.1647 -0.3666  1.2539
 2648TIP3    H2 7909   4.254   1.195   2.419  0.2623 -0.0665 -1.9568
 2649TIP3   OH2 7910   0.965   4.512   2.318 -0.4764 -0.0404 -0.4873
 2649TIP3    H1 7911   0.995   4.588   2.268 -1.3762  0.6549  0.0004
 2649TIP3    H2 7912   0.940   4.447   2.251 -1.2944  0.7289 -0.9448
 2650TIP3   OH2 7913   1.722   0.103   3.113 -0.1998  0.5632  0.2910
 2650TIP3    H1 7914   1.628   0.119   3.104 -0.2007  1.7208  1.8835
 2650TIP3    H2 7915   1.762   0.156   3.044 -0.6568  0.8243  0.2224
 2651TIP3   OH2 7916   1.266   4.158   5.032 -0.3632  0.0909 -0.2751
 2651TIP3    H1 7917   1.352   4.183   5.066 -0.1149  0.5337 -1.1901
 2651TIP3    H2 7918   1.259   4.205   4.948 -0.8704 -1.1057 -0.9274
 2652TIP3   OH2 7919   2.086   0.773   0.272 -0.0167  0.2792  0.2246
 2652TIP3    H1 7920   2.130   0.847   0.314  1.2915  0.0987 -0.7879
 2652TIP3    H2 7921   2.109   0.697   0.326  0.1262  0.3328  0.2387
 2653TIP3   OH2 7922   2.417   3.563   2.957  0.0018 -0.1656  0.3931
 2653TIP3    H1 7923   2.474   3.611   3.017  1.3071 -1.2848  0.1031
 2653TIP3    H2 7924   2.380   3.631   2.900  1.6813  0.5356  0.0802
 2654TIP3   OH2 7925   6.491   4.123   0.950  0.0073  0.0493  0.1030
 2654TIP3    H1 7926   6.469   4.052   1.011 -1.0559  0.6313  0.4148
 2654TIP3    H2 7927   6.447   4.100   0.869  1.1793 -0.5721 -0.3791
 2655TIP3   OH2 7928   6.070   4.001   1.085 -0.3426 -0.5499  0.4691
 2655TIP3    H1 7929   6.052   4.085   1.041  0.3117 -1.1776 -1.0998
 2655TIP3    H2 7930   6.007   3.940   1.046  0.6492 -1.2558 -0.0753
 2656TIP3   OH2 7931   2.281   0.580   2.094 -0.1673  0.2434 -0.0118
 2656TIP3    H1 7932   2.217   0.642   2.130 -0.7581  0.1658 -0.9033
 2656TIP3    H2 7933   2.259   0.573   2.001  1.2284  0.3132 -0.3701
 2657TIP3   OH2 7934   0.484   1.178   2.932 -0.3413 -0.1287  0.0673
 2657TIP3    H1 7935   0.446   1.110   2.877 -0.0376 -0.0303 -0.2695
 2657TIP3    H2 7936   0.573   1.190   2.897 -0.6678  1.0160 -0.3935
 2658TIP3   OH2 7937   2.839   2.242   1.709  0.6662 -0.6662  0.7717
 2658TIP3    H1 7938   2.868   2.156   1.737  1.8115 -0.6792 -0.3951
 2658TIP3    H2 7939   2.745   2.242   1.727  0.5536 -2.3278  0.3631
 2659TIP3   OH2 7940   2.624   0.989   2.428 -0.1158  0.1595 -0.0469
 2659TIP3    H1 7941   2.694   0.973   2.364  0.8479  1.7038  0.5743
 2659TIP3    H2 7942   2.561   0.919   2.411  0.9400 -0.5090 -1.5095
 2660TIP3   OH2 7943   0.675   3.571   1.233  0.1596  0.4904 -0.1757
 2660TIP3    H1 7944   0.589   3.545   1.201 -0.7406  1.2444  1.4808
 2660TIP3    H2 7945   0.718   3.610   1.157 -0.3797 -1.1967 -1.3960
 2661TIP3   OH2 7946   1.407   3.589   1.685 -0.0983  0.4557  0.2474
 2661TIP3    H1 7947   1.419   3.494   1.685  0.4681  0.4315 -2.7346
 2661TIP3    H2 7948   1.336   3.604   1.623 -2.4521  1.8792  3.0719
 2662TIP3   OH2 7949   3.543   3.708   0.660 -0.0601 -0.1735 -0.4740
 2662TIP3    H1 7950   3.459   3.745   0.686  0.5722  1.7652 -0.9829
 2662TIP3    H2 7951   3.608   3.759   0.709  0.8332 -1.7747  0.0778
 2663TIP3   OH2 7952   2.225   5.900   3.741  0.0915 -0.2135  0.1883
 2663TIP3    H1 7953   2.149   5.880   3.796 -0.0656  0.7480  0.3320
 2663TIP3    H2 7954   2.300   5.875   3.795 -0.0744  0.3900  0.7149
 2664TIP3   OH2 7955   1.943   1.861   5.426  0.7602 -0.3548  0.1702
 2664TIP3    H1 7956   1.983   1.900   5.504  0.6978  0.8480 -0.3736
 2664TIP3    H2 7957   1.852   1.847   5.450 -0.0369  2.7685 -0.5509
 2665TIP3   OH2 7958   1.777   2.018   2.656  0.3411 -0.3878 -0.2832
 2665TIP3    H1 7959   1.802   1.930   2.682 -0.8058 -0.6977 -0.1928
 2665TIP3    H2 7960   1.729   2.007   2.574  1.7089  0.3389 -1.2246
 2666TIP3   OH2 7961   2.353   3.203   0.906 -0.5549  0.4119  0.0452
 2666TIP3    H1 7962   2.400   3.120   0.892  0.2118  0.9572 -0.7099
 2666TIP3    H2 7963   2.348   3.212   1.001 -1.3456 -0.8770  0.1539
 2667TIP3   OH2 7964   4.603   4.540   0.624 -0.1738  0.5332  0.3455
 2667TIP3    H1 7965   4.649   4.542   0.540  1.6969 -0.0797  1.3039
 2667TIP3    H2 7966   4.522   4.492   0.605  0.4593 -0.0782 -0.9879
 2668TIP3   OH2 7967   0.275   3.685   5.587 -0.6861  0.3387 -0.0298
 2668TIP3    H1 7968   0.273   3.766   5.536 -0.0822 -0.4504 -1.3732
 2668TIP3    H2 7969   0.331   3.705   5.662  2.0257  0.3631 -1.9126
 2669TIP3   OH2 7970   1.651   2.584   5.276 -0.4746 -0.0239  0.0746
 2669TIP3    H1 7971   1.601   2.509   5.308 -0.8968 -0.5410 -1.7206
 2669TIP3    H2 7972   1.696   2.552   5.198  2.2571  0.5831  1.2530
 2670TIP3   OH2 7973   4.515   3.392   3.270 -0.3534 -0.0164 -0.0013
 2670TIP3    H1 7974   4.435   3.379   3.220  1.2028 -0.9149 -2.4698
 2670TIP3    H2 7975   4.566   3.455   3.218  0.6711  0.3159  1.3358
 2671TIP3   OH2 7976   5.494   0.171   2.096  0.2231 -0.8780 -0.1291
 2671TIP3    H1 7977   5.542   0.237   2.047  0.6758 -0.2400  1.1414
 2671TIP3    H2 7978   5.554   0.097   2.101 -0.1249 -1.2571 -1.1841
 2672TIP3   OH2 7979   1.683   3.228   2.318  0.6104  1.0936 -0.3480
 2672TIP3    H1 7980   1.645   3.149   2.279  2.4294  0.5568 -1.1193
 2672TIP3    H2 7981   1.690   3.289   2.244 -2.8440  2.9286  0.6167
 2673TIP3   OH2 7982   2.839   6.437   1.937 -0.6445 -0.5984  0.1810
 2673TIP3    H1 7983   2.767   6.431   1.999 -0.7401  0.7564  0.2094
 2673TIP3    H2 7984   2.798   6.455   1.852 -0.3328  0.3214  0.2236
 2674TIP3   OH2 7985   6.799   4.697   4.570 -0.4105 -0.3363 -0.9489
 2674TIP3    H1 7986   6.755   4.769   4.525 -0.3893  2.0184  2.3914
 2674TIP3    H2 7987   6.734   4.664   4.632  1.2867  0.8697  1.6324
 2675TIP3   OH2 7988   1.749   4.225   3.528  0.1129  0.3364 -0.1387
 2675TIP3    H1 7989   1.841   4.201   3.514 -0.3285 -1.3979 -0.2317
 2675TIP3    H2 7990   1.724   4.271   3.448 -0.1113 -2.4324 -1.7522
 2676TIP3   OH2 7991   4.702   4.508   0.097 -0.5202  0.1898 -0.1100
 2676TIP3    H1 7992   4.763   4.539   0.164 -0.6782  1.3278 -0.4666
 2676TIP3    H2 7993   4.725   4.558   0.019 -1.4502  0.1258 -0.4412
 2677TIP3   OH2 7994   0.905   2.645   3.176  0.2173  0.4422 -0.1437
 2677TIP3    H1 7995   0.852   2.716   3.211  1.0727  0.9599  0.1231
 2677TIP3    H2 7996   0.952   2.610   3.252  0.0987 -0.1522 -0.3394
 2678TIP3   OH2 7997   0.984   0.029   5.583 -0.4098 -0.5286  0.4273
 2678TIP3    H1 7998   1.023   0.116   5.575  0.1471 -0.6871  1.3652
 2678TIP3    H2 7999   1.051  -0.031   5.552 -1.6464 -0.5290 -2.6525
 2679TIP3   OH2 8000   5.039   3.082   0.520 -0.3428  0.4645 -0.1182
 2679TIP3    H1 8001   4.998   3.045   0.598  0.2974 -0.7747 -0.3430
 2679TIP3    H2 8002   5.130   3.053   0.525 -0.5533 -0.6633 -1.9176
 2680TIP3   OH2 8003   6.799   5.827   3.394  0.3519  0.4403  0.1479
 2680TIP3    H1 8004   6.712   5.789   3.379  0.3459  0.2504  0.6245
 2680TIP3    H2 8005   6.814   5.884   3.319  0.6541 -1.0466 -0.9570
 2681TIP3   OH2 8006   5.884   3.441   0.480 -0.4445  0.0222 -0.3111
 2681TIP3    H1 8007   5.833   3.488   0.415 -1.5175 -1.8520 -0.9127
 2681TIP3    H2 8008   5.929   3.372   0.430  1.0336  0.3270  0.5303
 2682TIP3   OH2 8009   2.971   3.784   3.149  0.3208 -0.0684 -0.2234
 2682TIP3    H1 8010   2.931   3.733   3.079  0.8362 -1.0707  0.1924
 2682TIP3    H2 8011   2.942   3.741   3.230  0.9336  0.1621  0.1285
 2683TIP3   OH2 8012   1.815   5.263   0.745 -0.0792 -0.4225 -0.6818
 2683TIP3    H1 8013   1.735   5.228   0.783 -0.6651 -0.6299 -2.0647
 2683TIP3    H2 8014   1.884   5.207   0.780 -0.5401 -0.3852  0.3397
 2684TIP3   OH2 8015   4.233   0.158   4.788 -0.4168  0.0816  0.3106
 2684TIP3    H1 8016   4.241   0.066   4.762 -0.1050 -0.2357  1.4734
 2684TIP3    H2 8017   4.139   0.176   4.786 -0.5394 -0.4916  0.8354
 2685TIP3   OH2 8018   2.409   0.873   0.655 -0.1293  0.1642 -0.2996
 2685TIP3    H1 8019   2.420   0.853   0.748  1.3106 -2.5794 -0.9389
 2685TIP3    H2 8020   2.484   0.928   0.633  0.0692  0.0169 -0.0028
 2686TIP3   OH2 8021   4.195   0.625   3.733 -0.0506 -0.2819 -0.0292
 2686TIP3    H1 8022   4.133   0.650   3.664  0.7419 -1.1165 -1.0978
 2686TIP3    H2 8023   4.152   0.553   3.779 -0.2432 -0.2957 -0.2293
 2687TIP3   OH2 8024   3.881   6.753   2.294  0.0509 -1.0080  0.9243
 2687TIP3    H1 8025   3.838   6.839   2.297 -1.7079 -1.8055 -0.1091
 2687TIP3    H2 8026   3.940   6.758   2.219 -2.4561 -1.6856 -1.2412
 2688TIP3   OH2 8027   5.958   4.828   4.453 -0.1069  0.4016 -0.4224
 2688TIP3    H1 8028   6.022   4.814   4.523  0.0642 -0.8844 -0.8176
 2688TIP3    H2 8029   5.883   4.870   4.497  0.7150  1.3031  0.1673
 2689TIP3   OH2 8030   6.760   1.221   1.319  0.4775  0.1537  0.1062
 2689TIP3    H1 8031   6.787   1.213   1.228  1.5850  1.4418  0.2879
 2689TIP3    H2 8032   6.832   1.267   1.362  0.4135 -1.2209  1.8532
 2690TIP3   OH2 8033   0.375   5.109   0.816 -0.3270 -0.4473  0.3838
 2690TIP3    H1 8034   0.368   5.169   0.742  2.1019  0.6822  0.9741
 2690TIP3    H2 8035   0.307   5.138   0.877  1.2476  2.3560  0.9961
 2691TIP3   OH2 8036   1.624   0.577   3.042 -0.1304 -0.1642  0.2364
 2691TIP3    H1 8037   1.548   0.579   2.984  1.2676 -1.1852 -1.7597
 2691TIP3    H2 8038   1.587   0.586   3.130 -2.3914  0.9427 -0.7360
 2692TIP3   OH2 8039   4.704   0.167   2.280  0.6970 -0.0021  0.3539
 2692TIP3    H1 8040   4.682   0.165   2.187 -0.1605  0.1886  0.5387
 2692TIP3    H2 8041   4.780   0.225   2.287  0.0802  0.8800 -0.1026
 2693TIP3   OH2 8042   7.209   3.942   2.720 -0.2267 -0.2911  0.2337
 2693TIP3    H1 8043   7.143   3.990   2.770 -1.1797 -0.4489 -0.8505
 2693TIP3    H2 8044   7.246   3.880   2.783  0.3341  1.1624  1.3924
 2694TIP3   OH2 8045   1.750   5.393   1.646  0.2079 -0.2430  0.0018
 2694TIP3    H1 8046   1.804   5.454   1.697  1.8152 -0.5594 -1.2566
 2694TIP3    H2 8047   1.807   5.318   1.630 -0.8867 -0.9588 -0.6872
 2695TIP3   OH2 8048   2.445   0.783   1.962  0.7871  0.4083  0.5742
 2695TIP3    H1 8049   2.403   0.698   1.978  1.4377 -0.0326 -0.0389
 2695TIP3    H2 8050   2.372   0.840   1.938  0.3332  0.0492  1.0481
 2696TIP3   OH2 8051   2.281   3.774   3.870 -0.7752  0.0377  0.3106
 2696TIP3    H1 8052   2.375   3.767   3.883 -0.8048 -2.8108 -0.2971
 2696TIP3    H2 8053   2.270   3.837   3.799  0.5611  1.2415  1.1297
 2697TIP3   OH2 8054   5.903   4.196   3.260  0.0471 -0.7879  0.7510
 2697TIP3    H1 8055   5.941   4.284   3.261 -0.7152 -0.4460  0.4102
 2697TIP3    H2 8056   5.899   4.173   3.167 -0.9204 -0.6526  0.7464
 2698TIP3   OH2 8057   0.116   1.378   2.513 -0.4365  0.2147 -0.0054
 2698TIP3    H1 8058   0.151   1.291   2.495 -1.1832 -0.3360  1.0947
 2698TIP3    H2 8059   0.064   1.400   2.436  0.9952  0.3762 -0.9668
 2699TIP3   OH2 8060   3.844   1.750   1.979  0.5553 -0.5086  0.6376
 2699TIP3    H1 8061   3.883   1.701   1.906  1.1292  1.8245 -0.7170
 2699TIP3    H2 8062   3.912   1.749   2.047  1.8084  0.8390 -0.5136
 2700TIP3   OH2 8063   4.505   6.216   0.244  0.1627  0.8665  0.0142
 2700TIP3    H1 8064   4.573   6.193   0.182 -1.0295  0.7616 -1.3180
 2700TIP3    H2 8065   4.432   6.158   0.222 -0.2693  0.7436  1.6071
 2701TIP3   OH2 8066   6.067   4.823   4.767  0.4792 -0.3802 -0.0778
 2701TIP3    H1 8067   5.982   4.849   4.801  0.2247  0.0337 -1.0108
 2701TIP3    H2 8068   6.125   4.897   4.786  0.4478 -0.3403 -0.1391
 2702TIP3   OH2 8069   5.982   5.779   1.884  0.0450 -0.0155 -0.4226
 2702TIP3    H1 8070   6.004   5.686   1.876  2.5184  0.5702 -1.2429
 2702TIP3    H2 8071   5.979   5.811   1.793  1.0215  1.0499 -0.1060
 2703TIP3   OH2 8072   5.299   3.111   5.249 -0.0228 -0.3086  0.1230
 2703TIP3    H1 8073   5.250   3.077   5.175  1.3375 -1.1130 -0.4539
 2703TIP3    H2 8074   5.271   3.058   5.324 -0.5687 -0.2594 -0.0478
 2704TIP3   OH2 8075   3.201   0.707   0.507 -0.2888 -0.4808  0.2550
 2704TIP3    H1 8076   3.290   0.690   0.477 -0.2630 -1.6336  0.9382
 2704TIP3    H2 8077   3.147   0.693   0.429  0.1011  0.0436 -0.1169
 2705TIP3   OH2 8078   3.596   1.781   3.564  0.0677  0.1157  0.3100
 2705TIP3    H1 8079   3.580   1.830   3.645 -0.0602 -1.1675  1.0893
 2705TIP3    H2 8080   3.684   1.807   3.537 -0.3882  1.5495  0.1159
 2706TIP3   OH2 8081   0.264   4.014   5.082  0.0105  0.5681  0.5728
 2706TIP3    H1 8082   0.311   4.050   5.007  1.2774  0.5649  1.3256
 2706TIP3    H2 8083   0.331   3.966   5.131 -0.9200  0.0641  1.3912
 2707TIP3   OH2 8084   5.789   2.490   0.629 -0.1751 -0.1354  0.0287
 2707TIP3    H1 8085   5.865   2.453   0.674  0.0517  2.3753  1.9186
 2707TIP3    H2 8086   5.823   2.520   0.545  0.1934 -1.6805 -0.4183
 2708TIP3   OH2 8087   0.500   5.662   5.795 -0.5144  0.4470 -0.5885
 2708TIP3    H1 8088   0.588   5.690   5.768 -1.0336  1.1399 -1.5939
 2708TIP3    H2 8089   0.453   5.744   5.812 -0.5761  0.0755  1.3529
 2709TIP3   OH2 8090   0.441   6.360   0.388 -0.2673 -0.1125  0.0745
 2709TIP3    H1 8091   0.436   6.429   0.322 -0.5951 -0.3756 -0.1822
 2709TIP3    H2 8092   0.355   6.317   0.384 -0.0239 -0.6140  0.1372
 2710TIP3   OH2 8093   6.367   3.520   2.779  0.1796 -0.2200 -0.0634
 2710TIP3    H1 8094   6.329   3.589   2.724 -0.5459  0.0616  0.7706
 2710TIP3    H2 8095   6.453   3.503   2.740 -0.1495  0.2614 -1.0312
 2711TIP3   OH2 8096   1.102   6.767   0.889  0.2497 -0.0620  0.1010
 2711TIP3    H1 8097   1.047   6.841   0.916 -0.2226 -0.4943  0.3222
 2711TIP3    H2 8098   1.091   6.761   0.794  2.1657  1.6712 -0.3139
 2712TIP3   OH2 8099   6.902   2.040   5.792  0.7563 -0.0228  1.0470
 2712TIP3    H1 8100   6.914   2.121   5.841  0.3462  0.9894 -0.4557
 2712TIP3    H2 8101   6.989   2.000   5.790  1.7891  2.1230 -1.1000
 2713TIP3   OH2 8102   6.982   0.520   0.397  0.3610 -0.1554  0.3656
 2713TIP3    H1 8103   6.917   0.551   0.334  1.3520  1.3098  0.0263
 2713TIP3    H2 8104   6.931   0.501   0.476 -0.4938  0.9014  0.0969
 2714TIP3   OH2 8105   0.160   1.462   4.212  0.1168  0.0652 -0.1317
 2714TIP3    H1 8106   0.197   1.471   4.124  2.0554  0.7450  0.6853
 2714TIP3    H2 8107   0.132   1.370   4.217  2.3988 -0.7298 -0.6349
 2715TIP3   OH2 8108   4.257   3.024   2.222  0.6806 -0.3309 -0.0943
 2715TIP3    H1 8109   4.247   3.053   2.313 -1.2782  2.2409 -1.0015
 2715TIP3    H2 8110   4.196   3.079   2.173  0.2574 -2.9134 -2.7591
 2716TIP3   OH2 8111   4.364   3.224   0.274  0.2187  0.3339  0.0279
 2716TIP3    H1 8112   4.345   3.284   0.201 -1.8055  0.8809  0.9486
 2716TIP3    H2 8113   4.459   3.229   0.284  0.2754  2.2419 -0.9173
 2717TIP3   OH2 8114   5.695   1.153   5.691 -0.0870 -0.2214  0.2255
 2717TIP3    H1 8115   5.607   1.117   5.685  0.2017 -0.8503 -0.3807
 2717TIP3    H2 8116   5.684   1.246   5.669 -0.3765 -0.6398 -1.5825
 2718TIP3   OH2 8117   2.596   4.363   0.179  0.6482 -0.0347 -0.3800
 2718TIP3    H1 8118   2.561   4.306   0.248  1.4451 -0.8066 -0.5815
 2718TIP3    H2 8119   2.681   4.391   0.212  1.0129 -0.3623 -1.0015
 2719TIP3   OH2 8120   2.848   6.275   3.435  0.9117 -0.0824 -0.3842
 2719TIP3    H1 8121   2.845   6.370   3.432  0.9505 -0.0985 -0.9270
 2719TIP3    H2 8122   2.899   6.255   3.513 -1.8641  0.3096  1.7185
 2720TIP3   OH2 8123   5.739   3.507   1.487 -0.6046  0.4828  0.0538
 2720TIP3    H1 8124   5.690   3.457   1.552 -1.3398  0.9870 -0.0977
 2720TIP3    H2 8125   5.749   3.448   1.413 -1.8628  0.6856 -0.3053
 2721TIP3   OH2 8126   3.977   3.399   2.714 -0.0577  0.3925 -0.4332
 2721TIP3    H1 8127   3.890   3.421   2.681 -0.5261 -0.6547  0.0560
 2721TIP3    H2 8128   3.965   3.390   2.809 -0.0071 -2.2796 -0.6172
 2722TIP3   OH2 8129   1.516   1.298   2.783 -0.0748 -0.0317  0.1301
 2722TIP3    H1 8130   1.460   1.236   2.829  1.4011 -0.6360  1.1973
 2722TIP3    H2 8131   1.586   1.243   2.745 -0.7303  0.5499 -2.1022
 2723TIP3   OH2 8132   0.027   0.738   4.347 -0.0537 -0.0718 -0.5679
 2723TIP3    H1 8133   0.055   0.728   4.438  2.2884 -0.5789 -1.2776
 2723TIP3    H2 8134  -0.043   0.673   4.336  0.2774 -0.6583  0.6073
 2724TIP3   OH2 8135   1.973   2.425   4.785  0.0453  0.0881 -0.6011
 2724TIP3    H1 8136   1.923   2.490   4.834 -0.2562  0.0772 -0.8907
 2724TIP3    H2 8137   2.023   2.476   4.721 -0.2068  0.0390 -0.8418
 2725TIP3   OH2 8138   5.325   6.447   5.365 -0.1701 -0.3932 -0.2748
 2725TIP3    H1 8139   5.349   6.426   5.275 -1.4599 -0.9295 -0.5209
 2725TIP3    H2 8140   5.289   6.536   5.361 -2.4079 -1.2525 -0.7606
 2726TIP3   OH2 8141   2.930   0.481   1.096 -0.0501 -0.0101  0.2900
 2726TIP3    H1 8142   2.841   0.505   1.121 -0.7216 -0.3434 -1.5739
 2726TIP3    H2 8143   2.959   0.552   1.039  0.4714 -0.4190  0.0374
 2727TIP3   OH2 8144   5.159   5.476   3.879 -0.0556 -0.7612  0.0665
 2727TIP3    H1 8145   5.231   5.451   3.937  1.0174  2.1997  0.1419
 2727TIP3    H2 8146   5.182   5.438   3.795 -0.0474 -2.4667  0.7984
 2728TIP3   OH2 8147   6.049   1.227   4.827  0.0754 -0.3221 -0.5587
 2728TIP3    H1 8148   6.105   1.260   4.757  1.4758  0.2872  0.8128
 2728TIP3    H2 8149   5.962   1.262   4.807  0.0083 -1.6431 -2.9547
 2729TIP3   OH2 8150   1.035   2.891   4.035  0.1471  0.2955  0.1981
 2729TIP3    H1 8151   0.995   2.821   3.984 -2.9794  2.0446 -0.0000
 2729TIP3    H2 8152   1.066   2.848   4.114  1.0482 -1.7342 -1.1578
 2730TIP3   OH2 8153   6.005   6.091   2.547 -0.1729 -0.3669  0.5279
 2730TIP3    H1 8154   5.951   6.108   2.624 -0.6830 -0.3398  0.1658
 2730TIP3    H2 8155   5.998   6.171   2.494 -0.5574 -0.7337  0.0191
 2731TIP3   OH2 8156   3.495   3.469   5.758  0.4118 -0.6659  0.6543
 2731TIP3    H1 8157   3.556   3.482   5.686 -1.1748 -1.7176 -0.9583
 2731TIP3    H2 8158   3.492   3.554   5.802 -0.2546  0.7668 -1.9236
 2732TIP3   OH2 8159   1.811   3.645   0.004  0.2111  0.0084 -0.6996
 2732TIP3    H1 8160   1.767   3.724   0.033  0.5108 -0.0911  0.0570
 2732TIP3    H2 8161   1.772   3.575   0.057  0.5326 -0.2274 -0.7715
 2733TIP3   OH2 8162   2.935   3.212   2.028  0.6395 -0.2714  0.0481
 2733TIP3    H1 8163   3.018   3.255   2.048  0.9650 -0.5560 -0.6654
 2733TIP3    H2 8164   2.878   3.234   2.102  0.6958  1.6084 -0.4244
 2734TIP3   OH2 8165   2.774   2.344   3.156  0.4370  0.0230 -0.0854
 2734TIP3    H1 8166   2.821   2.272   3.199  0.2828 -0.4614 -0.7221
 2734TIP3    H2 8167   2.699   2.360   3.213 -0.1427 -1.0794 -0.5052
 2735TIP3   OH2 8168   3.189   4.754   3.973  0.3870 -0.2257  0.5848
 2735TIP3    H1 8169   3.139   4.771   3.893 -1.5217  0.4899  1.8580
 2735TIP3    H2 8170   3.275   4.726   3.942  0.4637  2.1715 -1.6949
 2736TIP3   OH2 8171   2.148   0.617   3.251  0.1659 -0.3107 -0.1382
 2736TIP3    H1 8172   2.160   0.666   3.332  0.4357 -1.8191  0.7640
 2736TIP3    H2 8173   2.057   0.633   3.226 -0.3553 -0.9525  1.2454
 2737TIP3   OH2 8174   2.892   6.472   4.306 -0.2377  0.1258  0.9673
 2737TIP3    H1 8175   2.978   6.508   4.331 -0.0012  0.7342 -0.6027
 2737TIP3    H2 8176   2.831   6.543   4.327 -0.1181  0.3975  0.4148
 2738TIP3   OH2 8177   7.176   1.165   0.511 -0.1205 -0.1095 -0.0346
 2738TIP3    H1 8178   7.190   1.189   0.419 -1.4038  2.2685  0.3000
 2738TIP3    H2 8179   7.261   1.135   0.542  0.9538  1.3624 -1.3827
 2739TIP3   OH2 8180   3.907   2.806   3.115  0.1186  0.4423  1.2320
 2739TIP3    H1 8181   3.817   2.791   3.088  0.2830  0.7553  0.4849
 2739TIP3    H2 8182   3.911   2.900   3.132  0.7295  0.7510 -0.4309
 2740TIP3   OH2 8183   6.125   3.038   4.469 -0.4262 -0.7489 -0.4048
 2740TIP3    H1 8184   6.218   3.053   4.484 -1.0964  1.6898  1.9965
 2740TIP3    H2 8185   6.111   2.948   4.500  0.9105 -0.7440  0.3166
 2741TIP3   OH2 8186   1.661   0.558   0.474  0.4092 -0.3357 -0.0498
 2741TIP3    H1 8187   1.754   0.559   0.499 -0.3682 -1.7108  3.3485
 2741TIP3    H2 8188   1.635   0.467   0.483 -1.7357  0.3360  1.0850
 2742TIP3   OH2 8189   6.372   6.136   2.857  0.1143 -0.0929  0.6901
 2742TIP3    H1 8190   6.411   6.070   2.799  0.3963 -0.5490  1.3904
 2742TIP3    H2 8191   6.422   6.129   2.938  0.8084  1.6720  0.4552
 2743TIP3   OH2 8192   6.210   6.728   3.282  0.2844 -0.3279 -0.0117
 2743TIP3    H1 8193   6.281   6.680   3.239 -0.3712 -1.4347  0.1033
 2743TIP3    H2 8194   6.206   6.691   3.371  0.8446  1.1043  0.6394
 2744TIP3   OH2 8195   0.498   6.537   3.230  0.3304 -0.6600 -0.3360
 2744TIP3    H1 8196   0.479   6.606   3.293  2.1878 -0.2073 -0.2274
 2744TIP3    H2 8197   0.520   6.461   3.284 -1.2078 -1.2300 -0.4590
 2745TIP3   OH2 8198   0.004   5.587   2.572  0.3134  0.3127 -0.0728
 2745TIP3    H1 8199   0.009   5.575   2.477  0.8713  2.2130 -0.3066
 2745TIP3    H2 8200   0.095   5.579   2.602  0.0638 -0.9624  0.4296
 2746TIP3   OH2 8201   1.592   3.634   3.737 -0.6709 -0.3242 -0.4138
 2746TIP3    H1 8202   1.658   3.569   3.714  0.1597  1.1829 -2.5569
 2746TIP3    H2 8203   1.640   3.716   3.744 -2.0721  0.5256 -0.2925
 2747TIP3   OH2 8204   3.030   4.506   5.569 -0.9001  0.3357 -0.1935
 2747TIP3    H1 8205   3.045   4.547   5.485 -1.0073  0.6421 -0.0633
 2747TIP3    H2 8206   3.104   4.447   5.581 -1.6379 -0.8391 -1.1811
 2748TIP3   OH2 8207   2.327   2.604   4.017 -0.5204 -0.4659 -0.1014
 2748TIP3    H1 8208   2.407   2.630   4.063 -0.2830  0.5919 -1.0650
 2748TIP3    H2 8209   2.306   2.518   4.052  0.5374 -0.3717  0.8176
 2749TIP3   OH2 8210   3.590   5.698   3.512 -0.4852 -0.1961  0.4536
 2749TIP3    H1 8211   3.680   5.728   3.497 -0.5679 -0.3985 -0.4909
 2749TIP3    H2 8212   3.576   5.712   3.606  1.0142 -1.4302  0.9146
 2750TIP3   OH2 8213   3.097   2.615   4.953 -0.3939  0.1350 -0.3613
 2750TIP3    H1 8214   3.172   2.658   4.993  0.1681 -1.2697  0.1565
 2750TIP3    H2 8215   3.022   2.646   5.004  0.1336 -0.3984  0.7765
 2751TIP3   OH2 8216   2.880   4.363   0.302 -0.1388  0.5608  0.2501
 2751TIP3    H1 8217   2.852   4.277   0.269  2.4550 -0.8557  1.4499
 2751TIP3    H2 8218   2.972   4.351   0.326  0.4025  3.7901  0.2259
 2752TIP3   OH2 8219   0.718   4.697   2.044  0.3150  0.3979 -0.0732
 2752TIP3    H1 8220   0.728   4.606   2.014  0.2849  0.5887 -0.6783
 2752TIP3    H2 8221   0.807   4.725   2.067  0.1876 -0.1178  1.1422
 2753TIP3   OH2 8222   0.337   4.997   0.267 -0.0955  0.0011 -0.1108
 2753TIP3    H1 8223   0.378   5.037   0.191 -0.5313 -1.3646 -1.1044
 2753TIP3    H2 8224   0.369   4.907   0.267 -1.1627 -0.3961  0.5137
 2754TIP3   OH2 8225   3.924   4.063   1.074 -0.4297 -0.3320 -0.2496
 2754TIP3    H1 8226   3.935   4.027   1.162 -1.9641 -1.5084 -0.4826
 2754TIP3    H2 8227   3.978   4.007   1.018  1.3197  1.0135  0.0255
 2755TIP3   OH2 8228   2.345   3.602   2.049 -0.1756 -0.2527  0.0863
 2755TIP3    H1 8229   2.397   3.538   1.998  0.7567 -0.8816  1.7400
 2755TIP3    H2 8230   2.261   3.559   2.062 -0.1116 -0.4607 -0.1674
 2756TIP3   OH2 8231   4.219   1.296   4.635 -0.0648  0.1202  0.8503
 2756TIP3    H1 8232   4.261   1.375   4.602 -1.4889 -0.0096 -1.4740
 2756TIP3    H2 8233   4.276   1.224   4.605 -0.4106  0.1055  0.2159
 2757TIP3   OH2 8234   5.050   4.011   2.900 -0.3478  0.3062 -0.3310
 2757TIP3    H1 8235   5.035   3.928   2.855 -1.2338 -0.0234  0.5444
 2757TIP3    H2 8236   5.089   3.986   2.983 -0.3303  0.7977 -0.1895
 2758TIP3   OH2 8237   5.051   2.696   3.642 -0.4534 -0.0234  0.9483
 2758TIP3    H1 8238   4.973   2.716   3.694  0.3302  0.9232  1.7933
 2758TIP3    H2 8239   5.088   2.782   3.621  1.6151 -0.4732  2.5091
 2759TIP3   OH2 8240   0.291   5.510   4.920 -0.2987  0.1553 -0.3473
 2759TIP3    H1 8241   0.336   5.437   4.878 -0.2350 -0.1114  0.1820
 2759TIP3    H2 8242   0.294   5.490   5.013 -0.3364  0.8057 -0.2020
 2760TIP3   OH2 8243   2.993   6.313   5.609  0.4091  0.0918  0.0069
 2760TIP3    H1 8244   2.921   6.339   5.551 -0.1670 -0.9979  0.1930
 2760TIP3    H2 8245   3.036   6.241   5.562  1.1529  0.4986  0.0627
 2761TIP3   OH2 8246   7.197   5.784   1.722  0.2612 -0.0274  0.4530
 2761TIP3    H1 8247   7.149   5.710   1.761 -0.4306 -0.0620 -0.4303
 2761TIP3    H2 8248   7.142   5.813   1.649 -0.4245  2.5965  1.8889
 2762TIP3   OH2 8249   4.492   3.057   3.499  0.4553  0.0825 -0.6356
 2762TIP3    H1 8250   4.480   2.963   3.510 -0.6938  0.3059  0.0981
 2762TIP3    H2 8251   4.548   3.065   3.422  1.3815 -1.2291 -0.1273
 2763TIP3   OH2 8252   6.549   3.453   5.150  0.2298  0.2008  0.1344
 2763TIP3    H1 8253   6.491   3.456   5.226 -1.5756  2.0383 -1.1892
 2763TIP3    H2 8254   6.489   3.439   5.076  1.6548  0.8424 -1.1788
 2764TIP3   OH2 8255   6.103   0.183   1.008  0.2168  0.7895 -0.0236
 2764TIP3    H1 8256   6.191   0.178   0.969 -0.2875 -1.6977 -1.0085
 2764TIP3    H2 8257   6.100   0.271   1.047  3.1697  0.9107  0.1882
 2765TIP3   OH2 8258   6.298   1.048   3.736 -0.2071  0.1399  0.3265
 2765TIP3    H1 8259   6.315   1.043   3.831  1.3231  1.5963  0.1745
 2765TIP3    H2 8260   6.219   1.100   3.728 -0.0035  0.5300  0.7929
 2766TIP3   OH2 8261   1.580   0.090   1.377 -0.7088 -0.4079  0.0867
 2766TIP3    H1 8262   1.580   0.018   1.314 -1.4588  0.5667 -1.0747
 2766TIP3    H2 8263   1.504   0.073   1.433 -1.8988  0.2997 -1.2285
 2767TIP3   OH2 8264   3.528   0.877   5.602  0.4089 -0.1663 -0.1353
 2767TIP3    H1 8265   3.538   0.792   5.646  0.6160 -0.0708  0.0024
 2767TIP3    H2 8266   3.572   0.939   5.659  1.3478 -0.1563 -0.8525
 2768TIP3   OH2 8267   2.350   4.712   2.794 -0.0950  0.0267  0.4636
 2768TIP3    H1 8268   2.411   4.723   2.867  0.7676 -0.0662 -0.2259
 2768TIP3    H2 8269   2.346   4.798   2.752 -0.7286  0.1275  0.7134
 2769TIP3   OH2 8270   5.297   1.119   3.162  0.3261  0.5697 -0.5406
 2769TIP3    H1 8271   5.242   1.194   3.186  1.0699  0.5915  1.2598
 2769TIP3    H2 8272   5.268   1.049   3.221 -0.2405 -0.5387 -2.0860
 2770TIP3   OH2 8273   7.044   4.900   2.451 -0.4667 -0.1295  0.0611
 2770TIP3    H1 8274   6.958   4.932   2.422 -0.6022 -0.7174 -0.1935
 2770TIP3    H2 8275   7.097   4.900   2.371 -0.1178  0.5720  0.2843
 2771TIP3   OH2 8276   2.557   2.287   0.543  0.0717 -0.0417  0.1129
 2771TIP3    H1 8277   2.627   2.298   0.479 -1.5070  2.3806 -1.3156
 2771TIP3    H2 8278   2.483   2.253   0.493 -0.8560  0.8192  0.8686
 2772TIP3   OH2 8279   3.008   1.335   1.873 -0.1418 -0.8934  0.0718
 2772TIP3    H1 8280   2.976   1.252   1.838  0.5468 -0.4670 -1.6819
 2772TIP3    H2 8281   2.970   1.402   1.816  2.0253 -0.2479 -0.7249
 2773TIP3   OH2 8282   0.643   0.464   2.151 -0.8487  0.2821  0.1687
 2773TIP3    H1 8283   0.688   0.537   2.109 -1.4120 -0.4644 -1.8416
 2773TIP3    H2 8284   0.704   0.432   2.217  0.1069  1.4599 -0.1200
 2774TIP3   OH2 8285   1.152   5.893   4.711 -0.6471 -0.3528 -0.3923
 2774TIP3    H1 8286   1.117   5.811   4.676 -1.2186 -1.0166  1.5976
 2774TIP3    H2 8287   1.220   5.866   4.772  1.8976  0.8519 -2.4887
 2775TIP3   OH2 8288   2.850   2.472   3.471 -0.4475  0.5180  0.5842
 2775TIP3    H1 8289   2.897   2.399   3.431  0.1793  0.5842  1.1786
 2775TIP3    H2 8290   2.873   2.467   3.564  0.2651  1.9421  0.5132
 2776TIP3   OH2 8291   6.465   5.575   1.671  0.3277 -0.4570 -0.3147
 2776TIP3    H1 8292   6.529   5.521   1.626  1.3050  0.8885 -0.5997
 2776TIP3    H2 8293   6.460   5.539   1.760  1.0080 -0.9608 -0.4802
 2777TIP3   OH2 8294   0.706   0.369   3.086 -0.1117  0.6093 -0.1886
 2777TIP3    H1 8295   0.615   0.363   3.057  0.0288  0.6169 -0.6425
 2777TIP3    H2 8296   0.755   0.318   3.022  0.2410  0.8633 -0.1227
 2778TIP3   OH2 8297   1.281   5.924   1.832 -0.8202  0.4038 -0.0741
 2778TIP3    H1 8298   1.205   5.982   1.844  0.0823  1.8015 -0.9136
 2778TIP3    H2 8299   1.267   5.885   1.746 -1.3814 -0.5876  0.4536
 2779TIP3   OH2 8300   0.368   6.153   1.919 -0.0600  0.3066  0.7451
 2779TIP3    H1 8301   0.381   6.218   1.988 -0.6032  0.7780  0.4196
 2779TIP3    H2 8302   0.418   6.077   1.948 -0.7574  0.2747  1.9533
 2780TIP3   OH2 8303   5.270   5.334   1.561  0.4237 -0.1446  0.2350
 2780TIP3    H1 8304   5.231   5.408   1.608  0.7931  0.0419  0.2499
 2780TIP3    H2 8305   5.323   5.289   1.627 -0.0067 -0.5806  0.2936
 2781TIP3   OH2 8306   2.262   5.535   1.227  0.1401  0.3562  0.0847
 2781TIP3    H1 8307   2.335   5.537   1.289 -0.4902 -0.6409  0.8926
 2781TIP3    H2 8308   2.202   5.602   1.259  0.8442  1.4483 -0.8025
 2782TIP3   OH2 8309   6.306   5.883   2.000  0.2849  0.8554 -0.0648
 2782TIP3    H1 8310   6.261   5.892   2.084 -0.0941 -0.6582 -0.0821
 2782TIP3    H2 8311   6.237   5.859   1.938  0.8025  0.4409 -0.4911
 2783TIP3   OH2 8312   1.253   5.818   0.430  0.2951  0.7415 -0.4102
 2783TIP3    H1 8313   1.191   5.774   0.372  1.3206 -0.6433 -0.4984
 2783TIP3    H2 8314   1.275   5.900   0.385 -1.1981  1.1324 -0.5126
 2784TIP3   OH2 8315   6.066   3.066   0.434  0.3198 -0.1732  0.0426
 2784TIP3    H1 8316   6.108   3.147   0.406 -1.3565  0.6612 -0.1567
 2784TIP3    H2 8317   5.986   3.061   0.381 -0.7680 -0.7602  1.6517
 2785TIP3   OH2 8318   0.422   5.432   2.272 -0.1834  0.1320 -0.2018
 2785TIP3    H1 8319   0.435   5.464   2.183 -1.6579  0.2636 -0.3891
 2785TIP3    H2 8320   0.460   5.344   2.271  0.3342  0.3498 -0.7843
 2786TIP3   OH2 8321   4.351   2.397   4.707 -0.7675  0.1681 -0.2923
 2786TIP3    H1 8322   4.311   2.311   4.697 -1.3361  0.1415  1.6446
 2786TIP3    H2 8323   4.278   2.453   4.737  0.6065 -0.1111  4.4552
 2787TIP3   OH2 8324   6.916   2.069   3.432  0.0964 -0.0476  0.0481
 2787TIP3    H1 8325   6.996   2.032   3.471 -0.1821 -0.4508  0.2371
 2787TIP3    H2 8326   6.941   2.159   3.410  0.8696 -0.4233 -0.6778
 2788TIP3   OH2 8327   1.211   2.324   1.669  0.0336 -0.0622 -0.1083
 2788TIP3    H1 8328   1.270   2.323   1.594 -1.0064 -1.5623 -0.9611
 2788TIP3    H2 8329   1.265   2.354   1.742  1.4559 -0.0106 -1.1485
 2789TIP3   OH2 8330   0.879   1.994   5.772  0.1471  0.1731 -0.2082
 2789TIP3    H1 8331   0.876   2.084   5.802  0.1417  0.2825 -0.5313
 2789TIP3    H2 8332   0.797   1.982   5.723  0.6193  0.3114 -1.0525
 2790TIP3   OH2 8333   2.208   1.765   2.431 -0.3178 -0.5403  0.0241
 2790TIP3    H1 8334   2.224   1.831   2.363 -1.1270  0.3255  0.6469
 2790TIP3    H2 8335   2.162   1.813   2.500  1.3617 -1.1382  1.6548
 2791TIP3   OH2 8336   0.275   2.018   1.638 -0.2593 -0.1160 -0.3516
 2791TIP3    H1 8337   0.266   1.924   1.651  0.0460 -0.2286 -0.8978
 2791TIP3    H2 8338   0.359   2.040   1.679 -0.8010  0.1035  0.6619
 2792TIP3   OH2 8339   6.661   6.137   3.186  0.5642  0.1305  0.3447
 2792TIP3    H1 8340   6.600   6.074   3.147  0.4856 -0.1640  0.9151
 2792TIP3    H2 8341   6.747   6.098   3.172  0.6471  0.6758 -0.6930
 2793TIP3   OH2 8342   1.275   2.794   5.440 -0.0332 -0.8377 -0.4606
 2793TIP3    H1 8343   1.250   2.703   5.420  1.1270 -0.9212 -1.6392
 2793TIP3    H2 8344   1.194   2.843   5.431 -0.3848 -1.5389 -1.3361
 2794TIP3   OH2 8345   6.131   5.345   4.047  0.0215  0.7237  0.0742
 2794TIP3    H1 8346   6.118   5.373   3.957  0.4813 -2.5533 -1.1344
 2794TIP3    H2 8347   6.058   5.384   4.096 -1.3733  0.9454 -2.0886
 2795TIP3   OH2 8348   7.015   4.675   0.459 -0.4678  0.2007 -0.3026
 2795TIP3    H1 8349   7.078   4.628   0.406 -1.8023 -0.0065 -1.7655
 2795TIP3    H2 8350   6.932   4.631   0.444 -1.3140  1.5537  0.1637
 2796TIP3   OH2 8351   4.438   6.022   0.571 -0.1990  0.4911  0.1958
 2796TIP3    H1 8352   4.463   5.987   0.656  0.8882  0.6452 -0.0446
 2796TIP3    H2 8353   4.461   6.115   0.575 -1.3845  0.7966  0.1956
 2797TIP3   OH2 8354   6.659   2.629   5.741 -0.2572 -0.0546 -0.4807
 2797TIP3    H1 8355   6.723   2.587   5.684 -0.9136 -0.3302 -1.0219
 2797TIP3    H2 8356   6.712   2.667   5.812  0.5176 -0.0978 -1.0237
 2798TIP3   OH2 8357   5.924   4.996   5.173  0.3203  0.5101  0.0578
 2798TIP3    H1 8358   6.012   5.030   5.187  0.3656 -0.0528  1.2236
 2798TIP3    H2 8359   5.918   4.920   5.230 -1.1551  0.9336  0.5140
 2799TIP3   OH2 8360   5.797   6.025   5.851 -0.1572  0.2376 -0.4923
 2799TIP3    H1 8361   5.704   6.008   5.866 -0.0573  0.1452  0.0386
 2799TIP3    H2 8362   5.841   5.946   5.883  0.0406 -0.1645 -1.6984
 2800TIP3   OH2 8363   0.248   5.345   5.636  0.5692  0.2056 -0.2726
 2800TIP3    H1 8364   0.163   5.311   5.611  1.2838 -0.1581 -2.3563
 2800TIP3    H2 8365   0.230   5.397   5.715 -1.0709 -2.1985  1.0570
 2801TIP3   OH2 8366   0.922   1.997   4.475  0.2462  0.2833  0.4443
 2801TIP3    H1 8367   0.980   2.048   4.531  2.1302  1.3156 -2.2265
 2801TIP3    H2 8368   0.980   1.936   4.429 -0.8395  0.7300 -1.6767
 2802TIP3   OH2 8369   6.920   1.033   3.415  0.2976  0.0031 -0.2785
 2802TIP3    H1 8370   7.002   1.082   3.424 -0.2786  0.8355  0.6752
 2802TIP3    H2 8371   6.898   1.041   3.322  0.9042  0.4339 -0.3939
 2803TIP3   OH2 8372   0.542   5.386   5.784 -0.9578 -0.0600  0.4233
 2803TIP3    H1 8373   0.528   5.479   5.799 -0.1321 -0.1504  1.9557
 2803TIP3    H2 8374   0.589   5.381   5.701 -1.6377  0.8266 -0.0299
 2804TIP3   OH2 8375   3.622   2.694   1.326  0.3072  0.3021  0.2100
 2804TIP3    H1 8376   3.635   2.727   1.415 -1.7633 -1.9704  1.5046
 2804TIP3    H2 8377   3.625   2.598   1.336 -2.1022 -0.0762 -1.7354
 2805TIP3   OH2 8378   2.577   6.760   4.970 -0.3112  0.1389  0.2422
 2805TIP3    H1 8379   2.612   6.723   4.889 -0.8824  1.1103 -0.4646
 2805TIP3    H2 8380   2.654   6.792   5.016 -0.1991  2.4071 -1.3795
 2806TIP3   OH2 8381   5.080   6.183   2.323  0.9869 -0.4697  0.2440
 2806TIP3    H1 8382   5.035   6.108   2.362  2.0531 -1.8394 -1.0390
 2806TIP3    H2 8383   5.156   6.198   2.378 -0.0936  0.8316  1.4885
 2807TIP3   OH2 8384   0.685   4.072   2.966  0.9441  0.2993 -0.3080
 2807TIP3    H1 8385   0.680   4.142   2.902  1.6581  2.3142  1.7132
 2807TIP3    H2 8386   0.778   4.053   2.974  0.9064  0.3677  0.3998
 2808TIP3   OH2 8387   3.226   2.923   3.053 -0.1919  0.1127 -0.4989
 2808TIP3    H1 8388   3.289   2.878   2.996  0.4238 -0.0019  0.2597
 2808TIP3    H2 8389   3.202   2.857   3.118 -0.3131  0.4733 -0.1813
 2809TIP3   OH2 8390   2.058   2.276   0.449 -0.6172  0.5095 -0.1894
 2809TIP3    H1 8391   2.021   2.254   0.534 -1.2667 -0.2372 -0.6509
 2809TIP3    H2 8392   1.983   2.277   0.390 -0.1726  1.0258 -0.7558
 2810TIP3   OH2 8393   3.928   6.670   0.970 -0.2025 -0.1992  0.3170
 2810TIP3    H1 8394   4.018   6.636   0.973  0.0844  0.5811  1.1394
 2810TIP3    H2 8395   3.938   6.763   0.989 -1.3915 -0.5083  2.8199
 2811TIP3   OH2 8396   0.537   1.331   4.788 -0.4485 -0.8146  0.0291
 2811TIP3    H1 8397   0.609   1.345   4.850  0.8405 -2.4639 -0.9968
 2811TIP3    H2 8398   0.551   1.395   4.719 -0.7159 -0.3125  0.4298
 2812TIP3   OH2 8399   1.847   2.199   1.581 -0.0376  0.1175 -0.2030
 2812TIP3    H1 8400   1.798   2.250   1.518  0.7455  0.3654 -0.6250
 2812TIP3    H2 8401   1.912   2.260   1.617 -1.4637  0.4402  2.0334
 2813TIP3   OH2 8402   3.921   4.509   2.323 -0.0395  0.3041  0.3382
 2813TIP3    H1 8403   3.885   4.468   2.244 -1.7777  0.2473  1.0990
 2813TIP3    H2 8404   3.844   4.526   2.378  0.6225  3.8149  0.4433
 2814TIP3   OH2 8405   4.232   6.160   1.312 -0.5718 -0.2138 -0.1513
 2814TIP3    H1 8406   4.288   6.083   1.326 -3.2721 -2.0156  1.8285
 2814TIP3    H2 8407   4.176   6.136   1.238 -1.5801 -0.3283  0.6170
 2815TIP3   OH2 8408   1.685   1.540   5.314 -0.7935  0.3887 -0.2209
 2815TIP3    H1 8409   1.614   1.531   5.378 -0.3037  0.0780  0.2924
 2815TIP3    H2 8410   1.765   1.529   5.366 -0.3290  1.6645 -0.6327
 2816TIP3   OH2 8411   6.276   4.862   0.806  0.0331 -0.5401 -0.3738
 2816TIP3    H1 8412   6.232   4.857   0.891 -1.8769  0.0668 -1.2722
 2816TIP3    H2 8413   6.269   4.774   0.770 -0.7834 -0.3665 -0.6571
 2817TIP3   OH2 8414   4.828   6.165   0.838 -0.3779 -0.5071  0.2513
 2817TIP3    H1 8415   4.741   6.138   0.867 -0.2995  1.4226  2.4950
 2817TIP3    H2 8416   4.883   6.156   0.915  0.8842  0.5448 -0.4895
 2818TIP3   OH2 8417   3.784   0.484   1.632  0.0117  0.2111  0.1602
 2818TIP3    H1 8418   3.809   0.560   1.684 -1.1667  0.5926  0.1834
 2818TIP3    H2 8419   3.758   0.418   1.696  1.4631 -0.4134  0.1657
 2819TIP3   OH2 8420   3.216   5.519   3.999 -0.7698  0.0538  0.3360
 2819TIP3    H1 8421   3.311   5.525   3.995 -0.8278  1.7768  0.7388
 2819TIP3    H2 8422   3.186   5.609   3.984 -2.2412 -0.1115  1.9476
 2820TIP3   OH2 8423   5.238   6.413   2.424 -0.3212  0.0301  0.7425
 2820TIP3    H1 8424   5.188   6.488   2.391 -1.6936 -1.3373 -0.4777
 2820TIP3    H2 8425   5.180   6.374   2.490  0.7526  0.5122  1.9977
 2821TIP3   OH2 8426   6.961   6.012   4.209  0.1475  0.0992  0.3127
 2821TIP3    H1 8427   6.920   5.967   4.135  1.4680  0.3261 -0.5898
 2821TIP3    H2 8428   6.990   5.941   4.267  0.1066 -0.1262  0.0606
 2822TIP3   OH2 8429   3.850   0.882   5.133 -0.4371 -0.0135 -0.5000
 2822TIP3    H1 8430   3.801   0.857   5.054  1.0052 -0.2493 -1.3498
 2822TIP3    H2 8431   3.784   0.884   5.202 -1.7899  0.3982 -1.7372
 2823TIP3   OH2 8432   2.618   3.607   3.571  0.5106  0.1266  0.0638
 2823TIP3    H1 8433   2.524   3.589   3.573  0.3507  0.7986 -0.7862
 2823TIP3    H2 8434   2.630   3.679   3.633  0.4094  0.2917 -0.1097
 2824TIP3   OH2 8435   6.398   2.275   2.129  0.2269 -0.3883  0.2344
 2824TIP3    H1 8436   6.368   2.319   2.050  0.3788 -0.1769  0.2953
 2824TIP3    H2 8437   6.489   2.302   2.138  0.3376 -0.7559  0.2404
 2825TIP3   OH2 8438   3.180   0.888   4.821 -0.3593 -0.4049  0.1145
 2825TIP3    H1 8439   3.125   0.869   4.746  0.2325 -0.1325 -0.3958
 2825TIP3    H2 8440   3.147   0.831   4.891 -0.7756 -0.8047 -0.4056
 2826TIP3   OH2 8441   2.744   2.244   2.150  1.0147 -0.5241 -0.2577
 2826TIP3    H1 8442   2.785   2.329   2.137  0.1166  0.3688  2.2026
 2826TIP3    H2 8443   2.665   2.247   2.097  1.4723 -0.2332 -0.9405
 2827TIP3   OH2 8444   6.976   0.552   5.000 -0.4851  0.1941  0.2288
 2827TIP3    H1 8445   7.040   0.514   5.060 -1.5058 -1.2482  0.4834
 2827TIP3    H2 8446   6.992   0.646   5.003  1.3731 -0.0966  0.5382
 2828TIP3   OH2 8447   3.961   1.050   4.168 -0.2070  0.1525  0.3971
 2828TIP3    H1 8448   3.890   1.041   4.104  0.6794 -1.0122 -0.4729
 2828TIP3    H2 8449   4.038   1.014   4.124  1.6476  3.7649  0.2528
 2829TIP3   OH2 8450   3.906   5.265   4.510 -0.8057 -0.4030 -0.3143
 2829TIP3    H1 8451   3.948   5.336   4.462 -1.4221  0.0289 -0.2341
 2829TIP3    H2 8452   3.815   5.294   4.519 -1.0811 -1.2428 -0.3558
 2830TIP3   OH2 8453   0.479   6.415   4.468 -0.1906  0.0797  0.0969
 2830TIP3    H1 8454   0.501   6.423   4.561  0.2105  1.2231 -0.0831
 2830TIP3    H2 8455   0.385   6.398   4.467 -0.0761 -0.6400  0.7321
 2831TIP3   OH2 8456   2.371   6.190   4.925  0.5934 -0.0234 -0.0075
 2831TIP3    H1 8457   2.349   6.281   4.904 -0.3138 -0.0284  0.8563
 2831TIP3    H2 8458   2.334   6.139   4.853  0.4508  0.2326 -0.1168
 2832TIP3   OH2 8459   0.172   5.827   5.232  0.0699 -0.6077  0.2954
 2832TIP3    H1 8460   0.218   5.910   5.224 -1.1018 -0.0516 -1.2635
 2832TIP3    H2 8461   0.240   5.760   5.230  0.8544  0.2021 -1.4631
 2833TIP3   OH2 8462   7.112   1.325   1.732  0.1567 -0.3215  0.0797
 2833TIP3    H1 8463   7.165   1.300   1.656  1.1557  0.5870  0.4528
 2833TIP3    H2 8464   7.173   1.319   1.806 -0.5764 -0.3603  0.6913
 2834TIP3   OH2 8465   1.970   5.178   4.887 -0.6170 -1.0421  0.5917
 2834TIP3    H1 8466   1.905   5.194   4.954  0.0013 -1.1916  1.2374
 2834TIP3    H2 8467   1.920   5.146   4.812 -1.3831 -0.2008  0.7308
 2835TIP3   OH2 8468   0.183   0.781   2.651 -0.3156  0.0968 -0.0826
 2835TIP3    H1 8469   0.120   0.852   2.634  1.5087  1.5372 -1.2487
 2835TIP3    H2 8470   0.157   0.712   2.591 -2.7889 -0.7717  1.8242
 2836TIP3   OH2 8471   5.546   1.722   4.902  0.2117  0.9151 -0.5210
 2836TIP3    H1 8472   5.521   1.671   4.979  2.1526 -1.0907 -1.0910
 2836TIP3    H2 8473   5.471   1.716   4.843 -0.8574  1.5392  0.7529
 2837TIP3   OH2 8474   4.639   0.402   4.316 -0.3903 -0.7661 -0.2384
 2837TIP3    H1 8475   4.681   0.357   4.242  0.4903  0.1838 -0.3464
 2837TIP3    H2 8476   4.591   0.475   4.276  1.7002  0.9734  0.2015
 2838TIP3   OH2 8477  -0.019   4.628   2.815 -0.2517 -0.3820  0.1891
 2838TIP3    H1 8478   0.048   4.663   2.756  3.1074 -3.1242  1.9783
 2838TIP3    H2 8479   0.001   4.668   2.900 -1.4218 -0.6595  0.6109
 2839TIP3   OH2 8480   1.737   0.799   1.925 -0.8322  0.0013 -0.6208
 2839TIP3    H1 8481   1.675   0.757   1.984 -0.2234  1.5274  1.2216
 2839TIP3    H2 8482   1.710   0.891   1.923  2.0623  1.0333  1.3796
 2840TIP3   OH2 8483   3.224   6.339   3.932 -0.4015  0.0671  0.4581
 2840TIP3    H1 8484   3.277   6.310   3.857  0.8334  1.2453  0.8450
 2840TIP3    H2 8485   3.277   6.318   4.008 -1.3252 -0.4247  0.9881
 2841TIP3   OH2 8486   5.225   2.510   5.187  0.2554 -0.2658 -0.1694
 2841TIP3    H1 8487   5.219   2.415   5.178 -0.2689 -0.3032  0.4767
 2841TIP3    H2 8488   5.243   2.541   5.098  1.1432 -1.0114 -0.2707
 2842TIP3   OH2 8489   5.073   3.314   5.441  0.3117  0.4975 -0.6353
 2842TIP3    H1 8490   5.035   3.394   5.477 -0.6191  0.2249 -0.9863
 2842TIP3    H2 8491   4.999   3.267   5.401  0.6303 -1.0617  0.5077
 2843TIP3   OH2 8492   3.454   5.443   3.736 -0.1348 -0.7630  0.0910
 2843TIP3    H1 8493   3.454   5.538   3.726  0.9942 -0.9220 -1.8200
 2843TIP3    H2 8494   3.372   5.415   3.698  0.6226 -0.7068 -1.6761
 2844TIP3   OH2 8495   3.816   3.247   1.214 -0.2132 -0.2771  0.0334
 2844TIP3    H1 8496   3.911   3.235   1.208 -0.1059 -1.0294  2.2422
 2844TIP3    H2 8497   3.781   3.158   1.218 -1.0033 -0.0028 -0.6332
 2845TIP3   OH2 8498   6.253   5.674   2.603  0.1405  0.2843 -0.7165
 2845TIP3    H1 8499   6.214   5.596   2.563  0.9252 -0.0850 -0.7993
 2845TIP3    H2 8500   6.182   5.715   2.651 -0.2661 -0.5365 -0.5950
 2846TIP3   OH2 8501   4.015   1.216   2.950 -0.0083  0.0116 -0.4165
 2846TIP3    H1 8502   4.088   1.208   2.889  0.5488 -0.3237  0.2947
 2846TIP3    H2 8503   3.938   1.224   2.893  0.6728  1.4847 -1.1804
 2847TIP3   OH2 8504   0.525   4.894   2.099  0.3117 -0.2413 -0.5398
 2847TIP3    H1 8505   0.438   4.854   2.092  0.5488 -0.4726 -3.3325
 2847TIP3    H2 8506   0.586   4.822   2.089  0.7924  0.1885 -0.7487
 2848TIP3   OH2 8507   5.843   3.653   0.861 -0.7260  0.0299  0.1924
 2848TIP3    H1 8508   5.937   3.669   0.872 -1.1991  2.8791  0.8547
 2848TIP3    H2 8509   5.824   3.683   0.772 -1.0507 -0.3572  0.1284
 2849TIP3   OH2 8510   1.011   2.199   3.821 -0.0165 -0.6639 -0.1287
 2849TIP3    H1 8511   1.081   2.219   3.883 -0.1303 -1.1113  0.1504
 2849TIP3    H2 8512   1.029   2.109   3.793  1.2553  0.2061 -2.3683
 2850TIP3   OH2 8513   1.988   2.698   1.006 -0.5845 -0.1366  0.3974
 2850TIP3    H1 8514   2.050   2.649   0.952 -0.9423 -1.0974  0.8342
 2850TIP3    H2 8515   1.926   2.632   1.038 -0.1341  0.3194  2.3397
 2851TIP3   OH2 8516   5.380   0.073   0.269 -0.0004 -0.2433  0.3158
 2851TIP3    H1 8517   5.382   0.163   0.235 -1.7655 -0.7255 -1.2399
 2851TIP3    H2 8518   5.420   0.020   0.200 -0.0021 -0.7914  0.7288
 2852TIP3   OH2 8519   2.595   5.042   4.277  0.0585  0.0377  0.1764
 2852TIP3    H1 8520   2.675   5.042   4.225 -0.0011 -1.4170  0.0289
 2852TIP3    H2 8521   2.524   5.047   4.212  0.0071  1.5018  0.3153
 2853TIP3   OH2 8522   4.035   4.581   0.860  0.3795 -0.2604  0.1367
 2853TIP3    H1 8523   4.045   4.498   0.813  0.4634  0.0534 -0.4167
 2853TIP3    H2 8524   4.120   4.623   0.851  1.5283 -1.5871  3.3884
 2854TIP3   OH2 8525   6.102   5.196   0.425  0.3112  0.2195  0.1363
 2854TIP3    H1 8526   6.135   5.275   0.469  3.1570  0.3358 -1.9432
 2854TIP3    H2 8527   6.028   5.226   0.373  0.7885  1.3187  0.0745
 2855TIP3   OH2 8528   1.621   4.770   3.032 -0.0620  0.0030  0.0142
 2855TIP3    H1 8529   1.663   4.856   3.032  0.3648 -0.1883 -1.5037
 2855TIP3    H2 8530   1.608   4.749   2.940 -2.1740 -0.6133  0.3903
 2856TIP3   OH2 8531   4.256   0.941   4.959  0.6321  0.1400  0.2959
 2856TIP3    H1 8532   4.285   0.999   4.889 -0.2028 -0.8609 -0.9147
 2856TIP3    H2 8533   4.298   0.857   4.939  1.9763  0.3105  2.1212
 2857TIP3   OH2 8534   5.054   0.576   1.853 -0.3414 -0.1610 -0.0683
 2857TIP3    H1 8535   5.060   0.566   1.948 -4.5531 -0.2637  0.3480
 2857TIP3    H2 8536   5.091   0.663   1.837 -0.0688  0.1077  1.7413
 2858TIP3   OH2 8537   6.214   4.837   5.655 -0.0591 -0.4408 -1.0473
 2858TIP3    H1 8538   6.154   4.910   5.635 -0.3772 -0.7811 -1.3616
 2858TIP3    H2 8539   6.256   4.817   5.571 -0.1527 -0.7753 -1.0152
 2859TIP3   OH2 8540   6.652   3.976   1.274 -0.5734 -0.4970  0.8882
 2859TIP3    H1 8541   6.583   4.027   1.317 -0.4789  0.2918  0.1266
 2859TIP3    H2 8542   6.607   3.927   1.206 -0.7749 -1.9987  2.0569
 2860TIP3   OH2 8543   6.636   1.510   2.811 -0.0611 -0.0382  0.0788
 2860TIP3    H1 8544   6.702   1.547   2.869 -0.1920 -0.9651  0.8566
 2860TIP3    H2 8545   6.668   1.422   2.790 -0.3242  0.0468 -0.7527
 2861TIP3   OH2 8546   2.425   3.353   3.689 -0.5455  0.1804  0.2214
 2861TIP3    H1 8547   2.512   3.353   3.729 -0.9395  1.1279  1.1139
 2861TIP3    H2 8548   2.386   3.269   3.715 -0.0593 -0.0646  0.1676
 2862TIP3   OH2 8549   2.155   1.839   0.741  0.1094 -0.2584 -0.0132
 2862TIP3    H1 8550   2.145   1.745   0.758 -0.3262 -0.6000 -1.8730
 2862TIP3    H2 8551   2.237   1.845   0.691  0.7364  0.5170  1.0646
 2863TIP3   OH2 8552   2.106   6.415   0.625  0.1772 -0.4171  0.2160
 2863TIP3    H1 8553   2.134   6.506   0.639  0.5033 -0.9080  3.5573
 2863TIP3    H2 8554   2.074   6.387   0.710 -1.4273 -2.9903 -1.1238
 2864TIP3   OH2 8555   3.753   2.188   0.078 -0.4413  0.6711 -0.4872
 2864TIP3    H1 8556   3.828   2.175   0.136  0.9175 -0.2660 -2.3701
 2864TIP3    H2 8557   3.739   2.283   0.079  0.3183  0.7885  0.4350
 2865TIP3   OH2 8558   3.941   3.464   4.247  0.0357  0.3179  0.5360
 2865TIP3    H1 8559   3.875   3.529   4.271  0.6791  0.5896  1.6430
 2865TIP3    H2 8560   4.024   3.510   4.258  0.4595 -0.3636  0.2432
 2866TIP3   OH2 8561   1.848   1.160   1.971 -0.1273  0.7902  1.0327
 2866TIP3    H1 8562   1.829   1.242   2.017 -0.8603  1.1048  0.1863
 2866TIP3    H2 8563   1.763   1.131   1.938  0.6024  1.5724 -1.7792
 2867TIP3   OH2 8564   1.689   1.203   5.488  0.0765  0.1628  0.2835
 2867TIP3    H1 8565   1.725   1.131   5.539 -0.9222  0.4478  1.4406
 2867TIP3    H2 8566   1.761   1.231   5.431  0.6118 -1.4336  0.1401
 2868TIP3   OH2 8567   0.211   1.863   2.496  0.2807 -0.0427  0.1359
 2868TIP3    H1 8568   0.302   1.853   2.467  0.4683  0.0157  0.6842
 2868TIP3    H2 8569   0.206   1.809   2.575  0.0298  0.4976  0.4972
 2869TIP3   OH2 8570   0.005   3.021   1.464 -0.0951  0.1986  0.8515
 2869TIP3    H1 8571   0.016   3.025   1.559  3.0412 -1.3572  0.6820
 2869TIP3    H2 8572   0.053   3.097   1.432  2.0473 -1.2063  0.4742
 2870TIP3   OH2 8573   1.753   3.813   2.776 -0.5326  0.4825 -0.1585
 2870TIP3    H1 8574   1.812   3.741   2.753 -1.4908  0.0663 -1.3932
 2870TIP3    H2 8575   1.682   3.772   2.825  0.6424  1.1301  2.2681
 2871TIP3   OH2 8576   5.483   5.090   3.575  0.2860  0.3105  0.2718
 2871TIP3    H1 8577   5.499   4.996   3.565 -3.0135 -0.5219  1.5258
 2871TIP3    H2 8578   5.515   5.128   3.493  1.3686 -1.9302 -0.4397
 2872TIP3   OH2 8579   4.669   5.962   2.916  0.0463  0.4865  0.5796
 2872TIP3    H1 8580   4.585   5.926   2.941 -0.2402  1.3691  0.9505
 2872TIP3    H2 8581   4.718   5.969   2.998  0.9085 -1.0481  0.2211
 2873TIP3   OH2 8582   0.231   2.464   5.514  0.4155  0.0363  0.0230
 2873TIP3    H1 8583   0.217   2.371   5.533 -0.8694  0.1714 -0.1250
 2873TIP3    H2 8584   0.320   2.482   5.543  1.2244 -1.5889 -1.3302
 2874TIP3   OH2 8585   3.777   5.701   2.691  0.9359  0.1785 -0.2351
 2874TIP3    H1 8586   3.683   5.713   2.708 -0.0601 -2.5802 -2.7955
 2874TIP3    H2 8587   3.812   5.789   2.688 -1.4048  1.2911  1.5058
 2875TIP3   OH2 8588   6.902   6.532   1.364 -0.6682  0.2053  0.7181
 2875TIP3    H1 8589   6.963   6.558   1.433 -1.4008 -1.0609  1.8704
 2875TIP3    H2 8590   6.941   6.454   1.325  0.7721  2.0047 -1.7462
 2876TIP3   OH2 8591   6.762   3.844   5.634 -0.0230 -0.4031  0.1656
 2876TIP3    H1 8592   6.685   3.819   5.584 -0.5551  0.2156  0.6572
 2876TIP3    H2 8593   6.785   3.766   5.685  0.2564 -0.8884 -0.6948
 2877TIP3   OH2 8594   1.600   2.582   1.949  0.4097 -0.3918  0.4954
 2877TIP3    H1 8595   1.547   2.645   1.998  0.8333  1.1249 -0.8858
 2877TIP3    H2 8596   1.586   2.607   1.857 -1.4829 -3.9750 -0.3646
 2878TIP3   OH2 8597   1.618   6.420   1.951  0.6385 -0.4658  0.3891
 2878TIP3    H1 8598   1.681   6.352   1.925  1.3382  0.6461 -0.9455
 2878TIP3    H2 8599   1.539   6.371   1.975  0.0791 -1.7662 -3.3758
 2879TIP3   OH2 8600   0.668   5.288   2.488  0.0435 -0.2604 -0.8282
 2879TIP3    H1 8601   0.608   5.316   2.557  1.4796  2.6862 -0.5955
 2879TIP3    H2 8602   0.706   5.206   2.520 -1.9323 -0.8266  0.1735
 2880TIP3   OH2 8603   6.344   0.582   3.767 -0.1565  0.2331 -0.1027
 2880TIP3    H1 8604   6.375   0.638   3.696 -1.5516  1.7879  0.4411
 2880TIP3    H2 8605   6.288   0.639   3.819  2.0932 -0.3138  3.2599
 2881TIP3   OH2 8606   3.888   5.091   1.226  0.0666 -0.0533  0.3590
 2881TIP3    H1 8607   3.841   5.155   1.280 -0.3681  0.1568 -0.2667
 2881TIP3    H2 8608   3.888   5.011   1.279  0.9018  0.5407  1.2895
 2882TIP3   OH2 8609   0.638   3.260   4.038 -0.1182 -0.6902  0.1926
 2882TIP3    H1 8610   0.680   3.248   4.123  0.8781 -0.2409 -0.2070
 2882TIP3    H2 8611   0.695   3.214   3.977 -0.2464 -0.1361 -0.3595
 2883TIP3   OH2 8612   5.186   3.823   4.716  0.0451  0.2364  0.1811
 2883TIP3    H1 8613   5.099   3.822   4.676  0.2159  0.0831 -0.1936
 2883TIP3    H2 8614   5.215   3.914   4.708 -0.3148  0.4184  0.8352
 2884TIP3   OH2 8615   7.126   5.926   3.056 -0.4842 -0.0763  0.1993
 2884TIP3    H1 8616   7.109   5.981   2.980 -0.3939 -0.9409 -0.4684
 2884TIP3    H2 8617   7.146   5.840   3.019  0.6729 -0.2432  1.1460
 2885TIP3   OH2 8618   6.358   1.460   1.284 -0.7168 -0.3024  0.3014
 2885TIP3    H1 8619   6.384   1.397   1.217 -0.3725  0.0814  0.0676
 2885TIP3    H2 8620   6.432   1.521   1.290 -0.9179 -0.0918  0.7344
 2886TIP3   OH2 8621   1.308   3.478   5.732  0.3448 -0.1566  0.2278
 2886TIP3    H1 8622   1.298   3.383   5.723 -1.2118 -0.0762  0.8230
 2886TIP3    H2 8623   1.308   3.494   5.826  0.4730  0.4529  0.1309
 2887TIP3   OH2 8624   4.000   5.720   5.606  0.0418 -0.1270  0.3163
 2887TIP3    H1 8625   3.949   5.689   5.680 -0.4761 -3.9790 -1.3691
 2887TIP3    H2 8626   4.091   5.702   5.630 -0.1222 -1.3265  0.1291
 2888TIP3   OH2 8627   6.581   1.113   4.685 -0.5776  0.6332 -1.0312
 2888TIP3    H1 8628   6.523   1.052   4.639 -4.4740  1.8067  1.8468
 2888TIP3    H2 8629   6.597   1.183   4.622  1.4991 -1.7285 -3.3501
 2889TIP3   OH2 8630   0.273   0.335   3.608  0.3327  0.0732 -0.9004
 2889TIP3    H1 8631   0.182   0.357   3.626  0.1520  0.3584 -2.0783
 2889TIP3    H2 8632   0.322   0.369   3.683 -0.3936  0.9676 -0.8192
 2890TIP3   OH2 8633   2.607   6.029   1.016  0.1251 -0.5855  0.6529
 2890TIP3    H1 8634   2.613   5.933   1.021 -1.6567 -0.7135  0.7327
 2890TIP3    H2 8635   2.589   6.056   1.106  1.1123 -0.1139  0.7223
 2891TIP3   OH2 8636   1.646   3.189   5.307 -0.0606 -0.4911 -0.4943
 2891TIP3    H1 8637   1.588   3.262   5.286  0.6744  0.9939  2.1253
 2891TIP3    H2 8638   1.588   3.119   5.337 -0.6317  0.3066  0.3187
 2892TIP3   OH2 8639   3.355   1.207   0.579  0.2046  0.1780  0.7767
 2892TIP3    H1 8640   3.335   1.122   0.539  1.2353  0.5310 -0.5666
 2892TIP3    H2 8641   3.451   1.213   0.575  0.0814  2.0273 -0.5337
 2893TIP3   OH2 8642   6.194   1.124   2.111  0.3382 -0.2010  0.2694
 2893TIP3    H1 8643   6.211   1.075   2.191 -0.8457  1.3032  1.5036
 2893TIP3    H2 8644   6.280   1.150   2.079  0.8168 -0.7328  1.0943
 2894TIP3   OH2 8645   4.429   2.194   3.583 -0.1966  0.0315 -0.1716
 2894TIP3    H1 8646   4.413   2.100   3.582  0.3559 -0.0970  1.4305
 2894TIP3    H2 8647   4.341   2.233   3.583 -0.4696 -0.5342  0.9361
 2895TIP3   OH2 8648   0.445   3.413   4.942 -0.2469 -0.0269 -0.1093
 2895TIP3    H1 8649   0.488   3.497   4.955  2.0359 -1.1032 -0.2160
 2895TIP3    H2 8650   0.382   3.406   5.014  1.0912  0.8232  1.1881
 2896TIP3   OH2 8651   1.171   5.498   1.406 -0.0247  0.7705 -0.1669
 2896TIP3    H1 8652   1.212   5.533   1.486  1.2265  0.6511 -0.7275
 2896TIP3    H2 8653   1.215   5.544   1.335  0.7086 -0.9464 -0.8744
 2897TIP3   OH2 8654   5.374   5.325   1.050 -0.4827 -0.4251  0.0808
 2897TIP3    H1 8655   5.299   5.303   0.994  0.0570 -0.9262 -0.4670
 2897TIP3    H2 8656   5.450   5.296   0.999  0.4255  3.5836 -1.1770
 2898TIP3   OH2 8657   6.726   3.665   5.304 -0.2204 -0.5839 -0.3740
 2898TIP3    H1 8658   6.817   3.683   5.328  0.0999  0.1862 -2.0445
 2898TIP3    H2 8659   6.731   3.588   5.247 -0.2446  0.9742 -2.6175
 2899TIP3   OH2 8660   2.863   0.236   3.501 -0.1406  0.1564  0.3809
 2899TIP3    H1 8661   2.864   0.183   3.422  1.1313  1.1149 -0.2792
 2899TIP3    H2 8662   2.770   0.247   3.521 -0.4648 -0.8876 -0.4114
 2900TIP3   OH2 8663   5.892   2.400   2.828  0.1566 -0.0608 -0.3943
 2900TIP3    H1 8664   5.861   2.402   2.737  0.3613  0.8436 -0.4480
 2900TIP3    H2 8665   5.843   2.470   2.871 -0.2201 -0.7288  0.2988
 2901TIP3   OH2 8666   0.449   1.308   3.398  0.6431 -0.0323 -1.1618
 2901TIP3    H1 8667   0.509   1.254   3.449  1.8166  1.2007 -1.1554
 2901TIP3    H2 8668   0.504   1.379   3.364 -0.7847  1.0638 -1.2949
 2902TIP3   OH2 8669   3.256   1.602   5.245  0.2481  0.6266  0.2811
 2902TIP3    H1 8670   3.179   1.655   5.227 -0.8955 -1.6895 -2.1840
 2902TIP3    H2 8671   3.310   1.611   5.167  1.7149  0.8314  1.2689
 2903TIP3   OH2 8672   0.135   3.345   0.285  0.1858 -0.4641 -0.2952
 2903TIP3    H1 8673   0.129   3.427   0.236  0.6196 -1.1363 -1.5314
 2903TIP3    H2 8674   0.207   3.298   0.242  0.3040 -1.2548  0.7494
 2904TIP3   OH2 8675   5.178   5.036   4.279  0.1699  0.7688  0.2412
 2904TIP3    H1 8676   5.164   5.125   4.246 -0.0997  0.1217 -1.4660
 2904TIP3    H2 8677   5.139   5.037   4.366 -0.9200  1.9897 -0.2263
 2905TIP3   OH2 8678   1.169   0.240   2.457 -0.1549  0.0966  0.3674
 2905TIP3    H1 8679   1.106   0.221   2.526 -1.6767 -0.9695 -1.2464
 2905TIP3    H2 8680   1.204   0.155   2.431 -0.1021  0.3929 -0.5971
 2906TIP3   OH2 8681   0.471   2.684   0.346  0.0383  0.3102  0.1377
 2906TIP3    H1 8682   0.510   2.670   0.432 -1.0200  1.4438  0.8491
 2906TIP3    H2 8683   0.455   2.596   0.311  1.5616 -0.1591  0.5673
 2907TIP3   OH2 8684   4.761   6.733   3.745  0.2368 -0.4104  0.2210
 2907TIP3    H1 8685   4.717   6.687   3.816  0.2039  1.2903  1.3623
 2907TIP3    H2 8686   4.851   6.744   3.777  0.8829 -1.7242 -1.0504
 2908TIP3   OH2 8687   6.171   0.984   1.117 -0.4880  0.1822  0.2583
 2908TIP3    H1 8688   6.103   1.045   1.090 -1.5128 -1.5072 -1.1571
 2908TIP3    H2 8689   6.145   0.956   1.205 -0.6695  0.8316  0.4177
 2909TIP3   OH2 8690   2.131   6.394   2.955  0.1671 -0.5624 -0.3849
 2909TIP3    H1 8691   2.154   6.486   2.949 -0.7588 -0.1285  1.8361
 2909TIP3    H2 8692   2.039   6.390   2.930  0.1347 -0.8455 -0.2299
 2910TIP3   OH2 8693   6.934   0.919   2.731  0.4765  0.5937  0.0542
 2910TIP3    H1 8694   6.842   0.911   2.757  0.8624  2.4042  2.2127
 2910TIP3    H2 8695   6.977   0.962   2.805  3.0718 -0.1189 -0.9295
 2911TIP3   OH2 8696   0.954   3.440   1.020 -0.0534 -0.1661 -0.1355
 2911TIP3    H1 8697   1.011   3.509   0.987 -0.3961 -0.9741 -2.5936
 2911TIP3    H2 8698   0.996   3.412   1.101  1.6410  0.9874 -0.5522
 2912TIP3   OH2 8699   3.835   5.088   5.687  0.2216 -0.4397  0.0027
 2912TIP3    H1 8700   3.826   5.172   5.732  5.3914  1.3202 -1.5016
 2912TIP3    H2 8701   3.748   5.071   5.650 -1.8208  2.6480  2.7910
 2913TIP3   OH2 8702   6.541   3.225   2.135 -0.5370  0.3730 -0.1018
 2913TIP3    H1 8703   6.515   3.139   2.168  0.1877  0.2044  0.0462
 2913TIP3    H2 8704   6.604   3.257   2.199 -1.6565  1.5257  0.4651
 2914TIP3   OH2 8705   2.643   2.027   1.914  0.8042 -0.4588  0.0847
 2914TIP3    H1 8706   2.695   1.949   1.897  1.7630  0.2008 -0.0655
 2914TIP3    H2 8707   2.614   2.056   1.827  1.2071 -0.1379  0.0558
 2915TIP3   OH2 8708   6.497   1.190   1.341 -0.0291 -0.3872  0.0977
 2915TIP3    H1 8709   6.470   1.245   1.414 -1.3414 -0.1610 -0.5339
 2915TIP3    H2 8710   6.593   1.193   1.343 -0.0620  0.4096  1.1936
 2916TIP3   OH2 8711   5.083   4.504   4.848  0.1025 -0.7316  0.1442
 2916TIP3    H1 8712   5.036   4.421   4.845  0.0210 -0.6631 -1.7080
 2916TIP3    H2 8713   5.173   4.480   4.867 -0.1422 -1.1275  0.8252
 2917TIP3   OH2 8714   7.177   3.164   0.804 -0.1828  0.5311  1.0049
 2917TIP3    H1 8715   7.180   3.180   0.709 -1.7738 -2.3529  0.3253
 2917TIP3    H2 8716   7.269   3.156   0.829  0.4130 -3.3124 -1.4122
 2918TIP3   OH2 8717   4.145   4.098   4.088  0.1586  0.4052  0.0373
 2918TIP3    H1 8718   4.097   4.124   4.009  2.0392  1.2416 -0.8990
 2918TIP3    H2 8719   4.218   4.160   4.093  0.3970  0.0305  2.1552
 2919TIP3   OH2 8720   1.394   1.185   3.906 -0.2306  0.7611 -0.4100
 2919TIP3    H1 8721   1.453   1.237   3.851 -0.5332  1.4296 -0.1150
 2919TIP3    H2 8722   1.425   1.200   3.995  1.6526 -2.0366 -0.4493
 2920TIP3   OH2 8723   0.361   2.285   0.175  0.0579  0.6153 -0.0152
 2920TIP3    H1 8724   0.296   2.354   0.185  0.5793  1.0063  0.7920
 2920TIP3    H2 8725   0.445   2.330   0.180  0.4155 -0.1140  1.0192
 2921TIP3   OH2 8726   1.242   4.645   0.450  0.4615  0.5608  0.4363
 2921TIP3    H1 8727   1.175   4.702   0.487  0.3997  0.2864  0.7578
 2921TIP3    H2 8728   1.307   4.704   0.413 -1.2742  0.8804 -2.4161
 2922TIP3   OH2 8729   3.325   3.049   2.176 -0.4651 -0.3104  0.0318
 2922TIP3    H1 8730   3.373   3.044   2.259 -0.1814  0.1178 -0.1065
 2922TIP3    H2 8731   3.392   3.068   2.111 -0.8536  0.5717 -0.1225
 2923TIP3   OH2 8732   1.310   1.478   4.185  0.2088 -0.8531 -0.4520
 2923TIP3    H1 8733   1.259   1.552   4.153  0.1579 -0.5821  0.2351
 2923TIP3    H2 8734   1.311   1.416   4.112 -0.9354 -0.7775 -0.5544
 2924TIP3   OH2 8735   3.723   6.692   3.551 -0.4718 -0.6070 -0.1678
 2924TIP3    H1 8736   3.655   6.635   3.586 -0.0066 -0.0981  1.6380
 2924TIP3    H2 8737   3.802   6.638   3.550 -0.8670 -1.2338 -2.3698
 2925TIP3   OH2 8738   3.170   1.434   1.609 -0.8560 -0.1668  0.2634
 2925TIP3    H1 8739   3.193   1.393   1.525  2.0314  0.1910  0.7556
 2925TIP3    H2 8740   3.158   1.526   1.588  1.7069  0.2729  0.4070
 2926TIP3   OH2 8741   0.450   1.918   2.849  0.3165  0.5267 -0.4538
 2926TIP3    H1 8742   0.538   1.948   2.871  0.4237  0.1733 -0.3802
 2926TIP3    H2 8743   0.418   1.981   2.785  1.4624 -0.5183 -2.1550
 2927TIP3   OH2 8744   4.773   4.278   3.777 -0.6655 -0.3232 -0.4936
 2927TIP3    H1 8745   4.840   4.216   3.750  0.2890 -0.3298  1.6667
 2927TIP3    H2 8746   4.806   4.363   3.749  0.5725 -0.2649  0.9990
 2928TIP3   OH2 8747   7.046   4.306   3.710 -0.0058 -0.3509  0.9892
 2928TIP3    H1 8748   6.951   4.297   3.722 -0.3710  2.2182  0.6674
 2928TIP3    H2 8749   7.079   4.327   3.798  0.6364 -3.2063  1.5194
 2929TIP3   OH2 8750   3.507   2.061   0.011  0.0690 -0.4470  0.3832
 2929TIP3    H1 8751   3.449   2.046   0.086  0.6249  0.1495  0.9502
 2929TIP3    H2 8752   3.586   2.099   0.050 -0.3182  1.5498 -0.6724
 2930TIP3   OH2 8753   4.114   4.588   2.501 -0.1053 -0.2915 -0.3686
 2930TIP3    H1 8754   4.193   4.613   2.452  0.4269 -0.9462  0.1468
 2930TIP3    H2 8755   4.051   4.564   2.433 -0.3831  1.6252 -0.8606
 2931TIP3   OH2 8756   4.344   2.017   4.633 -0.6027 -1.4016 -0.0998
 2931TIP3    H1 8757   4.385   1.941   4.591  0.4772 -1.8712  1.7174
 2931TIP3    H2 8758   4.392   2.029   4.715 -1.9888  0.0793  0.5594
 2932TIP3   OH2 8759   3.428   1.490   2.542 -0.1938  0.0309  0.0338
 2932TIP3    H1 8760   3.376   1.506   2.463  0.2319  2.5768  0.1750
 2932TIP3    H2 8761   3.418   1.397   2.559 -0.7189 -0.4965 -2.7242
 2933TIP3   OH2 8762   3.853   6.134   3.369 -0.0387  0.6894  0.4126
 2933TIP3    H1 8763   3.772   6.157   3.325 -0.7317 -1.2323  0.5873
 2933TIP3    H2 8764   3.841   6.162   3.459 -1.4442 -1.5055  0.9673
 2934TIP3   OH2 8765   6.910   6.600   3.116  0.3259  0.2267 -0.0139
 2934TIP3    H1 8766   6.846   6.553   3.168 -0.9019  0.3633 -1.3262
 2934TIP3    H2 8767   6.890   6.693   3.132 -0.7942  0.2788 -1.5192
 2935TIP3   OH2 8768   0.273   0.808   4.194 -0.8242  0.7071 -0.2245
 2935TIP3    H1 8769   0.267   0.753   4.116  0.3307  0.7669 -0.3716
 2935TIP3    H2 8770   0.182   0.824   4.218 -1.1944 -0.3663 -0.8077
 2936TIP3   OH2 8771   1.239   0.935   1.841  0.1602  0.2173 -0.2690
 2936TIP3    H1 8772   1.211   0.907   1.928  2.0279  0.1736  0.3664
 2936TIP3    H2 8773   1.214   1.028   1.836  0.9361  0.4959  0.7339
 2937TIP3   OH2 8774   4.328   4.973   2.579 -0.0256  0.2125  0.4595
 2937TIP3    H1 8775   4.417   4.956   2.610 -0.7710 -0.9338  2.1918
 2937TIP3    H2 8776   4.336   5.049   2.522  2.0614  0.0859  0.4990
 2938TIP3   OH2 8777   2.449   0.469   4.702 -0.4005  0.0206  0.2458
 2938TIP3    H1 8778   2.398   0.403   4.656 -0.9631  1.3402 -1.0855
 2938TIP3    H2 8779   2.535   0.430   4.713 -0.2564 -0.3469 -1.9470
 2939TIP3   OH2 8780   4.008   4.688   0.015 -0.0313  0.0746  0.0408
 2939TIP3    H1 8781   4.037   4.701  -0.076 -0.5016  0.6577 -0.0353
 2939TIP3    H2 8782   4.086   4.706   0.068  0.1750  0.0056 -0.2350
 2940TIP3   OH2 8783   2.685   5.758   4.505 -0.5931  0.1676 -0.3172
 2940TIP3    H1 8784   2.623   5.756   4.579 -0.6765 -0.4773 -0.3964
 2940TIP3    H2 8785   2.653   5.690   4.445  1.3317 -1.6862  0.6004
 2941TIP3   OH2 8786   4.413   5.090   4.467 -0.4707  0.7347  0.0628
 2941TIP3    H1 8787   4.377   5.094   4.378  0.0416 -3.4235 -0.5162
 2941TIP3    H2 8788   4.481   5.157   4.469 -1.5244  1.9719 -2.1162
 2942TIP3   OH2 8789   4.368   4.929   0.798  0.1588 -0.1958 -0.1331
 2942TIP3    H1 8790   4.303   4.999   0.800 -0.0263 -0.3806  0.6559
 2942TIP3    H2 8791   4.431   4.956   0.731  0.0396  0.6807  0.0998
 2943TIP3   OH2 8792   6.130   3.562   3.635  0.4423 -0.5677 -0.3887
 2943TIP3    H1 8793   6.092   3.538   3.551  0.5419  0.1995 -0.6546
 2943TIP3    H2 8794   6.224   3.558   3.621  0.4581 -0.1812 -0.3816
 2944TIP3   OH2 8795   4.678   1.455   2.793  0.4389 -0.4222  0.2927
 2944TIP3    H1 8796   4.766   1.477   2.825  1.7152 -2.0742 -1.7161
 2944TIP3    H2 8797   4.676   1.359   2.796 -0.7333 -0.4678 -1.0166
 2945TIP3   OH2 8798   5.664   0.605   5.177  0.4015  0.1432 -0.1965
 2945TIP3    H1 8799   5.691   0.645   5.095  1.5464  1.2724  0.6906
 2945TIP3    H2 8800   5.687   0.512   5.167  1.8700  0.5338 -0.6217
 2946TIP3   OH2 8801   5.990   3.850   2.799  0.2876  0.9157 -0.5852
 2946TIP3    H1 8802   6.081   3.863   2.771  0.8342  1.6351  1.3570
 2946TIP3    H2 8803   5.944   3.823   2.719  2.1757  0.6142 -1.6369
 2947TIP3   OH2 8804   1.458   2.781   3.445 -0.5499 -0.5144 -0.5357
 2947TIP3    H1 8805   1.544   2.798   3.407 -0.3922  0.4512  0.2308
 2947TIP3    H2 8806   1.405   2.749   3.371 -0.1124  0.8302 -1.4599
 2948TIP3   OH2 8807   7.045   3.707   3.776 -0.4107  0.3015 -0.2622
 2948TIP3    H1 8808   7.121   3.654   3.752 -1.3375 -1.1639 -0.0571
 2948TIP3    H2 8809   7.044   3.779   3.713  0.0323 -0.7333 -1.4713
 2949TIP3   OH2 8810   0.749   2.487   2.445  0.5059  0.0436  0.2279
 2949TIP3    H1 8811   0.718   2.516   2.359  0.7211 -0.1643  0.0795
 2949TIP3    H2 8812   0.675   2.504   2.504  0.9461  1.7514  0.3421
 2950TIP3   OH2 8813   1.559   2.134   4.351  0.2752  0.1605 -0.2599
 2950TIP3    H1 8814   1.525   2.219   4.324  1.2414  0.4945 -0.4801
 2950TIP3    H2 8815   1.525   2.121   4.439 -1.8693 -0.3509 -1.0951
 2951TIP3   OH2 8816   5.341   6.706   2.967  0.2420 -0.0658 -0.1088
 2951TIP3    H1 8817   5.363   6.668   3.053  1.0630 -0.2993 -0.4139
 2951TIP3    H2 8818   5.281   6.778   2.987  0.9375  0.2989  0.7236
 2952TIP3   OH2 8819   4.905   3.922   2.302 -0.0459  0.2074 -0.5386
 2952TIP3    H1 8820   4.968   3.860   2.265  1.2304 -0.4742  2.4311
 2952TIP3    H2 8821   4.952   4.005   2.306 -0.9555  0.8590 -2.3722
 2953TIP3   OH2 8822   1.338   4.469   0.988  0.1422 -0.6102  0.1323
 2953TIP3    H1 8823   1.286   4.521   1.049  0.3736 -0.4674  0.2068
 2953TIP3    H2 8824   1.379   4.402   1.043  0.8024 -0.1364  0.2241
 2954TIP3   OH2 8825   1.778   0.376   3.674 -0.3623  0.3285 -0.2191
 2954TIP3    H1 8826   1.740   0.317   3.609  0.3376 -1.3782  0.8584
 2954TIP3    H2 8827   1.847   0.423   3.626 -0.9336  0.3026 -1.0949
 2955TIP3   OH2 8828   0.913   5.965   5.641 -0.6441  0.1858 -0.2330
 2955TIP3    H1 8829   0.841   5.959   5.704 -0.1802 -2.0468  0.1695
 2955TIP3    H2 8830   0.987   5.996   5.692 -0.1504 -2.0544  0.5113
 2956TIP3   OH2 8831   0.373   0.911   2.459 -0.2144 -0.3380 -0.4031
 2956TIP3    H1 8832   0.370   0.835   2.401 -2.0828  0.8760 -2.0113
 2956TIP3    H2 8833   0.327   0.883   2.538 -1.1426 -0.8043 -1.0977
 2957TIP3   OH2 8834   0.957   2.774   1.149 -0.3943  1.3628  0.5091
 2957TIP3    H1 8835   0.894   2.793   1.218  0.3608 -1.0481  2.0071
 2957TIP3    H2 8836   1.022   2.717   1.191 -0.9451 -1.9119 -2.6021
 2958TIP3   OH2 8837   6.167   4.400  -0.005 -0.4875  0.2218  0.4334
 2958TIP3    H1 8838   6.218   4.423   0.072 -0.4537  0.2733  0.3959
 2958TIP3    H2 8839   6.103   4.336   0.026 -0.9624  0.7984  0.6620
 2959TIP3   OH2 8840   4.116   4.101   4.986  0.6309  0.1228  0.1261
 2959TIP3    H1 8841   4.131   4.145   4.903  1.2149 -2.9908 -1.5580
 2959TIP3    H2 8842   4.043   4.148   5.026  0.2718  1.6541 -2.1792
 2960TIP3   OH2 8843   0.378   6.294   2.186 -0.0334  0.4117  0.3415
 2960TIP3    H1 8844   0.378   6.228   2.256  0.3386  1.0078  0.9209
 2960TIP3    H2 8845   0.467   6.292   2.151 -0.0437  0.5467  0.3061
 2961TIP3   OH2 8846   4.061   5.782   0.066 -0.1357  0.1806 -0.3175
 2961TIP3    H1 8847   4.033   5.860   0.114 -1.8528 -1.7930  2.1029
 2961TIP3    H2 8848   4.150   5.765   0.097 -0.3376  0.2954  0.3316
 2962TIP3   OH2 8849   1.250   3.106   3.260  0.4792 -0.6501  0.4731
 2962TIP3    H1 8850   1.186   3.159   3.309  0.5960 -0.1257  0.0747
 2962TIP3    H2 8851   1.197   3.036   3.220  0.1405 -0.2122  0.1362
 2963TIP3   OH2 8852   3.902   6.631   4.359 -0.6136  0.0013  0.2016
 2963TIP3    H1 8853   3.921   6.651   4.267 -0.7912 -0.5971  0.0314
 2963TIP3    H2 8854   3.908   6.716   4.403  0.1111  0.1982 -0.2494
 2964TIP3   OH2 8855   1.198   6.403   3.017  0.2558 -0.6501 -0.0456
 2964TIP3    H1 8856   1.160   6.447   3.092  0.0330 -1.3787  0.2793
 2964TIP3    H2 8857   1.269   6.350   3.053  0.9128 -0.0973 -0.5098
 2965TIP3   OH2 8858   2.332   1.693   5.789 -0.3513 -0.3597  0.0034
 2965TIP3    H1 8859   2.243   1.672   5.759 -0.9702 -0.1026  1.5776
 2965TIP3    H2 8860   2.373   1.737   5.715 -3.0690  3.7745  0.6610
 2966TIP3   OH2 8861   0.867   2.602   0.755  0.1708  0.8392 -0.3449
 2966TIP3    H1 8862   0.803   2.663   0.791 -2.3791 -1.7452 -0.1555
 2966TIP3    H2 8863   0.869   2.622   0.662 -1.1249  0.8484 -0.3912
 2967TIP3   OH2 8864   2.194   3.893   3.010  0.8331  0.3422  0.5030
 2967TIP3    H1 8865   2.117   3.837   3.013  0.4220  0.9112  0.6406
 2967TIP3    H2 8866   2.261   3.845   3.059  1.1900 -1.0701 -1.2273
 2968TIP3   OH2 8867   7.044   2.834   2.304 -0.2969  0.0501 -0.9524
 2968TIP3    H1 8868   6.950   2.816   2.300 -0.6407  1.7796 -1.4671
 2968TIP3    H2 8869   7.060   2.857   2.396 -0.3187 -0.4100 -0.8265
 2969TIP3   OH2 8870   5.181   6.053   5.682 -0.1549 -0.3375 -0.1429
 2969TIP3    H1 8871   5.208   6.144   5.677  0.9243 -0.7227 -2.7192
 2969TIP3    H2 8872   5.258   6.003   5.654 -0.9409 -2.0260  0.5287
 2970TIP3   OH2 8873   4.495   1.324   2.613  0.6774  0.2271 -0.4722
 2970TIP3    H1 8874   4.422   1.379   2.582  0.1801  0.5263  1.1094
 2970TIP3    H2 8875   4.571   1.382   2.612  0.6470  0.2587 -1.0228
 2971TIP3   OH2 8876   5.292   4.402   0.339  0.3235 -0.7778 -0.0711
 2971TIP3    H1 8877   5.211   4.386   0.387 -0.2563 -0.6913 -0.9842
 2971TIP3    H2 8878   5.330   4.480   0.380 -1.3372  0.6964 -1.1748
 2972TIP3   OH2 8879   2.792   2.036   3.252 -0.1310  0.6746 -0.5910
 2972TIP3    H1 8880   2.886   2.022   3.268 -0.0166 -0.6813 -2.1063
 2972TIP3    H2 8881   2.765   1.959   3.201 -2.3603  0.4169  0.8469
 2973TIP3   OH2 8882   2.235   5.901   4.696  0.5813  0.2382 -0.5008
 2973TIP3    H1 8883   2.173   5.968   4.725 -1.1317 -0.6921 -1.7398
 2973TIP3    H2 8884   2.200   5.820   4.733  1.0984 -0.2938 -1.1516
 2974TIP3   OH2 8885   5.526   3.492   5.213 -0.3137  0.6104 -0.0558
 2974TIP3    H1 8886   5.488   3.568   5.169 -0.8198 -0.2324 -1.1215
 2974TIP3    H2 8887   5.451   3.441   5.242  0.0216  0.7200  1.0423
 2975TIP3   OH2 8888   0.639   4.904   2.755  0.0731 -0.5134  0.4786
 2975TIP3    H1 8889   0.545   4.911   2.738  0.2049 -1.7857 -0.9139
 2975TIP3    H2 8890   0.680   4.924   2.672  0.8861 -3.1419  0.1554
 2976TIP3   OH2 8891   5.509   4.836   2.374  0.1910 -0.4215 -0.5039
 2976TIP3    H1 8892   5.486   4.896   2.303 -0.3103 -0.0082  0.0035
 2976TIP3    H2 8893   5.480   4.880   2.454  1.6076 -0.4358  0.0649
 2977TIP3   OH2 8894   6.526   0.010   5.726 -0.0515 -0.3993 -0.4655
 2977TIP3    H1 8895   6.563  -0.074   5.754 -0.1858  0.0235  1.0367
 2977TIP3    H2 8896   6.585   0.075   5.763 -0.0041  0.1883 -1.5477
 2978TIP3   OH2 8897   1.590   0.923   5.672  0.1845 -0.4499  0.0086
 2978TIP3    H1 8898   1.684   0.935   5.659  0.5725 -0.8925  2.0875
 2978TIP3    H2 8899   1.556   0.906   5.584  1.7710  1.3088 -1.0393
 2979TIP3   OH2 8900   1.757   4.322   2.399 -0.0243 -0.0104 -0.0482
 2979TIP3    H1 8901   1.719   4.286   2.318 -0.1841 -1.0754  0.4739
 2979TIP3    H2 8902   1.684   4.325   2.461  0.6186 -1.7767  0.8701
 2980TIP3   OH2 8903   3.997   2.289   5.525  0.0187 -0.3364  0.2098
 2980TIP3    H1 8904   3.924   2.350   5.513  0.3635  0.0676  0.1535
 2980TIP3    H2 8905   3.957   2.203   5.516 -0.1566 -0.1062 -1.5939
 2981TIP3   OH2 8906   6.416   5.146   0.396  0.1187  0.1899 -0.1320
 2981TIP3    H1 8907   6.493   5.177   0.445 -0.3630  1.2337  0.0010
 2981TIP3    H2 8908   6.358   5.110   0.462 -1.0969  2.7521  0.3427
 2982TIP3   OH2 8909   3.345   2.733   4.755 -0.5394  0.3085  0.2367
 2982TIP3    H1 8910   3.422   2.783   4.727 -0.7237  0.7450  0.4960
 2982TIP3    H2 8911   3.342   2.744   4.850 -0.5504 -0.2474  0.3029
 2983TIP3   OH2 8912   2.263   5.232   1.266  0.5637  0.1521  0.0483
 2983TIP3    H1 8913   2.352   5.195   1.270  0.3073 -1.2505 -3.3226
 2983TIP3    H2 8914   2.277   5.324   1.246  1.2040  0.5837  2.2349
 2984TIP3   OH2 8915   5.662   6.252   3.419  0.1810 -0.1700 -0.3701
 2984TIP3    H1 8916   5.746   6.295   3.405  0.1738 -0.4496 -1.3415
 2984TIP3    H2 8917   5.683   6.158   3.419  0.0071 -0.2130  0.3784
 2985TIP3   OH2 8918   4.872   2.061   5.208  0.3939  0.1724  0.2528
 2985TIP3    H1 8919   4.853   1.985   5.152  0.3554  1.5633 -1.7480
 2985TIP3    H2 8920   4.922   2.025   5.281 -0.7224 -1.9526  0.0526
 2986TIP3   OH2 8921   4.309   1.543   2.128 -0.2485 -0.1387 -0.2515
 2986TIP3    H1 8922   4.268   1.592   2.199  0.0457 -1.3156  0.7702
 2986TIP3    H2 8923   4.397   1.524   2.160 -0.2428 -1.0158 -0.7461
 2987TIP3   OH2 8924   5.947   5.628   3.852 -0.5801 -0.2244  0.2714
 2987TIP3    H1 8925   5.963   5.705   3.906  0.5698  0.4331 -0.9306
 2987TIP3    H2 8926   6.026   5.620   3.798 -0.7986 -2.0901  0.1694
 2988TIP3   OH2 8927   4.681   3.850   4.388 -0.3599  0.0897  0.2443
 2988TIP3    H1 8928   4.667   3.758   4.408  0.6575  0.0533  0.8642
 2988TIP3    H2 8929   4.703   3.851   4.295 -4.4640  0.1918 -0.9269
 2989TIP3   OH2 8930   1.129   1.280   2.890 -0.3348  0.1359 -0.2368
 2989TIP3    H1 8931   1.168   1.367   2.885  0.3307 -0.2318 -2.2931
 2989TIP3    H2 8932   1.051   1.286   2.834  0.3159 -0.8607 -1.2896
 2990TIP3   OH2 8933   2.506   4.905   3.251  0.0437  0.6388 -0.7863
 2990TIP3    H1 8934   2.436   4.840   3.237  0.2741  0.2415 -0.1578
 2990TIP3    H2 8935   2.463   4.989   3.237 -1.1210  0.5191  1.5974
 2991TIP3   OH2 8936   1.114   5.987   5.355 -0.8401 -0.1295  0.3914
 2991TIP3    H1 8937   1.066   5.910   5.384 -0.9834  0.1445  0.8835
 2991TIP3    H2 8938   1.133   5.969   5.262 -1.1180 -0.6269  0.4252
 2992TIP3   OH2 8939   7.044   1.735   5.548  0.3203  0.1799 -0.0880
 2992TIP3    H1 8940   7.137   1.729   5.525 -0.0041 -0.0900 -1.4467
 2992TIP3    H2 8941   7.019   1.645   5.569 -0.3377 -0.3828 -2.8617
 2993TIP3   OH2 8942   3.450   4.561   0.844  0.2354 -0.5097  0.2127
 2993TIP3    H1 8943   3.369   4.511   0.848 -1.4300  1.8938 -0.8652
 2993TIP3    H2 8944   3.444   4.623   0.917  0.8568  0.0222 -0.1644
 2994TIP3   OH2 8945   1.047   2.254   4.890 -0.1652 -0.3062 -0.0891
 2994TIP3    H1 8946   1.120   2.302   4.850  1.0669 -2.8925 -1.2291
 2994TIP3    H2 8947   1.071   2.246   4.982 -0.4191  1.2479  0.1300
 2995TIP3   OH2 8948   2.396   1.155   0.914  0.4358 -0.4510 -0.2519
 2995TIP3    H1 8949   2.360   1.182   0.830  2.0401 -0.5799 -1.0168
 2995TIP3    H2 8950   2.436   1.235   0.949 -0.4655 -0.3274  0.5485
 2996TIP3   OH2 8951   3.032   0.845   4.602  0.4908 -0.2560 -0.0149
 2996TIP3    H1 8952   3.036   0.907   4.529 -2.8785 -0.1937 -0.3041
 2996TIP3    H2 8953   3.019   0.760   4.560  0.2236 -0.4605  0.4819
 2997TIP3   OH2 8954   3.757   6.220   5.452 -0.1207  0.1945 -0.5010
 2997TIP3    H1 8955   3.746   6.275   5.375  3.4455  1.6422 -0.1756
 2997TIP3    H2 8956   3.775   6.281   5.523  1.3503 -1.2459  0.4496
 2998TIP3   OH2 8957   4.246   1.662   2.370  0.2782 -0.6243 -0.3909
 2998TIP3    H1 8958   4.159   1.694   2.397  0.4541  1.3302 -1.9763
 2998TIP3    H2 8959   4.278   1.615   2.447 -0.9339  1.2101  1.3399
 2999TIP3   OH2 8960   2.990   0.683   0.022 -0.4735  0.1989  0.1634
 2999TIP3    H1 8961   3.029   0.757  -0.024 -1.1253 -0.0025 -0.7288
 2999TIP3    H2 8962   3.017   0.695   0.113  1.0873  0.4428 -0.2990
 3000TIP3   OH2 8963   5.730   5.864   0.803  0.0144 -0.0267 -0.5673
 3000TIP3    H1 8964   5.817   5.852   0.842 -0.4745  1.6459  1.2201
 3000TIP3    H2 8965   5.746   5.923   0.730  0.2649  1.4400  0.6137
 3001TIP3   OH2 8966   6.838   5.311   4.368 -0.1012 -0.2279  0.2221
 3001TIP3    H1 8967   6.844   5.396   4.412 -1.2870 -0.8120  1.5927
 3001TIP3    H2 8968   6.924   5.270   4.384  0.5405  0.7506 -0.5958
 3002TIP3   OH2 8969   6.563   3.617   4.145  0.1049 -1.2171 -0.2077
 3002TIP3    H1 8970   6.537   3.663   4.225 -0.2368 -1.8570  0.0553
 3002TIP3    H2 8971   6.620   3.546   4.175  2.1524  0.1072 -0.7622
 3003TIP3   OH2 8972   3.431   3.175   3.491 -0.1735 -0.3208  0.0014
 3003TIP3    H1 8973   3.415   3.268   3.475  0.7868 -0.7030 -4.2204
 3003TIP3    H2 8974   3.499   3.173   3.558  0.7708  2.1165 -0.8010
 3004TIP3   OH2 8975   2.671   3.291   1.451 -0.1328 -0.0728  0.0179
 3004TIP3    H1 8976   2.736   3.225   1.430 -0.4323 -0.3417 -0.0672
 3004TIP3    H2 8977   2.614   3.250   1.516 -0.4191  0.0338 -0.1584
 3005TIP3   OH2 8978   6.225   5.009   4.829  0.2769 -1.3284  0.3956
 3005TIP3    H1 8979   6.188   5.087   4.787 -1.2802 -1.7886  0.8251
 3005TIP3    H2 8980   6.318   5.028   4.837  0.1337 -0.0213 -0.5980
 3006TIP3   OH2 8981   1.062   1.272   1.286  0.2672  1.1738  0.3437
 3006TIP3    H1 8982   1.044   1.185   1.251 -1.4724  1.5213  0.3083
 3006TIP3    H2 8983   1.090   1.323   1.210  0.6851  0.8162  0.2527
 3007TIP3   OH2 8984   1.687   3.651   2.374  0.4047 -0.2907  0.3552
 3007TIP3    H1 8985   1.759   3.606   2.416  0.8957  0.0497 -0.1032
 3007TIP3    H2 8986   1.692   3.741   2.406  1.5577  0.3020 -1.3221
 3008TIP3   OH2 8987   3.515   2.940   2.024  0.0260  0.0201  0.2590
 3008TIP3    H1 8988   3.492   2.910   1.936 -2.7773  1.2878  0.4367
 3008TIP3    H2 8989   3.507   2.861   2.079 -3.5401  0.1065  0.1244
 3009TIP3   OH2 8990   1.476   4.344   2.986 -0.0171 -0.4019 -0.0428
 3009TIP3    H1 8991   1.462   4.323   3.078  0.8114 -0.0736  0.1631
 3009TIP3    H2 8992   1.543   4.413   2.986  0.5042 -0.8804 -0.9197
 3010TIP3   OH2 8993   3.927   3.319   4.502 -0.6236  0.0755  0.1278
 3010TIP3    H1 8994   3.925   3.360   4.416 -0.8066 -1.2389 -0.5211
 3010TIP3    H2 8995   3.986   3.374   4.554 -0.5552  0.9124 -0.8134
 3011TIP3   OH2 8996   2.684   1.493   5.296 -0.2032 -0.7514 -0.6534
 3011TIP3    H1 8997   2.773   1.464   5.314  0.2936  0.3470 -1.2562
 3011TIP3    H2 8998   2.644   1.420   5.249  0.3990 -1.2184 -0.4537
 3012TIP3   OH2 8999   4.407   6.429   0.625  0.3271  0.4850  0.0617
 3012TIP3    H1 9000   4.485   6.398   0.578  0.8344  0.8803  0.6202
 3012TIP3    H2 9001   4.345   6.357   0.619  1.3939 -0.5807  1.1436
 3013TIP3   OH2 9002   2.571   5.206   3.603  0.5687  0.0927 -0.1796
 3013TIP3    H1 9003   2.498   5.242   3.553 -1.0031 -2.0311  0.4479
 3013TIP3    H2 9004   2.567   5.111   3.587  2.4077 -0.2149  0.8911
 3014TIP3   OH2 9005   5.842   1.009   0.435 -0.0186 -0.2184 -0.5290
 3014TIP3    H1 9006   5.886   1.060   0.503 -0.9582 -0.8389  0.5964
 3014TIP3    H2 9007   5.859   0.918   0.459  1.3190 -0.4775 -2.2938
 3015TIP3   OH2 9008   3.479   2.227   4.210  0.2993 -0.1200 -0.2651
 3015TIP3    H1 9009   3.430   2.158   4.254 -0.1198  0.1085 -0.3595
 3015TIP3    H2 9010   3.536   2.263   4.277  1.9567 -1.8402 -0.6983
 3016TIP3   OH2 9011   1.239   2.715   1.786  0.0909  0.0674 -1.0697
 3016TIP3    H1 9012   1.237   2.633   1.836  0.6560  0.0126 -1.1303
 3016TIP3    H2 9013   1.329   2.721   1.753 -0.1116  0.4075 -1.5769
 3017TIP3   OH2 9014   1.858   3.043   3.877  0.6057  0.1199  0.0320
 3017TIP3    H1 9015   1.889   2.955   3.856 -0.7058 -0.6665  1.1654
 3017TIP3    H2 9016   1.831   3.036   3.969 -3.3455  0.5205 -0.9296
 3018TIP3   OH2 9017   0.281   2.898   4.175 -0.2971  0.4898  0.6699
 3018TIP3    H1 9018   0.295   2.805   4.193 -2.4630 -0.1011 -0.3540
 3018TIP3    H2 9019   0.368   2.938   4.185  1.0959 -1.9530 -0.8181
 3019TIP3   OH2 9020   2.535   0.657   4.539  0.2013 -0.0369  0.5873
 3019TIP3    H1 9021   2.479   0.604   4.594 -0.4961  0.3775  0.2833
 3019TIP3    H2 9022   2.477   0.692   4.471  0.7181  0.7993  0.5612
 3020TIP3   OH2 9023   1.196   1.680   3.472  0.2300  0.6471 -0.4458
 3020TIP3    H1 9024   1.172   1.609   3.531  0.2907  2.3252  1.7129
 3020TIP3    H2 9025   1.154   1.658   3.389 -1.3063 -0.9455  0.7033
 3021TIP3   OH2 9026   6.006   6.376   2.432  0.0949 -0.2379  0.5505
 3021TIP3    H1 9027   5.935   6.360   2.371 -1.5850 -0.2761  2.4240
 3021TIP3    H2 9028   5.983   6.459   2.474  1.0978 -0.3106  1.2818
 3022TIP3   OH2 9029   6.373   1.592   0.060  0.0105  0.1482 -0.6643
 3022TIP3    H1 9030   6.312   1.572  -0.011 -1.1446 -0.5066  0.4627
 3022TIP3    H2 9031   6.317   1.609   0.136  1.2245 -0.2537  0.3665
 3023TIP3   OH2 9032   1.827   0.247   1.917  0.3712  0.3601 -0.0006
 3023TIP3    H1 9033   1.855   0.305   1.988  1.7245 -1.2190  0.8349
 3023TIP3    H2 9034   1.738   0.276   1.896 -0.3126  0.5619  2.7520
 3024TIP3   OH2 9035   2.101   1.510   4.239  0.1648  0.3959  0.5094
 3024TIP3    H1 9036   2.066   1.512   4.327 -2.2430  1.9931 -0.3815
 3024TIP3    H2 9037   2.194   1.492   4.251 -0.3369 -0.8768  3.2341
 3025TIP3   OH2 9038   5.656   0.200   4.801 -0.2010  0.3988  0.0371
 3025TIP3    H1 9039   5.582   0.161   4.849  0.4638 -1.2144 -0.1942
 3025TIP3    H2 9040   5.641   0.294   4.807 -1.4291  0.1552  1.3561
 3026TIP3   OH2 9041   5.072   0.749   0.801  0.0585 -0.1643 -0.5456
 3026TIP3    H1 9042   5.161   0.777   0.823  0.0536 -0.3383 -0.3087
 3026TIP3    H2 9043   5.017   0.822   0.829  0.1515  0.0789 -0.9760
 3027TIP3   OH2 9044   6.113   3.452   5.662  0.2028  0.4020  0.0440
 3027TIP3    H1 9045   6.170   3.529   5.669  2.0457 -0.8617 -0.3505
 3027TIP3    H2 9046   6.087   3.450   5.570  2.0567 -0.6786 -0.5054
 3028TIP3   OH2 9047   0.705   3.434   0.514  0.6082 -0.0972 -0.0869
 3028TIP3    H1 9048   0.787   3.468   0.550  0.3175 -0.7719  1.3080
 3028TIP3    H2 9049   0.730   3.387   0.435  0.9775  3.5930 -2.3962
 3029TIP3   OH2 9050   2.220   6.294   0.026 -0.3779 -0.1850 -0.2079
 3029TIP3    H1 9051   2.239   6.379   0.065 -0.6680  0.0390 -0.5495
 3029TIP3    H2 9052   2.304   6.265  -0.011 -0.6844  0.8261 -1.7708
 3030TIP3   OH2 9053   6.912   1.820   0.439 -0.4398  0.0888 -0.7848
 3030TIP3    H1 9054   6.912   1.915   0.433  0.2599  0.1693  0.2825
 3030TIP3    H2 9055   6.991   1.799   0.489 -0.8068 -1.0228 -0.6491
 3031TIP3   OH2 9056   4.466   5.034   1.783  0.1537  0.5344  0.5821
 3031TIP3    H1 9057   4.530   4.968   1.754 -0.1725 -0.5342  2.1669
 3031TIP3    H2 9058   4.438   5.004   1.869 -2.8908  0.6955 -0.2493
 3032TIP3   OH2 9059   3.843   3.858   2.784  0.2602 -0.2118 -0.1476
 3032TIP3    H1 9060   3.892   3.898   2.713  0.5210  0.6106  0.4775
 3032TIP3    H2 9061   3.873   3.904   2.863 -1.4303  0.2442  0.2622
 3033TIP3   OH2 9062   2.820   5.890   2.736 -0.6794  0.7305 -0.1016
 3033TIP3    H1 9063   2.764   5.968   2.730 -0.2567  0.9771 -1.0026
 3033TIP3    H2 9064   2.905   5.924   2.764 -0.2575  0.7251 -1.3244
 3034TIP3   OH2 9065   6.332   4.751   0.052  0.0975 -0.4694  0.0862
 3034TIP3    H1 9066   6.337   4.723  -0.040 -0.0151  0.0035 -0.0721
 3034TIP3    H2 9067   6.278   4.831   0.049  1.9206  0.8282  0.2583
 3035TIP3   OH2 9068   5.779   3.178   2.423  0.0060 -0.1864  0.3211
 3035TIP3    H1 9069   5.810   3.259   2.464  2.2236  0.1598 -1.7637
 3035TIP3    H2 9070   5.730   3.133   2.491 -2.8730  3.6412  1.1285
 3036TIP3   OH2 9071   3.256   3.631   1.484 -0.0907  0.0363 -0.0549
 3036TIP3    H1 9072   3.241   3.568   1.554 -1.3369 -0.5743 -0.8415
 3036TIP3    H2 9073   3.337   3.602   1.441  1.2474  0.9935  1.7093
 3037TIP3   OH2 9074   6.048   5.582   4.581  0.2858  0.1818  0.4023
 3037TIP3    H1 9075   6.133   5.569   4.538 -0.0925  0.4263 -0.4582
 3037TIP3    H2 9076   5.989   5.522   4.535  0.0515 -0.1841  1.1822
 3038TIP3   OH2 9077   3.627   2.800   1.587  0.0885  0.1828 -0.0053
 3038TIP3    H1 9078   3.653   2.718   1.630 -1.1629 -0.4156 -0.3550
 3038TIP3    H2 9079   3.549   2.829   1.634 -0.2428  0.4752 -0.7155
 3039TIP3   OH2 9080   6.825   1.966   3.776 -0.0146 -0.3785 -0.5103
 3039TIP3    H1 9081   6.842   2.059   3.757 -0.3417 -0.2573 -0.2248
 3039TIP3    H2 9082   6.889   1.943   3.843  1.9341 -1.1287 -2.5363
 3040TIP3   OH2 9083   0.815   2.063   0.062  0.2311 -0.3850  0.1578
 3040TIP3    H1 9084   0.725   2.031   0.072  0.2623 -0.0269  1.7474
 3040TIP3    H2 9085   0.870   1.993   0.097  0.5781 -0.4508 -0.4882
 3041TIP3   OH2 9086   1.813   2.933   0.546 -0.2334 -0.5212 -0.5084
 3041TIP3    H1 9087   1.835   2.932   0.639 -1.3736 -1.2106 -0.2262
 3041TIP3    H2 9088   1.878   2.990   0.507  0.5716 -0.6138  0.6363
 3042TIP3   OH2 9089   6.276   2.297   3.198 -0.3657 -0.7985 -0.0888
 3042TIP3    H1 9090   6.229   2.362   3.147  0.3632 -0.4984 -0.3873
 3042TIP3    H2 9091   6.299   2.342   3.279  1.8130 -0.0466 -1.0738
 3043TIP3   OH2 9092   4.712   4.741   2.864  0.1749  0.4121  0.3305
 3043TIP3    H1 9093   4.788   4.799   2.857  0.1283  0.7159  2.0386
 3043TIP3    H2 9094   4.743   4.667   2.916 -0.6527  0.4950  0.9606
 3044TIP3   OH2 9095   6.324   1.894   4.163  0.0626  0.0302  0.8707
 3044TIP3    H1 9096   6.410   1.894   4.121 -0.6495 -1.5796 -0.7328
 3044TIP3    H2 9097   6.326   1.817   4.219 -0.5792 -0.4909  0.1997
 3045TIP3   OH2 9098   6.586   6.499   4.773 -0.1185 -0.3298  0.1208
 3045TIP3    H1 9099   6.628   6.440   4.710 -0.3727 -1.7011  1.1749
 3045TIP3    H2 9100   6.538   6.562   4.719  0.9552 -0.4840 -1.0591
 3046TIP3   OH2 9101   5.164   2.697   5.892  0.5380 -0.6058  0.1341
 3046TIP3    H1 9102   5.168   2.606   5.863 -0.5905 -0.5159 -0.3705
 3046TIP3    H2 9103   5.070   2.714   5.904  0.8345 -0.1948  2.4637
 3047TIP3   OH2 9104   5.498   1.416   5.646  0.0366  0.1275  0.2518
 3047TIP3    H1 9105   5.427   1.354   5.665 -0.1643  0.6734  1.3961
 3047TIP3    H2 9106   5.455   1.488   5.600  0.2673 -0.5447 -1.0630
 3048TIP3   OH2 9107   5.369   3.853   3.645  0.0704 -0.1520 -0.5858
 3048TIP3    H1 9108   5.425   3.927   3.622 -0.2643 -0.0340 -1.0236
 3048TIP3    H2 9109   5.301   3.852   3.578 -0.2321 -0.5326 -0.2782
 3049TIP3   OH2 9110   5.290   5.332   0.315 -0.0644  0.1264 -0.0174
 3049TIP3    H1 9111   5.239   5.251   0.311 -0.7065  0.5692 -2.5436
 3049TIP3    H2 9112   5.227   5.401   0.295  0.9363  1.0043 -0.1874
 3050TIP3   OH2 9113   2.122   4.998   5.374 -0.3783  0.1754  0.3744
 3050TIP3    H1 9114   2.172   4.961   5.447  0.7946  1.2440  0.1503
 3050TIP3    H2 9115   2.036   5.017   5.410 -0.4101 -1.0025  0.9768
 3051TIP3   OH2 9116   2.098   5.436   3.856 -0.5459 -0.2624  0.7665
 3051TIP3    H1 9117   2.112   5.363   3.917 -1.4620  0.2290  1.5841
 3051TIP3    H2 9118   2.004   5.451   3.857 -0.3103  1.4738  1.2671
 3052TIP3   OH2 9119   0.311   3.245   5.905  0.0430  0.3715 -0.1731
 3052TIP3    H1 9120   0.387   3.251   5.847 -1.0326  1.6874 -1.5346
 3052TIP3    H2 9121   0.242   3.207   5.850 -1.7041  3.8136 -0.6617
 3053TIP3   OH2 9122   7.019   2.078   0.331 -0.1056 -0.2039 -0.0114
 3053TIP3    H1 9123   7.072   2.138   0.279 -1.7142  1.9299  0.6644
 3053TIP3    H2 9124   7.037   2.101   0.422  1.2866 -2.6506  0.4340
 3054TIP3   OH2 9125   3.698   0.065   4.287 -0.4275 -0.5416  0.0002
 3054TIP3    H1 9126   3.674   0.156   4.303 -0.4656 -0.6418  0.5466
 3054TIP3    H2 9127   3.615   0.019   4.280 -0.4988 -0.1326 -2.9629
 3055TIP3   OH2 9128   1.343   4.027   3.526  0.4517  0.2540  0.4402
 3055TIP3    H1 9129   1.267   4.015   3.469 -0.5990  1.2776  1.5807
 3055TIP3    H2 9130   1.357   3.940   3.566 -1.1238  0.4021  1.3990
 3056TIP3   OH2 9131   4.754   1.091   1.915 -0.0703  0.0435 -0.1972
 3056TIP3    H1 9132   4.735   1.167   1.861  0.1911 -0.3221 -0.8132
 3056TIP3    H2 9133   4.697   1.100   1.992  0.5705  1.3025  0.1502
 3057TIP3   OH2 9134   7.051   1.418   3.772  0.4665  0.2290 -0.5253
 3057TIP3    H1 9135   7.074   1.370   3.852 -0.1320 -1.2263 -1.1908
 3057TIP3    H2 9136   7.134   1.429   3.726  0.7604  0.7496  0.1155
 3058TIP3   OH2 9137   3.951   2.154   3.068  0.0996  0.5265  0.1105
 3058TIP3    H1 9138   3.917   2.209   3.139  2.3806  2.4862 -0.1825
 3058TIP3    H2 9139   4.037   2.126   3.099  0.1364 -0.5984 -0.9418
 3059TIP3   OH2 9140   0.131   4.084   1.722 -0.3513  0.4525  0.1626
 3059TIP3    H1 9141   0.099   4.140   1.792  0.1592  0.8179  0.1044
 3059TIP3    H2 9142   0.071   4.009   1.722  0.8047 -0.5822  2.3343
 3060TIP3   OH2 9143   5.796   1.203   3.602 -0.1486  0.1438  0.0966
 3060TIP3    H1 9144   5.863   1.205   3.670  1.6723 -0.7570 -1.5728
 3060TIP3    H2 9145   5.747   1.123   3.620  2.9209 -2.4192 -1.8396
 3061TIP3   OH2 9146   1.410   0.231   2.223 -0.0772 -0.5820 -0.2979
 3061TIP3    H1 9147   1.324   0.200   2.251  0.0100 -0.0694  0.5614
 3061TIP3    H2 9148   1.461   0.151   2.209  0.1529 -0.8738  1.9154
 3062TIP3   OH2 9149   1.586   3.074   0.548  0.4223 -0.0474  0.0868
 3062TIP3    H1 9150   1.513   3.013   0.553 -0.0262  0.4838  0.1017
 3062TIP3    H2 9151   1.663   3.018   0.534 -0.1146 -0.5393 -1.0171
 3063TIP3   OH2 9152   5.914   6.222   1.989  0.1993 -0.9436  0.2360
 3063TIP3    H1 9153   5.894   6.260   1.903 -0.3649 -0.4984  0.5584
 3063TIP3    H2 9154   5.996   6.174   1.975  1.7584  1.5862  0.1488
 3064TIP3   OH2 9155   1.732   5.086   1.096 -0.5069 -0.0495 -0.1341
 3064TIP3    H1 9156   1.738   4.992   1.108  0.9443  0.0113 -0.3049
 3064TIP3    H2 9157   1.690   5.118   1.177 -2.8540 -0.9941 -0.8841
 3065TIP3   OH2 9158   6.240   4.446   5.445  0.4010 -0.2934 -0.0188
 3065TIP3    H1 9159   6.168   4.462   5.505 -0.0383 -2.5495  0.1541
 3065TIP3    H2 9160   6.319   4.446   5.500  0.6213  2.1384 -0.2047
 3066TIP3   OH2 9161   0.447   4.341   4.286  0.2289  0.0712 -0.0774
 3066TIP3    H1 9162   0.458   4.414   4.225  0.7646  1.2387  1.3535
 3066TIP3    H2 9163   0.529   4.337   4.335 -0.4558 -0.2938  1.0988
 3067TIP3   OH2 9164   6.671   5.591   0.060 -0.7186  0.2883  0.9962
 3067TIP3    H1 9165   6.721   5.664   0.097 -2.3221  0.8908  2.1056
 3067TIP3    H2 9166   6.679   5.522   0.126  0.0736 -0.2476  0.3532
 3068TIP3   OH2 9167   6.741   2.115   0.718 -0.2504  0.5064 -0.4021
 3068TIP3    H1 9168   6.824   2.082   0.684  0.2381  0.1421  1.1076
 3068TIP3    H2 9169   6.679   2.043   0.706  0.4036 -0.3654  1.3048
 3069TIP3   OH2 9170   6.555   0.930   0.503 -0.6049 -0.8484  0.5117
 3069TIP3    H1 9171   6.581   0.994   0.569  1.0421 -0.0531 -0.8099
 3069TIP3    H2 9172   6.528   0.983   0.427 -0.8362 -1.7147 -0.0286
 3070TIP3   OH2 9173   1.653   2.540   2.375 -0.0623 -0.2772  0.3329
 3070TIP3    H1 9174   1.747   2.521   2.376  0.0120  0.0403 -0.4590
 3070TIP3    H2 9175   1.615   2.473   2.319  0.1962  1.7591 -2.4584
 3071TIP3   OH2 9176   5.383   6.334   4.347 -0.2970  0.2131 -0.1246
 3071TIP3    H1 9177   5.400   6.422   4.380  0.4329  0.2478 -0.5736
 3071TIP3    H2 9178   5.464   6.309   4.303  0.0909 -1.3282  1.3790
 3072TIP3   OH2 9179   2.917   5.670   0.913  0.2481  0.3312 -0.2178
 3072TIP3    H1 9180   2.969   5.736   0.958 -0.5431  1.5290 -1.0025
 3072TIP3    H2 9181   2.980   5.605   0.882  1.1494  1.2532 -0.3208
 3073TIP3   OH2 9182   1.547   1.878   2.223  0.2508 -0.2771  0.1719
 3073TIP3    H1 9183   1.572   1.901   2.133 -2.5994  0.5006 -0.5308
 3073TIP3    H2 9184   1.502   1.794   2.215  0.3961 -0.4335  0.9470
 3074TIP3   OH2 9185   6.296   5.829   0.904  0.5104 -0.2218 -0.4134
 3074TIP3    H1 9186   6.270   5.892   0.836 -0.0251 -0.7752 -0.7307
 3074TIP3    H2 9187   6.289   5.879   0.986  1.7689  0.6338 -0.8011
 3075TIP3   OH2 9188   3.116   4.284   0.407  0.1863 -0.2305 -0.0138
 3075TIP3    H1 9189   3.090   4.199   0.443  3.7486 -0.9371  1.3373
 3075TIP3    H2 9190   3.161   4.262   0.325 -0.5504  0.5828 -0.6498
 3076TIP3   OH2 9191   2.417   2.190   2.329 -0.6886  0.1431  0.5269
 3076TIP3    H1 9192   2.332   2.148   2.346  0.4818 -2.5189  0.2233
 3076TIP3    H2 9193   2.429   2.183   2.235  0.4278 -0.7094  0.7149
 3077TIP3   OH2 9194   5.837   5.074   0.219  0.2883  0.4212 -0.1361
 3077TIP3    H1 9195   5.756   5.070   0.271 -0.5361  0.1563 -1.3870
 3077TIP3    H2 9196   5.813   5.033   0.136  2.1186 -0.9674 -0.0296
 3078TIP3   OH2 9197   3.894   6.620   2.518  0.0800  0.3228  0.5438
 3078TIP3    H1 9198   3.984   6.590   2.512 -0.2580 -0.7986  0.8370
 3078TIP3    H2 9199   3.873   6.652   2.430  0.9523  1.1922  0.6431
 3079TIP3   OH2 9200   6.832   0.085   5.374 -0.7156  0.1747  0.0507
 3079TIP3    H1 9201   6.908   0.082   5.315 -0.5940 -0.1121  0.2234
 3079TIP3    H2 9202   6.762   0.121   5.320 -0.2393  1.2764  0.1220
 3080TIP3   OH2 9203   6.237   0.297   3.618 -0.4988 -0.2231 -0.8791
 3080TIP3    H1 9204   6.260   0.377   3.570 -0.6172  1.1070  1.1834
 3080TIP3    H2 9205   6.145   0.310   3.643  0.0826  0.0294  1.3270
 3081TIP3   OH2 9206   5.776   3.400   0.775  0.3311  0.4164  0.3492
 3081TIP3    H1 9207   5.772   3.389   0.680  0.3033 -1.6929  0.5522
 3081TIP3    H2 9208   5.789   3.494   0.788 -1.4495  1.0248 -1.6751
 3082TIP3   OH2 9209   3.401   3.295   3.186  0.4659  0.2964  0.0159
 3082TIP3    H1 9210   3.420   3.388   3.172  0.9310  0.1825 -0.1303
 3082TIP3    H2 9211   3.312   3.294   3.222 -0.3068  0.6733 -1.7867
 3083TIP3   OH2 9212   5.378   2.395   4.684  0.4613 -0.0229 -0.4239
 3083TIP3    H1 9213   5.437   2.420   4.613  1.7456 -0.2815  0.5204
 3083TIP3    H2 9214   5.376   2.472   4.742 -1.6282  0.6997 -1.3549
 3084TIP3   OH2 9215   1.656   0.755   1.667 -0.3539  0.2924 -0.3682
 3084TIP3    H1 9216   1.698   0.824   1.615  2.0032 -0.5340  0.2829
 3084TIP3    H2 9217   1.694   0.764   1.754 -1.4374 -0.6495  0.2323
 3085TIP3   OH2 9218   3.015   6.194   3.646  0.2004 -0.0129  0.4583
 3085TIP3    H1 9219   3.101   6.217   3.611 -0.2901  0.8174 -0.2347
 3085TIP3    H2 9220   3.026   6.104   3.678  1.0586 -0.2691 -0.4978
 3086TIP3   OH2 9221   6.919   3.502   5.527 -0.5560 -0.2887  0.2913
 3086TIP3    H1 9222   6.906   3.454   5.609 -2.6762  1.2106  0.9433
 3086TIP3    H2 9223   6.890   3.592   5.547  1.4979  0.8308 -1.3594
 3087TIP3   OH2 9224   0.424   6.201   0.964 -0.1046 -0.3737 -0.1520
 3087TIP3    H1 9225   0.413   6.106   0.974  0.1556 -0.3086  0.8481
 3087TIP3    H2 9226   0.440   6.232   1.052  1.3631  0.4064 -0.6634
 3088TIP3   OH2 9227   5.357   1.859   4.714 -0.3509  0.0254  0.5191
 3088TIP3    H1 9228   5.263   1.866   4.696 -0.3478 -1.5691 -0.3054
 3088TIP3    H2 9229   5.398   1.850   4.628  0.6224  1.1111  0.8402
 3089TIP3   OH2 9230   6.783   2.972   1.366 -0.0285 -0.3384 -0.6430
 3089TIP3    H1 9231   6.842   3.048   1.371 -0.1544 -0.2955  0.6180
 3089TIP3    H2 9232   6.841   2.897   1.352  0.3508 -0.2897  0.5415
 3090TIP3   OH2 9233   6.691   2.241   2.577  0.0777 -0.4827  0.4620
 3090TIP3    H1 9234   6.678   2.210   2.487 -1.1527 -0.7445  0.7026
 3090TIP3    H2 9235   6.602   2.247   2.613  0.3292  2.2740  0.8020
 3091TIP3   OH2 9236   0.665   6.644   0.442  0.0089  0.1248 -0.1821
 3091TIP3    H1 9237   0.600   6.695   0.393  0.6233 -0.1321 -1.3106
 3091TIP3    H2 9238   0.709   6.709   0.497 -3.1484 -0.0853  3.0113
 3092TIP3   OH2 9239   2.933   4.901   4.450 -0.5588 -0.1859  0.6114
 3092TIP3    H1 9240   2.909   4.864   4.535 -1.5782  1.4105  1.0581
 3092TIP3    H2 9241   2.912   4.832   4.388 -0.3380 -1.1709  1.5854
 3093TIP3   OH2 9242   5.247   4.218   3.837 -0.2436 -0.7710  0.4765
 3093TIP3    H1 9243   5.320   4.188   3.782  1.1413  3.1375 -0.1491
 3093TIP3    H2 9244   5.287   4.233   3.923 -0.5655  0.2737  0.4554
 3094TIP3   OH2 9245   2.512   4.727   1.156  0.6734  0.2336  0.1055
 3094TIP3    H1 9246   2.462   4.740   1.076 -0.6807  0.5081  0.9620
 3094TIP3    H2 9247   2.516   4.632   1.167  1.6961  0.1623 -0.7731
 3095TIP3   OH2 9248   4.398   1.843   0.498  0.5264 -0.1511 -0.0293
 3095TIP3    H1 9249   4.476   1.791   0.478 -0.2410 -0.9039 -1.1607
 3095TIP3    H2 9250   4.395   1.846   0.594  1.5727 -0.6564  0.0341
 3096TIP3   OH2 9251   6.371   3.119   4.003  0.6374 -0.1205  0.4095
 3096TIP3    H1 9252   6.329   3.159   3.927 -2.0924 -3.0227  0.1515
 3096TIP3    H2 9253   6.430   3.054   3.965  0.4045 -0.5327  0.7487
 3097TIP3   OH2 9254   6.985   0.859   1.275  0.3933  0.2009  0.4430
 3097TIP3    H1 9255   6.899   0.887   1.243  0.5730 -0.9254 -1.1440
 3097TIP3    H2 9256   7.045   0.926   1.242  0.1289  1.1419  1.7914
 3098TIP3   OH2 9257   5.437   6.629   0.107 -0.0196 -0.0240 -0.3087
 3098TIP3    H1 9258   5.477   6.713   0.087 -0.8266  0.3281 -0.4953
 3098TIP3    H2 9259   5.428   6.628   0.203  0.5616 -0.1682 -0.2558
 3099TIP3   OH2 9260   2.996   1.835   1.176 -0.5690  0.2310  0.7104
 3099TIP3    H1 9261   2.909   1.852   1.213 -0.9436 -3.3424  1.9172
 3099TIP3    H2 9262   3.057   1.868   1.242 -1.0638  0.5842  0.9982
 3100TIP3   OH2 9263   0.351   5.939   0.994 -0.0172 -0.4611 -0.1778
 3100TIP3    H1 9264   0.308   5.945   1.079  0.9092 -1.9226  0.4221
 3100TIP3    H2 9265   0.409   5.864   1.001  2.6298  1.3690 -0.9746
 3101TIP3   OH2 9266   2.950   3.557   1.956  0.1328  0.2736 -0.0460
 3101TIP3    H1 9267   2.883   3.515   1.902  0.8083 -1.0345  0.0929
 3101TIP3    H2 9268   2.907   3.573   2.040  0.5552 -2.6307  0.8231
 3102TIP3   OH2 9269   4.667   1.105   2.392 -0.1570  0.2261 -0.4679
 3102TIP3    H1 9270   4.743   1.064   2.351  2.1200  3.9512 -0.4208
 3102TIP3    H2 9271   4.698   1.132   2.478 -1.5253  1.7637 -0.4079
 3103TIP3   OH2 9272   7.158   0.481   2.752 -0.5167  0.4088 -0.2914
 3103TIP3    H1 9273   7.175   0.524   2.836 -1.2958 -1.1518  0.7009
 3103TIP3    H2 9274   7.077   0.520   2.720  0.6593  2.2350 -1.2063
 3104TIP3   OH2 9275   6.210   0.506   4.223 -0.0966 -0.3594 -0.5150
 3104TIP3    H1 9276   6.202   0.465   4.137  3.6489 -0.1916 -1.0984
 3104TIP3    H2 9277   6.260   0.586   4.207  1.1107 -0.5666  1.8506
 3105TIP3   OH2 9278   2.236   0.431   3.912  0.4829  0.7871  0.0823
 3105TIP3    H1 9279   2.253   0.525   3.917  1.3204  0.5705  2.8399
 3105TIP3    H2 9280   2.232   0.402   4.003 -1.1051 -1.6447 -0.6558
 3106TIP3   OH2 9281   0.683   6.088   5.413 -0.0379  0.3427 -0.2198
 3106TIP3    H1 9282   0.635   6.005   5.415 -0.4809  0.6045  0.0305
 3106TIP3    H2 9283   0.774   6.062   5.398 -0.2915 -0.1400 -0.9929
 3107TIP3   OH2 9284   1.148   6.162   3.824  0.3412 -0.1078  0.0076
 3107TIP3    H1 9285   1.066   6.195   3.862  0.6037 -0.2897  0.7404
 3107TIP3    H2 9286   1.177   6.231   3.765  0.1239  0.3403  0.4236
 3108TIP3   OH2 9287   4.906   1.829   0.271 -0.4763 -0.4207  0.1261
 3108TIP3    H1 9288   4.852   1.751   0.287  2.4106 -3.2487 -2.3262
 3108TIP3    H2 9289   4.983   1.816   0.326 -0.0382  0.8921 -0.1521
 3109TIP3   OH2 9290   5.260   3.849   5.152 -0.5976  0.6422  0.3527
 3109TIP3    H1 9291   5.316   3.780   5.116 -0.2287  1.1617 -0.0753
 3109TIP3    H2 9292   5.225   3.811   5.232 -0.6527 -0.1661 -0.0458
 3110TIP3   OH2 9293   5.693   5.033   0.666 -0.1278 -0.4190  0.2504
 3110TIP3    H1 9294   5.757   4.994   0.726  0.1346  0.7756  0.7660
 3110TIP3    H2 9295   5.724   5.122   0.653 -0.5232 -0.4743 -1.1928
 3111TIP3   OH2 9296   1.236   5.321   3.381 -0.0172  0.3770  0.1836
 3111TIP3    H1 9297   1.236   5.366   3.297  0.3904  0.6483  0.3292
 3111TIP3    H2 9298   1.253   5.229   3.359  2.7559  0.8173  0.1605
 3112TIP3   OH2 9299   1.417   3.114   2.167 -0.3106  0.3733 -0.4904
 3112TIP3    H1 9300   1.444   3.183   2.106  0.1565  1.9438  1.3916
 3112TIP3    H2 9301   1.334   3.144   2.202  0.7693  1.0091  1.7274
 3113TIP3   OH2 9302   5.983   6.391   1.000 -0.1271  0.3411 -0.6952
 3113TIP3    H1 9303   6.077   6.400   1.017 -0.1028 -0.6713 -0.1992
 3113TIP3    H2 9304   5.941   6.413   1.083 -0.1025 -2.7454  0.2822
 3114TIP3   OH2 9305   6.032   6.315   0.741 -0.7440 -0.1084  0.0056
 3114TIP3    H1 9306   6.065   6.226   0.743 -0.1019  0.1305  0.8156
 3114TIP3    H2 9307   6.013   6.336   0.833  0.8145  1.1866  0.0835
 3115TIP3   OH2 9308   2.117   5.991   0.824 -0.3448 -0.1019  0.3045
 3115TIP3    H1 9309   2.111   5.952   0.736  0.0641 -0.0866  0.2667
 3115TIP3    H2 9310   2.139   5.917   0.881  2.1019  0.3026 -0.0072
 3116TIP3   OH2 9311   0.934   6.436   3.869 -0.0756  0.0325 -0.6566
 3116TIP3    H1 9312   1.025   6.451   3.846  0.5849 -0.7336  1.2795
 3116TIP3    H2 9313   0.937   6.371   3.939 -2.0759  0.4297 -0.1436
 3117TIP3   OH2 9314   1.401   5.754   5.235 -0.4227 -0.5195 -0.6734
 3117TIP3    H1 9315   1.418   5.661   5.220 -2.3481 -1.0675  0.2274
 3117TIP3    H2 9316   1.310   5.757   5.264 -0.0390  1.5249  0.4963
 3118TIP3   OH2 9317   2.092   6.135   1.322  0.1066  0.2642 -0.5976
 3118TIP3    H1 9318   2.014   6.081   1.331  1.8804 -2.4167 -0.0475
 3118TIP3    H2 9319   2.100   6.150   1.228  0.3414 -1.8011 -0.9572
 3119TIP3   OH2 9320   0.497   3.810   4.755  0.4817  0.0509  0.4068
 3119TIP3    H1 9321   0.536   3.873   4.694  1.3345 -0.4423  0.4134
 3119TIP3    H2 9322   0.404   3.831   4.756  0.3512 -0.2297 -1.4704
 3120TIP3   OH2 9323   5.464   2.344   2.893  0.6047  0.1711 -0.4613
 3120TIP3    H1 9324   5.515   2.272   2.854  0.3089  0.4635 -1.3996
 3120TIP3    H2 9325   5.514   2.368   2.971  1.2789 -0.3419 -0.7195
 3121TIP3   OH2 9326   2.846   3.490   3.700 -0.1827 -0.3806  0.3859
 3121TIP3    H1 9327   2.784   3.535   3.643 -0.9685 -0.7660  0.9233
 3121TIP3    H2 9328   2.894   3.431   3.642 -2.0401 -1.9166  0.3238
 3122TIP3   OH2 9329   0.601   0.938   5.529  0.4202  0.1776 -0.1464
 3122TIP3    H1 9330   0.550   0.894   5.597 -0.7346 -0.5719 -1.4603
 3122TIP3    H2 9331   0.676   0.975   5.576 -1.6331  1.9390  1.9773
 3123TIP3   OH2 9332   4.784   4.110   4.186  0.4352 -0.2799  0.0991
 3123TIP3    H1 9333   4.863   4.117   4.239  0.6818 -0.9774 -0.1733
 3123TIP3    H2 9334   4.784   4.190   4.132  0.0129  0.6000  1.3514
 3124TIP3   OH2 9335   1.705   1.409   5.672 -0.4136 -0.1805  0.0141
 3124TIP3    H1 9336   1.679   1.356   5.597  0.7544 -0.3173 -0.3132
 3124TIP3    H2 9337   1.797   1.386   5.687  0.1532  1.7740 -0.1849
 3125TIP3   OH2 9338   6.510   0.329   4.306 -0.1355 -0.3425  0.1113
 3125TIP3    H1 9339   6.484   0.413   4.343  0.5330  0.1067 -0.4119
 3125TIP3    H2 9340   6.433   0.299   4.258  0.1634  0.8181 -1.1504
 3126TIP3   OH2 9341   2.669   6.196   1.772 -0.5215  0.4286 -0.3893
 3126TIP3    H1 9342   2.656   6.289   1.753 -1.9252  0.1613 -0.8494
 3126TIP3    H2 9343   2.581   6.159   1.771  0.0485 -0.9726 -0.5476
 3127TIP3   OH2 9344   4.429   0.192   4.375 -0.2132  0.2280  0.5950
 3127TIP3    H1 9345   4.501   0.251   4.352  0.0803 -0.5660 -0.6252
 3127TIP3    H2 9346   4.442   0.115   4.319 -2.4309  0.3749 -0.2273
 3128TIP3   OH2 9347   4.795   6.447   0.910 -0.2059  0.0686  0.2431
 3128TIP3    H1 9348   4.827   6.373   0.859  1.5858  0.7748  0.2780
 3128TIP3    H2 9349   4.703   6.426   0.928  0.1050 -1.8596 -0.2244
 3129TIP3   OH2 9350   1.626   0.760   0.265  0.0722 -0.5523  0.2163
 3129TIP3    H1 9351   1.650   0.681   0.314  0.4962 -0.2592  0.4886
 3129TIP3    H2 9352   1.631   0.831   0.330 -1.8550 -0.5005  0.3770
 3130TIP3   OH2 9353   0.267   2.100   2.712 -0.1007  0.4949  0.1881
 3130TIP3    H1 9354   0.272   2.032   2.645  0.8221 -1.4097  2.0741
 3130TIP3    H2 9355   0.181   2.088   2.752 -0.1822  0.8835  0.1435
 3131TIP3   OH2 9356   0.157   1.949   1.948  0.1687 -0.0130 -0.2092
 3131TIP3    H1 9357   0.229   1.946   2.011  0.1514 -0.7174 -0.2153
 3131TIP3    H2 9358   0.161   2.037   1.911  0.6287  0.1657  0.2513
 3132TIP3   OH2 9359   5.003   5.650   1.136  0.3039 -0.0048  0.0326
 3132TIP3    H1 9360   4.969   5.634   1.048  1.0041  1.0074 -0.4382
 3132TIP3    H2 9361   5.030   5.564   1.168 -3.2140 -1.0427  0.7142
 3133TIP3   OH2 9362   1.959   1.613   4.761  0.0584  0.1886  0.9544
 3133TIP3    H1 9363   1.945   1.529   4.803 -1.2392 -0.0301  0.1361
 3133TIP3    H2 9364   1.983   1.672   4.832 -0.9837 -0.4218  1.8444
 3134TIP3   OH2 9365   1.295   3.541   3.723 -0.2967  0.5489  0.6366
 3134TIP3    H1 9366   1.388   3.554   3.741 -0.2255  0.6433  0.2160
 3134TIP3    H2 9367   1.292   3.468   3.660 -0.5064  0.5306  0.6652
 3135TIP3   OH2 9368   1.688   3.671   3.392 -0.2754 -0.1733  0.0237
 3135TIP3    H1 9369   1.717   3.637   3.477  0.1906  1.8511  0.7507
 3135TIP3    H2 9370   1.595   3.649   3.387 -0.2900 -0.3795  1.0388
 3136TIP3   OH2 9371   0.456   0.759   5.042  0.1917 -0.1532 -0.3061
 3136TIP3    H1 9372   0.512   0.690   5.005  1.0690  0.9612 -1.1356
 3136TIP3    H2 9373   0.463   0.747   5.137  0.5656 -1.0307 -0.4324
 3137TIP3   OH2 9374   6.397   3.672   0.967  0.1457  0.5867  0.3339
 3137TIP3    H1 9375   6.427   3.581   0.973 -0.6955  0.1333 -1.6324
 3137TIP3    H2 9376   6.461   3.716   0.912 -0.3492  0.7664 -0.1005
 3138TIP3   OH2 9377   1.401   4.365   5.847  0.0552  0.0463  0.3905
 3138TIP3    H1 9378   1.410   4.275   5.816 -2.3359 -0.4107  0.8126
 3138TIP3    H2 9379   1.347   4.408   5.781  1.5556  1.3472 -0.0471
 3139TIP3   OH2 9380   3.286   2.615   1.907  0.0332  0.0450  0.4379
 3139TIP3    H1 9381   3.245   2.529   1.913 -1.4391  0.7743  1.2973
 3139TIP3    H2 9382   3.227   2.674   1.954  1.5734  1.3367  0.8564
 3140TIP3   OH2 9383   2.838   1.531   2.272 -0.2477  0.2160 -0.1925
 3140TIP3    H1 9384   2.908   1.498   2.328 -1.1449 -0.5107  0.5386
 3140TIP3    H2 9385   2.860   1.623   2.258 -0.0634  0.4667  1.4946
 3141TIP3   OH2 9386   5.783   0.643   4.917 -0.2385  0.0021 -0.6844
 3141TIP3    H1 9387   5.776   0.692   4.835  0.5155  0.8335 -0.2750
 3141TIP3    H2 9388   5.876   0.622   4.924 -0.2707  0.0891  0.0397
 3142TIP3   OH2 9389   3.243   4.087   1.273 -0.4292  0.0206 -0.0951
 3142TIP3    H1 9390   3.154   4.064   1.301 -0.7543  1.1590 -0.1505
 3142TIP3    H2 9391   3.288   4.003   1.266 -1.2836 -0.5209  0.6630
 3143TIP3   OH2 9392   2.622   1.371   5.587  0.1898 -0.1860 -0.1035
 3143TIP3    H1 9393   2.645   1.424   5.664 -0.1856 -0.4293  0.1795
 3143TIP3    H2 9394   2.704   1.327   5.564  0.4411  0.3077 -0.1827
 3144TIP3   OH2 9395   4.342   2.738   2.742  0.7406 -0.7751 -0.9873
 3144TIP3    H1 9396   4.331   2.799   2.815 -2.5496 -1.8759 -0.4128
 3144TIP3    H2 9397   4.290   2.777   2.671 -1.3467 -2.7001 -0.6413
 3145TIP3   OH2 9398   3.563   3.953   1.153 -0.3409 -0.1580  0.1395
 3145TIP3    H1 9399   3.595   4.034   1.112 -0.3978  0.3757  1.1023
 3145TIP3    H2 9400   3.620   3.885   1.119 -0.2424  0.2924 -0.6390
 3146TIP3   OH2 9401   6.395   5.396   4.027  0.4049  0.2335  0.0812
 3146TIP3    H1 9402   6.304   5.372   4.041  1.0604 -1.8303  1.1843
 3146TIP3    H2 9403   6.394   5.448   3.947 -1.3235 -2.8257 -2.0993
 3147TIP3   OH2 9404   2.469   4.455   1.155  0.0475 -0.2404  0.3475
 3147TIP3    H1 9405   2.491   4.374   1.202  0.1840  0.3598  1.3596
 3147TIP3    H2 9406   2.374   4.457   1.153  0.0450 -0.4860  0.2137
 3148TIP3   OH2 9407   4.299   0.354   0.172  0.1506  0.2321 -0.0654
 3148TIP3    H1 9408   4.334   0.341   0.261  1.1637 -0.0818 -0.4884
 3148TIP3    H2 9409   4.204   0.348   0.182  0.1030  2.1961  1.3204
 3149TIP3   OH2 9410   6.154   6.738   3.997  0.0843 -0.2877  0.0644
 3149TIP3    H1 9411   6.087   6.801   3.972 -0.0772 -0.3296  0.3797
 3149TIP3    H2 9412   6.118   6.694   4.074  0.3618 -0.4940  0.0792
 3150TIP3   OH2 9413   5.094   2.995   1.774 -0.0531  0.5165  0.1869
 3150TIP3    H1 9414   5.121   3.055   1.843  0.5038  0.2040  0.2445
 3150TIP3    H2 9415   5.084   3.050   1.697  0.4647  0.6847  0.2357
 3151TIP3   OH2 9416   0.522   1.722   4.365 -0.4929 -0.2894  0.0189
 3151TIP3    H1 9417   0.567   1.778   4.428 -0.0678 -1.4947  0.8163
 3151TIP3    H2 9418   0.572   1.640   4.365 -1.3782 -0.8545 -0.7501
 3152TIP3   OH2 9419   5.805   1.798   0.559 -0.5202 -0.1228 -0.1126
 3152TIP3    H1 9420   5.890   1.754   0.552  1.5530  3.4718 -0.3905
 3152TIP3    H2 9421   5.784   1.792   0.652 -0.3294 -1.5875 -0.1339
 3153TIP3   OH2 9422   2.146   5.059   5.798  0.2648  0.3158 -0.5188
 3153TIP3    H1 9423   2.220   5.042   5.856 -0.1235 -0.5844 -0.2630
 3153TIP3    H2 9424   2.151   5.152   5.778  1.0499  0.4041  0.0666
 3154TIP3   OH2 9425   1.706   5.893   2.181 -0.6754  0.6494 -0.3609
 3154TIP3    H1 9426   1.686   5.937   2.263  0.0441 -1.7919  1.2491
 3154TIP3    H2 9427   1.621   5.861   2.150 -1.0690  2.3084 -1.0669
 3155TIP3   OH2 9428   2.752   2.845   4.861  0.1442 -0.0854  0.2907
 3155TIP3    H1 9429   2.720   2.796   4.786  0.8146 -1.5077  0.8949
 3155TIP3    H2 9430   2.687   2.828   4.930 -0.1576  0.7265  0.2137
 3156TIP3   OH2 9431   5.436   3.362   3.540 -0.8163  0.1228  0.5251
 3156TIP3    H1 9432   5.367   3.351   3.606 -1.3647  0.4626  0.0190
 3156TIP3    H2 9433   5.450   3.457   3.535  0.8591 -0.0072  1.7908
 3157TIP3   OH2 9434   0.819   6.001   2.715  0.4896 -0.1829  0.1412
 3157TIP3    H1 9435   0.903   5.976   2.677  0.7167  0.4844  0.1826
 3157TIP3    H2 9436   0.789   6.075   2.661  0.1109 -0.1746  0.3560
 3158TIP3   OH2 9437   2.145   2.766   2.728  0.3454 -0.1664 -0.0513
 3158TIP3    H1 9438   2.062   2.812   2.735  0.6781  0.3063  0.9223
 3158TIP3    H2 9439   2.132   2.685   2.776  1.4862  1.4592  3.3330
 3159TIP3   OH2 9440   7.063   4.388   2.869  0.0552 -0.9962  0.3153
 3159TIP3    H1 9441   7.084   4.479   2.848  1.1987 -1.1951  0.4845
 3159TIP3    H2 9442   7.053   4.387   2.965 -0.6750 -0.9123  0.2379
 3160TIP3   OH2 9443   1.995   2.623   3.331 -0.2858  0.7446  0.2662
 3160TIP3    H1 9444   2.027   2.696   3.279  0.9642 -0.8321 -1.3013
 3160TIP3    H2 9445   2.006   2.546   3.275 -1.2059 -0.7222  1.9671
 3161TIP3   OH2 9446   2.748   5.472   5.241  0.0330  0.2785  0.4797
 3161TIP3    H1 9447   2.705   5.540   5.190  1.4383 -0.5134 -1.9021
 3161TIP3    H2 9448   2.841   5.489   5.231  0.4206 -1.7557  0.0592
 3162TIP3   OH2 9449   6.278   4.629   4.680 -0.7067  0.0118 -0.3918
 3162TIP3    H1 9450   6.290   4.660   4.591 -3.9719 -2.3606 -1.8410
 3162TIP3    H2 9451   6.208   4.684   4.716 -1.2997 -0.8146 -0.2740
 3163TIP3   OH2 9452   6.924   3.985   5.912  0.0311 -0.0383  0.3691
 3163TIP3    H1 9453   6.937   4.015   5.822  0.1306 -0.7905  0.1243
 3163TIP3    H2 9454   6.833   3.956   5.916  0.3062 -0.9812  0.2000
 3164TIP3   OH2 9455   0.259   1.763   4.675 -0.1759  0.0228 -0.3754
 3164TIP3    H1 9456   0.226   1.713   4.749 -1.8097  1.6864  0.1022
 3164TIP3    H2 9457   0.225   1.717   4.598  0.1704 -0.7969 -0.0490
 3165TIP3   OH2 9458   0.794   4.820   0.682 -0.2980  0.0465  0.1948
 3165TIP3    H1 9459   0.793   4.830   0.777 -1.4096  0.7179  0.1295
 3165TIP3    H2 9460   0.707   4.848   0.654  0.1127  0.1462 -1.0502
 3166TIP3   OH2 9461   2.759   5.392   4.238 -0.7265  0.7034 -0.1239
 3166TIP3    H1 9462   2.754   5.318   4.298 -1.0278  0.2715 -0.6681
 3166TIP3    H2 9463   2.850   5.393   4.209 -0.7390  0.4890 -0.1775
 3167TIP3   OH2 9464   5.199   1.114   4.424  0.0834 -0.0281 -0.1670
 3167TIP3    H1 9465   5.117   1.072   4.451  0.8044 -0.6213  1.2424
 3167TIP3    H2 9466   5.188   1.206   4.448 -0.6096  0.1437 -1.0957
 3168TIP3   OH2 9467   1.201   6.642   5.386 -0.0033 -0.1077  0.7621
 3168TIP3    H1 9468   1.251   6.665   5.465 -0.3225  2.4245  0.3240
 3168TIP3    H2 9469   1.116   6.686   5.399 -0.9838 -1.7446  0.1055
 3169TIP3   OH2 9470   3.764   2.333   4.135 -0.1990  0.2632  0.4660
 3169TIP3    H1 9471   3.842   2.384   4.113 -0.7097  1.6497  1.7277
 3169TIP3    H2 9472   3.691   2.388   4.108 -0.7688 -0.4136  0.5819
 3170TIP3   OH2 9473   6.092   4.631   5.193 -0.4466  0.0469 -0.8714
 3170TIP3    H1 9474   6.136   4.702   5.145  0.2302 -0.2860 -0.7568
 3170TIP3    H2 9475   6.033   4.676   5.253  1.0692  0.5944  0.2656
 3171TIP3   OH2 9476   2.995   4.498   3.579  0.4214  0.1936  0.3789
 3171TIP3    H1 9477   3.082   4.460   3.565  1.0185  2.0623 -1.5904
 3171TIP3    H2 9478   2.936   4.441   3.529  0.6986 -0.3362  0.6476
 3172TIP3   OH2 9479   3.220   6.098   4.943  0.5389 -0.4114  0.3928
 3172TIP3    H1 9480   3.127   6.119   4.943  0.6587  0.2094 -0.7131
 3172TIP3    H2 9481   3.239   6.070   5.033 -0.3158  1.3306  1.1685
 3173TIP3   OH2 9482   2.126   1.454   1.926 -0.3730 -0.3016  0.0063
 3173TIP3    H1 9483   2.140   1.416   2.013 -1.2499  0.4849  0.5132
 3173TIP3    H2 9484   2.188   1.526   1.921  1.4981 -1.9073 -1.0717
 3174TIP3   OH2 9485   6.412   3.591   3.645  0.5285  0.0363  0.6281
 3174TIP3    H1 9486   6.466   3.516   3.671  0.1410  0.4183  2.7618
 3174TIP3    H2 9487   6.385   3.631   3.728 -1.7078  0.8132 -0.3789
 3175TIP3   OH2 9488   5.010   3.379   4.215 -0.0835 -0.1375  0.5614
 3175TIP3    H1 9489   5.098   3.342   4.210 -0.3329 -0.8693  1.3286
 3175TIP3    H2 9490   4.955   3.306   4.245 -1.0645  0.1373 -0.4790
 3176TIP3   OH2 9491   5.424   1.653   2.618 -0.3389 -0.1598 -0.3922
 3176TIP3    H1 9492   5.405   1.559   2.627 -0.1013 -0.0934  1.1179
 3176TIP3    H2 9493   5.484   1.671   2.691 -1.2236  1.3872 -0.0083
 3177TIP3   OH2 9494   5.794   0.792   2.838 -0.3793 -0.4190  0.2914
 3177TIP3    H1 9495   5.740   0.713   2.838  0.0622 -0.7297  0.8857
 3177TIP3    H2 9496   5.751   0.851   2.776  0.4720 -1.9096 -1.8195
 3178TIP3   OH2 9497   6.260   5.022   3.233 -0.3391 -0.2692  0.2694
 3178TIP3    H1 9498   6.200   5.063   3.170 -1.2735 -0.0221  1.2933
 3178TIP3    H2 9499   6.209   4.952   3.273  0.2087 -0.3523  0.8357
 3179TIP3   OH2 9500   4.107   5.268   5.441  0.0821 -0.2480 -0.4289
 3179TIP3    H1 9501   4.104   5.253   5.346  1.7772 -0.5455 -0.4563
 3179TIP3    H2 9502   4.138   5.186   5.477 -2.2015 -0.7468  0.6034
 3180TIP3   OH2 9503   5.879   3.724   5.487  0.0343  0.5516 -0.5537
 3180TIP3    H1 9504   5.831   3.783   5.545  0.5620  0.5070 -0.0663
 3180TIP3    H2 9505   5.970   3.754   5.490  0.3198 -0.2994 -0.2704
 3181TIP3   OH2 9506   4.561   5.084   3.371  0.2780 -0.2433 -0.3492
 3181TIP3    H1 9507   4.509   5.063   3.448  0.6979  0.6767  0.1936
 3181TIP3    H2 9508   4.635   5.024   3.375 -0.0074 -0.5998 -0.3652
 3182TIP3   OH2 9509   3.325   3.416   1.820 -0.1594  0.1420  0.9372
 3182TIP3    H1 9510   3.326   3.511   1.824 -0.9060  0.1205  2.0462
 3182TIP3    H2 9511   3.414   3.390   1.843  0.1217  0.5733  0.3577
 3183TIP3   OH2 9512   4.958   0.343   4.840  0.3095 -0.2627 -0.5828
 3183TIP3    H1 9513   5.024   0.294   4.792  2.7199  1.4655  0.6864
 3183TIP3    H2 9514   4.963   0.309   4.929 -0.8233 -0.3816 -0.5569
 3184TIP3   OH2 9515   6.176   0.653   3.036 -0.3656 -0.0849  0.7788
 3184TIP3    H1 9516   6.252   0.598   3.055  1.1600  1.2409 -1.1290
 3184TIP3    H2 9517   6.165   0.706   3.115  1.4831  0.5612  0.6494
 3185TIP3   OH2 9518   4.869   2.586   3.896  0.0918 -0.3003 -0.2221
 3185TIP3    H1 9519   4.914   2.607   3.978 -0.9723  2.4360 -0.2374
 3185TIP3    H2 9520   4.904   2.500   3.871  0.7335 -1.0522  2.8547
 3186TIP3   OH2 9521   6.690   0.512   1.417  0.3492 -0.5121 -0.8124
 3186TIP3    H1 9522   6.695   0.418   1.434  0.4804 -0.1978  1.0619
 3186TIP3    H2 9523   6.615   0.542   1.468  0.3884  0.4339 -1.2877
 3187TIP3   OH2 9524   2.263   3.280   1.907  0.1922  0.0615  0.0824
 3187TIP3    H1 9525   2.340   3.334   1.891 -0.6330  0.9458 -1.1322
 3187TIP3    H2 9526   2.189   3.339   1.892 -0.7593 -1.4690 -1.6334
 3188TIP3   OH2 9527   0.874   5.266   1.843 -0.3128  0.0252 -0.0009
 3188TIP3    H1 9528   0.949   5.293   1.790  0.0122 -1.3528 -0.2804
 3188TIP3    H2 9529   0.890   5.307   1.929  2.2538 -2.3635  0.8175
 3189TIP3   OH2 9530   5.574   0.475   2.035 -1.1613 -0.6399  0.1083
 3189TIP3    H1 9531   5.653   0.472   2.088 -0.8757 -1.4434 -0.3458
 3189TIP3    H2 9532   5.605   0.474   1.944 -1.6494  0.4690 -0.0850
 3190TIP3   OH2 9533   5.755   3.386   1.774 -0.8104 -0.1330  0.5284
 3190TIP3    H1 9534   5.741   3.292   1.788 -2.1747 -0.5503 -2.6897
 3190TIP3    H2 9535   5.848   3.399   1.792 -1.0058 -1.5705  3.1858
 3191TIP3   OH2 9536   2.570   2.163   3.414 -0.2064 -0.7043 -0.7408
 3191TIP3    H1 9537   2.645   2.124   3.370 -0.5471 -2.5293  0.1876
 3191TIP3    H2 9538   2.496   2.106   3.392 -0.7637 -0.5280  0.5479
 3192TIP3   OH2 9539   0.489   5.710   4.901  0.1616  0.6918  0.2151
 3192TIP3    H1 9540   0.536   5.743   4.825  0.1528 -0.9922 -0.5533
 3192TIP3    H2 9541   0.451   5.627   4.872  0.0678  0.0593  2.0207
 3193TIP3   OH2 9542   1.018   5.151   0.223  0.3344 -0.6530  0.2466
 3193TIP3    H1 9543   1.014   5.065   0.263  0.8634 -0.7403  0.1256
 3193TIP3    H2 9544   1.111   5.166   0.206  0.3984  0.5013  1.4710
 3194TIP3   OH2 9545   0.760   1.494   1.111 -0.1002  0.1979 -0.1004
 3194TIP3    H1 9546   0.722   1.580   1.092 -0.1874  0.4979  1.3218
 3194TIP3    H2 9547   0.684   1.436   1.118 -0.1949  0.4386  0.9906
 3195TIP3   OH2 9548   4.269   5.484   2.883 -0.1043 -0.3195  0.0817
 3195TIP3    H1 9549   4.307   5.409   2.928  0.4414 -0.6313 -0.8830
 3195TIP3    H2 9550   4.341   5.546   2.875 -0.5830  0.3782  0.9855
 3196TIP3   OH2 9551   6.149   4.318   2.856 -0.0919  0.5545  0.2706
 3196TIP3    H1 9552   6.093   4.349   2.926  2.3206  3.6037  1.0868
 3196TIP3    H2 9553   6.114   4.359   2.777 -0.1119  0.9702  0.4910
 3197TIP3   OH2 9554   6.076   5.900   3.744 -1.0327 -0.2040  0.1393
 3197TIP3    H1 9555   6.020   5.935   3.675 -2.0644  2.0534  1.9891
 3197TIP3    H2 9556   6.165   5.924   3.717 -1.5590  2.3036  0.3868
 3198TIP3   OH2 9557   0.275   2.636   1.214  1.2596 -0.1090  0.0934
 3198TIP3    H1 9558   0.227   2.709   1.255  1.1147  0.3215 -0.8256
 3198TIP3    H2 9559   0.320   2.675   1.140  1.0008 -0.9944 -0.5477
 3199TIP3   OH2 9560   0.606   4.647   5.069  0.3558 -0.8322 -0.2093
 3199TIP3    H1 9561   0.597   4.645   5.165  0.4708  1.1242 -0.1160
 3199TIP3    H2 9562   0.700   4.653   5.054  0.3278 -0.9787 -0.4458
 3200TIP3   OH2 9563   6.181   3.233   2.488 -1.0299  0.1314  0.0366
 3200TIP3    H1 9564   6.179   3.138   2.476  0.0171  0.2405 -1.2133
 3200TIP3    H2 9565   6.265   3.250   2.531 -1.0186  0.5199 -0.1324
 3201TIP3   OH2 9566   6.584   3.401   3.751 -0.5525 -0.9658 -0.3483
 3201TIP3    H1 9567   6.661   3.393   3.695 -1.5927  3.0385 -2.7704
 3201TIP3    H2 9568   6.619   3.405   3.840  2.0518  0.1943 -1.3113
 3202TIP3   OH2 9569   6.429   6.257   3.582 -0.0658 -0.1417 -0.0275
 3202TIP3    H1 9570   6.387   6.234   3.665 -1.8650  0.3988 -0.7523
 3202TIP3    H2 9571   6.472   6.177   3.554 -3.5872 -1.8861 -0.9742
 3203TIP3   OH2 9572   5.315   4.133   5.410 -0.0698  0.6270  0.3785
 3203TIP3    H1 9573   5.245   4.142   5.475 -0.9999  0.8279 -0.6119
 3203TIP3    H2 9574   5.380   4.076   5.452 -0.1079  1.6454  1.8975
 3204TIP3   OH2 9575   0.672   1.553   2.943 -0.2781 -0.2073 -0.3798
 3204TIP3    H1 9576   0.717   1.480   2.983  2.7655  1.9489  0.4856
 3204TIP3    H2 9577   0.648   1.610   3.016 -0.5929  0.7023 -1.1657
 3205TIP3   OH2 9578   3.549   6.156   2.305  0.0040 -0.0439 -0.5379
 3205TIP3    H1 9579   3.555   6.201   2.221  0.2642  0.7339 -0.1136
 3205TIP3    H2 9580   3.636   6.118   2.318 -0.2195 -0.6964 -0.9023
 3206TIP3   OH2 9581   6.527   0.489   4.009  0.1182 -0.0403 -0.8495
 3206TIP3    H1 9582   6.609   0.537   4.015  0.3551 -0.5843  0.7295
 3206TIP3    H2 9583   6.487   0.519   3.927  1.6697  0.5522 -1.4195
 3207TIP3   OH2 9584   6.134   4.466   1.942  0.1295  0.2752 -0.4044
 3207TIP3    H1 9585   6.132   4.371   1.934  1.2276  0.2143 -0.1180
 3207TIP3    H2 9586   6.153   4.498   1.854 -1.0305  0.2873 -0.6699
 3208TIP3   OH2 9587   2.747   5.205   2.289  0.0612  0.3041 -0.0507
 3208TIP3    H1 9588   2.768   5.120   2.251  1.0783  0.5051  0.0388
 3208TIP3    H2 9589   2.699   5.185   2.369 -0.4984 -0.1546 -0.4842
 3209TIP3   OH2 9590   3.890   5.991   4.438  0.3834 -0.2657  0.2738
 3209TIP3    H1 9591   3.882   6.080   4.471  0.7052  0.4026 -1.3856
 3209TIP3    H2 9592   3.909   5.939   4.516  1.0061  1.2284  1.1686
 3210TIP3   OH2 9593   2.820   3.366   2.967  0.3463  0.1818 -0.3584
 3210TIP3    H1 9594   2.897   3.322   3.004  0.6842  1.2200  0.1925
 3210TIP3    H2 9595   2.793   3.309   2.895  1.9504  0.0529 -0.8996
 3211TIP3   OH2 9596   2.935   2.285   2.734 -0.2781  0.0541 -0.1243
 3211TIP3    H1 9597   2.997   2.334   2.680 -3.4181  0.4291 -3.8635
 3211TIP3    H2 9598   2.850   2.325   2.715 -2.0063 -1.6824  3.1241
 3212TIP3   OH2 9599   2.061   5.020   0.066  0.3319  0.1686  0.3237
 3212TIP3    H1 9600   2.023   4.965   0.134 -0.6094  1.0171  0.5073
 3212TIP3    H2 9601   2.024   5.107   0.082 -0.4268  0.2644 -1.6589
 3213TIP3   OH2 9602   6.385   5.591   3.530  0.6338  0.0130  0.3997
 3213TIP3    H1 9603   6.454   5.628   3.476 -0.1694 -0.5557 -1.0743
 3213TIP3    H2 9604   6.386   5.498   3.511  0.7163 -0.3142  1.8492
 3214TIP3   OH2 9605   4.904   0.376   2.285  0.0641 -0.3765 -0.5226
 3214TIP3    H1 9606   4.948   0.395   2.202  1.3727 -3.2211 -0.5832
 3214TIP3    H2 9607   4.974   0.372   2.350 -0.5542 -1.2333  0.1169
 3215TIP3   OH2 9608   0.283   1.955   4.174 -0.0264 -0.1739  0.0864
 3215TIP3    H1 9609   0.348   1.886   4.171  0.0726 -0.0836  0.1553
 3215TIP3    H2 9610   0.208   1.916   4.219  0.3385  0.0221  0.8820
 3216TIP3   OH2 9611   2.884   1.786   5.579 -0.4916 -0.0850 -0.6417
 3216TIP3    H1 9612   2.818   1.792   5.510 -1.8024  0.7912  0.6138
 3216TIP3    H2 9613   2.967   1.797   5.534 -1.0690 -2.2755 -2.4332
 3217TIP3   OH2 9614   2.127   1.630   5.600  0.1892  0.4194  0.0290
 3217TIP3    H1 9615   2.046   1.582   5.587 -0.2849  1.6277 -1.9323
 3217TIP3    H2 9616   2.196   1.573   5.566 -0.1408  0.3873 -0.5802
 3218TIP3   OH2 9617   1.735   5.185   3.916 -0.5324  0.0358  0.3270
 3218TIP3    H1 9618   1.736   5.091   3.894 -0.1439  0.3163 -0.9254
 3218TIP3    H2 9619   1.650   5.215   3.883  0.6726  0.7804 -2.3618
 3219TIP3   OH2 9620   6.254   3.535   0.215 -0.1535 -0.5091  0.0997
 3219TIP3    H1 9621   6.292   3.584   0.288  0.4563  0.5336 -0.8893
 3219TIP3    H2 9622   6.166   3.572   0.205 -0.6875 -1.4644  1.0292
 3220TIP3   OH2 9623   3.131   3.239   4.241 -0.1775 -0.5510  0.1291
 3220TIP3    H1 9624   3.136   3.146   4.265 -0.1195 -0.4111  0.6697
 3220TIP3    H2 9625   3.108   3.238   4.148  0.9290 -1.1098 -0.1578
 3221TIP3   OH2 9626   4.819   5.318   1.144  0.2567  0.2866 -0.4242
 3221TIP3    H1 9627   4.783   5.376   1.211 -1.0333  1.5671 -2.1319
 3221TIP3    H2 9628   4.742   5.277   1.104  0.9607 -0.1225 -1.3885
 3222TIP3   OH2 9629   2.817   1.005   2.210  0.1366  0.1764 -0.1808
 3222TIP3    H1 9630   2.884   0.951   2.168  0.9407  1.2201 -0.2726
 3222TIP3    H2 9631   2.840   1.095   2.186 -0.4851  0.6546  0.9316
 3223TIP3   OH2 9632   3.956   2.715   2.665 -0.3615  0.2972  0.1497
 3223TIP3    H1 9633   3.924   2.796   2.705  0.4635 -0.1177  1.6863
 3223TIP3    H2 9634   3.888   2.650   2.685  0.0552  0.0879  0.9056
 3224TIP3   OH2 9635   4.292   0.831   5.696 -0.2066 -0.4555 -0.5277
 3224TIP3    H1 9636   4.276   0.925   5.682 -1.8708 -0.6200  0.0301
 3224TIP3    H2 9637   4.271   0.791   5.612 -3.2012 -0.6738  0.2017
 3225TIP3   OH2 9638   3.973   3.351   3.799  0.6359  0.3920  0.3836
 3225TIP3    H1 9639   4.002   3.441   3.813  0.2388  0.5397  0.2697
 3225TIP3    H2 9640   3.896   3.341   3.854  1.2439 -0.1867  1.1459
 3226TIP3   OH2 9641   5.838   4.763   2.986 -0.0978 -0.4051  0.3389
 3226TIP3    H1 9642   5.888   4.790   2.910 -2.7814  1.2672 -0.9933
 3226TIP3    H2 9643   5.802   4.844   3.022 -1.0290 -1.4020  1.8096
 3227TIP3   OH2 9644   4.375   1.150   3.872  0.3405  0.2657 -0.0546
 3227TIP3    H1 9645   4.375   1.177   3.963  1.2206 -0.2101  0.1006
 3227TIP3    H2 9646   4.462   1.173   3.840  2.1846 -4.3568  0.7647
 3228TIP3   OH2 9647   2.080   3.526   3.505  0.6937  0.1211  0.1089
 3228TIP3    H1 9648   2.049   3.444   3.465 -0.3839  0.7556 -0.4112
 3228TIP3    H2 9649   2.051   3.594   3.445  0.7393  0.9600  1.0194
 3229TIP3   OH2 9650   3.357   1.952   4.901 -0.2775  0.1632  0.3676
 3229TIP3    H1 9651   3.416   1.977   4.972  0.5534  2.6643 -1.0607
 3229TIP3    H2 9652   3.299   2.028   4.892 -0.0080  0.1476 -1.9276
 3230TIP3   OH2 9653   0.690   6.341   0.875  0.1516  0.2819 -0.0924
 3230TIP3    H1 9654   0.715   6.432   0.861  0.1023  0.5926  1.6306
 3230TIP3    H2 9655   0.610   6.330   0.822 -0.1560  1.3947  0.1171
 3231TIP3   OH2 9656   0.652   3.542   5.703  0.1116 -0.0417 -0.2591
 3231TIP3    H1 9657   0.651   3.614   5.640 -0.3249 -0.1399 -0.3682
 3231TIP3    H2 9658   0.721   3.565   5.765 -0.5815  0.9053  0.1879
 3232TIP3   OH2 9659   1.457   2.371   3.924 -0.6372 -0.0960  0.0354
 3232TIP3    H1 9660   1.485   2.462   3.928 -1.1531  0.0417  0.7785
 3232TIP3    H2 9661   1.537   2.321   3.940 -0.6286  0.2708  1.2238
 3233TIP3   OH2 9662   3.869   1.538   0.952 -0.6469  0.0574 -0.4779
 3233TIP3    H1 9663   3.961   1.540   0.978 -0.3342 -0.2092 -1.5207
 3233TIP3    H2 9664   3.867   1.484   0.873 -1.2990  2.1610 -1.9814
 3234TIP3   OH2 9665   5.167   2.138   5.479  0.2217  0.0706  0.3083
 3234TIP3    H1 9666   5.113   2.061   5.496  0.7516 -0.4263 -0.2130
 3234TIP3    H2 9667   5.215   2.117   5.399  1.0163  0.5862  0.6253
 3235TIP3   OH2 9668   4.944   5.347   0.515 -0.6764  0.1480 -0.4347
 3235TIP3    H1 9669   4.906   5.431   0.491 -1.0847 -0.1609 -0.8790
 3235TIP3    H2 9670   4.869   5.291   0.535 -0.3852  0.0889  0.5428
 3236TIP3   OH2 9671   2.426   5.452   3.240 -0.4173 -0.3020  0.3239
 3236TIP3    H1 9672   2.387   5.517   3.298  1.9433  0.9596  0.6272
 3236TIP3    H2 9673   2.383   5.466   3.155  1.7788  3.6265 -0.3862
 3237TIP3   OH2 9674   6.189   5.756   4.206 -0.0622  0.1469  0.1347
 3237TIP3    H1 9675   6.123   5.687   4.198 -1.4229  1.3695  0.3267
 3237TIP3    H2 9676   6.145   5.835   4.176  0.7168  1.3631  1.9887
 3238TIP3   OH2 9677   2.767   0.820   5.035 -0.6380 -0.2574  0.3018
 3238TIP3    H1 9678   2.696   0.864   5.080 -1.1513 -2.1405  1.4440
 3238TIP3    H2 9679   2.725   0.771   4.965 -0.5266 -1.4688  1.0499
 3239TIP3   OH2 9680   3.076   0.730   2.458 -0.3312 -0.2287  0.1790
 3239TIP3    H1 9681   3.033   0.689   2.383 -1.5890 -0.4659  0.9991
 3239TIP3    H2 9682   3.170   0.724   2.438 -0.5513 -1.9840 -0.5059
 3240TIP3   OH2 9683   1.521   3.452   4.136 -0.7389  0.2032  0.0228
 3240TIP3    H1 9684   1.438   3.404   4.128 -0.6120  0.2047 -1.6984
 3240TIP3    H2 9685   1.517   3.492   4.222 -1.5044 -1.6945  0.9227
 3241TIP3   OH2 9686   3.898   1.952   0.907 -0.0597 -0.5053 -1.1345
 3241TIP3    H1 9687   3.972   1.898   0.882  0.8066 -0.0332  0.2580
 3241TIP3    H2 9688   3.822   1.895   0.897  0.8934 -2.3466  1.1194
 3242TIP3   OH2 9689   1.626   0.268   0.469 -0.3124  0.1903  0.0800
 3242TIP3    H1 9690   1.594   0.262   0.379 -0.2438  0.8775  0.0027
 3242TIP3    H2 9691   1.574   0.203   0.517  0.3411 -0.8904 -0.6380
 3243TIP3   OH2 9692   6.278   3.839   2.205  0.4019 -0.0490 -0.2695
 3243TIP3    H1 9693   6.192   3.847   2.163  0.0437 -0.2753  0.4047
 3243TIP3    H2 9694   6.337   3.888   2.148 -0.4318  1.3260  0.0225
 3244TIP3   OH2 9695   6.624   5.008   0.052  0.4451 -0.4202 -0.3697
 3244TIP3    H1 9696   6.562   4.963   0.108  1.9359  1.2144  2.8790
 3244TIP3    H2 9697   6.706   4.960   0.064  0.6534 -0.4712 -1.8170
 3245TIP3   OH2 9698   2.132   0.103   3.158 -0.0755 -0.0585 -0.4839
 3245TIP3    H1 9699   2.131   0.130   3.066 -0.0300 -0.6301 -0.6561
 3245TIP3    H2 9700   2.221   0.073   3.173 -0.0397  0.1880 -0.2063
 3246TIP3   OH2 9701   4.730   3.556   4.375 -0.3025 -0.2816  0.3524
 3246TIP3    H1 9702   4.738   3.491   4.446 -0.1162  0.7817  1.3411
 3246TIP3    H2 9703   4.643   3.541   4.339 -0.6905 -0.4033  1.2903
 3247TIP3   OH2 9704   0.674   5.523   3.382  0.7127 -0.2241 -0.4445
 3247TIP3    H1 9705   0.747   5.533   3.443  1.1728  0.3071 -1.0743
 3247TIP3    H2 9706   0.693   5.442   3.334  1.7085  0.7113 -1.6842
 3248TIP3   OH2 9707   3.613   6.724   1.410  0.7744  0.5258  0.5152
 3248TIP3    H1 9708   3.643   6.697   1.323  1.5345  0.2042  0.8778
 3248TIP3    H2 9709   3.579   6.644   1.450 -0.8779  0.9329  0.0011
 3249TIP3   OH2 9710   0.962   6.476   1.578  0.9911  0.0801  0.0911
 3249TIP3    H1 9711   0.880   6.527   1.581  0.6448 -0.3437 -1.4752
 3249TIP3    H2 9712   1.030   6.541   1.559  0.5644  0.0370 -1.7995
 3250TIP3   OH2 9713   7.116   5.539   1.891  0.7766  0.4252 -0.5369
 3250TIP3    H1 9714   7.042   5.523   1.832  0.9107  0.2763 -0.6670
 3250TIP3    H2 9715   7.079   5.534   1.979  0.4219  1.3953 -0.6196
 3251TIP3   OH2 9716   5.967   0.504   0.510 -0.3969 -0.1537 -0.3851
 3251TIP3    H1 9717   5.943   0.594   0.485  0.9416  0.2887 -0.1341
 3251TIP3    H2 9718   6.007   0.468   0.431 -0.4634 -0.3576 -0.3259
 3252TIP3   OH2 9719   1.744   0.412   0.828  0.9088  0.1608 -0.0867
 3252TIP3    H1 9720   1.817   0.472   0.815  0.6968  1.2385  2.9523
 3252TIP3    H2 9721   1.667   0.468   0.834  0.3274 -0.6480  0.1707
 3253TIP3   OH2 9722   2.108   6.200   1.073 -0.0358  0.5615  0.0766
 3253TIP3    H1 9723   2.184   6.167   1.025  0.3570  0.9096  0.4471
 3253TIP3    H2 9724   2.077   6.273   1.019 -0.2001  0.3221 -0.1531
 3254TIP3   OH2 9725   6.657   3.262   0.531  0.4558  0.2524 -0.7435
 3254TIP3    H1 9726   6.694   3.309   0.605  0.4984 -1.9594  0.7411
 3254TIP3    H2 9727   6.723   3.195   0.510 -1.0432 -1.4021 -0.4459
 3255TIP3   OH2 9728   2.073   1.822   4.449 -0.3065  0.4952 -0.1547
 3255TIP3    H1 9729   2.006   1.796   4.387  0.0054 -0.3240 -0.1532
 3255TIP3    H2 9730   2.147   1.764   4.431  0.9161  2.2392 -1.0485
 3256TIP3   OH2 9731   0.693   6.607   1.955 -0.5760  0.3558  0.0156
 3256TIP3    H1 9732   0.770   6.583   2.007 -0.9425 -1.2515 -0.1488
 3256TIP3    H2 9733   0.728   6.624   1.867 -0.4452 -0.8944 -0.1932
 3257TIP3   OH2 9734   0.923   0.376   1.616 -0.0378  0.7666  0.0500
 3257TIP3    H1 9735   0.838   0.334   1.601  0.3723 -0.0363 -0.1231
 3257TIP3    H2 9736   0.903   0.469   1.624 -0.6892  0.8774 -2.1356
 3258TIP3   OH2 9737   5.768   1.596   4.755 -0.0490 -0.3655 -0.3418
 3258TIP3    H1 9738   5.845   1.605   4.812 -0.0760 -0.8201 -0.2258
 3258TIP3    H2 9739   5.695   1.630   4.807  0.0569 -0.0372 -0.4085
 3259TIP3   OH2 9740   0.988   6.050   4.578  0.6068 -0.1645  0.2707
 3259TIP3    H1 9741   1.044   5.989   4.625  0.8446 -0.8323 -0.8562
 3259TIP3    H2 9742   1.027   6.058   4.491 -0.9479 -0.5876 -0.5260
 3260TIP3   OH2 9743   5.543   6.055   4.880  0.4618  0.0570 -0.1023
 3260TIP3    H1 9744   5.596   6.011   4.812  0.9710  1.8736 -0.9299
 3260TIP3    H2 9745   5.558   6.148   4.866  0.4626  0.5020  2.4590
 3261TIP3   OH2 9746   7.079   5.462   1.057  0.6070  0.3626  0.4022
 3261TIP3    H1 9747   7.018   5.424   1.121  0.2826  0.0918 -0.0586
 3261TIP3    H2 9748   7.122   5.533   1.104 -0.2257  0.7028  0.6751
 3262TIP3   OH2 9749   0.214   1.865   1.137  0.0448  0.1059  0.2117
 3262TIP3    H1 9750   0.250   1.952   1.120 -1.3827  0.4311 -1.4779
 3262TIP3    H2 9751   0.258   1.808   1.073  1.1667 -0.5069  1.4839
 3263TIP3   OH2 9752   7.126   2.491   3.136 -0.4203  0.5282 -0.1650
 3263TIP3    H1 9753   7.152   2.485   3.044  1.5288  0.8730  0.3386
 3263TIP3    H2 9754   7.110   2.400   3.162  0.5046  0.2704 -0.4503
 3264TIP3   OH2 9755   4.524   0.104   2.463 -0.6244  0.4356  0.1509
 3264TIP3    H1 9756   4.596   0.120   2.403  0.3188 -2.1159  0.4621
 3264TIP3    H2 9757   4.465   0.046   2.414 -2.2125  2.0168  0.1089
 3265TIP3   OH2 9758   6.908   0.529   2.318 -0.2974  0.2557  0.1913
 3265TIP3    H1 9759   6.986   0.574   2.285 -0.1866  0.6283  0.9310
 3265TIP3    H2 9760   6.841   0.546   2.252  0.7810 -1.8798 -1.5444
 3266TIP3   OH2 9761   3.372   2.767   2.838 -0.0177 -0.1963 -0.2470
 3266TIP3    H1 9762   3.326   2.684   2.856  0.3410 -0.4332 -0.4080
 3266TIP3    H2 9763   3.419   2.751   2.756 -1.1000  0.6475 -1.0614
 3267TIP3   OH2 9764   6.211   6.213   2.025 -0.1984  0.6491 -0.5261
 3267TIP3    H1 9765   6.218   6.170   2.110 -2.8454  0.6100 -0.2264
 3267TIP3    H2 9766   6.207   6.307   2.046 -1.8852  0.5929 -0.4519
 3268TIP3   OH2 9767   2.383   0.554   0.523 -0.1999 -0.0176  0.2467
 3268TIP3    H1 9768   2.391   0.563   0.618  2.3089 -1.2850  0.2401
 3268TIP3    H2 9769   2.457   0.605   0.488  0.1414 -1.2347 -0.8845
 3269TIP3   OH2 9770   3.121   4.754   3.691 -0.0239  0.1241  0.6634
 3269TIP3    H1 9771   3.078   4.671   3.672 -0.9955  0.5347  1.0122
 3269TIP3    H2 9772   3.187   4.764   3.622 -0.1875 -0.7226  0.3742
 3270TIP3   OH2 9773   2.750   1.665   0.462  0.3603 -0.7104  0.0893
 3270TIP3    H1 9774   2.824   1.726   0.454  1.4668 -1.8756  1.0721
 3270TIP3    H2 9775   2.772   1.611   0.537 -1.0317 -1.7579 -0.2248
 3271TIP3   OH2 9776   1.701   5.375   3.054 -0.3624 -0.1583 -0.3097
 3271TIP3    H1 9777   1.655   5.342   2.976 -0.6586 -2.9338  0.9023
 3271TIP3    H2 9778   1.687   5.307   3.120  0.6686  1.6545  1.9086
 3272TIP3   OH2 9779   0.879   4.063   1.916  0.4420 -0.2109 -0.2436
 3272TIP3    H1 9780   0.805   4.062   1.976  0.6317  1.6679  0.0637
 3272TIP3    H2 9781   0.956   4.052   1.972  0.5657  0.7132 -0.2225
 3273TIP3   OH2 9782   3.169   2.133   1.593 -0.1784 -0.1084 -0.2689
 3273TIP3    H1 9783   3.161   2.221   1.555 -0.1816  0.1218  0.2511
 3273TIP3    H2 9784   3.263   2.121   1.606 -0.2122  0.0165  0.1073
 3274TIP3   OH2 9785   0.727   5.416   1.461 -0.3213  0.7815  0.2675
 3274TIP3    H1 9786   0.651   5.474   1.461  0.6732  2.1942 -1.4803
 3274TIP3    H2 9787   0.796   5.467   1.419  0.8774 -1.3394 -0.4997
 3275TIP3   OH2 9788   0.875   1.307   2.748 -1.0839 -0.1158 -0.1467
 3275TIP3    H1 9789   0.880   1.396   2.712  1.2361 -0.4224 -0.7816
 3275TIP3    H2 9790   0.839   1.254   2.678 -0.4644 -0.0053 -0.5632
 3276TIP3   OH2 9791   6.590   1.565   4.002  0.0496  0.1380  0.3718
 3276TIP3    H1 9792   6.679   1.564   3.968  0.4914  1.4846  1.3913
 3276TIP3    H2 9793   6.549   1.640   3.958 -0.5007 -0.3079  0.1150
 3277TIP3   OH2 9794   4.472   3.592   3.946 -0.0202 -0.1146 -0.2842
 3277TIP3    H1 9795   4.490   3.573   3.854 -1.3210 -0.3614 -0.5090
 3277TIP3    H2 9796   4.477   3.507   3.990  0.5337 -0.0070 -0.1377
 3278TIP3   OH2 9797   5.722   5.798   5.243  0.4158 -0.3184 -0.7357
 3278TIP3    H1 9798   5.763   5.884   5.236  0.9037 -0.4905 -0.1674
 3278TIP3    H2 9799   5.789   5.737   5.210 -0.0614 -0.4528 -1.4742
 3279TIP3   OH2 9800   4.803   0.796   1.187  0.1817  0.0815 -0.0949
 3279TIP3    H1 9801   4.784   0.823   1.097  1.4246  2.0950  0.1730
 3279TIP3    H2 9802   4.828   0.704   1.179  1.2277  0.4597 -1.9992
 3280TIP3   OH2 9803   5.282   2.547   3.537 -0.7231 -0.0623 -0.3517
 3280TIP3    H1 9804   5.205   2.597   3.565 -0.1384  0.8857 -0.4038
 3280TIP3    H2 9805   5.353   2.579   3.592 -0.5661 -1.7643  0.5134
 3281TIP3   OH2 9806   5.237   1.039   0.372 -0.0394  1.2922 -0.3770
 3281TIP3    H1 9807   5.199   1.003   0.291  0.0143 -0.7511  0.4344
 3281TIP3    H2 9808   5.165   1.037   0.435 -0.4076  3.9766 -0.6030
 3282TIP3   OH2 9809   1.282   4.730   0.078  0.4255  0.2843  1.2001
 3282TIP3    H1 9810   1.318   4.777   0.154 -0.1031  1.1068  0.9522
 3282TIP3    H2 9811   1.315   4.778   0.002  2.2160 -1.4258  0.8153
 3283TIP3   OH2 9812   4.919   4.345   0.388  0.0168  0.1329  0.8478
 3283TIP3    H1 9813   4.959   4.260   0.405  1.2959  0.3866 -0.6455
 3283TIP3    H2 9814   4.968   4.406   0.443 -1.0573 -0.0901  2.0998
 3284TIP3   OH2 9815   6.497   5.595   1.164  0.3602 -0.3599  0.3484
 3284TIP3    H1 9816   6.528   5.629   1.080  1.3909 -1.7487  0.1198
 3284TIP3    H2 9817   6.577   5.582   1.216 -0.2790  0.6708  1.6438
 3285TIP3   OH2 9818   1.129   4.185   0.496  0.6512  0.2490 -0.4613
 3285TIP3    H1 9819   1.123   4.268   0.449 -0.3837 -0.0750 -0.9284
 3285TIP3    H2 9820   1.051   4.182   0.551  0.8983 -0.2259 -0.1248
 3286TIP3   OH2 9821   3.503   5.394   4.006 -0.4171  0.2121 -0.0191
 3286TIP3    H1 9822   3.496   5.390   3.910 -0.0344 -0.1307 -0.0361
 3286TIP3    H2 9823   3.519   5.304   4.032 -2.7400 -0.0919  0.5654
 3287TIP3   OH2 9824   4.990   0.517   4.523 -0.3726 -0.2999  0.0575
 3287TIP3    H1 9825   4.951   0.468   4.595 -1.1683  0.3263  0.0658
 3287TIP3    H2 9826   5.080   0.532   4.551 -0.8249  0.4542  1.2199
 3288TIP3   OH2 9827   7.103   2.490   2.829 -0.2869 -0.1244  0.0040
 3288TIP3    H1 9828   7.022   2.530   2.862  0.3677 -0.5744  2.3608
 3288TIP3    H2 9829   7.076   2.402   2.803 -1.0615  0.6441 -1.9338
 3289TIP3   OH2 9830   6.625   0.391   0.837  0.3011 -0.0694 -0.1458
 3289TIP3    H1 9831   6.654   0.300   0.842  4.2066  1.0189  0.0589
 3289TIP3    H2 9832   6.601   0.413   0.927 -0.2097 -0.6964 -0.1133
 3290TIP3   OH2 9833   0.179   2.798   5.331  0.0496 -0.7505  0.0222
 3290TIP3    H1 9834   0.144   2.709   5.343  0.1064 -0.8800 -0.7064
 3290TIP3    H2 9835   0.106   2.855   5.356 -0.2515 -1.0111 -0.2363
 3291TIP3   OH2 9836   3.096   2.017   1.832  0.2280 -0.1181  0.6955
 3291TIP3    H1 9837   3.111   2.062   1.749 -0.9344  2.1806  1.6415
 3291TIP3    H2 9838   3.040   1.943   1.809  2.0257 -1.0771 -0.8822
 3292TIP3   OH2 9839   0.100   6.281   3.806 -0.5881  0.0081 -0.6510
 3292TIP3    H1 9840   0.185   6.316   3.833  0.3840 -0.2676 -3.1015
 3292TIP3    H2 9841   0.046   6.286   3.885  1.4315  0.9802  0.7619
 3293TIP3   OH2 9842   3.083   2.975   0.620  0.2394 -0.2396 -0.1584
 3293TIP3    H1 9843   3.069   2.893   0.667  0.4448  0.6170  1.4620
 3293TIP3    H2 9844   3.176   2.994   0.631  0.0935  0.4654 -0.0585
 3294TIP3   OH2 9845   1.102   5.261   0.574  0.0701 -0.1831  0.2503
 3294TIP3    H1 9846   1.079   5.340   0.525  0.1493 -0.7720 -0.7526
 3294TIP3    H2 9847   1.018   5.219   0.592 -0.1585  1.0286  2.4166
 3295TIP3   OH2 9848   5.700   1.283   2.985 -0.3644  0.6421  0.5808
 3295TIP3    H1 9849   5.635   1.253   2.920  1.0348  3.4219 -2.3801
 3295TIP3    H2 9850   5.772   1.220   2.977 -1.4857 -0.9146  1.9544
 3296TIP3   OH2 9851   3.168   4.469   0.759  0.3711  0.5971 -0.0422
 3296TIP3    H1 9852   3.137   4.528   0.828 -2.6136 -0.3629 -0.4278
 3296TIP3    H2 9853   3.146   4.514   0.678 -1.1871 -0.5837 -0.3319
 3297TIP3   OH2 9854   0.215   4.725   4.817 -0.2336 -0.2109  0.2443
 3297TIP3    H1 9855   0.128   4.683   4.813 -0.0161 -0.6072 -0.5978
 3297TIP3    H2 9856   0.236   4.743   4.725  0.7629 -0.5158  0.4062
 3298TIP3   OH2 9857   5.673   4.918   5.738 -0.4577  0.1930  0.3914
 3298TIP3    H1 9858   5.633   4.889   5.820  0.0441  0.7943  0.8599
 3298TIP3    H2 9859   5.624   4.873   5.670 -0.7187 -0.5084  1.0329
 3299TIP3   OH2 9860   3.461   6.699   5.623  0.0077 -0.0159 -0.6711
 3299TIP3    H1 9861   3.506   6.634   5.569  1.2397  0.6281 -0.4532
 3299TIP3    H2 9862   3.499   6.689   5.710  0.1056  0.9018 -0.6022
 3300TIP3   OH2 9863   1.570   1.460   1.732 -0.1505 -0.2764  0.3890
 3300TIP3    H1 9864   1.587   1.420   1.646 -2.5199 -2.7110  0.9081
 3300TIP3    H2 9865   1.657   1.474   1.769  0.9223 -2.9709 -0.8168
 3301TIP3   OH2 9866   5.775   4.513   4.073 -0.2618  0.2472  0.1426
 3301TIP3    H1 9867   5.712   4.497   4.143  0.5905  1.1197  1.1387
 3301TIP3    H2 9868   5.850   4.457   4.094  0.0973  0.6955  0.0662
 3302TIP3   OH2 9869   2.399   5.011   0.564  0.2197  0.2180  0.7957
 3302TIP3    H1 9870   2.320   5.062   0.545  0.0527 -0.0613  0.7425
 3302TIP3    H2 9871   2.407   5.015   0.660 -0.2401 -0.3145  0.8637
 3303TIP3   OH2 9872   5.493   2.378   5.458  0.2779 -0.2390 -0.9657
 3303TIP3    H1 9873   5.510   2.290   5.422  3.5581 -1.0607  2.0110
 3303TIP3    H2 9874   5.552   2.435   5.409 -0.6201  0.0177 -1.7624
 3304TIP3   OH2 9875   0.321   1.368   0.974  0.7908  0.1949 -0.6308
 3304TIP3    H1 9876   0.401   1.411   1.005  1.5502 -1.2634 -0.4924
 3304TIP3    H2 9877   0.319   1.387   0.880  0.8240  0.9443 -0.4917
 3305TIP3   OH2 9878   2.233   5.675   2.216 -0.2976 -0.3239  0.2730
 3305TIP3    H1 9879   2.225   5.731   2.139  0.1034 -1.1203 -0.3727
 3305TIP3    H2 9880   2.203   5.729   2.288  0.1440  0.7481 -0.3115
 3306TIP3   OH2 9881   1.774   4.790   1.420  0.0254  0.1807 -0.0788
 3306TIP3    H1 9882   1.780   4.704   1.461  0.1653  1.1319  2.0194
 3306TIP3    H2 9883   1.687   4.822   1.445  0.7291  1.4284  0.8938
 3307TIP3   OH2 9884   4.926   0.360   3.419  0.8578  0.5504 -0.1333
 3307TIP3    H1 9885   4.955   0.363   3.510 -0.7008  0.7193  0.3923
 3307TIP3    H2 9886   4.976   0.288   3.381  1.8383  0.7480  0.7386
 3308TIP3   OH2 9887   6.384   6.684   0.009  0.0468 -0.8447  0.0189
 3308TIP3    H1 9888   6.368   6.590   0.002  0.1786 -0.7943 -1.0378
 3308TIP3    H2 9889   6.479   6.693   0.012  0.0270 -0.7755  0.7918
 3309TIP3   OH2 9890   0.663   1.014   1.139 -0.0138 -0.5468 -0.0136
 3309TIP3    H1 9891   0.585   1.063   1.167 -0.1826 -0.8472  0.0467
 3309TIP3    H2 9892   0.710   0.994   1.220  0.6117  0.4326 -0.1215
 3310TIP3   OH2 9893   7.092   3.980   1.583 -0.3466 -0.2319 -0.1795
 3310TIP3    H1 9894   7.015   3.957   1.530  0.0897 -0.5336 -0.6813
 3310TIP3    H2 9895   7.167   3.947   1.533  0.3884  2.7954 -1.3172
 3311TIP3   OH2 9896   3.109   5.860   5.734 -0.2872  0.7398  0.2728
 3311TIP3    H1 9897   3.088   5.954   5.739  0.7598  1.0092 -0.1173
 3311TIP3    H2 9898   3.043   5.825   5.674  0.3757  1.5794 -0.9903
 3312TIP3   OH2 9899   0.778   3.926   2.313 -0.7197 -0.1412 -0.4261
 3312TIP3    H1 9900   0.784   4.006   2.261  0.8369  0.1874  0.1850
 3312TIP3    H2 9901   0.735   3.862   2.255 -2.2881  1.1942 -0.8044
 3313TIP3   OH2 9902   3.145   4.338   3.888  0.0306 -0.2539 -0.3750
 3313TIP3    H1 9903   3.108   4.390   3.816 -0.2251 -1.7559 -1.3571
 3313TIP3    H2 9904   3.071   4.320   3.945  0.4421  1.9463  0.9644
 3314TIP3   OH2 9905   3.388   2.313   2.559  0.7467 -0.1761 -0.1961
 3314TIP3    H1 9906   3.393   2.228   2.516 -1.3936  0.3817 -1.7335
 3314TIP3    H2 9907   3.427   2.374   2.495  0.5101  0.2460  0.0575
 3315TIP3   OH2 9908   6.204   2.881   1.783  0.4193 -0.6854  0.2468
 3315TIP3    H1 9909   6.207   2.820   1.710 -0.3672 -0.2778 -0.1342
 3315TIP3    H2 9910   6.273   2.945   1.763 -0.9417  0.4311 -1.0650
 3316TIP3   OH2 9911   3.514   0.093   5.523  0.0780 -0.0773 -0.0346
 3316TIP3    H1 9912   3.572   0.105   5.447 -0.2465 -0.3690 -0.3318
 3316TIP3    H2 9913   3.426   0.104   5.488 -0.1887 -1.9815 -0.0908
 3317TIP3   OH2 9914   0.479   3.641   5.145 -0.3478  0.3857  0.6144
 3317TIP3    H1 9915   0.491   3.625   5.239 -0.4806  1.4113  0.8213
 3317TIP3    H2 9916   0.388   3.670   5.137  0.0522  1.6014  0.3646
 3318TIP3   OH2 9917   5.107   4.735   0.138  0.5701 -0.3859  0.3986
 3318TIP3    H1 9918   5.194   4.764   0.111  1.5945 -3.1336  0.4222
 3318TIP3    H2 9919   5.097   4.768   0.227  1.0019  1.0808 -0.0733
 3319TIP3   OH2 9920   4.357   6.400   1.171 -0.3429  0.0368  0.0708
 3319TIP3    H1 9921   4.338   6.311   1.200 -1.4302  0.0902 -0.4321
 3319TIP3    H2 9922   4.321   6.456   1.239  0.0050  0.1061  0.2010
 3320TIP3   OH2 9923   2.356   6.134   0.929  0.5528 -0.0430 -0.2416
 3320TIP3    H1 9924   2.301   6.120   0.851  0.1118 -1.5046  0.2958
 3320TIP3    H2 9925   2.443   6.103   0.902  0.1796 -1.4590  0.1234
 3321TIP3   OH2 9926   0.096   6.426   2.327  0.0939 -0.3696 -0.4325
 3321TIP3    H1 9927   0.112   6.423   2.422  1.3635 -2.3116 -0.6426
 3321TIP3    H2 9928   0.183   6.419   2.289 -0.4748 -0.3592 -1.7620
 3322TIP3   OH2 9929   3.823   2.877   2.347 -0.6501 -0.2650 -0.0154
 3322TIP3    H1 9930   3.908   2.855   2.309  0.0470  0.5788  1.0039
 3322TIP3    H2 9931   3.785   2.940   2.285 -0.6377 -0.7861 -0.5703
 3323TIP3   OH2 9932   4.267   5.752   4.885 -0.8508  0.5889  0.3811
 3323TIP3    H1 9933   4.264   5.819   4.817 -0.8903  0.3622  0.1581
 3323TIP3    H2 9934   4.227   5.794   4.961  2.2702  2.0354  1.3525
 3324TIP3   OH2 9935   4.638   5.167   3.769  0.4465  0.2830  0.4118
 3324TIP3    H1 9936   4.721   5.160   3.817  0.4722  2.3099  0.7258
 3324TIP3    H2 9937   4.608   5.076   3.763  2.1467 -0.4007  1.2269
 3325TIP3   OH2 9938   0.881   1.116   2.545 -0.1191 -0.1210  0.6728
 3325TIP3    H1 9939   0.786   1.104   2.555 -0.1508  0.4455  1.1084
 3325TIP3    H2 9940   0.903   1.069   2.465 -0.8228 -0.0113  0.4091
 3326TIP3   OH2 9941   2.081   4.301   4.779  0.9293  0.2046 -0.7738
 3326TIP3    H1 9942   2.078   4.338   4.867 -0.1494  3.0286 -1.8744
 3326TIP3    H2 9943   1.992   4.311   4.746  0.7353 -2.8856 -1.4879
 3327TIP3   OH2 9944   4.192   5.785   1.477 -0.5288 -0.2570 -0.2671
 3327TIP3    H1 9945   4.259   5.827   1.423 -1.2392  0.9604 -0.2367
 3327TIP3    H2 9946   4.211   5.814   1.566 -0.2830 -1.0080 -0.0735
 3328TIP3   OH2 9947   5.043   4.535   0.521 -0.4753 -0.2708 -0.0982
 3328TIP3    H1 9948   5.004   4.529   0.608 -0.7657  1.0373 -0.1073
 3328TIP3    H2 9949   5.067   4.627   0.512 -0.0245 -0.4791 -1.2228
 3329TIP3   OH2 9950   1.534   5.268   5.747  0.2239  0.7311  0.0003
 3329TIP3    H1 9951   1.483   5.240   5.824 -0.1917  0.7367 -0.2696
 3329TIP3    H2 9952   1.483   5.238   5.672  1.2133 -0.3160 -0.2798
 3330TIP3   OH2 9953   7.146   0.267   3.338 -0.6799 -0.0616 -0.2628
 3330TIP3    H1 9954   7.080   0.209   3.375 -1.4230 -0.5134 -2.2186
 3330TIP3    H2 9955   7.164   0.330   3.408 -2.1231 -0.7795  0.8067
 3331TIP3   OH2 9956   0.222   0.694   1.765  0.1300 -0.3780 -0.4492
 3331TIP3    H1 9957   0.154   0.653   1.712  1.6122 -1.8953 -1.3194
 3331TIP3    H2 9958   0.232   0.782   1.728 -2.1142  0.3158  0.4795
 3332TIP3   OH2 9959   2.856   0.594   5.207 -0.6072 -0.3494  0.1114
 3332TIP3    H1 9960   2.842   0.502   5.186 -0.2647  0.1518 -2.6062
 3332TIP3    H2 9961   2.791   0.641   5.155 -0.1769  1.0096  0.7540
 3333TIP3   OH2 9962   7.020   5.668   3.474 -0.2245 -0.4186 -0.2586
 3333TIP3    H1 9963   6.940   5.707   3.440 -0.3631 -1.0143 -0.6297
 3333TIP3    H2 9964   6.990   5.603   3.537  0.0405  1.1153  1.5335
 3334TIP3   OH2 9965   2.477  -0.003   5.790 -0.3259  0.6625 -0.1402
 3334TIP3    H1 9966   2.536   0.066   5.821  0.7157  0.2647 -1.1534
 3334TIP3    H2 9967   2.460   0.020   5.699  1.9372 -1.5719 -1.2659
 3335TIP3   OH2 9968   3.830   1.986   5.782  0.3191 -0.4496  0.6049
 3335TIP3    H1 9969   3.861   2.022   5.865 -0.7284  0.5317  0.5986
 3335TIP3    H2 9970   3.740   2.016   5.775  1.0964  1.6316 -2.0633
 3336TIP3   OH2 9971   0.179   0.304   2.080  0.7253  0.0474 -0.5217
 3336TIP3    H1 9972   0.102   0.315   2.024  0.5857  0.5406 -0.2377
 3336TIP3    H2 9973   0.150   0.331   2.167  0.9964 -0.5250 -0.2440
 3337TIP3   OH2 9974   2.907   0.873   3.982  0.1624 -0.0315  0.6873
 3337TIP3    H1 9975   2.942   0.878   3.893  0.6189  1.3310  0.9245
 3337TIP3    H2 9976   2.983   0.853   4.037  0.2121  0.8548  0.9589
 3338TIP3   OH2 9977   3.136   2.692   5.437 -0.1226 -0.1931  0.1398
 3338TIP3    H1 9978   3.193   2.737   5.499 -1.0696  0.9500  0.2056
 3338TIP3    H2 9979   3.067   2.654   5.491 -1.7114  1.9425 -0.2564
 3339TIP3   OH2 9980   2.868   3.859   4.309  0.1676  0.1775  0.1496
 3339TIP3    H1 9981   2.818   3.938   4.287  0.0854  0.3783  1.0048
 3339TIP3    H2 9982   2.838   3.837   4.398  1.2325  0.0060  0.4723
 3340TIP3   OH2 9983   1.502   6.004   5.861  0.0091  0.4850  0.2751
 3340TIP3    H1 9984   1.569   5.969   5.802 -0.0533  0.4593  0.2188
 3340TIP3    H2 9985   1.501   6.098   5.843  0.3420  0.5518  0.5958
 3341TIP3   OH2 9986   3.074   5.680   5.422  0.1474 -0.0885 -0.1564
 3341TIP3    H1 9987   3.160   5.690   5.464  0.6416  0.0677 -1.1605
 3341TIP3    H2 9988   3.032   5.765   5.435  1.9280  1.4992 -3.4068
 3342TIP3   OH2 9989   6.728   3.294   3.456 -0.1605 -0.4285  0.6274
 3342TIP3    H1 9990   6.782   3.349   3.513  2.8974 -3.0069  0.5381
 3342TIP3    H2 9991   6.719   3.344   3.375  3.2361 -0.1950  0.2165
 3343TIP3   OH2 9992   5.506   1.244   4.867  0.2366  0.0576 -0.4328
 3343TIP3    H1 9993   5.432   1.229   4.808  0.7097 -2.1191 -0.5787
 3343TIP3    H2 9994   5.524   1.157   4.904  2.3791  0.6295 -0.0001
 3344TIP3   OH2 9995   0.764   1.201   3.403 -0.5283  0.3855 -0.1208
 3344TIP3    H1 9996   0.846   1.239   3.434  0.0686 -0.8151 -0.1486
 3344TIP3    H2 9997   0.742   1.136   3.470 -1.1857  0.3402 -0.3783
 3345TIP3   OH2 9998   3.404   0.554   3.272  0.0826  0.5634 -0.2035
 3345TIP3    H1 9999   3.309   0.556   3.281  0.1293  0.1720  0.4542
 3345TIP3    H210000   3.419   0.511   3.188 -0.3478  2.5548 -1.3575
 3346TIP3   OH210001   0.282   0.853   5.315  0.1265 -0.1757 -0.0658
 3346TIP3    H110002   0.310   0.840   5.406  0.3787  0.0904 -0.1076
 3346TIP3    H210003   0.249   0.767   5.288 -0.8514 -0.0208  0.5935
 3347TIP3   OH210004   2.716   2.855   3.355 -0.1025 -0.0843 -0.4793
 3347TIP3    H110005   2.685   2.795   3.423 -0.9551 -0.1558 -0.9215
 3347TIP3    H210006   2.763   2.799   3.293  0.0968 -0.1184 -0.2995
 3348TIP3   OH210007   2.906   5.852   3.795 -0.2940 -0.8183  0.0471
 3348TIP3    H110008   2.830   5.886   3.748  0.1704 -1.8581 -1.5445
 3348TIP3    H210009   2.887   5.759   3.806 -0.3826 -0.6014  1.9763
 3349TIP3   OH210010   1.062   5.426   0.154  0.0785 -0.6001  0.6696
 3349TIP3    H110011   0.991   5.369   0.183 -0.8511  0.4560  0.5503
 3349TIP3    H210012   1.125   5.367   0.113 -1.1052 -1.4886  0.0587
 3350TIP3   OH210013   4.814   1.099   2.628  0.0761  0.6224  0.2846
 3350TIP3    H110014   4.890   1.041   2.622 -0.8606 -0.9509  2.3441
 3350TIP3    H210015   4.752   1.052   2.684 -1.1485  3.2080  1.2726
 3351TIP3   OH210016   6.277   1.905   0.158  0.5370  0.2946 -0.0109
 3351TIP3    H110017   6.185   1.884   0.146  0.1616  1.8619 -0.1660
 3351TIP3    H210018   6.313   1.830   0.205 -0.3372 -1.2336 -1.7043
 3352TIP3   OH210019   3.720   1.080   1.865 -0.4222  0.2999  0.7564
 3352TIP3    H110020   3.768   1.015   1.815 -0.5703  0.3578  0.5381
 3352TIP3    H210021   3.775   1.159   1.863 -0.9382  0.6509 -0.2665
 3353TIP3   OH210022   7.114   1.061   1.111 -0.1422 -0.6864  0.6025
 3353TIP3    H110023   7.158   1.004   1.048  0.0681  1.1940 -1.0685
 3353TIP3    H210024   7.046   1.105   1.060 -0.3199  0.5050  1.8198
 3354TIP3   OH210025   4.534   3.610   5.869  0.2283 -0.3265  0.7638
 3354TIP3    H110026   4.497   3.677   5.926  3.1377  1.7595  0.4353
 3354TIP3    H210027   4.497   3.629   5.783  1.3313  1.2445  0.5871
 3355TIP3   OH210028   6.563   5.318   0.778 -0.2256 -0.3307  0.3814
 3355TIP3    H110029   6.575   5.413   0.781 -1.3431 -0.1522 -0.2748
 3355TIP3    H210030   6.581   5.294   0.687 -1.8674 -0.4493  0.0649
 3356TIP3   OH210031   5.786   6.180   4.771  0.4319  0.0226 -0.0278
 3356TIP3    H110032   5.772   6.183   4.676  0.8639  0.8940 -0.0741
 3356TIP3    H210033   5.878   6.156   4.781 -0.2920 -3.0977  0.2411
 3357TIP3   OH210034   0.192   0.411   4.926 -0.1365  0.4355  0.1575
 3357TIP3    H110035   0.128   0.350   4.888 -0.9630  0.0201  2.1306
 3357TIP3    H210036   0.273   0.361   4.931 -0.4139 -0.0007  0.3429
 3358TIP3   OH210037   1.527   6.506   0.997 -0.2231 -0.2520  0.2856
 3358TIP3    H110038   1.504   6.490   0.905  0.1729 -0.2228  0.1796
 3358TIP3    H210039   1.443   6.502   1.043 -0.3020 -1.2884  0.0779
 3359TIP3   OH210040   3.961   0.754   4.878  0.5170 -0.3650  0.3403
 3359TIP3    H110041   3.957   0.694   4.804  1.7286  0.2144 -0.2193
 3359TIP3    H210042   3.903   0.826   4.853 -0.5767 -1.0515  0.8138
 3360TIP3   OH210043   0.083   6.328   0.574 -0.3320  0.0255 -0.2949
 3360TIP3    H110044   0.116   6.328   0.484  0.5002 -0.9525 -0.0159
 3360TIP3    H210045   0.129   6.401   0.616  0.0393 -0.1422 -0.4073
 3361TIP3   OH210046   4.943   6.252   5.446 -0.0764 -0.4599 -0.0900
 3361TIP3    H110047   4.945   6.342   5.414 -0.4162  0.1705  1.5684
 3361TIP3    H210048   5.034   6.224   5.447  0.0273 -0.1506 -0.6348
 3362TIP3   OH210049   0.859   2.468   5.542 -0.1829 -0.3153  0.1143
 3362TIP3    H110050   0.835   2.545   5.594 -0.5200 -0.5985  0.3860
 3362TIP3    H210051   0.799   2.400   5.571  0.6008 -0.8945  0.4140
 3363TIP3   OH210052   1.582   2.103   5.132  0.0122 -0.5922 -0.1147
 3363TIP3    H110053   1.674   2.103   5.159 -0.4148  1.3824  1.6073
 3363TIP3    H210054   1.577   2.173   5.067 -0.4571  0.0648  0.6145
 3364TIP3   OH210055   4.816   0.153   3.113 -0.1188 -1.0230  0.1246
 3364TIP3    H110056   4.772   0.160   3.028  0.3252 -0.7746 -0.0918
 3364TIP3    H210057   4.745   0.158   3.177 -0.2424  1.9777 -0.1107
 3365TIP3   OH210058   1.855   4.627   2.536 -0.5739  0.1771  0.2463
 3365TIP3    H110059   1.844   4.715   2.498  0.0734  0.3763  0.5104
 3365TIP3    H210060   1.814   4.569   2.473 -0.5937  0.6279 -0.1662
 3366TIP3   OH210061   3.834   2.712   0.506 -0.2921  0.1848 -0.2605
 3366TIP3    H110062   3.872   2.646   0.563 -0.0298  0.5203 -0.0423
 3366TIP3    H210063   3.785   2.662   0.441 -1.4987 -0.1666  0.8839
 3367TIP3   OH210064   3.250   1.911   3.728  0.1499  0.3062 -0.6669
 3367TIP3    H110065   3.264   1.825   3.689 -0.7810  0.4043 -1.2442
 3367TIP3    H210066   3.338   1.944   3.745  0.5322 -0.4865 -1.0364
 3368TIP3   OH210067   0.645   2.693   1.103  0.2765  0.2299 -0.0631
 3368TIP3    H110068   0.601   2.760   1.155  1.2123  0.7929  0.0375
 3368TIP3    H210069   0.691   2.742   1.035 -0.7878 -0.4839 -1.3458
 3369TIP3   OH210070   0.024   2.487   3.407  0.3475  0.0079  0.8333
 3369TIP3    H110071   0.032   2.508   3.314 -0.5187 -0.5724  0.6180
 3369TIP3    H210072   0.049   2.395   3.413 -0.5077 -0.2233  1.0186
 3370TIP3   OH210073   0.834   0.661   2.165  0.1662 -0.1679  0.1583
 3370TIP3    H110074   0.855   0.692   2.253 -0.7814 -0.5756  0.5366
 3370TIP3    H210075   0.805   0.740   2.119  1.5931  0.2319 -0.1021
 3371TIP3   OH210076   1.059   4.189   2.372  0.5476 -0.3012  0.1814
 3371TIP3    H110077   1.147   4.158   2.347  0.5729  0.9041 -1.3993
 3371TIP3    H210078   1.013   4.199   2.289  0.0759  2.4212  0.6762
 3372TIP3   OH210079   3.972   3.049   2.631 -0.0045  0.2240  0.7603
 3372TIP3    H110080   3.889   3.083   2.597  0.2655  2.0874  1.8480
 3372TIP3    H210081   3.949   3.013   2.717  0.2886  0.6724  1.0300
 3373TIP3   OH210082   3.949   5.016   3.966  0.6227  0.4877  0.3387
 3373TIP3    H110083   3.976   5.031   4.056 -0.2351  0.7011  0.5703
 3373TIP3    H210084   4.030   4.991   3.921  1.1942  1.0770  0.9991
 3374TIP3   OH210085   5.758   5.514   2.308 -0.6256 -0.3453 -0.1248
 3374TIP3    H110086   5.698   5.461   2.256 -1.5483  1.1181 -0.5944
 3374TIP3    H210087   5.702   5.569   2.362  0.3220 -0.7991  1.3907
 3375TIP3   OH210088   7.031   0.217   3.713  0.1310 -0.5273 -0.0152
 3375TIP3    H110089   6.940   0.245   3.725  0.7000  1.5192 -0.0086
 3375TIP3    H210090   7.030   0.123   3.728 -1.9061 -0.4771  0.4141
 3376TIP3   OH210091   1.450   3.256   0.297 -0.1687  0.1554  0.1996
 3376TIP3    H110092   1.544   3.263   0.316 -0.3057  2.1002  0.3063
 3376TIP3    H210093   1.445   3.262   0.201 -0.3005  2.5198  0.2945
 3377TIP3   OH210094   3.055   4.998   4.680 -0.2796  1.1400 -0.3901
 3377TIP3    H110095   3.007   5.067   4.635  1.5797  1.8916 -1.3350
 3377TIP3    H210096   3.093   5.041   4.756 -0.5878  0.6946  0.0258
 3378TIP3   OH210097   2.673   3.076   3.638 -0.1262  0.0313  0.2973
 3378TIP3    H110098   2.652   3.123   3.557 -1.1872 -0.1771  0.4421
 3378TIP3    H210099   2.677   3.145   3.705 -0.5018  0.0534  0.2964
 3379TIP3   OH210100   6.733   6.085   0.666  0.1187 -0.1166  0.2987
 3379TIP3    H110101   6.728   6.144   0.741  0.1391 -1.2858  1.2420
 3379TIP3    H210102   6.660   6.112   0.610  1.3618  2.1638 -0.3591
 3380TIP3   OH210103   3.286   2.529   2.391  0.2534  0.0601  0.0806
 3380TIP3    H110104   3.207   2.583   2.394 -0.2866 -0.5090 -2.0198
 3380TIP3    H210105   3.329   2.554   2.309  0.5634 -1.9092 -0.4068
 3381TIP3   OH210106   0.280   5.602  -0.014  0.1568 -0.1648 -0.1011
 3381TIP3    H110107   0.368   5.641  -0.022  0.2026 -0.6040 -2.9114
 3381TIP3    H210108   0.250   5.628   0.073  3.4124 -0.7698  1.3659
 3382TIP3   OH210109   0.764   5.467   4.031 -0.5476 -0.0073  0.0026
 3382TIP3    H110110   0.806   5.508   3.955  1.0057  0.0107  0.8403
 3382TIP3    H210111   0.682   5.514   4.041 -0.3325  0.6335 -1.0844
 3383TIP3   OH210112   2.923   0.024   0.300  0.1328  0.5732  0.2354
 3383TIP3    H110113   2.984   0.072   0.244 -0.9270  1.5546 -0.1185
 3383TIP3    H210114   2.894   0.089   0.364 -1.1061  0.3522 -0.0738
 3384TIP3   OH210115   2.644   1.697   1.518 -0.1554 -0.3896  0.4769
 3384TIP3    H110116   2.556   1.658   1.512  0.5294 -1.9453 -0.2649
 3384TIP3    H210117   2.699   1.637   1.466  1.7027 -0.5571  2.5195
 3385TIP3   OH210118   6.999   6.292   3.204  0.2434 -0.4676 -0.0249
 3385TIP3    H110119   7.061   6.340   3.259 -0.3247 -1.8736  1.9283
 3385TIP3    H210120   6.914   6.307   3.244 -0.0056 -2.7206  0.4021
 3386TIP3   OH210121   3.406   2.535   1.071 -0.3491  0.5607 -0.3312
 3386TIP3    H110122   3.499   2.551   1.054 -0.5369 -0.5416 -2.6814
 3386TIP3    H210123   3.360   2.580   1.001 -1.3983 -1.3504 -0.9293
 3387TIP3   OH210124   0.325   0.436   2.683 -0.5544 -0.2503 -0.4770
 3387TIP3    H110125   0.309   0.495   2.757 -0.5030 -0.6609 -0.1397
 3387TIP3    H210126   0.316   0.348   2.719 -0.1946 -0.4586 -0.8861
 3388TIP3   OH210127   5.630   4.044   5.246 -0.2549 -0.6893  0.3061
 3388TIP3    H110128   5.613   3.969   5.303 -2.4891  1.5082  2.8352
 3388TIP3    H210129   5.567   4.035   5.175  0.1381 -1.6481  0.0586
 3389TIP3   OH210130   2.362   5.004   2.547 -0.3379 -0.5204  0.5371
 3389TIP3    H110131   2.351   5.085   2.497 -0.0974 -0.6615  0.2468
 3389TIP3    H210132   2.366   5.032   2.638  3.0347  0.1931  0.3168
 3390TIP3   OH210133   1.945   3.308   2.917  0.2599 -0.0163 -0.1859
 3390TIP3    H110134   2.012   3.272   2.975 -0.7497 -1.0823  0.3551
 3390TIP3    H210135   1.954   3.256   2.837 -0.8365 -1.1570  0.4003
 3391TIP3   OH210136   3.692   4.400   0.812 -0.3707  0.5725  0.5211
 3391TIP3    H110137   3.618   4.449   0.775 -2.1667 -1.5596  1.0443
 3391TIP3    H210138   3.752   4.388   0.739  0.1947  3.5223  0.3942
 3392TIP3   OH210139   6.736   6.412   3.208  0.0525  0.0833 -0.1328
 3392TIP3    H110140   6.654   6.460   3.200  0.2050  0.2608 -0.6989
 3392TIP3    H210141   6.714   6.321   3.189 -0.0097  0.1335 -0.2979
 3393TIP3   OH210142   5.227   1.452   1.495  0.4538  0.0171 -0.3674
 3393TIP3    H110143   5.228   1.356   1.491  0.5381  0.0508 -1.4355
 3393TIP3    H210144   5.316   1.475   1.522  0.4024 -0.1999  0.0065
 3394TIP3   OH210145   6.476   1.397   5.839  0.1599  0.2372  0.4789
 3394TIP3    H110146   6.559   1.443   5.836 -0.4037  1.3789  1.4832
 3394TIP3    H210147   6.487   1.332   5.909  0.4409 -0.1108  0.1149
 3395TIP3   OH210148   6.494   4.933   3.110  0.0822 -0.4353 -0.1067
 3395TIP3    H110149   6.546   5.013   3.100  1.7702 -1.4970 -0.2620
 3395TIP3    H210150   6.424   4.957   3.170  1.0480  0.9596  0.5109
 3396TIP3   OH210151   3.035   1.901   5.370  0.4778  0.2115 -0.2145
 3396TIP3    H110152   2.971   1.917   5.301 -0.9595 -0.8687  0.8021
 3396TIP3    H210153   3.110   1.957   5.347  0.1461 -0.2464 -2.7246
 3397TIP3   OH210154   6.321   2.105   0.644 -0.1071 -0.3541  0.1055
 3397TIP3    H110155   6.355   2.174   0.586 -0.1757 -1.8053 -1.7731
 3397TIP3    H210156   6.396   2.080   0.698  0.0160  0.9076  0.5503
 3398TIP3   OH210157   6.991   6.682   0.457  0.2113 -0.0471 -0.3814
 3398TIP3    H110158   7.061   6.745   0.439 -0.3517  1.1371  1.2328
 3398TIP3    H210159   7.031   6.616   0.513 -0.0372  0.9894  1.1020
 3399TIP3   OH210160   6.083   2.960   5.420 -0.3197  0.0456  0.5477
 3399TIP3    H110161   6.127   2.880   5.392 -0.1610  0.3300 -0.0309
 3399TIP3    H210162   6.132   2.990   5.497  0.7903  0.6002 -0.3513
 3400TIP3   OH210163   1.023   2.509   1.287  0.3954  0.2861 -0.4262
 3400TIP3    H110164   0.935   2.529   1.318  0.8713 -0.2256  1.3180
 3400TIP3    H210165   1.009   2.464   1.203 -1.0762 -1.1703  0.5616
 3401TIP3   OH210166   1.346   1.613   1.644 -0.1696 -0.5498 -0.1716
 3401TIP3    H110167   1.400   1.692   1.648 -0.4149 -0.4190  0.8703
 3401TIP3    H210168   1.403   1.544   1.679  0.3360 -1.0313 -1.8483
 3402TIP3   OH210169   0.605   0.358   5.606 -0.0872  0.3004  0.1789
 3402TIP3    H110170   0.692   0.327   5.632 -0.0809  1.1314  1.2302
 3402TIP3    H210171   0.570   0.400   5.685 -1.3752  0.1436 -0.2796
 3403TIP3   OH210172   3.632   5.550   5.193 -0.0982  0.1966 -0.1247
 3403TIP3    H110173   3.544   5.578   5.168 -0.4912 -1.0727 -0.2215
 3403TIP3    H210174   3.683   5.631   5.196 -1.8621  1.3695  2.5141
 3404TIP3   OH210175   6.739   1.398   0.759  0.5101  0.0214  0.3023
 3404TIP3    H110176   6.699   1.317   0.791  1.7584 -0.2403  1.2964
 3404TIP3    H210177   6.677   1.432   0.695 -0.3518 -1.3753  0.3523
 3405TIP3   OH210178   6.251   0.070   5.720 -0.0345  0.1418 -0.1766
 3405TIP3    H110179   6.344   0.047   5.722 -0.0811 -0.0461 -0.0728
 3405TIP3    H210180   6.207  -0.008   5.755 -0.3237 -0.2350 -1.3381
 3406TIP3   OH210181   4.612   2.810   4.401 -0.2356 -0.9254  0.4044
 3406TIP3    H110182   4.567   2.725   4.405 -2.2366  0.1386  2.9762
 3406TIP3    H210183   4.622   2.826   4.307 -0.1327 -3.7858 -0.1849
 3407TIP3   OH210184   6.939   1.192   2.554 -0.0193 -0.1293 -0.5294
 3407TIP3    H110185   7.009   1.243   2.595 -0.1941 -1.4142  1.4518
 3407TIP3    H210186   6.975   1.166   2.469  1.1867  0.7524 -0.3082
 3408TIP3   OH210187   0.515   2.044   1.782  0.4129 -0.1021 -0.1429
 3408TIP3    H110188   0.587   2.009   1.729 -0.0745 -1.2224 -0.0946
 3408TIP3    H210189   0.519   2.139   1.768  1.0161 -0.2736 -1.2522
 3409TIP3   OH210190   7.017   3.389   0.580  0.5874  0.5322  0.1944
 3409TIP3    H110191   7.104   3.413   0.612  0.6015 -0.7499  1.2181
 3409TIP3    H210192   6.957   3.436   0.638  0.6111 -1.9766  2.4143
 3410TIP3   OH210193   1.154   6.261   2.547  0.0860 -0.0699  0.1603
 3410TIP3    H110194   1.238   6.298   2.572  0.1510 -0.7323  0.9726
 3410TIP3    H210195   1.104   6.257   2.629 -0.1122 -1.2237  0.0063
 3411TIP3   OH210196   2.547   3.000   0.893  0.0606  0.3702 -0.2692
 3411TIP3    H110197   2.559   2.922   0.839  0.3349  0.0430  0.2554
 3411TIP3    H210198   2.572   2.972   0.981 -1.9009  0.4231  0.3632
 3412TIP3   OH210199   6.798   4.270   5.281  0.1971 -0.2612  0.0539
 3412TIP3    H110200   6.855   4.194   5.269  0.5433 -0.0328  0.2291
 3412TIP3    H210201   6.741   4.269   5.204 -0.5304 -1.3075  0.5748
 3413TIP3   OH210202   0.210   2.879   3.716  0.1522 -0.2686 -0.8134
 3413TIP3    H110203   0.294   2.872   3.670  1.0810  1.8428  0.4147
 3413TIP3    H210204   0.222   2.952   3.777 -1.7948 -1.4614  1.1447
 3414TIP3   OH210205   2.265   1.192   5.061 -0.3997  0.3791 -0.2916
 3414TIP3    H110206   2.319   1.163   4.988 -0.1502 -0.2303  0.1290
 3414TIP3    H210207   2.217   1.267   5.027  1.9372  2.0242 -0.1856
 3415TIP3   OH210208   2.485   0.633   3.337  0.1940 -0.1657 -0.4149
 3415TIP3    H110209   2.573   0.601   3.356  0.1882 -0.1892 -0.4277
 3415TIP3    H210210   2.427   0.561   3.362  0.1363  0.0784  0.1734
 3416TIP3   OH210211   3.568   4.416   0.328 -0.5745 -0.1235 -0.3809
 3416TIP3    H110212   3.510   4.380   0.395  0.2643  0.6092  0.7746
 3416TIP3    H210213   3.568   4.351   0.258 -1.4618 -0.9106  0.3265
 3417TIP3   OH210214   3.392   3.950   1.834 -0.8383  0.0157 -0.5111
 3417TIP3    H110215   3.480   3.959   1.798 -0.5572 -0.2890  0.0807
 3417TIP3    H210216   3.344   4.025   1.799 -0.4586 -0.0436 -1.1670
 3418TIP3   OH210217   1.055   6.583   2.817 -0.5274 -0.3713  0.3007
 3418TIP3    H110218   1.096   6.503   2.851 -1.5152 -1.2004 -0.4095
 3418TIP3    H210219   0.988   6.552   2.757 -0.4040  1.0264 -0.5940
 3419TIP3   OH210220   3.899   4.163   1.519 -0.2718 -0.2896 -0.6495
 3419TIP3    H110221   3.875   4.149   1.428  2.1333 -0.0861 -1.3933
 3419TIP3    H210222   3.954   4.088   1.541 -1.4331 -0.7403  0.9252
 3420TIP3   OH210223   6.704   3.780   3.648 -0.6584  0.2714  0.1067
 3420TIP3    H110224   6.690   3.826   3.731  1.8675 -0.5345  1.1018
 3420TIP3    H210225   6.617   3.768   3.612 -1.7931  1.3799  2.2463
 3421TIP3   OH210226   3.840   5.650   1.725 -0.1261 -0.0314  0.3704
 3421TIP3    H110227   3.888   5.594   1.786  2.0634  0.7272 -0.5299
 3421TIP3    H210228   3.873   5.738   1.742  0.1445  0.2766 -1.4673
 3422TIP3   OH210229   2.163   3.160   5.174 -0.1613  0.3295 -0.2075
 3422TIP3    H110230   2.069   3.175   5.165 -1.0244 -2.9895  1.8322
 3422TIP3    H210231   2.191   3.224   5.240 -1.0774  0.9397 -0.3829
 3423TIP3   OH210232   4.725   1.473   1.393 -0.0296 -0.7596 -0.0621
 3423TIP3    H110233   4.709   1.532   1.320  0.3397  0.7246  1.0051
 3423TIP3    H210234   4.657   1.494   1.457  0.3340 -1.2076  0.4871
 3424TIP3   OH210235   1.279   1.328   5.556 -0.5061  0.5103 -0.1651
 3424TIP3    H110236   1.183   1.331   5.562 -0.5243 -1.1145  1.3077
 3424TIP3    H210237   1.309   1.345   5.645  0.5178 -0.1174 -0.3730
 3425TIP3   OH210238   3.655   1.110   3.088 -0.6759  0.3651 -0.0751
 3425TIP3    H110239   3.730   1.066   3.130 -3.2386 -1.9709  2.4823
 3425TIP3    H210240   3.634   1.053   3.013 -0.7202  0.2403  0.0310
 3426TIP3   OH210241   3.552   2.549   1.749 -0.0296 -0.3766 -0.0112
 3426TIP3    H110242   3.522   2.466   1.711 -0.7259 -0.8060  1.3993
 3426TIP3    H210243   3.471   2.594   1.775  0.2494  1.3903 -1.9476
 3427TIP3   OH210244   4.710   2.622   0.824  0.1795 -0.1180  0.5401
 3427TIP3    H110245   4.671   2.665   0.748  1.6810  0.3791  0.0179
 3427TIP3    H210246   4.676   2.533   0.820 -0.6544  0.2019 -0.0507
 3428TIP3   OH210247   4.636   5.756   3.855  0.7109 -0.0058  0.3944
 3428TIP3    H110248   4.604   5.681   3.804  0.1340 -0.4199  1.3440
 3428TIP3    H210249   4.729   5.763   3.831  0.6997 -0.8306  0.0681
 3429TIP3   OH210250   2.966   2.697   3.687  0.5365 -0.0274  0.3768
 3429TIP3    H110251   2.942   2.615   3.730  0.1981  0.7373  1.7207
 3429TIP3    H210252   2.884   2.743   3.674  0.7491  0.2218 -0.1003
 3430TIP3   OH210253   0.699   2.298   3.451 -0.9221 -0.2282 -0.2000
 3430TIP3    H110254   0.608   2.272   3.464 -0.3613 -1.6162  1.3391
 3430TIP3    H210255   0.750   2.228   3.492  0.8355  0.7969 -0.5207
 3431TIP3   OH210256   1.793   4.537   1.517  0.2084  0.1234  0.6895
 3431TIP3    H110257   1.785   4.450   1.480  1.2761  0.7876 -1.2532
 3431TIP3    H210258   1.778   4.525   1.611  1.2699 -2.2985  0.6197
 3432TIP3   OH210259   6.113   6.253   4.281  0.3956  0.1310 -0.4530
 3432TIP3    H110260   6.093   6.298   4.363  0.0563 -2.4481  0.9933
 3432TIP3    H210261   6.028   6.247   4.237  0.5037  1.1545 -0.8262
 3433TIP3   OH210262   3.223   5.292   4.575  0.3491 -0.2164  0.2757
 3433TIP3    H110263   3.231   5.327   4.664 -0.5244 -1.4745  0.8801
 3433TIP3    H210264   3.129   5.275   4.564  0.3764  0.3695 -1.0796
 3434TIP3   OH210265   0.243   4.771   0.873 -0.4944 -0.0955 -0.4627
 3434TIP3    H110266   0.279   4.735   0.791 -0.7419  1.3029 -1.2220
 3434TIP3    H210267   0.178   4.706   0.901  0.7517 -1.4047 -0.4586
 3435TIP3   OH210268   6.156   6.506   4.176 -0.4795 -0.1225  0.3871
 3435TIP3    H110269   6.152   6.410   4.177 -4.0712 -0.1456  3.1163
 3435TIP3    H210270   6.231   6.528   4.231  0.4197 -1.2964 -0.3123
 3436TIP3   OH210271   5.603   4.786   0.831  0.4390  0.7125 -0.4326
 3436TIP3    H110272   5.545   4.858   0.804 -1.1455 -0.1836  0.4001
 3436TIP3    H210273   5.676   4.829   0.876  0.0580  1.8542 -0.8748
 3437TIP3   OH210274   3.594   3.362   1.844 -0.0722  0.1591 -0.1987
 3437TIP3    H110275   3.681   3.330   1.820 -0.2583 -1.3286  0.9496
 3437TIP3    H210276   3.610   3.435   1.903  0.4105 -0.3942  0.3660
 3438TIP3   OH210277   3.898   1.984   5.520 -0.1091  0.0314 -0.2517
 3438TIP3    H110278   3.851   1.999   5.602 -0.5103 -2.7754  0.1352
 3438TIP3    H210279   3.982   1.947   5.547 -0.5535 -1.6738 -1.0604
 3439TIP3   OH210280   0.221   4.801   2.462  0.0159 -0.2062  0.0629
 3439TIP3    H110281   0.231   4.834   2.551 -0.5404  0.9093 -0.2658
 3439TIP3    H210282   0.308   4.807   2.424  0.3790 -1.2310  0.6940
 3440TIP3   OH210283   7.196   4.730   2.027  0.4626 -0.1542  0.2649
 3440TIP3    H110284   7.254   4.654   2.036 -0.2935 -0.6019  1.5119
 3440TIP3    H210285   7.108   4.694   2.033  0.0997  0.8633  1.2413
 3441TIP3   OH210286   4.327   0.841   3.875  0.1887  0.6197 -0.2283
 3441TIP3    H110287   4.299   0.779   3.808  1.9096  0.2494 -0.6605
 3441TIP3    H210288   4.413   0.871   3.845  0.2812  1.6728  1.0084
 3442TIP3   OH210289   4.134   0.059   2.541  0.7271 -0.0781 -1.1634
 3442TIP3    H110290   4.197   0.076   2.471 -0.2551  2.3699 -1.5546
 3442TIP3    H210291   4.048   0.069   2.499  0.0750 -1.4466 -0.2237
 3443TIP3   OH210292   6.230   4.166   1.899 -0.2988 -0.4772 -0.1570
 3443TIP3    H110293   6.310   4.220   1.898 -0.2179 -0.5863 -1.5225
 3443TIP3    H210294   6.226   4.131   1.988 -0.0231  1.2779  0.5897
 3444TIP3   OH210295   4.876   4.597   0.260  0.1742 -0.3585 -0.4229
 3444TIP3    H110296   4.954   4.628   0.215 -0.8873  1.9576 -0.8228
 3444TIP3    H210297   4.907   4.525   0.315  2.4210 -0.0124 -1.1291
 3445TIP3   OH210298   0.413   1.615   3.673  0.7972  0.1519  0.0959
 3445TIP3    H110299   0.331   1.569   3.686 -1.3514  2.7032 -2.9679
 3445TIP3    H210300   0.417   1.677   3.746  1.8272 -2.0968  2.0981
 3446TIP3   OH210301   1.157   5.266   3.747 -0.1742 -0.3218 -0.3556
 3446TIP3    H110302   1.175   5.305   3.832 -0.9476 -0.1211 -0.2805
 3446TIP3    H210303   1.127   5.177   3.768 -1.7210  0.1879 -0.3275
 3447TIP3   OH210304   2.879   3.390   5.631 -0.5576  0.0806 -0.1984
 3447TIP3    H110305   2.838   3.457   5.577 -1.5218 -2.0285 -2.2303
 3447TIP3    H210306   2.807   3.334   5.660  0.4021 -1.2149 -0.2128
 3448TIP3   OH210307   6.528   3.062   1.325  0.4102 -0.0735  0.0442
 3448TIP3    H110308   6.531   3.120   1.400  2.4912  1.7984 -1.3421
 3448TIP3    H210309   6.597   2.998   1.342 -0.2332 -0.6778  0.4432
 3449TIP3   OH210310   3.767   4.193   2.631 -0.1521 -0.5214 -0.0541
 3449TIP3    H110311   3.698   4.194   2.698  1.5936  1.2475  1.8881
 3449TIP3    H210312   3.794   4.285   2.625  2.5818 -1.2529 -0.0909
 3450TIP3   OH210313   1.872   3.149   5.745 -0.4537 -0.2792 -0.3291
 3450TIP3    H110314   1.854   3.208   5.672  0.4756  0.1042 -0.2586
 3450TIP3    H210315   1.863   3.061   5.707 -0.0381 -0.0817 -0.8960
 3451TIP3   OH210316   6.100   0.946   1.386  0.0270 -0.5709 -0.1283
 3451TIP3    H110317   6.182   0.906   1.414  0.0364  0.0159  0.7211
 3451TIP3    H210318   6.032   0.887   1.420  0.0677 -0.3982  0.2577
 3452TIP3   OH210319   1.221   4.484   4.365 -0.0372 -0.3215  0.0017
 3452TIP3    H110320   1.177   4.402   4.343 -1.6678  0.7025 -0.6905
 3452TIP3    H210321   1.194   4.502   4.455  0.9161 -0.8818  0.4212
 3453TIP3   OH210322   1.356   6.327   1.661 -0.1364 -0.8197  0.0971
 3453TIP3    H110323   1.326   6.413   1.690 -1.1825 -1.6052  1.4880
 3453TIP3    H210324   1.324   6.319   1.571  3.2227  1.7068 -1.5487
 3454TIP3   OH210325   4.644   5.686   0.915  0.4774  0.1184 -0.7370
 3454TIP3    H110326   4.668   5.600   0.881 -0.7366 -0.8044  0.5691
 3454TIP3    H210327   4.548   5.687   0.910  0.3775  0.6897  0.8011
 3455TIP3   OH210328   6.885   2.490   0.649 -0.1522 -0.4710  0.2776
 3455TIP3    H110329   6.907   2.581   0.629  2.3903 -0.8363  1.0281
 3455TIP3    H210330   6.838   2.459   0.572  2.4242  0.3782 -1.7602
 3456TIP3   OH210331   3.574   0.182   1.580  0.2181 -0.0936  0.3830
 3456TIP3    H110332   3.659   0.214   1.548  0.0761  0.4249  0.5165
 3456TIP3    H210333   3.511   0.214   1.517  0.4085 -3.4070 -1.7570
 3457TIP3   OH210334   1.145   2.225   1.941  0.5127  0.0115 -0.6404
 3457TIP3    H110335   1.060   2.241   1.902  0.5087  0.3035 -0.5128
 3457TIP3    H210336   1.191   2.168   1.879  0.5985  0.6647 -1.1778
 3458TIP3   OH210337   1.800   5.897   4.554 -0.0886 -0.1557  1.1681
 3458TIP3    H110338   1.720   5.944   4.530 -0.8455 -1.5517  0.8544
 3458TIP3    H210339   1.807   5.908   4.649  0.9810  2.4108  0.8684
 3459TIP3   OH210340   6.114   3.734   0.851  0.0107  0.4590  0.6580
 3459TIP3    H110341   6.173   3.805   0.825 -0.5010  0.3608 -0.8179
 3459TIP3    H210342   6.170   3.657   0.854 -0.3732 -0.2117 -3.4091
 3460TIP3   OH210343   4.184   4.254   5.471  0.2236 -0.2114  0.4509
 3460TIP3    H110344   4.101   4.262   5.423  0.0188  0.0178  0.8356
 3460TIP3    H210345   4.162   4.280   5.561  1.3978  3.2972 -0.0942
 3461TIP3   OH210346   3.199   2.392   1.478 -0.0989 -0.5091 -0.2674
 3461TIP3    H110347   3.217   2.469   1.425  0.7604  0.1959  0.9896
 3461TIP3    H210348   3.106   2.400   1.501  0.0364  0.2850  0.0340
 3462TIP3   OH210349   0.116   6.648   0.177 -0.0532  0.1593 -0.1224
 3462TIP3    H110350   0.033   6.694   0.163 -0.7527 -1.0360 -0.0255
 3462TIP3    H210351   0.129   6.650   0.272 -0.5780 -0.6537 -0.0242
 3463TIP3   OH210352   0.472   4.964   3.299  0.1846 -0.2992 -0.2190
 3463TIP3    H110353   0.499   5.020   3.227 -1.1034  1.9510  0.9226
 3463TIP3    H210354   0.383   4.937   3.276  0.3182 -0.7955 -0.1558
 3464TIP3   OH210355   4.473   3.998   0.835  0.1572  0.5348 -0.8187
 3464TIP3    H110356   4.567   4.012   0.825 -0.1703  3.0537 -1.0091
 3464TIP3    H210357   4.436   4.086   0.844 -2.1579 -0.3964 -0.4220
 3465TIP3   OH210358   0.933   2.235   3.268  0.4471 -0.4179 -0.2441
 3465TIP3    H110359   0.850   2.245   3.315  0.1596 -1.7774 -0.4281
 3465TIP3    H210360   0.997   2.282   3.322 -0.6338  1.7915 -0.7551
 3466TIP3   OH210361   6.115   5.539   0.155 -0.3809  0.0216 -0.1473
 3466TIP3    H110362   6.118   5.579   0.241 -0.4777 -1.3474  0.5249
 3466TIP3    H210363   6.096   5.447   0.172 -0.3770 -0.2823 -1.6295
 3467TIP3   OH210364   6.343   3.339   0.057 -0.2108 -0.2408 -0.2163
 3467TIP3    H110365   6.432   3.370   0.041 -0.9342  0.5468 -3.5592
 3467TIP3    H210366   6.307   3.402   0.120  0.7603  1.1403 -0.9754
 3468TIP3   OH210367   0.721   4.885   4.378 -0.4953  0.5379 -0.5135
 3468TIP3    H110368   0.676   4.933   4.309 -0.7141  2.1420  0.6682
 3468TIP3    H210369   0.660   4.887   4.452  0.6530  0.9586  0.4664
 3469TIP3   OH210370   6.116   5.718   1.466 -0.4700 -0.0035  0.4746
 3469TIP3    H110371   6.022   5.730   1.459 -0.3486  1.3984  0.9790
 3469TIP3    H210372   6.144   5.693   1.378 -1.1570  0.7079  0.0505
 3470TIP3   OH210373   5.669   5.976   1.302  0.0872 -0.0144 -0.1661
 3470TIP3    H110374   5.702   5.887   1.317 -0.3388  0.1074  1.6675
 3470TIP3    H210375   5.616   5.968   1.223  2.0414 -0.8433 -1.4797
 3471TIP3   OH210376   0.190   2.387   1.160  0.1836  0.0073 -0.3904
 3471TIP3    H110377   0.218   2.479   1.150 -0.0893  0.1227 -0.1068
 3471TIP3    H210378   0.204   2.369   1.253  2.4079 -0.9512 -0.8308
 3472TIP3   OH210379   4.981   3.059   2.458 -0.3683 -0.6935 -0.2669
 3472TIP3    H110380   4.936   3.004   2.523 -1.7935 -0.4544 -0.9973
 3472TIP3    H210381   4.911   3.114   2.421  0.7645  0.6009 -0.5753
 3473TIP3   OH210382   4.600   3.739   0.170 -0.4156  0.1349 -0.4790
 3473TIP3    H110383   4.558   3.819   0.204  0.7983  0.4413  0.3854
 3473TIP3    H210384   4.649   3.705   0.244 -0.0230 -0.8176 -1.1622
 3474TIP3   OH210385   0.739   0.460   2.797  0.0171  0.4035  0.0335
 3474TIP3    H110386   0.682   0.426   2.729 -0.0411 -0.8395  0.6668
 3474TIP3    H210387   0.772   0.543   2.763  0.0246 -0.2119 -1.5194
 3475TIP3   OH210388   0.194   3.572   1.620 -0.2159  0.2695  0.0301
 3475TIP3    H110389   0.112   3.617   1.639 -0.3976  0.4641 -1.1424
 3475TIP3    H210390   0.228   3.614   1.541  0.6591 -0.2780  0.0932
 3476TIP3   OH210391   1.840   0.175   3.399  0.7068 -0.2961 -0.0620
 3476TIP3    H110392   1.788   0.113   3.449 -0.4423  0.1609 -0.6385
 3476TIP3    H210393   1.776   0.233   3.358  1.6658  0.2092 -0.9224
 3477TIP3   OH210394   2.311   3.439   4.483  0.2775 -0.5376 -0.1175
 3477TIP3    H110395   2.368   3.380   4.533  0.6305  2.2305  3.0757
 3477TIP3    H210396   2.370   3.504   4.445 -0.4509  0.6298  0.6883
 3478TIP3   OH210397   1.884   6.312   1.516  0.9275 -0.2227 -0.6134
 3478TIP3    H110398   1.834   6.231   1.530 -1.5094  1.0908 -1.1661
 3478TIP3    H210399   1.899   6.314   1.421  1.4163 -0.2366 -0.5394
 3479TIP3   OH210400   7.166   2.824   5.667 -0.0031 -0.5840 -0.4613
 3479TIP3    H110401   7.207   2.742   5.694  0.3764 -0.4082 -0.5008
 3479TIP3    H210402   7.090   2.796   5.615 -0.7295 -0.9199  0.7459
 3480TIP3   OH210403   4.281   5.418   1.432 -0.2126  0.2562  0.2227
 3480TIP3    H110404   4.364   5.465   1.426  0.1227 -0.3451 -0.0228
 3480TIP3    H210405   4.215   5.486   1.443  0.1786  0.8192 -0.7633
 3481TIP3   OH210406   4.948   6.056   1.952 -0.2607  0.0247  0.0599
 3481TIP3    H110407   4.994   6.119   2.006 -1.2219  0.5182  0.3284
 3481TIP3    H210408   4.893   6.007   2.013 -0.1333 -0.5217 -0.2567
 3482TIP3   OH210409   5.670   6.770   3.026 -0.2470 -0.2039 -0.4965
 3482TIP3    H110410   5.747   6.783   3.081  0.3192 -0.1603 -1.2842
 3482TIP3    H210411   5.600   6.747   3.088  0.3170  0.0562  0.2569
 3483TIP3   OH210412   1.904   5.451   2.886 -0.0861 -0.0732 -0.0992
 3483TIP3    H110413   1.945   5.368   2.861  0.9362  0.6734 -0.9647
 3483TIP3    H210414   1.821   5.425   2.927  0.6104 -1.5564  0.4488
 3484TIP3   OH210415   2.667   5.236   0.162  0.1028  0.6691  1.0181
 3484TIP3    H110416   2.662   5.183   0.082  1.0803  0.7131  0.9153
 3484TIP3    H210417   2.618   5.315   0.141 -1.0478 -0.0191  1.0367
 3485TIP3   OH210418   3.244   1.386   4.431  0.2270  0.1034  0.2050
 3485TIP3    H110419   3.179   1.330   4.390  0.9401 -1.6275  1.3457
 3485TIP3    H210420   3.193   1.450   4.481 -0.5828  0.3371 -0.8583
 3486TIP3   OH210421   7.120   3.022   0.327  0.2925  0.1225  0.2403
 3486TIP3    H110422   7.101   2.951   0.265  0.8261  0.5855 -0.4771
 3486TIP3    H210423   7.139   2.978   0.409 -1.0400 -0.4808  0.2535
 3487TIP3   OH210424   3.810   2.708   5.692 -0.4510 -0.1939 -0.4422
 3487TIP3    H110425   3.736   2.691   5.633 -0.8303  0.5534 -0.1966
 3487TIP3    H210426   3.781   2.674   5.777 -0.4381 -0.0632 -0.3858
 3488TIP3   OH210427   5.288   3.982   0.106 -0.7096 -0.3012  0.2300
 3488TIP3    H110428   5.241   4.045   0.051 -0.0713  1.3520  1.4950
 3488TIP3    H210429   5.302   4.028   0.189  0.1516 -1.9753  1.0651
 3489TIP3   OH210430   0.029   5.075   2.591  0.6039 -0.6103 -0.0932
 3489TIP3    H110431   0.063   4.994   2.629 -1.3083 -0.4453  2.2386
 3489TIP3    H210432  -0.053   5.049   2.549 -0.0142  0.0836  0.6536
 3490TIP3   OH210433   0.356   4.662   2.164  0.0685  0.3358  0.0994
 3490TIP3    H110434   0.387   4.584   2.118  0.3011  0.3905  0.1612
 3490TIP3    H210435   0.429   4.686   2.221  0.4433  1.2538 -0.7398
 3491TIP3   OH210436   4.390   5.133   5.166  0.0311  0.7059  0.5436
 3491TIP3    H110437   4.430   5.051   5.197  3.1080  2.0021  0.3708
 3491TIP3    H210438   4.413   5.197   5.233 -1.1287  1.7144 -0.0034
 3492TIP3   OH210439   6.707   4.051   2.413 -0.1579  0.2260 -0.2583
 3492TIP3    H110440   6.796   4.039   2.446  0.2241 -0.7284 -1.5803
 3492TIP3    H210441   6.655   3.984   2.458  0.3089 -0.8913 -1.3349
 3493TIP3   OH210442   5.242   5.616   1.442  0.2075 -0.5771 -0.2493
 3493TIP3    H110443   5.331   5.644   1.422  0.4620  0.7689  2.2893
 3493TIP3    H210444   5.225   5.651   1.530 -2.6804 -1.1365 -0.4688
 3494TIP3   OH210445   3.484   3.829   5.543 -0.3468  0.2103  0.4825
 3494TIP3    H110446   3.418   3.804   5.608 -1.2576  0.5375 -0.2989
 3494TIP3    H210447   3.563   3.781   5.569 -0.6385  0.4675  1.9261
 3495TIP3   OH210448   0.586   4.010   4.329  0.7078 -0.0308 -0.3263
 3495TIP3    H110449   0.660   4.049   4.284  1.2871 -0.8790 -0.1335
 3495TIP3    H210450   0.511   4.026   4.272  1.3379 -0.6591 -1.3532
 3496TIP3   OH210451   1.435   4.581   4.587  0.3146 -0.3866 -0.7207
 3496TIP3    H110452   1.416   4.670   4.556  0.1878 -0.4664 -0.8809
 3496TIP3    H210453   1.398   4.524   4.519  1.1811 -0.5514 -1.0580
 3497TIP3   OH210454   7.087   0.009   2.653 -0.1808  0.3658 -0.0294
 3497TIP3    H110455   7.092   0.097   2.690  0.8500  0.2065  0.2386
 3497TIP3    H210456   7.007  -0.029   2.691  0.3504  0.5342  1.3132
 3498TIP3   OH210457   6.660   5.591   3.975  0.6251  0.1136  0.4578
 3498TIP3    H110458   6.689   5.503   3.997  1.7478  0.2913 -0.2153
 3498TIP3    H210459   6.695   5.646   4.046  1.1773  0.2067  0.1175
 3499TIP3   OH210460   5.899   1.953   3.044  0.2352 -0.1921 -0.7392
 3499TIP3    H110461   5.883   2.035   2.997  1.1751 -0.2348 -1.1429
 3499TIP3    H210462   5.854   1.886   2.991  0.7236 -0.1445 -1.2243
 3500TIP3   OH210463   2.094   4.811   0.507  0.2785  0.1141 -0.0439
 3500TIP3    H110464   2.124   4.805   0.597  1.4883 -1.6552 -0.5200
 3500TIP3    H210465   2.088   4.905   0.490 -1.2983  0.5214  2.2494
 3501TIP3   OH210466   3.192   0.314   2.212 -0.6778 -0.2300 -0.0684
 3501TIP3    H110467   3.100   0.339   2.206 -0.7695 -0.5739 -0.1047
 3501TIP3    H210468   3.208   0.263   2.132 -0.4682 -0.2051 -0.0424
 3502TIP3   OH210469   3.894   3.555   5.834 -0.1030  0.5742  0.3050
 3502TIP3    H110470   3.926   3.467   5.815  0.0350  0.5052  0.8293
 3502TIP3    H210471   3.922   3.571   5.925  0.0759  1.2437  0.1384
 3503TIP3   OH210472   2.881   4.234   3.778  0.2052 -0.2908 -0.3840
 3503TIP3    H110473   2.826   4.312   3.774  1.3021  0.5150 -0.3060
 3503TIP3    H210474   2.882   4.201   3.689  0.0145 -0.0142 -0.4908
 3504TIP3   OH210475   6.086   1.511   3.947 -0.2759 -0.2751 -0.2599
 3504TIP3    H110476   6.144   1.536   3.875  0.0859  0.0629  0.1422
 3504TIP3    H210477   6.030   1.587   3.960 -0.4916 -0.4215 -0.3346
 3505TIP3   OH210478   6.913   6.030   5.149 -0.6107  0.0259  0.1789
 3505TIP3    H110479   6.860   6.093   5.101 -0.3342  1.9277  2.2412
 3505TIP3    H210480   6.875   6.028   5.236  0.4955 -1.3405  0.6722
 3506TIP3   OH210481   0.618   6.776   5.116  0.6799  0.3410  0.7092
 3506TIP3    H110482   0.596   6.690   5.152 -0.7803 -0.5466 -1.9956
 3506TIP3    H210483   0.687   6.759   5.052  1.7576  1.5301  1.5032
 3507TIP3   OH210484   1.787   0.591   1.173  0.1442  0.4286 -0.2986
 3507TIP3    H110485   1.803   0.568   1.265  0.8325  1.2693 -0.2010
 3507TIP3    H210486   1.864   0.559   1.127  0.4239  1.1855 -0.3763
 3508TIP3   OH210487   1.848   2.164   0.908  0.2285  0.3224 -0.3347
 3508TIP3    H110488   1.913   2.104   0.943 -0.1781 -0.5325 -0.9972
 3508TIP3    H210489   1.900   2.235   0.869  0.8614 -0.9784 -2.0025
 3509TIP3   OH210490   6.191   6.601   0.811  0.2412 -0.8642 -0.0178
 3509TIP3    H110491   6.190   6.536   0.880 -0.8486 -0.3181  0.5065
 3509TIP3    H210492   6.142   6.675   0.847  0.3478 -0.2591 -1.0750
 3510TIP3   OH210493   6.196   5.548   2.271 -0.1916 -0.0181  0.1978
 3510TIP3    H110494   6.276   5.599   2.283 -0.4088  0.3060  0.3009
 3510TIP3    H210495   6.129   5.613   2.249  0.1632 -0.5497 -2.8939
 3511TIP3   OH210496   5.966   6.304   3.360  0.0112 -0.2217 -0.1609
 3511TIP3    H110497   5.983   6.374   3.423  1.6253 -0.9417  0.2577
 3511TIP3    H210498   5.963   6.348   3.275  0.0378  0.4633  0.1843
 3512TIP3   OH210499   1.086   5.536   0.479  0.8953 -0.0986 -0.3896
 3512TIP3    H110500   0.998   5.561   0.507  0.3674 -3.1375  1.0062
 3512TIP3    H210501   1.087   5.555   0.385 -2.2090 -2.2742 -1.0114
 3513TIP3   OH210502   1.966   0.578   4.325 -0.7142  0.1329  0.6248
 3513TIP3    H110503   2.032   0.524   4.367  0.4684  1.4464  0.5572
 3513TIP3    H210504   1.909   0.516   4.279  0.5294 -1.0441  0.6023
 3514TIP3   OH210505   3.134   1.940   1.392  0.3510  0.3933 -0.7304
 3514TIP3    H110506   3.127   2.010   1.457  0.6504  2.2628 -2.6187
 3514TIP3    H210507   3.202   1.970   1.332 -0.4448 -0.8872 -2.3400
 3515TIP3   OH210508   7.087   2.017   2.608  0.1112 -0.0096  0.0608
 3515TIP3    H110509   7.107   2.105   2.577  2.1477 -1.5837 -3.8278
 3515TIP3    H210510   7.164   1.991   2.658  0.5135 -0.3178 -0.7052
 3516TIP3   OH210511   1.762   3.550   1.248  0.2439  0.5156 -0.2068
 3516TIP3    H110512   1.857   3.543   1.239  0.5186  0.3176  2.1010
 3516TIP3    H210513   1.728   3.474   1.201  1.3787 -0.5494  0.6165
 3517TIP3   OH210514   5.078   5.890   0.721  0.0955  0.5903 -0.3820
 3517TIP3    H110515   5.062   5.803   0.759  0.8733  1.0039  0.9424
 3517TIP3    H210516   5.140   5.931   0.781  1.2409  1.3526 -2.0239
 3518TIP3   OH210517   0.243   6.138   3.611  0.3501 -0.0979  0.5380
 3518TIP3    H110518   0.293   6.079   3.666  0.1276 -1.4660 -0.6697
 3518TIP3    H210519   0.176   6.175   3.668  1.2445 -0.0766  1.5913
 3519TIP3   OH210520   0.456   5.143   5.106 -0.6659  0.3554 -0.4144
 3519TIP3    H110521   0.430   5.127   5.015 -0.4892  0.6959 -0.5295
 3519TIP3    H210522   0.454   5.238   5.114  0.6098  0.4030 -0.4533
 3520TIP3   OH210523   4.541   4.157   4.635  0.3659 -0.3739  0.0984
 3520TIP3    H110524   4.489   4.197   4.704 -0.0935 -1.0247  0.1395
 3520TIP3    H210525   4.580   4.231   4.588 -0.4580  0.1148  0.1756
 3521TIP3   OH210526   2.188   2.037   2.670 -0.2892 -0.0670 -0.5468
 3521TIP3    H110527   2.204   2.104   2.737 -0.5765 -1.4945  0.9848
 3521TIP3    H210528   2.171   2.088   2.590  0.2511  1.6730  0.3869
 3522TIP3   OH210529   1.341   0.844   0.507  0.4443 -0.0468 -0.2790
 3522TIP3    H110530   1.434   0.827   0.496  0.3263 -1.2391  0.3635
 3522TIP3    H210531   1.336   0.910   0.576  0.7889 -0.9724  0.6641
 3523TIP3   OH210532   3.887   5.925   1.753  0.1129 -0.5919  0.5375
 3523TIP3    H110533   3.919   5.982   1.823  1.2479 -0.1373 -0.3270
 3523TIP3    H210534   3.906   5.973   1.672 -0.3024 -1.5295 -0.1367
 3524TIP3   OH210535   3.325   1.509   1.816 -0.3461 -0.2395 -0.4355
 3524TIP3    H110536   3.268   1.461   1.756 -0.1732  0.5291 -1.2200
 3524TIP3    H210537   3.407   1.459   1.816 -0.1416  0.0893 -1.3096
 3525TIP3   OH210538   5.775   5.020   3.052  0.2337 -0.7061 -0.0104
 3525TIP3    H110539   5.791   5.068   2.970  1.2315 -2.4601 -0.8964
 3525TIP3    H210540   5.804   5.080   3.120 -0.9365  0.9451 -0.8883
 3526TIP3   OH210541   3.747   3.877   2.297  0.0219  0.1121  0.2550
 3526TIP3    H110542   3.689   3.889   2.222  0.0529 -1.4346 -0.0514
 3526TIP3    H210543   3.780   3.787   2.288  2.4391  0.9111  0.4277
 3527TIP3   OH210544   2.409   5.045   0.843 -1.0067  0.2089  0.0920
 3527TIP3    H110545   2.346   4.973   0.839 -1.6067  0.7268  0.1499
 3527TIP3    H210546   2.418   5.065   0.936 -1.8120  1.0419  0.0059
 3528TIP3   OH210547   4.640   3.874   5.702  0.3364 -0.0161 -0.1750
 3528TIP3    H110548   4.700   3.896   5.631 -0.6313  0.5532 -0.8440
 3528TIP3    H210549   4.637   3.953   5.756  2.6287 -1.0934  1.7168
 3529TIP3   OH210550   5.783   6.779   1.913  0.2273  0.1298 -0.5940
 3529TIP3    H110551   5.763   6.866   1.881  0.0780 -0.7348 -3.0361
 3529TIP3    H210552   5.756   6.720   1.843  0.7364 -1.8674  0.7840
 3530TIP3   OH210553   0.798   2.841   4.231  0.0782  0.0781  0.0952
 3530TIP3    H110554   0.816   2.918   4.177  1.3316 -0.5145 -0.3767
 3530TIP3    H210555   0.858   2.773   4.198  1.9516  0.0608  3.0570
 3531TIP3   OH210556   4.757   2.950   3.448 -0.1024  0.5603 -0.7998
 3531TIP3    H110557   4.736   2.873   3.395 -1.4485  0.0446  0.4149
 3531TIP3    H210558   4.725   3.024   3.397 -0.3350  0.1676 -1.2274
 3532TIP3   OH210559   1.832   1.346   1.371  0.2727 -0.2115 -0.5290
 3532TIP3    H110560   1.810   1.289   1.298 -0.4084  0.4551 -0.8504
 3532TIP3    H210561   1.862   1.427   1.331 -1.5946  0.7443 -0.1193
 3533TIP3   OH210562   2.072   4.229   0.554  0.3880  0.0948 -0.3426
 3533TIP3    H110563   2.022   4.311   0.555  0.7419  0.3106 -0.1201
 3533TIP3    H210564   2.047   4.185   0.635 -0.3784 -0.3748 -0.8223
 3534TIP3   OH210565   2.930   3.322   3.499  0.5941 -0.3563  0.3155
 3534TIP3    H110566   2.867   3.256   3.469  0.4821  0.7227 -2.0419
 3534TIP3    H210567   2.996   3.326   3.429  2.3368 -0.1740  1.8920
 3535TIP3   OH210568   5.460   1.612   0.858 -0.1682 -0.5833 -0.0365
 3535TIP3    H110569   5.516   1.611   0.936 -0.8291  0.5912  0.4858
 3535TIP3    H210570   5.377   1.574   0.889 -0.1797 -0.8294 -0.3722
 3536TIP3   OH210571   2.027   5.294   2.449  0.1151 -0.4706 -0.3811
 3536TIP3    H110572   1.934   5.273   2.435  0.1336 -0.9794  0.2299
 3536TIP3    H210573   2.042   5.274   2.541  0.4266  1.1614 -0.0387
 3537TIP3   OH210574   3.492   5.792   5.380  0.5484 -0.3862 -0.2440
 3537TIP3    H110575   3.420   5.778   5.441  1.1191  0.9747  0.7891
 3537TIP3    H210576   3.565   5.743   5.417  1.4521  1.9594  1.3067
 3538TIP3   OH210577   2.740   5.756   1.698  0.2926  0.5151  0.5512
 3538TIP3    H110578   2.680   5.783   1.628 -1.4296  0.3443  1.8760
 3538TIP3    H210579   2.682   5.735   1.771  1.9501 -0.6396  1.5951
 3539TIP3   OH210580   7.032   2.128   0.608 -0.4801 -0.3554  0.7290
 3539TIP3    H110581   7.101   2.084   0.657  0.3178  0.1222  0.0611
 3539TIP3    H210582   7.056   2.220   0.611 -1.2614 -0.1422  0.7355
 3540TIP3   OH210583   3.847   6.224   2.576  0.4528  0.2518  0.3537
 3540TIP3    H110584   3.821   6.183   2.493 -0.4989 -0.0121  0.7645
 3540TIP3    H210585   3.925   6.275   2.554  0.3069  0.0617 -0.6700
 3541TIP3   OH210586   4.907   4.205   5.391  0.1594  0.2637 -0.1133
 3541TIP3    H110587   4.935   4.213   5.300 -0.2679 -0.1988 -0.2898
 3541TIP3    H210588   4.846   4.277   5.404  1.8418  1.6682  0.4573
 3542TIP3   OH210589   3.979   5.153   2.266 -0.4529  0.1380 -0.6343
 3542TIP3    H110590   3.921   5.079   2.281 -1.4969  0.1225 -3.9565
 3542TIP3    H210591   4.048   5.118   2.210  0.8701  1.0036  0.3713
 3543TIP3   OH210592   0.360   0.365   1.442  0.1988  0.2419 -0.4473
 3543TIP3    H110593   0.422   0.430   1.407  3.8062 -0.7836  3.3341
 3543TIP3    H210594   0.336   0.398   1.528 -0.5788 -1.8799  0.2126
 3544TIP3   OH210595   0.918   4.433   0.551 -0.1546  0.1329 -0.0201
 3544TIP3    H110596   0.852   4.490   0.511 -1.5230 -1.8396 -0.7556
 3544TIP3    H210597   0.959   4.487   0.618 -1.8335  1.7687 -0.2193
 3545TIP3   OH210598   1.472   6.198   4.404 -0.0324 -0.2021 -0.0096
 3545TIP3    H110599   1.466   6.294   4.403 -2.2390 -0.2820  0.7466
 3545TIP3    H210600   1.544   6.178   4.343  1.7021  1.9749  1.1771
 3546TIP3   OH210601   4.975   1.454   5.601  0.1435 -0.4333  0.2451
 3546TIP3    H110602   5.003   1.479   5.689  2.0254 -1.0412 -0.1253
 3546TIP3    H210603   4.915   1.381   5.615 -0.6050  0.3178  1.0566
 3547TIP3   OH210604   1.296   6.626   1.057  0.1305 -0.5332  0.1632
 3547TIP3    H110605   1.346   6.707   1.060 -0.0159 -0.4004 -0.8581
 3547TIP3    H210606   1.213   6.649   1.016  0.7009 -1.4886 -1.6373
 3548TIP3   OH210607   0.517   6.512   2.816  0.2056  0.7867  0.1300
 3548TIP3    H110608   0.459   6.491   2.889  0.8271 -2.9623 -0.2692
 3548TIP3    H210609   0.462   6.506   2.739  0.1659  1.9886  0.0405
 3549TIP3   OH210610   5.540   3.400   0.159 -0.5541 -0.4240  0.0789
 3549TIP3    H110611   5.453   3.438   0.169  0.1621  1.5981 -0.7384
 3549TIP3    H210612   5.530   3.336   0.089 -0.6918  2.7285 -3.0856
 3550TIP3   OH210613   2.813   1.834   1.739  0.2023 -0.1449 -0.4130
 3550TIP3    H110614   2.798   1.760   1.797 -0.0052 -1.4041 -1.9877
 3550TIP3    H210615   2.763   1.813   1.660  0.1105  1.7040 -0.8844
 3551TIP3   OH210616   5.149   5.107   0.098  0.3086  0.8455 -0.4316
 3551TIP3    H110617   5.112   5.101   0.186  1.3285  1.4554  0.0665
 3551TIP3    H210618   5.108   5.184   0.059 -0.5646  0.2486 -0.7090
 3552TIP3   OH210619   2.173   5.116   3.421 -0.2386 -0.1887  0.1769
 3552TIP3    H110620   2.252   5.165   3.397 -1.1883  1.1824 -0.2547
 3552TIP3    H210621   2.199   5.024   3.410  2.0314  0.0791  2.3506
 3553TIP3   OH210622   5.518   6.290   2.475  0.1540 -0.1848  0.0037
 3553TIP3    H110623   5.455   6.340   2.527  1.2441 -0.4342  1.6141
 3553TIP3    H210624   5.534   6.345   2.398 -1.0926  0.4415  0.1629
 3554TIP3   OH210625   0.443   1.781   5.831 -0.0618  0.3039 -0.6034
 3554TIP3    H110626   0.473   1.861   5.874 -0.3150  0.0806  0.0058
 3554TIP3    H210627   0.522   1.739   5.799  0.1415  0.4403 -0.2840
 3555TIP3   OH210628   3.280   2.599   1.302 -0.0659 -0.1831  0.6788
 3555TIP3    H110629   3.270   2.694   1.293 -1.4291 -0.3397  0.4051
 3555TIP3    H210630   3.342   2.575   1.232 -0.9205  0.3082 -0.2711
 3556TIP3   OH210631   4.252   6.350   2.921  0.1949  0.5369 -0.3358
 3556TIP3    H110632   4.348   6.354   2.910  0.2625 -0.8483 -0.3555
 3556TIP3    H210633   4.231   6.257   2.912 -1.2647  0.9268 -1.2049
 3557TIP3   OH210634   5.885   0.184   1.714 -0.3426 -0.3309 -0.4903
 3557TIP3    H110635   5.978   0.169   1.696 -0.2564 -1.1937  0.5732
 3557TIP3    H210636   5.844   0.185   1.627  0.6961  0.4147 -0.9911
 3558TIP3   OH210637   6.509   0.404   5.102  0.0274 -0.0961 -0.0293
 3558TIP3    H110638   6.585   0.411   5.160  0.2262 -0.2696 -0.2649
 3558TIP3    H210639   6.459   0.330   5.136 -1.1729  1.2963  1.4257
 3559TIP3   OH210640   5.160   1.649   4.094  0.2183  0.4565  0.2597
 3559TIP3    H110641   5.141   1.687   4.008 -3.1260 -1.2814  0.0809
 3559TIP3    H210642   5.145   1.720   4.156 -0.8692  0.8233 -0.3971
 3560TIP3   OH210643   3.183   4.671   4.323 -0.0929 -1.0506  0.6494
 3560TIP3    H110644   3.219   4.601   4.270  0.6316 -0.7603  0.7532
 3560TIP3    H210645   3.090   4.673   4.300  0.0250 -1.5593  0.1103
 3561TIP3   OH210646   4.623   4.870   0.157  0.4188 -0.6472 -0.0824
 3561TIP3    H110647   4.548   4.895   0.102 -0.8997 -0.8238  1.5625
 3561TIP3    H210648   4.694   4.854   0.094 -0.4071  1.1782 -1.5978
 3562TIP3   OH210649   1.478   6.723   4.531  0.2165 -0.3549  0.3032
 3562TIP3    H110650   1.525   6.723   4.615 -0.9154 -0.7218  0.9513
 3562TIP3    H210651   1.454   6.815   4.518  1.5969 -0.0648 -0.3243
 3563TIP3   OH210652   2.589   2.585   3.460  0.0560 -0.4813  0.2821
 3563TIP3    H110653   2.678   2.551   3.467  0.5518  0.4079 -1.2177
 3563TIP3    H210654   2.560   2.595   3.550  1.8497  0.1553  0.8310
 3564TIP3   OH210655   0.089   5.272   1.212 -0.8445  0.3651  0.2332
 3564TIP3    H110656   0.014   5.329   1.231 -1.5960 -1.0782  1.8780
 3564TIP3    H210657   0.110   5.231   1.296  1.5874  0.4411 -0.2626
 3565TIP3   OH210658   3.357   3.297   5.564  0.5565 -0.5237  0.0003
 3565TIP3    H110659   3.393   3.366   5.621  3.4196 -1.6514 -0.2798
 3565TIP3    H210660   3.313   3.237   5.624 -0.8507  0.8290  0.3855
 3566TIP3   OH210661   3.546   4.694   0.290  0.2142  0.3423  0.2738
 3566TIP3    H110662   3.617   4.750   0.257 -0.5203  1.3893  0.4183
 3566TIP3    H210663   3.584   4.606   0.292  1.0251  0.6236 -1.1172
 3567TIP3   OH210664   6.728   6.230   2.858 -0.2694  0.0901 -0.3199
 3567TIP3    H110665   6.801   6.205   2.801 -0.5756 -0.0772 -0.6377
 3567TIP3    H210666   6.656   6.172   2.833 -0.5780  0.3936 -0.1473
 3568TIP3   OH210667   6.511   5.944   3.005  0.4919 -0.2241  0.0695
 3568TIP3    H110668   6.439   5.908   3.057  0.4599  0.0435  0.2111
 3568TIP3    H210669   6.518   5.884   2.931 -1.5143  1.0701 -1.2725
 3569TIP3   OH210670   0.196   5.109   2.936 -0.4983 -0.4197  0.3038
 3569TIP3    H110671   0.205   5.172   2.865  0.1095 -1.0598 -0.1979
 3569TIP3    H210672   0.221   5.157   3.014 -0.7710  0.1757  0.0293
 3570TIP3   OH210673   6.057   1.294   3.133  0.2309 -0.2598 -0.6128
 3570TIP3    H110674   6.129   1.350   3.160 -0.3767 -0.0981  0.7700
 3570TIP3    H210675   6.041   1.237   3.209 -1.2954 -0.0714 -0.7629
 3571TIP3   OH210676   5.674   2.940   0.555 -0.4017  0.0565 -0.8459
 3571TIP3    H110677   5.660   3.032   0.577 -0.8987  0.1076 -1.3655
 3571TIP3    H210678   5.589   2.908   0.528 -1.0657 -1.4997  2.5223
 3572TIP3   OH210679   6.971   0.430   5.792 -0.2423 -0.5271 -0.5822
 3572TIP3    H110680   6.950   0.369   5.721 -3.1145 -0.0533 -0.2352
 3572TIP3    H210681   7.040   0.386   5.841 -1.2774 -2.9223 -1.1139
 3573TIP3   OH210682   5.581   3.600   1.762 -0.3192  0.0536  0.5592
 3573TIP3    H110683   5.510   3.555   1.716  0.3010 -1.0275  0.6070
 3573TIP3    H210684   5.643   3.530   1.783  1.2823  1.1233 -0.4426
 3574TIP3   OH210685   7.173   5.778   4.862 -0.1831  0.7684 -0.3227
 3574TIP3    H110686   7.264   5.769   4.890 -0.3812 -1.8752 -0.3148
 3574TIP3    H210687   7.123   5.782   4.943 -0.3060 -1.2488 -0.2605
 3575TIP3   OH210688   5.755   2.145   3.243 -0.0607 -0.5008  0.1080
 3575TIP3    H110689   5.710   2.181   3.319 -0.2469  1.5151 -0.8963
 3575TIP3    H210690   5.845   2.175   3.252 -0.4907  1.4291 -1.3896
 3576TIP3   OH210691   4.589   4.106   1.570 -0.4521 -0.2351 -0.6197
 3576TIP3    H110692   4.625   4.109   1.482  0.7998 -0.6885 -0.1528
 3576TIP3    H210693   4.498   4.135   1.561 -0.7136 -1.4480 -2.2334
 3577TIP3   OH210694   3.374   2.736   5.298 -0.0647 -0.2943 -0.0822
 3577TIP3    H110695   3.279   2.739   5.304 -0.1227  0.2902 -1.0648
 3577TIP3    H210696   3.405   2.784   5.374 -0.6157  1.3968 -0.8764
 3578TIP3   OH210697   6.623   4.453   3.391 -0.3164 -0.2639  0.8725
 3578TIP3    H110698   6.620   4.445   3.486 -1.0739  0.4855  0.9277
 3578TIP3    H210699   6.684   4.526   3.375  0.9186 -1.2959  0.7030
 3579TIP3   OH210700   4.266   6.247   2.354 -0.1584  0.0966 -0.3531
 3579TIP3    H110701   4.305   6.203   2.278  0.9957  1.9380 -0.9072
 3579TIP3    H210702   4.329   6.233   2.425 -0.3061 -0.0337 -0.2476
 3580TIP3   OH210703   5.995   6.342   1.293 -0.0907  0.9221  0.2521
 3580TIP3    H110704   6.076   6.390   1.307  1.5398 -2.1517  2.2622
 3580TIP3    H210705   6.021   6.263   1.245 -1.8833 -0.1227  0.8943
 3581TIP3   OH210706   0.161   2.354   0.596 -0.6251 -0.1161 -0.6709
 3581TIP3    H110707   0.085   2.385   0.645 -0.9650 -0.5635 -0.9129
 3581TIP3    H210708   0.160   2.405   0.515 -0.8180 -0.3147 -0.7915
 3582TIP3   OH210709   3.692   5.060   0.436 -0.1144  0.1687 -0.7213
 3582TIP3    H110710   3.753   5.127   0.468  0.5887 -1.0644  0.6642
 3582TIP3    H210711   3.606   5.090   0.466  0.0994  0.8338 -0.7679
 3583TIP3   OH210712   3.812   1.863   3.697 -0.6045 -0.2017  0.0014
 3583TIP3    H110713   3.805   1.821   3.783 -0.2478 -1.3749 -0.5097
 3583TIP3    H210714   3.853   1.948   3.714  5.2689 -2.6640  0.5604
 3584TIP3   OH210715   2.437   2.746   4.460 -0.2907 -0.4232 -0.3858
 3584TIP3    H110716   2.432   2.653   4.483  1.0944 -0.5542 -0.5342
 3584TIP3    H210717   2.459   2.746   4.367  2.0723 -0.0169  0.1057
 3585TIP3   OH210718   0.922   5.429   4.508  0.1573  0.3246 -0.1773
 3585TIP3    H110719   0.859   5.383   4.452  0.6760 -0.3161 -0.2405
 3585TIP3    H210720   0.919   5.519   4.477 -1.3054  0.4830  0.3435
 3586TIP3   OH210721   5.837   1.130   5.463  0.0620 -0.0407 -0.0000
 3586TIP3    H110722   5.756   1.084   5.439 -0.0821 -0.3125  0.9632
 3586TIP3    H210723   5.811   1.185   5.537  0.3367  1.2757 -0.8376
 3587TIP3   OH210724   2.676   3.555   1.383  0.6199 -0.7348  0.2127
 3587TIP3    H110725   2.710   3.467   1.400  0.6642 -0.5752  0.9908
 3587TIP3    H210726   2.581   3.544   1.378  0.5930 -0.7521  0.7811
 3588TIP3   OH210727   5.162   3.494   4.435 -0.0852  0.1039  0.1026
 3588TIP3    H110728   5.109   3.478   4.358  0.5855  4.5283 -1.6045
 3588TIP3    H210729   5.100   3.524   4.502 -0.2074  1.6904 -0.6718
 3589TIP3   OH210730   3.535   4.280   5.446  0.3101 -0.4805 -0.1048
 3589TIP3    H110731   3.519   4.186   5.432  0.9154 -0.5613 -0.3286
 3589TIP3    H210732   3.521   4.319   5.360  0.0672 -0.3642 -0.0133
 3590TIP3   OH210733   0.992   4.971   1.841 -0.2294 -0.2777 -0.0509
 3590TIP3    H110734   1.002   4.944   1.933 -1.4552 -0.8270 -0.0649
 3590TIP3    H210735   0.987   4.889   1.793 -2.8362 -0.0924 -0.2298
 3591TIP3   OH210736   0.873   3.097   1.089  0.0440 -0.1591  0.3248
 3591TIP3    H110737   0.833   3.099   1.176 -0.2954  1.1434  0.1580
 3591TIP3    H210738   0.830   3.024   1.045  0.3360 -0.9423  1.2964
 3592TIP3   OH210739   4.909   4.765   4.328  0.5343 -0.0695 -0.2252
 3592TIP3    H110740   4.920   4.823   4.253  1.5840  0.8587  0.6069
 3592TIP3    H210741   4.955   4.809   4.400 -2.6772  0.4428  1.7219
 3593TIP3   OH210742   6.359   4.205   0.259  0.4508 -0.1973  0.0273
 3593TIP3    H110743   6.322   4.165   0.180 -0.7290 -0.7485  0.8327
 3593TIP3    H210744   6.349   4.299   0.246  0.9192 -0.2529 -0.7791
 3594TIP3   OH210745   4.336   5.306   5.718  0.4492 -0.6418  0.0239
 3594TIP3    H110746   4.385   5.388   5.707  0.0695 -0.2798  0.9572
 3594TIP3    H210747   4.340   5.288   5.812 -0.5143 -1.0463 -0.0030
 3595TIP3   OH210748   2.494   2.210   2.061  0.7791  0.6978 -0.3008
 3595TIP3    H110749   2.526   2.142   2.002  0.8889  0.9272 -0.5101
 3595TIP3    H210750   2.461   2.279   2.003 -1.0090  0.0517 -0.0955
 3596TIP3   OH210751   1.122   2.656   0.947 -0.0505 -0.0576 -0.4613
 3596TIP3    H110752   1.064   2.581   0.932  0.6752 -1.1551  1.8925
 3596TIP3    H210753   1.071   2.715   1.004  0.6366 -0.4039  0.5251
 3597TIP3   OH210754   6.881   0.145   4.723  0.1147 -0.0645 -0.2617
 3597TIP3    H110755   6.934   0.225   4.728 -0.2702  0.3594 -1.9905
 3597TIP3    H210756   6.790   0.178   4.719 -0.1268 -0.6582  0.2499
 3598TIP3   OH210757   5.387   6.288   0.303  0.1620  0.7549 -0.0962
 3598TIP3    H110758   5.431   6.287   0.218 -0.3845 -0.0450 -0.3782
 3598TIP3    H210759   5.297   6.314   0.284 -0.0695  0.1825  0.1653
 3599TIP3   OH210760   0.376   1.690   0.976  0.1063  0.6217 -0.4952
 3599TIP3    H110761   0.462   1.681   1.018  1.2487  0.6690 -2.6412
 3599TIP3    H210762   0.392   1.748   0.901 -1.2045 -1.3188 -2.4021
 3600TIP3   OH210763   0.362   5.103   5.692 -0.0363  0.3255  0.2090
 3600TIP3    H110764   0.308   5.047   5.636 -0.6984  1.2159 -0.0783
 3600TIP3    H210765   0.342   5.192   5.663 -1.3647  0.9279  2.6822
 3601TIP3   OH210766   5.464   1.972   3.808  0.3966  0.5816  0.4940
 3601TIP3    H110767   5.539   1.960   3.866  0.8085  0.1655 -0.1108
 3601TIP3    H210768   5.499   1.960   3.720 -0.6190 -0.9570  0.2611
 3602TIP3   OH210769   5.450   6.020   0.414  0.4038  0.0457 -0.5326
 3602TIP3    H110770   5.431   6.095   0.359  0.5111  1.2187  0.9628
 3602TIP3    H210771   5.364   5.989   0.443  0.3900  0.1510 -0.4579
 3603TIP3   OH210772   6.336   5.676   5.271  0.1807  0.1546  0.6730
 3603TIP3    H110773   6.302   5.621   5.201  1.6990  1.2856 -1.0110
 3603TIP3    H210774   6.341   5.764   5.233  1.1447  0.7840  2.1619
 3604TIP3   OH210775   3.730   5.940   4.054  0.4882  0.3289 -0.3923
 3604TIP3    H110776   3.701   5.952   3.963 -1.0334 -0.6235 -0.0790
 3604TIP3    H210777   3.814   5.985   4.058  2.0465 -1.9862 -3.0496
 3605TIP3   OH210778   3.519   3.703   1.680  0.5705  0.3944 -0.6934
 3605TIP3    H110779   3.600   3.754   1.682  0.6041  0.3327  2.0077
 3605TIP3    H210780   3.453   3.760   1.717  0.1063 -0.6898  0.2041
 3606TIP3   OH210781   1.413   5.157   1.828  0.0954  0.0042 -0.1681
 3606TIP3    H110782   1.347   5.094   1.800  0.2451  0.0501 -0.6254
 3606TIP3    H210783   1.393   5.237   1.778  0.1118  0.2164  0.1604
 3607TIP3   OH210784   2.911   5.931   4.508 -0.0387  0.5920  0.1253
 3607TIP3    H110785   2.830   5.880   4.516 -0.8963  1.8125 -0.5459
 3607TIP3    H210786   2.898   6.006   4.565  0.3565  1.1337 -0.4915
 3608TIP3   OH210787   6.962   6.121   2.307 -0.1813 -0.0271 -0.2307
 3608TIP3    H110788   6.883   6.072   2.330 -0.5277  0.2594 -0.7828
 3608TIP3    H210789   6.932   6.187   2.244  0.1836  1.2704  0.9224
 3609TIP3   OH210790   3.325   6.095   0.350  0.4671 -0.3006  0.4885
 3609TIP3    H110791   3.278   6.149   0.413  1.9095  0.9579  0.5418
 3609TIP3    H210792   3.384   6.041   0.403  2.1129  1.1819  0.2664
 3610TIP3   OH210793   5.628   2.453   3.617  0.1394 -0.4039  0.1713
 3610TIP3    H110794   5.695   2.467   3.684  1.7357 -3.7475 -0.5382
 3610TIP3    H210795   5.552   2.420   3.666 -0.1389  0.8631  0.6628
 3611TIP3   OH210796   1.121   4.002   4.227  0.8260  0.0973 -0.1590
 3611TIP3    H110797   1.043   3.978   4.178 -0.3787 -0.6937  2.0187
 3611TIP3    H210798   1.192   3.956   4.183 -0.4297 -1.8181 -0.2917
 3612TIP3   OH210799   1.730   0.197   4.375  0.4995  0.4824 -0.4317
 3612TIP3    H110800   1.753   0.155   4.292 -1.8845  3.2830 -2.7534
 3612TIP3    H210801   1.638   0.175   4.389 -0.2136  2.9776 -0.6320
 3613TIP3   OH210802   4.167   1.850   4.263 -0.1267  0.3769 -0.1113
 3613TIP3    H110803   4.076   1.837   4.288  0.0576 -0.7377  0.0020
 3613TIP3    H210804   4.217   1.796   4.324  0.5848  0.6140 -0.4717
 3614TIP3   OH210805   2.761   1.634   2.684  0.5230  0.4887  0.2612
 3614TIP3    H110806   2.697   1.653   2.615 -0.2155 -1.7818  0.2026
 3614TIP3    H210807   2.846   1.639   2.640  0.2407  1.5691 -0.1718
 3615TIP3   OH210808   4.662   4.625   3.470  0.3406 -0.0999 -0.0417
 3615TIP3    H110809   4.649   4.685   3.397  0.8161  1.5749  1.1728
 3615TIP3    H210810   4.590   4.562   3.463  0.1740  0.2337 -1.7158
 3616TIP3   OH210811   6.831   6.280   3.570  0.0200 -0.1026  0.2413
 3616TIP3    H110812   6.756   6.306   3.624 -1.1487 -1.0361 -0.8712
 3616TIP3    H210813   6.902   6.339   3.597 -1.1535  0.9199  1.1943
 3617TIP3   OH210814   6.789   6.695   2.119 -0.1033 -0.0737 -0.0628
 3617TIP3    H110815   6.790   6.789   2.138 -0.2450 -0.2014  0.6295
 3617TIP3    H210816   6.810   6.688   2.026 -0.1394  0.6463 -0.1278
 3618TIP3   OH210817   6.700   5.453   4.827 -0.3675  0.1109 -0.5917
 3618TIP3    H110818   6.753   5.494   4.759 -0.8613  0.1353 -0.9689
 3618TIP3    H210819   6.670   5.525   4.882  1.4461 -0.0507  0.7080
 3619TIP3   OH210820   6.470   0.702   2.256  0.1412 -0.3884 -0.6546
 3619TIP3    H110821   6.440   0.788   2.284  0.6053 -1.1682  2.6362
 3619TIP3    H210822   6.390   0.651   2.243 -0.2178  0.7533 -4.0194
 3620TIP3   OH210823   1.290   6.727   3.079  0.0956  0.3542 -0.0486
 3620TIP3    H110824   1.205   6.705   3.039 -0.2181  0.2327  0.6710
 3620TIP3    H210825   1.267   6.758   3.167  0.6504  1.9830 -0.4435
 3621TIP3   OH210826   5.731   4.544   4.343  0.4393  0.7418  0.1121
 3621TIP3    H110827   5.741   4.597   4.422 -0.3714  2.1073 -0.6532
 3621TIP3    H210828   5.816   4.503   4.330  0.1073 -1.0564  2.7014
 3622TIP3   OH210829   4.445   1.683   5.449  0.2542 -0.5198 -0.1499
 3622TIP3    H110830   4.530   1.639   5.442  0.8615  0.8900 -4.4157
 3622TIP3    H210831   4.466   1.775   5.460 -0.7678 -0.2822 -0.0891
 3623TIP3   OH210832   6.840   2.885   1.754  0.3260  0.5611  0.2985
 3623TIP3    H110833   6.765   2.919   1.705 -0.5028  0.9960  1.8024
 3623TIP3    H210834   6.890   2.835   1.689 -1.8983 -0.7990 -0.4933
 3624TIP3   OH210835   2.929   1.589   0.997 -0.5924 -0.3280  0.1156
 3624TIP3    H110836   2.889   1.661   1.047  0.5451  0.1121  0.4309
 3624TIP3    H210837   3.020   1.589   1.025 -0.5472 -1.8619  0.0610
 3625TIP3   OH210838   0.810   0.641   3.004  0.0500  0.4004 -0.7347
 3625TIP3    H110839   0.787   0.548   3.013  0.0261  0.5377  0.9713
 3625TIP3    H210840   0.791   0.662   2.913 -0.5710 -1.1079 -0.9788
 3626TIP3   OH210841   1.145   6.209   1.801  0.0429 -0.2884  0.2522
 3626TIP3    H110842   1.113   6.283   1.852 -1.9175 -0.7150 -0.2690
 3626TIP3    H210843   1.210   6.247   1.742 -0.0155  0.7741  0.8521
 3627TIP3   OH210844   1.584   6.335   2.418  0.0167  0.4192 -0.2495
 3627TIP3    H110845   1.672   6.345   2.382  0.3030 -1.0579  0.0109
 3627TIP3    H210846   1.597   6.325   2.512 -0.3412 -0.8667 -0.3274
 3628TIP3   OH210847   0.672   4.494   4.706  0.1824  0.1083 -0.3515
 3628TIP3    H110848   0.699   4.456   4.789  1.3498 -0.2251 -0.8652
 3628TIP3    H210849   0.576   4.488   4.706 -0.1053  2.7115  2.1857
 3629TIP3   OH210850   2.879   1.209   0.461  0.3447  0.1795 -0.1245
 3629TIP3    H110851   2.900   1.180   0.550  0.4446  0.3111 -0.1042
 3629TIP3    H210852   2.929   1.151   0.404  0.1939  0.0245 -0.0967
 3630TIP3   OH210853   5.619   2.383   4.286  0.3231 -0.2518  0.1797
 3630TIP3    H110854   5.548   2.350   4.231  0.6865 -0.5745 -0.0938
 3630TIP3    H210855   5.680   2.424   4.226  0.6718 -0.5193  0.3431
 3631TIP3   OH210856   0.416   2.831   5.470  0.4483 -0.2886 -0.3715
 3631TIP3    H110857   0.464   2.777   5.408  0.1967  1.2158 -1.9510
 3631TIP3    H210858   0.324   2.820   5.445  0.1507 -1.1367  0.9812
 3632TIP3   OH210859   6.242   5.975   1.452 -0.0116  0.7219  0.0528
 3632TIP3    H110860   6.178   5.912   1.485 -0.2403  2.4090  3.2500
 3632TIP3    H210861   6.317   5.922   1.425 -1.5406 -1.0856 -0.8452
 3633TIP3   OH210862   0.675   4.231   2.252 -0.0247 -0.2091  0.2656
 3633TIP3    H110863   0.700   4.287   2.179  0.4490  0.6827  1.0779
 3633TIP3    H210864   0.724   4.267   2.327 -1.7631 -0.0208  1.3761
 3634TIP3   OH210865   2.900   5.856   5.520 -0.3839 -0.8831 -0.0250
 3634TIP3    H110866   2.869   5.814   5.439  0.5909 -2.1951  0.2431
 3634TIP3    H210867   2.821   5.894   5.559 -0.9610 -0.7148 -1.3002
 3635TIP3   OH210868   4.475   5.794   3.024 -0.4445  0.2018  0.2922
 3635TIP3    H110869   4.388   5.832   3.031 -1.3927 -1.8011 -0.0715
 3635TIP3    H210870   4.478   5.727   3.092  0.3819 -0.5616 -0.4733
 3636TIP3   OH210871   5.039   4.076   3.696 -0.1498  0.1999 -0.4019
 3636TIP3    H110872   5.087   3.998   3.725 -1.2503  0.6553  3.1417
 3636TIP3    H210873   5.101   4.148   3.709  0.4857  0.1160 -2.6136
 3637TIP3   OH210874   6.266   6.043   2.486  0.0355  0.2388  0.0514
 3637TIP3    H110875   6.174   6.053   2.511  0.0902 -0.6603  0.6696
 3637TIP3    H210876   6.289   6.127   2.447 -0.4108  1.3290  1.9798
 3638TIP3   OH210877   2.161   2.935   5.491  0.3590 -0.7239 -0.2915
 3638TIP3    H110878   2.237   2.914   5.547 -0.3347  0.2166  1.0546
 3638TIP3    H210879   2.085   2.917   5.547 -0.3385  1.1153 -0.6032
 3639TIP3   OH210880   6.804   3.936   3.403  0.7840  0.4997 -0.3159
 3639TIP3    H110881   6.859   3.905   3.475 -1.2375 -0.2415  1.0074
 3639TIP3    H210882   6.716   3.941   3.441 -0.1309  1.3415 -2.4059
 3640TIP3   OH210883   2.110   0.120   1.640 -0.6933 -0.5270  0.4527
 3640TIP3    H110884   2.129   0.091   1.551 -1.3077  0.8641 -0.1519
 3640TIP3    H210885   2.185   0.089   1.691  0.8416  0.6657 -0.9796
 3641TIP3   OH210886   1.046   4.819   0.566  0.1428 -0.2666 -0.4598
 3641TIP3    H110887   1.095   4.821   0.648  0.5501  0.0028 -0.7102
 3641TIP3    H210888   0.954   4.822   0.593  0.2089 -1.9539  0.0630
 3642TIP3   OH210889   4.664   1.669   1.175  0.0191  0.4344  0.2812
 3642TIP3    H110890   4.594   1.656   1.110  2.0969 -2.1282 -1.6878
 3642TIP3    H210891   4.737   1.704   1.124  1.6482 -1.4547  1.1832
 3643TIP3   OH210892   4.551   5.424   2.278  0.6037  0.2827 -0.0821
 3643TIP3    H110893   4.645   5.407   2.270  0.7646 -0.0504  1.9430
 3643TIP3    H210894   4.514   5.339   2.302  0.5695  1.3125  4.2264
 3644TIP3   OH210895   4.863   3.552   4.872  0.2800 -0.5907 -0.2538
 3644TIP3    H110896   4.910   3.555   4.955  0.4185  0.1199 -0.3531
 3644TIP3    H210897   4.771   3.543   4.896  0.3904 -1.1471 -0.0411
 3645TIP3   OH210898   2.906   4.039   3.078  0.4473  0.8767  0.3473
 3645TIP3    H110899   2.881   4.037   2.986 -2.4423  0.2480  1.0658
 3645TIP3    H210900   2.928   3.948   3.099  1.5645  1.0987  0.1987
 3646TIP3   OH210901   0.784   0.717   5.763 -0.0240  0.4290 -0.0773
 3646TIP3    H110902   0.846   0.742   5.695 -0.4463 -1.3563 -1.2004
 3646TIP3    H210903   0.708   0.684   5.716  0.9887 -4.1976  1.0396
 3647TIP3   OH210904   0.284   4.610   1.212 -0.0219 -0.0357 -0.4963
 3647TIP3    H110905   0.267   4.693   1.167 -0.9118 -1.4603 -3.0420
 3647TIP3    H210906   0.198   4.582   1.244 -0.0678 -0.7709 -1.2235
 3648TIP3   OH210907   6.765   5.244   0.937  0.0119 -0.4223  0.8262
 3648TIP3    H110908   6.776   5.338   0.949 -1.0427 -0.4610  2.3125
 3648TIP3    H210909   6.708   5.237   0.860 -0.6139  0.1938  1.2202
 3649TIP3   OH210910   0.151   3.222   2.261 -0.1887  0.8102 -0.3477
 3649TIP3    H110911   0.168   3.278   2.336 -3.3842  1.6056 -0.0790
 3649TIP3    H210912   0.134   3.283   2.189 -2.6247  0.2396 -0.3169
 3650TIP3   OH210913   0.766   5.515   1.064 -0.1305  0.3072 -0.1746
 3650TIP3    H110914   0.808   5.531   1.149  0.3647 -1.0734 -0.1293
 3650TIP3    H210915   0.756   5.602   1.025 -1.7355  1.1528  1.9179
 3651TIP3   OH210916   5.525   2.779   1.254  0.6952 -0.3484  0.8040
 3651TIP3    H110917   5.536   2.871   1.278 -0.1325 -0.1069  0.3032
 3651TIP3    H210918   5.579   2.767   1.176 -1.1241  0.3827 -0.6247
 3652TIP3   OH210919   6.781   5.235   5.549 -0.0422 -0.3655  0.1415
 3652TIP3    H110920   6.706   5.206   5.497  1.2088 -2.0411 -0.8326
 3652TIP3    H210921   6.808   5.317   5.508 -0.5115 -0.4630 -0.3826
 3653TIP3   OH210922   5.114   3.771   2.197 -0.3259  0.0348 -0.4547
 3653TIP3    H110923   5.204   3.796   2.178 -0.2264 -0.0067 -0.0413
 3653TIP3    H210924   5.115   3.676   2.200 -0.0586  0.0727  1.1032
 3654TIP3   OH210925   0.828   4.213   0.443  0.2918 -0.1561 -0.4881
 3654TIP3    H110926   0.820   4.188   0.536  2.1267  1.0943  0.0549
 3654TIP3    H210927   0.860   4.303   0.446 -2.0551  0.8309 -2.3701
 3655TIP3   OH210928   0.231   6.172   3.328  0.2111  0.1232 -0.7041
 3655TIP3    H110929   0.220   6.168   3.423  1.0155 -0.8859 -0.6362
 3655TIP3    H210930   0.183   6.096   3.295  0.4051  0.1501 -1.0502
 3656TIP3   OH210931   0.568   5.156   3.589  0.2898 -0.0851  0.1603
 3656TIP3    H110932   0.537   5.247   3.586  0.2086 -0.0987  0.6114
 3656TIP3    H210933   0.592   5.142   3.680 -1.1202 -0.9929  0.4232
 3657TIP3   OH210934   5.103   4.647   2.984 -0.0800 -0.3760  0.1190
 3657TIP3    H110935   5.135   4.684   2.902  0.2450 -1.3685 -0.2204
 3657TIP3    H210936   5.141   4.702   3.052  0.6920 -0.3129 -0.3546
 3658TIP3   OH210937   1.414   1.095   3.517  0.1721 -0.3276 -0.2826
 3658TIP3    H110938   1.429   1.186   3.493 -1.3223  0.0533  0.1063
 3658TIP3    H210939   1.465   1.083   3.598 -0.1998  0.3941  0.0710
 3659TIP3   OH210940   6.595   2.583   0.074 -0.0473 -0.2932  0.3100
 3659TIP3    H110941   6.581   2.556  -0.017 -0.8580 -0.7981  0.5760
 3659TIP3    H210942   6.507   2.595   0.110  0.2583  1.8532  0.4747
 3660TIP3   OH210943   3.186   0.390   2.523 -0.2491  0.0397 -0.1122
 3660TIP3    H110944   3.095   0.418   2.528 -0.1018  0.7011 -0.8735
 3660TIP3    H210945   3.207   0.394   2.430  0.6531  0.2067  0.0880
 3661TIP3   OH210946   3.215   0.976   3.268 -0.1977  0.8166  0.3590
 3661TIP3    H110947   3.161   0.962   3.345  1.3623 -0.1898  1.3264
 3661TIP3    H210948   3.290   1.025   3.300  0.8619 -0.2928 -0.3193
 3662TIP3   OH210949   6.592   2.511   4.052  0.0658 -0.6004 -0.0868
 3662TIP3    H110950   6.638   2.590   4.023  0.4289 -1.1148 -0.9562
 3662TIP3    H210951   6.517   2.503   3.994 -0.8102 -0.1018  0.9436
 3663TIP3   OH210952   0.731   0.241   4.013  0.3798  0.0995 -0.7384
 3663TIP3    H110953   0.676   0.308   4.052 -0.8933 -0.1218 -2.0631
 3663TIP3    H210954   0.720   0.164   4.069  0.2772  0.4094 -0.3307
 3664TIP3   OH210955   0.002   4.323   5.266  0.4638 -0.3370 -0.0419
 3664TIP3    H110956  -0.014   4.276   5.184 -0.0764  0.5653 -0.4674
 3664TIP3    H210957   0.062   4.394   5.242  1.5573 -0.9977  0.6646
 3665TIP3   OH210958   4.445   2.217   2.814 -0.3242  0.0861 -0.2281
 3665TIP3    H110959   4.370   2.262   2.851  0.4905  2.1954 -0.9517
 3665TIP3    H210960   4.511   2.217   2.884 -0.7031 -1.0869  0.1558
 3666TIP3   OH210961   4.884   5.128   4.981 -1.1000  0.7852 -0.2239
 3666TIP3    H110962   4.797   5.148   4.945 -0.3891 -1.5043 -3.8286
 3666TIP3    H210963   4.944   5.181   4.928 -0.1607  1.8371  1.7768
 3667TIP3   OH210964   6.398   2.508   1.844 -0.5379 -0.1841 -0.2619
 3667TIP3    H110965   6.473   2.482   1.791  0.9506  1.4204  0.9287
 3667TIP3    H210966   6.326   2.516   1.782  0.8002  0.3137 -1.8242
 3668TIP3   OH210967   2.381   4.040   5.113 -0.0054 -0.0706  0.2768
 3668TIP3    H110968   2.412   4.091   5.188 -1.1723  1.3500 -0.1607
 3668TIP3    H210969   2.430   4.073   5.038 -0.0898 -0.2504  0.1414
 3669TIP3   OH210970   4.157   4.436   3.639  0.1238  0.1174 -0.0472
 3669TIP3    H110971   4.150   4.479   3.724  1.3203 -2.2261  1.3558
 3669TIP3    H210972   4.214   4.493   3.588 -0.5300  1.5149  0.7200
 3670TIP3   OH210973   2.266   3.094   3.734 -0.0735 -0.2537  0.2022
 3670TIP3    H110974   2.196   3.121   3.675 -1.4118 -2.0337  0.8891
 3670TIP3    H210975   2.241   3.130   3.820  0.1339 -0.4478  0.3465
 3671TIP3   OH210976   6.023   1.131   0.603  0.5644  0.2007  0.3102
 3671TIP3    H110977   6.083   1.135   0.678  2.2276  1.6591 -1.0177
 3671TIP3    H210978   6.074   1.165   0.530 -1.2030 -0.6254 -1.3913
 3672TIP3   OH210979   5.366   4.072   0.387  0.2819  0.2574 -0.3847
 3672TIP3    H110980   5.458   4.070   0.411  0.5516 -1.8753 -1.3161
 3672TIP3    H210981   5.331   4.152   0.428  2.6553  1.4601 -0.5764
 3673TIP3   OH210982   5.171   5.989   5.056 -0.3829 -0.0568 -0.3886
 3673TIP3    H110983   5.122   5.997   4.974  1.4660 -0.8730 -1.6404
 3673TIP3    H210984   5.262   5.978   5.028  0.0014 -3.2681  1.6552
 3674TIP3   OH210985   2.151   6.114   5.087 -0.0635  0.0084  1.1623
 3674TIP3    H110986   2.221   6.152   5.035 -1.1692  1.6432  0.7951
 3674TIP3    H210987   2.104   6.057   5.025  0.9925 -1.2426  1.4575
 3675TIP3   OH210988   0.967   0.364   3.924  0.3209 -0.7262 -0.1529
 3675TIP3    H110989   0.965   0.441   3.981  1.6472  0.3973 -1.5368
 3675TIP3    H210990   0.887   0.317   3.945 -1.4891  1.9707 -0.4862
 3676TIP3   OH210991   5.863   3.316   4.067 -0.5017 -0.2872 -0.1076
 3676TIP3    H110992   5.939   3.362   4.033  0.6269 -1.3751  0.8764
 3676TIP3    H210993   5.788   3.362   4.028  0.6312  0.8799 -0.9883
 3677TIP3   OH210994   0.418   0.124   4.217  0.7562  0.1941 -0.0671
 3677TIP3    H110995   0.379   0.043   4.185  1.2035  0.3729 -1.1352
 3677TIP3    H210996   0.408   0.121   4.312 -1.2658 -0.0512 -0.2553
 3678TIP3   OH210997   1.184   3.374   0.018 -0.0661 -0.1605  0.3833
 3678TIP3    H110998   1.154   3.288  -0.011  0.0754 -0.4330  1.0137
 3678TIP3    H210999   1.104   3.423   0.037 -0.1581 -0.7805  1.7651
 3679TIP3   OH211000   4.754   5.010   4.565 -0.5942  0.5335 -0.2504
 3679TIP3    H111001   4.720   5.043   4.482 -2.7018 -1.6677 -0.3720
 3679TIP3    H211002   4.679   4.966   4.605  1.1126 -0.9140  1.5040
 3680TIP3   OH211003   0.304   0.868   5.601 -0.4824  0.0232 -0.0248
 3680TIP3    H111004   0.359   0.806   5.647 -1.0671  0.0076  0.6624
 3680TIP3    H211005   0.323   0.953   5.642 -0.5187  0.1174 -0.1996
 3681TIP3   OH211006   2.567   5.054   1.075  0.5114 -0.2286  0.0603
 3681TIP3    H111007   2.612   4.969   1.070  2.4662  0.8405 -2.7967
 3681TIP3    H211008   2.599   5.093   1.156  2.8715 -0.5756 -0.6283
 3682TIP3   OH211009   2.728   1.447   1.130 -0.3952 -0.1373  0.2175
 3682TIP3    H111010   2.808   1.479   1.089  0.5059 -0.7509  1.4739
 3682TIP3    H211011   2.738   1.467   1.223 -1.1145 -1.3870  0.5916
 3683TIP3   OH211012   5.428   5.870   2.847  0.8448  0.3101  0.5381
 3683TIP3    H111013   5.348   5.830   2.882  0.3063  0.5868 -0.3516
 3683TIP3    H211014   5.499   5.828   2.897  0.1824 -0.2904  1.0044
 3684TIP3   OH211015   4.984   2.249   2.276  0.1205  0.5744  0.1736
 3684TIP3    H111016   5.063   2.204   2.307  0.1028  0.3773 -0.0688
 3684TIP3    H211017   5.015   2.304   2.204 -0.1341 -0.2583 -0.5835
 3685TIP3   OH211018   0.002   0.841   3.552  0.1192 -0.1428  0.4254
 3685TIP3    H111019   0.094   0.817   3.564  0.3872  0.5244 -0.2328
 3685TIP3    H211020  -0.009   0.920   3.605 -0.5244 -1.1453  1.8524
 3686TIP3   OH211021   3.840   2.632   5.291 -0.2427  0.7009  0.2573
 3686TIP3    H111022   3.794   2.707   5.253  0.9492  0.9842 -0.6878
 3686TIP3    H211023   3.924   2.667   5.319  0.6841 -0.4502 -0.9977
 3687TIP3   OH211024   0.321   5.651   4.221 -0.1996 -0.0667  0.4519
 3687TIP3    H111025   0.295   5.564   4.192 -0.8908  0.1099  0.5360
 3687TIP3    H211026   0.251   5.709   4.190  0.0568  0.4039  0.7383
 3688TIP3   OH211027   2.325   1.443   5.241 -0.3176  0.5956  0.1406
 3688TIP3    H111028   2.386   1.512   5.214 -1.8828  1.8793 -0.2570
 3688TIP3    H211029   2.326   1.382   5.167  0.4304  0.6287  0.1113
 3689TIP3   OH211030   5.726   6.104   3.002 -0.1477  0.1962 -0.4514
 3689TIP3    H111031   5.757   6.108   2.912 -0.9479 -0.9161 -0.7885
 3689TIP3    H211032   5.761   6.184   3.042  1.4163  0.0067 -1.3412
 3690TIP3   OH211033   2.369   6.620   3.561  0.1586 -0.3796  0.0782
 3690TIP3    H111034   2.411   6.545   3.603  2.1760 -0.1649 -1.3742
 3690TIP3    H211035   2.295   6.582   3.513  0.1653 -1.1807  0.6829
 3691TIP3   OH211036   4.505   1.753   5.173 -0.1551 -0.2233 -0.4471
 3691TIP3    H111037   4.464   1.746   5.087  0.3925  1.0777 -0.8351
 3691TIP3    H211038   4.498   1.665   5.210  0.5282 -1.0802 -2.2343
 3692TIP3   OH211039   2.695   5.647   0.550  0.2024 -0.3286 -0.0726
 3692TIP3    H111040   2.652   5.592   0.616  2.9795 -1.2823  1.0935
 3692TIP3    H211041   2.623   5.680   0.496 -2.0097 -1.2361  2.1097
 3693TIP3   OH211042   2.736  -0.021   2.421 -0.5193 -0.3126 -0.5639
 3693TIP3    H111043   2.659   0.034   2.436 -0.1370  0.1720 -0.3527
 3693TIP3    H211044   2.810   0.034   2.447 -0.2137 -1.4798  1.1693
 3694TIP3   OH211045   2.036   0.475   1.082 -0.4716  0.2902 -0.1106
 3694TIP3    H111046   2.080   0.505   1.161  1.3622  0.2669 -1.0770
 3694TIP3    H211047   2.019   0.382   1.097  0.1908  0.2051  0.1290
 3695TIP3   OH211048   5.685   2.522   0.317  0.0632  0.0344  0.6108
 3695TIP3    H111049   5.683   2.573   0.236 -0.4416 -1.1068 -0.1211
 3695TIP3    H211050   5.763   2.552   0.363 -0.0679  1.2488  0.0676
 3696TIP3   OH211051   5.301   0.863   5.288  0.4686  0.1876 -0.1085
 3696TIP3    H111052   5.227   0.834   5.236  2.2259 -1.1510 -2.0239
 3696TIP3    H211053   5.349   0.923   5.231  1.8458 -0.4133  0.3548
 3697TIP3   OH211054   1.531   2.551   3.612 -0.1422 -0.1301  0.6639
 3697TIP3    H111055   1.521   2.635   3.567  0.5980 -0.8078 -0.8237
 3697TIP3    H211056   1.541   2.575   3.704 -1.2956  1.3234  0.4534
 3698TIP3   OH211057   2.941   6.620   0.868  0.1828 -0.6083  0.1238
 3698TIP3    H111058   2.969   6.598   0.957  1.9725  1.2781  0.1003
 3698TIP3    H211059   2.897   6.704   0.877  0.8270 -0.1507 -0.8192
 3699TIP3   OH211060   3.894   6.234   4.547  0.2061 -0.5411 -0.2669
 3699TIP3    H111061   3.818   6.291   4.553  1.2337  0.8716 -0.2241
 3699TIP3    H211062   3.924   6.224   4.637  1.7677  1.3281 -0.5286
 3700TIP3   OH211063   7.063   1.826   3.549 -0.2587  0.7058  0.7694
 3700TIP3    H111064   7.047   1.885   3.623 -0.4250 -0.0588  1.3516
 3700TIP3    H211065   7.150   1.790   3.565 -0.0736  0.9304  0.3086
 3701TIP3   OH211066   6.765   4.948   2.368  0.8148 -0.5534 -0.3232
 3701TIP3    H111067   6.726   4.868   2.401 -0.6070  0.5698  0.8438
 3701TIP3    H211068   6.699   4.986   2.310  0.8703  0.4724  0.2508
 3702TIP3   OH211069   3.091   3.715   4.502  0.6591 -0.3337  0.2266
 3702TIP3    H111070   3.009   3.763   4.495  0.8108 -0.2262 -1.0460
 3702TIP3    H211071   3.079   3.639   4.445  1.2973 -0.5195  0.3284
 3703TIP3   OH211072   1.160   6.745   0.596 -0.5558  0.5795  0.6342
 3703TIP3    H111073   1.203   6.663   0.617 -1.1459  0.2500  0.5636
 3703TIP3    H211074   1.232   6.806   0.579 -0.1244 -0.3904 -1.1688
 3704TIP3   OH211075   2.731   1.255   4.767  0.1177  0.4005  0.3494
 3704TIP3    H111076   2.732   1.159   4.773 -0.4747  0.3485 -0.3007
 3704TIP3    H211077   2.728   1.284   4.858 -0.9923 -0.2309  0.5356
 3705TIP3   OH211078   5.222   5.561   5.713  0.1122  0.4836  0.9738
 3705TIP3    H111079   5.264   5.609   5.641 -0.1328  1.3767  1.4161
 3705TIP3    H211080   5.247   5.609   5.791  1.1490 -1.0116  1.6060
 3706TIP3   OH211081   2.846   4.258   1.944  0.3717  0.1852  0.0712
 3706TIP3    H111082   2.830   4.182   2.000  2.0196 -1.3572 -1.4162
 3706TIP3    H211083   2.760   4.278   1.907  0.1040 -1.9481 -0.6295
 3707TIP3   OH211084   3.597   3.938   2.696  0.6069  0.0986 -0.1815
 3707TIP3    H111085   3.675   3.894   2.731  0.8607  0.5263 -0.2065
 3707TIP3    H211086   3.608   4.029   2.721 -0.9421 -0.1775  1.7233
 3708TIP3   OH211087   6.149   1.385   1.462  0.0111 -0.0005 -0.2505
 3708TIP3    H111088   6.070   1.365   1.413 -1.4173  1.8659  1.1299
 3708TIP3    H211089   6.213   1.411   1.396 -1.6060  1.7061 -1.2307
 3709TIP3   OH211090   3.955   2.826   1.187  0.5688 -0.4611  0.2619
 3709TIP3    H111091   3.955   2.819   1.092  1.3574 -0.4724  0.2550
 3709TIP3    H211092   3.898   2.900   1.206  0.6010 -0.3033 -0.2348
 3710TIP3   OH211093   0.345   2.434   4.027 -0.0062 -0.1971 -0.3315
 3710TIP3    H111094   0.359   2.499   3.958  0.0864  0.6056  0.4316
 3710TIP3    H211095   0.368   2.479   4.108 -2.0461 -0.4726  0.4543
 3711TIP3   OH211096   0.658   0.863   0.313 -0.6175 -0.5757  0.0825
 3711TIP3    H111097   0.609   0.793   0.269  1.5183 -2.0829 -0.0546
 3711TIP3    H211098   0.734   0.878   0.257  1.2940 -1.3464  2.3162
 3712TIP3   OH211099   2.264   3.966   3.658 -0.3034  0.3101 -0.1300
 3712TIP3    H111100   2.235   4.056   3.674 -0.0893  0.3630 -0.0420
 3712TIP3    H211101   2.190   3.925   3.613 -1.1485  0.0075  1.4496
 3713TIP3   OH211102   3.899   4.115   2.272  0.7963  0.0304 -0.5287
 3713TIP3    H111103   3.866   4.179   2.209  0.2511 -0.7081 -0.9944
 3713TIP3    H211104   3.826   4.056   2.288  1.7517 -1.4059 -1.2764
 3714TIP3   OH211105   3.530   4.221   3.465  0.6439 -0.3709 -0.0128
 3714TIP3    H111106   3.612   4.210   3.418  0.2635  0.5726 -0.9182
 3714TIP3    H211107   3.552   4.275   3.540  0.7513  0.3453 -0.5560
 3715TIP3   OH211108   1.143   2.055   1.260  0.1288 -0.3032 -0.1698
 3715TIP3    H111109   1.067   2.099   1.298  0.3098 -1.7240  1.9793
 3715TIP3    H211110   1.204   2.126   1.240 -0.0090  0.5551  2.1987
 3716TIP3   OH211111   2.552   2.819   5.055 -0.2588  0.3347  0.0446
 3716TIP3    H111112   2.479   2.881   5.045 -0.9145 -0.5752 -0.9566
 3716TIP3    H211113   2.510   2.735   5.072  0.5945 -0.0806  0.1546
 3717TIP3   OH211114   6.499   1.628   2.474 -0.1394 -0.0057 -0.1918
 3717TIP3    H111115   6.471   1.566   2.540  1.1810 -0.1528  0.2676
 3717TIP3    H211116   6.568   1.582   2.425  2.3553  1.6813  1.4479
 3718TIP3   OH211117   1.756   1.758   0.704  0.1044  0.3893  0.5226
 3718TIP3    H111118   1.795   1.793   0.624  2.6798 -1.5804  0.7987
 3718TIP3    H211119   1.751   1.664   0.689 -4.0158  0.3355  0.8691
 3719TIP3   OH211120   4.286   4.202   2.013  0.2734 -0.1862 -0.1490
 3719TIP3    H111121   4.363   4.217   1.959 -0.0838  0.9005 -0.3827
 3719TIP3    H211122   4.295   4.264   2.086 -0.6307  0.3482 -0.4683
 3720TIP3   OH211123   6.233   5.083   4.071 -0.1889 -0.0879 -0.4427
 3720TIP3    H111124   6.267   5.079   3.981 -0.8365  1.5042 -0.7832
 3720TIP3    H211125   6.187   5.167   4.076  1.5857  0.8606  2.0112
 3721TIP3   OH211126   1.124   3.089   1.567 -0.4391 -0.4133 -0.7575
 3721TIP3    H111127   1.110   3.181   1.547  3.1848  0.5401  0.2043
 3721TIP3    H211128   1.181   3.058   1.496  0.5585 -1.1112  0.3107
 3722TIP3   OH211129   3.312   5.385   4.837 -0.7393 -0.2270  0.0546
 3722TIP3    H111130   3.274   5.426   4.914 -0.8180 -0.9230  0.3912
 3722TIP3    H211131   3.355   5.457   4.790  0.0386  0.0747  1.1850
 3723TIP3   OH211132   0.657   6.824   4.742 -0.0700  0.5006  0.7443
 3723TIP3    H111133   0.693   6.785   4.821  0.1666  0.7371  0.7543
 3723TIP3    H211134   0.711   6.789   4.671  0.8204  1.5989  0.8445
 3724TIP3   OH211135   4.247   0.455   3.351  0.7008 -0.2795  0.0678
 3724TIP3    H111136   4.218   0.545   3.337 -0.6395 -0.2048  2.8270
 3724TIP3    H211137   4.204   0.405   3.281 -2.3527  0.5636  1.2090
 3725TIP3   OH211138   6.990   2.082   1.206 -0.4717  0.2846 -0.0553
 3725TIP3    H111139   7.057   2.019   1.230  0.3306  1.1125 -0.0623
 3725TIP3    H211140   6.957   2.051   1.122  0.0483 -0.0242 -0.1519
 3726TIP3   OH211141   0.431   3.831   3.616 -0.3040  0.4935  0.1480
 3726TIP3    H111142   0.399   3.817   3.705 -0.2117 -0.2119  0.0769
 3726TIP3    H211143   0.392   3.913   3.589 -1.1732  0.1932  0.4612
 3727TIP3   OH211144   6.983   2.051   1.566 -0.2433 -0.1855 -0.4332
 3727TIP3    H111145   6.898   2.094   1.572 -0.2746 -0.3039 -0.0073
 3727TIP3    H211146   6.966   1.971   1.516 -0.4219 -0.3153 -0.1644
 3728TIP3   OH211147   0.492   0.508   5.186 -0.1537  0.3945 -0.0726
 3728TIP3    H111148   0.439   0.432   5.210  0.6636  0.0251  0.6153
 3728TIP3    H211149   0.537   0.532   5.267  1.1658  0.3417 -0.7680
 3729TIP3   OH211150   6.558   3.791   2.649  0.0590 -0.4363  0.2510
 3729TIP3    H111151   6.576   3.771   2.741  0.0239 -1.2202  0.0941
 3729TIP3    H211152   6.627   3.746   2.601 -1.0991 -1.7853 -0.2281
 3730TIP3   OH211153   1.187   2.489   4.038  0.4871 -0.8774 -0.0411
 3730TIP3    H111154   1.249   2.553   4.074 -0.4611  0.4644 -0.7285
 3730TIP3    H211155   1.180   2.512   3.945 -1.3918 -0.6937  0.1139
 3731TIP3   OH211156   6.671   5.885   3.909  0.6725  0.9014 -0.1161
 3731TIP3    H111157   6.694   5.814   3.849 -0.5690  1.0893 -0.8481
 3731TIP3    H211158   6.600   5.849   3.962  2.5283  0.3091  2.1259
 3732TIP3   OH211159   6.739   5.076   1.567  0.0280  0.2873  0.1298
 3732TIP3    H111160   6.705   5.143   1.507  0.5625  1.4653  1.0880
 3732TIP3    H211161   6.803   5.123   1.621  1.1621 -1.2426  0.1770
 3733TIP3   OH211162   3.236   6.714   2.645 -0.0460 -1.0549  0.0821
 3733TIP3    H111163   3.280   6.640   2.688  2.0392  0.3958  0.5861
 3733TIP3    H211164   3.265   6.709   2.554 -0.1087 -0.9965  0.0592
 3734TIP3   OH211165   6.297   1.017   5.063  0.2907 -0.5460  0.0284
 3734TIP3    H111166   6.300   0.986   4.973 -2.7486  0.9245 -0.7104
 3734TIP3    H211167   6.242   0.952   5.108  3.0824 -2.1671  1.3486
 3735TIP3   OH211168   1.134   3.520   1.655 -0.0283  0.2096 -0.2990
 3735TIP3    H111169   1.185   3.484   1.727 -1.4099  0.1937  0.7125
 3735TIP3    H211170   1.126   3.449   1.592 -0.2796 -0.3571  0.3543
 3736TIP3   OH211171   1.355   1.149   4.205  0.7112  0.3023 -0.0229
 3736TIP3    H111172   1.281   1.123   4.260  0.0311  1.6055 -0.2909
 3736TIP3    H211173   1.425   1.170   4.267  0.7390 -0.5163  0.2421
 3737TIP3   OH211174   0.912   5.327   0.941  0.4779  0.2802 -0.1335
 3737TIP3    H111175   0.886   5.259   1.003 -1.2170  2.6131  1.9190
 3737TIP3    H211176   0.857   5.402   0.964  2.4318  2.4547 -2.0953
 3738TIP3   OH211177   1.293   5.917   3.797 -0.3067  0.1932 -0.2347
 3738TIP3    H111178   1.274   6.010   3.808  0.6032  0.6497 -2.1036
 3738TIP3    H211179   1.271   5.878   3.881 -1.0277  2.0398  0.4852
 3739TIP3   OH211180   4.344   5.960   2.425 -0.7266 -0.3650  0.0327
 3739TIP3    H111181   4.373   5.878   2.385 -0.5210  0.1369 -0.8662
 3739TIP3    H211182   4.409   6.025   2.398 -0.7258  0.0484  0.9724
 3740TIP3   OH211183   6.079   6.457   1.736  0.3816 -0.0018 -0.0394
 3740TIP3    H111184   6.106   6.365   1.734 -2.1378 -0.8061 -1.9848
 3740TIP3    H211185   5.989   6.455   1.767 -0.0496  1.7154 -1.0472
 3741TIP3   OH211186   6.735   6.548   0.580 -0.8486 -0.1075  0.9841
 3741TIP3    H111187   6.647   6.528   0.612 -0.3386 -1.3545  1.7032
 3741TIP3    H211188   6.791   6.538   0.657 -0.0266  0.2089  0.4362
 3742TIP3   OH211189   2.001   0.354   1.708 -0.6037 -0.2603 -0.1413
 3742TIP3    H111190   1.954   0.339   1.791  1.6570 -0.6676  1.1576
 3742TIP3    H211191   2.044   0.271   1.689  0.9253  0.5289 -0.3442
 3743TIP3   OH211192   2.150   3.493   3.141 -0.3234  0.3167 -0.3834
 3743TIP3    H111193   2.241   3.521   3.148 -0.7632  1.3698  3.3428
 3743TIP3    H211194   2.109   3.559   3.085  0.7543  1.1062 -0.2714
 3744TIP3   OH211195   6.549   4.522   3.678 -0.2739  0.2187  0.2020
 3744TIP3    H111196   6.462   4.484   3.693  0.1813 -0.4232  1.4351
 3744TIP3    H211197   6.532   4.610   3.646 -1.3828 -0.0576 -0.0125
 3745TIP3   OH211198   2.901   5.709   4.161  0.3990  0.4186 -0.0501
 3745TIP3    H111199   2.896   5.630   4.214  1.0405 -0.0170 -0.6228
 3745TIP3    H211200   2.812   5.720   4.127  0.3602 -0.2173 -0.1784
 3746TIP3   OH211201   3.386   5.314   2.605  0.1554 -0.0511 -0.2100
 3746TIP3    H111202   3.334   5.367   2.667 -1.0091  0.1663 -1.3227
 3746TIP3    H211203   3.360   5.347   2.519 -1.2147 -2.8991 -1.0259
 3747TIP3   OH211204   1.614   0.645   5.204 -0.5344  0.2939 -0.2584
 3747TIP3    H111205   1.624   0.639   5.109 -0.2245  0.8946 -0.2704
 3747TIP3    H211206   1.656   0.566   5.238 -1.9890 -0.7111 -0.6918
 3748TIP3   OH211207   3.916   0.143   2.386 -0.0667  0.1941  0.3622
 3748TIP3    H111208   3.916   0.073   2.320  0.2231  0.6935 -0.1765
 3748TIP3    H211209   3.824   0.151   2.413 -0.1283 -0.2704  0.2920
 3749TIP3   OH211210   3.659   4.598   2.431  0.0145  0.5552  0.5673
 3749TIP3    H111211   3.617   4.513   2.420  1.4363 -0.0595 -0.5317
 3749TIP3    H211212   3.615   4.638   2.506 -2.8637  0.2373 -0.8364
 3750TIP3   OH211213   4.925   4.505   2.758 -0.4359 -0.1137  0.1437
 3750TIP3    H111214   4.923   4.412   2.780  2.8150 -0.4193 -0.3838
 3750TIP3    H211215   4.957   4.549   2.837  1.0602  0.1145 -0.5580
 3751TIP3   OH211216   2.498   5.650   5.345 -0.9015  0.3772 -0.0047
 3751TIP3    H111217   2.423   5.707   5.362 -0.3095  0.8818  0.9838
 3751TIP3    H211218   2.564   5.707   5.307 -0.9433 -0.0318 -0.7076
 3752TIP3   OH211219   2.525   3.391   3.398  0.2047  0.1021 -0.0555
 3752TIP3    H111220   2.554   3.332   3.327  1.0831 -0.1655  0.5076
 3752TIP3    H211221   2.490   3.332   3.464 -1.0270  0.3823 -0.4308
 3753TIP3   OH211222   5.183   0.527   5.679  0.2928  0.0291  0.3607
 3753TIP3    H111223   5.236   0.474   5.620 -1.6847  0.0318 -1.5575
 3753TIP3    H211224   5.174   0.611   5.635 -0.1119  0.5119  1.3268
 3754TIP3   OH211225   2.120   5.785   1.265 -0.1252 -0.0768 -0.2985
 3754TIP3    H111226   2.184   5.783   1.194 -1.7721  1.6659 -1.9341
 3754TIP3    H211227   2.164   5.832   1.336  1.0507 -0.6112 -0.6488
 3755TIP3   OH211228   3.482   1.837   1.423  0.2499  0.3489 -0.6409
 3755TIP3    H111229   3.551   1.904   1.427  0.4209  0.1870 -0.8340
 3755TIP3    H211230   3.412   1.878   1.373  0.3608  0.3762 -0.7735
 3756TIP3   OH211231   7.106   4.836   4.638 -0.0729  0.3481 -0.2819
 3756TIP3    H111232   7.045   4.860   4.568 -1.1739 -1.2133  0.0894
 3756TIP3    H211233   7.052   4.786   4.700  1.9464 -2.8934 -0.9083
 3757TIP3   OH211234   3.304   1.694   2.165  0.2907  0.1670 -0.7709
 3757TIP3    H111235   3.263   1.617   2.124  0.9587  0.3079 -1.7340
 3757TIP3    H211236   3.397   1.672   2.170  0.7371  1.4884 -2.4628
 3758TIP3   OH211237   0.152   6.425   2.623  0.0978 -0.4635  0.5019
 3758TIP3    H111238   0.076   6.463   2.667  0.8579  0.6288  0.9080
 3758TIP3    H211239   0.142   6.331   2.638 -1.2372 -0.3577  0.4284
 3759TIP3   OH211240   2.885   4.207  -0.018  0.4314  0.4005 -0.2179
 3759TIP3    H111241   2.980   4.213  -0.023  0.5047 -1.1585 -1.2105
 3759TIP3    H211242   2.867   4.139   0.047 -0.0774  1.8138  1.1934
 3760TIP3   OH211243   2.429   1.552   1.614 -0.2388  0.7945 -0.3212
 3760TIP3    H111244   2.479   1.475   1.641  0.5119  0.8424 -1.4977
 3760TIP3    H211245   2.367   1.518   1.549 -0.9392  0.9464  0.2481
 3761TIP3   OH211246   6.987   4.603   1.502 -0.0680 -0.5302 -0.2313
 3761TIP3    H111247   6.982   4.682   1.555  0.5255 -0.6601  0.0265
 3761TIP3    H211248   7.023   4.633   1.418 -1.1582 -0.2962 -0.6445
 3762TIP3   OH211249   6.436   1.606   0.935  0.7959  0.7248 -0.0027
 3762TIP3    H111250   6.478   1.683   0.974  0.4034  0.5138  0.8646
 3762TIP3    H211251   6.398   1.638   0.854 -0.9624  1.9294  1.2128
 3763TIP3   OH211252   6.705   3.147   2.397 -0.2304 -0.0716 -0.1351
 3763TIP3    H111253   6.650   3.206   2.449 -1.0509  0.4829 -1.5609
 3763TIP3    H211254   6.749   3.092   2.461  1.6562  2.9610  1.3894
 3764TIP3   OH211255   0.967   3.650   5.464 -0.2301  0.6418 -0.2059
 3764TIP3    H111256   0.984   3.729   5.413 -1.3118  1.2502  0.3598
 3764TIP3    H211257   1.051   3.630   5.506 -0.3496  2.5048  1.0377
 3765TIP3   OH211258   2.394   2.353   5.318  0.1471 -0.0666 -0.3979
 3765TIP3    H111259   2.376   2.264   5.349  1.3693  0.4636  2.1083
 3765TIP3    H211260   2.347   2.410   5.379  0.8351  1.0442 -0.8540
 3766TIP3   OH211261   4.938   6.293   4.183 -0.3301  0.2651  0.1305
 3766TIP3    H111262   4.882   6.248   4.119  0.0532 -0.3100  0.1881
 3766TIP3    H211263   4.904   6.265   4.268  1.2387 -1.6996  0.1946
 3767TIP3   OH211264   2.739   3.555   5.836 -0.2221  0.6368 -0.3234
 3767TIP3    H111265   2.709   3.578   5.924 -0.4370  3.0093 -0.9399
 3767TIP3    H211266   2.660   3.527   5.790  0.1645 -2.3777  0.6631
 3768TIP3   OH211267   3.962   0.558   5.091  0.6341  0.1946  0.0687
 3768TIP3    H111268   3.963   0.627   5.025  1.4065  1.0507  0.9428
 3768TIP3    H211269   4.048   0.563   5.132 -0.4064  0.8350  2.3067
 3769TIP3   OH211270   2.609   0.307   3.599 -0.1915  0.3703  0.1349
 3769TIP3    H111271   2.522   0.268   3.587 -0.5018  0.6875  1.2405
 3769TIP3    H211272   2.605   0.349   3.685  1.7414 -1.4007  1.1554
 3770TIP3   OH211273   4.734   6.562   4.461  0.0399  0.1039 -0.1618
 3770TIP3    H111274   4.787   6.483   4.448 -0.2304  0.1155 -1.4560
 3770TIP3    H211275   4.699   6.554   4.549  0.7922 -0.7515  0.0695
 3771TIP3   OH211276   1.398   2.030   3.810 -0.2417  0.7916  0.3083
 3771TIP3    H111277   1.466   1.964   3.822 -1.5305 -0.3917  1.4077
 3771TIP3    H211278   1.359   2.008   3.726  0.7895  1.5577 -0.3922
 3772TIP3   OH211279   0.658   3.616   4.725  0.7930  0.2931  0.1221
 3772TIP3    H111280   0.707   3.610   4.808  0.2454  0.8841  0.4891
 3772TIP3    H211281   0.595   3.686   4.739 -2.1354 -2.2168  0.7041
 3773TIP3   OH211282   7.081   1.431   5.626 -0.1863  0.2337 -0.6242
 3773TIP3    H111283   7.167   1.402   5.595 -0.0275 -1.0849  0.9583
 3773TIP3    H211284   7.026   1.354   5.619 -0.5349  0.3203  0.9032
 3774TIP3   OH211285   0.446   0.350   1.013  0.5151 -0.5880  0.2122
 3774TIP3    H111286   0.517   0.377   1.072  1.8948 -0.4459 -1.4376
 3774TIP3    H211287   0.469   0.260   0.988 -0.3824 -0.8598  0.3376
 3775TIP3   OH211288   3.012   2.822   1.514 -0.6301  0.4975  0.3037
 3775TIP3    H111289   3.028   2.874   1.593  1.1134 -0.3314  0.5618
 3775TIP3    H211290   2.931   2.774   1.533 -1.0882  1.4869  0.9279
 3776TIP3   OH211291   2.518   0.165   1.704 -0.0418  0.4359 -0.3917
 3776TIP3    H111292   2.458   0.202   1.767 -1.3776 -1.9257 -0.1603
 3776TIP3    H211293   2.605   0.196   1.731 -0.9788  2.8597  0.0225
 3777TIP3   OH211294   3.353   4.375   5.039  0.0549  1.1093  0.3360
 3777TIP3    H111295   3.317   4.320   4.969  0.6699  0.0281  0.8408
 3777TIP3    H211296   3.322   4.334   5.120  1.6091  0.7074  0.7525
 3778TIP3   OH211297   6.938   5.435   5.405  0.5228  0.4651  0.5915
 3778TIP3    H111298   6.927   5.529   5.399 -3.2568  0.2281  1.3508
 3778TIP3    H211299   6.963   5.419   5.496 -1.9321  0.6421  1.3539
 3779TIP3   OH211300   5.531   6.036   2.432  0.8745  0.6913 -0.1212
 3779TIP3    H111301   5.493   6.030   2.344  0.0715  2.6353  0.0494
 3779TIP3    H211302   5.538   6.130   2.449 -0.0591  0.3918  2.3272
 3780TIP3   OH211303   1.169   5.422   5.392 -0.3748 -0.3234 -0.3503
 3780TIP3    H111304   1.254   5.439   5.351  0.0002  2.9622  1.5051
 3780TIP3    H211305   1.189   5.368   5.468  0.3660  1.7350  0.9790
 3781TIP3   OH211306   2.527   5.643   4.978  0.3109  0.2363  0.0036
 3781TIP3    H111307   2.614   5.671   5.007 -0.2947  0.5722  1.5993
 3781TIP3    H211308   2.466   5.698   5.027 -0.8162  0.8383 -1.9715
 3782TIP3   OH211309   6.765   5.152   3.891 -0.3543 -0.2142 -0.5027
 3782TIP3    H111310   6.815   5.120   3.816 -0.1917 -0.3181 -0.3500
 3782TIP3    H211311   6.794   5.098   3.965 -1.6505 -1.1794 -0.6634
 3783TIP3   OH211312   6.448   3.249   2.592 -0.2022  0.3120 -0.0709
 3783TIP3    H111313   6.478   3.164   2.626  0.2090  0.0544 -1.0332
 3783TIP3    H211314   6.498   3.314   2.640 -0.8614  0.0359  1.0137
 3784TIP3   OH211315   6.380   5.456   0.418  0.2144 -0.2962  0.2685
 3784TIP3    H111316   6.422   5.376   0.387  0.8082 -0.0258  0.3614
 3784TIP3    H211317   6.453   5.516   0.437 -0.2244  1.2387 -2.3654
 3785TIP3   OH211318   5.734   5.180   5.165  0.0101 -0.4642  0.6496
 3785TIP3    H111319   5.788   5.109   5.131 -0.5633 -1.4951  1.8150
 3785TIP3    H211320   5.663   5.190   5.102  0.7179 -0.1208 -0.1107
 3786TIP3   OH211321   1.817   6.510   0.611  0.0291  0.5497  0.1305
 3786TIP3    H111322   1.805   6.535   0.520  1.8941 -0.0615 -0.3249
 3786TIP3    H211323   1.905   6.473   0.615 -1.3641 -3.0486  1.4109
 3787TIP3   OH211324   1.296   6.459   3.488 -0.0075  0.0004 -0.1804
 3787TIP3    H111325   1.266   6.368   3.489  0.9284 -0.3379 -0.8574
 3787TIP3    H211326   1.383   6.454   3.449 -0.4265  1.3273 -1.3453
 3788TIP3   OH211327   1.108   4.407   0.360 -0.4308  0.0564  0.3617
 3788TIP3    H111328   1.163   4.486   0.355  1.1066 -1.0377 -0.5667
 3788TIP3    H211329   1.031   4.436   0.410  1.0190  1.6113  1.8322
 3789TIP3   OH211330   4.660   4.988   3.062  0.1725 -0.3712 -0.0261
 3789TIP3    H111331   4.662   4.922   2.993  0.8416  0.2336 -0.5970
 3789TIP3    H211332   4.700   4.945   3.138  0.6300 -0.6124 -0.4014
 3790TIP3   OH211333   6.691   2.627   3.515 -0.1574 -0.0414  0.1948
 3790TIP3    H111334   6.649   2.697   3.465  2.0258  0.2160 -1.4229
 3790TIP3    H211335   6.678   2.548   3.463  0.8183 -0.0626 -0.0372
 3791TIP3   OH211336   6.157   1.247   5.112  0.3529 -0.0097 -0.1789
 3791TIP3    H111337   6.217   1.176   5.090 -0.5814 -0.4658 -1.3596
 3791TIP3    H211338   6.098   1.253   5.037 -1.2970  0.2015  1.0711
 3792TIP3   OH211339   5.001   4.492   5.830 -0.3486  0.0683  0.9669
 3792TIP3    H111340   5.077   4.542   5.800 -0.9785  1.0587  0.9825
 3792TIP3    H211341   4.927   4.530   5.783 -0.7722 -1.3205  0.4423
 3793TIP3   OH211342   0.024   2.208   1.017  0.0003  0.0284 -0.0248
 3793TIP3    H111343  -0.068   2.185   1.031  0.0515  0.3743  0.9470
 3793TIP3    H211344   0.045   2.265   1.090  1.0330 -0.1688 -0.1634
 3794TIP3   OH211345   2.434   1.631   0.553 -0.2864 -0.1212  0.1331
 3794TIP3    H111346   2.464   1.722   0.555  1.2326 -0.5268 -1.5191
 3794TIP3    H211347   2.356   1.632   0.498 -0.5971  0.2478  0.5707
 3795TIP3   OH211348   1.608   1.772   2.493  0.2941 -0.0972 -0.0578
 3795TIP3    H111349   1.695   1.745   2.464 -0.1455 -0.9651 -0.6092
 3795TIP3    H211350   1.568   1.811   2.415 -0.3793 -1.1683 -0.2799
 3796TIP3   OH211351   4.975   3.487   1.166 -0.2005  0.1094 -0.7590
 3796TIP3    H111352   4.949   3.398   1.191  0.9723  0.1615  0.8171
 3796TIP3    H211353   5.029   3.474   1.087  2.6810 -1.0480  1.1972
 3797TIP3   OH211354   3.785   2.364   2.988 -0.1632  0.2063  0.3839
 3797TIP3    H111355   3.706   2.409   3.020 -1.0626 -0.4152 -0.8902
 3797TIP3    H211356   3.855   2.429   2.999 -0.3941  0.0806  3.4556
 3798TIP3   OH211357   3.640   2.679   2.371  0.7684  0.2268  0.2739
 3798TIP3    H111358   3.612   2.698   2.282  0.5004 -2.1796 -0.2054
 3798TIP3    H211359   3.714   2.739   2.386  1.1155  0.3570 -1.7318
 3799TIP3   OH211360   2.158   1.092   2.597  0.1586  0.4647  0.1528
 3799TIP3    H111361   2.241   1.126   2.566  1.0726 -1.4157  0.3898
 3799TIP3    H211362   2.123   1.042   2.522  0.8746 -1.4937  1.0729
 3800TIP3   OH211363   2.395   0.105   3.610  0.1919  0.2811 -0.1100
 3800TIP3    H111364   2.437   0.070   3.531 -0.0515  0.9847 -0.5662
 3800TIP3    H211365   2.443   0.065   3.682  0.2516 -0.5775 -0.6089
 3801TIP3   OH211366   7.132   1.468   1.410 -0.0038  0.3242  0.6864
 3801TIP3    H111367   7.210   1.435   1.455  0.8224  1.0671 -0.1749
 3801TIP3    H211368   7.137   1.432   1.322  0.0752  1.4465  0.2201
 3802TIP3   OH211369   0.364   4.935   1.380 -0.0029  0.0940  0.0416
 3802TIP3    H111370   0.392   4.849   1.347  1.3721  0.3399  0.5134
 3802TIP3    H211371   0.379   4.995   1.307 -0.3475  0.0460 -0.0701
 3803TIP3   OH211372   0.576   5.165   1.478  0.7467  0.3540  0.0854
 3803TIP3    H111373   0.580   5.259   1.461  1.4054  0.2245 -0.5027
 3803TIP3    H211374   0.665   5.140   1.503  0.6323 -0.1552  0.0025
 3804TIP3   OH211375   3.568   3.252   5.405  0.2635  0.0797 -0.2279
 3804TIP3    H111376   3.486   3.226   5.449  0.8394  0.0595  0.8680
 3804TIP3    H211377   3.606   3.318   5.463  2.7203 -2.3356  1.1774
 3805TIP3   OH211378   0.439   3.300   4.689 -0.2730 -0.5153  0.5361
 3805TIP3    H111379   0.475   3.377   4.645  0.3908 -0.7568  0.6407
 3805TIP3    H211380   0.439   3.323   4.782  0.4461 -0.8447  0.6198
 3806TIP3   OH211381   3.690   2.314   4.731 -0.3564  0.1208 -0.2871
 3806TIP3    H111382   3.613   2.327   4.787  1.0044 -2.2125  2.3925
 3806TIP3    H211383   3.672   2.232   4.685 -0.3949  0.7564 -1.4452
 3807TIP3   OH211384   4.553   1.841   1.379  0.4218  0.5649  0.1440
 3807TIP3    H111385   4.607   1.815   1.453  1.6769 -0.1980 -0.9927
 3807TIP3    H211386   4.599   1.808   1.302 -1.1845  0.7314 -0.9532
 3808TIP3   OH211387   4.234   0.092   3.950  0.4283  0.1867 -0.2100
 3808TIP3    H111388   4.222   0.043   3.868  0.0479 -0.5659  0.2845
 3808TIP3    H211389   4.261   0.026   4.013  0.8326  0.7839  0.2540
 3809TIP3   OH211390   2.892   4.245   1.570 -0.3304  0.1151 -0.5909
 3809TIP3    H111391   2.906   4.175   1.506  0.4853  0.6407 -0.9962
 3809TIP3    H211392   2.805   4.280   1.548 -1.2919 -1.5084  0.3537
 3810TIP3   OH211393   4.349   5.228   2.168 -0.1578  0.2756 -0.0669
 3810TIP3    H111394   4.418   5.252   2.106 -0.1992  0.0485 -0.2015
 3810TIP3    H211395   4.269   5.230   2.117 -0.4092  1.6529  0.3545
 3811TIP3   OH211396   3.156   1.016   4.372 -0.2925  0.4418  1.0061
 3811TIP3    H111397   3.246   1.013   4.404 -0.2260  0.6316  0.8359
 3811TIP3    H211398   3.139   1.109   4.358  0.1427  0.2875 -0.8426
 3812TIP3   OH211399   5.382   1.195   0.211 -0.4294  0.3701 -0.2116
 3812TIP3    H111400   5.310   1.236   0.162 -0.3908 -0.7662 -1.2693
 3812TIP3    H211401   5.338   1.146   0.281 -0.7573 -0.6501 -1.0924
 3813TIP3   OH211402   4.947   3.696   1.935  1.1485 -0.5439  0.1518
 3813TIP3    H111403   4.967   3.759   2.004 -1.5494  2.5185 -1.5549
 3813TIP3    H211404   4.866   3.654   1.963 -1.7563  2.9450 -2.1480
 3814TIP3   OH211405   2.183   4.049   4.739  0.3844 -0.0942 -0.1543
 3814TIP3    H111406   2.140   4.134   4.739 -0.0669 -0.3156 -0.1290
 3814TIP3    H211407   2.264   4.062   4.690  1.2520  0.7994  1.4650
 3815TIP3   OH211408   6.365   6.243   0.774  0.1617  0.2881  0.0102
 3815TIP3    H111409   6.319   6.162   0.750 -0.7303  1.0832 -1.0936
 3815TIP3    H211410   6.361   6.245   0.870 -0.0388 -0.8384  0.0405
 3816TIP3   OH211411   2.295   3.179   3.233  0.7020 -0.6023  0.6480
 3816TIP3    H111412   2.325   3.150   3.319 -0.6385 -2.5818  0.5249
 3816TIP3    H211413   2.366   3.158   3.174  1.5178  0.5075  1.1970
 3817TIP3   OH211414   5.365   5.208   1.326  0.1129 -0.0178 -1.1161
 3817TIP3    H111415   5.376   5.253   1.242  0.7876  1.1112 -0.4508
 3817TIP3    H211416   5.325   5.273   1.383  0.8648 -0.3294 -0.2022
 3818TIP3   OH211417   6.550   2.310   0.724 -0.1857  0.3673  0.3199
 3818TIP3    H111418   6.552   2.370   0.650 -2.4157 -1.0347 -0.9779
 3818TIP3    H211419   6.613   2.242   0.702 -1.1311 -0.2577 -0.5271
 3819TIP3   OH211420   1.897   4.593   4.462 -0.0035 -0.0853  0.0902
 3819TIP3    H111421   1.962   4.623   4.526 -0.2871 -1.4756  1.0963
 3819TIP3    H211422   1.827   4.555   4.516 -1.3647  0.8159 -0.9941
 3820TIP3   OH211423   3.900   5.484   1.920 -0.2062 -0.1935 -0.3555
 3820TIP3    H111424   3.860   5.529   1.994  0.3544  0.2739 -0.3373
 3820TIP3    H211425   3.985   5.455   1.952 -0.3185 -0.7596 -0.5494
 3821TIP3   OH211426   2.714   4.299   5.697  0.1364  0.2892 -0.3668
 3821TIP3    H111427   2.788   4.311   5.756 -0.3392  0.4742  0.2049
 3821TIP3    H211428   2.642   4.347   5.739 -1.1619 -2.3707  0.7220
 3822TIP3   OH211429   6.500   2.249   2.757  0.5151  0.5351  0.2257
 3822TIP3    H111430   6.405   2.246   2.742  0.6229  0.3066 -0.4220
 3822TIP3    H211431   6.515   2.182   2.824  0.3302 -0.0342 -0.2894
 3823TIP3   OH211432   5.901   5.162   4.104 -0.2698  0.6805  0.3204
 3823TIP3    H111433   5.911   5.152   4.010  1.3597  0.8151  0.4472
 3823TIP3    H211434   5.817   5.121   4.124 -0.2356 -0.1307 -1.0631
 3824TIP3   OH211435   0.613   1.316   1.412 -0.2976 -0.0163 -0.2658
 3824TIP3    H111436   0.644   1.406   1.414  1.2917 -0.5516  0.6521
 3824TIP3    H211437   0.560   1.307   1.491  0.1916 -0.0986  0.0553
 3825TIP3   OH211438   5.587   4.848   3.852 -0.3236 -0.2358  0.0979
 3825TIP3    H111439   5.530   4.925   3.847 -0.7673 -0.5668 -0.0992
 3825TIP3    H211440   5.626   4.842   3.765  1.9466  1.4075  0.9241
 3826TIP3   OH211441   2.731   1.694   1.970  0.4471  0.2151 -0.0928
 3826TIP3    H111442   2.712   1.601   1.957 -2.5335  0.6853  0.1244
 3826TIP3    H211443   2.796   1.696   2.041  0.1174 -1.6933  0.3021
 3827TIP3   OH211444   5.403   5.866   4.016  0.1013  0.0875  0.3664
 3827TIP3    H111445   5.480   5.812   4.033  0.9289  1.0329 -0.2283
 3827TIP3    H211446   5.331   5.804   4.010  1.1624 -1.0909 -1.2911
 3828TIP3   OH211447   1.972   0.634   1.883  0.1069  0.2033 -0.0043
 3828TIP3    H111448   1.902   0.698   1.887  1.7600  2.0564  1.7583
 3828TIP3    H211449   1.942   0.562   1.939 -0.2474  1.1286  1.0194
 3829TIP3   OH211450   0.032   2.862   0.531 -0.3494  0.0260 -0.1835
 3829TIP3    H111451   0.086   2.898   0.602  0.4009  2.3704 -1.8421
 3829TIP3    H211452   0.093   2.850   0.458 -1.5611  0.1255 -1.2484
 3830TIP3   OH211453   6.681   2.052   2.083  0.3119  0.6296  0.1217
 3830TIP3    H111454   6.612   2.046   2.016  1.0600 -0.5464 -0.5679
 3830TIP3    H211455   6.758   2.083   2.035 -0.0230  3.3500  1.1422
 3831TIP3   OH211456   5.323   4.041   2.659  0.0778  0.1973  0.0167
 3831TIP3    H111457   5.414   4.014   2.674  0.4665  2.5032  2.5167
 3831TIP3    H211458   5.271   3.965   2.686  1.2157 -0.5906  0.0722
 3832TIP3   OH211459   3.805   0.073   0.523 -0.0004  0.0007  0.2678
 3832TIP3    H111460   3.814   0.136   0.451  0.9526  0.5846  0.8763
 3832TIP3    H211461   3.887   0.025   0.523  0.2651  0.4318  1.3517
 3833TIP3   OH211462   1.081   4.589   5.725 -0.3820 -0.1547 -0.1343
 3833TIP3    H111463   1.072   4.510   5.779 -3.8958 -1.5286 -2.3962
 3833TIP3    H211464   1.159   4.572   5.672 -0.1365 -1.3347  0.5611
 3834TIP3   OH211465   2.778   5.244   5.495 -0.2957  0.1310 -0.4906
 3834TIP3    H111466   2.842   5.260   5.425 -0.5234  1.6364 -0.3893
 3834TIP3    H211467   2.786   5.319   5.553  1.1157 -1.8671  2.1465
 3835TIP3   OH211468   5.718   1.876   4.069  0.3442 -0.0698  0.5080
 3835TIP3    H111469   5.643   1.841   4.115  0.8553 -2.4793 -0.3633
 3835TIP3    H211470   5.767   1.924   4.136 -1.2217  0.3738  1.3833
 3836TIP3   OH211471   4.175   0.140   1.523  0.4401  0.5427 -0.3152
 3836TIP3    H111472   4.111   0.096   1.467 -0.2028  1.4545 -0.3236
 3836TIP3    H211473   4.191   0.224   1.479 -0.8807  1.7487  1.3500
 3837TIP3   OH211474   6.408   1.947   1.380  0.4490  0.4457  0.0084
 3837TIP3    H111475   6.444   1.907   1.459 -1.4384  0.7624  1.0871
 3837TIP3    H211476   6.345   1.882   1.347 -2.0645  2.0471  1.3403
 3838TIP3   OH211477   7.091   5.379   4.774  0.1647  0.1594 -0.0552
 3838TIP3    H111478   7.126   5.346   4.857 -1.0080 -0.1926  0.3174
 3838TIP3    H211479   7.018   5.436   4.799 -0.8882 -0.7795 -0.8436
 3839TIP3   OH211480   4.804   5.785   0.636 -0.1885 -0.4780 -0.6426
 3839TIP3    H111481   4.855   5.781   0.717  0.2230  2.2371 -0.7005
 3839TIP3    H211482   4.717   5.753   0.662  0.8531 -3.1742 -0.0757
 3840TIP3   OH211483   4.511   5.891   4.147 -0.7708 -0.1494 -0.2887
 3840TIP3    H111484   4.423   5.854   4.149 -1.2444  0.7744 -2.1062
 3840TIP3    H211485   4.555   5.842   4.077  0.1856 -0.6021  0.6024
 3841TIP3   OH211486   4.398   4.658   2.647  0.3041 -0.0029 -0.2350
 3841TIP3    H111487   4.403   4.749   2.618 -0.0150 -0.1869 -0.8840
 3841TIP3    H211488   4.311   4.650   2.687 -0.3946 -0.4627 -1.7692
 3842TIP3   OH211489  -0.022   6.596   3.766  0.0541  0.0514  0.7363
 3842TIP3    H111490   0.068   6.609   3.797  0.0418  1.2932  0.2969
 3842TIP3    H211491  -0.040   6.504   3.785  1.0804  0.0182  1.7058
 3843TIP3   OH211492   3.494   2.681   2.103 -0.1890 -0.1206  0.4388
 3843TIP3    H111493   3.568   2.687   2.043 -0.9586  0.2799 -0.4948
 3843TIP3    H211494   3.423   2.641   2.052 -0.0617 -2.3891  1.8902
 3844TIP3   OH211495   0.417   4.498   4.792  0.2904  0.0831  0.0560
 3844TIP3    H111496   0.406   4.479   4.885  1.3336  1.1711  0.4238
 3844TIP3    H211497   0.355   4.569   4.774 -1.7218 -1.7326 -0.7139
 3845TIP3   OH211498   6.321   2.648   4.450 -0.0526 -0.2901  0.3552
 3845TIP3    H111499   6.407   2.684   4.472  0.1004 -1.2580  1.4716
 3845TIP3    H211500   6.334   2.607   4.364 -0.1338  1.8564 -0.7532
 3846TIP3   OH211501   3.458   0.638   1.967  0.1904  0.2976  0.3179
 3846TIP3    H111502   3.486   0.548   1.988 -2.4164 -0.6883 -0.0381
 3846TIP3    H211503   3.470   0.644   1.872  0.9041  0.5438  0.4200
 3847TIP3   OH211504   0.217   5.439   0.233 -0.4635  0.1411 -0.1753
 3847TIP3    H111505   0.155   5.391   0.178 -0.4396 -1.0769  0.8309
 3847TIP3    H211506   0.163   5.494   0.288 -0.5088  0.9822 -1.0219
 3848TIP3   OH211507   2.130   4.673   0.069 -0.0221  0.8398  0.2484
 3848TIP3    H111508   2.188   4.749   0.064  0.9226  0.1757  0.7187
 3848TIP3    H211509   2.188   4.598   0.052 -1.1036  0.2759 -1.1675
 3849TIP3   OH211510   0.841   0.048   1.285  0.1771 -0.6467 -0.1848
 3849TIP3    H111511   0.808   0.017   1.201 -2.3556 -1.9812  1.1810
 3849TIP3    H211512   0.935   0.060   1.271 -0.2940  0.2826 -3.4747
 3850TIP3   OH211513   1.782   2.787   1.447  0.1893 -0.0549  0.3940
 3850TIP3    H111514   1.765   2.875   1.411  1.0981 -0.1011 -0.1635
 3850TIP3    H211515   1.783   2.801   1.542 -0.8240  0.3204  0.3681
 3851TIP3   OH211516   1.965   0.316   3.179 -0.2901 -0.4788  0.2251
 3851TIP3    H111517   1.929   0.405   3.180  0.2422 -0.2519  0.7444
 3851TIP3    H211518   1.998   0.304   3.090 -0.8271 -0.3519  0.0072
 3852TIP3   OH211519   5.049   3.320   0.328 -0.2331 -0.1359 -0.4710
 3852TIP3    H111520   4.998   3.249   0.289 -2.2188  1.7321 -1.5344
 3852TIP3    H211521   5.128   3.278   0.362 -0.7666 -2.6452 -2.0809
 3853TIP3   OH211522   1.589   2.414   0.303 -0.4672  0.2511  0.0029
 3853TIP3    H111523   1.583   2.498   0.349 -0.6205  0.4355 -0.3467
 3853TIP3    H211524   1.544   2.352   0.360 -0.6723  0.4826  0.0983
 3854TIP3   OH211525   5.218   2.256   5.131 -0.2063  0.0278 -0.3400
 3854TIP3    H111526   5.244   2.186   5.191  1.3244  1.2734  0.5532
 3854TIP3    H211527   5.289   2.259   5.066 -0.9545 -0.1373 -1.1820
 3855TIP3   OH211528   4.305   1.453   5.465  0.0174  0.5913 -0.4432
 3855TIP3    H111529   4.337   1.543   5.462 -0.6577  0.9220  1.0734
 3855TIP3    H211530   4.221   1.459   5.510  0.8539 -1.0265  1.4882
 3856TIP3   OH211531   3.684   1.399   5.250 -0.5129  0.0554  0.0371
 3856TIP3    H111532   3.749   1.462   5.280 -0.8177 -0.1452  1.1466
 3856TIP3    H211533   3.736   1.322   5.226 -0.1549  0.6460 -1.1816
 3857TIP3   OH211534   5.191   4.882   4.049 -0.1160  0.0572  0.1843
 3857TIP3    H111535   5.192   4.789   4.069 -0.4156 -0.2281 -1.0256
 3857TIP3    H211536   5.174   4.925   4.133 -0.0640 -0.9744  0.7377
 3858TIP3   OH211537   2.692   2.672   3.042  0.0994  0.2722  0.4871
 3858TIP3    H111538   2.748   2.681   3.119 -1.3551  1.3440  1.4780
 3858TIP3    H211539   2.603   2.671   3.077 -0.5621 -0.5034 -1.0942
 3859TIP3   OH211540   1.275   6.567   0.269 -0.0592  0.3370  0.1927
 3859TIP3    H111541   1.253   6.584   0.360 -2.5215 -0.3785 -0.1898
 3859TIP3    H211542   1.330   6.489   0.272 -0.0867  0.3393  1.0741
 3860TIP3   OH211543   3.443   3.456   0.755  0.3613 -0.0222 -0.3978
 3860TIP3    H111544   3.398   3.447   0.671  1.2553  0.6179 -0.9538
 3860TIP3    H211545   3.443   3.551   0.772  1.2696 -0.0332 -0.2883
 3861TIP3   OH211546   0.262   3.685   1.387 -0.2504  0.0941 -0.1243
 3861TIP3    H111547   0.339   3.741   1.390 -1.5543  2.1254 -1.6247
 3861TIP3    H211548   0.274   3.632   1.308 -0.5503  0.7072 -0.5903
 3862TIP3   OH211549   5.020   1.516   2.645  0.3519 -0.0011  0.3059
 3862TIP3    H111550   4.996   1.498   2.735  1.2520 -0.9370  0.3672
 3862TIP3    H211551   5.033   1.430   2.605  2.4188  0.4180 -0.0217
 3863TIP3   OH211552   5.387   3.467   1.071 -0.2603 -0.0056  0.1029
 3863TIP3    H111553   5.480   3.488   1.067 -0.1898 -0.4287 -0.5154
 3863TIP3    H211554   5.359   3.464   0.979 -0.2802 -2.5902  0.1391
 3864TIP3   OH211555   1.898   1.224   3.459 -0.0083  0.8302 -0.1568
 3864TIP3    H111556   1.956   1.283   3.508  0.2551  0.9193 -0.5692
 3864TIP3    H211557   1.860   1.167   3.526  1.4712 -0.0189  0.0122
 3865TIP3   OH211558   4.942   2.302   5.091 -0.4309 -0.2673 -0.8403
 3865TIP3    H111559   5.035   2.289   5.111  0.0810 -1.0258 -3.3695
 3865TIP3    H211560   4.899   2.223   5.125 -0.0114 -0.3480 -0.4864
 3866TIP3   OH211561   0.674   1.897   4.546 -0.0809 -0.1932 -0.2701
 3866TIP3    H111562   0.748   1.956   4.537 -0.4971  0.1668 -1.5819
 3866TIP3    H211563   0.626   1.929   4.622  0.5993  0.1240  0.0329
 3867TIP3   OH211564   2.268   1.806   2.806 -0.4650  0.5969 -0.2382
 3867TIP3    H111565   2.197   1.866   2.786 -0.9764 -0.1712 -0.7630
 3867TIP3    H211566   2.342   1.839   2.756 -0.2922  1.6787  0.6797
 3868TIP3   OH211567   7.171   5.957   5.426 -0.1673  0.1714 -0.0457
 3868TIP3    H111568   7.131   6.033   5.382 -0.8679 -0.5914 -0.7483
 3868TIP3    H211569   7.241   5.930   5.366 -1.3301 -1.0679 -0.8893
 3869TIP3   OH211570   1.455   2.150   1.988  0.5741  0.4666 -0.3250
 3869TIP3    H111571   1.406   2.105   2.057  3.2708  0.4511  1.7670
 3869TIP3    H211572   1.417   2.118   1.907 -0.8374 -1.8257  1.1205
 3870TIP3   OH211573   7.053   5.199   4.518  0.0773  0.0987 -0.6552
 3870TIP3    H111574   7.107   5.254   4.575 -0.9062  1.1995 -0.7588
 3870TIP3    H211575   7.117   5.147   4.467  0.9869  0.2289  0.3220
 3871TIP3   OH211576   6.889   4.907   0.057 -0.4322 -0.6304  0.2494
 3871TIP3    H111577   6.834   4.839   0.094  1.2335 -1.8777  0.5389
 3871TIP3    H211578   6.973   4.898   0.103  0.3849  0.4458 -0.9560
 3872TIP3   OH211579   3.729   4.008   5.435 -0.1768 -0.6415 -0.2526
 3872TIP3    H111580   3.766   3.934   5.483 -0.9469 -1.5587 -1.0268
 3872TIP3    H211581   3.635   3.993   5.437 -0.2617 -0.4140 -1.5608
 3873TIP3   OH211582   1.776   4.993   0.243 -0.6308 -0.3492 -0.3773
 3873TIP3    H111583   1.828   4.912   0.242 -1.3153 -0.8163  0.3565
 3873TIP3    H211584   1.720   4.983   0.320 -1.9386  0.0614 -1.2580
 3874TIP3   OH211585   1.516   1.562   4.439  0.8707  0.5066 -0.6296
 3874TIP3    H111586   1.582   1.565   4.369  1.3110 -0.3141 -0.2640
 3874TIP3    H211587   1.441   1.517   4.400  1.7997 -1.6989 -0.0762
 3875TIP3   OH211588   5.173   6.588   1.270 -0.3990  0.5559 -0.1814
 3875TIP3    H111589   5.115   6.573   1.195 -1.2290  0.4472  0.4703
 3875TIP3    H211590   5.145   6.673   1.305  0.0617  0.6598 -0.0621
 3876TIP3   OH211591   5.011   6.612   0.204  0.2592 -0.2990  0.1207
 3876TIP3    H111592   4.981   6.699   0.177  2.3132 -0.5638 -3.6461
 3876TIP3    H211593   4.957   6.552   0.154 -0.5155 -1.2658  2.0055
 3877TIP3   OH211594   3.751   6.032   0.457  0.0472 -0.7667  0.0538
 3877TIP3    H111595   3.836   5.991   0.446  0.6180  0.7836 -1.8743
 3877TIP3    H211596   3.715   5.993   0.537  2.7838 -1.0592  1.2427
 3878TIP3   OH211597   0.378   4.315   3.622  0.1347  0.6285  0.2096
 3878TIP3    H111598   0.345   4.229   3.594 -0.6128  0.9622  0.0464
 3878TIP3    H211599   0.446   4.336   3.558  0.6886 -0.0711  0.5551
 3879TIP3   OH211600   0.700   4.242   1.638 -0.1613 -0.4486  0.7224
 3879TIP3    H111601   0.793   4.228   1.658  0.6290  0.2186 -2.1441
 3879TIP3    H211602   0.673   4.162   1.594 -0.8165 -0.4119  1.0484
 3880TIP3   OH211603   5.001   0.252   4.052  0.6373 -0.1395  0.2266
 3880TIP3    H111604   4.960   0.300   3.980  0.3790 -0.2352  0.3107
 3880TIP3    H211605   5.045   0.319   4.104  1.2542 -0.1264 -0.3025
 3881TIP3   OH211606   2.607   0.232   1.146 -0.0535 -0.0880 -0.5651
 3881TIP3    H111607   2.610   0.317   1.190  0.0094 -0.3435 -0.0727
 3881TIP3    H211608   2.624   0.168   1.216 -0.3275 -0.5177 -0.8911
 3882TIP3   OH211609   3.723   1.190   5.575  0.5816  0.1137  0.5448
 3882TIP3    H111610   3.638   1.148   5.571  0.6491  0.0321 -0.6101
 3882TIP3    H211611   3.704   1.283   5.588  0.0963  0.5787 -2.5609
 3883TIP3   OH211612   7.189   5.371   5.064 -0.2742  0.5723 -0.3767
 3883TIP3    H111613   7.237   5.378   5.146 -1.2553  2.7151  0.0709
 3883TIP3    H211614   7.101   5.345   5.089 -0.1590 -0.4367 -0.9367
 3884TIP3   OH211615   1.222   6.211   4.773 -0.1702 -0.0803  0.1087
 3884TIP3    H111616   1.217   6.290   4.719 -3.7704  0.0740  0.4247
 3884TIP3    H211617   1.216   6.138   4.711  3.0685 -0.2736 -0.1752
 3885TIP3   OH211618   5.560   0.497   0.675  0.0609  0.4953  0.1397
 3885TIP3    H111619   5.492   0.478   0.611 -1.4536 -0.8558  2.0298
 3885TIP3    H211620   5.639   0.457   0.638 -0.4076  1.0050 -1.5155
 3886TIP3   OH211621   5.824   3.960   3.680  0.3144  0.2372 -0.1236
 3886TIP3    H111622   5.856   3.926   3.764 -1.1066  0.9313  0.7405
 3886TIP3    H211623   5.903   3.975   3.629  1.3900  1.6719  1.8222
 3887TIP3   OH211624   0.318   6.117   2.397  0.6684 -0.0157 -0.3195
 3887TIP3    H111625   0.316   6.096   2.490 -0.7058  1.2315 -0.0193
 3887TIP3    H211626   0.282   6.039   2.354 -0.7580  0.2088  0.4146
 3888TIP3   OH211627   0.360   1.281   5.698  0.1771 -0.5866  0.5343
 3888TIP3    H111628   0.366   1.203   5.752 -0.3031 -0.5731  0.6125
 3888TIP3    H211629   0.311   1.254   5.621  0.0368 -0.3711  0.5462
 3889TIP3   OH211630   3.013   0.969   0.421  0.3309  0.6271 -0.0266
 3889TIP3    H111631   2.939   0.909   0.431  0.2616  0.5390 -0.9495
 3889TIP3    H211632   3.042   0.987   0.510 -1.2098  1.1576  0.4052
 3890TIP3   OH211633   0.644   4.646   1.345  0.0567 -0.4573 -0.1093
 3890TIP3    H111634   0.740   4.645   1.353  0.1181 -0.3911 -0.7747
 3890TIP3    H211635   0.628   4.646   1.251 -0.5938 -0.0214 -0.0041
 3891TIP3   OH211636   6.025   1.454   5.532 -0.1774  0.2012  0.6735
 3891TIP3    H111637   5.934   1.430   5.513 -0.6144  2.3138 -0.1888
 3891TIP3    H211638   6.076   1.380   5.498 -1.4361  0.2123 -1.4415
 3892TIP3   OH211639   5.719   0.801   4.704  0.2028  0.0508 -0.3319
 3892TIP3    H111640   5.784   0.856   4.659 -1.4667  0.5084 -2.2960
 3892TIP3    H211641   5.648   0.862   4.725  0.8434 -0.1609  2.9557
 3893TIP3   OH211642   5.723   6.454   2.063 -0.0975 -0.0920  0.2115
 3893TIP3    H111643   5.784   6.431   1.994  2.5081  3.6703  0.9490
 3893TIP3    H211644   5.756   6.409   2.141 -0.5002 -0.9575 -0.1081
 3894TIP3   OH211645   1.963   4.110   0.788  0.2520 -0.3697 -0.3220
 3894TIP3    H111646   1.965   4.147   0.876 -0.0205 -1.6417  0.2413
 3894TIP3    H211647   1.901   4.037   0.794 -0.5219  0.1176 -1.8139
 3895TIP3   OH211648   4.622   6.626   0.520  0.3075  0.2771 -0.5438
 3895TIP3    H111649   4.649   6.637   0.611 -1.5800  0.3184  0.0404
 3895TIP3    H211650   4.578   6.708   0.497  1.2210  0.4768 -1.6844
 3896TIP3   OH211651   3.706   3.601   4.345  0.2407  0.3147  0.1571
 3896TIP3    H111652   3.655   3.671   4.305  0.9545  2.3128  2.5002
 3896TIP3    H211653   3.686   3.607   4.439 -1.0389 -3.8423  0.3481
 3897TIP3   OH211654   4.802   1.286   3.114 -0.0423 -0.2034  0.4283
 3897TIP3    H111655   4.874   1.238   3.157  0.2870  1.2112  1.5510
 3897TIP3    H211656   4.763   1.223   3.055  0.2504 -1.9239  1.9793
 3898TIP3   OH211657   2.970   6.248   0.743 -0.1955 -1.1660 -0.0328
 3898TIP3    H111658   2.952   6.286   0.829  0.5026 -1.1936  0.1331
 3898TIP3    H211659   2.899   6.279   0.687 -0.9271 -1.5617  0.6727
 3899TIP3   OH211660   6.336   4.667   4.006 -0.2729 -0.3335  0.7876
 3899TIP3    H111661   6.359   4.728   3.937  1.4263 -1.2325  0.5061
 3899TIP3    H211662   6.244   4.647   3.991 -0.2115  0.3020 -0.5641
 3900TIP3   OH211663   6.561   2.325   0.231 -0.8445  0.8305 -0.6282
 3900TIP3    H111664   6.611   2.306   0.152 -0.7813 -2.1721  0.0059
 3900TIP3    H211665   6.620   2.377   0.285  0.8628 -0.8279 -0.7842
 3901TIP3   OH211666   2.441   0.049   2.918  0.2293  0.1973  0.1238
 3901TIP3    H111667   2.406  -0.024   2.970  0.5883 -1.9640 -2.4967
 3901TIP3    H211668   2.364   0.088   2.877  0.2475 -0.0900 -0.1808
 3902TIP3   OH211669   3.011   6.105   5.805  0.2234 -0.6650 -0.2156
 3902TIP3    H111670   3.003   6.160   5.883 -0.3986  0.1755 -0.8566
 3902TIP3    H211671   3.016   6.166   5.732  2.1691 -1.4001 -0.7685
 3903TIP3   OH211672   0.163   1.102   2.801  0.5355  0.4627  0.2543
 3903TIP3    H111673   0.119   1.030   2.756  0.8455  0.5357 -0.1722
 3903TIP3    H211674   0.106   1.178   2.786 -0.4330  0.0761  1.7399
 3904TIP3   OH211675   1.979   0.961   3.336 -0.0631  0.2873 -0.1360
 3904TIP3    H111676   2.064   0.986   3.299 -0.6630  2.0616 -0.4194
 3904TIP3    H211677   1.959   1.031   3.399 -1.3717 -0.0490 -0.1519
 3905TIP3   OH211678   2.343   1.681   0.991 -0.1557 -0.0202 -0.3525
 3905TIP3    H111679   2.412   1.615   0.996 -0.8086 -0.6154  2.7942
 3905TIP3    H211680   2.280   1.644   0.929  1.4621 -0.2621 -1.9436
 3906TIP3   OH211681   1.506   3.796   2.571  0.3298 -0.6294  0.0344
 3906TIP3    H111682   1.594   3.828   2.551  0.2035 -0.9345 -1.0754
 3906TIP3    H211683   1.447   3.859   2.529  0.0529 -1.1675 -0.3976
 3907TIP3   OH211684   4.314   6.760   1.549  0.4494 -0.8861 -0.0364
 3907TIP3    H111685   4.279   6.694   1.609  1.4822 -1.5018 -0.0860
 3907TIP3    H211686   4.409   6.757   1.563  0.3992  2.4476  1.8550
 3908TIP3   OH211687   5.016   2.741   0.408 -0.0326  0.1148  0.3729
 3908TIP3    H111688   4.968   2.752   0.326 -0.1328 -0.7232  0.3076
 3908TIP3    H211689   5.108   2.737   0.382 -0.1724 -2.3271  0.0183
 3909TIP3   OH211690   4.348   3.741   3.473 -0.3356  0.4681 -0.0873
 3909TIP3    H111691   4.438   3.712   3.485  0.3432  1.5093 -2.1626
 3909TIP3    H211692   4.346   3.829   3.511 -1.0216 -0.2576  1.6383
 3910TIP3   OH211693   1.160   5.290   4.297  0.0663 -0.0217 -0.4776
 3910TIP3    H111694   1.206   5.367   4.264 -2.0539  1.1836 -0.7849
 3910TIP3    H211695   1.071   5.320   4.314 -0.7221 -2.3075 -0.1786
 3911TIP3   OH211696   1.822   2.187   0.298  0.0721 -0.0342 -0.5852
 3911TIP3    H111697   1.847   2.135   0.222  0.2957 -0.5288 -0.1790
 3911TIP3    H211698   1.729   2.168   0.311 -0.1387  0.5780 -1.1381
 3912TIP3   OH211699   4.246   4.634   1.400  0.1207 -0.0035  0.0668
 3912TIP3    H111700   4.209   4.655   1.315  0.3201 -0.5646 -0.1608
 3912TIP3    H211701   4.225   4.710   1.455  0.1581  0.4351 -0.5261
 3913TIP3   OH211702   2.487   3.481   0.935 -0.3857 -0.0573  0.1537
 3913TIP3    H111703   2.435   3.401   0.949 -0.4588  0.2713  2.1145
 3913TIP3    H211704   2.563   3.452   0.885 -1.3913 -0.9644 -0.9022
 3914TIP3   OH211705   0.078   5.252   3.920  0.1889  0.5452  0.2634
 3914TIP3    H111706   0.072   5.157   3.916  1.5272  0.3773  1.5565
 3914TIP3    H211707   0.095   5.279   3.829 -0.5696 -0.4012 -0.1725
 3915TIP3   OH211708   1.633   4.662   0.295  0.3448  0.0335  0.4426
 3915TIP3    H111709   1.697   4.636   0.229  0.1402  1.3628 -0.3155
 3915TIP3    H211710   1.683   4.666   0.377  0.8543 -0.5584  0.1641
 3916TIP3   OH211711   1.914   5.637   5.916  0.3531  0.1566 -0.1950
 3916TIP3    H111712   1.865   5.568   5.870 -0.8355  0.0536  1.1818
 3916TIP3    H211713   1.995   5.645   5.865  0.1293 -1.6204 -0.9212
 3917TIP3   OH211714   4.149   6.717   3.012  0.1045  0.6828 -0.2777
 3917TIP3    H111715   4.244   6.725   2.999  0.1013 -0.3940 -1.0626
 3917TIP3    H211716   4.140   6.653   3.082 -0.0494 -0.8791 -1.6620
 3918TIP3   OH211717   6.353   5.418   2.497  0.0342  0.1126  0.1522
 3918TIP3    H111718   6.275   5.397   2.445 -1.8869 -1.4383  3.2898
 3918TIP3    H211719   6.392   5.333   2.517  0.1910  0.5338  1.8160
 3919TIP3   OH211720   3.972   1.340   2.102  0.0905  0.0287 -0.0336
 3919TIP3    H111721   4.051   1.288   2.087  0.7239  1.0990 -0.5894
 3919TIP3    H211722   3.921   1.331   2.021 -0.1850 -0.3590  0.1795
 3920TIP3   OH211723   2.485   3.823   1.051  0.4240 -0.3004  0.4148
 3920TIP3    H111724   2.512   3.841   0.961 -0.1899 -0.4312  0.1970
 3920TIP3    H211725   2.559   3.778   1.090 -0.3502 -2.9406 -0.9260
 3921TIP3   OH211726   3.643   3.193   1.556  0.2078  0.2908  0.5474
 3921TIP3    H111727   3.653   3.287   1.543 -1.6232  0.5428  0.6477
 3921TIP3    H211728   3.589   3.164   1.482 -0.9631 -0.2775  1.5880
 3922TIP3   OH211729   1.121   2.248   3.064  0.0037 -0.0730  0.8547
 3922TIP3    H111730   1.175   2.170   3.077  1.0193  0.2790 -0.8997
 3922TIP3    H211731   1.055   2.244   3.133  1.0171 -1.6241  1.7766
 3923TIP3   OH211732   3.616   3.392   0.383  0.3625 -0.3323  0.5858
 3923TIP3    H111733   3.583   3.310   0.419  0.4030 -0.2568  0.7931
 3923TIP3    H211734   3.649   3.368   0.296 -2.1222 -0.0571 -0.5364
 3924TIP3   OH211735   4.314   3.053   1.192  0.2527  0.1760  0.1282
 3924TIP3    H111736   4.280   2.965   1.209  0.1167 -0.6562 -3.5553
 3924TIP3    H211737   4.409   3.041   1.184  0.3252  0.5376  0.4147
 3925TIP3   OH211738   1.577   3.291   0.744 -0.8388  0.1086  0.4338
 3925TIP3    H111739   1.484   3.307   0.728 -1.0031  0.1608  1.4049
 3925TIP3    H211740   1.605   3.239   0.669 -1.4102  0.9389 -0.3757
 3926TIP3   OH211741   2.622   2.867   2.872 -0.1866 -0.5426  0.0890
 3926TIP3    H111742   2.646   2.782   2.908  1.4390  0.2268  0.9973
 3926TIP3    H211743   2.590   2.917   2.948 -1.4834 -0.4533 -0.5010
 3927TIP3   OH211744   5.038   2.696   2.080 -0.0231  0.1028  0.6748
 3927TIP3    H111745   5.063   2.771   2.134  2.9233 -0.1094 -0.2334
 3927TIP3    H211746   4.955   2.723   2.039 -1.1789  1.1430  3.4337
 3928TIP3   OH211747   5.963   6.278   5.855  0.1869  0.5034 -0.1280
 3928TIP3    H111748   5.902   6.206   5.871  0.1131  0.5815 -0.0544
 3928TIP3    H211749   6.017   6.249   5.782  0.4186  0.2094  0.1547
 3929TIP3   OH211750   2.188   0.739   0.614  0.1427 -0.0969  0.3524
 3929TIP3    H111751   2.272   0.783   0.604  0.6183 -0.1520  3.2277
 3929TIP3    H211752   2.197   0.657   0.567  0.5341  1.2051 -1.9992
 3930TIP3   OH211753   6.223   2.206   4.669  0.2359 -0.1617  1.0380
 3930TIP3    H111754   6.262   2.119   4.680 -2.3763 -1.8561 -1.7328
 3930TIP3    H211755   6.275   2.246   4.599  1.1111  0.3631  1.9587
 3931TIP3   OH211756   5.538   4.818   5.327  0.2864 -0.8009 -0.0965
 3931TIP3    H111757   5.537   4.748   5.262  2.3785 -0.8548 -0.1527
 3931TIP3    H211758   5.596   4.885   5.290 -0.1690  0.1119  0.7776
 3932TIP3   OH211759   7.131   4.415   0.365 -0.1489  0.1282 -0.2913
 3932TIP3    H111760   7.205   4.400   0.306 -1.3472 -0.7339 -1.6412
 3932TIP3    H211761   7.107   4.328   0.396 -1.6485  0.1689 -1.2361
 3933TIP3   OH211762   2.628   6.625   2.732  0.6260 -0.5633 -0.2766
 3933TIP3    H111763   2.650   6.703   2.783  0.3414 -1.2004  0.8712
 3933TIP3    H211764   2.676   6.635   2.650  0.9831  0.5699  0.0516
 3934TIP3   OH211765   1.957   4.010   3.867  0.2490 -0.5891 -0.5576
 3934TIP3    H111766   2.045   4.043   3.847  0.5848 -0.8518  0.4113
 3934TIP3    H211767   1.938   4.045   3.954  0.2729 -2.2338  0.1454
 3935TIP3   OH211768   2.333   3.983   0.190 -0.5439  0.1316 -0.2359
 3935TIP3    H111769   2.333   4.053   0.125 -1.7979  0.0924 -0.2987
 3935TIP3    H211770   2.348   3.903   0.139  1.2261  0.3462 -0.1259
 3936TIP3   OH211771   0.332   6.021   4.240  0.5219 -0.3300 -0.3514
 3936TIP3    H111772   0.241   6.020   4.211  0.1396 -0.4509  0.8126
 3936TIP3    H211773   0.330   5.986   4.329  1.6384  0.1353 -0.1201
 3937TIP3   OH211774   2.965   1.418   5.368  0.3921  0.6890  0.2809
 3937TIP3    H111775   2.979   1.328   5.399 -0.5064  1.0860  1.9572
 3937TIP3    H211776   3.036   1.468   5.408 -0.6307  1.1606  1.5881
 3938TIP3   OH211777   3.410   2.014   1.650 -0.4201 -0.8854  0.5091
 3938TIP3    H111778   3.383   1.937   1.700  0.0010 -0.6737  1.0714
 3938TIP3    H211779   3.491   1.988   1.606 -0.5372 -0.9195  0.3127
 3939TIP3   OH211780   0.341   3.391   5.199  0.4558 -0.1749  0.2314
 3939TIP3    H111781   0.316   3.331   5.270 -1.7062 -1.5868 -1.5933
 3939TIP3    H211782   0.303   3.475   5.224 -1.7757 -1.0563  0.0208
 3940TIP3   OH211783   3.736   6.525   2.210 -0.0415  0.0989 -0.1025
 3940TIP3    H111784   3.643   6.536   2.226 -0.0736  0.5752 -0.5821
 3940TIP3    H211785   3.771   6.614   2.207  0.3283 -0.0524 -0.4921
 3941TIP3   OH211786   0.245   6.666   1.374  0.5415  0.2456  0.0096
 3941TIP3    H111787   0.264   6.693   1.464  0.6335  0.8223 -0.1797
 3941TIP3    H211788   0.303   6.719   1.320 -0.2021  0.6104 -0.4510
 3942TIP3   OH211789   7.142   1.537   4.324  0.5831 -0.6913  0.1006
 3942TIP3    H111790   7.221   1.517   4.274  0.3989 -0.0366 -0.4656
 3942TIP3    H211791   7.070   1.530   4.261  0.4966  1.6350 -0.1568
 3943TIP3   OH211792   4.767   3.855   1.344  0.3878 -0.0120 -0.3230
 3943TIP3    H111793   4.686   3.896   1.314  1.3655  1.1359 -1.4468
 3943TIP3    H211794   4.770   3.874   1.438 -0.9462 -0.6353 -0.1287
 3944TIP3   OH211795   2.245   5.301   2.721 -0.1950  0.4705  0.3202
 3944TIP3    H111796   2.320   5.344   2.680 -0.1002 -0.6863 -0.7781
 3944TIP3    H211797   2.278   5.214   2.745 -1.1130  0.0239  0.0007
 3945TIP3   OH211798   4.090   5.772   1.944  0.2366 -0.1007  0.5199
 3945TIP3    H111799   4.007   5.786   1.990 -0.1789 -1.8437  0.3716
 3945TIP3    H211800   4.149   5.742   2.013  0.5172  0.3305  0.4701
 3946TIP3   OH211801   3.064   1.287   2.916  0.4380 -0.1733  0.1909
 3946TIP3    H111802   3.094   1.240   2.994  1.7396  0.6974  0.2234
 3946TIP3    H211803   3.115   1.367   2.914  0.7791 -0.3859 -1.8255
 3947TIP3   OH211804   5.634   3.521   2.124  0.0182  0.1241 -0.6875
 3947TIP3    H111805   5.699   3.468   2.169  0.5801  0.8403 -0.6398
 3947TIP3    H211806   5.683   3.566   2.055 -0.6418 -0.1999 -1.3882
 3948TIP3   OH211807   1.943   5.743   5.564  0.0007 -0.0525  0.5482
 3948TIP3    H111808   1.924   5.740   5.470 -0.1004 -1.5413  0.6007
 3948TIP3    H211809   1.886   5.812   5.598 -1.9443 -1.3050 -0.0502
 3949TIP3   OH211810   4.710   4.230   2.709  0.1895  0.0668 -0.1487
 3949TIP3    H111811   4.667   4.296   2.654  1.0097  1.7452  1.1341
 3949TIP3    H211812   4.792   4.210   2.662  0.1193  0.2661 -0.3579
 3950TIP3   OH211813   5.854   3.948   0.651  0.5851 -0.1119 -0.1433
 3950TIP3    H111814   5.787   3.885   0.626 -0.2112  0.3830  0.6544
 3950TIP3    H211815   5.804   4.025   0.680  1.4708 -0.0685  1.3562
 3951TIP3   OH211816   2.479   4.625   0.816  0.5499  0.3039 -0.3626
 3951TIP3    H111817   2.401   4.676   0.837 -0.4978 -0.7978 -1.4317
 3951TIP3    H211818   2.509   4.661   0.733  0.7716  0.2439 -0.3097
 3952TIP3   OH211819   4.966   6.519   5.372  0.3757  0.0260  0.2831
 3952TIP3    H111820   4.922   6.569   5.303  0.0181 -1.6589 -0.7713
 3952TIP3    H211821   5.056   6.551   5.371  0.3201  0.1927 -0.8425
 3953TIP3   OH211822   3.353   0.784   2.384 -0.2614 -0.6443  0.5974
 3953TIP3    H111823   3.345   0.696   2.348 -0.5750  0.1219 -1.3462
 3953TIP3    H211824   3.356   0.841   2.307  1.6191  0.9303  1.7260
 3954TIP3   OH211825   4.498   2.356   5.738 -0.4592 -0.2728  0.0174
 3954TIP3    H111826   4.407   2.327   5.740 -0.6229  0.2689  0.6672
 3954TIP3    H211827   4.548   2.277   5.718 -1.2004 -0.2348 -2.2805
 3955TIP3   OH211828   4.642   4.678   4.854 -0.1262  0.1056 -0.4327
 3955TIP3    H111829   4.581   4.665   4.781 -1.2050  2.0398  0.0384
 3955TIP3    H211830   4.709   4.737   4.820 -0.2382  0.4459 -0.0732
 3956TIP3   OH211831   3.909   1.867   4.822 -0.1010  0.2636  0.6538
 3956TIP3    H111832   3.938   1.781   4.854 -1.8244 -0.4661  0.4082
 3956TIP3    H211833   3.813   1.862   4.825 -0.2461  2.0259  0.1842
 3957TIP3   OH211834   3.461   3.633   1.286  0.6745  0.1650  0.6306
 3957TIP3    H111835   3.440   3.576   1.213 -1.6978 -0.6419  1.8370
 3957TIP3    H211836   3.548   3.605   1.315  0.7390 -0.9153 -0.5471
 3958TIP3   OH211837   4.124   2.464   4.490  0.1048  0.3292  0.6763
 3958TIP3    H111838   4.053   2.407   4.459 -0.0707  0.5667  0.6385
 3958TIP3    H211839   4.202   2.409   4.487  0.0683  0.3169 -0.0758
 3959TIP3   OH211840   4.950   1.782   3.590 -0.1113  0.5746  0.3879
 3959TIP3    H111841   4.993   1.804   3.673  1.7548 -0.6814 -0.1690
 3959TIP3    H211842   4.951   1.686   3.588  0.0451  0.5886 -1.1534
 3960TIP3   OH211843   7.090   3.611   5.094  1.1081  0.5548 -0.3340
 3960TIP3    H111844   7.113   3.687   5.040 -1.4202  2.2670  0.8028
 3960TIP3    H211845   7.136   3.625   5.177  1.4817  0.2567 -0.4870
 3961TIP3   OH211846   5.107   4.778   0.694 -0.0135  0.6779  0.0710
 3961TIP3    H111847   5.164   4.819   0.759 -0.9500  0.6321  0.9557
 3961TIP3    H211848   5.024   4.766   0.740 -0.4312 -0.1713 -0.8759
 3962TIP3   OH211849   6.776   0.910   3.619 -0.0916  0.0837  0.6830
 3962TIP3    H111850   6.722   0.846   3.571  0.0235 -0.7155  1.5771
 3962TIP3    H211851   6.845   0.935   3.557  0.0581 -0.9235  0.4219
 3963TIP3   OH211852   0.465   2.118   3.281 -0.4113 -0.3431 -0.1097
 3963TIP3    H111853   0.468   2.210   3.257  0.2731 -0.9799 -2.7165
 3963TIP3    H211854   0.407   2.116   3.358  1.9141  2.5597  1.9744
 3964TIP3   OH211855   0.131   6.496   1.794 -0.1662  0.6091 -0.1485
 3964TIP3    H111856   0.091   6.463   1.874 -1.1809  0.2858 -0.7765
 3964TIP3    H211857   0.198   6.430   1.773 -0.8398 -0.0358 -0.3165
 3965TIP3   OH211858   0.201   6.431   4.364  0.3018  0.3827 -0.1912
 3965TIP3    H111859   0.243   6.405   4.282  0.9349  1.3718 -0.1916
 3965TIP3    H211860   0.108   6.410   4.351  0.5406 -0.3311 -0.7970
 3966TIP3   OH211861   4.965   1.403   0.010  0.0020  0.2655 -0.0878
 3966TIP3    H111862   5.005   1.423  -0.074 -0.1199  1.2622  0.0769
 3966TIP3    H211863   5.021   1.446   0.075 -2.3954  3.6177  0.0249
 3967TIP3   OH211864   3.939   5.822   0.592  0.5235  0.0876  0.4554
 3967TIP3    H111865   4.016   5.863   0.552  0.4435 -0.1654  0.0364
 3967TIP3    H211866   3.942   5.850   0.684  1.7330 -0.8130  0.7142
 3968TIP3   OH211867   0.458   4.773   3.974 -0.0574 -0.4026  0.1044
 3968TIP3    H111868   0.422   4.842   3.918 -0.8016 -0.8069  0.0648
 3968TIP3    H211869   0.553   4.780   3.963 -0.1086  0.6904  0.2023
 3969TIP3   OH211870   6.833   5.165   2.503 -0.1702 -0.2425 -0.4535
 3969TIP3    H111871   6.827   5.142   2.595 -0.2239 -2.7415 -1.0112
 3969TIP3    H211872   6.810   5.085   2.456  1.5531  0.4285 -2.6493
 3970TIP3   OH211873   6.397   3.912   1.119  0.3478  0.3482  0.0462
 3970TIP3    H111874   6.382   3.832   1.069 -0.2987  1.3823 -1.5212
 3970TIP3    H211875   6.341   3.903   1.196 -0.9992 -0.0219 -0.9355
 3971TIP3   OH211876   2.595   1.050   0.601  0.0217  0.4403  0.0994
 3971TIP3    H111877   2.623   1.070   0.690  2.6135 -0.0785 -0.5339
 3971TIP3    H211878   2.643   1.111   0.546  0.2241 -0.7430 -1.0915
 3972TIP3   OH211879   4.913   2.166   1.783  0.2424  0.0325  0.0911
 3972TIP3    H111880   4.826   2.129   1.766 -0.2738  1.0958  0.3405
 3972TIP3    H211881   4.973   2.111   1.733 -0.4078 -1.6240  1.0480
 3973TIP3   OH211882   5.974   2.938   4.936 -0.0445  0.2163 -0.8981
 3973TIP3    H111883   5.933   2.999   4.874  0.8134  0.7629 -0.9523
 3973TIP3    H211884   5.934   2.960   5.021 -0.6010  0.0406 -1.1074
 3974TIP3   OH211885   5.686   2.061   0.986  0.0806 -0.7341  0.6151
 3974TIP3    H111886   5.698   2.028   0.897  1.2532  0.7985  0.1545
 3974TIP3    H211887   5.775   2.064   1.023 -0.1914  0.1678  1.2457
 3975TIP3   OH211888   0.591   0.912   0.907  0.1647 -0.1828 -0.1106
 3975TIP3    H111889   0.566   0.950   0.992  1.6933  1.2761 -0.2566
 3975TIP3    H211890   0.652   0.841   0.930 -0.2449 -0.4980  0.0289
 3976TIP3   OH211891   4.321   1.697   4.058 -0.5992 -0.0190  0.1894
 3976TIP3    H111892   4.406   1.733   4.033 -0.5196 -0.4194 -0.1344
 3976TIP3    H211893   4.274   1.770   4.097 -0.3526  0.3700 -0.2379
 3977TIP3   OH211894   4.355   0.038   0.770 -0.1847 -0.0037 -0.7534
 3977TIP3    H111895   4.351   0.018   0.864 -3.0658 -1.4564 -1.0975
 3977TIP3    H211896   4.276  -0.000   0.733  0.4052  1.3071 -3.6828
 3978TIP3   OH211897   4.755   3.306   5.633 -0.3999 -0.0530  0.5006
 3978TIP3    H111898   4.777   3.222   5.595 -0.5858  0.4872 -0.8501
 3978TIP3    H211899   4.659   3.309   5.630 -0.3611  0.7192 -0.6761
 3979TIP3   OH211900   3.988   1.195   4.520  0.1373  0.9645  0.2151
 3979TIP3    H111901   4.076   1.232   4.521  0.3143  0.5547  0.2070
 3979TIP3    H211902   4.000   1.106   4.488 -0.2021  0.7136  0.7609
 3980TIP3   OH211903   1.511   5.497   1.261 -0.1055 -0.0548 -0.3965
 3980TIP3    H111904   1.509   5.579   1.312 -1.0915 -1.8071  2.6500
 3980TIP3    H211905   1.604   5.473   1.258 -0.0241  0.0233  0.8062
 3981TIP3   OH211906   5.879   2.571   2.419 -0.8252  0.1951 -0.0344
 3981TIP3    H111907   5.833   2.517   2.484 -0.2703 -1.9471 -1.3347
 3981TIP3    H211908   5.854   2.533   2.335 -1.1466  2.6107 -1.0952
 3982TIP3   OH211909   5.724   3.702   0.610 -0.3323 -0.4660  0.2103
 3982TIP3    H111910   5.754   3.656   0.531  2.3939 -0.1032  0.9145
 3982TIP3    H211911   5.630   3.688   0.612 -0.1476 -2.5895 -1.7697
 3983TIP3   OH211912   0.995   1.729   0.922  0.1921  0.0391  0.4394
 3983TIP3    H111913   1.075   1.677   0.914 -0.9133 -2.0062  1.8829
 3983TIP3    H211914   0.935   1.691   0.858 -0.3284  0.1640  0.8526
 3984TIP3   OH211915   2.189   0.224   2.905 -0.3159  0.4595 -0.2045
 3984TIP3    H111916   2.174   0.203   2.813  0.0640 -0.5191 -0.0535
 3984TIP3    H211917   2.210   0.318   2.905 -1.2056  0.6731 -1.0043
 3985TIP3   OH211918   3.104   5.904   2.411 -0.2630 -0.0032  0.1585
 3985TIP3    H111919   3.036   5.971   2.410  0.3593  0.6765 -2.0498
 3985TIP3    H211920   3.173   5.939   2.356  0.9094 -1.6682  0.4840
 3986TIP3   OH211921   5.193   6.406   0.159  0.2956  1.2599  0.6962
 3986TIP3    H111922   5.230   6.445   0.080 -1.6539  2.0740  0.1115
 3986TIP3    H211923   5.132   6.472   0.191 -1.3769 -0.3477  1.0135
 3987TIP3   OH211924   5.447   3.528   2.978 -0.5026 -0.1986 -0.2118
 3987TIP3    H111925   5.443   3.495   3.067  2.6187 -0.1359  0.0598
 3987TIP3    H211926   5.534   3.503   2.947 -0.5810  1.8750 -2.3829
 3988TIP3   OH211927   5.064   6.666   2.398  0.0325  0.1731  0.0452
 3988TIP3    H111928   5.084   6.750   2.440 -0.2429  1.0772 -1.5602
 3988TIP3    H211929   4.984   6.636   2.442  0.7795  0.1273  1.4468
 3989TIP3   OH211930   0.966   4.187   3.063  0.2767  0.0981  0.0463
 3989TIP3    H111931   1.062   4.188   3.070  0.2319  0.3210  0.7291
 3989TIP3    H211932   0.943   4.277   3.040  0.1727  0.3006  0.9008
 3990TIP3   OH211933   3.360   6.220   3.707 -0.4250  0.6302  0.2628
 3990TIP3    H111934   3.346   6.273   3.628  1.4026  2.5932  1.1377
 3990TIP3    H211935   3.391   6.136   3.674  1.4972  1.7935 -1.1869
 3991TIP3   OH211936   4.290   6.323   3.865  0.5383 -0.8511 -0.6536
 3991TIP3    H111937   4.293   6.231   3.891  2.4402 -0.7093 -0.2061
 3991TIP3    H211938   4.289   6.372   3.947  2.6496 -0.4757 -0.7749
 3992TIP3   OH211939   4.063   4.072   0.040 -0.2411 -0.0636 -0.4957
 3992TIP3    H111940   4.015   4.141  -0.005 -0.4519 -1.0156 -1.7675
 3992TIP3    H211941   3.996   4.017   0.080 -0.0673  0.5570  0.7231
 3993TIP3   OH211942   2.633   4.471   3.234  0.6640  0.1084 -0.0539
 3993TIP3    H111943   2.626   4.377   3.221 -0.6794 -0.1706  2.1170
 3993TIP3    H211944   2.636   4.508   3.146 -1.5904 -1.7880 -1.0242
 3994TIP3   OH211945   2.573   4.034   1.719 -0.0600 -0.3846  0.3851
 3994TIP3    H111946   2.669   4.035   1.723 -0.0948 -0.6045  1.4804
 3994TIP3    H211947   2.554   4.017   1.626  0.9512 -0.1461  0.1144
 3995TIP3   OH211948   3.080   5.056   1.438  0.6619  0.1135 -0.1923
 3995TIP3    H111949   3.151   5.014   1.487 -0.7620 -1.4039  0.7186
 3995TIP3    H211950   3.093   5.027   1.348 -0.5978 -3.0287  0.4773
 3996TIP3   OH211951   6.039   2.338   0.617  0.0268 -0.1596 -0.0793
 3996TIP3    H111952   6.055   2.249   0.648 -1.7585 -0.5851 -0.2729
 3996TIP3    H211953   6.080   2.394   0.683  0.7714 -1.1011  0.2891
 3997TIP3   OH211954   1.373   0.732   1.704  0.0886 -0.1576  0.0044
 3997TIP3    H111955   1.349   0.803   1.764  1.0276 -0.2701  0.5317
 3997TIP3    H211956   1.468   0.738   1.697  0.2510 -1.7542  0.5568
 3998TIP3   OH211957   2.940   2.261   5.107  0.3186  0.8291  0.0339
 3998TIP3    H111958   2.883   2.280   5.032 -1.6010 -1.6384  0.7276
 3998TIP3    H211959   2.972   2.346   5.135  1.1572  1.8681 -3.5421
 3999TIP3   OH211960   5.953   2.950   0.054  0.4617  0.2232  0.3263
 3999TIP3    H111961   5.933   2.936   0.147  2.5462  0.3250  0.8279
 3999TIP3    H211962   6.020   3.018   0.054  2.0540 -1.2472 -1.1025
 4000TIP3   OH211963   2.059   2.447   5.127 -0.3025 -0.3108 -0.0163
 4000TIP3    H111964   2.107   2.514   5.175 -0.4335  0.9546 -1.5399
 4000TIP3    H211965   2.116   2.423   5.054  0.2605 -2.8018  1.1304
 4001TIP3   OH211966   0.833   4.388   5.428 -0.1710  0.1196  0.2121
 4001TIP3    H111967   0.778   4.402   5.505 -0.9067  0.6423 -0.3881
 4001TIP3    H211968   0.918   4.361   5.464 -0.6594 -0.2049  1.1757
 4002TIP3   OH211969   4.875   2.754   4.376 -0.3638 -0.1878 -0.2540
 4002TIP3    H111970   4.790   2.795   4.392 -1.0304 -1.8148  0.6124
 4002TIP3    H211971   4.934   2.794   4.440 -0.9850 -0.5478  0.5499
 4003TIP3   OH211972   6.899   6.587   0.821  0.4726 -0.3541 -0.1875
 4003TIP3    H111973   6.920   6.603   0.913  1.1335 -0.4516 -0.3204
 4003TIP3    H211974   6.972   6.535   0.788  0.4663  0.0668 -0.8856
 4004TIP3   OH211975   4.086   3.714   4.161  0.0352  0.1187 -0.0675
 4004TIP3    H111976   3.995   3.743   4.153  0.1398  0.0974 -1.6877
 4004TIP3    H211977   4.129   3.784   4.210 -0.8319  0.1241  0.7362
 4005TIP3   OH211978   2.503   2.383   0.811  0.1151 -0.2893  0.2051
 4005TIP3    H111979   2.521   2.290   0.828  2.5770  0.3134  1.3407
 4005TIP3    H211980   2.535   2.398   0.722 -0.3824 -0.5060 -0.0209
 4006TIP3   OH211981   5.542   4.341   0.776  0.1172  0.2188  0.4005
 4006TIP3    H111982   5.497   4.333   0.860 -2.2289 -0.1652 -0.7991
 4006TIP3    H211983   5.535   4.433   0.753 -2.0263 -0.1399 -0.7035
 4007TIP3   OH211984   5.272   2.645   0.335 -0.1631 -0.0008  0.2976
 4007TIP3    H111985   5.299   2.559   0.305  1.3169  0.4231  0.2917
 4007TIP3    H211986   5.311   2.706   0.271 -1.4629  0.6607  0.1065
 4008TIP3   OH211987   1.873   6.150   0.500  0.2017 -0.3426  0.2710
 4008TIP3    H111988   1.794   6.204   0.496  1.0011  0.7809 -0.8929
 4008TIP3    H211989   1.888   6.137   0.593 -1.2168 -0.3864  0.5238
 4009TIP3   OH211990   7.173   3.684   0.532  0.2888  0.0496  0.2225
 4009TIP3    H111991   7.181   3.708   0.440 -1.7924 -1.7536 -0.5064
 4009TIP3    H211992   7.096   3.731   0.563  0.4776 -0.0204  0.8137
 4010TIP3   OH211993   4.581   4.806   1.612  0.1869 -0.3261 -0.1246
 4010TIP3    H111994   4.602   4.715   1.636  0.6173 -0.0032  0.7569
 4010TIP3    H211995   4.486   4.807   1.604  0.1717 -0.8362 -0.0374
 4011TIP3   OH211996   2.534   1.704   2.258  0.5476 -0.9071  0.0536
 4011TIP3    H111997   2.628   1.712   2.269  0.4491  0.1801  0.1914
 4011TIP3    H211998   2.500   1.694   2.347  0.4507 -0.2277  0.0994
 4012TIP3   OH211999   2.428   5.736   3.517  0.3644  0.7044  0.5989
 4012TIP3    H112000   2.423   5.719   3.611 -1.2868  1.8889  0.7719
 4012TIP3    H212001   2.520   5.758   3.502  1.0054 -1.1123  1.6111
 4013TIP3   OH212002   3.112   6.754   4.907 -0.1284  0.2317  0.4230
 4013TIP3    H112003   3.040   6.705   4.947  0.0561 -0.1365  0.3060
 4013TIP3    H212004   3.170   6.773   4.981  0.6698 -1.2396  0.2092
 4014TIP3   OH212005   0.370   2.741   4.501 -0.0787  0.6906 -0.1998
 4014TIP3    H112006   0.433   2.794   4.451  0.8766 -0.1499  0.0894
 4014TIP3    H212007   0.359   2.788   4.583  1.0850  0.2596  0.2241
 4015TIP3   OH212008   2.217   3.415   5.348  0.3501 -0.0963 -0.2539
 4015TIP3    H112009   2.251   3.341   5.399  1.0348  0.7479  0.5518
 4015TIP3    H212010   2.289   3.478   5.346 -1.0653  1.7126  1.4340
 4016TIP3   OH212011   2.774   1.081   3.653 -0.5739  0.6878  0.1237
 4016TIP3    H112012   2.680   1.094   3.652 -0.6387  0.4242 -2.3968
 4016TIP3    H212013   2.788   1.001   3.604  0.9536  0.3984  0.9603
 4017TIP3   OH212014   4.899   4.232   1.580 -0.1717  0.1090  0.2480
 4017TIP3    H112015   4.916   4.326   1.571 -0.3668  0.0032 -1.6860
 4017TIP3    H212016   4.872   4.221   1.671  2.0625  1.5617  1.1873
 4018TIP3   OH212017   2.282   0.052   0.207  0.6985  0.3061 -0.1609
 4018TIP3    H112018   2.284   0.136   0.161 -1.3066  0.8781  0.6914
 4018TIP3    H212019   2.196   0.016   0.186  0.3548 -0.1507  1.8484
 4019TIP3   OH212020   3.956   4.522   5.798 -0.3098 -0.0322  0.1493
 4019TIP3    H112021   3.958   4.558   5.887  3.3677 -1.8729  1.0179
 4019TIP3    H212022   4.016   4.578   5.748 -1.5766  0.3765 -0.9966
 4020TIP3   OH212023   4.050   4.259   1.865  0.0007  0.1995  0.0413
 4020TIP3    H112024   4.115   4.321   1.832 -0.2912 -0.4113 -1.7970
 4020TIP3    H212025   4.091   4.219   1.941  1.4255  0.4345 -0.5880
 4021TIP3   OH212026   5.543   5.718   3.320  0.4307 -0.6672 -0.0532
 4021TIP3    H112027   5.497   5.787   3.274  0.6250 -1.5209 -1.5850
 4021TIP3    H212028   5.603   5.680   3.255  1.3335 -1.3663  1.1264
 4022TIP3   OH212029   3.753   5.689   4.389 -0.2791  0.4572 -0.1884
 4022TIP3    H112030   3.724   5.722   4.474  0.7794  0.7353  0.0890
 4022TIP3    H212031   3.680   5.705   4.330 -0.1005  2.6524  0.1078
 4023TIP3   OH212032   1.702   5.053   1.359  0.4526  0.7491  0.1768
 4023TIP3    H112033   1.785   5.007   1.372 -0.4192 -0.9267 -0.0017
 4023TIP3    H212034   1.677   5.082   1.447  1.8969  2.5572  0.0568
 4024TIP3   OH212035   5.797   6.501   4.719 -0.6080 -0.0775 -0.5796
 4024TIP3    H112036   5.794   6.581   4.667  2.1469  0.8326  0.4738
 4024TIP3    H212037   5.715   6.502   4.768 -1.6488  0.8825 -2.2181
 4025TIP3   OH212038   5.937   1.767   1.347 -0.3816  0.2202  0.0780
 4025TIP3    H112039   5.981   1.824   1.410 -0.1150 -0.0543  0.1431
 4025TIP3    H212040   5.889   1.705   1.401 -2.3744  1.6284  0.0384
 4026TIP3   OH212041   1.566   6.232   4.675  0.1949 -0.0187 -0.2002
 4026TIP3    H112042   1.504   6.277   4.733  1.8200  2.6668 -0.3544
 4026TIP3    H212043   1.513   6.203   4.601 -0.9795  1.9992 -0.2363
 4027TIP3   OH212044   3.322   5.192   0.103 -0.5025  0.2172  0.2880
 4027TIP3    H112045   3.381   5.155   0.037 -2.3472 -2.0825 -0.2048
 4027TIP3    H212046   3.284   5.269   0.060  1.4980  1.3290  0.3657
 4028TIP3   OH212047   1.415   3.358   5.320  0.3940 -0.0173 -0.0275
 4028TIP3    H112048   1.404   3.449   5.349  0.0034  0.7479 -2.3845
 4028TIP3    H212049   1.332   3.315   5.343  0.8654 -0.0349  1.7985
 4029TIP3   OH212050   6.785   2.751   0.290  0.1286  0.0233 -0.4564
 4029TIP3    H112051   6.704   2.763   0.241  0.0174  1.7986  0.1142
 4029TIP3    H212052   6.849   2.805   0.244  0.7764 -0.6279 -0.3473
 4030TIP3   OH212053   3.647   2.790   4.325  0.0901 -0.3278  0.2722
 4030TIP3    H112054   3.691   2.854   4.381 -1.2044  0.3142  0.5816
 4030TIP3    H212055   3.634   2.714   4.381 -2.0952  0.6672  1.2104
 4031TIP3   OH212056   1.116   2.809   0.619  0.6468  0.0294  0.0683
 4031TIP3    H112057   1.141   2.787   0.529  1.0159 -1.8493  0.5910
 4031TIP3    H212058   1.155   2.741   0.673 -0.7844  0.2844  1.5208
 4032TIP3   OH212059   1.167   1.755   2.396 -0.5834 -0.2452  0.3978
 4032TIP3    H112060   1.133   1.841   2.372  0.4573  0.0407 -0.1086
 4032TIP3    H212061   1.111   1.693   2.348 -2.0637  0.0670  1.6500
 4033TIP3   OH212062   5.065   0.526   2.118 -0.2801  0.2163  0.5046
 4033TIP3    H112063   5.048   0.589   2.188  0.4758  0.5029  0.4373
 4033TIP3    H212064   5.150   0.488   2.140  1.2918  2.2317 -1.6505
 4034TIP3   OH212065   2.807   3.959   1.831  0.3297  0.0847 -0.1509
 4034TIP3    H112066   2.824   3.950   1.924 -1.5974  0.4029  0.2839
 4034TIP3    H212067   2.861   3.892   1.789 -0.3740 -1.5132  1.3858
 4035TIP3   OH212068   6.513   5.601   2.618 -0.2610 -0.4382 -0.0821
 4035TIP3    H112069   6.449   5.670   2.633 -0.5516 -0.3117 -1.7977
 4035TIP3    H212070   6.462   5.526   2.589  0.2363 -0.7912 -0.0685
 4036TIP3   OH212071   1.012   5.521   4.103 -0.1693 -0.5987 -0.1871
 4036TIP3    H112072   0.917   5.512   4.097 -0.4159  1.1132  0.4782
 4036TIP3    H212073   1.026   5.574   4.182  1.4421 -2.2563  0.7238
 4037TIP3   OH212074   2.084   2.693   1.615  0.6348 -0.2417  0.1713
 4037TIP3    H112075   2.077   2.628   1.546  1.3634 -0.1344 -0.0161
 4037TIP3    H212076   2.153   2.752   1.585 -0.8629  1.3736 -0.2735
 4038TIP3   OH212077   7.064   0.933   5.393 -0.2114  0.0541  0.3975
 4038TIP3    H112078   7.099   0.866   5.452 -0.1562 -0.3445 -0.0865
 4038TIP3    H212079   7.084   1.016   5.437  0.6135 -0.1967  0.5160
 4039TIP3   OH212080   2.350   0.282   1.888  0.2087 -0.7512 -0.0440
 4039TIP3    H112081   2.255   0.265   1.888  0.0657  0.0459  0.3635
 4039TIP3    H212082   2.373   0.290   1.980  0.5094 -0.0216 -0.1797
 4040TIP3   OH212083   4.356   1.488   1.868 -0.3442 -0.0900 -0.2953
 4040TIP3    H112084   4.451   1.502   1.874 -0.3219  0.1613 -1.1920
 4040TIP3    H212085   4.327   1.487   1.959  0.7154 -1.4976  0.0715
 4041TIP3   OH212086   0.621   0.495   4.135  0.3071 -0.0514 -0.8944
 4041TIP3    H112087   0.526   0.495   4.147  0.4668 -0.8906  0.7066
 4041TIP3    H212088   0.645   0.587   4.123 -0.7940  0.0788 -2.2956
 4042TIP3   OH212089   0.523   3.756   1.370 -0.4700  0.0171  0.2248
 4042TIP3    H112090   0.537   3.712   1.454 -1.3852 -0.5103  0.1212
 4042TIP3    H212091   0.589   3.718   1.312 -2.2528 -2.5798 -0.3277
 4043TIP3   OH212092   3.893   1.568   2.632  0.2804 -0.1267  0.6637
 4043TIP3    H112093   3.816   1.544   2.683  0.7365  0.3496  1.6102
 4043TIP3    H212094   3.897   1.503   2.562 -0.0348 -1.1697  1.5811
 4044TIP3   OH212095   5.403   2.863   0.198  0.1807  0.2321 -0.2386
 4044TIP3    H112096   5.448   2.923   0.138  2.0623 -1.2087 -0.3671
 4044TIP3    H212097   5.419   2.900   0.285  1.9238 -0.3766 -0.2615
 4045TIP3   OH212098   4.064   0.244   1.028 -0.1232 -0.0103 -0.5084
 4045TIP3    H112099   4.158   0.265   1.032 -0.5707  1.9558  1.6236
 4045TIP3    H212100   4.024   0.320   0.987 -1.0423  0.3178  0.9395
 4046TIP3   OH212101   0.823   4.362   0.071  0.5495 -0.2026  0.7806
 4046TIP3    H112102   0.803   4.355  -0.023 -1.2566 -0.4793  1.1447
 4046TIP3    H212103   0.911   4.325   0.080  0.4054 -0.9778 -0.6916
 4047TIP3   OH212104   3.085   0.929   2.151 -0.0065 -0.0847 -0.4055
 4047TIP3    H112105   3.075   0.971   2.066 -0.0854 -1.2847 -1.0053
 4047TIP3    H212106   3.143   0.855   2.135 -0.1274 -0.4018  0.5585
 4048TIP3   OH212107   4.193   0.436   4.561  0.0089 -0.5363  0.6463
 4048TIP3    H112108   4.235   0.488   4.492 -1.1506  0.7572  0.8861
 4048TIP3    H212109   4.217   0.346   4.540  2.6860  0.1016  0.6301
 4049TIP3   OH212110   3.826   3.207   4.215  0.0918  0.2230  0.8049
 4049TIP3    H112111   3.881   3.284   4.206 -0.5903  0.6149 -0.1634
 4049TIP3    H212112   3.853   3.168   4.298  1.4157  0.7186  0.6379
 4050TIP3   OH212113   0.268   2.366   0.835  0.4909  0.2371 -0.0495
 4050TIP3    H112114   0.201   2.369   0.903  0.8594  0.3653  0.3137
 4050TIP3    H212115   0.219   2.359   0.753  0.0215  0.6433  0.1881
 4051TIP3   OH212116   3.550   0.305   4.314 -0.1339 -0.2909 -0.2515
 4051TIP3    H112117   3.595   0.387   4.337  0.5093 -1.0315  1.2732
 4051TIP3    H212118   3.496   0.285   4.391  0.4725 -1.8027 -0.1835
 4052TIP3   OH212119   6.281   0.438   1.745 -0.0427  0.2959  0.1562
 4052TIP3    H112120   6.261   0.473   1.658  1.9519  2.4943  0.5075
 4052TIP3    H212121   6.195   0.418   1.782 -0.9879  0.1535 -1.9612
 4053TIP3   OH212122   2.165   5.565   0.407 -0.5239  0.2021  0.1713
 4053TIP3    H112123   2.174   5.608   0.492  0.3286 -1.3024  0.8835
 4053TIP3    H212124   2.148   5.636   0.346 -2.4258  1.2093  1.7584
 4054TIP3   OH212125   2.349   1.446   1.253  0.1877  0.6398 -0.2081
 4054TIP3    H112126   2.280   1.425   1.190  0.4939  0.9083 -0.6412
 4054TIP3    H212127   2.303   1.473   1.332 -0.2339 -1.3254  0.2814
 4055TIP3   OH212128   3.059   5.459   0.839  0.2621 -0.4480  0.4566
 4055TIP3    H112129   3.131   5.497   0.790 -0.3110  0.0038 -0.0555
 4055TIP3    H212130   3.055   5.367   0.810  1.8993 -1.0558  1.9889
 4056TIP3   OH212131   6.865   4.115   4.939 -0.1010  0.2941 -0.1993
 4056TIP3    H112132   6.891   4.090   5.028  0.3290  0.9076 -0.1503
 4056TIP3    H212133   6.922   4.063   4.882 -1.0406 -0.8501 -0.1551
 4057TIP3   OH212134   3.843   0.057   0.995 -0.0080 -0.2141  0.7289
 4057TIP3    H112135   3.807   0.093   0.913 -0.3146 -1.2400  0.4043
 4057TIP3    H212136   3.924   0.107   1.009  0.7931 -0.9735 -0.9574
 4058TIP3   OH212137   5.337   1.452   2.356  0.1407 -0.5385 -0.9532
 4058TIP3    H112138   5.424   1.455   2.317 -0.5561 -1.3127 -2.7155
 4058TIP3    H212139   5.313   1.544   2.367  0.9838 -0.3146 -0.9214
 4059TIP3   OH212140   5.013   6.320   0.603 -0.5382  0.2490 -0.1223
 4059TIP3    H112141   4.965   6.240   0.622 -1.2480  0.6034 -0.3673
 4059TIP3    H212142   4.956   6.369   0.544  0.1592  0.6536 -0.4817
 4060TIP3   OH212143   6.419   0.145   2.661 -0.1980 -0.5910 -0.3833
 4060TIP3    H112144   6.469   0.169   2.583 -0.0062  0.2185 -0.0208
 4060TIP3    H212145   6.329   0.173   2.642 -0.1553 -0.4120 -0.3287
 4061TIP3   OH212146   6.650   5.493   5.503  0.3154  0.1937 -0.0738
 4061TIP3    H112147   6.557   5.514   5.507  0.2519  0.0303 -0.6629
 4061TIP3    H212148   6.672   5.495   5.410  0.9705  0.5324  0.0766
 4062TIP3   OH212149   2.298   1.224   2.146  0.4206  0.1027  0.0318
 4062TIP3    H112150   2.358   1.179   2.088 -0.3417 -0.8255 -0.0632
 4062TIP3    H212151   2.323   1.316   2.140  0.8741 -0.0806 -1.1396
 4063TIP3   OH212152   0.088   0.136   4.924  0.0170 -0.0388  0.3203
 4063TIP3    H112153   0.002   0.095   4.933  0.3365 -0.7257  0.2869
 4063TIP3    H212154   0.142   0.097   4.993  1.4226 -2.6124 -2.0364
 4064TIP3   OH212155   1.624   5.413   3.458 -0.0202  0.0959  0.1216
 4064TIP3    H112156   1.591   5.336   3.413  0.9280 -0.1129 -0.2356
 4064TIP3    H212157   1.666   5.379   3.537 -0.8946  0.3857  0.7291
 4065TIP3   OH212158   2.515   0.931   3.923  0.5060 -0.0948  0.2056
 4065TIP3    H112159   2.506   0.957   4.015 -0.1662 -1.0607  0.4183
 4065TIP3    H212160   2.604   0.895   3.917  0.6263  0.1615  0.4175
 4066TIP3   OH212161   2.666   4.410   1.509 -0.9271  0.0043 -0.6013
 4066TIP3    H112162   2.602   4.424   1.579 -0.7386  0.9442 -0.5976
 4066TIP3    H212163   2.710   4.495   1.500  0.5352 -0.6921 -0.3914
 4067TIP3   OH212164   4.757   5.791   2.707 -0.2860  0.5470  0.1686
 4067TIP3    H112165   4.737   5.853   2.778 -1.0813  1.0237 -0.4631
 4067TIP3    H212166   4.799   5.845   2.639  1.0900 -0.0265  0.5191
 4068TIP3   OH212167   4.718   6.522   2.807  0.2256  0.3518 -0.6191
 4068TIP3    H112168   4.806   6.498   2.835  0.3636  1.8672  0.3874
 4068TIP3    H212169   4.731   6.599   2.751 -0.3881 -0.0027 -1.2568
 4069TIP3   OH212170   1.283   0.960   4.560  0.6159 -0.1660 -0.1180
 4069TIP3    H112171   1.245   0.935   4.476  0.2419  2.1476 -0.7172
 4069TIP3    H212172   1.210   0.998   4.609  1.0779 -0.4237  0.7945
 4070TIP3   OH212173   7.179   1.657   3.937  0.0419  0.8716 -0.2163
 4070TIP3    H112174   7.209   1.590   3.877 -0.7345  0.4790 -0.1793
 4070TIP3    H212175   7.248   1.663   4.003 -0.2280 -0.4410  0.2082
 4071TIP3   OH212176   2.130   5.671   4.823 -0.2061 -0.3249  0.7825
 4071TIP3    H112177   2.047   5.645   4.783  0.1382  0.4284 -0.4826
 4071TIP3    H212178   2.166   5.589   4.857 -0.7570 -0.9206 -0.0174
 4072TIP3   OH212179   5.787   0.061   2.876 -0.1311 -0.1369 -0.1926
 4072TIP3    H112180   5.758   0.009   2.950  1.3902 -0.0389  0.5141
 4072TIP3    H212181   5.720   0.049   2.809 -1.4290 -0.3818  1.1233
 4073TIP3   OH212182   2.029   4.628   1.373  0.2937  0.9302 -0.0415
 4073TIP3    H112183   1.944   4.639   1.415  0.0431  0.0934 -0.3038
 4073TIP3    H212184   2.066   4.549   1.414  1.1790  1.5750  0.4474
 4074TIP3   OH212185   5.006   2.840   0.135  0.5893 -0.2495  0.4002
 4074TIP3    H112186   5.059   2.832   0.057 -0.3266 -0.3060 -0.2374
 4074TIP3    H212187   4.930   2.784   0.118 -0.3909  0.9547  0.6450
 4075TIP3   OH212188   3.706   5.536   1.461 -0.4026 -0.1632  0.3847
 4075TIP3    H112189   3.706   5.565   1.552 -0.7033  0.0305  0.3261
 4075TIP3    H212190   3.620   5.494   1.449 -0.7025  0.5545 -0.0347
 4076TIP3   OH212191   6.514   1.154   3.334 -0.4156  0.2510  0.3910
 4076TIP3    H112192   6.444   1.131   3.394  0.6908 -0.4663  1.4476
 4076TIP3    H212193   6.590   1.170   3.390  0.5630 -0.0828 -0.7846
 4077TIP3   OH212194   1.534   2.761   4.536  0.0767 -0.6721 -0.8818
 4077TIP3    H112195   1.442   2.789   4.534 -0.3619 -2.0484 -1.0812
 4077TIP3    H212196   1.563   2.782   4.625 -0.9052 -1.6443 -0.3100
 4078TIP3   OH212197   6.906   0.459   1.870 -0.3527  0.2393 -0.1002
 4078TIP3    H112198   6.834   0.519   1.850  0.1147  0.1864 -2.1953
 4078TIP3    H212199   6.902   0.393   1.801  1.2016 -0.2410  0.2211
 4079TIP3   OH212200   3.638   4.818   2.250 -0.1525 -0.4781  0.2618
 4079TIP3    H112201   3.644   4.750   2.317  0.7926 -1.1834 -0.5090
 4079TIP3    H212202   3.620   4.771   2.169  0.7027  0.1671 -0.3228
 4080TIP3   OH212203   6.475   0.184   2.405  0.5836 -0.0677  0.1327
 4080TIP3    H112204   6.454   0.265   2.359  0.7290 -0.3896 -0.4974
 4080TIP3    H212205   6.438   0.115   2.351 -2.2041 -0.3123  2.1264
 4081TIP3   OH212206   5.538   5.775   0.251 -0.6829  0.2886  0.3297
 4081TIP3    H112207   5.518   5.813   0.336  0.5406 -0.3100  0.9252
 4081TIP3    H212208   5.574   5.848   0.199  0.6853  0.2056  1.1128
 4082TIP3   OH212209   4.244   1.270   2.122  0.2290  0.0140  0.2029
 4082TIP3    H112210   4.267   1.359   2.099 -1.2921  0.5768  0.7210
 4082TIP3    H212211   4.280   1.258   2.210  0.3774  0.1287  0.1581
 4083TIP3   OH212212   0.432   4.474   0.273 -0.3509 -0.3445  0.2442
 4083TIP3    H112213   0.507   4.415   0.262 -0.0185  0.1329 -0.1308
 4083TIP3    H212214   0.370   4.447   0.205  0.0004  0.0294 -0.2334
 4084TIP3   OH212215   1.718   6.469   4.646  0.9000 -0.0402  0.4159
 4084TIP3    H112216   1.711   6.374   4.633  0.0647  0.0203  0.4035
 4084TIP3    H212217   1.686   6.483   4.735  0.3493  0.3161  0.1617
 4085TIP3   OH212218   3.242   6.014   5.206 -0.7173  0.0282  0.0091
 4085TIP3    H112219   3.284   5.958   5.271 -1.2198  0.0791  0.3832
 4085TIP3    H212220   3.150   5.989   5.209 -0.6602 -0.3946 -1.1149
 4086TIP3   OH212221   5.830   5.743   1.337 -0.0690 -0.5840  0.7927
 4086TIP3    H112222   5.904   5.756   1.278  1.9007 -0.5109  3.1000
 4086TIP3    H212223   5.832   5.649   1.358  0.5830 -0.2774  2.2564
 4087TIP3   OH212224   3.454   2.459   5.341 -0.3811 -0.1093  0.1035
 4087TIP3    H112225   3.401   2.458   5.421  0.9932  0.7522  1.0511
 4087TIP3    H212226   3.437   2.545   5.302  1.2226  0.6793  1.0665
 4088TIP3   OH212227   1.556   3.150   4.485 -0.0599  0.1597 -0.3291
 4088TIP3    H112228   1.492   3.221   4.483  0.1291  0.3255 -0.8518
 4088TIP3    H212229   1.523   3.086   4.422  0.0559  0.0437 -0.2727
 4089TIP3   OH212230   5.832   2.146   1.203 -0.1146  0.0295 -0.1952
 4089TIP3    H112231   5.923   2.173   1.218 -0.3812  0.8228  0.0748
 4089TIP3    H212232   5.798   2.212   1.143 -0.3877 -0.5241 -0.6528
 4090TIP3   OH212233   6.640   1.863   2.534  0.0039 -0.1115  0.9654
 4090TIP3    H112234   6.576   1.876   2.604  0.4630 -0.7245  1.5194
 4090TIP3    H212235   6.626   1.773   2.504 -0.2650  0.1860  0.1824
 4091TIP3   OH212236   3.715   0.354   0.313  0.4599  0.1614  0.2998
 4091TIP3    H112237   3.807   0.333   0.330  1.2595  1.0407 -2.3829
 4091TIP3    H212238   3.718   0.418   0.242 -2.2239  0.9338  0.7811
 4092TIP3   OH212239   0.043   4.558   4.629  0.2645 -0.3586 -0.8681
 4092TIP3    H112240  -0.042   4.596   4.651  0.9885 -0.2416  2.1705
 4092TIP3    H212241   0.025   4.466   4.613 -0.4642 -0.3020 -0.4143
 4093TIP3   OH212242   3.370   6.490   2.973  0.2746  0.3533  0.1827
 4093TIP3    H112243   3.276   6.478   2.985  0.2801  1.7333  2.0299
 4093TIP3    H212244   3.390   6.572   3.020  2.7561 -1.0511  1.7988
 4094TIP3   OH212245   5.749   4.195   1.487  0.0720 -0.0919 -0.2714
 4094TIP3    H112246   5.821   4.197   1.424  0.0828  0.6688 -0.2411
 4094TIP3    H212247   5.730   4.102   1.497 -0.2297 -0.2184 -1.7420
 4095TIP3   OH212248   6.944   4.408   1.683 -0.2043  0.5534  0.4003
 4095TIP3    H112249   6.978   4.453   1.606  0.4336  1.6789  1.2877
 4095TIP3    H212250   6.981   4.320   1.678  2.1803  1.4346  0.8233
 4096TIP3   OH212251   1.541   6.662   0.407 -0.0779  0.5780 -0.0305
 4096TIP3    H112252   1.526   6.617   0.490 -0.0829 -0.5585 -0.6230
 4096TIP3    H212253   1.633   6.644   0.386 -0.3999 -0.1874 -0.8544
 4097TIP3   OH212254   5.791   4.520   2.875 -0.4019 -0.5815 -0.4916
 4097TIP3    H112255   5.793   4.542   2.781 -0.8560  0.0495 -0.3626
 4097TIP3    H212256   5.805   4.604   2.919  1.6374 -1.1412  0.0206
 4098TIP3   OH212257   1.393   2.101   3.152  0.0730 -0.1392 -0.3713
 4098TIP3    H112258   1.327   2.068   3.214 -0.2117 -1.9195 -1.5473
 4098TIP3    H212259   1.460   2.033   3.150  1.1494  0.9095 -0.4112
 4099TIP3   OH212260   5.847   2.873   0.310  0.3581  0.4473  0.1301
 4099TIP3    H112261   5.774   2.867   0.372  0.2590  0.2524 -0.0029
 4099TIP3    H212262   5.894   2.790   0.319  0.3103  0.3948 -0.0931
 4100TIP3   OH212263   1.457   2.836   1.507 -0.7584  0.0184 -0.1214
 4100TIP3    H112264   1.378   2.811   1.459  0.2871  0.9622 -2.5006
 4100TIP3    H212265   1.529   2.821   1.445  0.9745 -0.8291  1.9613
 4101TIP3   OH212266   5.768   6.672   0.890  0.0852  0.6661 -0.0538
 4101TIP3    H112267   5.846   6.642   0.843  0.7452  0.4472  1.1371
 4101TIP3    H212268   5.763   6.614   0.966  0.8772  2.9307  1.8431
 4102TIP3   OH212269   6.284   1.486   2.955  0.4205 -0.1512 -0.0996
 4102TIP3    H112270   6.306   1.466   3.046 -0.0441 -0.5352 -0.0624
 4102TIP3    H212271   6.218   1.420   2.932 -1.5711  1.6225  0.1785
 4103TIP3   OH212272   5.885   0.743   3.989 -0.3209 -0.2464  0.0407
 4103TIP3    H112273   5.793   0.735   4.014 -0.8917  0.7594 -1.5739
 4103TIP3    H212274   5.886   0.726   3.895  0.8747  1.2709 -0.2697
 4104TIP3   OH212275   6.450   4.050   5.016 -0.0324 -0.1660  0.4524
 4104TIP3    H112276   6.361   4.079   5.039  0.4846  3.7532 -1.5525
 4104TIP3    H212277   6.437   3.991   4.941 -0.9622 -0.0446  0.5036
 4105TIP3   OH212278   5.467   0.819   4.345  0.3424 -0.4091  0.5728
 4105TIP3    H112279   5.374   0.806   4.326  0.1554 -0.2843  1.3663
 4105TIP3    H212280   5.469   0.903   4.392  0.6510 -1.2002  2.0146
 4106TIP3   OH212281   4.838   5.279   4.701  0.2978 -0.9568 -0.2532
 4106TIP3    H112282   4.766   5.312   4.754  0.6610  0.2725 -0.5053
 4106TIP3    H212283   4.828   5.183   4.705 -0.1319 -0.8796  1.3894
 4107TIP3   OH212284   6.876   0.635   4.467  0.7548 -0.1735 -0.0713
 4107TIP3    H112285   6.810   0.581   4.511  1.5810  1.0612  2.9324
 4107TIP3    H212286   6.915   0.578   4.401 -1.4173 -1.7731 -0.0520
 4108TIP3   OH212287   6.019   5.810   1.162 -0.1312  0.1078 -0.6969
 4108TIP3    H112288   6.115   5.807   1.171 -0.1497 -0.5437 -0.6840
 4108TIP3    H212289   6.005   5.833   1.070  0.0389 -0.0369 -0.7607
 4109TIP3   OH212290   2.606   5.575   5.585 -0.0514  0.0356  0.1351
 4109TIP3    H112291   2.599   5.600   5.493  0.3829  0.9254  0.3355
 4109TIP3    H212292   2.700   5.558   5.598 -0.3452 -1.9083 -0.0398
 4110TIP3   OH212293   6.318   1.671   5.787 -0.0142  0.3224  0.3025
 4110TIP3    H112294   6.371   1.710   5.856  1.2162 -0.7586  0.0006
 4110TIP3    H212295   6.356   1.584   5.773  0.3241  0.8050 -2.3009
 4111TIP3   OH212296   6.392   4.806   5.443 -0.2237 -0.1675  0.1662
 4111TIP3    H112297   6.392   4.869   5.371  2.6201 -0.5192 -0.2428
 4111TIP3    H212298   6.406   4.721   5.401 -2.6378 -0.9775  0.8406
 4112TIP3   OH212299   5.281   2.754   5.255 -0.4196  0.0983 -0.3460
 4112TIP3    H112300   5.258   2.809   5.180  1.6152  0.2537 -0.9288
 4112TIP3    H212301   5.274   2.664   5.222  1.5546  0.1825 -1.1518
 4113TIP3   OH212302   1.852   2.019   3.986  0.1033 -0.2583  0.3937
 4113TIP3    H112303   1.840   1.924   3.994 -1.3353 -0.1717 -0.4257
 4113TIP3    H212304   1.897   2.031   3.903  1.1530 -0.2526  0.9410
 4114TIP3   OH212305   6.708   2.766   4.038  0.1211  0.7708 -0.3139
 4114TIP3    H112306   6.680   2.850   4.002 -2.0277 -0.1201 -0.8434
 4114TIP3    H212307   6.783   2.740   3.983  0.5482  2.1160 -0.3968
 4115TIP3   OH212308   3.074   2.339   4.300 -0.0005  0.0601 -0.1133
 4115TIP3    H112309   3.042   2.349   4.390 -1.2009 -1.0611 -0.3959
 4115TIP3    H212310   3.155   2.289   4.310  0.8299  1.4432  0.4596
 4116TIP3   OH212311   0.688   3.552   5.004 -0.0200 -0.2450  0.4127
 4116TIP3    H112312   0.614   3.581   5.056  0.3346  1.2971  0.1067
 4116TIP3    H212313   0.762   3.554   5.065  0.0615 -0.1843  0.3132
 4117TIP3   OH212314   2.385   2.978   4.612  0.0533  1.0722  0.2218
 4117TIP3    H112315   2.398   2.903   4.554  1.0102  0.7307  0.8637
 4117TIP3    H212316   2.470   3.022   4.614 -0.2406  1.6377  0.6098
 4118TIP3   OH212317   2.346   6.665   5.096 -0.1380  1.0338  0.5180
 4118TIP3    H112318   2.410   6.707   5.039  0.0489 -0.5671 -0.5086
 4118TIP3    H212319   2.298   6.738   5.137  0.9233  2.2250 -0.3056
 4119TIP3   OH212320   6.594   5.960   1.432  0.3959 -1.0626 -0.4206
 4119TIP3    H112321   6.624   5.887   1.486  0.5029 -0.1690  0.7553
 4119TIP3    H212322   6.618   6.038   1.481 -2.1713 -0.2621 -0.3252
 4120TIP3   OH212323   2.814   2.126   0.504  0.3807 -0.1824 -0.3485
 4120TIP3    H112324   2.823   2.089   0.592 -2.4365  1.4767  0.7772
 4120TIP3    H212325   2.791   2.052   0.449  2.2940 -1.2700  0.2363
 4121TIP3   OH212326   5.585   0.466   4.842 -0.3643  0.2165 -0.6796
 4121TIP3    H112327   5.653   0.514   4.888 -1.6619  0.1857  1.3899
 4121TIP3    H212328   5.518   0.532   4.822 -0.8765 -0.2038 -0.3762
 4122TIP3   OH212329   4.257   0.398   1.296  0.0318  0.3754  0.0156
 4122TIP3    H112330   4.314   0.390   1.373 -0.9272  1.2703  0.8622
 4122TIP3    H212331   4.316   0.421   1.224  0.9277 -0.3400  0.5043
 4123TIP3   OH212332   4.042   1.643   2.124 -0.1099 -0.3539 -0.1915
 4123TIP3    H112333   3.980   1.661   2.195 -2.6560 -1.1850 -2.0329
 4123TIP3    H212334   4.057   1.548   2.129  0.7621 -0.2120  0.0149
 4124TIP3   OH212335   6.543   0.187   2.904 -0.4368 -0.3612  0.1848
 4124TIP3    H112336   6.537   0.100   2.944 -0.3412 -0.8218 -0.7938
 4124TIP3    H212337   6.486   0.183   2.828 -0.5464  0.4884  0.2092
 4125TIP3   OH212338   0.861   6.649   4.069  0.3813 -0.1011  0.3978
 4125TIP3    H112339   0.940   6.635   4.017 -0.0346 -1.1691  0.0050
 4125TIP3    H212340   0.849   6.744   4.071  1.5063  0.0525  0.2224
 4126TIP3   OH212341   2.658   3.138   4.543 -0.1530 -0.2302  0.7297
 4126TIP3    H112342   2.656   3.216   4.489  0.6781 -0.5308  0.2600
 4126TIP3    H212343   2.671   3.171   4.632  0.7383  0.1339  0.4686
 4127TIP3   OH212344   5.884   2.618   1.029  0.5535 -0.6444 -0.0465
 4127TIP3    H112345   5.809   2.676   1.025  1.2059  0.2095 -0.1875
 4127TIP3    H212346   5.847   2.530   1.029 -0.4661 -0.2223  0.7005
 4128TIP3   OH212347   1.871   3.682   1.681 -0.0971  0.5029  0.0901
 4128TIP3    H112348   1.808   3.612   1.662 -0.0995  0.3640  0.5977
 4128TIP3    H212349   1.822   3.743   1.735 -0.0547  0.8387 -0.2477
 4129TIP3   OH212350   0.905   6.057   1.219  0.2044  0.6963  0.4102
 4129TIP3    H112351   0.932   6.129   1.275  2.2621  0.8495 -0.6715
 4129TIP3    H212352   0.870   6.099   1.140 -0.9891  0.4742  0.7923
 4130TIP3   OH212353   1.754   5.680   4.041 -0.3239 -0.4200  0.0847
 4130TIP3    H112354   1.728   5.660   4.131  0.7371  0.3536  0.5944
 4130TIP3    H212355   1.672   5.695   3.995 -0.8579  1.4996  1.5127
 4131TIP3   OH212356   0.763   4.651   4.253 -0.7390  0.7421  0.4783
 4131TIP3    H112357   0.858   4.643   4.263 -0.2797  1.0275 -2.6162
 4131TIP3    H212358   0.740   4.728   4.305  0.5314  0.1077  2.0621
 4132TIP3   OH212359   3.577   3.423   2.961  0.2363 -0.7266  0.0915
 4132TIP3    H112360   3.646   3.483   2.934 -0.1139 -0.1085  0.5305
 4132TIP3    H212361   3.530   3.470   3.031 -0.8372 -0.9785 -0.4318
 4133TIP3   OH212362   2.943   3.112   2.581  0.6346  0.1724 -0.2760
 4133TIP3    H112363   2.983   3.062   2.653 -1.0162  1.2394  1.4600
 4133TIP3    H212364   3.002   3.097   2.507  1.4621 -2.4264  0.7710
 4134TIP3   OH212365   2.480   0.302   0.445  0.1969  0.1280  0.1103
 4134TIP3    H112366   2.455   0.383   0.489 -1.2984 -0.5336  0.5222
 4134TIP3    H212367   2.454   0.316   0.354  0.7950  0.4400 -0.0248
 4135TIP3   OH212368   5.304   5.618   0.882  0.4540 -0.1672 -0.1736
 4135TIP3    H112369   5.333   5.666   0.805 -0.1004  0.0296 -0.2650
 4135TIP3    H212370   5.384   5.581   0.920  0.8159  0.3740 -0.4090
 4136TIP3   OH212371   7.074   3.583   4.283 -0.3609 -0.2331 -0.2278
 4136TIP3    H112372   7.156   3.565   4.329  0.2819  0.2427 -1.1720
 4136TIP3    H212373   7.007   3.570   4.350  0.4977 -0.3029  0.6507
 4137TIP3   OH212374   2.097   0.488   1.347  0.1919  0.5180 -0.0005
 4137TIP3    H112375   2.028   0.489   1.414 -0.3756 -0.5334 -0.5368
 4137TIP3    H212376   2.167   0.436   1.386  0.9068  1.9863  0.7336
 4138TIP3   OH212377   2.789   0.049   4.664 -0.0461  0.2996 -0.1374
 4138TIP3    H112378   2.771  -0.023   4.603 -0.4947 -0.6583  1.0842
 4138TIP3    H212379   2.883   0.044   4.680 -0.2103 -0.6011  0.6226
 4139TIP3   OH212380   3.256   0.117   5.378 -0.7539  0.1787  0.6565
 4139TIP3    H112381   3.169   0.150   5.403 -0.5811  1.1558  0.0099
 4139TIP3    H212382   3.281   0.169   5.302 -0.1151 -0.9298  0.0801
 4140TIP3   OH212383   6.986   2.147   4.789  0.2839 -0.2143  0.7482
 4140TIP3    H112384   7.070   2.159   4.833  0.3135  0.1007  0.6055
 4140TIP3    H212385   6.992   2.199   4.709  0.1044 -0.5178  0.5340
 4141TIP3   OH212386   1.324   4.249   0.775  0.1020 -0.0407 -0.3198
 4141TIP3    H112387   1.313   4.287   0.688 -1.8265 -2.5033 -1.2869
 4141TIP3    H212388   1.297   4.318   0.835  0.0551  1.2432 -1.7656
 4142TIP3   OH212389   6.046   4.215   0.903  0.0123 -0.1968 -0.3749
 4142TIP3    H112390   6.073   4.302   0.933  1.0570 -0.3738 -0.7712
 4142TIP3    H212391   5.973   4.232   0.844  2.2064  0.7290 -3.0325
 4143TIP3   OH212392   2.428   2.123   1.247  0.3204  0.1947 -0.2263
 4143TIP3    H112393   2.397   2.054   1.189 -0.7385  2.3878 -2.4174
 4143TIP3    H212394   2.513   2.149   1.210  1.8808 -1.3639  1.9514
 4144TIP3   OH212395   6.471   2.972   2.231 -0.2618  0.5214 -0.6578
 4144TIP3    H112396   6.484   2.909   2.302  0.7242  0.2770 -1.0446
 4144TIP3    H212397   6.377   2.967   2.211 -0.7362  1.2134  1.1831
 4145TIP3   OH212398   6.983   3.886   0.599 -0.1897 -0.6662 -0.1114
 4145TIP3    H112399   7.067   3.918   0.565 -0.5909  0.4470 -0.1027
 4145TIP3    H212400   6.943   3.962   0.640 -0.8571 -1.3832  0.6108
 4146TIP3   OH212401   3.975   5.750   5.318  0.3801 -0.2099 -0.1093
 4146TIP3    H112402   3.996   5.742   5.411  0.9233 -0.6344 -0.2648
 4146TIP3    H212403   3.922   5.830   5.313 -0.0915 -0.4609  0.6318
 4147TIP3   OH212404   6.832   3.576   1.073  0.1294  0.6781  0.2890
 4147TIP3    H112405   6.903   3.534   1.024 -0.8223 -0.4369 -0.1837
 4147TIP3    H212406   6.862   3.577   1.164  1.2102  1.2478 -0.0583
 4148TIP3   OH212407   2.010   4.766   3.416  0.2204 -0.2995  0.0713
 4148TIP3    H112408   2.009   4.818   3.496 -0.6556 -0.6409  0.2928
 4148TIP3    H212409   1.948   4.695   3.432  0.3926 -0.6493 -0.7304
 4149TIP3   OH212410   1.654   5.788   2.588 -0.1868 -0.5667 -0.3765
 4149TIP3    H112411   1.716   5.719   2.613  0.7067 -0.0132 -1.0198
 4149TIP3    H212412   1.580   5.740   2.549  0.0344 -1.2079 -0.0266
 4150TIP3   OH212413   4.483   0.088   5.452  0.1010 -0.1100 -0.1043
 4150TIP3    H112414   4.544   0.055   5.518  1.7346  1.4556 -0.7296
 4150TIP3    H212415   4.470   0.015   5.392  0.9176 -0.6512  0.3625
 4151TIP3   OH212416   2.514   5.092   2.112  0.1835  0.1141  0.0273
 4151TIP3    H112417   2.534   5.121   2.023 -1.1609 -1.2955 -0.7766
 4151TIP3    H212418   2.600   5.076   2.152  0.8173  1.3500 -0.7902
 4152TIP3   OH212419   6.312   3.119   5.071 -0.2899  0.2891 -0.2675
 4152TIP3    H112420   6.366   3.139   5.147  2.4012 -1.1866 -1.6127
 4152TIP3    H212421   6.325   3.193   5.012 -0.6419  0.4467 -0.1481
 4153TIP3   OH212422   3.333   1.556   5.882  0.0399 -0.0055  0.6672
 4153TIP3    H112423   3.239   1.560   5.899  0.0949 -0.0834  0.9903
 4153TIP3    H212424   3.352   1.464   5.865 -0.1816  0.2024 -0.7932
 4154TIP3   OH212425   3.002   2.262   3.419  0.4954  0.1706 -0.1752
 4154TIP3    H112426   3.025   2.203   3.490  0.4274  0.8685  0.4345
 4154TIP3    H212427   2.994   2.205   3.342  1.8566 -0.4053  0.0901
 4155TIP3   OH212428   2.787   5.508   1.453  0.0993 -0.0120  0.2436
 4155TIP3    H112429   2.752   5.555   1.529 -0.5973  0.6039 -0.4337
 4155TIP3    H212430   2.790   5.416   1.481 -1.3997  0.0129  0.5853
 4156TIP3   OH212431   0.915   3.441   3.356 -0.2361 -0.1472  0.6523
 4156TIP3    H112432   0.825   3.474   3.355 -0.1814  0.0562  1.5212
 4156TIP3    H212433   0.963   3.501   3.300 -0.2657  0.8965  1.7181
 4157TIP3   OH212434   0.514   0.554   1.356  1.1286  0.1833  0.2793
 4157TIP3    H112435   0.588   0.578   1.301  1.9617 -1.4601  0.6307
 4157TIP3    H212436   0.463   0.634   1.364  2.5312  1.1871 -0.4839
 4158TIP3   OH212437   5.382   4.877   1.918  0.4994  0.1247  0.3029
 4158TIP3    H112438   5.305   4.856   1.971  0.7079  0.3095  0.6881
 4158TIP3    H212439   5.448   4.814   1.946  0.7494  0.5104  0.5876
 4159TIP3   OH212440   1.970   0.903   4.658  0.0983 -0.4910 -0.2081
 4159TIP3    H112441   2.038   0.909   4.725 -0.5082  0.2660  0.3466
 4159TIP3    H212442   1.912   0.833   4.688 -0.0442 -0.3099 -0.0614
 4160TIP3   OH212443   3.718   1.547   1.173 -0.2877 -0.2613 -0.1965
 4160TIP3    H112444   3.778   1.543   1.099 -0.0417  0.9554 -0.0991
 4160TIP3    H212445   3.654   1.478   1.157 -1.5336  1.3188 -2.6932
 4161TIP3   OH212446   5.222   3.511   2.315 -0.6403  0.3931 -0.2259
 4161TIP3    H112447   5.170   3.543   2.388 -0.3125  1.9588 -0.6512
 4161TIP3    H212448   5.282   3.447   2.355  1.2426  2.9815  1.4034
 4162TIP3   OH212449   0.132   2.318   2.327 -0.0930 -0.6850 -0.3297
 4162TIP3    H112450   0.073   2.351   2.259 -1.9542 -3.5359 -0.2857
 4162TIP3    H212451   0.219   2.345   2.298 -1.0639  0.6324 -2.3028
 4163TIP3   OH212452   4.896   3.735   5.841  0.5980  0.4710 -0.2710
 4163TIP3    H112453   4.902   3.640   5.848  0.5075  0.4672 -0.2347
 4163TIP3    H212454   4.810   3.750   5.802  0.7601  0.5247 -0.6164
 4164TIP3   OH212455   5.552   1.782   5.288 -0.2283 -0.3600 -0.1920
 4164TIP3    H112456   5.462   1.751   5.278 -0.0048 -0.7835 -1.0170
 4164TIP3    H212457   5.555   1.819   5.376 -1.1447 -0.5557 -0.0656
 4165TIP3   OH212458   1.155   4.180   0.157  0.1781  0.0001 -0.1989
 4165TIP3    H112459   1.244   4.160   0.187 -0.1449 -1.5557 -0.1823
 4165TIP3    H212460   1.138   4.268   0.190  1.4116  0.0064  0.4980
 4166TIP3   OH212461   5.605   2.461   1.670 -0.3508  0.3028 -0.3988
 4166TIP3    H112462   5.666   2.515   1.621  1.1344 -1.1601 -0.2621
 4166TIP3    H212463   5.643   2.453   1.757 -0.9416 -0.2871 -0.1781
 4167TIP3   OH212464   3.040   1.073   2.430  0.5334  0.1268 -0.2223
 4167TIP3    H112465   3.014   0.991   2.389  3.3880 -0.1584 -1.6862
 4167TIP3    H212466   3.023   1.140   2.363  1.7382  0.1694 -0.5109
 4168TIP3   OH212467   6.479   6.295   2.124 -0.5056 -0.4660 -0.6356
 4168TIP3    H112468   6.431   6.338   2.053 -1.7984 -0.3672  0.2603
 4168TIP3    H212469   6.528   6.365   2.166  0.1924 -0.5086 -1.3519
 4169TIP3   OH212470   1.125   0.872   5.037 -0.5039  0.4859 -0.8644
 4169TIP3    H112471   1.074   0.908   4.964  0.3215 -0.9212 -2.2101
 4169TIP3    H212472   1.181   0.805   4.996  0.8485  0.4659  0.8884
 4170TIP3   OH212473   4.127   2.499   2.185 -0.2458 -0.1630  0.0915
 4170TIP3    H112474   4.083   2.439   2.125  0.8001  1.3324 -2.3160
 4170TIP3    H212475   4.218   2.470   2.186 -0.2187 -0.0894  0.9008
 4171TIP3   OH212476   2.564   5.203   2.957 -0.4368  0.6017 -0.2182
 4171TIP3    H112477   2.590   5.280   3.008 -1.4570  0.1582  1.0484
 4171TIP3    H212478   2.632   5.138   2.975 -1.6726 -0.1699  2.1503
 4172TIP3   OH212479   4.862   6.498   3.967 -0.6047 -0.4942 -0.0411
 4172TIP3    H112480   4.863   6.561   4.039  0.8005  0.0114 -0.4683
 4172TIP3    H212481   4.798   6.432   3.994 -2.1319  1.0809  0.4300
 4173TIP3   OH212482   2.271   5.030   2.243  0.4799 -0.7482  0.0380
 4173TIP3    H112483   2.300   5.104   2.296  0.4972  0.3716 -1.4726
 4173TIP3    H212484   2.338   5.020   2.176 -1.2195  0.1900 -1.9147
 4174TIP3   OH212485   6.173   2.365   0.373 -0.0709  0.3626  0.4119
 4174TIP3    H112486   6.103   2.363   0.439 -1.2052  1.5855 -0.6868
 4174TIP3    H212487   6.148   2.298   0.309  1.3342 -1.2346  1.4453
 4175TIP3   OH212488   0.275   5.486   2.489 -0.2021  0.6984  0.5213
 4175TIP3    H112489   0.313   5.455   2.406 -1.6940 -1.4969  0.5724
 4175TIP3    H212490   0.257   5.579   2.473 -0.5922  0.3172 -1.7185
 4176TIP3   OH212491   2.002   1.234   3.860  0.1321  0.2248  0.3978
 4176TIP3    H112492   1.950   1.166   3.816  1.4733 -0.8660  0.4372
 4176TIP3    H212493   2.023   1.297   3.790 -1.1223  0.6336  0.3605
 4177TIP3   OH212494   5.505   0.780   5.457  0.1538  0.0028 -0.0120
 4177TIP3    H112495   5.506   0.690   5.426  0.8458  0.4266 -1.3232
 4177TIP3    H212496   5.440   0.824   5.403 -0.2352  0.2812  0.6710
 4178TIP3   OH212497   5.789   2.963   4.367  0.3094 -0.1336 -0.6904
 4178TIP3    H112498   5.762   2.996   4.281  0.1327 -2.3735 -1.5549
 4178TIP3    H212499   5.842   3.034   4.404 -1.2939  1.7057 -1.7470
 4179TIP3   OH212500   5.591   4.786   4.583 -0.2634  0.0800 -0.0514
 4179TIP3    H112501   5.524   4.809   4.518  0.9547  0.0991 -1.3364
 4179TIP3    H212502   5.650   4.861   4.585  1.4518 -1.1610 -1.2543
 4180TIP3   OH212503   1.843   6.151   5.528  0.5065 -0.4486 -0.1553
 4180TIP3    H112504   1.884   6.192   5.452  1.6582 -0.9337  0.1799
 4180TIP3    H212505   1.816   6.224   5.583 -2.5116  0.0462 -2.0232
 4181TIP3   OH212506   2.897   4.324   1.212 -0.0639 -0.2350 -0.0331
 4181TIP3    H112507   2.894   4.270   1.133 -0.2984  0.1082 -0.2630
 4181TIP3    H212508   2.979   4.301   1.254 -0.0434 -0.5867 -0.2594
 4182TIP3   OH212509   2.066   1.625   1.709 -0.9984 -0.3885  0.0805
 4182TIP3    H112510   2.154   1.657   1.730 -1.6692  1.9131 -0.3549
 4182TIP3    H212511   2.038   1.578   1.787  0.4180 -0.7673  0.3932
 4183TIP3   OH212512   4.450   3.024   4.804  0.2543 -0.2162  0.1571
 4183TIP3    H112513   4.374   3.047   4.751  0.5449  0.4861  0.0378
 4183TIP3    H212514   4.478   2.939   4.770  0.6116  0.3531 -1.0273
 4184TIP3   OH212515   4.306   4.740   1.637 -0.0340  0.0941 -0.4809
 4184TIP3    H112516   4.242   4.672   1.659  1.4829 -1.0151  0.6677
 4184TIP3    H212517   4.256   4.822   1.644 -1.6264 -0.7948 -0.8359
 4185TIP3   OH212518   1.821   0.479   4.054  0.5094 -0.3933  0.5494
 4185TIP3    H112519   1.908   0.500   4.019  0.3779 -1.2107 -0.3080
 4185TIP3    H212520   1.821   0.384   4.063 -0.9123 -0.6361 -1.2757
 4186TIP3   OH212521   5.937   2.857   0.611  0.1635 -0.7138 -0.1878
 4186TIP3    H112522   5.992   2.924   0.570  0.7344 -0.0785  1.5017
 4186TIP3    H212523   5.849   2.892   0.608  0.3667 -0.1678  0.0913
 4187TIP3   OH212524   0.518   4.240   5.898 -0.4210  0.2680 -0.2482
 4187TIP3    H112525   0.427   4.213   5.885 -0.3892 -0.3723  0.7434
 4187TIP3    H212526   0.532   4.310   5.834 -1.8953  1.0089  0.1903
 4188TIP3   OH212527   6.833   3.930   3.923  0.2003 -0.1714  0.4210
 4188TIP3    H112528   6.876   3.884   3.995  2.6461  2.7242  1.0346
 4188TIP3    H212529   6.892   3.918   3.848  2.9907  4.4720  1.4573
 4189TIP3   OH212530   0.487   4.154   0.455 -0.4844  0.7122 -0.4491
 4189TIP3    H112531   0.535   4.168   0.374 -1.6150  2.2219 -0.9035
 4189TIP3    H212532   0.498   4.236   0.504  0.4581 -0.2958  1.0974
 4190TIP3   OH212533   0.348   3.073   0.420  0.3603  0.2880 -0.0194
 4190TIP3    H112534   0.378   3.124   0.495  2.2577 -1.4073  0.4382
 4190TIP3    H212535   0.354   3.134   0.346 -0.4923  1.6394  0.9709
 4191TIP3   OH212536   3.705   2.577   1.094  0.2899 -0.0909 -0.6083
 4191TIP3    H112537   3.691   2.614   1.007  1.0312 -0.8362 -1.0597
 4191TIP3    H212538   3.683   2.649   1.154  0.3043  0.6126 -1.4183
 4192TIP3   OH212539   1.242   1.612   0.032  0.6883 -0.0241 -0.5839
 4192TIP3    H112540   1.146   1.606   0.033  0.7660 -1.5857  0.0081
 4192TIP3    H212541   1.269   1.551  -0.036  1.2450  1.5529 -1.8535
 4193TIP3   OH212542   2.843   5.352   1.189  0.8362 -0.2403 -0.0762
 4193TIP3    H112543   2.907   5.421   1.175  0.1600  0.4886  0.3666
 4193TIP3    H212544   2.847   5.332   1.282  0.9645 -0.7390 -0.1843
 4194TIP3   OH212545   0.888   4.469   3.017  0.0973 -0.5281  0.4625
 4194TIP3    H112546   0.827   4.541   3.000  0.6536  0.2490  1.6056
 4194TIP3    H212547   0.873   4.447   3.109 -0.5409 -2.3648 -0.0376
 4195TIP3   OH212548   2.859   2.908   5.495 -0.2829  0.4677 -0.8036
 4195TIP3    H112549   2.787   2.961   5.530 -0.2190 -0.2604  0.5088
 4195TIP3    H212550   2.816   2.845   5.437 -0.7478 -0.0811  0.1104
 4196TIP3   OH212551   5.821   3.536   3.645 -0.3381 -0.3497 -0.4171
 4196TIP3    H112552   5.759   3.607   3.658 -0.3421 -0.3584 -0.3876
 4196TIP3    H212553   5.899   3.562   3.694 -0.6844 -0.8113  0.4028
 4197TIP3   OH212554   4.342   3.946   5.719  0.2172 -0.2385  0.1495
 4197TIP3    H112555   4.330   3.978   5.809  0.8435  0.4146  0.0144
 4197TIP3    H212556   4.433   3.919   5.715 -0.5605 -3.3425  0.6151
 4198TIP3   OH212557   1.932   4.221   3.131  0.1587 -0.5619 -0.1044
 4198TIP3    H112558   1.896   4.142   3.090 -0.1439 -1.5404  1.9350
 4198TIP3    H212559   1.882   4.231   3.212  0.4163  1.5668 -0.1534
 4199TIP3   OH212560   3.825   4.868   0.337 -0.2663 -0.0876 -0.5355
 4199TIP3    H112561   3.764   4.929   0.379  1.8009  1.7035  0.0494
 4199TIP3    H212562   3.855   4.915   0.259  0.8125 -0.6566 -0.4717
 4200TIP3   OH212563   0.564   5.449   0.858 -0.0183 -0.2487  0.1188
 4200TIP3    H112564   0.590   5.365   0.898  0.0972  0.3796  1.4064
 4200TIP3    H212565   0.478   5.431   0.820 -1.3674 -0.2523  2.9045
 4201TIP3   OH212566   5.904   2.424   3.132  0.4475 -0.1392  0.2951
 4201TIP3    H112567   5.925   2.510   3.169 -1.6207  2.0895 -3.1637
 4201TIP3    H212568   5.980   2.401   3.079  0.7635 -0.2025  0.7679
 4202TIP3   OH212569   3.827   5.246   1.443 -0.4721  0.1137  0.0212
 4202TIP3    H112570   3.800   5.271   1.531 -0.7515 -1.5824  0.4511
 4202TIP3    H212571   3.868   5.325   1.407 -0.0365  0.7319  1.7907
 4203TIP3   OH212572   2.833   5.570   0.118  0.2778 -0.0397  0.0739
 4203TIP3    H112573   2.743   5.590   0.091  0.4932 -1.3268 -1.7992
 4203TIP3    H212574   2.874   5.656   0.131 -0.7413  0.6010 -0.7558
 4204TIP3   OH212575   3.629   0.155   5.792 -0.0864  0.6237  0.4067
 4204TIP3    H112576   3.581   0.144   5.710 -1.1672 -0.1862  1.1221
 4204TIP3    H212577   3.717   0.184   5.764  0.4055 -2.0215 -1.2111
 4205TIP3   OH212578   4.050   6.092   2.259  0.0770 -0.4714 -0.0784
 4205TIP3    H112579   3.969   6.140   2.274 -0.3086 -1.5385  1.4653
 4205TIP3    H212580   4.117   6.142   2.305 -0.0212 -0.4999  0.0971
 4206TIP3   OH212581   0.488   5.352   0.284 -0.0107  0.0005  0.3124
 4206TIP3    H112582   0.401   5.388   0.263 -0.1775 -1.6780 -2.3552
 4206TIP3    H212583   0.474   5.304   0.366 -2.2989 -2.1504 -1.1750
 4207TIP3   OH212584   4.423   0.311   5.778 -0.3665 -0.4023  0.4857
 4207TIP3    H112585   4.395   0.364   5.853 -0.3240  0.0771  0.1656
 4207TIP3    H212586   4.443   0.374   5.710  0.9182 -0.7661  0.4996
 4208TIP3   OH212587   5.625   5.519   4.268 -0.2096  0.1398 -0.1863
 4208TIP3    H112588   5.620   5.562   4.183 -2.5173  1.8266  0.7161
 4208TIP3    H212589   5.580   5.436   4.255  1.1488 -0.5096 -1.0357
 4209TIP3   OH212590   4.194   0.670   5.869 -0.4685 -0.0549  0.1564
 4209TIP3    H112591   4.245   0.714   5.801 -1.6067 -0.4927 -1.0234
 4209TIP3    H212592   4.217   0.716   5.950  3.2764 -1.4419  0.0743
 4210TIP3   OH212593   4.606   1.362   4.755 -0.1198  0.0050  0.7364
 4210TIP3    H112594   4.575   1.351   4.665  1.2079 -2.1198  0.4766
 4210TIP3    H212595   4.664   1.438   4.752  1.3662 -1.1383 -0.6454
 4211TIP3   OH212596   6.710   4.054   0.630 -0.2748 -0.0250 -0.2330
 4211TIP3    H112597   6.683   3.966   0.660  1.6042 -0.8531 -0.8261
 4211TIP3    H212598   6.779   4.080   0.691 -0.2027  0.6521 -0.5949
 4212TIP3   OH212599   3.258   6.203   4.463 -0.4217 -0.1172  0.4983
 4212TIP3    H112600   3.168   6.235   4.476 -0.2526  1.0535 -0.9456
 4212TIP3    H212601   3.286   6.176   4.550 -2.6620 -1.8954  0.7690
 4213TIP3   OH212602   4.739   2.036   1.055  0.1393  0.2422  0.5566
 4213TIP3    H112603   4.710   2.095   0.986  1.6668  0.8715  0.4035
 4213TIP3    H212604   4.683   2.056   1.130  0.6027  1.8677  0.4909
 4214TIP3   OH212605   5.431   5.313   4.545 -0.2158 -0.1629 -0.3170
 4214TIP3    H112606   5.406   5.228   4.580 -2.4192  0.2849 -0.6465
 4214TIP3    H212607   5.459   5.364   4.621 -2.6549  0.0284  0.5156
 4215TIP3   OH212608   5.690   4.232   2.855  0.2066  0.5020  0.3213
 4215TIP3    H112609   5.664   4.324   2.848  0.1916  0.4569 -0.2657
 4215TIP3    H212610   5.671   4.195   2.769 -0.1674 -0.1516  0.6795
 4216TIP3   OH212611   4.474   5.835   2.170  0.6750 -0.2708 -0.2822
 4216TIP3    H112612   4.514   5.862   2.087 -0.0169  0.0570 -0.5123
 4216TIP3    H212613   4.548   5.804   2.222  1.1980  0.0564 -0.8092
 4217TIP3   OH212614   1.713   1.506   3.535  0.3079  0.6970  0.1082
 4217TIP3    H112615   1.739   1.470   3.450 -0.4059  1.0665 -0.2779
 4217TIP3    H212616   1.788   1.559   3.562 -0.0177  1.7988 -1.0170
 4218TIP3   OH212617   4.277   0.679   0.931  0.1393  0.9234 -0.1717
 4218TIP3    H112618   4.199   0.657   0.879 -1.3062  3.6198  0.6354
 4218TIP3    H212619   4.336   0.722   0.869  0.8233 -0.6872 -0.6785
 4219TIP3   OH212620   4.573   2.923   1.147 -1.0031  0.7351  0.2508
 4219TIP3    H112621   4.667   2.909   1.158 -0.7581  2.6074  0.9626
 4219TIP3    H212622   4.543   2.847   1.098  1.0989  0.6923 -1.1014
 4220TIP3   OH212623   0.892   3.660   2.916  0.1697 -0.3229 -0.0671
 4220TIP3    H112624   0.876   3.754   2.920  0.5995 -0.2479 -0.0615
 4220TIP3    H212625   0.864   3.635   2.827 -1.8136 -0.5589  0.5673
 4221TIP3   OH212626   1.898   5.730   2.044 -0.2548  0.2683  0.2845
 4221TIP3    H112627   1.865   5.641   2.035  0.8131 -0.1998  0.8931
 4221TIP3    H212628   1.844   5.769   2.113 -0.9207  0.2027 -0.1880
 4222TIP3   OH212629   0.066   1.249   1.242 -0.3695  0.1099  0.3839
 4222TIP3    H112630   0.023   1.180   1.192 -1.4389  1.2164 -0.2795
 4222TIP3    H212631   0.142   1.206   1.282  1.1510 -0.6597 -2.9427
 4223TIP3   OH212632   3.806   4.041   3.980 -0.3389  0.2530  0.0310
 4223TIP3    H112633   3.800   3.979   3.907 -1.6108  0.5283 -0.1155
 4223TIP3    H212634   3.849   4.118   3.942 -1.8722  0.7843 -0.7443
 4224TIP3   OH212635   5.531   1.260   0.891 -0.0124  0.1650 -0.2267
 4224TIP3    H112636   5.509   1.286   0.980 -0.6128 -0.2355 -0.2524
 4224TIP3    H212637   5.454   1.282   0.839  0.8385  1.6735 -0.9150
 4225TIP3   OH212638   6.994   2.124   3.029  0.3804  0.2952 -0.2952
 4225TIP3    H112639   6.994   2.028   3.025  1.4109  0.2012  1.0135
 4225TIP3    H212640   6.967   2.152   2.942  0.2688 -1.1840 -0.7657
 4226TIP3   OH212641   2.214   3.871   1.989  0.2090  0.7948 -0.8463
 4226TIP3    H112642   2.234   3.963   1.972  1.1662  0.3263 -2.4414
 4226TIP3    H212643   2.291   3.823   1.958 -0.5135 -0.5914 -0.5791
 4227TIP3   OH212644   2.274   6.544   0.259 -0.1748 -0.2861  0.1571
 4227TIP3    H112645   2.193   6.497   0.281  0.3712 -2.3893 -1.9071
 4227TIP3    H212646   2.338   6.513   0.322 -0.3119 -0.8165  0.0431
 4228TIP3   OH212647   0.513   2.825   2.101 -0.3075  0.2754  0.1942
 4228TIP3    H112648   0.503   2.735   2.132  2.0678 -0.0536  0.2213
 4228TIP3    H212649   0.431   2.868   2.124 -1.2749 -1.7254  0.6952
 4229TIP3   OH212650   5.085   2.542   1.427  0.0058  0.1843 -0.2538
 4229TIP3    H112651   5.129   2.589   1.356  0.5672  1.6256  1.0099
 4229TIP3    H212652   5.118   2.453   1.421  0.2620  0.3506 -1.6087
 4230TIP3   OH212653   2.195   1.009   3.178 -0.4804  0.3052  0.0415
 4230TIP3    H112654   2.278   1.036   3.217 -1.3724  0.0193  2.3043
 4230TIP3    H212655   2.189   1.060   3.097  2.9845 -1.4881 -1.5144
 4231TIP3   OH212656   0.891   0.938   1.586 -0.0390 -0.5169 -0.2566
 4231TIP3    H112657   0.912   0.857   1.539 -0.5715 -0.9719  0.2839
 4231TIP3    H212658   0.848   0.993   1.520  1.2579 -0.2496 -0.9110
 4232TIP3   OH212659   0.868   0.140   3.426  0.5580  0.7972  0.2503
 4232TIP3    H112660   0.834   0.055   3.396 -0.0658  0.1989  2.4720
 4232TIP3    H212661   0.793   0.199   3.422  0.1004  0.3652  1.8340
 4233TIP3   OH212662   1.197   5.603   0.931 -0.1570  0.0071  0.1647
 4233TIP3    H112663   1.205   5.521   0.883  1.5248  0.7181 -0.8803
 4233TIP3    H212664   1.220   5.670   0.866  0.5670  1.1265  1.5291
 4234TIP3   OH212665   3.633   6.327   3.850  0.2306 -0.3706 -0.3577
 4234TIP3    H112666   3.716   6.294   3.887  0.3114 -1.9046 -1.7496
 4234TIP3    H212667   3.637   6.421   3.863  1.3848 -0.5878  1.2042
 4235TIP3   OH212668   3.889   6.554   1.636 -0.2377  0.7638  0.3352
 4235TIP3    H112669   3.849   6.467   1.629 -0.2208  0.7449  0.4721
 4235TIP3    H212670   3.865   6.585   1.723  0.0754  0.7366  0.4356
 4236TIP3   OH212671   0.567   3.774   1.632 -0.2711 -0.0130  0.4324
 4236TIP3    H112672   0.650   3.821   1.646  0.3635 -1.0557  0.2734
 4236TIP3    H212673   0.500   3.841   1.644  0.6756  2.0130 -3.7958
 4237TIP3   OH212674   0.627   4.250   1.263 -0.1829  0.3753 -1.1415
 4237TIP3    H112675   0.649   4.230   1.354  0.6829  2.5940 -0.8080
 4237TIP3    H212676   0.657   4.174   1.214 -1.4771 -1.2755  0.4726
 4238TIP3   OH212677   4.351   3.300   3.090 -0.3606 -0.2463  0.3279
 4238TIP3    H112678   4.314   3.384   3.064  1.6886  0.4287 -0.5886
 4238TIP3    H212679   4.382   3.261   3.008 -0.1184 -1.3010  0.9035
 4239TIP3   OH212680   0.305   4.286   2.101 -0.0556 -0.5544  0.3791
 4239TIP3    H112681   0.336   4.222   2.038  2.3406  0.6507  0.2295
 4239TIP3    H212682   0.324   4.247   2.186  1.3891 -0.1004  0.2881
 4240TIP3   OH212683   5.475   2.947   4.114 -0.0501  0.2693  0.1677
 4240TIP3    H112684   5.454   2.853   4.117 -0.4989  0.3883  1.4714
 4240TIP3    H212685   5.571   2.950   4.113 -0.0234 -0.2053  0.6750
 4241TIP3   OH212686   6.412   3.208   3.458  0.3024  0.4484 -0.1749
 4241TIP3    H112687   6.417   3.157   3.377  0.5472  1.1847 -0.6375
 4241TIP3    H212688   6.499   3.199   3.498  0.9207  1.8579 -1.1204
 4242TIP3   OH212689   6.741   3.407   4.279  0.6962  0.5700  0.0237
 4242TIP3    H112690   6.820   3.366   4.245  0.6814 -1.2906  1.9918
 4242TIP3    H212691   6.672   3.343   4.263 -0.4425  2.0966 -1.5046
 4243TIP3   OH212692   0.835   3.367   3.814  0.0409  0.0320  0.0088
 4243TIP3    H112693   0.861   3.282   3.848  1.7827  1.0840  1.5159
 4243TIP3    H212694   0.918   3.410   3.790 -0.8377  1.0730 -1.3371
 4244TIP3   OH212695   5.632   0.567   2.810  0.3267 -0.4151  0.4530
 4244TIP3    H112696   5.615   0.512   2.887  0.6891 -0.7024  0.3284
 4244TIP3    H212697   5.598   0.516   2.736  1.9233 -1.1085  0.1668
 4245TIP3   OH212698   3.786   2.987   5.668  0.9686  0.2263 -0.1324
 4245TIP3    H112699   3.766   3.014   5.579 -1.1916 -0.0791  0.1954
 4245TIP3    H212700   3.801   2.892   5.662  0.8769  0.2146 -0.1701
 4246TIP3   OH212701   3.425   4.400   2.928  0.9323 -0.1032  0.3228
 4246TIP3    H112702   3.369   4.447   2.866  1.0093  0.2280  0.5048
 4246TIP3    H212703   3.364   4.365   2.993  0.7277 -1.3750 -0.5212
 4247TIP3   OH212704   3.350   3.307   4.449  0.4637 -0.3047 -0.0942
 4247TIP3    H112705   3.435   3.289   4.409  1.2063  0.6804  1.0144
 4247TIP3    H212706   3.353   3.264   4.534 -0.6832 -1.4095 -0.5665
 4248TIP3   OH212707   6.692   2.781   0.552 -0.1694  0.3965  0.6382
 4248TIP3    H112708   6.761   2.804   0.614  0.3249 -0.0193  0.2414
 4248TIP3    H212709   6.734   2.780   0.467 -0.3920 -0.9604  0.5164
 4249TIP3   OH212710   3.914   0.868   2.354 -0.2039 -0.2059  0.5006
 4249TIP3    H112711   3.931   0.776   2.336 -3.8874 -1.2109  1.1966
 4249TIP3    H212712   3.921   0.876   2.449 -1.8742 -0.3622  0.6727
 4250TIP3   OH212713   0.229   2.493   3.611 -0.5815 -0.0335  0.5385
 4250TIP3    H112714   0.157   2.480   3.548 -0.1151 -0.8683  0.1625
 4250TIP3    H212715   0.185   2.520   3.692 -1.2407  0.4415  0.0356
 4251TIP3   OH212716   5.327   3.224   0.375  0.2425  0.4726  0.1909
 4251TIP3    H112717   5.312   3.162   0.447 -0.2646 -0.0768 -0.3727
 4251TIP3    H212718   5.397   3.184   0.323 -0.4504  0.0897 -0.4716
 4252TIP3   OH212719   0.869   5.764   0.465  0.2069  0.4957  0.2564
 4252TIP3    H112720   0.908   5.843   0.428 -0.7341  0.1067 -1.6938
 4252TIP3    H212721   0.776   5.771   0.445  0.3200 -1.8654 -1.5744
 4253TIP3   OH212722   5.866   2.265   1.696 -0.1204 -0.2393 -0.0748
 4253TIP3    H112723   5.869   2.357   1.723 -0.1832 -0.2499 -0.0306
 4253TIP3    H212724   5.829   2.268   1.607  1.1965 -0.1107 -0.6343
 4254TIP3   OH212725   3.313   6.324   5.207  0.6556 -0.0572 -0.2206
 4254TIP3    H112726   3.327   6.230   5.195  0.5844 -0.3949  1.9181
 4254TIP3    H212727   3.316   6.336   5.302 -0.2721  1.9626 -0.4092
 4255TIP3   OH212728   0.090   2.553   0.414 -0.0293 -0.2120 -0.5391
 4255TIP3    H112729  -0.004   2.560   0.399  0.3215  2.6556 -1.9615
 4255TIP3    H212730   0.128   2.549   0.326  1.2403 -0.7082  0.0118
 4256TIP3   OH212731   6.599   1.866   4.095  0.4448 -0.5832 -0.1546
 4256TIP3    H112732   6.678   1.830   4.134  1.2304  0.4744 -0.7071
 4256TIP3    H212733   6.624   1.955   4.068 -0.3041 -0.9309 -2.1957
 4257TIP3   OH212734   1.544   4.145   0.909 -0.7512  0.1381  0.2755
 4257TIP3    H112735   1.571   4.070   0.857 -1.1448 -0.0535  0.3435
 4257TIP3    H212736   1.472   4.184   0.860  1.0418  1.9578 -1.0424
 4258TIP3   OH212737   3.238   2.098   5.245 -0.1930 -0.3206 -0.3847
 4258TIP3    H112738   3.193   2.154   5.309  0.7823  0.5104 -0.4200
 4258TIP3    H212739   3.275   2.158   5.181  1.2765 -0.9600 -0.1701
 4259TIP3   OH212740   4.608   6.340   4.906  0.5598 -0.4515 -0.3729
 4259TIP3    H112741   4.576   6.268   4.960 -0.9251 -0.4607 -1.2182
 4259TIP3    H212742   4.675   6.383   4.960 -0.6547 -0.6501  1.3545
 4260TIP3   OH212743   4.340   0.327   3.614 -0.6469 -0.4045 -0.4518
 4260TIP3    H112744   4.420   0.329   3.561  1.2758  0.1157  2.3084
 4260TIP3    H212745   4.278   0.381   3.564  1.1114  0.2398 -2.0734
 4261TIP3   OH212746   3.684   0.859   5.355 -0.4464  0.4513  0.5691
 4261TIP3    H112747   3.720   0.771   5.343  0.5941  0.8953  0.2834
 4261TIP3    H212748   3.654   0.862   5.446  0.3409  0.0959  0.8415
 4262TIP3   OH212749   5.249   4.034   1.126  0.5204 -0.1619  0.4174
 4262TIP3    H112750   5.169   4.006   1.082  1.8965 -1.6606 -1.2934
 4262TIP3    H212751   5.291   3.953   1.155  1.1062  0.6354  1.9504
 4263TIP3   OH212752   0.204   4.926   1.963 -0.3354  0.1922  0.0378
 4263TIP3    H112753   0.126   4.870   1.958 -0.2565  0.0882 -0.0522
 4263TIP3    H212754   0.267   4.884   1.904 -0.7567  1.1543 -1.1230
 4264TIP3   OH212755   4.307   2.313   5.419 -0.2284 -0.0871  0.1714
 4264TIP3    H112756   4.377   2.271   5.371  0.2445 -0.4899  1.1868
 4264TIP3    H212757   4.324   2.407   5.411  0.5133 -0.1880  0.5277
 4265TIP3   OH212758   4.688   6.701   3.325 -0.5035 -0.2195  0.0448
 4265TIP3    H112759   4.697   6.666   3.237 -2.4882 -2.1484  0.5288
 4265TIP3    H212760   4.665   6.626   3.379 -1.7237  1.2881  1.7620
 4266TIP3   OH212761   6.142   4.304   3.592  0.0007  0.2542 -0.4273
 4266TIP3    H112762   6.107   4.374   3.536  0.3400  0.0664 -0.8726
 4266TIP3    H212763   6.118   4.332   3.681 -0.3208  0.6787 -0.6390
 4267TIP3   OH212764   6.618   2.955   1.611 -0.3205 -0.3811 -0.6687
 4267TIP3    H112765   6.563   3.034   1.607 -0.1758 -0.0965  1.6430
 4267TIP3    H212766   6.674   2.961   1.534 -0.5265  1.6127 -0.7150
 4268TIP3   OH212767   0.895   2.698   0.503 -0.4943 -0.3509 -0.3114
 4268TIP3    H112768   0.972   2.752   0.486  0.8648 -2.9288 -3.5289
 4268TIP3    H212769   0.827   2.734   0.446 -1.5095  1.3503  1.8407
 4269TIP3   OH212770   2.675   0.670   2.444  0.7491 -0.8822  0.1872
 4269TIP3    H112771   2.764   0.635   2.446  0.7547 -0.8393  1.0525
 4269TIP3    H212772   2.677   0.745   2.503  0.0495 -1.1013  0.5042
 4270TIP3   OH212773   5.191   6.032   4.262  0.1903  0.4253  0.6229
 4270TIP3    H112774   5.170   6.098   4.328  1.6878  0.8915  0.6881
 4270TIP3    H212775   5.273   6.063   4.223  0.5865 -1.0629  0.1923
 4271TIP3   OH212776   0.847   1.852   2.528 -0.0225 -0.2874  0.0086
 4271TIP3    H112777   0.896   1.926   2.491  1.6927 -1.7125 -0.7102
 4271TIP3    H212778   0.788   1.825   2.458  1.8145 -1.7149 -1.1089
 4272TIP3   OH212779   0.106   3.894   1.477 -0.0699 -0.0582  0.1284
 4272TIP3    H112780   0.143   3.807   1.467  0.8264  0.2530  0.6531
 4272TIP3    H212781   0.118   3.936   1.392  2.2167  0.5654  0.6957
 4273TIP3   OH212782   2.418   1.299   2.665  0.4437  0.4505  0.1112
 4273TIP3    H112783   2.437   1.270   2.576 -0.9862  0.4445 -0.2048
 4273TIP3    H212784   2.420   1.394   2.661  0.7292  0.4498  0.1664
 4274TIP3   OH212785   3.383   4.250   3.182  0.2317 -0.1044  0.1556
 4274TIP3    H112786   3.391   4.330   3.235  0.2042  0.4311 -0.6298
 4274TIP3    H212787   3.300   4.212   3.208  1.1584 -1.0057  2.0376
 4275TIP3   OH212788   5.961   5.563   4.832  0.3743  0.1748 -0.0496
 4275TIP3    H112789   6.004   5.570   4.747 -0.6092  2.0687 -0.4385
 4275TIP3    H212790   5.917   5.478   4.829 -0.0003  0.3860 -1.6397
 4276TIP3   OH212791   2.072   0.112   5.231 -0.0748  0.2877 -0.0335
 4276TIP3    H112792   2.033   0.198   5.221  0.2571  0.5459  0.8498
 4276TIP3    H212793   2.166   0.127   5.222  0.1649  0.3577  2.1393
 4277TIP3   OH212794   1.811   4.591   0.104  0.0372 -0.1737  0.3846
 4277TIP3    H112795   1.905   4.592   0.126  0.3043 -0.4423 -0.6959
 4277TIP3    H212796   1.806   4.634   0.019 -0.7836 -0.4445  0.2910
 4278TIP3   OH212797   6.795   5.181   1.880 -0.4984  0.3173  0.1048
 4278TIP3    H112798   6.889   5.196   1.888  0.0550 -1.8272 -1.4856
 4278TIP3    H212799   6.783   5.091   1.908 -1.8106  0.0085 -1.3298
 4279TIP3   OH212800   3.459   3.178   0.405  0.0220 -0.2485 -0.0240
 4279TIP3    H112801   3.396   3.224   0.460  0.5497  0.5081 -0.0370
 4279TIP3    H212802   3.445   3.212   0.317  1.4092  1.0311  0.2067
 4280TIP3   OH212803   1.596   3.694   1.836 -0.7683 -0.7428 -0.4662
 4280TIP3    H112804   1.669   3.631   1.841 -0.1060 -0.0772 -1.3419
 4280TIP3    H212805   1.531   3.651   1.780 -1.2339 -1.4955  0.6158
 4281TIP3   OH212806   1.390   0.224   4.640  0.2512  0.1886  0.2353
 4281TIP3    H112807   1.301   0.202   4.613 -0.3558  2.7725 -0.1636
 4281TIP3    H212808   1.405   0.171   4.718 -1.4393 -0.6716  0.0269
 4282TIP3   OH212809   4.100   0.324   3.962  0.2966  0.2079  0.0281
 4282TIP3    H112810   4.126   0.232   3.956  0.5830  0.3412 -1.0653
 4282TIP3    H212811   4.155   0.361   4.030 -1.3595 -0.9190  2.1101
 4283TIP3   OH212812   1.121   6.771   4.009 -0.1839 -0.0769 -0.2421
 4283TIP3    H112813   1.189   6.750   3.945  0.4156  0.9071  0.0590
 4283TIP3    H212814   1.131   6.865   4.026 -1.2960 -0.0155  0.1811
 4284TIP3   OH212815   3.878   0.646   1.842 -0.1277 -0.3645 -0.1787
 4284TIP3    H112816   3.888   0.685   1.929  0.0713  0.1612 -0.4349
 4284TIP3    H212817   3.967   0.622   1.816 -0.2980 -1.3898  0.1562
 4285TIP3   OH212818   1.615   1.916   3.055  0.1952 -0.0498 -0.4841
 4285TIP3    H112819   1.579   1.960   2.978  1.3285 -0.0049 -1.0114
 4285TIP3    H212820   1.695   1.965   3.075  0.5149 -0.7687  0.0207
 4286TIP3   OH212821   2.330   0.176   5.159 -0.2677 -0.0495  0.0773
 4286TIP3    H112822   2.333   0.234   5.083  0.0740  1.4281  1.1637
 4286TIP3    H212823   2.416   0.184   5.199 -0.3497 -1.0311  0.4662
 4287TIP3   OH212824   4.386   5.018   0.034 -0.0516 -0.0402 -0.3662
 4287TIP3    H112825   4.371   4.982  -0.053 -0.8240  0.5780 -0.4941
 4287TIP3    H212826   4.302   5.054   0.061  0.3279  0.3221  0.3870
 4288TIP3   OH212827   5.491   6.664   5.041 -0.3150 -0.5000 -0.1865
 4288TIP3    H112828   5.456   6.582   5.076  0.2314 -0.7854 -0.3061
 4288TIP3    H212829   5.413   6.720   5.030 -0.4602 -0.2131  1.9192
 4289TIP3   OH212830   3.104   4.173   3.236  0.0043 -0.3731 -0.5867
 4289TIP3    H112831   3.055   4.104   3.191  1.0325 -1.2398 -0.4179
 4289TIP3    H212832   3.051   4.252   3.224  0.0043 -0.6539 -2.9389
 4290TIP3   OH212833   4.043   3.938   5.919 -0.2265 -0.0779 -0.2398
 4290TIP3    H112834   3.969   3.991   5.888 -0.7544 -0.6829 -0.0376
 4290TIP3    H212835   4.070   3.888   5.842 -0.1848 -0.0426 -0.2485
 4291TIP3   OH212836   0.846   6.469   2.641 -0.0089 -0.2330 -0.3927
 4291TIP3    H112837   0.788   6.421   2.700  0.0575  1.6941  1.3640
 4291TIP3    H212838   0.789   6.534   2.600  0.8265  1.8241  1.5156
 4292TIP3   OH212839   4.486   5.241   0.140  0.0963  0.3334  0.2680
 4292TIP3    H112840   4.464   5.164   0.088  0.2804  1.5636 -1.7197
 4292TIP3    H212841   4.581   5.241   0.145  0.1934  1.2058 -1.0541
 4293TIP3   OH212842   2.045   3.110   1.793  0.0423  0.0792 -0.2766
 4293TIP3    H112843   2.080   3.091   1.705 -0.3088  1.0318 -0.6347
 4293TIP3    H212844   2.121   3.139   1.843 -0.1044  1.6788 -0.9168
 4294TIP3   OH212845   2.745   6.484   0.249  0.2424  0.2475  0.5687
 4294TIP3    H112846   2.726   6.555   0.188 -0.1746 -0.6140 -0.3364
 4294TIP3    H212847   2.839   6.490   0.266  0.0375  1.6604  1.3572
 4295TIP3   OH212848   3.168   2.814   2.079  0.4325  0.3506  0.7697
 4295TIP3    H112849   3.115   2.813   2.159  0.7413  0.6077  0.9816
 4295TIP3    H212850   3.243   2.868   2.101  1.0677 -0.4748  0.6443
 4296TIP3   OH212851   2.175   4.849   1.288  0.4733 -0.0125  0.1890
 4296TIP3    H112852   2.136   4.763   1.308 -0.5956  0.3309 -0.3256
 4296TIP3    H212853   2.138   4.907   1.354 -1.2175  0.6471 -1.2641
 4297TIP3   OH212854   4.618   5.117   2.512  0.2756 -0.1916  0.4965
 4297TIP3    H112855   4.623   5.031   2.551 -0.1824  0.7442  2.7725
 4297TIP3    H212856   4.526   5.125   2.484  0.3170 -0.4244  0.2899
 4298TIP3   OH212857   1.198   5.582   3.438  0.1890 -0.0866  0.3963
 4298TIP3    H112858   1.110   5.607   3.466  0.6267 -0.3332  2.0820
 4298TIP3    H212859   1.199   5.487   3.443  1.1025 -0.0234  2.2928
 4299TIP3   OH212860   5.389   3.011   3.467 -0.1975 -0.2679 -0.6800
 4299TIP3    H112861   5.427   2.999   3.380 -1.4732 -1.9667 -1.0507
 4299TIP3    H212862   5.329   3.085   3.457  0.1519 -0.0296 -1.0628
 4300TIP3   OH212863   5.666   0.546   3.907 -0.1687  0.1867  0.0310
 4300TIP3    H112864   5.622   0.621   3.947  0.7225  1.0362 -0.5346
 4300TIP3    H212865   5.703   0.580   3.826  0.2783 -0.8653 -0.2323
 4301TIP3   OH212866   3.692   6.408   0.121  0.5089  0.6486 -0.3960
 4301TIP3    H112867   3.703   6.327   0.072  1.0292  0.6471 -0.2863
 4301TIP3    H212868   3.670   6.380   0.210  2.7571  0.5401  0.1875
 4302TIP3   OH212869   4.094   5.699   4.511  0.2299  0.6679  0.1110
 4302TIP3    H112870   4.051   5.764   4.568  1.0925  0.3631  1.1424
 4302TIP3    H212871   4.033   5.625   4.509 -0.0656  0.9063  0.1696
 4303TIP3   OH212872   3.293   4.195   4.829 -0.4168 -0.2183  0.3769
 4303TIP3    H112873   3.374   4.157   4.863  0.9259  1.2324 -1.0491
 4303TIP3    H212874   3.250   4.122   4.784  0.1765 -0.9667  0.9856
 4304TIP3   OH212875   4.368   5.311   4.977 -0.0059  0.0014  0.2359
 4304TIP3    H112876   4.395   5.253   5.049  0.0404  0.8937  0.9464
 4304TIP3    H212877   4.350   5.251   4.905  1.0864 -0.8307  0.6227
 4305TIP3   OH212878   5.973   6.416   4.937 -0.0963  0.1026 -0.0256
 4305TIP3    H112879   5.897   6.417   4.879 -0.1652 -0.7864  0.0351
 4305TIP3    H212880   6.023   6.495   4.913 -1.0493  0.7160 -0.0357
 4306TIP3   OH212881   1.138   2.387   2.817 -0.0584 -0.1994  0.1151
 4306TIP3    H112882   1.124   2.324   2.888  1.1033 -1.3655 -0.6376
 4306TIP3    H212883   1.091   2.350   2.743  1.0841 -0.5186 -0.4847
 4307TIP3   OH212884   5.548   6.783   4.812  0.5281 -0.5096  0.5675
 4307TIP3    H112885   5.494   6.861   4.824  1.3570  0.1813 -0.0670
 4307TIP3    H212886   5.559   6.748   4.901 -0.9583 -0.6889  0.7020
 4308TIP3   OH212887   5.232   5.765   2.981  0.4832  0.4257 -0.1325
 4308TIP3    H112888   5.151   5.815   2.984  0.8521  1.0089  0.4684
 4308TIP3    H212889   5.204   5.674   2.972 -0.2171  0.6634 -0.4366
 4309TIP3   OH212890   1.716   3.055   1.371 -0.4061 -0.1852  0.1614
 4309TIP3    H112891   1.646   3.024   1.313  1.0767 -0.7284 -1.3886
 4309TIP3    H212892   1.746   3.137   1.331  0.4602 -0.4241  0.3055
 4310TIP3   OH212893   4.296   5.828   3.847 -0.0478 -0.7140  0.0277
 4310TIP3    H112894   4.325   5.790   3.765  1.0442  0.1818 -0.0306
 4310TIP3    H212895   4.365   5.805   3.910 -0.9524 -1.5336  0.7501
 4311TIP3   OH212896   4.850   1.726   1.875 -0.0233  0.5995  0.3264
 4311TIP3    H112897   4.928   1.735   1.820 -0.8195  1.4735 -0.7012
 4311TIP3    H212898   4.858   1.798   1.938  0.6020 -0.0586  1.0220
 4312TIP3   OH212899   6.913   5.978   1.819  0.0128  0.1485 -0.2970
 4312TIP3    H112900   6.846   6.021   1.872 -2.1800  0.6814 -3.2548
 4312TIP3    H212901   6.900   5.884   1.834 -2.9433  0.1157 -2.3479
 4313TIP3   OH212902   4.218   4.756   0.620 -0.1711  0.6440 -0.0314
 4313TIP3    H112903   4.292   4.807   0.652  0.0131  0.4147 -0.0970
 4313TIP3    H212904   4.254   4.670   0.600 -0.6695  0.1816  1.0017
 4314TIP3   OH212905   4.960   2.500   5.628  0.4697 -0.0438 -0.1969
 4314TIP3    H112906   4.874   2.520   5.590  0.9118  3.6562  0.3162
 4314TIP3    H212907   5.018   2.489   5.553 -0.0340 -0.2712 -0.5560
 4315TIP3   OH212908   5.837   1.735   3.487 -0.0178  0.8708  0.0314
 4315TIP3    H112909   5.806   1.660   3.436 -0.5595  0.4108  1.0073
 4315TIP3    H212910   5.893   1.783   3.426  1.0511 -0.7794 -0.3674
 4316TIP3   OH212911   4.843   2.301   0.758  0.1967  0.1253  0.2007
 4316TIP3    H112912   4.879   2.351   0.684  2.5896 -0.9589  0.5386
 4316TIP3    H212913   4.916   2.293   0.819 -0.3678 -2.9205  0.6044
 4317TIP3   OH212914   3.959   4.210   0.494  0.0857  0.6406 -0.0355
 4317TIP3    H112915   3.881   4.264   0.507  0.2543  0.7014  0.7467
 4317TIP3    H212916   4.016   4.263   0.438  0.0332  1.0660  0.3052
 4318TIP3   OH212917   4.665   3.149   3.863 -0.0430 -0.2969 -0.9358
 4318TIP3    H112918   4.708   3.074   3.903 -0.4414  0.3225  0.7564
 4318TIP3    H212919   4.735   3.197   3.820  0.7552 -0.0773  0.5350
 4319TIP3   OH212920   3.066   4.370   2.088  0.1504  0.7033 -0.3995
 4319TIP3    H112921   3.002   4.358   2.017  1.3378  0.6427 -1.5075
 4319TIP3    H212922   3.030   4.320   2.161 -0.3075 -0.6650 -1.4936
 4320TIP3   OH212923   3.100   5.198   0.633  0.0507 -0.1323 -0.3921
 4320TIP3    H112924   3.015   5.235   0.610 -0.3819 -1.5199 -1.1651
 4320TIP3    H212925   3.160   5.229   0.565 -0.1622 -0.3453 -0.6753
 4321TIP3   OH212926   3.266   3.258   1.206  0.3820 -0.3576  0.1893
 4321TIP3    H112927   3.270   3.321   1.277  1.3168 -1.0415  0.7666
 4321TIP3    H212928   3.284   3.310   1.127  1.0782  0.1113  0.6460
 4322TIP3   OH212929   5.918   5.671   5.704 -0.4048  0.2226 -0.6657
 4322TIP3    H112930   5.829   5.698   5.726 -0.0800  0.4265  0.4488
 4322TIP3    H212931   5.944   5.612   5.775  0.0135 -0.5923 -1.4655
 4323TIP3   OH212932   3.092   6.514   1.897 -0.4189  0.5307 -0.0095
 4323TIP3    H112933   3.079   6.520   1.802 -0.2750 -1.6575 -0.2282
 4323TIP3    H212934   3.010   6.476   1.930 -0.3018  0.8676  0.6784
 4324TIP3   OH212935   2.235   1.164   4.035  0.1224 -0.2761  0.1276
 4324TIP3    H112936   2.195   1.128   4.114 -1.3013  0.5756 -0.1491
 4324TIP3    H212937   2.170   1.148   3.966  0.4011  0.8284 -0.4256
 4325TIP3   OH212938   2.954   1.902   2.967  0.4942  0.2567 -0.6790
 4325TIP3    H112939   2.995   1.869   2.887  0.4889 -0.9087 -0.2299
 4325TIP3    H212940   2.973   1.835   3.033 -2.1360 -0.4003 -0.4499
 4326TIP3   OH212941   6.762   0.933   4.823 -0.1085 -0.4001  0.4374
 4326TIP3    H112942   6.696   0.977   4.769 -0.6180 -1.6418  0.0065
 4326TIP3    H212943   6.822   0.893   4.759  1.2821  0.9767  0.8175
 4327TIP3   OH212944   3.137   4.187   0.771  0.3229 -0.1441 -0.0033
 4327TIP3    H112945   3.229   4.186   0.796  0.9554 -0.5217 -2.2286
 4327TIP3    H212946   3.119   4.279   0.752  0.7972 -0.3434 -1.4682
 4328TIP3   OH212947   3.090   3.244   1.793  0.2134 -0.1090 -0.4672
 4328TIP3    H112948   3.057   3.221   1.880 -1.1081  0.5913 -0.7615
 4328TIP3    H212949   3.145   3.321   1.807 -0.0068  0.0086 -0.2491
 4329TIP3   OH212950   1.222   3.852   5.884 -0.2669 -0.2713 -0.2123
 4329TIP3    H112951   1.237   3.760   5.865 -1.0450 -0.0890 -1.9270
 4329TIP3    H212952   1.147   3.876   5.829 -1.6735  0.7960  2.0260
 4330TIP3   OH212953   6.620   6.012   2.152  0.4096 -0.2343 -0.6496
 4330TIP3    H112954   6.541   6.065   2.161  0.9545  1.1389 -3.1081
 4330TIP3    H212955   6.680   6.066   2.101  2.7440 -1.4859  0.5735
 4331TIP3   OH212956   5.989   1.945   5.643  0.2260  0.4165 -0.2114
 4331TIP3    H112957   6.073   1.988   5.659  0.6645 -0.7993  0.9520
 4331TIP3    H212958   6.005   1.853   5.665 -1.4468  0.1934  0.1935
 4332TIP3   OH212959   6.020   4.537   0.374 -0.2273  0.5953  0.5648
 4332TIP3    H112960   6.085   4.541   0.445  0.3739  1.0875  0.0071
 4332TIP3    H212961   6.028   4.448   0.339 -0.8814  0.1812  1.4185
 4333TIP3   OH212962   1.834   4.777   4.248 -0.0259 -0.1800 -0.0588
 4333TIP3    H112963   1.849   4.724   4.327  2.1853 -0.1454 -0.3898
 4333TIP3    H212964   1.912   4.831   4.241 -0.0490 -0.3746 -2.4409
 4334TIP3   OH212965   2.195   3.557   5.691  0.0284 -0.0867 -0.3338
 4334TIP3    H112966   2.157   3.625   5.747 -0.9623 -1.3019  0.5195
 4334TIP3    H212967   2.147   3.564   5.609 -2.1107 -1.5595  0.7056
 4335TIP3   OH212968   4.174   1.251   5.029 -0.5492  0.1421  0.2926
 4335TIP3    H112969   4.244   1.278   4.970  0.2774 -0.4685  0.9731
 4335TIP3    H212970   4.143   1.333   5.069 -0.6956  0.4871 -0.5135
 4336TIP3   OH212971   0.732   2.499   3.623  0.0328  0.4304  0.0791
 4336TIP3    H112972   0.749   2.448   3.702  0.1407  1.5434  0.7982
 4336TIP3    H212973   0.706   2.435   3.557  0.8428 -0.6080  0.7581
 4337TIP3   OH212974   6.708   0.611   2.128 -0.2143  0.0036 -0.4108
 4337TIP3    H112975   6.676   0.606   2.038 -2.1987  1.4695  0.1526
 4337TIP3    H212976   6.642   0.661   2.175  1.1282 -0.0810  1.7297
 4338TIP3   OH212977   0.103   0.189   0.480  0.0490  0.0621 -0.3795
 4338TIP3    H112978   0.129   0.281   0.481  0.5812 -0.0551  1.8970
 4338TIP3    H212979   0.039   0.181   0.551 -1.4730 -0.9622 -1.7911
 4339TIP3   OH212980   0.375   4.986   1.653 -0.0147  0.2214 -0.3784
 4339TIP3    H112981   0.456   4.973   1.702 -0.8296  1.4028  1.3781
 4339TIP3    H212982   0.395   4.956   1.564  1.7788 -1.1809  0.4549
 4340TIP3   OH212983   5.610   1.440   3.615 -0.9516 -0.4941  0.2585
 4340TIP3    H112984   5.606   1.458   3.521 -1.0783  0.3324  0.4143
 4340TIP3    H212985   5.669   1.365   3.622  1.3146  1.0962 -0.3051
 4341TIP3   OH212986   6.984   1.866   3.989 -0.3557  0.1457  0.5169
 4341TIP3    H112987   6.958   1.848   4.079  1.0341  0.6477  1.0387
 4341TIP3    H212988   7.027   1.785   3.960 -0.7737 -0.0044  0.2993
 4342TIP3   OH212989   6.604   6.467   3.449 -0.2525 -0.2298  0.0110
 4342TIP3    H112990   6.666   6.422   3.391  0.3791 -0.9912  1.2455
 4342TIP3    H212991   6.543   6.399   3.477 -1.1580  0.3447 -0.5232
 4343TIP3   OH212992   1.579   6.047   0.050  0.5945 -0.1683  0.0966
 4343TIP3    H112993   1.648   6.049  -0.016  0.7388 -1.1353  0.2054
 4343TIP3    H212994   1.547   5.957   0.049 -0.9199  0.3506 -0.1941
 4344TIP3   OH212995   6.916   2.195   5.300 -0.3171 -0.1941 -0.3798
 4344TIP3    H112996   6.932   2.159   5.387 -2.1794 -0.0803  0.0594
 4344TIP3    H212997   6.912   2.118   5.243  1.2392 -0.2466 -0.4635
 4345TIP3   OH212998   5.614   3.885   1.463  0.0790 -0.0911  0.1397
 4345TIP3    H112999   5.525   3.919   1.458 -0.1790 -0.8768 -1.1915
 4345TIP3    H213000   5.617   3.816   1.397  1.4223 -0.6813  0.7723
 4346TIP3   OH213001   0.899   3.132   3.902  0.3252  0.1102 -0.4993
 4346TIP3    H113002   0.953   3.069   3.855 -0.1450  0.2325 -1.2266
 4346TIP3    H213003   0.915   3.114   3.995  0.2586 -1.0240 -0.6992
 4347TIP3   OH213004   5.101   3.550   3.638 -0.8199  0.6089 -0.0580
 4347TIP3    H113005   5.160   3.508   3.701 -1.2553 -1.7518 -1.1032
 4347TIP3    H213006   5.090   3.639   3.671  2.1261  0.6860  0.9725
 4348TIP3   OH213007   5.861   1.592   4.415 -0.2511 -0.0155 -0.0148
 4348TIP3    H113008   5.832   1.667   4.467  0.2531 -0.0654  0.3469
 4348TIP3    H213009   5.782   1.540   4.403 -0.5106  0.3385  0.1300
 4349TIP3   OH213010   1.017   0.434   4.498  0.0823  0.3682  0.2767
 4349TIP3    H113011   1.025   0.460   4.590  0.9014 -0.1166  0.3534
 4349TIP3    H213012   0.930   0.464   4.472 -0.0331  0.7953  1.1179
 4350TIP3   OH213013   2.723   2.763   5.305 -0.3850 -0.1244  0.2376
 4350TIP3    H113014   2.663   2.815   5.251 -0.4513 -0.0846  0.3493
 4350TIP3    H213015   2.674   2.684   5.326  0.8296 -1.8265 -2.6832
 4351TIP3   OH213016   3.313   3.704   1.920  0.2449  0.1238  0.6223
 4351TIP3    H113017   3.337   3.791   1.887  0.2749 -1.2554 -3.6403
 4351TIP3    H213018   3.231   3.717   1.966  0.1222  2.3783 -0.1217
 4352TIP3   OH213019   4.096   1.120   2.674 -0.7092  0.4531  0.0605
 4352TIP3    H113020   4.110   1.133   2.580 -1.8250  1.1675 -0.0229
 4352TIP3    H213021   4.015   1.167   2.693 -0.9363 -0.3712  1.2276
 4353TIP3   OH213022   0.374   3.281   3.956 -0.4446 -0.0990  0.2933
 4353TIP3    H113023   0.334   3.358   3.996 -0.7405  1.5852 -2.9250
 4353TIP3    H213024   0.468   3.289   3.975 -0.5875  0.5162  0.7504
 4354TIP3   OH213025   0.664   6.788   1.077 -0.1337  0.0815 -0.7357
 4354TIP3    H113026   0.586   6.735   1.062  0.3049 -0.8631  0.2384
 4354TIP3    H213027   0.640   6.875   1.044 -1.9029  0.0276  0.2926
 4355TIP3   OH213028   2.800   4.320   0.715  0.0017 -0.3500 -0.0559
 4355TIP3    H113029   2.821   4.373   0.639  0.1602  2.6580  1.9071
 4355TIP3    H213030   2.800   4.382   0.788 -2.1828 -2.6684  2.1176
 4356TIP3   OH213031   4.321   5.094   3.921 -0.3638 -0.3106 -0.2758
 4356TIP3    H113032   4.280   5.011   3.895 -0.4055 -0.5808  0.5873
 4356TIP3    H213033   4.329   5.144   3.840 -0.3193 -1.1703 -0.8199
 4357TIP3   OH213034   4.585   6.812   1.568 -0.2841 -0.3046  0.0587
 4357TIP3    H113035   4.630   6.762   1.636  0.7182  1.7135  0.9399
 4357TIP3    H213036   4.623   6.780   1.486  1.0666 -0.2882  0.6578
 4358TIP3   OH213037   0.461   5.468   1.417  0.0808  0.4084  0.1690
 4358TIP3    H113038   0.428   5.476   1.507 -0.6396 -0.5060  0.0065
 4358TIP3    H213039   0.383   5.471   1.362 -0.0280 -3.1270 -0.1414
 4359TIP3   OH213040   3.976   1.692   3.235 -0.0169 -0.2684 -0.7684
 4359TIP3    H113041   3.958   1.600   3.213  0.0718 -0.6498  0.6652
 4359TIP3    H213042   3.965   1.697   3.330  0.8603  1.0083 -0.7083
 4360TIP3   OH213043   3.648   0.904   3.333  0.7341  0.7688 -0.4436
 4360TIP3    H113044   3.629   0.830   3.275  1.1109 -0.8132  1.3513
 4360TIP3    H213045   3.567   0.955   3.334 -0.6762 -1.3237  0.6225
 4361TIP3   OH213046   2.260   1.923   3.649  0.3617 -0.0720  0.5978
 4361TIP3    H113047   2.299   1.836   3.639 -0.3820 -0.5733  1.8838
 4361TIP3    H213048   2.300   1.958   3.729  1.4884  1.2480 -0.4950
 4362TIP3   OH213049   6.562   1.261   1.623 -0.2956  0.3099  0.3366
 4362TIP3    H113050   6.654   1.236   1.636 -0.0651  0.8737 -0.1428
 4362TIP3    H213051   6.512   1.189   1.661  0.3330  0.5671  1.6884
 4363TIP3   OH213052   0.276   5.180   2.223  0.1726  0.1294 -0.4898
 4363TIP3    H113053   0.222   5.213   2.295  0.6910  0.6535 -0.3329
 4363TIP3    H213054   0.230   5.206   2.144  0.7592  1.5805 -0.3791
 4364TIP3   OH213055   5.548   6.660   3.939  0.4123 -0.3560 -0.3068
 4364TIP3    H113056   5.477   6.713   3.901  1.8265  2.7067  0.9464
 4364TIP3    H213057   5.562   6.591   3.875 -2.3490  0.0651 -1.5597
 4365TIP3   OH213058   4.125   6.197   5.403  0.2934  0.1600  0.1297
 4365TIP3    H113059   4.099   6.245   5.325 -1.3028  0.6656  0.9262
 4365TIP3    H213060   4.195   6.249   5.442 -0.0100  0.7623 -0.1172
 4366TIP3   OH213061   0.239   1.510   3.948 -0.2681 -0.3600  0.4587
 4366TIP3    H113062   0.212   1.478   3.862 -0.2166 -1.0490  0.6875
 4366TIP3    H213063   0.278   1.595   3.932  0.2815 -0.7458 -0.2793
 4367TIP3   OH213064   4.364   1.783   2.829 -0.2304 -0.1747  0.3100
 4367TIP3    H113065   4.288   1.811   2.880 -0.8343 -3.2875  1.3178
 4367TIP3    H213066   4.353   1.827   2.744 -1.3345  2.0074  1.4861
 4368TIP3   OH213067   0.059   6.272   5.735 -0.1945 -0.1272 -0.5555
 4368TIP3    H113068  -0.005   6.307   5.673 -0.7958  0.6684  0.4676
 4368TIP3    H213069   0.107   6.348   5.766 -1.4504 -0.1389  1.6344
 4369TIP3   OH213070   3.678   6.276   2.783  0.2110 -0.3384 -0.2115
 4369TIP3    H113071   3.687   6.371   2.789 -0.2090 -0.3472  0.6073
 4369TIP3    H213072   3.749   6.250   2.724  0.0070  0.5334 -0.8654
 4370TIP3   OH213073   0.424   1.019   0.271  0.1061  0.6513 -0.0498
 4370TIP3    H113074   0.508   1.027   0.227  0.3933 -1.0085  0.1336
 4370TIP3    H213075   0.375   1.097   0.245  0.2453 -0.2041 -3.3251
 4371TIP3   OH213076   7.092   2.225   3.274  0.1043 -0.5542 -0.5932
 4371TIP3    H113077   7.176   2.181   3.284 -0.0093 -0.5216  0.6919
 4371TIP3    H213078   7.055   2.188   3.194  1.6008 -0.1187 -1.5170
 4372TIP3   OH213079   3.003   1.081   4.918  0.2887  0.3544 -0.5614
 4372TIP3    H113080   3.052   1.162   4.936 -0.3484  1.1149 -2.0462
 4372TIP3    H213081   3.058   1.034   4.855 -1.1268  1.5569 -2.8131
 4373TIP3   OH213082   6.040   3.384   5.379 -0.0391  0.3853  0.1815
 4373TIP3    H113083   6.028   3.316   5.313 -0.6861  1.4166 -0.7984
 4373TIP3    H213084   5.952   3.419   5.393 -0.1770 -0.7039  2.6299
 4374TIP3   OH213085   5.253   3.533   0.191  0.1642 -0.2482  0.3325
 4374TIP3    H113086   5.256   3.627   0.208  0.9853 -0.1272 -0.4768
 4374TIP3    H213087   5.159   3.512   0.192 -0.0899  0.7820 -0.6196
 4375TIP3   OH213088   4.318   4.431   1.581  0.6713 -0.1349 -0.4137
 4375TIP3    H113089   4.330   4.347   1.536  0.7036  0.1368 -0.9258
 4375TIP3    H213090   4.294   4.492   1.511 -1.7662 -0.2091  0.2487
 4376TIP3   OH213091   3.938   1.706   2.916 -0.2432 -0.4449 -0.5179
 4376TIP3    H113092   3.981   1.688   2.833 -0.7085 -1.5831 -0.5158
 4376TIP3    H213093   4.002   1.679   2.982 -1.0389 -2.4424 -0.5134
 4377TIP3   OH213094   5.984   1.001   2.719  0.0271 -0.1590  0.0644
 4377TIP3    H113095   5.957   1.064   2.784 -1.8472  0.1275 -0.9294
 4377TIP3    H213096   5.930   0.924   2.736  0.6515 -0.6621 -0.1753
 4378TIP3   OH213097   5.425   1.881   2.986  0.6741 -0.2724 -0.0039
 4378TIP3    H113098   5.397   1.969   3.011  0.1102 -0.7548  1.1985
 4378TIP3    H213099   5.355   1.824   3.019 -0.6033 -0.9816 -3.4865
 4379TIP3   OH213100   0.083   4.998   0.749 -0.0313  0.3595  0.0682
 4379TIP3    H113101   0.161   4.967   0.794 -0.3389  0.4528  0.6658
 4379TIP3    H213102   0.036   4.918   0.724  0.6983  0.2659 -1.1154
 4380TIP3   OH213103   0.491   5.683   1.006 -0.0374  0.3683  0.0785
 4380TIP3    H113104   0.569   5.728   1.038 -0.2745  0.6531  0.2650
 4380TIP3    H213105   0.524   5.604   0.964  0.3547  0.5140  0.1091
 4381TIP3   OH213106   1.799   6.126   1.017 -0.3021  0.5379 -0.1683
 4381TIP3    H113107   1.840   6.040   1.010 -0.3246  0.5057  0.0997
 4381TIP3    H213108   1.707   6.108   1.035 -0.1029  0.6242  0.9941
 4382TIP3   OH213109   2.503   6.148   0.261  0.0213  0.7533 -0.0305
 4382TIP3    H113110   2.420   6.115   0.226  0.4304 -0.7468  0.3608
 4382TIP3    H213111   2.555   6.170   0.183  0.1231 -0.5323 -0.3481
 4383TIP3   OH213112   4.109   3.225   4.112  0.7472 -0.9151 -0.3090
 4383TIP3    H113113   4.115   3.319   4.094  1.5473 -1.4296 -3.1804
 4383TIP3    H213114   4.116   3.184   4.026 -1.9295 -3.5643  0.5726
 4384TIP3   OH213115   1.214   3.693   4.843 -0.3500  0.0102  0.2343
 4384TIP3    H113116   1.119   3.703   4.835 -0.1334  3.2122  0.2992
 4384TIP3    H213117   1.236   3.622   4.784 -2.5333  0.9688 -1.8805
 4385TIP3   OH213118   5.063   0.353   1.684  0.1746  0.0077 -0.0540
 4385TIP3    H113119   5.022   0.376   1.601  3.4628  1.4428 -1.4628
 4385TIP3    H213120   5.068   0.435   1.732 -0.4178 -0.5525  0.9979
 4386TIP3   OH213121   4.096   2.482   2.740 -0.2987  0.0536  0.0299
 4386TIP3    H113122   4.126   2.438   2.660 -1.1882 -0.1256 -0.2155
 4386TIP3    H213123   4.059   2.565   2.710 -0.4916  0.0561  0.2678
 4387TIP3   OH213124   6.286   5.165   5.443 -0.0707  0.4450  0.3420
 4387TIP3    H113125   6.250   5.178   5.531 -2.1631 -2.5932  0.1137
 4387TIP3    H213126   6.256   5.241   5.394  0.0931  1.6020  1.9503
 4388TIP3   OH213127   2.564   2.627   1.775  0.3788 -0.3314 -0.0440
 4388TIP3    H113128   2.548   2.533   1.767  0.7093 -0.2928 -1.4904
 4388TIP3    H213129   2.490   2.668   1.730  0.2567  0.1102  0.5466
 4389TIP3   OH213130   0.862   3.378   1.344 -0.0930  0.0206  0.5392
 4389TIP3    H113131   0.808   3.450   1.312  0.1584  0.6440  1.4758
 4389TIP3    H213132   0.808   3.335   1.411  0.7249  0.9856  1.8828
 4390TIP3   OH213133   5.778   3.445   5.324  0.4982  0.4563  0.2692
 4390TIP3    H113134   5.750   3.405   5.407  0.4700 -4.0025 -1.6173
 4390TIP3    H213135   5.697   3.465   5.279  0.4733  0.0013  0.1088
 4391TIP3   OH213136   0.126   0.046   3.288 -0.3274 -0.1273  0.1959
 4391TIP3    H113137   0.053  -0.001   3.328 -0.9882  0.2145 -0.5740
 4391TIP3    H213138   0.111   0.138   3.312  0.1049 -0.1106  0.4124
 4392TIP3   OH213139   2.602   1.856   4.792 -0.1761 -0.1340 -0.2186
 4392TIP3    H113140   2.678   1.871   4.849  0.5065  2.6594 -1.6758
 4392TIP3    H213141   2.528   1.852   4.852  0.8939 -1.2673  1.1201
 4393TIP3   OH213142   5.417   0.942   1.408 -0.1196 -0.4107  0.4728
 4393TIP3    H113143   5.428   1.026   1.363 -0.6079 -0.5692  0.0465
 4393TIP3    H213144   5.372   0.886   1.344 -0.8800 -0.6204  1.1701
 4394TIP3   OH213145   0.599   2.683   4.058  0.2228  0.3552  0.5861
 4394TIP3    H113146   0.557   2.657   3.976 -0.7292 -0.0209  1.1770
 4394TIP3    H213147   0.643   2.765   4.037 -1.7546  1.3919  0.2007
 4395TIP3   OH213148   0.142   6.572   1.020  0.5536 -0.1688  0.3912
 4395TIP3    H113149   0.188   6.553   1.102 -1.0490  0.1535  1.4081
 4395TIP3    H213150   0.102   6.658   1.035 -0.4457 -0.4756 -0.4156
 4396TIP3   OH213151   5.238   0.938   5.689  0.2826 -0.4279 -0.6120
 4396TIP3    H113152   5.204   0.860   5.646 -0.5645 -0.1772 -0.4020
 4396TIP3    H213153   5.168   0.967   5.747  1.6069 -1.1418  1.4757
 4397TIP3   OH213154   4.865   2.624   2.446  0.1710 -0.6213  0.1868
 4397TIP3    H113155   4.877   2.716   2.467 -1.9604  0.2215 -1.7922
 4397TIP3    H213156   4.941   2.580   2.483  1.3395  1.9397  1.0260
 4398TIP3   OH213157   2.169   2.688   5.260 -0.3321  0.1825 -0.3335
 4398TIP3    H113158   2.097   2.690   5.323 -1.2064 -1.2018 -1.2320
 4398TIP3    H213159   2.237   2.742   5.300 -1.5416  0.8435  0.9324
 4399TIP3   OH213160   4.084   4.784   3.343  0.0105 -1.0185 -0.2640
 4399TIP3    H113161   3.992   4.807   3.350 -0.5812 -3.3831  1.0017
 4399TIP3    H213162   4.085   4.711   3.280  0.8811 -1.5559  0.3567
 4400TIP3   OH213163   2.473   3.793   1.830  0.4316 -0.3537 -0.1654
 4400TIP3    H113164   2.551   3.746   1.862 -0.3898 -0.9010  1.0941
 4400TIP3    H213165   2.507   3.878   1.801  1.3783 -0.2312  1.2115
 4401TIP3   OH213166   0.143   1.389   4.732  0.1160  0.1662 -0.1390
 4401TIP3    H113167   0.052   1.395   4.705  0.5278  0.4522 -1.5061
 4401TIP3    H213168   0.148   1.441   4.812 -0.7782  0.6814 -0.4139
 4402TIP3   OH213169   1.550   2.007   2.802 -0.4159 -0.5754  0.1413
 4402TIP3    H113170   1.619   2.037   2.743 -0.1705 -0.2150  0.5994
 4402TIP3    H213171   1.477   2.067   2.785 -0.2087 -0.2226  0.4774
 4403TIP3   OH213172   1.307   3.837   4.571  0.4230  0.1169 -0.6742
 4403TIP3    H113173   1.232   3.841   4.630  1.3628 -0.3098  0.5851
 4403TIP3    H213174   1.381   3.816   4.628  1.6247  1.2226 -1.7826
 4404TIP3   OH213175   7.022   3.290   2.498 -0.0089  0.4784 -0.3325
 4404TIP3    H113176   7.028   3.199   2.524 -0.4364  1.1077  2.2140
 4404TIP3    H213177   6.983   3.288   2.410  0.3848 -1.7509 -0.4981
 4405TIP3   OH213178   2.539   3.748   4.212 -0.1053  0.0403 -0.1900
 4405TIP3    H113179   2.542   3.839   4.184  0.5738 -0.1885 -0.9003
 4405TIP3    H213180   2.551   3.697   4.132 -0.6606 -0.6856  0.1668
 4406TIP3   OH213181   0.290   4.618   0.642  0.5134 -0.1548 -0.1374
 4406TIP3    H113182   0.307   4.551   0.575  1.2638  0.4510 -0.5705
 4406TIP3    H213183   0.239   4.685   0.595 -1.3736 -0.9744  0.6139
 4407TIP3   OH213184   0.644   0.384   1.557 -0.1794 -0.9458  0.3141
 4407TIP3    H113185   0.624   0.404   1.466 -3.4092 -2.5960  0.5046
 4407TIP3    H213186   0.606   0.457   1.607  1.8383  0.1023  0.3878
 4408TIP3   OH213187   6.890   4.997   4.086 -0.0582 -0.1315  0.5845
 4408TIP3    H113188   6.813   4.968   4.134 -0.5949  1.3585  0.6819
 4408TIP3    H213189   6.964   4.977   4.144 -0.3703 -1.3754  0.5756
 4409TIP3   OH213190   1.746   4.727   5.843 -0.0072 -0.2455  0.4558
 4409TIP3    H113191   1.656   4.756   5.826  0.4358  0.1087 -1.4824
 4409TIP3    H213192   1.789   4.805   5.878 -0.3527 -0.3192  1.0625
 4410TIP3   OH213193   5.215   4.902   3.109 -0.0147 -0.0825  0.0548
 4410TIP3    H113194   5.239   4.971   3.171  2.6953 -1.9536  1.2877
 4410TIP3    H213195   5.204   4.948   3.026  0.4158  1.9870  1.0684
 4411TIP3   OH213196   0.796   3.328   0.834  0.5248 -0.2709  0.1032
 4411TIP3    H113197   0.837   3.366   0.912  0.5480 -1.6207  0.7758
 4411TIP3    H213198   0.856   3.351   0.763  3.5517 -3.6295  1.2800
 4412TIP3   OH213199   4.424   0.950   0.443 -0.1274 -0.1618 -0.1770
 4412TIP3    H113200   4.398   0.984   0.358  1.2565  1.1118 -0.1244
 4412TIP3    H213201   4.442   1.028   0.496 -0.7851 -0.9321  1.2382
 4413TIP3   OH213202   0.694   5.734   5.421 -0.0178  0.0924 -0.1139
 4413TIP3    H113203   0.632   5.783   5.475  0.5648  0.8049 -0.0850
 4413TIP3    H213204   0.640   5.667   5.377 -0.7850  0.6307 -0.0069
 4414TIP3   OH213205   1.809   6.674   3.762 -0.0082  0.2726  0.1742
 4414TIP3    H113206   1.822   6.723   3.681  1.6027  0.0440  0.2740
 4414TIP3    H213207   1.738   6.612   3.741  1.1849 -0.6144 -1.4675
 4415TIP3   OH213208   0.876   0.244   0.340  0.0408 -0.3729  0.2472
 4415TIP3    H113209   0.790   0.284   0.327 -0.0915 -0.7996 -0.2283
 4415TIP3    H213210   0.931   0.283   0.273  0.1515 -0.3012  0.3790
 4416TIP3   OH213211   3.558   1.673   5.765 -0.0647  0.2699  0.3281
 4416TIP3    H113212   3.467   1.659   5.792 -0.1723 -0.5574 -0.4595
 4416TIP3    H213213   3.572   1.768   5.776 -1.7839  0.8495 -1.8657
 4417TIP3   OH213214   7.048   2.583   0.299 -0.6148 -0.0230 -0.0086
 4417TIP3    H113215   7.032   2.500   0.254 -2.9993 -0.1990  0.9939
 4417TIP3    H213216   7.051   2.648   0.229  2.3846 -0.9726 -0.9224
 4418TIP3   OH213217   6.999   2.224   4.030  0.2368 -0.1988  0.3706
 4418TIP3    H113218   7.077   2.193   3.983 -1.4438 -1.1103 -1.9800
 4418TIP3    H213219   6.982   2.311   3.993 -1.0049 -0.8547 -0.6830
 4419TIP3   OH213220   1.318   4.078   2.739  0.2454  0.3735 -0.2101
 4419TIP3    H113221   1.287   4.169   2.734  0.2665  0.4294  0.6651
 4419TIP3    H213222   1.247   4.026   2.702  0.7052  0.8281 -1.8398
 4420TIP3   OH213223   5.342   2.564   0.633 -0.0479 -1.1474  0.8093
 4420TIP3    H113224   5.299   2.576   0.548  0.9571 -0.6326  0.3472
 4420TIP3    H213225   5.316   2.477   0.661 -0.1528 -1.4505 -0.1874
 4421TIP3   OH213226   2.035   4.281   2.424 -0.1466  0.3765  0.5442
 4421TIP3    H113227   2.049   4.369   2.458 -0.6418  0.8140 -0.3460
 4421TIP3    H213228   1.941   4.278   2.405 -0.4236 -0.8384  1.9024
 4422TIP3   OH213229   5.874   0.126   3.820  0.5304  0.0957 -0.3138
 4422TIP3    H113230   5.895   0.219   3.830 -0.6875  0.9126 -3.8993
 4422TIP3    H213231   5.780   0.120   3.839  0.1636  0.0371 -2.0189
 4423TIP3   OH213232   2.010   1.011   1.498  0.6266  0.0159  0.2779
 4423TIP3    H113233   2.100   0.984   1.480  1.6850  3.1049  0.4461
 4423TIP3    H213234   2.016   1.104   1.517 -2.6403  0.3265  0.3179
 4424TIP3   OH213235   1.632   5.073   1.616 -0.0090 -0.2437 -0.3536
 4424TIP3    H113236   1.605   4.998   1.670  0.5419 -0.5057 -0.4351
 4424TIP3    H213237   1.609   5.149   1.669 -0.0133 -0.4858 -0.0029
 4425TIP3   OH213238   5.148   6.278   3.049 -0.1456 -0.5840  1.0300
 4425TIP3    H113239   5.198   6.263   3.129 -0.5249 -2.6000  0.9463
 4425TIP3    H213240   5.214   6.298   2.983  0.5529 -2.4652  1.0911
 4426TIP3   OH213241   4.283   0.720   5.423 -0.3842  0.3873 -0.2208
 4426TIP3    H113242   4.188   0.713   5.437 -0.6212 -1.5356 -2.2324
 4426TIP3    H213243   4.293   0.798   5.369 -0.5919  1.5641  1.3704
 4427TIP3   OH213244   3.415   3.469   4.829  0.2939 -0.2642 -0.6829
 4427TIP3    H113245   3.320   3.472   4.818  0.0002  1.1033  1.4856
 4427TIP3    H213246   3.449   3.530   4.763 -0.6252  1.5007  0.3841
 4428TIP3   OH213247   0.310   1.243   5.257  0.2927 -0.1349  0.6155
 4428TIP3    H113248   0.402   1.223   5.273 -0.1518 -0.6308  2.9133
 4428TIP3    H213249   0.278   1.171   5.202  0.9772 -0.6083  0.8286
 4429TIP3   OH213250   4.012   0.013   5.463 -0.0756 -0.7050 -0.4671
 4429TIP3    H113251   4.057   0.092   5.492 -0.5113 -0.9921  1.1393
 4429TIP3    H213252   4.079  -0.055   5.463  0.1747 -0.4606 -1.2765
 4430TIP3   OH213253   1.164   0.582   0.212 -0.4365 -0.1782 -0.4106
 4430TIP3    H113254   1.133   0.499   0.175 -1.1738 -0.2239  0.2957
 4430TIP3    H213255   1.247   0.559   0.253 -2.0513 -1.3214  2.5142
 4431TIP3   OH213256   3.723   3.345   0.105  0.1360  0.1181  0.4039
 4431TIP3    H113257   3.643   3.399   0.100  0.7100  0.9587  0.0353
 4431TIP3    H213258   3.741   3.320   0.015  0.0298 -0.4636  0.5431
 4432TIP3   OH213259   2.105   0.871   5.531 -0.3729 -0.3477  0.0393
 4432TIP3    H113260   2.068   0.786   5.551 -0.4821  0.0377  1.5974
 4432TIP3    H213261   2.167   0.889   5.603 -0.0537  0.7023 -0.4657
 4433TIP3   OH213262   6.417   6.694   4.936 -0.2125  0.2958 -0.5671
 4433TIP3    H113263   6.490   6.663   4.882  0.3076  2.0431 -0.9270
 4433TIP3    H213264   6.440   6.667   5.025 -1.7880 -3.9462 -1.2092
 4434TIP3   OH213265   0.930   0.974   2.795 -0.7559 -0.1865 -0.2135
 4434TIP3    H113266   0.867   1.015   2.854 -0.4179  0.7606 -0.4920
 4434TIP3    H213267   0.946   1.041   2.728 -0.5699 -0.9689 -0.9584
 4435TIP3   OH213268   5.550   1.858   1.987  0.3067  0.0789  0.2232
 4435TIP3    H113269   5.628   1.808   1.962 -1.3549 -2.2994 -0.6212
 4435TIP3    H213270   5.569   1.948   1.962  2.2667 -0.6702 -1.1742
 4436TIP3   OH213271   5.343   3.124   0.792  0.0151  0.0491 -0.4249
 4436TIP3    H113272   5.295   3.201   0.823 -0.5007 -0.0402 -0.9739
 4436TIP3    H213273   5.425   3.126   0.841  1.1301  2.3475 -2.1558
 4437TIP3   OH213274   6.740   5.498   2.246 -0.4670 -0.0156 -0.1152
 4437TIP3    H113275   6.701   5.433   2.305  1.9080 -0.6616  0.8648
 4437TIP3    H213276   6.759   5.573   2.303 -1.0337  0.6200 -0.7472
 4438TIP3   OH213277   1.350   0.084   5.473  0.4482  0.0087 -0.4366
 4438TIP3    H113278   1.268   0.128   5.452 -0.6550 -2.2379 -1.0662
 4438TIP3    H213279   1.397   0.082   5.389 -1.0631 -3.0375 -1.3342
 4439TIP3   OH213280   7.139   2.462   4.769 -0.5996 -0.2091  0.4452
 4439TIP3    H113281   7.046   2.450   4.750 -0.5514 -0.5523  0.4221
 4439TIP3    H213282   7.140   2.520   4.845 -0.7585  2.0743 -1.2005
 4440TIP3   OH213283   5.150   5.956   3.297 -0.8257  0.2289 -0.5812
 4440TIP3    H113284   5.100   5.940   3.377  0.6958 -3.0071 -0.0915
 4440TIP3    H213285   5.083   5.968   3.230 -2.2166 -0.5293  0.5897
 4441TIP3   OH213286   6.255   0.235   5.491 -0.4373 -0.1237 -0.5317
 4441TIP3    H113287   6.326   0.210   5.550  0.2082  3.4707  0.4637
 4441TIP3    H213288   6.182   0.178   5.515  1.3587 -2.3171  0.0400
 4442TIP3   OH213289   4.140   1.831   3.049 -0.0877  0.2386 -0.4847
 4442TIP3    H113290   4.176   1.912   3.085  0.7332  0.5304 -1.9193
 4442TIP3    H213291   4.070   1.808   3.110 -0.1206  1.8404  0.1449
 4443TIP3   OH213292   2.687   3.453   0.725 -0.0407 -0.1826 -0.1426
 4443TIP3    H113293   2.757   3.429   0.785  0.4304 -0.4761 -0.8110
 4443TIP3    H213294   2.723   3.524   0.672 -0.4685  0.1017 -0.0643
 4444TIP3   OH213295   3.554   4.202   2.801 -0.1560 -0.0430  0.5393
 4444TIP3    H113296   3.532   4.289   2.835  0.1631  0.5537 -0.7023
 4444TIP3    H213297   3.474   4.151   2.812 -0.3878  0.4421  1.1840
 4445TIP3   OH213298   4.886   3.696   0.612 -0.5597  0.3273  0.3148
 4445TIP3    H113299   4.912   3.736   0.529 -0.5366  0.4544  0.3829
 4445TIP3    H213300   4.791   3.698   0.611 -0.6594 -1.7527 -0.7333
 4446TIP3   OH213301   5.116   5.672   4.657  0.3718 -0.1908 -0.4000
 4446TIP3    H113302   5.032   5.626   4.657 -1.2557  2.4890  1.5666
 4446TIP3    H213303   5.123   5.707   4.568 -0.8119 -0.1370 -0.4950
 4447TIP3   OH213304   4.392   6.213   3.169  0.5507  0.3236 -1.3869
 4447TIP3    H113305   4.456   6.147   3.195 -0.8285 -0.6989 -0.4515
 4447TIP3    H213306   4.350   6.177   3.091  1.8717  1.5366 -2.7264
 4448TIP3   OH213307   5.327   3.152   1.309  0.1963 -0.1860 -0.1093
 4448TIP3    H113308   5.291   3.241   1.307  0.6982  0.0117 -1.6731
 4448TIP3    H213309   5.252   3.096   1.326  0.0462  0.5802  2.0805
 4449TIP3   OH213310   2.331   1.658   3.049 -0.3794  0.0442 -0.4049
 4449TIP3    H113311   2.333   1.713   2.971 -1.2002 -2.1471 -2.1160
 4449TIP3    H213312   2.375   1.577   3.022 -1.1483 -0.9697  1.2217
 4450TIP3   OH213313   3.045   4.967   5.534 -0.1702  0.0202 -0.1213
 4450TIP3    H113314   3.029   5.037   5.471  0.0924 -1.7687 -2.3095
 4450TIP3    H213315   3.014   4.887   5.490 -0.2379 -1.2858  2.1532
 4451TIP3   OH213316   0.888   3.767   0.815  0.1385 -0.0736  0.5579
 4451TIP3    H113317   0.955   3.773   0.883  1.0001 -1.8181 -0.0813
 4451TIP3    H213318   0.926   3.813   0.740 -0.0703  0.3142  0.6846
 4452TIP3   OH213319   2.977   6.122   2.870  0.2871  0.0361 -0.1050
 4452TIP3    H113320   3.068   6.147   2.881  1.0621 -1.6228 -2.0993
 4452TIP3    H213321   2.935   6.201   2.834  0.5917  1.1899  1.8959
 4453TIP3   OH213322   0.045   3.699   2.884  0.4931 -0.3648 -0.5200
 4453TIP3    H113323   0.023   3.709   2.977  1.0275  2.3106 -0.5949
 4453TIP3    H213324  -0.031   3.656   2.846  0.9378 -3.0622  1.3827
 4454TIP3   OH213325   1.408   0.489   4.575  0.2815  0.0121 -0.0459
 4454TIP3    H113326   1.407   0.398   4.603 -0.4036 -0.2195 -0.7960
 4454TIP3    H213327   1.466   0.491   4.499  0.8402  0.3420  0.3735
 4455TIP3   OH213328   3.272   6.391   2.066  0.4333 -0.0718  0.0376
 4455TIP3    H113329   3.208   6.359   2.129  0.7398  0.5855  0.7140
 4455TIP3    H213330   3.222   6.445   2.005  0.3990  0.8857  0.8841
 4456TIP3   OH213331   5.310   5.375   3.244 -0.2938 -0.5661  0.8748
 4456TIP3    H113332   5.347   5.395   3.330 -1.1378 -0.1552  1.1525
 4456TIP3    H213333   5.233   5.431   3.238 -0.9039 -1.4443  0.3270
 4457TIP3   OH213334   5.832   6.277   2.254 -0.1041 -0.6253  0.4125
 4457TIP3    H113335   5.874   6.252   2.171 -1.0969 -0.4435 -0.1544
 4457TIP3    H213336   5.745   6.237   2.250 -0.7850  0.7921  0.6206
 4458TIP3   OH213337   1.717   4.482   2.883 -0.2696 -0.0964  0.5598
 4458TIP3    H113338   1.752   4.571   2.881 -0.4221 -0.0399  0.3640
 4458TIP3    H213339   1.795   4.426   2.882 -0.1803  0.0043 -1.2935
 4459TIP3   OH213340   0.221   3.709   5.095  0.9541  0.1322  0.2868
 4459TIP3    H113341   0.171   3.754   5.164 -0.4721 -1.1161  0.1242
 4459TIP3    H213342   0.183   3.742   5.014  1.2927  0.1377  0.1305
 4460TIP3   OH213343   3.955   6.566   3.598  0.2694  0.3830  0.1626
 4460TIP3    H113344   4.014   6.490   3.598 -1.6523 -1.2148  1.4853
 4460TIP3    H213345   3.984   6.619   3.673 -0.3379 -0.7476  1.2351
 4461TIP3   OH213346   7.185   4.353   1.542 -0.3006  0.2315 -0.4011
 4461TIP3    H113347   7.201   4.434   1.592 -0.7446  0.5572 -0.7810
 4461TIP3    H213348   7.216   4.283   1.600 -0.7336  0.6101  0.3006
 4462TIP3   OH213349   0.378   4.780   4.448 -0.0015 -0.4207 -0.3566
 4462TIP3    H113350   0.382   4.771   4.353  0.4808  0.7781 -0.4771
 4462TIP3    H213351   0.285   4.779   4.469 -0.0880 -1.2222 -0.7798
 4463TIP3   OH213352   1.915   3.370   1.632 -0.2716 -0.0052  0.6615
 4463TIP3    H113353   1.822   3.390   1.619 -0.2277  0.0283  0.3909
 4463TIP3    H213354   1.918   3.274   1.636 -0.7831 -0.0006  4.1963
 4464TIP3   OH213355   3.996   1.524   0.501 -0.0968  0.1544 -0.1795
 4464TIP3    H113356   4.053   1.600   0.492  1.0278 -0.6571 -0.1239
 4464TIP3    H213357   3.908   1.561   0.509  0.5713  1.5395  1.5441
 4465TIP3   OH213358   7.199   3.520   4.037  0.0895  0.0527  0.0252
 4465TIP3    H113359   7.153   3.525   4.120 -1.1736 -3.2500 -0.3401
 4465TIP3    H213360   7.150   3.578   3.978  0.2808  1.4728  1.2050
 4466TIP3   OH213361   1.985   3.442   0.071  0.1238 -0.8979  0.1552
 4466TIP3    H113362   1.964   3.533   0.048 -0.5445 -0.8733  0.8146
 4466TIP3    H213363   1.987   3.441   0.166 -0.5280 -1.7081  0.1756
 4467TIP3   OH213364   3.092   5.927   3.610 -0.2822 -0.4366  0.2637
 4467TIP3    H113365   3.029   5.886   3.551 -0.7436  0.3402  0.1864
 4467TIP3    H213366   3.050   5.921   3.696 -0.8980  0.8414  0.0890
 4468TIP3   OH213367   0.436   2.275   3.530  0.5849  0.0445 -0.3327
 4468TIP3    H113368   0.401   2.205   3.584  1.8134 -0.0324  0.3974
 4468TIP3    H213369   0.373   2.347   3.540 -0.6099 -0.8764 -0.9760
 4469TIP3   OH213370   0.147   3.337   2.013  0.0723  0.0121 -0.8518
 4469TIP3    H113371   0.190   3.415   1.977 -0.1884  0.5823  0.0320
 4469TIP3    H213372   0.055   3.361   2.021 -0.0866 -0.5410 -0.9692
 4470TIP3   OH213373   2.624   6.176   2.229  0.1346 -0.8460  0.0678
 4470TIP3    H113374   2.559   6.118   2.190 -1.0305  0.1244  0.4856
 4470TIP3    H213375   2.659   6.226   2.156 -0.4638 -0.5517 -0.0249
 4471TIP3   OH213376   3.851   2.028   1.271  0.2982  0.3273 -1.0672
 4471TIP3    H113377   3.938   1.992   1.290  0.0513 -0.1172 -0.7557
 4471TIP3    H213378   3.805   1.956   1.226 -0.9415 -0.6025  1.4834
 4472TIP3   OH213379   1.403   6.480   4.814  0.4294 -0.3325  0.1762
 4472TIP3    H113380   1.444   6.564   4.833 -0.6733  0.6108 -1.4235
 4472TIP3    H213381   1.313   6.501   4.789  0.6427 -1.7516 -2.1336
 4473TIP3   OH213382   0.823   0.631   0.472  0.0804 -0.0861  0.3120
 4473TIP3    H113383   0.752   0.578   0.507  1.7626 -1.4128  1.9198
 4473TIP3    H213384   0.829   0.605   0.380 -0.4683 -1.1590  0.5613
 4474TIP3   OH213385   0.305   4.508   3.821  0.2152  0.2924  0.0905
 4474TIP3    H113386   0.334   4.469   3.739  1.3289  0.3212  0.4543
 4474TIP3    H213387   0.384   4.514   3.875  0.2504  3.4443 -0.0953
 4475TIP3   OH213388   5.610   4.084   3.991  0.2996 -0.2743  0.3361
 4475TIP3    H113389   5.668   4.131   4.051  0.4375  0.2264 -0.1864
 4475TIP3    H213390   5.521   4.106   4.021  0.3613  0.3762  0.0589
 4476TIP3   OH213391   4.906   5.083   2.371 -0.1660 -0.0589 -0.3336
 4476TIP3    H113392   4.821   5.115   2.403 -0.3955 -0.8112 -0.1794
 4476TIP3    H213393   4.958   5.163   2.359 -1.5694  0.6496 -2.4489
 4477TIP3   OH213394   4.561   0.938   5.870 -0.2887  0.0278 -0.0010
 4477TIP3    H113395   4.522   0.941   5.958  1.1224  0.9491  0.6281
 4477TIP3    H213396   4.487   0.922   5.812 -1.1878 -1.0673  1.3889
 4478TIP3   OH213397   0.949   2.655   3.864 -0.0318 -0.8013 -0.0761
 4478TIP3    H113398   0.879   2.591   3.873  0.7883 -1.4953  1.7817
 4478TIP3    H213399   1.024   2.605   3.831  0.4102 -0.6556  0.6942
 4479TIP3   OH213400   6.302   2.557   4.176  0.2420 -0.0057 -0.1887
 4479TIP3    H113401   6.240   2.543   4.105 -1.3807 -0.2528  1.2039
 4479TIP3    H213402   6.326   2.469   4.204 -1.0771  0.0148  1.1407
 4480TIP3   OH213403   6.823   0.586   3.219 -0.5653 -0.2091 -0.2244
 4480TIP3    H113404   6.912   0.563   3.246 -0.5727  2.0775  2.1764
 4480TIP3    H213405   6.778   0.502   3.210  1.7658 -1.4196 -1.4585
 4481TIP3   OH213406   6.145   4.449   3.834 -0.0159  0.5368  0.5914
 4481TIP3    H113407   6.062   4.494   3.845 -0.1770  0.5435 -0.5029
 4481TIP3    H213408   6.182   4.443   3.922 -1.7726 -0.6301  1.3058
 4482TIP3   OH213409   1.195   6.399   5.537  0.1961 -0.3502  0.0211
 4482TIP3    H113410   1.189   6.459   5.463  0.0017 -2.0709 -1.4378
 4482TIP3    H213411   1.289   6.384   5.548  0.2603  0.4706  0.6063
 4483TIP3   OH213412   6.573   2.034   0.471  0.5687 -0.0664 -0.1025
 4483TIP3    H113413   6.627   2.059   0.397 -0.9244 -0.6485 -1.4477
 4483TIP3    H213414   6.509   2.105   0.480  1.1071  0.2936  1.0358
 4484TIP3   OH213415   3.658   6.755   0.494 -0.2616 -0.0024  0.3649
 4484TIP3    H113416   3.680   6.836   0.540 -1.5970  0.7061 -0.1976
 4484TIP3    H213417   3.569   6.769   0.462  0.6305 -0.3826 -2.5768
 4485TIP3   OH213418   4.248   0.886   4.420 -0.6753  0.1621  0.6456
 4485TIP3    H113419   4.292   0.960   4.463 -1.3503 -0.1814  1.9927
 4485TIP3    H213420   4.155   0.897   4.444 -0.9047 -0.6444  0.1441
 4486TIP3   OH213421   4.777   2.133   3.002  1.1133  0.0556 -0.1445
 4486TIP3    H113422   4.787   2.102   2.912 -0.8935 -1.2060  0.0083
 4486TIP3    H213423   4.792   2.055   3.055 -2.5792 -0.4706  0.3326
 4487TIP3   OH213424   1.401   3.055   3.484 -0.2346 -0.1460  0.0873
 4487TIP3    H113425   1.359   3.076   3.400 -1.5463  0.2048  0.8083
 4487TIP3    H213426   1.436   2.967   3.471 -0.2471 -0.0293 -0.8849
 4488TIP3   OH213427   4.007   5.772   1.274 -0.0925 -0.0002 -0.4803
 4488TIP3    H113428   3.939   5.820   1.321  2.4935  2.5080  1.0217
 4488TIP3    H213429   4.074   5.754   1.341  1.0672 -1.7429 -2.0177
 4489TIP3   OH213430   0.064   3.854   2.140 -0.0354 -0.3498  0.3708
 4489TIP3    H113431  -0.016   3.802   2.139 -0.9272  0.8976 -2.1093
 4489TIP3    H213432   0.039   3.936   2.097  2.4525  0.2793 -0.0200
 4490TIP3   OH213433   4.062   1.361   2.400 -0.0139  0.8998 -0.6443
 4490TIP3    H113434   4.016   1.394   2.323  0.6561  1.7835 -0.6872
 4490TIP3    H213435   4.079   1.269   2.381 -1.3546  0.6694 -0.8058
 4491TIP3   OH213436   6.310   0.353   5.857  0.2088  0.3340 -0.0433
 4491TIP3    H113437   6.315   0.426   5.795 -1.1428 -0.1934 -0.7968
 4491TIP3    H213438   6.298   0.275   5.803 -1.9021 -0.0416  0.8817
 4492TIP3   OH213439   6.057   3.834   5.291 -0.1414 -0.1396 -0.7424
 4492TIP3    H113440   5.991   3.899   5.267  0.1522 -0.0811 -1.3934
 4492TIP3    H213441   6.048   3.765   5.226  0.4200 -0.1481 -0.8121
 4493TIP3   OH213442   3.026   4.956   4.070  0.4176 -0.2747  0.2869
 4493TIP3    H113443   3.073   5.029   4.030 -1.0965 -0.6466 -2.3502
 4493TIP3    H213444   3.083   4.881   4.056  0.9279 -0.0431  0.9843
 4494TIP3   OH213445   5.325   4.513   2.148  0.2933 -0.1939 -0.1044
 4494TIP3    H113446   5.341   4.453   2.221  2.4392  0.4634  0.0180
 4494TIP3    H213447   5.349   4.462   2.070  0.4958 -0.0490 -0.1374
 4495TIP3   OH213448   5.740   0.218   1.938  0.2887 -0.2711  0.2474
 4495TIP3    H113449   5.802   0.192   1.869 -0.8435 -1.5493 -0.3559
 4495TIP3    H213450   5.681   0.279   1.894  0.9729  0.7966  0.7701
 4496TIP3   OH213451   1.350   0.225   5.740 -0.2684 -0.0269  0.6952
 4496TIP3    H113452   1.300   0.154   5.779  0.6902 -1.3531 -0.3585
 4496TIP3    H213453   1.300   0.250   5.662 -2.2564  2.7130  2.6315
 4497TIP3   OH213454   5.295   0.367   3.112  0.2069  0.2444  0.5848
 4497TIP3    H113455   5.275   0.443   3.166  2.6138  1.0359  0.4702
 4497TIP3    H213456   5.353   0.313   3.165  0.4422 -0.3145 -0.2153
 4498TIP3   OH213457   6.357   0.519   0.858  0.0918 -0.6243  0.1301
 4498TIP3    H113458   6.345   0.439   0.910  1.8091  0.6358  2.6318
 4498TIP3    H213459   6.415   0.492   0.786 -1.0585 -2.0545 -0.3129
 4499TIP3   OH213460   3.717   2.409   0.727  0.1177 -0.0577 -0.0516
 4499TIP3    H113461   3.725   2.380   0.636  0.5498  2.2829 -0.8327
 4499TIP3    H213462   3.778   2.353   0.775 -1.7358 -2.8729 -0.7160
 4500TIP3   OH213463   1.053   2.884   1.919  0.0229 -0.2338  0.7727
 4500TIP3    H113464   1.135   2.838   1.903 -0.1419 -0.0883 -0.5730
 4500TIP3    H213465   0.985   2.819   1.904 -0.2223  0.4458 -1.3818
 4501TIP3   OH213466   0.590   2.835   0.150 -0.6588  0.4293  0.4261
 4501TIP3    H113467   0.531   2.781   0.203  0.7186 -0.2939  1.2729
 4501TIP3    H213468   0.659   2.863   0.210  0.5768  0.1509 -0.8083
 4502TIP3   OH213469   1.613   6.221   1.618  0.4455 -0.2526  0.2738
 4502TIP3    H113470   1.678   6.276   1.661  0.1420 -1.1503  1.9671
 4502TIP3    H213471   1.529   6.251   1.653  0.1186 -0.5165 -0.2623
 4503TIP3   OH213472   4.480   1.924   3.573  0.1356 -0.2664  0.2921
 4503TIP3    H113473   4.451   1.906   3.484 -1.7684  0.9954  0.5858
 4503TIP3    H213474   4.524   1.844   3.601 -0.1661 -1.0710 -1.4103
 4504TIP3   OH213475   6.960   4.503   5.324 -0.2599 -0.5714  0.0052
 4504TIP3    H113476   7.055   4.494   5.314  0.1309  1.4341  1.1722
 4504TIP3    H213477   6.925   4.416   5.308  1.6134 -1.0074 -2.1395
 4505TIP3   OH213478   3.707   5.710   4.721  0.2402 -0.0485 -0.5542
 4505TIP3    H113479   3.703   5.616   4.740  0.6753  0.3991  2.3123
 4505TIP3    H213480   3.618   5.742   4.736  0.5195  0.2727  0.5151
 4506TIP3   OH213481   6.916   1.549   5.248 -0.5102  0.0138 -0.5531
 4506TIP3    H113482   6.945   1.562   5.158 -1.7665  0.0166 -0.9737
 4506TIP3    H213483   6.914   1.637   5.285  0.2896 -0.0163 -0.4214
 4507TIP3   OH213484   5.792   5.175   5.815  0.2120 -0.0503  0.2430
 4507TIP3    H113485   5.817   5.174   5.723 -1.6424  1.4518 -0.3455
 4507TIP3    H213486   5.745   5.093   5.828 -1.6826  0.8017 -0.8692
 4508TIP3   OH213487   1.637   4.991   0.474 -0.3827 -0.5910  0.4623
 4508TIP3    H113488   1.609   5.071   0.518 -1.1993 -1.8114  2.2832
 4508TIP3    H213489   1.672   4.936   0.544 -0.5344 -2.1135 -0.6073
 4509TIP3   OH213490   6.498   0.768   4.640 -0.2178 -0.0311 -0.8129
 4509TIP3    H113491   6.580   0.772   4.689  0.4612  1.9131 -1.9953
 4509TIP3    H213492   6.514   0.823   4.564 -2.3770 -0.2758 -1.4875
 4510TIP3   OH213493   5.004   1.013   3.990 -0.3202  0.6313  0.1171
 4510TIP3    H113494   5.002   1.003   4.085 -0.7979 -1.2417 -0.0561
 4510TIP3    H213495   5.006   1.108   3.976  1.4066  0.9306  1.9986
 4511TIP3   OH213496   3.884   1.279   4.280  0.0619  0.0886  0.2837
 4511TIP3    H113497   3.925   1.281   4.366 -0.1488 -0.8598  0.4143
 4511TIP3    H213498   3.927   1.207   4.234 -0.0523  0.3813 -0.2865
 4512TIP3   OH213499   4.800   1.791   0.942  0.4537  0.0226  0.5438
 4512TIP3    H113500   4.780   1.878   0.978 -0.5991 -0.1690  0.4624
 4512TIP3    H213501   4.784   1.800   0.848  3.4910  0.6043 -0.0263
 4513TIP3   OH213502   3.241   6.124   1.016 -0.6165  0.0796  0.3191
 4513TIP3    H113503   3.205   6.169   0.940  0.4420  1.8925  0.8247
 4513TIP3    H213504   3.187   6.154   1.089 -0.5809 -0.3384  0.5173
 4514TIP3   OH213505   0.307   3.956   2.623 -0.4127  0.4991 -0.1040
 4514TIP3    H113506   0.364   3.985   2.551 -0.4557 -0.5493 -0.5827
 4514TIP3    H213507   0.236   3.909   2.579 -1.1156  0.9411  0.5547
 4515TIP3   OH213508   4.116   5.107   2.775  0.1373 -0.2380  0.3288
 4515TIP3    H113509   4.154   5.054   2.705  0.8997 -1.7606  1.8052
 4515TIP3    H213510   4.184   5.109   2.843  0.0275  2.4433  0.4832
 4516TIP3   OH213511   5.724   3.055   4.069 -0.0445  0.5175 -0.0061
 4516TIP3    H113512   5.764   3.027   3.986  0.2825 -2.7931  1.1047
 4516TIP3    H213513   5.749   3.146   4.078 -0.2882  1.1012 -3.6311
 4517TIP3   OH213514   6.434   5.960   5.214 -0.3090  0.4122  0.3667
 4517TIP3    H113515   6.452   5.935   5.123  0.5778  0.9839  0.3776
 4517TIP3    H213516   6.339   5.954   5.221 -0.2641 -1.6092 -0.0123
 4518TIP3   OH213517   2.536   5.717   1.224 -0.1589 -0.0836 -0.7041
 4518TIP3    H113518   2.518   5.623   1.221  1.2770 -0.3671 -1.0417
 4518TIP3    H213519   2.588   5.734   1.146  0.8793  0.7076  0.1421
 4519TIP3   OH213520   0.303   2.102   4.982 -0.0162  0.2100  0.1109
 4519TIP3    H113521   0.295   2.197   4.979 -0.5450  0.2198  1.4705
 4519TIP3    H213522   0.281   2.074   4.893 -1.5090  1.2353  0.1270
 4520TIP3   OH213523   0.876   4.266   3.518  0.1854  0.0946 -0.3564
 4520TIP3    H113524   0.895   4.175   3.540  0.2487  0.0582 -0.5649
 4520TIP3    H213525   0.823   4.297   3.591  3.0466  0.9262  1.5534
 4521TIP3   OH213526   0.897   3.697   2.388  0.2542 -0.0660  0.3552
 4521TIP3    H113527   0.870   3.788   2.374  2.4526  0.8004  1.3684
 4521TIP3    H213528   0.877   3.679   2.480 -0.4619 -0.7472  0.0832
 4522TIP3   OH213529   3.113   5.569   1.487 -0.5073  0.1314 -0.1385
 4522TIP3    H113530   3.194   5.589   1.440 -1.9925  0.5403 -2.7232
 4522TIP3    H213531   3.049   5.553   1.418 -2.5920 -0.4193  1.8123
 4523TIP3   OH213532   4.910   6.540   2.202  0.1062  0.2993  0.5468
 4523TIP3    H113533   4.960   6.558   2.282  1.1719 -0.1765  0.0086
 4523TIP3    H213534   4.900   6.625   2.161  0.3487  0.4227  0.7378
 4524TIP3   OH213535   1.924   1.751   3.961 -0.2412  0.1144  0.0359
 4524TIP3    H113536   1.948   1.659   3.976  0.4603  0.3632  0.4650
 4524TIP3    H213537   1.966   1.773   3.878 -0.6606 -0.0327 -0.2213
 4525TIP3   OH213538   2.062   6.344   4.581  0.2852  0.4290 -0.1489
 4525TIP3    H113539   2.154   6.351   4.555  0.1829  0.3071 -0.5676
 4525TIP3    H213540   2.048   6.417   4.641  0.8566 -0.0059  0.5304
 4526TIP3   OH213541   2.365   5.973   2.376  0.1037 -0.1219  0.5891
 4526TIP3    H113542   2.333   6.010   2.293  0.8948  0.7028  0.6445
 4526TIP3    H213543   2.344   5.880   2.369  2.3368 -0.5524 -1.6169
 4527TIP3   OH213544   0.532   4.613   1.050 -0.0564  0.5055  0.4442
 4527TIP3    H113545   0.523   4.707   1.032  0.1803  0.2965 -0.9082
 4527TIP3    H213546   0.442   4.582   1.058 -0.2152  0.5931 -0.7060
 4528TIP3   OH213547   1.516   6.497   3.894 -0.1864 -0.2073  0.6620
 4528TIP3    H113548   1.574   6.440   3.944  0.1408 -0.3579  0.1140
 4528TIP3    H213549   1.546   6.489   3.803  0.0324  1.0433  0.6162
 4529TIP3   OH213550   6.916   0.818   5.220  0.1273  0.2098  0.3241
 4529TIP3    H113551   6.957   0.818   5.134 -1.3780  0.1080 -0.4178
 4529TIP3    H213552   6.969   0.880   5.271  1.8052 -0.6762 -0.2581
 4530TIP3   OH213553   6.875   0.274   5.559  0.1460  0.1434 -0.1210
 4530TIP3    H113554   6.873   0.188   5.517 -1.1182 -0.1987  0.5862
 4530TIP3    H213555   6.789   0.282   5.600  0.8717  1.0063  1.2973
 4531TIP3   OH213556   5.862   6.297   0.533 -0.2954  0.0495 -0.2047
 4531TIP3    H113557   5.899   6.319   0.618  0.3059  0.7575 -0.6336
 4531TIP3    H213558   5.865   6.379   0.483  0.5717 -0.6327 -1.3363
 4532TIP3   OH213559   5.271   3.581   1.776 -0.0455  0.9166 -0.1066
 4532TIP3    H113560   5.186   3.614   1.804 -1.1694 -2.2924  0.7539
 4532TIP3    H213561   5.330   3.605   1.848 -1.0062  0.2635  0.9398
 4533TIP3   OH213562   4.082   2.791   5.371 -0.6074 -0.0767  0.2023
 4533TIP3    H113563   4.069   2.801   5.465  1.8364 -1.8136  0.8100
 4533TIP3    H213564   4.169   2.826   5.354 -0.4514 -1.0227 -1.1640
 4534TIP3   OH213565   4.234   1.995   1.320 -0.0075 -0.0566  0.0973
 4534TIP3    H113566   4.153   1.945   1.310  0.4316 -1.1269  1.4793
 4534TIP3    H213567   4.236   2.054   1.245 -1.7878 -0.3873 -0.2569
 4535TIP3   OH213568   5.707   3.102   1.598  0.2652  0.7179 -0.1988
 4535TIP3    H113569   5.775   3.148   1.548  1.8493 -0.6825  0.5568
 4535TIP3    H213570   5.736   3.108   1.689 -0.3066 -0.3954  0.0745
 4536TIP3   OH213571   7.139   6.055   2.518  0.6502  0.5342  0.2103
 4536TIP3    H113572   7.110   6.083   2.431  0.2846  1.6398  0.6639
 4536TIP3    H213573   7.174   5.967   2.505  0.2845  0.5491 -0.9905
 4537TIP3   OH213574   1.064   3.249   3.489 -0.0294  0.4487  0.1017
 4537TIP3    H113575   1.012   3.326   3.466 -1.1160 -0.0673  0.7527
 4537TIP3    H213576   1.004   3.193   3.538  0.4857 -1.1679 -1.0180
 4538TIP3   OH213577   0.442   0.823   2.737  0.6158 -0.8287 -0.3257
 4538TIP3    H113578   0.350   0.815   2.715  0.4992  1.3378 -0.7599
 4538TIP3    H213579   0.443   0.859   2.826  0.9582  1.5367 -1.2210
 4539TIP3   OH213580   0.103   6.387   3.170  0.2723  0.2803  0.6000
 4539TIP3    H113581   0.042   6.435   3.226  1.6506 -0.3496  2.7519
 4539TIP3    H213582   0.160   6.340   3.231  1.4821 -0.9509 -1.3650
 4540TIP3   OH213583   3.884   0.116   4.098  0.2630  0.3227  0.0380
 4540TIP3    H113584   3.922   0.159   4.175  0.8432 -1.5363  0.8407
 4540TIP3    H213585   3.826   0.049   4.134 -0.1427  0.0103 -1.1599
 4541TIP3   OH213586   1.538   0.841   5.411 -0.1514  0.3845 -0.5575
 4541TIP3    H113587   1.568   0.771   5.354  1.8259  0.9988 -0.3349
 4541TIP3    H213588   1.503   0.907   5.351  2.6678  1.3866 -1.2180
 4542TIP3   OH213589   0.634   2.002   4.027 -0.0730  0.0797 -0.1784
 4542TIP3    H113590   0.607   2.032   4.114 -0.4847  1.8612 -0.8840
 4542TIP3    H213591   0.726   2.027   4.021 -0.4971  1.5548 -0.8847
 4543TIP3   OH213592   4.054   0.694   4.164 -0.4836 -0.0659 -0.1209
 4543TIP3    H113593   4.063   0.740   4.247 -1.1073  0.2196 -0.2022
 4543TIP3    H213594   3.961   0.669   4.161 -0.3759 -0.4339 -0.5433
 4544TIP3   OH213595   4.751   1.057   3.560  0.0827 -0.0668  0.5805
 4544TIP3    H113596   4.780   1.137   3.517  1.5201  0.7439  2.9169
 4544TIP3    H213597   4.831   1.009   3.579 -0.7140 -1.7743 -0.1203
 4545TIP3   OH213598   4.235   6.358   4.831 -0.1438 -0.5927 -0.1486
 4545TIP3    H113599   4.326   6.340   4.853  0.1276 -0.9817 -1.5012
 4545TIP3    H213600   4.230   6.453   4.823 -0.1587 -0.4755  1.1144
 4546TIP3   OH213601   3.183   5.379   3.350 -0.3006  0.0649 -0.1312
 4546TIP3    H113602   3.251   5.346   3.292  0.0145  2.0422 -0.9629
 4546TIP3    H213603   3.124   5.429   3.294 -1.8739 -0.7448  0.7434
 4547TIP3   OH213604   4.698   3.884   1.722  0.0636 -0.2025 -0.0510
 4547TIP3    H113605   4.653   3.957   1.679  0.6536  0.0008 -0.3393
 4547TIP3    H213606   4.710   3.913   1.813 -2.1899 -1.0898  0.5753
 4548TIP3   OH213607   6.721   6.374   0.082 -0.4020 -0.1116  0.8371
 4548TIP3    H113608   6.641   6.325   0.059 -1.0940  1.8213 -1.2465
 4548TIP3    H213609   6.783   6.353   0.011 -0.2290  0.8974  0.6747
 4549TIP3   OH213610   5.581   0.126   0.956 -0.4064  0.6520  0.0638
 4549TIP3    H113611   5.655   0.078   0.918 -0.9891  0.4114 -0.8062
 4549TIP3    H213612   5.620   0.177   1.027  0.4813  0.0208  0.0589
 4550TIP3   OH213613   5.916   1.143   1.763 -0.3641  0.2783 -0.1032
 4550TIP3    H113614   5.928   1.075   1.829 -0.8285 -0.4027 -0.7114
 4550TIP3    H213615   5.823   1.165   1.767 -0.3429  0.4201 -0.3587
 4551TIP3   OH213616   6.906   3.605   3.052  0.0063  0.3779 -0.1004
 4551TIP3    H113617   6.841   3.566   3.109  0.5078  0.2974  0.4253
 4551TIP3    H213618   6.924   3.690   3.091 -2.4863  2.0538 -2.2772
 4552TIP3   OH213619   5.382   0.311   1.680 -0.0290  0.2380  0.0078
 4552TIP3    H113620   5.351   0.402   1.677  2.0536  0.9962 -0.2355
 4552TIP3    H213621   5.338   0.268   1.606  1.4236  1.9393 -1.9568
 4553TIP3   OH213622   0.604   6.148   1.650 -0.0561 -0.6123  0.1265
 4553TIP3    H113623   0.527   6.204   1.659 -1.1336 -2.0597  0.3488
 4553TIP3    H213624   0.677   6.201   1.683 -1.2248  0.2236  1.4970
 4554TIP3   OH213625   4.568   0.455   0.444 -0.1746 -0.3583  0.0668
 4554TIP3    H113626   4.477   0.427   0.452 -0.7094  1.7098  2.5377
 4554TIP3    H213627   4.570   0.542   0.485  2.6061  0.3627 -1.3585
 4555TIP3   OH213628   5.462   6.579   4.652  0.0861 -0.8165  0.2986
 4555TIP3    H113629   5.523   6.651   4.666  0.5210 -1.1789  0.2753
 4555TIP3    H213630   5.430   6.592   4.563  0.4448 -0.8606  0.1623
 4556TIP3   OH213631   4.879   0.645   0.362 -0.1403  0.5592  0.1864
 4556TIP3    H113632   4.802   0.629   0.307 -1.6874  0.3936  2.2959
 4556TIP3    H213633   4.876   0.575   0.427  1.2245  1.1577  0.9262
 4557TIP3   OH213634   1.038   1.718   5.481 -0.7867 -0.2843  0.7024
 4557TIP3    H113635   1.095   1.790   5.452 -1.4671 -0.9269 -2.6768
 4557TIP3    H213636   1.034   1.728   5.576  3.0447  1.1773  0.9063
 4558TIP3   OH213637   3.990   0.867   2.633  0.3682 -0.3515 -0.0093
 4558TIP3    H113638   4.039   0.948   2.646  1.2576 -1.0313  1.0427
 4558TIP3    H213639   4.057   0.802   2.609 -0.1179 -1.1021  0.6202
 4559TIP3   OH213640   0.008   2.353   2.075 -0.5473 -0.1839  0.3490
 4559TIP3    H113641   0.024   2.345   1.981 -0.4851 -0.0522  0.3479
 4559TIP3    H213642   0.018   2.264   2.109  1.6276  0.0761  0.5767
 4560TIP3   OH213643   4.639   3.893   2.297  0.4407 -0.3695 -0.3532
 4560TIP3    H113644   4.734   3.898   2.303  0.3228  2.7624  3.8685
 4560TIP3    H213645   4.611   3.982   2.274 -1.4535 -0.7712  0.1671
 4561TIP3   OH213646   1.881   5.732   2.965  0.4569 -0.0972  0.5787
 4561TIP3    H113647   1.918   5.777   2.888 -2.5234 -1.1606 -1.6627
 4561TIP3    H213648   1.876   5.641   2.938 -3.3233 -0.0958  0.7449
 4562TIP3   OH213649   0.586   5.289   5.448 -0.1410 -0.0964  0.0298
 4562TIP3    H113650   0.661   5.325   5.497 -0.8726 -1.1347  1.9752
 4562TIP3    H213651   0.621   5.211   5.405  0.5396  0.8941 -1.2824
 4563TIP3   OH213652   6.415   2.743   2.497 -0.1181 -0.3352 -0.2539
 4563TIP3    H113653   6.461   2.751   2.581 -0.8351 -0.0927  0.1307
 4563TIP3    H213654   6.430   2.652   2.470 -0.0447 -0.4718  0.2351
 4564TIP3   OH213655   2.226   6.388   3.923 -0.2926  0.3268  0.1263
 4564TIP3    H113656   2.237   6.361   3.832  0.7722  0.2827  0.2615
 4564TIP3    H213657   2.185   6.313   3.966  0.6412 -0.2524  0.0215
 4565TIP3   OH213658   4.051   0.628   0.258  0.4997  0.0370 -0.3644
 4565TIP3    H113659   3.980   0.674   0.212  1.2501  1.5918 -0.0053
 4565TIP3    H213660   4.016   0.539   0.271 -0.5785  0.1593 -2.0043
 4566TIP3   OH213661   5.083   0.623   3.807 -0.3481  0.0381  0.0184
 4566TIP3    H113662   5.128   0.557   3.754  0.4248  1.7909 -1.6399
 4566TIP3    H213663   5.144   0.640   3.879 -0.0937 -0.3161 -0.1070
 4567TIP3   OH213664   7.208   5.575   0.312  0.5877 -0.0466 -0.0668
 4567TIP3    H113665   7.121   5.608   0.335  0.5912 -0.7823  1.1036
 4567TIP3    H213666   7.230   5.514   0.383  1.3233 -1.1933 -1.2403
 4568TIP3   OH213667   6.682   0.228   1.479  0.1213 -0.0464  0.1392
 4568TIP3    H113668   6.655   0.271   1.560  0.0152 -1.1976  0.7254
 4568TIP3    H213669   6.686   0.135   1.501  1.9587 -0.1978 -0.6477
 4569TIP3   OH213670   1.635   0.810   1.245  0.0365  0.4349  0.0889
 4569TIP3    H113671   1.562   0.767   1.290  0.8639 -0.7677  0.3447
 4569TIP3    H213672   1.698   0.740   1.232  0.7897  1.2792 -0.8870
 4570TIP3   OH213673   2.678   4.743   3.759 -0.0013  0.1703 -0.4656
 4570TIP3    H113674   2.660   4.834   3.782  0.8723  0.4320 -0.7683
 4570TIP3    H213675   2.753   4.748   3.700 -0.0194 -0.7417 -0.5798
 4571TIP3   OH213676   3.939   1.301   5.418  0.2376  0.1215 -0.1574
 4571TIP3    H113677   3.855   1.264   5.442  0.9026 -1.2556  0.1459
 4571TIP3    H213678   3.956   1.367   5.485 -0.7380  0.6449 -0.4125
 4572TIP3   OH213679   1.431   5.749   1.378  0.1361 -0.0769 -0.1885
 4572TIP3    H113680   1.373   5.712   1.444 -1.7869 -0.3921 -1.9499
 4572TIP3    H213681   1.429   5.843   1.394  1.9621 -0.2907  1.8761
 4573TIP3   OH213682   3.452   1.073   1.960  0.0830  0.1732 -0.1615
 4573TIP3    H113683   3.525   1.066   1.898 -0.3801 -1.4661 -0.5668
 4573TIP3    H213684   3.393   1.137   1.920  0.0660 -0.4380 -1.1614
 4574TIP3   OH213685   2.690   1.474   3.275 -1.0246  0.2159  0.0193
 4574TIP3    H113686   2.744   1.552   3.261 -1.6663  0.3988 -1.7088
 4574TIP3    H213687   2.712   1.417   3.201 -0.1813 -1.5008  1.5163
 4575TIP3   OH213688   2.762   0.286   1.811 -0.1046  0.9288  0.4477
 4575TIP3    H113689   2.732   0.297   1.901 -1.2484 -0.0338  0.1977
 4575TIP3    H213690   2.809   0.368   1.792  0.2179  1.1190  1.9247
 4576TIP3   OH213691   0.525   5.184   3.878  0.2543  0.1307 -0.0951
 4576TIP3    H113692   0.470   5.236   3.936  2.0090 -0.3818  2.1834
 4576TIP3    H213693   0.487   5.096   3.879 -1.4262  0.7540 -2.1881
 4577TIP3   OH213694   0.205   0.774   0.643 -0.0720  0.4646  0.1311
 4577TIP3    H113695   0.248   0.782   0.558  1.6746  0.7492  1.0034
 4577TIP3    H213696   0.113   0.758   0.622  0.1506  1.4400 -1.8005
 4578TIP3   OH213697   5.743   1.307   4.726  0.8372  0.4385  0.3437
 4578TIP3    H113698   5.688   1.275   4.798  0.2180  0.7364  0.0140
 4578TIP3    H213699   5.757   1.400   4.746 -2.5142  1.5779 -1.7839
 4579TIP3   OH213700   3.132   0.526   3.353 -0.5502 -0.1202 -0.7583
 4579TIP3    H113701   3.073   0.599   3.373 -2.1951 -1.0381 -2.0498
 4579TIP3    H213702   3.135   0.475   3.435  1.6338  1.9535  0.5944
 4580TIP3   OH213703   1.814   3.387   3.188 -0.0967  0.2896 -0.0662
 4580TIP3    H113704   1.907   3.384   3.213 -0.2067  1.2498  0.5006
 4580TIP3    H213705   1.811   3.344   3.103  0.9524  0.7154 -0.3344
 4581TIP3   OH213706   1.449   5.398   4.136 -0.0895 -0.3244 -0.0515
 4581TIP3    H113707   1.528   5.428   4.182 -1.5520  0.6111  1.9974
 4581TIP3    H213708   1.466   5.306   4.117  1.3214 -0.2613  0.7666
 4582TIP3   OH213709   6.441   2.648   5.397 -0.0563 -0.0184  0.1733
 4582TIP3    H113710   6.507   2.705   5.358  0.8935  0.4565  2.3394
 4582TIP3    H213711   6.358   2.690   5.376  0.2093 -0.8464 -2.9533
 4583TIP3   OH213712   1.503   3.243   0.026  0.3408  0.2615  0.4165
 4583TIP3    H113713   1.587   3.286   0.042  0.1745  0.9146 -0.4012
 4583TIP3    H213714   1.513   3.202  -0.060 -0.3052  0.6927  0.1231
 4584TIP3   OH213715   0.397   5.497   5.451 -0.1532  0.2600 -0.5163
 4584TIP3    H113716   0.342   5.473   5.525 -0.2949  1.2647 -0.2849
 4584TIP3    H213717   0.470   5.435   5.455 -0.7512 -0.4397 -0.2367
 4585TIP3   OH213718   4.233   0.653   1.559  0.5547 -0.1085 -0.1523
 4585TIP3    H113719   4.245   0.686   1.470 -0.0137  0.2975 -0.0857
 4585TIP3    H213720   4.277   0.717   1.615 -1.8220  1.4441  0.1012
 4586TIP3   OH213721   5.481   1.106   3.459 -0.4503 -0.1601 -0.4781
 4586TIP3    H113722   5.399   1.060   3.443  0.1237 -1.1568 -0.6432
 4586TIP3    H213723   5.516   1.124   3.372 -1.1816  1.5696 -0.4401
 4587TIP3   OH213724   5.217   6.719   4.753 -0.8382  0.0764 -0.3275
 4587TIP3    H113725   5.288   6.664   4.720 -2.1532 -1.2647 -1.0653
 4587TIP3    H213726   5.173   6.752   4.674 -1.3620  0.4294  0.1011
 4588TIP3   OH213727   0.216   5.295   2.707 -0.5025  0.2411  0.6983
 4588TIP3    H113728   0.211   5.368   2.645  1.3921 -1.7665 -2.0461
 4588TIP3    H213729   0.164   5.225   2.667  1.3345 -1.3649  0.9496
 4589TIP3   OH213730   7.030   4.165   0.397 -0.3041  0.0077 -0.7276
 4589TIP3    H113731   7.085   4.094   0.430 -1.2388 -0.1270  0.6592
 4589TIP3    H213732   6.940   4.135   0.414 -0.7084  1.7686  0.5230
 4590TIP3   OH213733   3.955   4.774   4.897  0.4329 -0.9715 -0.5923
 4590TIP3    H113734   3.891   4.705   4.913  0.2679 -0.4939  0.9936
 4590TIP3    H213735   3.931   4.810   4.812 -1.3910 -0.8558 -0.0704
 4591TIP3   OH213736   2.070   2.685   5.629 -0.4234 -0.1223  0.7977
 4591TIP3    H113737   2.003   2.678   5.561  0.1176 -1.7196  0.3991
 4591TIP3    H213738   2.022   2.678   5.712 -0.8334 -0.5147  0.5292
 4592TIP3   OH213739   5.053   4.160   2.373  0.4440 -0.5817 -0.0122
 4592TIP3    H113740   5.140   4.152   2.335  0.2325  1.9925 -1.2582
 4592TIP3    H213741   5.020   4.244   2.340 -1.0708  0.3237  3.3286
 4593TIP3   OH213742   5.275   3.142   5.559  0.4029 -0.0329  0.1480
 4593TIP3    H113743   5.337   3.203   5.598 -0.7816  2.3382 -1.4076
 4593TIP3    H213744   5.216   3.197   5.508 -1.6360 -2.3790 -0.2405
 4594TIP3   OH213745   2.630   3.076   0.303  0.5076 -0.2555  0.1152
 4594TIP3    H113746   2.536   3.090   0.296  0.2003 -1.4054  1.3636
 4594TIP3    H213747   2.655   3.117   0.386  1.4601  1.5084 -0.9814
 4595TIP3   OH213748   2.134   2.579   4.416 -0.3102 -0.0867  0.6815
 4595TIP3    H113749   2.212   2.558   4.468  0.0022  0.1479  0.3157
 4595TIP3    H213750   2.124   2.674   4.426 -0.3749 -0.0742  0.4878
 4596TIP3   OH213751   0.424   1.723   5.542  0.6248 -0.1038  0.3845
 4596TIP3    H113752   0.448   1.646   5.593  1.9516  0.7986  1.1794
 4596TIP3    H213753   0.486   1.791   5.569 -0.4235  1.2228 -0.3779
 4597TIP3   OH213754   5.645   5.765   2.948 -0.2145 -0.2448 -0.0794
 4597TIP3    H113755   5.709   5.752   3.018 -0.7028 -1.2662  0.2044
 4597TIP3    H213756   5.697   5.779   2.869  0.4351 -2.7817 -0.1962
 4598TIP3   OH213757   3.217   5.740   4.248 -0.2612 -0.0878 -0.1760
 4598TIP3    H113758   3.299   5.766   4.207  0.0914 -0.7844  0.0764
 4598TIP3    H213759   3.150   5.759   4.181  0.1961 -0.2878 -0.7016
 4599TIP3   OH213760   0.277   4.638   2.765  0.5805  0.3202  0.1389
 4599TIP3    H113761   0.313   4.619   2.678 -1.2742  0.8247 -0.8097
 4599TIP3    H213762   0.344   4.610   2.826  1.5597 -0.9333 -1.4390
 4600TIP3   OH213763   3.762   0.324   1.900  0.3348  1.0347 -0.5906
 4600TIP3    H113764   3.838   0.285   1.943  0.0431 -0.7072 -1.5594
 4600TIP3    H213765   3.748   0.407   1.946  1.1775  0.1462  1.3811
 4601TIP3   OH213766   0.235   5.872   2.268  0.6016 -0.0902  0.9426
 4601TIP3    H113767   0.219   5.866   2.174  2.5305  0.0964  0.5666
 4601TIP3    H213768   0.157   5.834   2.308 -0.2139 -0.2490 -0.7270
 4602TIP3   OH213769   5.820   0.757   0.238  0.1352  0.7246  0.7905
 4602TIP3    H113770   5.775   0.824   0.187  0.1667  0.6629  0.6790
 4602TIP3    H213771   5.913   0.780   0.231  0.0215  1.8636  2.4746
 4603TIP3   OH213772   2.783   2.141   4.059 -0.1639 -0.0250  0.2958
 4603TIP3    H113773   2.807   2.233   4.049 -1.5103  0.2098 -1.4472
 4603TIP3    H213774   2.688   2.139   4.041 -0.6164 -1.4548  2.4837
 4604TIP3   OH213775   3.338   2.016   1.236 -0.1344 -0.4435  0.3143
 4604TIP3    H113776   3.425   2.054   1.236  0.9678 -2.7490  1.4292
 4604TIP3    H213777   3.327   1.980   1.148 -0.4814  0.8499 -0.1929
 4605TIP3   OH213778   0.554   6.435   4.732 -0.2578  0.0751 -0.1321
 4605TIP3    H113779   0.628   6.406   4.785 -0.6407  0.4829  0.6427
 4605TIP3    H213780   0.477   6.415   4.785 -0.6332  0.6856 -0.4391
 4606TIP3   OH213781   1.446   5.059   1.282 -0.1269 -0.2011 -0.2152
 4606TIP3    H113782   1.541   5.059   1.294  0.0044 -0.0251 -1.1594
 4606TIP3    H213783   1.429   5.135   1.227 -1.1917  1.7294  2.5494
 4607TIP3   OH213784   0.963   3.946   2.918  0.3795 -0.3022  0.5036
 4607TIP3    H113785   0.994   3.931   2.829 -2.5805 -1.6555 -0.4212
 4607TIP3    H213786   1.012   4.023   2.948  0.4005  1.1659 -2.8530
 4608TIP3   OH213787   3.563   5.731   0.422 -0.2903 -0.6337  0.2315
 4608TIP3    H113788   3.501   5.705   0.354  1.4376 -2.1071 -0.8709
 4608TIP3    H213789   3.585   5.822   0.401 -0.8947 -0.5995 -0.2879
 4609TIP3   OH213790   1.593   4.585   3.238 -0.3685  0.1029 -0.1828
 4609TIP3    H113791   1.611   4.656   3.177 -1.9487 -0.1286 -0.9813
 4609TIP3    H213792   1.619   4.620   3.323 -0.3638  1.3372 -0.6613
 4610TIP3   OH213793   4.551   5.806   4.417 -0.0901  0.4327 -0.1410
 4610TIP3    H113794   4.542   5.823   4.323  0.6236 -0.6332 -0.4163
 4610TIP3    H213795   4.468   5.765   4.442 -0.2521  0.6463 -0.3267
 4611TIP3   OH213796   6.186   4.459   1.289 -0.0357 -0.1868  0.1329
 4611TIP3    H113797   6.157   4.442   1.378 -1.0933 -0.3120 -0.2267
 4611TIP3    H213798   6.201   4.372   1.252  0.6137 -0.1287  0.2517
 4612TIP3   OH213799   5.566   1.818   0.021 -0.2762  0.2336 -0.2933
 4612TIP3    H113800   5.512   1.896   0.012  1.3066  1.3683 -0.5126
 4612TIP3    H213801   5.628   1.841   0.091  0.5591 -0.6187 -0.7398
 4613TIP3   OH213802   4.689   4.774   0.799  0.0105 -0.0535 -0.3009
 4613TIP3    H113803   4.668   4.862   0.829  1.3862  0.4334 -0.7318
 4613TIP3    H213804   4.648   4.768   0.713 -0.3290  0.0449 -0.1514
 4614TIP3   OH213805   1.519   6.339   5.001 -0.2032  0.0496  0.2243
 4614TIP3    H113806   1.463   6.396   4.949 -1.7746 -1.0765  0.6191
 4614TIP3    H213807   1.485   6.251   4.985  1.5519 -0.7114  0.3833
 4615TIP3   OH213808   1.579   1.268   0.161 -0.4245 -0.3878  1.1272
 4615TIP3    H113809   1.554   1.310   0.244  1.5328 -0.3510  1.7456
 4615TIP3    H213810   1.558   1.333   0.094  0.1269  0.5242  1.8232
 4616TIP3   OH213811   6.949   2.288   4.502 -0.0255  0.2281 -0.3867
 4616TIP3    H113812   6.955   2.376   4.464 -1.2303  0.7293  0.5410
 4616TIP3    H213813   6.914   2.302   4.590 -0.3282 -1.1899 -0.2612
 4617TIP3   OH213814   4.251   0.948   1.693  0.1629 -0.6877 -0.1040
 4617TIP3    H113815   4.346   0.950   1.692  0.1647 -0.9580 -1.2493
 4617TIP3    H213816   4.227   0.985   1.778  1.2454  1.0311 -0.5123
 4618TIP3   OH213817   6.105   0.131   1.571  0.2701  0.4607 -0.0628
 4618TIP3    H113818   6.197   0.108   1.561  0.2924 -0.2992  1.5726
 4618TIP3    H213819   6.058   0.072   1.512  0.8030  0.7446 -0.7822
 4619TIP3   OH213820   5.960   5.314   2.425 -0.1507  0.3297 -0.1873
 4619TIP3    H113821   6.043   5.283   2.389  1.4088  1.0393  2.4657
 4619TIP3    H213822   5.922   5.368   2.357  2.9996  2.3186 -0.5536
 4620TIP3   OH213823   6.494   5.888   4.961  1.1538 -0.1724 -0.1788
 4620TIP3    H113824   6.401   5.905   4.949  0.9277  0.6125  2.1816
 4620TIP3    H213825   6.537   5.937   4.891 -0.1190  1.0462 -0.1485
 4621TIP3   OH213826   5.357   5.301   2.357 -0.1479 -0.3211  0.1934
 4621TIP3    H113827   5.427   5.271   2.299 -0.3488  0.0418 -0.2396
 4621TIP3    H213828   5.349   5.395   2.339 -1.0320 -0.4368 -0.0645
 4622TIP3   OH213829   3.893   5.375   4.081  0.0559 -0.1668 -0.3428
 4622TIP3    H113830   3.835   5.317   4.031  0.0768 -1.0417  0.6159
 4622TIP3    H213831   3.969   5.321   4.102  1.7359  1.2360 -2.4148
 4623TIP3   OH213832   7.021   2.662   4.960  0.0355 -0.0789 -0.2138
 4623TIP3    H113833   6.980   2.583   4.997 -0.4797 -0.4278 -1.5053
 4623TIP3    H213834   7.079   2.692   5.030 -2.1864  0.2930  1.5786
 4624TIP3   OH213835   2.762   6.330   3.110  0.1021  0.3391  0.0428
 4624TIP3    H113836   2.699   6.352   3.042  2.0562  1.9026 -1.4104
 4624TIP3    H213837   2.762   6.407   3.167  0.3301  0.1469  0.3007
 4625TIP3   OH213838   6.260   6.464   3.814  0.3196  0.3798  0.1796
 4625TIP3    H113839   6.277   6.371   3.798  0.3985  0.4119  0.0787
 4625TIP3    H213840   6.165   6.469   3.826  0.3558  0.2293  0.5588
 4626TIP3   OH213841   0.885   5.855   3.325  0.4317  0.2748  0.4646
 4626TIP3    H113842   0.794   5.851   3.294  0.2269  0.4514  1.0326
 4626TIP3    H213843   0.890   5.936   3.375  0.6058 -0.2678  1.3484
 4627TIP3   OH213844   6.864   4.049   1.067  0.3606 -0.3065  0.4621
 4627TIP3    H113845   6.802   4.077   1.135 -0.3849 -1.6439  0.3722
 4627TIP3    H213846   6.823   3.971   1.028  1.1547 -0.0290 -0.9861
 4628TIP3   OH213847   3.807   6.291   1.650  0.0730 -1.0690  0.1682
 4628TIP3    H113848   3.855   6.212   1.627 -0.1126 -1.3990  0.8909
 4628TIP3    H213849   3.744   6.263   1.717 -0.4135 -0.4363 -0.0067
 4629TIP3   OH213850   5.764   5.619   3.173  0.2382  0.4690 -0.2838
 4629TIP3    H113851   5.838   5.594   3.228  1.4582 -0.3630 -2.2178
 4629TIP3    H213852   5.761   5.553   3.104 -3.1466 -0.2894  0.3986
 4630TIP3   OH213853   1.087   4.786   5.265  0.2785  0.4755  0.0272
 4630TIP3    H113854   1.168   4.737   5.278  1.2650  1.6990 -1.3241
 4630TIP3    H213855   1.114   4.877   5.256 -1.1406  0.8068 -1.3735
 4631TIP3   OH213856   6.082   0.080   2.844  0.1835  0.6566 -0.4271
 4631TIP3    H113857   6.101  -0.013   2.851  1.3880  0.9438  0.5797
 4631TIP3    H213858   5.988   0.085   2.830 -0.3479 -0.6742  2.1008
 4632TIP3   OH213859   6.514   6.273   4.335  0.3991  0.1393 -0.6972
 4632TIP3    H113860   6.448   6.204   4.340 -1.3260  1.7289  0.0416
 4632TIP3    H213861   6.463   6.354   4.328  2.2449  1.5031  0.5243
 4633TIP3   OH213862   2.861   2.712   0.203 -0.1541 -0.0049  0.4565
 4633TIP3    H113863   2.771   2.716   0.169 -0.7659 -0.4091  1.9143
 4633TIP3    H213864   2.871   2.793   0.253 -0.3627 -0.7364  1.7411
 4634TIP3   OH213865   4.579   6.468   3.766 -0.0016 -0.4509 -1.1289
 4634TIP3    H113866   4.554   6.532   3.833 -0.6391 -0.6761 -1.1448
 4634TIP3    H213867   4.508   6.404   3.765  0.0965 -0.5658 -1.8822
 4635TIP3   OH213868   1.016   0.303   3.005 -0.3345  0.0760  0.2230
 4635TIP3    H113869   0.992   0.301   3.098  3.4817  1.1744  1.4186
 4635TIP3    H213870   1.069   0.382   2.996  4.0705 -2.7087 -1.4504
 4636TIP3   OH213871   3.032   4.912   0.636 -0.6903  0.5736  0.0947
 4636TIP3    H113872   3.063   4.995   0.672 -1.0433  0.8804 -0.3105
 4636TIP3    H213873   3.062   4.912   0.545  0.4162 -0.3154  0.4340
 4637TIP3   OH213874   0.828   0.422   5.400 -0.0645 -0.0770 -0.3112
 4637TIP3    H113875   0.907   0.428   5.454  0.5135  1.5035 -1.2389
 4637TIP3    H213876   0.757   0.442   5.460  0.2435 -1.2334  0.4758
 4638TIP3   OH213877   6.848   1.689   2.223 -0.0389  0.8669  0.3825
 4638TIP3    H113878   6.800   1.632   2.283  1.1269  0.9263  1.4144
 4638TIP3    H213879   6.780   1.743   2.182 -1.4143 -2.3103 -1.9330
 4639TIP3   OH213880   0.264   5.491   3.769 -0.0540 -0.4196 -0.1662
 4639TIP3    H113881   0.260   5.575   3.722  0.0643 -0.5935 -0.4939
 4639TIP3    H213882   0.252   5.425   3.700 -0.9717 -0.6523  0.2033
 4640TIP3   OH213883   4.611   4.784   4.260  0.3335  0.1787 -0.4995
 4640TIP3    H113884   4.605   4.798   4.166 -0.0629  2.6145 -0.1566
 4640TIP3    H213885   4.702   4.803   4.282  0.2402  0.3664 -0.2733
 4641TIP3   OH213886   2.631   5.040   5.316  0.7245 -0.1891 -0.2426
 4641TIP3    H113887   2.681   5.097   5.375  1.7308  1.0165 -2.1743
 4641TIP3    H213888   2.546   5.083   5.308  0.4387 -0.5779  0.6275
 4642TIP3   OH213889   6.672   0.511   4.606 -0.1106 -0.0680 -0.7270
 4642TIP3    H113890   6.584   0.532   4.573  0.5461  1.7948 -1.4874
 4642TIP3    H213891   6.666   0.524   4.700 -0.7045 -0.1364 -0.7497
 4643TIP3   OH213892   4.689   5.446   4.879 -0.1974 -0.1769  0.1679
 4643TIP3    H113893   4.749   5.504   4.927 -0.0769 -0.0650 -0.1121
 4643TIP3    H213894   4.608   5.447   4.930  0.5524 -1.6453  1.4722
 4644TIP3   OH213895   6.819   1.109   5.348  0.3506  0.1323 -0.0908
 4644TIP3    H113896   6.891   1.076   5.403 -0.1816 -0.1661  0.4323
 4644TIP3    H213897   6.749   1.130   5.410  0.2896  1.2537 -0.5095
 4645TIP3   OH213898   4.532   1.649   0.176 -0.4544  0.0675  0.3457
 4645TIP3    H113899   4.469   1.721   0.182 -0.5784 -0.1310  1.8633
 4645TIP3    H213900   4.536   1.628   0.083 -0.9026  1.5984 -0.0529
 4646TIP3   OH213901   1.254   5.783   2.712  0.1753 -0.0749 -0.6138
 4646TIP3    H113902   1.176   5.768   2.767 -0.4567 -1.2607 -1.7789
 4646TIP3    H213903   1.286   5.869   2.739  0.2031 -0.8148  1.9772
 4647TIP3   OH213904   1.349   1.175   0.385 -0.0594 -0.5068  0.8285
 4647TIP3    H113905   1.264   1.215   0.403  0.7088  1.5596  0.1849
 4647TIP3    H213906   1.366   1.194   0.293  0.8501 -1.3930  0.7954
 4648TIP3   OH213907   5.620   5.388   5.902 -0.2256 -0.0606  0.2488
 4648TIP3    H113908   5.695   5.332   5.880 -0.1874  0.1048 -0.0411
 4648TIP3    H213909   5.550   5.359   5.843  0.1521  1.0050 -0.7502
 4649TIP3   OH213910   3.353   4.608   5.337  0.2049 -0.2398  0.0536
 4649TIP3    H113911   3.342   4.696   5.301  0.5341  0.9795  2.7031
 4649TIP3    H213912   3.270   4.564   5.318 -0.3783  1.0000 -0.3965
 4650TIP3   OH213913   2.173   5.826   2.001  0.1470  0.1084  0.1041
 4650TIP3    H113914   2.092   5.775   1.991  1.5291 -1.9630 -1.1578
 4650TIP3    H213915   2.165   5.895   1.934  0.7352 -2.0105 -2.3201
 4651TIP3   OH213916   0.852   1.802   5.136 -0.6373  0.1951 -0.5490
 4651TIP3    H113917   0.782   1.778   5.074 -2.8291  0.8579  1.5140
 4651TIP3    H213918   0.814   1.787   5.222  2.5291 -1.3321  0.7404
 4652TIP3   OH213919   3.595   3.124   3.261 -1.0347  0.5602  0.2329
 4652TIP3    H113920   3.531   3.191   3.237 -1.1274  0.9013  1.3936
 4652TIP3    H213921   3.549   3.069   3.324 -0.1862  0.8332  1.1086
 4653TIP3   OH213922   2.525   4.809   2.432  0.2280  0.0197  0.1901
 4653TIP3    H113923   2.555   4.753   2.504  1.9818 -0.1222 -0.5993
 4653TIP3    H213924   2.481   4.882   2.475  2.9450  0.9721  1.5790
 4654TIP3   OH213925   6.691   1.927   3.373  0.1926 -0.1058  0.3868
 4654TIP3    H113926   6.779   1.958   3.394  0.8295 -0.5436 -1.4659
 4654TIP3    H213927   6.675   1.858   3.437  0.8163  0.5784  1.3129
 4655TIP3   OH213928   0.911   0.041   5.842  0.1844 -0.3162 -0.4918
 4655TIP3    H113929   0.986   0.097   5.861 -0.8906  0.9143  0.3728
 4655TIP3    H213930   0.915   0.026   5.748 -0.0268  2.1155 -0.9626
 4656TIP3   OH213931   2.850   4.077   2.794 -0.0927 -0.2788  0.2283
 4656TIP3    H113932   2.931   4.121   2.769 -0.9819  1.4805  0.2649
 4656TIP3    H213933   2.807   4.057   2.710  0.0281 -0.5381  0.2267
 4657TIP3   OH213934   5.784   4.539   0.551 -0.3053 -0.2547 -0.1728
 4657TIP3    H113935   5.841   4.557   0.475 -1.8916 -1.7662 -1.8258
 4657TIP3    H213936   5.741   4.456   0.529 -1.4676 -0.2962  2.0335
 4658TIP3   OH213937   5.019   6.006   2.742  0.7205  0.2226 -0.0814
 4658TIP3    H113938   5.079   5.937   2.713  1.3787  0.9540 -0.5201
 4658TIP3    H213939   4.966   6.026   2.664  1.1445  0.8245 -0.2241
 4659TIP3   OH213940   5.434   4.513   2.787 -0.1712  0.2223 -0.2898
 4659TIP3    H113941   5.380   4.564   2.726  1.6298  0.1345 -2.0847
 4659TIP3    H213942   5.382   4.435   2.806 -1.0512  0.5517 -1.2522
 4660TIP3   OH213943   5.733   2.177   2.983  0.2062  0.1801  0.4373
 4660TIP3    H113944   5.770   2.265   2.977 -2.0118  1.0963 -0.9995
 4660TIP3    H213945   5.752   2.150   3.073  1.2696  1.9682  0.8057
 4661TIP3   OH213946   4.054   4.344   5.173 -0.1160  0.4246  0.3043
 4661TIP3    H113947   4.016   4.417   5.124  0.5429  0.9679  0.5920
 4661TIP3    H213948   3.979   4.307   5.221 -0.9746 -0.7200 -1.7868
 4662TIP3   OH213949   0.453   1.795   0.387  0.8185  0.1899 -0.4936
 4662TIP3    H113950   0.500   1.872   0.418 -0.8905  1.2846 -0.5012
 4662TIP3    H213951   0.365   1.827   0.366  0.5407 -1.4476 -2.0414
 4663TIP3   OH213952   6.824   1.719   2.952  0.0418 -0.1929  0.3593
 4663TIP3    H113953   6.734   1.744   2.973  0.2649  0.2150  0.8382
 4663TIP3    H213954   6.838   1.753   2.864  0.6563  2.3104  1.3367
 4664TIP3   OH213955   3.742   1.052   0.397  0.1133  0.2063  0.2886
 4664TIP3    H113956   3.818   1.047   0.454 -0.1493 -2.9524  0.5368
 4664TIP3    H213957   3.773   1.100   0.320  1.5417  1.3156  1.5031
 4665TIP3   OH213958   1.104   2.960   2.549 -1.0193  0.3980 -0.0252
 4665TIP3    H113959   1.159   3.022   2.597 -0.0250  0.0549 -0.6959
 4665TIP3    H213960   1.166   2.896   2.513 -2.0967 -2.2706  2.3927
 4666TIP3   OH213961   3.484   0.264   0.773  0.0239 -0.4174  0.4998
 4666TIP3    H113962   3.522   0.283   0.687 -1.2637 -0.6130 -0.1360
 4666TIP3    H213963   3.419   0.195   0.756 -2.5793  1.7407  1.0539
 4667TIP3   OH213964   6.057   1.209   2.558 -0.1396 -0.1235 -1.0508
 4667TIP3    H113965   6.101   1.141   2.507 -0.1505 -0.2880 -0.8450
 4667TIP3    H213966   5.981   1.165   2.595 -0.2748  0.0642 -1.1052
 4668TIP3   OH213967   4.631   1.454   0.474  0.3445 -0.1066 -0.0141
 4668TIP3    H113968   4.547   1.431   0.515 -0.9882  3.2100 -0.5789
 4668TIP3    H213969   4.651   1.380   0.417 -2.9909 -0.4183 -0.9827
 4669TIP3   OH213970   5.336   1.478   3.491 -0.2744  0.8899  0.3681
 4669TIP3    H113971   5.421   1.447   3.459 -0.3603  0.5306  0.4837
 4669TIP3    H213972   5.324   1.433   3.574 -2.0558 -1.6376 -1.1189
 4670TIP3   OH213973   5.427   5.446   3.995 -0.1724 -0.2618  0.7181
 4670TIP3    H113974   5.481   5.382   4.041  0.1354 -0.5402 -0.0079
 4670TIP3    H213975   5.488   5.516   3.970 -0.3573 -0.0567  0.8384
 4671TIP3   OH213976   2.082   5.997   5.613 -0.5491  0.6360  0.5253
 4671TIP3    H113977   2.072   5.916   5.562  2.1971  0.3670  0.2423
 4671TIP3    H213978   2.068   6.067   5.550 -0.9985  0.3414  0.2968
 4672TIP3   OH213979   6.297   1.911   4.583 -0.6803 -0.4181  0.0503
 4672TIP3    H113980   6.260   1.925   4.496 -1.5678 -0.6148  0.3836
 4672TIP3    H213981   6.386   1.880   4.567 -0.0326  1.7150 -0.7586
 4673TIP3   OH213982   3.097   5.579   3.186 -0.0124  0.7088  0.0821
 4673TIP3    H113983   3.073   5.535   3.105 -0.2746 -0.8586  0.9614
 4673TIP3    H213984   3.061   5.667   3.178  0.0442  0.6135 -1.5185
 4674TIP3   OH213985   0.566   1.633   2.106 -0.2605 -0.1400 -0.2681
 4674TIP3    H113986   0.564   1.728   2.101 -0.8125 -0.2021 -2.7527
 4674TIP3    H213987   0.525   1.604   2.024 -0.8935 -2.5267  0.7915
 4675TIP3   OH213988   0.580   2.466   0.120 -0.8413  0.2078 -0.2903
 4675TIP3    H113989   0.585   2.498   0.029  0.4909 -1.6026 -0.8991
 4675TIP3    H213990   0.649   2.515   0.166  2.1106 -2.4580 -1.5184
 4676TIP3   OH213991   6.849   0.059   2.798 -0.6518  0.4164  0.1507
 4676TIP3    H113992   6.777   0.017   2.750  0.8627  0.4933 -2.3698
 4676TIP3    H213993   6.860   0.005   2.876 -0.3357 -2.5616 -1.7964
 4677TIP3   OH213994   4.241   3.919   5.126 -0.4868 -0.0584 -0.1241
 4677TIP3    H113995   4.175   3.984   5.100  0.3115  0.9026  0.1814
 4677TIP3    H213996   4.210   3.837   5.088 -3.1258 -0.1750  1.8983
 4678TIP3   OH213997   1.478   2.028   4.606  0.3439  0.2281 -0.8119
 4678TIP3    H113998   1.440   1.943   4.624  1.0521  0.1483  0.4877
 4678TIP3    H213999   1.433   2.088   4.666  0.8047  0.4955 -0.7193
 4679TIP3   OH214000   0.119   1.363   1.560  0.1198 -0.3101  0.0783
 4679TIP3    H114001   0.134   1.270   1.541 -0.8393 -0.1208 -1.8883
 4679TIP3    H214002   0.207   1.399   1.573  0.7153 -1.0349 -1.6239
 4680TIP3   OH214003   1.781   3.126   1.623 -0.2982 -0.5276 -0.4281
 4680TIP3    H114004   1.738   3.104   1.541  1.5849 -0.3011 -1.5368
 4680TIP3    H214005   1.808   3.042   1.661  0.2708 -0.5641 -0.8930
 4681TIP3   OH214006   4.717   5.352   2.657  0.1702 -0.3112  0.0605
 4681TIP3    H114007   4.672   5.433   2.633  0.8951  0.1620  0.2855
 4681TIP3    H214008   4.688   5.289   2.591 -0.9722 -0.0711  0.3172
 4682TIP3   OH214009   1.226   6.190   5.743  0.1414 -0.5202  0.7005
 4682TIP3    H114010   1.186   6.246   5.676  3.0021 -0.6950 -1.3662
 4682TIP3    H214011   1.214   6.237   5.825  0.3135  1.9414 -0.6093
 4683TIP3   OH214012   5.370   1.382   2.633  0.4813  0.1704 -0.3390
 4683TIP3    H114013   5.326   1.397   2.549  1.5652 -1.8781 -1.3706
 4683TIP3    H214014   5.299   1.371   2.695 -0.3917  0.2821 -1.2840
 4684TIP3   OH214015   4.633   3.088   4.467 -0.2346 -0.3448  0.0079
 4684TIP3    H114016   4.711   3.090   4.522 -0.6836  0.6378  0.6305
 4684TIP3    H214017   4.619   2.995   4.449  0.2322 -0.6448  1.1150
 4685TIP3   OH214018   3.935   4.265   4.161 -0.2483 -0.0497 -0.3419
 4685TIP3    H114019   4.000   4.205   4.124 -0.3795  0.0091 -0.6667
 4685TIP3    H214020   3.889   4.301   4.086 -2.8134 -2.4568 -0.1075
 4686TIP3   OH214021   0.506   2.204   1.293 -0.3526 -0.7461 -0.6134
 4686TIP3    H114022   0.422   2.230   1.331 -0.4765 -0.2306 -1.2262
 4686TIP3    H214023   0.512   2.253   1.211  0.2492 -1.2775 -0.9000
 4687TIP3   OH214024   3.615   0.798   4.197 -0.2930 -0.1631  0.3448
 4687TIP3    H114025   3.583   0.878   4.155  1.9600  0.5350 -0.1770
 4687TIP3    H214026   3.636   0.825   4.286 -0.5688 -0.4488  0.4952
 4688TIP3   OH214027   5.266   0.335   2.813 -0.5280 -0.2378  0.1851
 4688TIP3    H114028   5.232   0.424   2.809  0.7621  0.3147  0.7260
 4688TIP3    H214029   5.279   0.320   2.907 -0.4713 -0.8820  0.0739
 4689TIP3   OH214030   1.541   6.021   1.848 -0.4266  0.2124 -0.4286
 4689TIP3    H114031   1.584   6.050   1.767 -0.2253 -1.2975 -0.9060
 4689TIP3    H214032   1.457   5.986   1.818 -0.3948 -0.2566  0.0314
 4690TIP3   OH214033   3.755   1.668   0.542  0.1949  0.3147 -0.2605
 4690TIP3    H114034   3.718   1.712   0.465 -1.7952 -0.2463  0.3292
 4690TIP3    H214035   3.763   1.738   0.608  3.7629  1.2589 -1.4453
 4691TIP3   OH214036   5.573   1.272   2.229  0.2956  0.5811 -0.0149
 4691TIP3    H114037   5.526   1.192   2.207 -1.2868  1.8149 -1.3607
 4691TIP3    H214038   5.568   1.278   2.324  0.5751 -0.9633  0.1249
 4692TIP3   OH214039   1.753   3.632   3.144  0.6515 -0.3000 -0.1295
 4692TIP3    H114040   1.716   3.655   3.229 -0.8878 -0.0648 -0.8243
 4692TIP3    H214041   1.774   3.539   3.151 -1.1848 -0.7614 -0.0362
 4693TIP3   OH214042   2.836   3.621   3.336 -0.0341  0.2960 -0.2909
 4693TIP3    H114043   2.906   3.557   3.353  0.2934  0.7454  0.0881
 4693TIP3    H214044   2.778   3.612   3.411 -0.2210  0.1386 -0.4542
 4694TIP3   OH214045   1.649   3.206   4.001  0.2334 -0.0933  0.0793
 4694TIP3    H114046   1.680   3.146   4.069  0.1214 -0.5418 -0.2627
 4694TIP3    H214047   1.600   3.273   4.049  3.0776  1.6116  0.8499
 4695TIP3   OH214048   4.191   1.026   3.347  0.3194  0.5576  0.9843
 4695TIP3    H114049   4.186   1.121   3.349 -0.4361  0.5267  0.6728
 4695TIP3    H214050   4.247   1.003   3.422  0.7226  1.2522  0.9031
 4696TIP3   OH214051   4.393   4.346   2.755 -0.0655 -0.7444 -0.1984
 4696TIP3    H114052   4.458   4.382   2.694 -0.3079  0.7789  0.4147
 4696TIP3    H214053   4.406   4.251   2.749 -0.0807 -0.6618 -2.6122
 4697TIP3   OH214054   2.915   6.078   1.774 -0.5077 -0.3406  0.2992
 4697TIP3    H114055   2.907   5.985   1.752 -0.9374 -0.7083  1.9003
 4697TIP3    H214056   2.826   6.112   1.764 -0.4698 -0.2355  0.3182
 4698TIP3   OH214057   7.019   3.993   4.732  0.4889 -0.0998 -0.6283
 4698TIP3    H114058   7.088   3.985   4.666  0.9507 -1.0836 -0.0372
 4698TIP3    H214059   6.989   3.903   4.747  1.1958 -0.0576  1.3459
 4699TIP3   OH214060   1.741   1.604   2.151 -0.1034 -0.0619 -0.2150
 4699TIP3    H114061   1.649   1.591   2.128 -0.0221 -1.4876  0.1707
 4699TIP3    H214062   1.739   1.672   2.219 -0.5983  1.9236 -2.0952
 4700TIP3   OH214063   1.480   5.901   0.565  0.4658 -0.3288  0.2629
 4700TIP3    H114064   1.416   5.852   0.513  0.4005 -0.3313  0.3457
 4700TIP3    H214065   1.565   5.866   0.537  0.3838 -1.1076  0.9425
 4701TIP3   OH214066   4.471   1.070   3.096 -0.2481  0.7752  0.5092
 4701TIP3    H114067   4.485   1.005   3.165  0.8255 -1.0426 -1.3186
 4701TIP3    H214068   4.397   1.036   3.046  1.5011 -0.1109 -1.5870
 4702TIP3   OH214069   3.848   4.838   1.356 -0.2218  0.5002 -0.1188
 4702TIP3    H114070   3.795   4.814   1.432 -2.5479  1.4811 -1.3197
 4702TIP3    H214071   3.859   4.756   1.307 -0.9832  0.3346 -0.0303
 4703TIP3   OH214072   2.699   4.154   3.224  0.3379 -0.0745  0.1281
 4703TIP3    H114073   2.697   4.101   3.304  0.8059 -0.8126 -0.3401
 4703TIP3    H214074   2.771   4.117   3.173 -1.1050 -0.8094 -1.4560
 4704TIP3   OH214075   5.392   2.525   3.295 -0.3938  0.0445  0.2234
 4704TIP3    H114076   5.321   2.512   3.231 -0.6183  0.5499  0.3655
 4704TIP3    H214077   5.349   2.519   3.380 -0.0526 -0.8764  0.3429
 4705TIP3   OH214078   6.568   1.766   0.319 -0.5085 -0.0721 -0.2021
 4705TIP3    H114079   6.626   1.789   0.247 -2.4939  0.8394 -1.6008
 4705TIP3    H214080   6.589   1.829   0.388  0.0334  0.3668 -0.7594
 4706TIP3   OH214081   5.350   6.339   2.871  0.4155 -0.1241 -0.1067
 4706TIP3    H114082   5.411   6.410   2.852  1.7552 -0.9566  0.9820
 4706TIP3    H214083   5.373   6.270   2.808  0.0799 -0.1552 -0.1996
 4707TIP3   OH214084   0.672   2.274   5.591 -0.4303  0.7769  0.1612
 4707TIP3    H114085   0.591   2.266   5.642 -0.4448  3.3190  0.6878
 4707TIP3    H214086   0.648   2.247   5.503 -1.8226  1.2609  0.3614
 4708TIP3   OH214087   1.341   6.292   5.256  0.3369 -0.1895  0.3371
 4708TIP3    H114088   1.424   6.273   5.212  0.5087  0.5963  0.3061
 4708TIP3    H214089   1.312   6.207   5.291  0.1584 -0.8487 -1.3247
 4709TIP3   OH214090   2.190   4.937   3.018 -0.2442 -0.1525  0.3136
 4709TIP3    H114091   2.197   4.881   3.096 -1.2361 -0.6326  0.0639
 4709TIP3    H214092   2.167   5.023   3.053 -0.4897 -0.3200  0.5681
 4710TIP3   OH214093   0.695   3.138   3.320 -0.2946 -0.5146  0.6570
 4710TIP3    H114094   0.650   3.081   3.383  1.0966  1.0862  3.2949
 4710TIP3    H214095   0.624   3.187   3.278 -1.2856 -1.4088  1.2157
 4711TIP3   OH214096   4.493   2.978   0.377 -0.6419  0.2646  0.0355
 4711TIP3    H114097   4.436   3.055   0.385  0.5783  1.0472  2.1993
 4711TIP3    H214098   4.504   2.948   0.467 -0.3676 -1.9491 -0.6903
 4712TIP3   OH214099   6.331   0.611   1.973 -0.3083  0.1235  0.2816
 4712TIP3    H114100   6.309   0.551   1.902  1.9384 -1.4438  0.8058
 4712TIP3    H214101   6.325   0.557   2.052 -0.5515  1.2335  1.0342
 4713TIP3   OH214102   3.119   2.696   3.430 -0.0015 -0.4525  0.0885
 4713TIP3    H114103   3.138   2.786   3.404 -0.0742 -0.1352  1.0756
 4713TIP3    H214104   3.047   2.705   3.493  0.4545 -1.1280  0.7223
 4714TIP3   OH214105   5.505   5.909   1.507 -0.2582  0.5565 -0.1567
 4714TIP3    H114106   5.578   5.930   1.449 -1.2097  0.6518 -1.3738
 4714TIP3    H214107   5.448   5.986   1.503 -1.6907 -0.4983 -1.3142
 4715TIP3   OH214108   5.971   1.570   4.945  0.0981 -0.0993  0.4156
 4715TIP3    H114109   6.010   1.639   4.999  2.5519 -2.1310  1.4239
 4715TIP3    H214110   5.928   1.512   5.007 -0.2447 -0.5217 -0.2043
 4716TIP3   OH214111   5.172   5.752   2.694 -0.0313  0.1304 -0.6724
 4716TIP3    H114112   5.170   5.657   2.683  2.5850  0.0386 -0.8088
 4716TIP3    H214113   5.242   5.781   2.636 -1.1562  2.2537 -1.0804
 4717TIP3   OH214114   0.796   4.450   1.925  0.1646 -0.5617 -0.5271
 4717TIP3    H114115   0.823   4.465   1.835  0.1912  1.2926 -0.2393
 4717TIP3    H214116   0.723   4.388   1.917  0.3474 -0.6496 -1.7926
 4718TIP3   OH214117   3.286   1.654   3.578  0.1831  0.5608  0.2058
 4718TIP3    H114118   3.366   1.657   3.526  0.0376 -0.8530 -0.1365
 4718TIP3    H214119   3.216   1.675   3.517  0.0164 -1.0602 -0.2143
 4719TIP3   OH214120   2.812   5.814   4.806  0.1960 -0.4185  0.3685
 4719TIP3    H114121   2.766   5.889   4.767 -1.2238 -1.4986 -0.0990
 4719TIP3    H214122   2.905   5.834   4.792 -0.1091  1.4607  0.6597
 4720TIP3   OH214123   3.054   1.223   3.583 -0.1564  0.2461 -0.9094
 4720TIP3    H114124   3.134   1.259   3.620 -1.3494  1.2871  0.7885
 4720TIP3    H214125   2.984   1.278   3.617 -1.8155 -1.9679 -0.4980
 4721TIP3   OH214126   2.376   0.504   1.147  0.6761  0.0142  0.6543
 4721TIP3    H114127   2.470   0.513   1.127  0.5935  0.1424  0.3053
 4721TIP3    H214128   2.333   0.563   1.085  0.4247  0.6932  1.4679
 4722TIP3   OH214129   3.335   2.308   3.562 -0.4122 -0.1503  0.6186
 4722TIP3    H114130   3.259   2.271   3.606 -0.1436 -0.7321  0.6046
 4722TIP3    H214131   3.373   2.235   3.513  0.0069  0.1905  0.4219
 4723TIP3   OH214132   0.826   3.619   2.648 -0.2760  0.1190  0.1129
 4723TIP3    H114133   0.829   3.523   2.646 -0.0829  0.0930  1.1084
 4723TIP3    H214134   0.737   3.639   2.676 -0.2768  0.2344  0.0290
 4724TIP3   OH214135   1.867   2.155   0.612 -0.3469  0.0542  0.3045
 4724TIP3    H114136   1.816   2.213   0.667 -1.3754 -0.0587 -0.5020
 4724TIP3    H214137   1.938   2.125   0.668 -0.0818  1.6681  0.9031
 4725TIP3   OH214138   6.595   0.938   0.214  0.2580 -0.2506  0.2106
 4725TIP3    H114139   6.640   0.974   0.138 -0.7219 -1.8793 -1.2204
 4725TIP3    H214140   6.509   0.980   0.212  0.1978 -0.3681  0.3522
 4726TIP3   OH214141   1.720   6.622   4.374 -0.3517  0.3016  0.2685
 4726TIP3    H114142   1.669   6.692   4.417 -0.1522  0.5446  0.1124
 4726TIP3    H214143   1.722   6.551   4.438 -0.6183  0.4135  0.4011
 4727TIP3   OH214144   2.522   6.337   0.643  0.5266 -0.0858 -0.1253
 4727TIP3    H114145   2.562   6.286   0.713  0.6744  1.5929  1.0746
 4727TIP3    H214146   2.502   6.421   0.683 -2.0445 -0.0223 -1.3328
 4728TIP3   OH214147   5.258   4.896   0.910 -0.9699 -0.5257 -0.2692
 4728TIP3    H114148   5.343   4.917   0.870 -0.9066 -1.1190 -0.4663
 4728TIP3    H214149   5.263   4.934   0.998  1.1711 -3.9211  1.3225
 4729TIP3   OH214150   7.122   1.882   5.778  0.1492  0.0484 -0.1080
 4729TIP3    H114151   7.090   1.837   5.700  0.9021 -0.2464 -0.2579
 4729TIP3    H214152   7.216   1.862   5.780  0.5157  1.6001 -0.1752
 4730TIP3   OH214153   3.392   5.055   2.996  0.0455 -0.4252 -0.7516
 4730TIP3    H114154   3.375   5.067   2.903  0.8342  1.3197 -0.7107
 4730TIP3    H214155   3.469   4.998   3.000  0.3533 -0.0457 -1.1979
 4731TIP3   OH214156   3.465   0.583   3.534  0.1213 -0.3482  0.1222
 4731TIP3    H114157   3.525   0.657   3.530  1.4372 -1.3477  0.6823
 4731TIP3    H214158   3.436   0.571   3.443  1.4000 -0.3279 -0.3187
 4732TIP3   OH214159   0.318   0.227   4.581 -0.1531 -0.0433 -0.1049
 4732TIP3    H114160   0.335   0.196   4.670  0.1231 -0.6716 -0.3716
 4732TIP3    H214161   0.234   0.186   4.558 -0.2854  0.2178 -0.0916
 4733TIP3   OH214162   1.082   0.925   5.848 -0.0226 -0.6177  0.2916
 4733TIP3    H114163   1.170   0.912   5.882  0.3798 -1.3399 -0.9594
 4733TIP3    H214164   1.094   0.933   5.753 -1.1664  0.6029  0.2287
 4734TIP3   OH214165   7.139   2.147   1.753 -0.2410  0.0861 -0.2873
 4734TIP3    H114166   7.191   2.067   1.756  0.2707  0.4362  0.6821
 4734TIP3    H214167   7.069   2.128   1.690 -0.9383 -1.6169  0.9309
 4735TIP3   OH214168   2.016   4.302   4.352  0.3571 -0.4568 -0.3155
 4735TIP3    H114169   1.937   4.253   4.372  0.4215 -0.8694 -1.0517
 4735TIP3    H214170   2.017   4.373   4.417 -0.8461 -0.1731 -0.5804
 4736TIP3   OH214171   0.629   3.478   3.328 -0.2771 -0.3552  0.0719
 4736TIP3    H114172   0.621   3.573   3.319  1.4940 -0.1325  0.4006
 4736TIP3    H214173   0.577   3.443   3.256  1.6978  0.9833 -2.1645
 4737TIP3   OH214174   2.441   1.874   2.032 -0.4611 -0.5745 -0.2730
 4737TIP3    H114175   2.512   1.920   1.988  0.7762 -0.8740  1.3340
 4737TIP3    H214176   2.481   1.838   2.111 -2.3457 -0.9751  0.5457
 4738TIP3   OH214177   2.874   5.150   0.320  0.2256  0.0109  0.0284
 4738TIP3    H114178   2.792   5.155   0.270  0.5620 -2.3829 -0.8930
 4738TIP3    H214179   2.927   5.224   0.288 -0.5248 -0.0252 -1.3485
 4739TIP3   OH214180   4.429   4.262   2.396 -0.1552 -0.3347 -0.2004
 4739TIP3    H114181   4.336   4.244   2.386 -0.4695  0.9032  0.3076
 4739TIP3    H214182   4.440   4.280   2.489  0.1476  1.7493 -0.5870
 4740TIP3   OH214183   4.251   5.301   0.609  0.0777  0.4709  0.2570
 4740TIP3    H114184   4.204   5.312   0.527 -0.4887 -0.1138  0.4906
 4740TIP3    H214185   4.183   5.285   0.674  0.6193 -1.3257  0.4468
 4741TIP3   OH214186   4.867   3.935   0.361  0.1123 -0.2001  0.1314
 4741TIP3    H114187   4.797   3.973   0.414  1.1144  0.7315  0.8278
 4741TIP3    H214188   4.874   3.993   0.285  1.0295  0.5229  0.7446
 4742TIP3   OH214189   2.763   0.848   0.497  0.1801 -0.0161  0.1094
 4742TIP3    H114190   2.723   0.928   0.530  0.7404  0.2208  0.2341
 4742TIP3    H214191   2.692   0.800   0.456 -0.1890  0.4796  0.1649
 4743TIP3   OH214192   2.213   2.906   0.967  0.0123 -0.4376 -0.6364
 4743TIP3    H114193   2.152   2.832   0.968 -2.1329  1.2078  1.2889
 4743TIP3    H214194   2.196   2.950   0.884  0.0764 -1.1430 -1.0280
 4744TIP3   OH214195   3.362   0.059   0.440 -0.2781  0.1732 -0.1069
 4744TIP3    H114196   3.351  -0.003   0.368 -1.3554 -0.1791  0.3361
 4744TIP3    H214197   3.414   0.011   0.504 -1.2711 -0.3820  0.3189
 4745TIP3   OH214198   1.555   6.193   3.261  0.8653  0.5971  0.1791
 4745TIP3    H114199   1.527   6.201   3.170 -2.0078 -0.1620  0.8884
 4745TIP3    H214200   1.580   6.101   3.271 -1.1415  0.0397  0.6385
 4746TIP3   OH214201   3.985   0.624   4.613  0.3892  0.1257  0.1712
 4746TIP3    H114202   4.057   0.561   4.620  0.0743 -0.3823 -1.0409
 4746TIP3    H214203   4.024   0.702   4.572  1.0780  1.2607  2.7673
 4747TIP3   OH214204   5.587   0.782   4.038 -0.6417  0.2122 -0.0601
 4747TIP3    H114205   5.582   0.877   4.028 -1.0103  0.2244  0.2284
 4747TIP3    H214206   5.545   0.764   4.122  0.3088 -0.1167  0.3528
 4748TIP3   OH214207   4.610   2.404   3.488  0.2033 -0.6098  0.2491
 4748TIP3    H114208   4.548   2.351   3.539  0.2459  0.9675  2.0408
 4748TIP3    H214209   4.694   2.360   3.500  0.4374  0.2874  2.5883
 4749TIP3   OH214210   7.050   1.068   4.377 -0.0843  0.1195 -0.6906
 4749TIP3    H114211   6.991   1.144   4.382 -1.5991 -1.0706  0.7636
 4749TIP3    H214212   6.994   0.997   4.346  0.6061 -1.0185  0.5650
 4750TIP3   OH214213   2.564   0.351   3.884  0.2624 -0.0504  0.5558
 4750TIP3    H114214   2.524   0.333   3.968  0.0668 -0.2444  0.4207
 4750TIP3    H214215   2.645   0.300   3.884  0.1501 -0.2293  0.5344
 4751TIP3   OH214216   2.753   1.789   2.408  0.3006  0.3479  0.2501
 4751TIP3    H114217   2.707   1.872   2.394 -0.6610 -0.3988 -1.2434
 4751TIP3    H214218   2.846   1.813   2.411  0.0207  1.5032  0.0622
 4752TIP3   OH214219   2.750   3.309   0.140 -0.4601 -0.4860  0.1001
 4752TIP3    H114220   2.792   3.355   0.212 -0.6102  0.0973 -0.1771
 4752TIP3    H214221   2.696   3.243   0.182 -0.6484 -0.0635  0.5289
 4753TIP3   OH214222   3.438   1.438   5.404  0.3581 -0.1206 -0.5337
 4753TIP3    H114223   3.488   1.433   5.323  0.5363 -0.4463 -0.4057
 4753TIP3    H214224   3.366   1.497   5.384  2.0322  2.1916 -0.0647
 4754TIP3   OH214225   5.588   1.999   4.503  0.9546 -0.2601  0.2261
 4754TIP3    H114226   5.505   2.037   4.473  0.1817 -0.0937  2.3824
 4754TIP3    H214227   5.650   2.020   4.434 -0.6431  0.2037 -1.1465
 4755TIP3   OH214228   1.545   6.476   3.354  0.0317  0.0536  0.1985
 4755TIP3    H114229   1.564   6.389   3.319  1.8163  0.0206  1.1316
 4755TIP3    H214230   1.602   6.535   3.305  0.9467  0.2934  1.4952
 4756TIP3   OH214231   1.954   6.698   4.977 -0.0460 -0.1361  0.3140
 4756TIP3    H114232   1.925   6.609   4.995 -0.4761 -0.4412 -1.6423
 4756TIP3    H214233   1.986   6.695   4.886  1.8571  1.2417  0.8757
 4757TIP3   OH214234   2.620   1.187   3.047  0.1067  0.7206  0.4494
 4757TIP3    H114235   2.596   1.139   2.967 -1.2334 -0.0489  1.2695
 4757TIP3    H214236   2.706   1.152   3.071 -0.2678 -0.3482  0.3071
 4758TIP3   OH214237   5.475   1.773   4.184  0.2524 -0.0243 -0.5930
 4758TIP3    H114238   5.404   1.798   4.125  1.2953  1.1697 -1.3969
 4758TIP3    H214239   5.495   1.682   4.162 -1.5640 -0.6738  0.2371
 4759TIP3   OH214240   4.090   6.452   2.294 -0.2919 -0.4025 -0.3953
 4759TIP3    H114241   4.135   6.534   2.275 -0.5305 -0.1470  0.1389
 4759TIP3    H214242   4.158   6.395   2.330  0.1651 -0.8874 -1.9342
 4760TIP3   OH214243   6.546   3.861   5.199 -0.3999  0.2820  0.4395
 4760TIP3    H114244   6.563   3.879   5.106  0.4096  1.8038  0.8430
 4760TIP3    H214245   6.622   3.810   5.227  0.7684  2.1674  0.8755
 4761TIP3   OH214246   2.459   4.818   1.987 -0.0346 -0.1290  0.6343
 4761TIP3    H114247   2.550   4.795   2.008 -0.2859 -0.2039  1.7119
 4761TIP3    H214248   2.442   4.898   2.036 -0.9475 -0.8310  1.4975
 4762TIP3   OH214249   5.258   1.101   2.885 -0.5085  0.0270  0.1542
 4762TIP3    H114250   5.198   1.173   2.867 -1.7843 -1.1698 -0.6589
 4762TIP3    H214251   5.210   1.044   2.945 -0.1719 -0.9122 -0.4317
 4763TIP3   OH214252   4.212   0.471   4.174  0.3903 -0.6252  0.4959
 4763TIP3    H114253   4.273   0.495   4.243 -0.1290 -0.1054  0.7794
 4763TIP3    H214254   4.160   0.550   4.158  0.3908 -0.7868 -0.3704
 4764TIP3   OH214255   2.394   3.528   1.396 -0.4157  0.3500  0.2557
 4764TIP3    H114256   2.355   3.449   1.432 -0.2058 -0.2101 -0.7023
 4764TIP3    H214257   2.351   3.539   1.311  1.1894 -0.0782 -0.6758
 4765TIP3   OH214258   4.985   6.555   4.815 -0.5049 -0.0426 -0.2361
 4765TIP3    H114259   5.034   6.632   4.784  0.6509 -0.5890  0.1538
 4765TIP3    H214260   4.953   6.580   4.902 -0.7919  0.2706 -0.4324
 4766TIP3   OH214261   6.610   2.726   4.476  0.1902  0.1519  0.2696
 4766TIP3    H114262   6.572   2.794   4.420  0.0598  0.5143  0.7876
 4766TIP3    H214263   6.702   2.722   4.451  0.4106  1.1795  0.8771
 4767TIP3   OH214264   1.246   2.058   1.517 -0.0117 -0.0376 -0.3542
 4767TIP3    H114265   1.152   2.059   1.498 -0.4331 -0.7671  1.4680
 4767TIP3    H214266   1.288   2.071   1.432 -1.7559  0.8498 -1.1295
 4768TIP3   OH214267   4.729   6.119   5.592  0.4084 -0.0967 -0.1257
 4768TIP3    H114268   4.803   6.165   5.553 -0.5439  1.2453 -0.4064
 4768TIP3    H214269   4.756   6.101   5.682  0.7229  1.2311  0.0674
 4769TIP3   OH214270   7.078   6.473   0.019 -0.1483  0.3389 -0.0504
 4769TIP3    H114271   7.148   6.413   0.046  0.6950  1.1067 -0.5036
 4769TIP3    H214272   7.037   6.430  -0.056 -0.0512 -0.0303  0.1064
 4770TIP3   OH214273   1.265   3.747   3.135 -0.4162 -0.3700  0.3681
 4770TIP3    H114274   1.305   3.815   3.081  0.9092 -1.1547  0.3039
 4770TIP3    H214275   1.234   3.682   3.072  1.8914 -1.6993  0.4741
 4771TIP3   OH214276   3.217   4.329   3.560 -0.2000 -0.2859 -0.1804
 4771TIP3    H114277   3.280   4.346   3.490  1.6567 -1.7672  1.0389
 4771TIP3    H214278   3.179   4.244   3.539 -1.0849  0.1490 -0.3819
 4772TIP3   OH214279   0.397   6.766   0.650 -0.4055  0.0267 -0.1767
 4772TIP3    H114280   0.472   6.817   0.619 -1.0981  0.4998 -1.1556
 4772TIP3    H214281   0.374   6.806   0.734 -0.2193  0.5923 -0.3864
 4773TIP3   OH214282   1.586   5.958   3.713 -0.7845 -0.3022 -0.5372
 4773TIP3    H114283   1.622   6.001   3.790 -0.1965  0.4858 -1.2344
 4773TIP3    H214284   1.527   6.023   3.674 -0.9187 -0.6200 -0.8686
 4774TIP3   OH214285   6.117   2.559   3.732 -0.8676  0.4139  0.3501
 4774TIP3    H114286   6.147   2.531   3.645 -1.1029 -0.2782  0.4885
 4774TIP3    H214287   6.130   2.654   3.732 -0.2545  0.3392 -0.2041
 4775TIP3   OH214288   5.570   2.320   1.982  0.3296 -0.3667 -0.5192
 4775TIP3    H114289   5.535   2.407   1.962  1.5254 -0.2288 -2.2293
 4775TIP3    H214290   5.509   2.285   2.047 -2.0867  0.4765 -2.1404
 4776TIP3   OH214291   4.726   4.857   1.382 -0.2658 -0.8831  0.1352
 4776TIP3    H114292   4.686   4.828   1.463 -0.4655 -1.9148 -0.3214
 4776TIP3    H214293   4.710   4.952   1.380  0.3741 -0.7249  1.6293
 4777TIP3   OH214294   4.897   4.105   0.138 -0.2364 -0.4287 -0.2843
 4777TIP3    H114295   4.888   4.193   0.174 -1.6705  0.2050 -2.0115
 4777TIP3    H214296   4.976   4.108   0.084 -0.4610 -0.0758 -0.5999
 4778TIP3   OH214297   5.661   5.352   2.744 -0.3574 -0.2933  0.8639
 4778TIP3    H114298   5.673   5.444   2.721  0.4077 -0.5282  0.2802
 4778TIP3    H214299   5.584   5.325   2.694  1.3627 -0.8356 -1.6644
 4779TIP3   OH214300   6.781   0.257   3.807 -0.4345 -0.0192 -0.2005
 4779TIP3    H114301   6.691   0.289   3.807 -0.4039  0.1352 -1.4965
 4779TIP3    H214302   6.772   0.162   3.799 -0.5078  0.0893 -1.8472
 4780TIP3   OH214303   6.122   5.727   0.343 -0.0986  0.1539  0.0999
 4780TIP3    H114304   6.207   5.763   0.370  0.3791 -1.1080  0.3764
 4780TIP3    H214305   6.066   5.738   0.420  0.8974 -2.2694  1.3037
 4781TIP3   OH214306   0.289   2.495   1.488 -0.1645  0.4939 -0.3305
 4781TIP3    H114307   0.269   2.404   1.463 -1.2252 -0.0807  2.3398
 4781TIP3    H214308   0.219   2.546   1.446 -1.9455 -0.4420  1.3446
 4782TIP3   OH214309   1.504   6.113   0.931  0.2311 -0.1140  0.1936
 4782TIP3    H114310   1.473   6.025   0.949 -0.1635 -0.6440 -2.5619
 4782TIP3    H214311   1.424   6.165   0.919  0.4483  0.2876  0.4570
 4783TIP3   OH214312   4.385   3.317   3.507  0.3125  0.0286 -0.1354
 4783TIP3    H114313   4.413   3.225   3.511 -0.8766 -0.3473 -0.1255
 4783TIP3    H214314   4.436   3.353   3.434 -1.2252 -1.4007 -2.0262
 4784TIP3   OH214315   2.469   2.395   3.656 -0.0794  0.4101 -0.4017
 4784TIP3    H114316   2.492   2.320   3.711 -1.3362 -1.5925 -2.3908
 4784TIP3    H214317   2.378   2.379   3.631  0.1474  1.6916 -2.2613
 4785TIP3   OH214318   5.261   6.658   2.104 -0.3507  0.0112  0.6047
 4785TIP3    H114319   5.325   6.701   2.046 -0.4907  0.1466  0.5509
 4785TIP3    H214320   5.254   6.569   2.070 -0.0501 -0.0602  0.7241
 4786TIP3   OH214321   3.302   0.341   0.079  0.6940  0.0106  0.0571
 4786TIP3    H114322   3.312   0.389  -0.004 -0.5101  1.6683  0.8191
 4786TIP3    H214323   3.285   0.409   0.144 -2.8417 -1.4951  0.9155
 4787TIP3   OH214324   6.921   5.614   0.356  0.2607 -0.2027  0.1451
 4787TIP3    H114325   6.871   5.571   0.286  0.9112 -1.0459  0.1825
 4787TIP3    H214326   6.917   5.707   0.334 -2.5866 -0.0258  0.9545
 4788TIP3   OH214327   3.166   3.874   1.607 -0.1230 -0.3560 -0.3222
 4788TIP3    H114328   3.217   3.804   1.567  0.9489 -0.7656  1.6395
 4788TIP3    H214329   3.081   3.834   1.625 -0.7781 -0.0474 -2.4251
 4789TIP3   OH214330   2.016   2.503   2.648 -0.3059 -0.1953 -0.1348
 4789TIP3    H114331   1.984   2.513   2.738  0.0559 -0.2498  0.0005
 4789TIP3    H214332   1.999   2.412   2.626 -0.4031 -0.1795 -0.1271
 4790TIP3   OH214333   0.440   0.625   0.784 -0.6337 -0.0902  0.4197
 4790TIP3    H114334   0.440   0.648   0.692  0.5346  0.6216  0.5820
 4790TIP3    H214335   0.532   0.633   0.812 -0.8259 -1.0995  1.4416
 4791TIP3   OH214336   1.401   5.430   2.140  0.0743  0.0522 -0.5908
 4791TIP3    H114337   1.479   5.462   2.186 -0.3323  0.8280 -0.4188
 4791TIP3    H214338   1.409   5.335   2.141  0.7354  0.1088 -0.0817
 4792TIP3   OH214339   0.692   4.220   5.233  0.1897 -0.2809  0.6789
 4792TIP3    H114340   0.608   4.255   5.263 -0.8178 -1.4363 -0.6172
 4792TIP3    H214341   0.755   4.249   5.299 -1.2558  0.4374  1.8202
 4793TIP3   OH214342   3.125   2.124   0.545  0.8873 -0.4154 -0.1048
 4793TIP3    H114343   3.148   2.199   0.599  0.6617 -0.5354  0.1616
 4793TIP3    H214344   3.030   2.122   0.546  0.8821 -1.6574  1.2550
 4794TIP3   OH214345   5.486   2.539   4.494 -0.2609 -0.5321  0.1675
 4794TIP3    H114346   5.562   2.558   4.549  1.0190 -0.9634 -1.3515
 4794TIP3    H214347   5.524   2.521   4.408 -2.1357 -0.3659 -0.7388
 4795TIP3   OH214348   1.150   1.361   3.192  0.5564 -0.6821  0.3135
 4795TIP3    H114349   1.110   1.443   3.219  0.0200 -1.0347  0.5944
 4795TIP3    H214350   1.110   1.341   3.107  2.1809  0.3849 -0.7728
 4796TIP3   OH214351   5.144   1.251   3.884 -0.1448 -0.1481 -0.2409
 4796TIP3    H114352   5.220   1.202   3.854  0.1227 -0.5622  1.0730
 4796TIP3    H214353   5.148   1.333   3.835 -0.1586 -1.0744 -1.8954
 4797TIP3   OH214354   3.748   5.303   2.448  0.3593  0.6856 -0.3980
 4797TIP3    H114355   3.800   5.263   2.378  1.5159  2.1985 -0.4354
 4797TIP3    H214356   3.778   5.259   2.528 -0.2100 -0.2884 -0.6911
 4798TIP3   OH214357   0.359   2.872   4.746 -0.6846  0.1474 -0.8283
 4798TIP3    H114358   0.289   2.937   4.743  0.0688  0.9550 -1.6859
 4798TIP3    H214359   0.428   2.914   4.799 -1.1540 -0.9936  0.7754
 4799TIP3   OH214360   0.984   5.810   1.335  0.1488 -0.5777 -0.2574
 4799TIP3    H114361   0.966   5.879   1.271  0.2262 -1.3232 -1.0976
 4799TIP3    H214362   1.077   5.790   1.323  0.6902  0.6490  1.4832
 4800TIP3   OH214363   1.329   4.183   4.028 -0.1389 -0.0248  0.0485
 4800TIP3    H114364   1.339   4.089   4.042  0.9345  0.1194  0.4268
 4800TIP3    H214365   1.267   4.191   3.956  1.2968 -1.0878 -1.3793
 4801TIP3   OH214366   3.889   1.689   4.197  0.4211 -0.1125 -0.2682
 4801TIP3    H114367   3.855   1.684   4.286  0.0686  0.9691 -0.3287
 4801TIP3    H214368   3.953   1.618   4.192 -1.2880 -1.7374  0.0664
 4802TIP3   OH214369   1.478   2.650   5.058 -0.1046 -0.4020  1.1172
 4802TIP3    H114370   1.547   2.671   5.121  0.5360 -0.1020  0.3381
 4802TIP3    H214371   1.465   2.556   5.067  0.3378 -0.4453  1.3458
 4803TIP3   OH214372   4.796   1.584   3.426  0.3991  0.2465  0.6762
 4803TIP3    H114373   4.837   1.667   3.402 -0.6173  0.7700  0.7238
 4803TIP3    H214374   4.760   1.551   3.344  2.3009 -1.0329  0.2955
 4804TIP3   OH214375   3.612   2.671   3.690  0.0739 -0.2577  0.0222
 4804TIP3    H114376   3.565   2.643   3.611  1.4822  1.8229 -1.6612
 4804TIP3    H214377   3.693   2.619   3.689  0.2884  0.0759 -0.1590
 4805TIP3   OH214378   1.256   2.136   4.435 -0.3158  0.1497  0.2788
 4805TIP3    H114379   1.283   2.088   4.357  0.0254  1.6550 -0.5781
 4805TIP3    H214380   1.311   2.215   4.434 -1.5079  1.0277  1.0921
 4806TIP3   OH214381   4.661   4.451   4.441 -0.4523 -0.0537  0.0561
 4806TIP3    H114382   4.646   4.357   4.431 -1.9883 -0.1322  2.4004
 4806TIP3    H214383   4.752   4.463   4.414  0.0510 -2.3557  0.4994
 4807TIP3   OH214384   0.175   2.085   0.559  0.3788 -0.5900 -0.0546
 4807TIP3    H114385   0.193   2.179   0.559 -0.0008 -0.5151 -0.3684
 4807TIP3    H214386   0.107   2.073   0.625 -0.5378 -0.4440 -0.9377
 4808TIP3   OH214387   4.764   1.287   3.432  0.2641 -0.0422  0.4613
 4808TIP3    H114388   4.672   1.266   3.416  1.1039 -2.4678 -1.6948
 4808TIP3    H214389   4.772   1.380   3.408 -1.1826 -0.3503 -1.3779
 4809TIP3   OH214390   6.573   1.915   3.647 -0.0591  0.0252  0.3456
 4809TIP3    H114391   6.667   1.922   3.635 -0.2315  1.0899 -0.6126
 4809TIP3    H214392   6.538   1.999   3.615 -1.5461 -1.3235 -1.8585
 4810TIP3   OH214393   0.722   2.039   3.277  0.1849 -0.4043 -0.2354
 4810TIP3    H114394   0.631   2.063   3.297 -0.1921 -0.7310 -1.4679
 4810TIP3    H214395   0.764   2.032   3.362 -1.0574 -0.6645  0.3795
 4811TIP3   OH214396   1.719   1.034   4.510  0.4583  0.4211  0.1660
 4811TIP3    H114397   1.655   0.965   4.526  0.3469  0.6588  0.7857
 4811TIP3    H214398   1.729   1.078   4.595 -0.2503  1.8092 -0.4199
 4812TIP3   OH214399   5.470   4.494   4.391  0.2292 -0.1500 -0.4242
 4812TIP3    H114400   5.432   4.568   4.344 -0.1231 -0.7153 -1.0391
 4812TIP3    H214401   5.564   4.499   4.372  0.1701 -0.0164 -0.6905
 4813TIP3   OH214402   4.010   6.678   3.852 -0.4398  0.3075 -0.4912
 4813TIP3    H114403   3.930   6.731   3.860  0.6358  1.8601  0.5702
 4813TIP3    H214404   4.071   6.733   3.804  0.2298 -0.5777 -0.6806
 4814TIP3   OH214405   0.689   3.306   3.587 -0.2729 -0.6734 -0.0133
 4814TIP3    H114406   0.728   3.225   3.555 -0.1212 -1.0386  1.0393
 4814TIP3    H214407   0.743   3.331   3.662  0.6771  1.3107 -1.2932
 4815TIP3   OH214408   2.070   3.312   3.331 -0.2688  0.2351  0.0892
 4815TIP3    H114409   2.154   3.267   3.322  0.1850  0.3285  2.8073
 4815TIP3    H214410   2.072   3.380   3.263  1.2970 -0.5687 -0.7222
 4816TIP3   OH214411   1.250   6.585   1.674 -0.5107 -0.3263 -0.4325
 4816TIP3    H114412   1.195   6.618   1.603  1.1127 -0.1865 -1.6767
 4816TIP3    H214413   1.293   6.664   1.708  0.8458 -0.7032 -1.1995
 4817TIP3   OH214414   5.334   2.041   5.263 -0.1620  0.6336 -0.7155
 4817TIP3    H114415   5.351   1.962   5.213  0.1138 -1.9877  3.0563
 4817TIP3    H214416   5.420   2.082   5.273 -0.0701  0.6527 -1.5602
 4818TIP3   OH214417   0.278   1.008   3.371 -0.7591 -0.6930 -0.1547
 4818TIP3    H114418   0.292   1.066   3.446 -2.9657  0.2333 -0.3545
 4818TIP3    H214419   0.265   1.067   3.297 -1.1397 -1.5071 -0.7569
 4819TIP3   OH214420   0.853   3.418   4.353 -0.5393  0.3972 -0.1546
 4819TIP3    H114421   0.843   3.500   4.401  1.6802  0.5845  0.0573
 4819TIP3    H214422   0.900   3.442   4.273 -0.1363 -0.6155 -0.2388
 4820TIP3   OH214423   4.196   5.522   5.083  0.0257  0.1605 -0.2181
 4820TIP3    H114424   4.212   5.524   5.177  0.9678 -0.2627 -0.3625
 4820TIP3    H214425   4.267   5.470   5.047 -0.4281  0.1587 -1.1501
 4821TIP3   OH214426   6.688   3.109   4.049 -0.1416  0.0894 -0.3633
 4821TIP3    H114427   6.715   3.101   3.957  1.0121  2.7632 -0.3618
 4821TIP3    H214428   6.761   3.154   4.091 -1.9557  1.8545  1.1156
 4822TIP3   OH214429   1.324   5.382   2.404 -0.1268  0.2302  0.3115
 4822TIP3    H114430   1.278   5.459   2.438 -0.0979  0.8575 -0.9941
 4822TIP3    H214431   1.387   5.418   2.342  1.3251 -0.7033  1.1815
 4823TIP3   OH214432   3.098   4.050   1.927 -0.0529  0.4983  0.7831
 4823TIP3    H114433   3.179   4.085   1.890 -0.8468  0.5109 -1.0596
 4823TIP3    H214434   3.031   4.072   1.862 -1.0347 -2.0608  0.8213
 4824TIP3   OH214435   0.752   0.835   3.306  0.0354 -0.1096  0.4095
 4824TIP3    H114436   0.706   0.908   3.349 -1.6634 -0.9525  0.0952
 4824TIP3    H214437   0.813   0.878   3.246 -1.3326  1.1095 -0.1951
 4825TIP3   OH214438   3.330   1.797   5.629  0.5036  0.0988  0.5117
 4825TIP3    H114439   3.419   1.834   5.630  0.5145  0.1383 -0.8067
 4825TIP3    H214440   3.275   1.867   5.664  0.3643  1.9015 -2.9420
 4826TIP3   OH214441   3.271   5.925   3.069 -0.4503  0.6885  0.1278
 4826TIP3    H114442   3.224   5.905   3.150  0.4847 -0.2677  0.4606
 4826TIP3    H214443   3.345   5.980   3.097 -1.7443  2.8768 -0.4954
 4827TIP3   OH214444   1.646   0.973   2.212  0.1818 -0.8937  0.2349
 4827TIP3    H114445   1.563   1.011   2.185  1.8839  1.8049 -1.7207
 4827TIP3    H214446   1.639   0.881   2.188 -1.6595 -0.3972 -1.4188
 4828TIP3   OH214447   6.570   4.612   0.652  0.1155 -0.1233  0.1312
 4828TIP3    H114448   6.641   4.589   0.591  1.3454 -1.0369  1.8292
 4828TIP3    H214449   6.526   4.686   0.610  2.2864  0.6985 -0.8648
 4829TIP3   OH214450   0.580   3.109   2.243 -0.1944  0.8479  0.4742
 4829TIP3    H114451   0.580   3.059   2.325  1.6551 -2.4512 -1.3117
 4829TIP3    H214452   0.499   3.081   2.199 -0.0440  0.8276  0.2102
 4830TIP3   OH214453   4.579   5.539   3.489 -0.0291 -0.2096  0.6756
 4830TIP3    H114454   4.646   5.482   3.450 -0.5306 -0.0105 -0.5097
 4830TIP3    H214455   4.511   5.478   3.517 -0.2693 -0.2554  0.0079
 4831TIP3   OH214456   3.305   3.860   2.742 -0.0893 -0.4082 -0.1934
 4831TIP3    H114457   3.398   3.862   2.763 -0.3181  0.6220  0.7657
 4831TIP3    H214458   3.299   3.901   2.656  0.1157  1.6658  0.7346
 4832TIP3   OH214459   1.039   1.068   4.343 -0.2767  0.1552 -0.4117
 4832TIP3    H114460   1.063   0.978   4.319  0.6243  0.5189 -0.9342
 4832TIP3    H214461   0.978   1.058   4.416  2.2022 -0.8461  1.6803
 4833TIP3   OH214462   2.938   3.303   5.325 -0.4833  0.5413 -0.1914
 4833TIP3    H114463   2.963   3.315   5.417  1.1773 -1.9385 -0.2191
 4833TIP3    H214464   2.860   3.248   5.328  0.3257 -0.6266 -0.2641
 4834TIP3   OH214465   4.058   4.905   4.467  0.7167 -0.2486 -0.3243
 4834TIP3    H114466   4.122   4.871   4.529 -0.4538 -1.1080  0.4603
 4834TIP3    H214467   3.991   4.947   4.521  0.8368  1.0698 -1.1530
 4835TIP3   OH214468   4.691   1.356   4.116 -0.4863 -0.1893  0.2454
 4835TIP3    H114469   4.679   1.434   4.170 -0.1223  0.2278 -0.2669
 4835TIP3    H214470   4.603   1.327   4.095 -0.7087  1.9218 -2.1908
 4836TIP3   OH214471   4.610   6.219   5.256  0.1394 -0.0742  0.3936
 4836TIP3    H114472   4.568   6.185   5.177  0.2793 -0.5386  0.5132
 4836TIP3    H214473   4.564   6.175   5.328 -1.3290  1.8068  0.6838
 4837TIP3   OH214474   0.654   3.079   4.654  0.2732 -0.0163 -0.2605
 4837TIP3    H114475   0.651   3.164   4.698  1.2023 -0.7947  1.3928
 4837TIP3    H214476   0.638   3.015   4.724 -0.5347 -1.2198 -1.4899
 4838TIP3   OH214477   3.150   2.966   0.134 -0.0474 -0.1267  0.0225
 4838TIP3    H114478   3.239   3.001   0.133  0.5319 -1.4871 -1.4467
 4838TIP3    H214479   3.142   2.918   0.051 -2.2775  0.2382 -0.0574
 4839TIP3   OH214480   4.934   4.244   4.654  0.5016  0.1197 -0.0386
 4839TIP3    H114481   4.873   4.313   4.680  0.2378  0.4796 -1.5257
 4839TIP3    H214482   4.888   4.163   4.675 -1.2088  0.3485 -2.4883
 4840TIP3   OH214483   0.613   2.200   4.964  0.3911 -0.1350  0.0345
 4840TIP3    H114484   0.575   2.286   4.982 -1.5044 -0.7441 -0.7966
 4840TIP3    H214485   0.582   2.145   5.036  2.2021 -0.0232  0.9734
 4841TIP3   OH214486   6.845   3.644   5.788 -0.1460  0.2612 -0.6442
 4841TIP3    H114487   6.940   3.646   5.784 -0.0515  0.5822  0.9801
 4841TIP3    H214488   6.824   3.675   5.876 -1.7701  0.5203 -1.0795
 4842TIP3   OH214489   0.499   4.491   4.001  0.7016 -0.2889 -0.5062
 4842TIP3    H114490   0.576   4.451   4.041 -0.2286 -1.6884 -0.0281
 4842TIP3    H214491   0.515   4.585   4.006  1.9994 -0.5304  0.3436
 4843TIP3   OH214492   1.412   6.460   4.435 -0.4996  0.4306  0.3167
 4843TIP3    H114493   1.341   6.454   4.499  1.0134  0.4431  2.0734
 4843TIP3    H214494   1.455   6.544   4.454  0.5347  0.0157 -0.0972
 4844TIP3   OH214495   1.069   1.472   5.334  0.1962 -0.9018  0.2043
 4844TIP3    H114496   1.050   1.546   5.393 -2.0850 -0.3816 -1.0237
 4844TIP3    H214497   1.139   1.504   5.277 -0.9131  0.4695 -0.4564
 4845TIP3   OH214498   4.656   2.031   1.709 -0.0268 -0.1151 -0.3930
 4845TIP3    H114499   4.568   2.010   1.739  0.3465 -1.0792  0.0471
 4845TIP3    H214500   4.664   1.986   1.625  0.5542 -1.2654  0.2593
 4846TIP3   OH214501   3.317   3.276   0.162 -0.3688 -0.1145 -0.5285
 4846TIP3    H114502   3.293   3.341   0.096  0.1307 -0.3804 -0.9760
 4846TIP3    H214503   3.347   3.200   0.112  0.1719 -0.2633  0.0067
 4847TIP3   OH214504   4.583   6.244   0.513 -0.1374  0.0560 -0.5485
 4847TIP3    H114505   4.648   6.184   0.548 -1.3692 -1.6817 -1.1233
 4847TIP3    H214506   4.566   6.212   0.424 -0.7652  1.3171 -0.9078
 4848TIP3   OH214507   2.814   2.415   0.038  0.4424  0.5507  0.2644
 4848TIP3    H114508   2.888   2.365   0.072 -0.0502  0.8248  1.7975
 4848TIP3    H214509   2.824   2.502   0.075 -0.6646  0.5765  0.5519
 4849TIP3   OH214510   3.159   2.140   4.944 -0.8111  0.2596 -0.9303
 4849TIP3    H114511   3.155   2.167   5.036 -1.8411 -0.9073 -0.6117
 4849TIP3    H214512   3.067   2.130   4.918 -0.5031 -0.8153 -1.6601
 4850TIP3   OH214513   1.404   5.513   0.449  0.4314 -0.1173  0.2551
 4850TIP3    H114514   1.327   5.507   0.506  0.7984 -0.7171  0.7055
 4850TIP3    H214515   1.474   5.542   0.507  0.3347  1.4585 -0.3716
 4851TIP3   OH214516   0.523   2.563   4.779 -0.1276 -0.2118  0.0861
 4851TIP3    H114517   0.591   2.598   4.837  0.3919  0.4947 -0.9071
 4851TIP3    H214518   0.442   2.574   4.828  0.3522 -0.0501  0.8636
 4852TIP3   OH214519   4.428   3.185   2.842 -0.0397 -0.2561  0.2642
 4852TIP3    H114520   4.470   3.240   2.776  0.6254  0.4993  1.2862
 4852TIP3    H214521   4.336   3.184   2.816  0.4621 -1.4652 -1.6869
 4853TIP3   OH214522   0.995   4.751   2.066  0.0142 -0.8124 -0.5431
 4853TIP3    H114523   1.015   4.765   2.159 -1.1044 -0.9387 -0.2597
 4853TIP3    H214524   1.076   4.717   2.029  0.5432 -0.5729  0.3425
 4854TIP3   OH214525   6.839   1.924   1.854 -0.3815  0.4867 -0.5768
 4854TIP3    H114526   6.807   1.872   1.780 -0.3996 -0.6007  0.1734
 4854TIP3    H214527   6.885   1.861   1.909 -0.0964  1.3456  0.1896
 4855TIP3   OH214528   2.122   6.077   2.996 -0.1677  0.0113 -0.2985
 4855TIP3    H114529   2.089   6.060   3.084  1.4455  1.5441  0.6712
 4855TIP3    H214530   2.046   6.067   2.939 -1.5684  0.3439  1.4462
 4856TIP3   OH214531   5.864   2.871   2.775 -0.1683  0.4649 -0.3890
 4856TIP3    H114532   5.815   2.803   2.819 -0.1062  0.5895 -0.1238
 4856TIP3    H214533   5.877   2.939   2.842 -1.1787  1.2331 -0.9400
 4857TIP3   OH214534   0.325   1.030   5.814 -0.1020 -0.4350 -0.1324
 4857TIP3    H114535   0.386   0.960   5.838 -0.0265 -0.8556 -1.4717
 4857TIP3    H214536   0.253   1.022   5.877  0.3751 -1.0706  0.3479
 4858TIP3   OH214537   0.679   5.015   5.049 -0.4795  0.3029  0.6847
 4858TIP3    H114538   0.605   5.071   5.071  1.6520  3.2317  0.9908
 4858TIP3    H214539   0.698   4.967   5.129 -1.3182  0.3766  0.9328
 4859TIP3   OH214540   3.124   0.351   3.592 -0.6274 -0.1034  0.2099
 4859TIP3    H114541   3.041   0.305   3.577  0.0921 -1.3536 -0.0949
 4859TIP3    H214542   3.167   0.300   3.661 -0.1308  0.5668  0.4033
 4860TIP3   OH214543   0.419   6.658   1.064 -0.1217 -0.4621  0.7631
 4860TIP3    H114544   0.449   6.602   0.993  1.1667 -2.7706  2.9572
 4860TIP3    H214545   0.325   6.665   1.051 -0.2682 -2.7787  0.1093
 4861TIP3   OH214546   1.264   4.758   3.943  0.0862  0.1502  0.5891
 4861TIP3    H114547   1.297   4.828   3.886 -0.0455  0.0401  0.3764
 4861TIP3    H214548   1.193   4.718   3.893  0.8234 -0.8006  0.2766
 4862TIP3   OH214549   4.146   4.672   2.751  0.8230 -0.2611  0.1123
 4862TIP3    H114550   4.070   4.720   2.784 -0.1131 -2.2299  1.0190
 4862TIP3    H214551   4.125   4.653   2.660 -0.6168 -2.2345  0.7988
 4863TIP3   OH214552   1.905   4.149   1.792 -0.4757  0.0388 -0.3131
 4863TIP3    H114553   1.952   4.133   1.711 -2.0041 -0.8288 -1.0827
 4863TIP3    H214554   1.952   4.220   1.834  0.4056  0.4434 -1.9182
 4864TIP3   OH214555   5.511   4.761   5.586 -0.6224 -0.5256 -0.3754
 4864TIP3    H114556   5.416   4.755   5.593 -0.6248 -0.3046 -0.2426
 4864TIP3    H214557   5.526   4.799   5.499 -0.6540 -0.5174 -0.3771
 4865TIP3   OH214558   6.663   0.752   2.490  0.5382  0.2025 -0.0382
 4865TIP3    H114559   6.692   0.682   2.548  1.0217  0.9235  0.6102
 4865TIP3    H214560   6.590   0.714   2.441  0.9205 -0.8116  0.1541
 4866TIP3   OH214561   3.170   2.041   3.961 -0.1535  0.3009 -0.3875
 4866TIP3    H114562   3.152   2.004   3.874  1.4979  0.3290 -0.7649
 4866TIP3    H214563   3.166   2.136   3.948 -3.5381  0.4142  0.4033
 4867TIP3   OH214564   4.002   4.511   1.373  0.4575 -0.1119 -0.9085
 4867TIP3    H114565   3.999   4.472   1.461 -0.1817 -0.2383 -0.9805
 4867TIP3    H214566   4.089   4.551   1.367 -0.1719  1.5844  0.5100
 4868TIP3   OH214567   3.455   2.880   5.507 -0.6488  0.1949  0.0600
 4868TIP3    H114568   3.454   2.882   5.602  1.8562  0.9858  0.1370
 4868TIP3    H214569   3.406   2.958   5.481 -1.2062  0.0634  0.7043
 4869TIP3   OH214570   4.711   0.898   4.016 -0.1807 -0.2143 -0.2186
 4869TIP3    H114571   4.805   0.886   4.003  0.1493  1.3594  0.4225
 4869TIP3    H214572   4.676   0.910   3.928  0.6775  1.9037 -0.3302
 4870TIP3   OH214573   6.563   3.786   0.783 -0.4075  0.1586  0.2557
 4870TIP3    H114574   6.570   3.714   0.720  1.2382  1.2517 -0.9143
 4870TIP3    H214575   6.503   3.849   0.740  0.1853  0.6039  0.0616
 4871TIP3   OH214576   5.842   2.962   0.964  0.0946  0.4831  0.3932
 4871TIP3    H114577   5.930   2.941   0.934 -0.5801 -0.8040 -0.8318
 4871TIP3    H214578   5.849   2.964   1.060  1.1729 -1.0628  0.3829
 4872TIP3   OH214579   2.628   5.567   3.921 -0.2208  0.1229 -0.3476
 4872TIP3    H114580   2.723   5.574   3.911  0.0296 -0.8752  1.0729
 4872TIP3    H214581   2.611   5.473   3.927 -1.5079  0.1914 -2.1966
 4873TIP3   OH214582   5.541   1.603   0.301 -0.3918  0.0523 -0.3732
 4873TIP3    H114583   5.474   1.557   0.352 -1.6105  3.3306  1.1952
 4873TIP3    H214584   5.499   1.620   0.217  0.3481 -2.1708 -1.2820
 4874TIP3   OH214585   4.843   2.321   1.178  0.0919  0.1117 -0.1833
 4874TIP3    H114586   4.858   2.282   1.264 -0.5405 -0.5148 -0.3506
 4874TIP3    H214587   4.758   2.364   1.186 -0.0104 -0.0297 -0.5271
 4875TIP3   OH214588   1.011   6.261   4.286  0.3899  0.3147  0.4529
 4875TIP3    H114589   0.933   6.302   4.323  0.1319  0.3424 -0.1099
 4875TIP3    H214590   1.064   6.335   4.255  0.2793  0.2627  0.1344
 4876TIP3   OH214591   2.072   5.900   4.213 -0.5257 -0.0339 -0.0553
 4876TIP3    H114592   2.110   5.982   4.242  0.3656 -0.1648 -0.7873
 4876TIP3    H214593   2.095   5.837   4.281 -1.7103  0.4264  0.7943
 4877TIP3   OH214594   0.481   2.530   5.624  0.6785 -0.4577 -0.5046
 4877TIP3    H114595   0.510   2.616   5.654  1.9902 -1.1723  0.3350
 4877TIP3    H214596   0.552   2.471   5.646  0.0464 -1.6832 -1.5857
 4878TIP3   OH214597   6.408   1.459   2.672 -0.7058  0.1497  0.0481
 4878TIP3    H114598   6.502   1.457   2.691 -0.3106 -0.3289 -1.7513
 4878TIP3    H214599   6.366   1.454   2.758  0.9009  0.1590  0.8786
 4879TIP3   OH214600   1.229   3.332   1.858 -0.2498 -0.6536  0.7235
 4879TIP3    H114601   1.159   3.281   1.899  1.4754 -2.3072  1.7751
 4879TIP3    H214602   1.306   3.317   1.913  1.2137  0.2438 -0.9450
 4880TIP3   OH214603   0.171   4.982   5.516 -0.0913 -0.2436  0.5342
 4880TIP3    H114604   0.076   4.982   5.511 -0.0846  0.6467  0.2155
 4880TIP3    H214605   0.199   5.039   5.443  0.7075 -1.0734  0.1735
 4881TIP3   OH214606   2.043   3.781   2.192 -0.5949 -0.0333  0.3605
 4881TIP3    H114607   1.965   3.756   2.143 -1.6139 -0.5634  2.1665
 4881TIP3    H214608   2.105   3.810   2.125 -1.5249 -1.6830 -1.3157
 4882TIP3   OH214609   3.911   1.452   3.332  0.1749 -0.3857 -0.0114
 4882TIP3    H114610   3.839   1.422   3.275  0.7347 -1.1204 -0.3571
 4882TIP3    H214611   3.867   1.496   3.404 -0.5258  1.3939 -1.4523
 4883TIP3   OH214612   4.084   6.326   4.372  0.0516 -0.4864  0.0488
 4883TIP3    H114613   4.163   6.336   4.426 -0.5723  1.4235  0.6990
 4883TIP3    H214614   4.014   6.311   4.436 -0.3671 -0.3961 -0.3843
 4884TIP3   OH214615   3.291   3.442   3.508  0.2381  0.1073  0.2363
 4884TIP3    H114616   3.239   3.452   3.429  0.0794 -1.2480  0.1366
 4884TIP3    H214617   3.291   3.528   3.549 -0.2838  0.6433 -0.8652
 4885TIP3   OH214618   6.443   0.962   2.340 -0.0269 -0.4951 -0.2679
 4885TIP3    H114619   6.426   1.030   2.406 -1.6444 -0.0801 -1.0640
 4885TIP3    H214620   6.531   0.981   2.309 -0.4086  1.2311 -0.4188
 4886TIP3   OH214621   1.953   5.064   2.156 -0.5216  0.0020  0.6173
 4886TIP3    H114622   1.986   4.999   2.218  0.2727 -0.5852 -0.3893
 4886TIP3    H214623   2.031   5.113   2.129 -0.9368  0.5841  0.4556
 4887TIP3   OH214624   5.865   4.029   2.987 -0.2228  0.3530 -0.1350
 4887TIP3    H114625   5.778   4.033   2.948  1.1606 -0.5409 -3.7477
 4887TIP3    H214626   5.908   3.955   2.944  2.5504  1.1568  0.9827
 4888TIP3   OH214627   4.526   1.567   0.955  0.0054 -0.1049 -0.3144
 4888TIP3    H114628   4.484   1.578   0.870 -0.3793 -0.2546 -0.1477
 4888TIP3    H214629   4.453   1.549   1.015  0.1485  1.0839  0.2521
 4889TIP3   OH214630   7.030   3.160   1.210 -0.0704  0.1365  0.0724
 4889TIP3    H114631   7.120   3.179   1.181 -0.4959  4.7914  1.1196
 4889TIP3    H214632   6.977   3.170   1.131  0.0416 -0.2544 -0.0584
 4890TIP3   OH214633   6.359   4.001   5.364  0.2362  0.0283 -0.4775
 4890TIP3    H114634   6.287   4.018   5.305  0.6026  1.0644 -0.6523
 4890TIP3    H214635   6.423   3.952   5.312 -0.0595 -0.3337 -0.5037
 4891TIP3   OH214636   0.947   2.554   3.430 -0.1218  0.0744 -0.1107
 4891TIP3    H114637   1.022   2.494   3.427  0.0053  0.2577 -0.7553
 4891TIP3    H214638   0.898   2.527   3.507  0.8696  0.2658  0.6131
 4892TIP3   OH214639   2.808   6.559   3.691  0.1775 -0.2777  0.0904
 4892TIP3    H114640   2.779   6.472   3.720 -0.2099 -0.1612  0.0601
 4892TIP3    H214641   2.842   6.545   3.603 -0.2958 -0.3283 -0.0901
 4893TIP3   OH214642   0.781   6.305   1.782  0.0800 -0.1233  0.0605
 4893TIP3    H114643   0.754   6.382   1.831 -0.8974  0.9878 -2.0666
 4893TIP3    H214644   0.848   6.337   1.721  0.6627 -1.2647  0.0707
 4894TIP3   OH214645   6.465   2.941   0.889 -0.1294 -0.0549 -0.0592
 4894TIP3    H114646   6.504   3.024   0.861  1.2186 -0.8190 -0.5507
 4894TIP3    H214647   6.405   2.965   0.959  0.8966  1.2411  0.4103
 4895TIP3   OH214648   3.234   6.736   2.021 -0.4535  0.1561  0.3340
 4895TIP3    H114649   3.199   6.677   1.953 -2.6145  1.0946  0.5373
 4895TIP3    H214650   3.277   6.806   1.972 -2.7130  1.2647 -0.1960
 4896TIP3   OH214651   5.793   1.980   2.671  0.1182  0.1857  0.1218
 4896TIP3    H114652   5.714   1.980   2.726 -0.7129  1.9776 -0.9763
 4896TIP3    H214653   5.773   2.042   2.601  1.8962 -0.5761 -1.1162
 4897TIP3   OH214654   0.053   5.267   2.376 -0.6404 -0.1473  0.0773
 4897TIP3    H114655   0.073   5.192   2.431 -0.0713 -1.0760 -1.3195
 4897TIP3    H214656  -0.012   5.317   2.425 -2.0901 -2.2753  0.4943
 4898TIP3   OH214657   4.016   0.278   4.297 -0.3684  0.0341  0.0128
 4898TIP3    H114658   4.068   0.344   4.251 -0.4342 -1.5772 -2.5926
 4898TIP3    H214659   4.078   0.232   4.353  0.1004  0.9052  0.2226
 4899TIP3   OH214660   0.373   2.204   2.061 -0.3046 -0.6413  0.1438
 4899TIP3    H114661   0.312   2.177   1.992  0.0058  1.1134 -0.8696
 4899TIP3    H214662   0.334   2.172   2.142 -1.4126 -1.4929 -0.6999
 4900TIP3   OH214663   6.445  -0.004   3.438 -0.6001 -0.0878 -0.5013
 4900TIP3    H114664   6.374  -0.046   3.486 -0.1350 -0.7188 -0.3541
 4900TIP3    H214665   6.401   0.058   3.380 -1.3305 -1.0367 -0.9939
 4901TIP3   OH214666   5.936   5.589   2.845  0.4516  0.2042  0.3468
 4901TIP3    H114667   5.943   5.538   2.764 -2.0683  1.7995 -1.0377
 4901TIP3    H214668   5.945   5.680   2.816  0.2748  0.7862  2.0037
 4902TIP3   OH214669   0.201   3.186   1.336  0.0959  0.6151 -0.5348
 4902TIP3    H114670   0.278   3.242   1.340  0.8991 -0.4150 -1.0424
 4902TIP3    H214671   0.233   3.104   1.298 -0.6968 -0.7373  1.5054
 4903TIP3   OH214672   2.226   3.670   0.290 -0.1523  0.1028 -0.2900
 4903TIP3    H114673   2.249   3.762   0.308 -0.1005  0.4474 -1.9403
 4903TIP3    H214674   2.223   3.629   0.376  0.0771  1.5984  0.4700
 4904TIP3   OH214675   2.040   2.433   3.138  0.3331 -0.1710 -0.6951
 4904TIP3    H114676   1.950   2.442   3.107 -0.0725 -1.6648 -0.0285
 4904TIP3    H214677   2.073   2.355   3.094  1.2999  0.3110 -0.8714
 4905TIP3   OH214678   1.731   2.835   2.575  0.3474  0.4687 -0.6275
 4905TIP3    H114679   1.772   2.782   2.506  0.3814 -0.3228 -0.0052
 4905TIP3    H214680   1.668   2.776   2.616 -0.6733  1.3584 -0.8770
 4906TIP3   OH214681   4.740   3.362   4.598 -0.1870  0.3242  0.3148
 4906TIP3    H114682   4.796   3.403   4.663  0.1193 -0.3776  0.5049
 4906TIP3    H214683   4.795   3.293   4.559 -0.4541  0.5506 -0.4844
 4907TIP3   OH214684   2.313   3.792   3.224 -0.0422  0.6010 -0.1668
 4907TIP3    H114685   2.267   3.724   3.273  1.0431  0.3366  0.5154
 4907TIP3    H214686   2.376   3.829   3.286  1.2687  0.3619 -1.3002
 4908TIP3   OH214687   5.464   0.128   3.619  0.7425 -0.2476 -0.0558
 4908TIP3    H114688   5.546   0.089   3.588 -0.9199 -1.1796 -3.8730
 4908TIP3    H214689   5.491   0.209   3.663  3.7351 -1.0308 -0.2595
 4909TIP3   OH214690   3.742   2.430   5.467  0.1418  0.9434  0.4342
 4909TIP3    H114691   3.767   2.489   5.396  1.9385 -0.2222  0.0349
 4909TIP3    H214692   3.667   2.473   5.508  0.0758  2.4522 -1.1315
 4910TIP3   OH214693   2.811   5.613   2.760 -0.0772 -0.2981 -0.0798
 4910TIP3    H114694   2.721   5.643   2.774 -0.1041 -0.9759  1.3297
 4910TIP3    H214695   2.862   5.693   2.751 -0.8126  0.0941 -0.8867
 4911TIP3   OH214696   6.854   4.287   4.705  0.0258  0.1684 -0.1262
 4911TIP3    H114697   6.849   4.222   4.775 -1.3713  1.1906  0.7658
 4911TIP3    H214698   6.768   4.328   4.704  0.2781  0.7336 -1.9358
 4912TIP3   OH214699   6.432   4.937   1.959  0.3405 -0.7460  0.1522
 4912TIP3    H114700   6.428   4.843   1.974  1.2406 -0.5006  2.1873
 4912TIP3    H214701   6.345   4.960   1.927 -0.1050 -2.1487  0.2978
 4913TIP3   OH214702   6.621   0.005   4.934 -0.0660 -0.0201 -0.6322
 4913TIP3    H114703   6.600   0.098   4.924  1.5191  0.4052 -0.3059
 4913TIP3    H214704   6.694   0.004   4.996 -1.0324 -1.6050  0.5784
 4914TIP3   OH214705   0.977   4.228   1.703 -0.6644 -0.1626 -0.4406
 4914TIP3    H114706   1.043   4.192   1.644 -1.4713 -0.7724 -1.0069
 4914TIP3    H214707   0.967   4.162   1.771 -0.2695  0.1981 -0.0327
 4915TIP3   OH214708   4.792   2.209   4.892  1.0473 -0.2819  0.0912
 4915TIP3    H114709   4.871   2.165   4.861  1.1610 -0.4805  0.6418
 4915TIP3    H214710   4.824   2.270   4.959  0.7213 -0.4452  0.3954
 4916TIP3   OH214711   1.525   2.909   1.846 -0.7224 -0.0808 -1.2846
 4916TIP3    H114712   1.475   2.879   1.922  1.7927  0.3265  0.6728
 4916TIP3    H214713   1.460   2.952   1.790 -2.6737 -0.2022  0.7334
 4917TIP3   OH214714   6.456   3.390   3.017 -0.2115  0.0025  0.1741
 4917TIP3    H114715   6.392   3.393   3.089 -0.1584  0.0356  0.2208
 4917TIP3    H214716   6.420   3.449   2.951  0.5134  1.2072  0.8227
 4918TIP3   OH214717   6.598   4.267   0.480 -0.3405 -0.3115 -0.0033
 4918TIP3    H114718   6.504   4.251   0.473 -0.3888  0.3615 -1.2642
 4918TIP3    H214719   6.632   4.190   0.526 -1.4333 -0.7985  0.0310
 4919TIP3   OH214720   5.350   0.534   3.954  0.4490 -0.9242 -0.7521
 4919TIP3    H114721   5.375   0.500   3.868  0.9848  0.1456 -1.0363
 4919TIP3    H214722   5.369   0.628   3.949 -0.3153 -0.7023  0.2469
 4920TIP3   OH214723   6.032   2.341   4.212 -0.2971  0.4140 -0.0978
 4920TIP3    H114724   6.118   2.335   4.254 -0.8953  0.3075  1.1475
 4920TIP3    H214725   6.045   2.403   4.140  0.6128  1.0713  0.6066
 4921TIP3   OH214726   2.024   3.995   5.745  0.2208  0.2161 -0.2675
 4921TIP3    H114727   2.075   4.008   5.665 -0.2849  0.2348 -0.5882
 4921TIP3    H214728   1.949   4.054   5.736 -0.1453 -0.2065 -0.0446
 4922TIP3   OH214729   5.596   1.566   2.350  0.1698  0.0183 -0.0934
 4922TIP3    H114730   5.621   1.592   2.439 -0.8292 -0.8491  0.4669
 4922TIP3    H214731   5.656   1.615   2.293  0.2014  1.3334  1.0101
 4923TIP3   OH214732   2.592   0.549   1.413 -0.0224  0.0347 -0.7444
 4923TIP3    H114733   2.516   0.606   1.423 -1.7633 -2.2449 -0.1771
 4923TIP3    H214734   2.587   0.488   1.487  2.4521 -0.1413 -0.6212
 4924TIP3   OH214735   1.812   3.944   1.621 -0.2480  0.5164  0.2375
 4924TIP3    H114736   1.902   3.921   1.598 -0.6124 -0.9818  0.1973
 4924TIP3    H214737   1.803   4.036   1.596  0.4777 -0.0165 -2.3272
 4925TIP3   OH214738   2.405   1.908   0.572  0.1904 -0.2618  0.6112
 4925TIP3    H114739   2.458   1.958   0.634  0.0016  0.4163  0.2316
 4925TIP3    H214740   2.354   1.973   0.525 -0.5426 -0.8589  0.5502
 4926TIP3   OH214741   3.287   5.682   3.688 -0.0616  0.2941 -0.0181
 4926TIP3    H114742   3.199   5.714   3.668  0.6869  1.6698 -1.3099
 4926TIP3    H214743   3.294   5.688   3.784 -2.0619 -1.8266  0.3328
 4927TIP3   OH214744   4.726   0.094   3.537  0.4472 -0.0870 -0.1070
 4927TIP3    H114745   4.648   0.045   3.511  0.2317 -0.5151  1.2945
 4927TIP3    H214746   4.699   0.186   3.532  0.8350 -0.0285 -2.6814
 4928TIP3   OH214747   4.079   3.362   4.830  0.1219 -0.1290 -0.5722
 4928TIP3    H114748   4.086   3.269   4.811  1.8280 -0.4545  1.3433
 4928TIP3    H214749   4.015   3.368   4.900 -1.3318  0.3828 -1.8857
 4929TIP3   OH214750   4.085   3.682   2.862  0.1745 -0.3077 -0.6327
 4929TIP3    H114751   4.137   3.739   2.805  1.3162 -0.3901  0.3026
 4929TIP3    H214752   4.013   3.651   2.805 -0.1100  1.5201 -1.3339
 4930TIP3   OH214753   1.525   1.799   0.865  0.6571  0.4869  0.0686
 4930TIP3    H114754   1.492   1.888   0.852  1.0878  0.4527 -1.4195
 4930TIP3    H214755   1.607   1.797   0.817  0.6102 -0.7397  0.0167
 4931TIP3   OH214756   4.852   6.289   4.452 -0.0234  0.2432  0.6184
 4931TIP3    H114757   4.780   6.228   4.464  0.8474 -0.8778  0.3460
 4931TIP3    H214758   4.869   6.325   4.539  0.7171 -1.3926  1.1903
 4932TIP3   OH214759   6.779   5.407   2.823 -0.1837 -0.0632  0.0736
 4932TIP3    H114760   6.870   5.430   2.806 -0.0518 -1.0036 -0.6211
 4932TIP3    H214761   6.763   5.436   2.912  1.0935 -0.7238  0.5514
 4933TIP3   OH214762   0.179   6.516   5.777  0.0356 -0.3449  0.5420
 4933TIP3    H114763   0.143   6.600   5.750 -0.1070 -0.7847 -0.7211
 4933TIP3    H214764   0.238   6.537   5.850 -0.8640  0.6877  0.9942
 4934TIP3   OH214765   0.559   5.623   3.712 -0.0111  0.4732 -0.0840
 4934TIP3    H114766   0.518   5.611   3.627  1.8866  1.4009 -1.1873
 4934TIP3    H214767   0.521   5.554   3.767 -1.5603  0.1004 -1.5448
 4935TIP3   OH214768   0.136   6.403   0.066 -0.1064  0.2521  0.2953
 4935TIP3    H114769   0.210   6.380   0.011 -1.5828 -0.6564 -1.4156
 4935TIP3    H214770   0.152   6.493   0.093  1.6977 -0.0007  0.1662
 4936TIP3   OH214771   0.580   4.222   3.161 -0.5172  0.0376 -0.3682
 4936TIP3    H114772   0.599   4.174   3.080  1.3736  1.0922 -0.6040
 4936TIP3    H214773   0.663   4.222   3.209 -1.0254  1.3062  0.5658
 4937TIP3   OH214774   4.006   2.346   2.003  0.0403  0.3133  0.2423
 4937TIP3    H114775   3.967   2.330   1.917 -0.4159 -0.6478  0.6033
 4937TIP3    H214776   3.966   2.280   2.060  2.0305 -0.5958  0.6846
 4938TIP3   OH214777   2.970   5.686   3.444  0.3040  0.5641  0.0242
 4938TIP3    H114778   2.998   5.623   3.511 -0.6317  0.1433  0.0404
 4938TIP3    H214779   2.897   5.643   3.400  0.3057  1.2300 -0.6496
 4939TIP3   OH214780   4.414   1.271   2.320 -0.5278  0.6674  0.6713
 4939TIP3    H114781   4.467   1.252   2.397 -0.2582  2.6528  1.0415
 4939TIP3    H214782   4.474   1.314   2.259 -1.5965  2.8561  1.0493
 4940TIP3   OH214783   4.446   2.608   5.658  0.0752 -0.9207  0.2029
 4940TIP3    H114784   4.440   2.532   5.716  0.0086 -0.9569  0.1484
 4940TIP3    H214785   4.394   2.584   5.581  0.7504 -1.1570 -0.1857
 4941TIP3   OH214786   3.185   3.272   2.097  0.5880 -0.1629 -0.0004
 4941TIP3    H114787   3.139   3.291   2.179 -0.4778 -1.9674 -0.1274
 4941TIP3    H214788   3.238   3.194   2.117 -0.4967 -1.2640 -1.2810
 4942TIP3   OH214789   1.737   6.370   5.646 -0.0100  0.1185 -0.4340
 4942TIP3    H114790   1.655   6.418   5.656 -0.1059  0.1333 -1.2176
 4942TIP3    H214791   1.793   6.404   5.715 -0.1851  1.1332 -0.7698
 4943TIP3   OH214792   6.749   1.707   4.521 -0.2879  0.2058 -0.2157
 4943TIP3    H114793   6.755   1.670   4.609  0.6494  1.3546  0.2295
 4943TIP3    H214794   6.759   1.632   4.462  1.2383 -0.3028  0.6580
 4944TIP3   OH214795   0.671   2.200   4.631 -0.0660  0.1529  0.1828
 4944TIP3    H114796   0.653   2.292   4.647  0.2541  0.0872  0.9703
 4944TIP3    H214797   0.726   2.199   4.553 -0.8723  0.5543 -0.4064
 4945TIP3   OH214798   5.513   6.254   5.791 -0.0883 -0.1221 -0.0999
 4945TIP3    H114799   5.468   6.284   5.712 -1.6272  0.2162  0.8677
 4945TIP3    H214800   5.516   6.158   5.781  1.4201  0.0097 -1.4040
 4946TIP3   OH214801   6.440   3.466   4.425  0.3247  0.0033  0.5778
 4946TIP3    H114802   6.530   3.493   4.439  0.4013  0.9985 -1.5279
 4946TIP3    H214803   6.437   3.438   4.334 -1.1432 -1.5842  1.0560
 4947TIP3   OH214804   0.710   1.107   4.889  0.1244  0.3885 -0.2154
 4947TIP3    H114805   0.759   1.046   4.944 -1.1630  0.5329  1.1864
 4947TIP3    H214806   0.619   1.096   4.917 -0.5247  0.8632 -1.9876
 4948TIP3   OH214807   2.723   0.522   3.425  0.1496 -0.2214  0.0781
 4948TIP3    H114808   2.768   0.476   3.354  1.1927  0.9052 -0.0245
 4948TIP3    H214809   2.697   0.453   3.486  1.1532 -0.9968 -0.3520
 4949TIP3   OH214810   5.520   1.194   2.816  0.3054  0.2592  0.0935
 4949TIP3    H114811   5.506   1.270   2.760  2.1622 -1.7842 -3.5260
 4949TIP3    H214812   5.433   1.166   2.842 -0.5264  2.2981 -0.3219
 4950TIP3   OH214813   2.884   1.932   5.139 -0.4019 -0.0586 -0.1323
 4950TIP3    H114814   2.796   1.908   5.111 -0.0473  0.0916 -1.4044
 4950TIP3    H214815   2.904   2.013   5.093  0.6491 -0.4353 -0.3690
 4951TIP3   OH214816   2.738   3.551   2.280  0.2326 -0.3043 -0.1022
 4951TIP3    H114817   2.739   3.578   2.188  2.6407  1.2385  0.2795
 4951TIP3    H214818   2.801   3.609   2.323 -2.9184  1.0596  3.2059
 4952TIP3   OH214819   3.427   6.517   0.305 -0.5052  0.2504  0.4687
 4952TIP3    H114820   3.506   6.495   0.355 -0.3797 -1.1775 -0.3134
 4952TIP3    H214821   3.357   6.468   0.348 -0.7408  0.5283  0.4039
 4953TIP3   OH214822   3.826   5.284   0.508  0.5107  0.4591 -0.3311
 4953TIP3    H114823   3.815   5.237   0.590 -0.0275  1.8538  0.4396
 4953TIP3    H214824   3.791   5.372   0.526  2.0636  1.3665 -1.4809
 4954TIP3   OH214825   4.190   1.511   1.330  0.1431 -0.4480 -0.2222
 4954TIP3    H114826   4.112   1.458   1.343 -0.4381  0.0370 -1.4921
 4954TIP3    H214827   4.184   1.580   1.396 -1.3317  0.4736 -1.2504
 4955TIP3   OH214828   2.817   1.430   3.643  0.5091  0.1617 -0.3211
 4955TIP3    H114829   2.802   1.345   3.686 -0.4181 -1.5746 -3.6915
 4955TIP3    H214830   2.885   1.472   3.696  0.1601 -2.1201  2.1911
 4956TIP3   OH214831   6.604   2.568   3.062 -0.4541  0.4516 -0.4543
 4956TIP3    H114832   6.548   2.564   2.984 -0.2453  0.7623 -0.6231
 4956TIP3    H214833   6.655   2.487   3.059 -0.2217  0.6106 -0.8105
 4957TIP3   OH214834   3.108   2.320   5.418 -0.1364 -0.4106  0.7140
 4957TIP3    H114835   3.021   2.281   5.419  0.6129 -2.2228 -0.2896
 4957TIP3    H214836   3.104   2.387   5.350 -0.9328  0.0134  1.1669
 4958TIP3   OH214837   0.613   3.786   4.057 -0.0739 -0.0233 -0.1549
 4958TIP3    H114838   0.595   3.808   4.148  2.6973  1.2279  0.1847
 4958TIP3    H214839   0.618   3.871   4.012  1.1859 -0.4516 -0.8820
 4959TIP3   OH214840   7.090   1.632   2.328  0.2788  0.3318 -0.1444
 4959TIP3    H114841   6.998   1.639   2.303 -0.7482  0.5107  3.1818
 4959TIP3    H214842   7.126   1.719   2.314 -1.1971  1.4041  2.0966
 4960TIP3   OH214843   5.092   0.118   0.041  0.3552 -0.3132  0.3643
 4960TIP3    H114844   5.106   0.025   0.025 -0.4772 -0.5248  0.7875
 4960TIP3    H214845   5.112   0.129   0.134  1.4086  0.1350  0.0974
 4961TIP3   OH214846   0.088   2.654   3.805 -0.4016 -0.1010  0.2811
 4961TIP3    H114847   0.131   2.729   3.766  0.5081 -0.3696  0.7475
 4961TIP3    H214848   0.089   2.672   3.899  1.9423 -1.7158  0.6592
 4962TIP3   OH214849   5.347   3.304   1.665 -0.4910  0.0306  0.6579
 4962TIP3    H114850   5.257   3.286   1.636 -0.5131  0.7782  0.2419
 4962TIP3    H214851   5.368   3.389   1.626 -0.1434  0.5778  1.9714
 4963TIP3   OH214852   4.291   3.285   0.995  0.2492  0.5899  0.0236
 4963TIP3    H114853   4.262   3.355   1.054 -1.3135  0.5813 -0.6636
 4963TIP3    H214854   4.261   3.204   1.036  0.5402  0.4612 -0.0171
 4964TIP3   OH214855   5.519   2.557   4.880 -0.1967  0.6049 -0.3668
 4964TIP3    H114856   5.596   2.550   4.824  1.4970 -4.1519  2.0428
 4964TIP3    H214857   5.550   2.597   4.961 -0.0447 -1.5151  0.6917
 4965TIP3   OH214858   7.037   2.823   0.142  0.1508  0.3697  0.4182
 4965TIP3    H114859   7.129   2.805   0.122 -0.0617 -0.5513  0.2278
 4965TIP3    H214860   6.990   2.798   0.062 -0.4767 -1.1944  1.2343
 4966TIP3   OH214861   1.708   0.073   5.773 -0.1637  0.0410 -0.5270
 4966TIP3    H114862   1.733  -0.013   5.806  0.5975  0.1626 -0.7460
 4966TIP3    H214863   1.667   0.056   5.689 -1.6224 -0.2299  0.2208
 4967TIP3   OH214864   2.213   4.637   4.931  0.0744 -0.2322  0.3114
 4967TIP3    H114865   2.134   4.619   4.982  0.0923  0.6812  0.6706
 4967TIP3    H214866   2.262   4.701   4.983  1.4903 -1.4280  0.5273
 4968TIP3   OH214867   0.723   1.115   0.751 -0.4097 -0.5929  0.1203
 4968TIP3    H114868   0.685   1.046   0.807  0.5528  0.0745  1.6729
 4968TIP3    H214869   0.779   1.067   0.689  0.9681 -1.2186  1.7554
 4969TIP3   OH214870   0.481   2.241   2.580  0.2045  0.4251  0.7674
 4969TIP3    H114871   0.554   2.179   2.587 -0.8103 -1.3744 -2.5163
 4969TIP3    H214872   0.410   2.201   2.630 -0.0495 -0.4290 -0.2612
 4970TIP3   OH214873   0.132   1.663   4.901  0.3243 -0.1149 -0.3148
 4970TIP3    H114874   0.060   1.722   4.877 -1.5317 -2.5886 -1.3131
 4970TIP3    H214875   0.115   1.642   4.993 -0.8368 -1.3894 -0.7876
 4971TIP3   OH214876   5.250   3.095   2.793  0.2542  0.0210  0.8102
 4971TIP3    H114877   5.240   3.188   2.813 -1.2509 -0.4388  2.4701
 4971TIP3    H214878   5.223   3.086   2.702  0.5081  1.2143  0.6052
 4972TIP3   OH214879   6.941   4.057   5.578 -0.0709  0.0760  0.2618
 4972TIP3    H114880   6.879   3.989   5.604  0.4139  0.0524  1.4249
 4972TIP3    H214881   6.899   4.139   5.602  1.0338  0.0047  2.7949
 4973TIP3   OH214882   6.059   4.431   1.543  0.0741 -0.3558  0.2239
 4973TIP3    H114883   6.000   4.506   1.546 -0.0310 -0.4492  0.5253
 4973TIP3    H214884   6.008   4.359   1.580  0.4271 -0.4031  0.6269
 4974TIP3   OH214885   3.490   6.520   5.863  0.0522 -0.2078 -0.0252
 4974TIP3    H114886   3.532   6.434   5.858 -0.2150 -0.3451  0.0931
 4974TIP3    H214887   3.400   6.505   5.832 -0.0987 -0.0439  0.3272
 4975TIP3   OH214888   1.640   4.639   5.419 -0.0379  0.4416  0.1749
 4975TIP3    H114889   1.706   4.691   5.465  0.0311 -0.4881  1.1811
 4975TIP3    H214890   1.635   4.557   5.469  1.4213 -1.4705 -2.5453
 4976TIP3   OH214891   5.894   1.992   3.783 -0.3790 -0.2902 -0.7508
 4976TIP3    H114892   5.963   2.032   3.730  0.6400 -1.2711 -0.1918
 4976TIP3    H214893   5.928   1.992   3.872 -1.9975  1.1733 -0.0682
 4977TIP3   OH214894   2.597   4.133   0.027  0.0650 -0.6693  0.6803
 4977TIP3    H114895   2.586   4.224   0.054  2.2890  0.4970 -1.8118
 4977TIP3    H214896   2.668   4.101   0.082  2.9322  0.9276 -1.7902
 4978TIP3   OH214897   3.665   5.495   0.018  0.0185  0.0320 -0.4485
 4978TIP3    H114898   3.597   5.541   0.068 -1.1236  1.1552 -2.8762
 4978TIP3    H214899   3.731   5.562   0.002  0.4554 -0.3680 -0.3274
 4979TIP3   OH214900   0.818   1.616   0.751 -0.1145  0.2010  0.4262
 4979TIP3    H114901   0.811   1.527   0.715 -2.8369 -0.2075  1.6731
 4979TIP3    H214902   0.829   1.672   0.674  3.2197 -1.2270 -0.2971
 4980TIP3   OH214903   5.239   6.705   4.052 -0.4186 -0.0818  0.0214
 4980TIP3    H114904   5.226   6.749   3.968  0.6396  1.1273  0.4589
 4980TIP3    H214905   5.218   6.613   4.035 -1.3322  0.3449 -1.2716
 4981TIP3   OH214906   3.673   0.433   5.325 -0.2732  0.2505 -0.3474
 4981TIP3    H114907   3.718   0.517   5.332 -1.8218  0.9810  1.8712
 4981TIP3    H214908   3.717   0.377   5.389 -0.5456 -0.0086 -0.3871
 4982TIP3   OH214909   1.892   2.001   2.196 -0.1707  0.4113 -0.5610
 4982TIP3    H114910   1.974   2.013   2.148 -0.4931  0.3008 -1.1432
 4982TIP3    H214911   1.831   1.965   2.131 -0.3453 -0.6161  0.1494
 4983TIP3   OH214912   2.976   1.464   3.385 -0.0942  0.2359  0.2450
 4983TIP3    H114913   2.918   1.454   3.460  0.3756 -1.2398  0.4426
 4983TIP3    H214914   2.982   1.377   3.346  0.6896  0.7016 -0.7435
 4984TIP3   OH214915   0.731   3.082   1.342  0.5921  0.6559  0.2212
 4984TIP3    H114916   0.776   3.000   1.361  0.2024  0.2005 -0.7863
 4984TIP3    H214917   0.751   3.138   1.417 -0.7862 -1.0378  1.9564
 4985TIP3   OH214918   0.740   2.864   2.289  0.0023  0.7094  0.1924
 4985TIP3    H114919   0.662   2.851   2.342  0.3350 -1.8363  0.2015
 4985TIP3    H214920   0.707   2.879   2.200 -0.4952  0.5698  0.3502
 4986TIP3   OH214921   5.726   3.719   4.170 -0.2802  1.0809 -0.0934
 4986TIP3    H114922   5.692   3.788   4.227 -0.2406  2.4635 -1.6661
 4986TIP3    H214923   5.655   3.703   4.107 -0.0945  0.0259 -0.0453
 4987TIP3   OH214924   3.624   1.453   3.267 -0.0096  0.3493 -0.0202
 4987TIP3    H114925   3.599   1.375   3.316 -2.2489  1.0171  0.0054
 4987TIP3    H214926   3.574   1.524   3.308 -0.0021  1.3456 -1.6558
 4988TIP3   OH214927   1.113   2.003   2.869  0.1945 -0.1570 -0.3032
 4988TIP3    H114928   1.062   2.081   2.849 -1.5190 -0.7463  1.4906
 4988TIP3    H214929   1.113   1.952   2.788  0.2168  1.0693 -1.0989
 4989TIP3   OH214930   0.803   2.855   0.941 -0.0253 -0.1796 -0.5351
 4989TIP3    H114931   0.847   2.890   0.863  0.0559  0.3939 -0.2385
 4989TIP3    H214932   0.874   2.823   0.997  0.0173  0.6291 -0.1126
 4990TIP3   OH214933   1.493   4.897   0.958 -0.4634  0.3764 -0.4166
 4990TIP3    H114934   1.457   4.858   1.037 -0.7230 -0.0130 -0.7278
 4990TIP3    H214935   1.475   4.834   0.888 -2.5437  1.8227 -1.2878
 4991TIP3   OH214936   5.604   3.618   4.578  0.0818 -0.2286  0.0687
 4991TIP3    H114937   5.680   3.563   4.560  0.5708 -0.9623  3.6731
 4991TIP3    H214938   5.529   3.564   4.550  0.7368 -0.5349 -1.1818
 4992TIP3   OH214939   1.097   6.358   1.138 -0.1550 -0.3174  0.4033
 4992TIP3    H114940   1.114   6.346   1.231  2.0111  0.1568  0.1105
 4992TIP3    H214941   1.070   6.450   1.131 -0.3696 -0.3678  0.5577
 4993TIP3   OH214942   2.089   1.366   3.632 -0.5475  0.2274  0.6713
 4993TIP3    H114943   2.184   1.354   3.643 -0.3999 -0.1736 -0.7632
 4993TIP3    H214944   2.078   1.460   3.623 -0.3654  0.3268  1.4155
 4994TIP3   OH214945   5.009   6.737   0.595  0.2359  0.8289 -0.3655
 4994TIP3    H114946   4.994   6.824   0.558  2.4564  1.1407 -0.6619
 4994TIP3    H214947   5.077   6.698   0.540  0.0933 -0.6618  0.4482
 4995TIP3   OH214948   4.220   0.663   0.028  0.1440 -0.5653 -0.2553
 4995TIP3    H114949   4.186   0.668   0.117 -0.1426 -1.8424 -0.2711
 4995TIP3    H214950   4.155   0.611  -0.019  0.7487 -0.6825 -0.9749
 4996TIP3   OH214951   1.436   1.539   3.200  0.0295  0.5381  0.2170
 4996TIP3    H114952   1.418   1.529   3.107 -0.7762 -0.5030  0.4681
 4996TIP3    H214953   1.524   1.504   3.212 -0.2545 -0.2490  0.0062
 4997TIP3   OH214954   2.569   6.393   2.044 -0.8983 -0.5952  0.2104
 4997TIP3    H114955   2.548   6.358   1.958 -1.5508  1.4070 -0.5042
 4997TIP3    H214956   2.486   6.425   2.079 -0.1589  1.7113  0.0632
 4998TIP3   OH214957   5.213   2.578   4.430  0.3922 -0.7390 -0.1604
 4998TIP3    H114958   5.249   2.660   4.395  0.0869 -0.1046  0.9508
 4998TIP3    H214959   5.285   2.541   4.482 -0.0704 -0.1762  0.9177
 4999TIP3   OH214960   6.409   1.130   0.118 -0.0463  0.3352 -0.1104
 4999TIP3    H114961   6.448   1.192   0.056 -0.6570  1.4298  0.5634
 4999TIP3    H214962   6.336   1.092   0.071  1.1405 -0.9361 -1.0121
 5000TIP3   OH214963   1.694   2.306   1.085 -0.2321 -0.4075 -0.3664
 5000TIP3    H114964   1.769   2.252   1.058  0.1539  0.1619 -0.4617
 5000TIP3    H214965   1.624   2.281   1.026  0.0616 -0.5333 -0.6668
 5001TIP3   OH214966   5.836   4.355   2.448  0.4565 -0.2968  0.0821
 5001TIP3    H114967   5.907   4.412   2.418  0.1686 -0.1230 -0.2850
 5001TIP3    H214968   5.757   4.394   2.410  0.0314  0.1401  1.3694
 5002TIP3   OH214969   5.953   6.682   1.441  0.3368 -0.2738  0.2076
 5002TIP3    H114970   5.893   6.655   1.511 -0.6165 -0.1002 -0.5216
 5002TIP3    H214971   5.956   6.778   1.448  0.6654 -0.2923  0.3443
 5003TIP3   OH214972   3.304   0.606   5.408  0.1593 -0.2594 -0.0013
 5003TIP3    H114973   3.377   0.552   5.439  1.3176 -0.6457 -3.1339
 5003TIP3    H214974   3.231   0.544   5.402  0.3613 -0.5355  0.2885
 5004TIP3   OH214975   5.089   1.887   4.617 -0.2545  0.0046 -0.0845
 5004TIP3    H114976   5.119   1.905   4.528  0.1602 -0.5662 -0.0619
 5004TIP3    H214977   5.030   1.960   4.637  1.1641  1.2016 -0.0988
 5005TIP3   OH214978   0.910   0.282   2.577 -0.1976 -0.4291  0.1801
 5005TIP3    H114979   0.889   0.222   2.648 -0.1699 -0.1597  0.4217
 5005TIP3    H214980   0.825   0.311   2.544 -0.2132 -0.3390  0.2947
 5006TIP3   OH214981   1.051   3.817   0.615  0.1236 -0.3083  0.0175
 5006TIP3    H114982   1.112   3.870   0.666 -0.0842  0.1831 -0.2424
 5006TIP3    H214983   1.099   3.796   0.534  1.0859 -2.4813  1.0732
 5007TIP3   OH214984   0.008   1.319   2.947 -0.5976 -0.1048  0.2397
 5007TIP3    H114985   0.066   1.365   3.006 -1.0081  0.6029  0.1019
 5007TIP3    H214986  -0.063   1.287   3.003 -0.4169 -0.4030  0.3018
 5008TIP3   OH214987   1.645   4.720   3.495 -0.4490  0.4754 -0.3927
 5008TIP3    H114988   1.668   4.813   3.505 -1.3803  0.5139  2.3946
 5008TIP3    H214989   1.615   4.694   3.582  1.8336 -3.0498 -0.4787
 5009TIP3   OH214990   0.689   3.345   5.275 -0.0973 -0.1436 -0.1781
 5009TIP3    H114991   0.763   3.401   5.254 -0.7801  1.0343  0.4800
 5009TIP3    H214992   0.628   3.401   5.323 -0.3244 -1.7200  1.5117
 5010TIP3   OH214993   6.567   0.392   3.503  0.4343 -0.5669 -0.1921
 5010TIP3    H114994   6.526   0.459   3.448  0.9469  0.1658  0.2903
 5010TIP3    H214995   6.639   0.358   3.450 -0.8565 -1.9957 -1.1179
 5011TIP3   OH214996   4.410   0.844   2.075 -0.4815 -0.3936 -0.2432
 5011TIP3    H114997   4.490   0.796   2.093  0.1260  0.2461 -1.1372
 5011TIP3    H214998   4.393   0.829   1.982  0.8875  2.6957 -1.1263
 5012TIP3   OH214999   3.430   4.892   4.104  0.0851  0.1887  0.3667
 5012TIP3    H115000   3.380   4.872   4.184 -1.0242  0.8143 -0.1542
 5012TIP3    H215001   3.368   4.880   4.033  1.7148 -2.9423 -0.7112
 5013TIP3   OH215002   0.930   3.231   3.182 -0.0416 -0.8701  0.5425
 5013TIP3    H115003   0.852   3.186   3.212 -2.8911  1.5465 -2.4946
 5013TIP3    H215004   0.936   3.309   3.237 -0.6900 -0.3120 -0.1635
 5014TIP3   OH215005   2.010   1.279   1.596  0.4018 -0.4495  0.2411
 5014TIP3    H115006   2.091   1.328   1.576  0.1620 -0.0146  0.3168
 5014TIP3    H215007   1.942   1.325   1.547 -0.1458  0.4311  1.7595
 5015TIP3   OH215008   6.877   5.973   3.155 -0.2186 -0.8501 -0.7710
 5015TIP3    H115009   6.972   5.976   3.143 -0.2661 -1.2749 -1.2683
 5015TIP3    H215010   6.848   5.897   3.105 -0.6786 -1.4929  0.4054
 5016TIP3   OH215011   7.138   4.669   4.249  0.1129 -0.1502 -0.4357
 5016TIP3    H115012   7.045   4.649   4.261 -0.0928 -0.3298 -2.0220
 5016TIP3    H215013   7.177   4.584   4.229  0.7937 -0.2102  1.0601
 5017TIP3   OH215014   6.306   5.802   1.232 -0.4285 -0.3458  0.0840
 5017TIP3    H115015   6.357   5.738   1.184 -0.5714 -0.6329  0.3101
 5017TIP3    H215016   6.358   5.882   1.229 -1.9557  0.7058 -3.5136
 5018TIP3   OH215017   2.253   4.783   0.907 -0.1195 -0.0372 -0.2444
 5018TIP3    H115018   2.222   4.808   0.994 -0.8076 -0.0160 -0.4862
 5018TIP3    H215019   2.177   4.743   0.865 -0.1079  0.8700 -1.1931
 5019TIP3   OH215020   1.882   0.521   1.545 -0.1813 -0.8174 -0.2385
 5019TIP3    H115021   1.919   0.462   1.611  1.0265  0.8027  0.5916
 5019TIP3    H215022   1.900   0.609   1.578  0.9078  0.0826 -2.9446
 5020TIP3   OH215023   0.356   4.275   1.194  0.1022 -0.1193 -0.2846
 5020TIP3    H115024   0.366   4.253   1.287 -1.2663  0.3518 -0.0044
 5020TIP3    H215025   0.424   4.340   1.178  0.0612  0.1321  0.5044
 5021TIP3   OH215026   2.468   4.310   2.806 -0.1125 -0.4089  0.3799
 5021TIP3    H115027   2.397   4.371   2.786  0.1508 -0.3793 -0.5101
 5021TIP3    H215028   2.424   4.232   2.840 -0.4879  0.0446  0.9438
 5022TIP3   OH215029   1.843   3.181   4.915  0.5882  0.6812 -0.4860
 5022TIP3    H115030   1.838   3.135   4.832  0.1879 -1.6004  0.7115
 5022TIP3    H215031   1.804   3.267   4.898 -0.6113 -0.1715 -2.3251
 5023TIP3   OH215032   3.011   3.798   4.090 -0.3797 -0.0478 -0.5282
 5023TIP3    H115033   2.955   3.816   4.165 -1.5532 -0.4613 -1.2712
 5023TIP3    H215034   2.997   3.873   4.032 -1.5671 -0.9586 -1.4908
 5024TIP3   OH215035   7.043   6.362   5.628  0.2724  0.0216  0.2517
 5024TIP3    H115036   7.013   6.447   5.596  1.7029  1.1392  1.7238
 5024TIP3    H215037   6.995   6.349   5.710  2.0282  0.7870  1.4764
 5025TIP3   OH215038   3.841   2.623   4.915  0.3567 -0.7925  0.2386
 5025TIP3    H115039   3.875   2.677   4.844 -0.9816 -1.2518 -0.7995
 5025TIP3    H215040   3.865   2.533   4.891 -0.2874 -0.9721  0.2377
 5026TIP3   OH215041   1.679   2.080   2.388 -0.1537  0.2147  0.6978
 5026TIP3    H115042   1.613   2.021   2.351  0.8044 -0.8613  0.6410
 5026TIP3    H215043   1.749   2.081   2.323  0.2639  0.6476  1.1475
 5027TIP3   OH215044   2.290   5.427   1.624  0.3520  0.2612  0.4069
 5027TIP3    H115045   2.289   5.334   1.600 -1.3007 -0.1439  1.8373
 5027TIP3    H215046   2.204   5.460   1.597  1.1280  1.5636 -0.6153
 5028TIP3   OH215047   3.202   6.630   5.243 -0.6062  0.4490 -0.8668
 5028TIP3    H115048   3.232   6.552   5.196  0.4799  0.5459 -0.3713
 5028TIP3    H215049   3.255   6.702   5.207  1.4537  0.2896  1.5223
 5029TIP3   OH215050   6.167   6.511   0.179  0.0899  0.0072 -0.4738
 5029TIP3    H115051   6.173   6.592   0.229  0.2472 -0.3394  0.0832
 5029TIP3    H215052   6.090   6.522   0.123  2.0514  1.9861 -3.0662
 5030TIP3   OH215053   3.334   4.114   3.737  0.1326 -0.1999  0.5652
 5030TIP3    H115054   3.316   4.203   3.706 -2.4352 -0.7273  0.3247
 5030TIP3    H215055   3.254   4.065   3.718  1.5865 -2.6777  0.4004
 5031TIP3   OH215056   5.837   0.921   2.290 -0.4530 -0.2600 -0.0769
 5031TIP3    H115057   5.780   0.844   2.280  0.3548 -0.8508 -0.2945
 5031TIP3    H215058   5.789   0.979   2.348 -0.7011 -1.3266  0.8155
 5032TIP3   OH215059   6.157   1.290   3.420 -0.2022  0.4196 -0.0401
 5032TIP3    H115060   6.088   1.357   3.425 -0.3825  0.2016  0.4414
 5032TIP3    H215061   6.233   1.331   3.462 -0.0128  0.6896 -0.6424
 5033TIP3   OH215062   6.633   2.720   5.205 -0.0051 -0.3046 -0.1535
 5033TIP3    H115063   6.688   2.798   5.213  1.6469 -1.1946 -1.9067
 5033TIP3    H215064   6.555   2.750   5.157 -0.1907  0.5845  0.6780
 5034TIP3   OH215065   5.483   1.018   2.238 -0.7297 -0.1424  0.3907
 5034TIP3    H115066   5.529   1.000   2.156 -0.7045  2.5206 -0.2652
 5034TIP3    H215067   5.549   1.008   2.306 -0.4448 -1.1642 -0.0199
 5035TIP3   OH215068   6.338   2.595   0.286  0.4386  0.1813  0.0061
 5035TIP3    H115069   6.331   2.504   0.258  0.5826  0.6358 -1.6253
 5035TIP3    H215070   6.292   2.598   0.370  0.0120 -1.2864 -0.1502
 5036TIP3   OH215071   4.163   1.482   5.703 -0.1418  0.2564  0.3227
 5036TIP3    H115072   4.177   1.527   5.786 -0.4588 -0.6345  0.8826
 5036TIP3    H215073   4.068   1.486   5.689 -0.2057 -0.4215  0.5042
 5037TIP3   OH215074   4.560   2.128   2.374  0.3881 -0.2186 -0.2707
 5037TIP3    H115075   4.527   2.040   2.353  0.4589  0.2276 -2.3943
 5037TIP3    H215076   4.551   2.177   2.293  1.2347  1.4888  0.6303
 5038TIP3   OH215077   0.335   4.737   1.793 -0.3722 -0.3114 -0.2045
 5038TIP3    H115078   0.390   4.730   1.715  0.2979  0.7197  0.1614
 5038TIP3    H215079   0.347   4.653   1.838  0.0200 -0.5212 -0.6959
 5039TIP3   OH215080   5.486   6.814   4.178 -0.0818 -0.1929 -0.6958
 5039TIP3    H115081   5.526   6.740   4.132 -0.7348 -0.6418 -0.5599
 5039TIP3    H215082   5.398   6.821   4.141 -1.2944 -1.6906  1.6174
 5040TIP3   OH215083   1.280   3.864   4.043  0.0603 -0.0545  0.0993
 5040TIP3    H115084   1.215   3.794   4.053  0.2570 -0.0863  1.2213
 5040TIP3    H215085   1.354   3.822   4.000 -0.0620 -0.3904  0.2118
 5041TIP3   OH215086   4.518   6.625   0.869  0.3869 -0.1455 -0.0739
 5041TIP3    H115087   4.609   6.642   0.844  0.2886 -2.8986 -2.9093
 5041TIP3    H215088   4.469   6.631   0.787 -1.3699 -2.2297  0.7242
 5042TIP3   OH215089   5.061   4.683   3.781 -0.4801  0.0247 -0.1376
 5042TIP3    H115090   5.148   4.722   3.774 -0.7170  0.4366 -1.0305
 5042TIP3    H215091   5.075   4.589   3.768  0.0241 -0.1426  1.4348
 5043TIP3   OH215092   4.319   1.070   3.593  0.5801 -0.7787 -0.2438
 5043TIP3    H115093   4.343   1.068   3.686 -0.0099 -1.0560 -0.0893
 5043TIP3    H215094   4.269   1.151   3.583  0.0794 -1.0737 -0.1681
 5044TIP3   OH215095   5.791   1.999   5.450 -0.0869 -0.2358 -0.2573
 5044TIP3    H115096   5.862   1.995   5.514 -1.5508 -3.2979  1.3997
 5044TIP3    H215097   5.812   1.932   5.386 -0.6163  0.0611 -0.7500
 5045TIP3   OH215098   0.525   5.028   2.995  0.8911  0.4519 -0.4485
 5045TIP3    H115099   0.443   4.979   2.995  0.1249  1.6656 -0.3771
 5045TIP3    H215100   0.582   4.980   2.935 -0.3110  0.2594 -1.4939
 5046TIP3   OH215101   4.793   2.773   0.551  0.0641 -0.5681  0.6755
 5046TIP3    H115102   4.783   2.864   0.581 -2.1578 -0.0223 -1.3847
 5046TIP3    H215103   4.884   2.768   0.521  0.2462  0.9710  0.8673
 5047TIP3   OH215104   2.107   6.117   4.762 -0.3123  0.2300 -0.0434
 5047TIP3    H115105   2.019   6.111   4.797 -0.0727  0.6086  0.6485
 5047TIP3    H215106   2.104   6.192   4.702 -0.2768  0.7516  0.5887
 5048TIP3   OH215107   4.022   3.980   5.436 -0.0917 -0.2168  0.1906
 5048TIP3    H115108   4.029   3.936   5.520  1.7941  2.3041  1.4968
 5048TIP3    H215109   3.933   4.015   5.435 -0.2693 -0.6327  0.9377
 5049TIP3   OH215110   4.286   3.794   0.906 -0.0396  0.0780  0.0822
 5049TIP3    H115111   4.338   3.754   0.975  0.2653  0.8385  0.3094
 5049TIP3    H215112   4.347   3.853   0.862  0.7371 -2.6972 -2.9591
 5050TIP3   OH215113   0.605   2.680   2.811  0.4104 -0.3051  0.6538
 5050TIP3    H115114   0.621   2.594   2.772 -1.8964  0.4426 -2.3029
 5050TIP3    H215115   0.692   2.716   2.826  1.4277 -2.2678 -0.1240
 5051TIP3   OH215116   0.349   2.105   0.940 -0.5557  0.2831  0.2581
 5051TIP3    H115117   0.334   2.191   0.901 -0.3716  0.1334 -0.1509
 5051TIP3    H215118   0.432   2.114   0.987  1.3790 -0.6141 -2.7010
 5052TIP3   OH215119   4.917   4.925   2.888 -0.1880 -0.1548  0.2610
 5052TIP3    H115120   4.888   4.969   2.808 -1.2666  0.1134  0.7871
 5052TIP3    H215121   4.930   4.995   2.951 -2.0232 -0.5362  1.1427
 5053TIP3   OH215122   3.299   1.894   0.585  0.3585 -0.4181  0.0636
 5053TIP3    H115123   3.269   1.980   0.556 -0.2949 -0.4240  0.6932
 5053TIP3    H215124   3.224   1.857   0.632  0.7158 -1.2271  0.0187
 5054TIP3   OH215125   4.895   3.120   3.174  0.0933 -0.2486  0.2304
 5054TIP3    H115126   4.901   3.025   3.185 -1.1029 -0.6990 -2.3202
 5054TIP3    H215127   4.986   3.149   3.170  0.5759 -1.7609 -1.9397
 5055TIP3   OH215128   4.158   3.835   3.104  0.3454  0.3261  0.0489
 5055TIP3    H115129   4.115   3.789   3.032 -0.1941  1.4351 -0.3539
 5055TIP3    H215130   4.199   3.911   3.064  1.4399  0.0920  0.6708
 5056TIP3   OH215131   0.312   5.389   2.993 -0.2497 -0.1234  0.7164
 5056TIP3    H115132   0.403   5.404   3.018 -0.2073 -1.8281  1.7075
 5056TIP3    H215133   0.282   5.319   3.050 -2.1364  0.2445  0.2577
 5057TIP3   OH215134   5.511   4.254   3.094  0.5908  0.3503 -0.1513
 5057TIP3    H115135   5.570   4.248   3.019  1.6372  0.4436  0.6591
 5057TIP3    H215136   5.545   4.192   3.158  1.7396  2.6602  1.6127
 5058TIP3   OH215137   3.779   4.213   1.847 -0.2234  0.2327  0.1324
 5058TIP3    H115138   3.759   4.307   1.839 -1.1917 -0.0379 -0.8813
 5058TIP3    H215139   3.874   4.208   1.834 -0.3948  0.9065 -1.7725
 5059TIP3   OH215140   0.531   5.957   3.583  0.3902 -0.0598 -0.1711
 5059TIP3    H115141   0.554   5.873   3.623 -0.3798 -1.0006 -1.6282
 5059TIP3    H215142   0.555   5.947   3.491  0.6802  1.4942 -0.2915
 5060TIP3   OH215143   6.328   2.646   2.918 -0.1465  0.5142  0.1540
 5060TIP3    H115144   6.410   2.694   2.905 -0.5604  0.9755 -0.8689
 5060TIP3    H215145   6.262   2.714   2.932 -0.3653  0.1458  1.0111
 5061TIP3   OH215146   5.813   2.331   0.998 -0.2357 -0.0379  0.0417
 5061TIP3    H115147   5.758   2.353   0.923  1.2757  0.9508 -0.8484
 5061TIP3    H215148   5.901   2.324   0.961  0.3706 -0.7532  1.5347
 5062TIP3   OH215149   6.690   0.368   3.128  0.1095  0.1283 -0.2024
 5062TIP3    H115150   6.718   0.305   3.194  0.9391  0.6122 -0.0859
 5062TIP3    H215151   6.680   0.316   3.048 -0.1023 -0.3068  0.1029
 5063TIP3   OH215152   1.345   1.100   5.806 -0.1453 -0.6414  0.2855
 5063TIP3    H115153   1.361   1.076   5.714 -0.8313  0.9704 -0.2895
 5063TIP3    H215154   1.314   1.190   5.802  2.4333  0.4676  2.3129
 5064TIP3   OH215155   3.856   1.233   2.643  0.1109  0.8868 -0.5768
 5064TIP3    H115156   3.774   1.234   2.692  0.4476  1.7952  0.0044
 5064TIP3    H215157   3.832   1.201   2.556 -0.3991 -1.3175  0.3102
 5065TIP3   OH215158   2.828   2.035   0.771 -0.6325  0.1897  0.4746
 5065TIP3    H115159   2.831   2.115   0.825 -1.4542  0.6302 -0.1137
 5065TIP3    H215160   2.893   1.977   0.812  0.3537  1.3381  0.6132
 5066TIP3   OH215161   6.098   2.523   4.001  0.4088 -1.1014  0.6260
 5066TIP3    H115162   6.043   2.599   4.019 -2.9365 -2.7666 -1.4256
 5066TIP3    H215163   6.110   2.524   3.906 -0.0091 -3.1948  0.4907
 5067TIP3   OH215164   0.851   6.573   3.413 -0.2735  0.1876 -0.0568
 5067TIP3    H115165   0.840   6.651   3.468 -1.6662  0.6416 -0.9184
 5067TIP3    H215166   0.832   6.500   3.472 -1.1829  0.6389  0.2375
 5068TIP3   OH215167   1.170   0.092   0.703 -0.2226 -0.1456  0.3595
 5068TIP3    H115168   1.082   0.128   0.690 -0.3790 -0.7767 -0.3722
 5068TIP3    H215169   1.191   0.048   0.621  0.1674 -1.2879  1.0527
 5069TIP3   OH215170   2.208   2.711   1.880 -0.1314 -0.2389 -0.1370
 5069TIP3    H115171   2.149   2.694   1.807  0.9106 -0.4110 -0.9515
 5069TIP3    H215172   2.223   2.625   1.919  1.6819 -0.6362 -1.5873
 5070TIP3   OH215173   3.976   0.938   4.423 -0.4328 -0.3190 -0.4187
 5070TIP3    H115174   3.968   0.941   4.327 -0.6296 -0.4621 -0.4069
 5070TIP3    H215175   3.890   0.908   4.453  0.1038 -1.8106 -0.2961
 5071TIP3   OH215176   4.157   3.058   0.405 -0.2948 -0.1721  0.1574
 5071TIP3    H115177   4.114   3.134   0.444 -0.7398 -0.6595  0.6445
 5071TIP3    H215178   4.215   3.094   0.338 -1.4765  0.4932 -0.5350
 5072TIP3   OH215179   3.496   1.399   4.351 -0.0548  0.0414  0.2675
 5072TIP3    H115180   3.540   1.364   4.429 -0.2300  0.0687  0.3788
 5072TIP3    H215181   3.404   1.375   4.362 -0.1479  0.3918  0.2639
 5073TIP3   OH215182   5.105   4.039   1.458 -0.2592 -0.1410  0.6851
 5073TIP3    H115183   5.059   4.116   1.492  0.6061  0.8709 -0.3479
 5073TIP3    H215184   5.047   3.966   1.477 -1.6070  0.9068  0.7257
 5074TIP3   OH215185   3.892   2.250   0.868  0.5690 -0.3303  0.1224
 5074TIP3    H115186   3.911   2.178   0.929  2.1331 -0.0443  0.0294
 5074TIP3    H215187   3.942   2.229   0.789 -0.8423 -0.3122 -0.8131
 5075TIP3   OH215188   4.013   3.513   0.970  0.3303  0.5949 -0.0528
 5075TIP3    H115189   3.992   3.430   0.928  2.0539  0.3504 -0.5025
 5075TIP3    H215190   3.994   3.580   0.903 -0.3231  0.5195  0.0472
 5076TIP3   OH215191   5.350   3.807   1.258 -0.0091 -0.2806 -0.4977
 5076TIP3    H115192   5.270   3.755   1.256 -0.2675  0.1394 -2.2157
 5076TIP3    H215193   5.417   3.747   1.290 -1.1206 -0.4069  1.8282
 5077TIP3   OH215194   3.500   0.193   1.303  0.4193  0.0141 -0.3079
 5077TIP3    H115195   3.445   0.158   1.233  1.0638 -3.1726  0.5960
 5077TIP3    H215196   3.583   0.215   1.261 -0.4789  1.9686 -1.1523
 5078TIP3   OH215197   6.651   6.317   5.831  0.0466  0.5538  0.5869
 5078TIP3    H115198   6.634   6.247   5.894  0.1012  0.0156  0.0134
 5078TIP3    H215199   6.746   6.319   5.822  0.0171  0.3638  0.2250
 5079TIP3   OH215200   6.533   2.229   4.050  0.1592 -0.2438  0.1822
 5079TIP3    H115201   6.576   2.314   4.065  0.9548 -0.1952 -1.9952
 5079TIP3    H215202   6.604   2.165   4.059 -0.2208 -0.5852  0.7652
 5080TIP3   OH215203   5.843   6.244   4.142 -0.1534  0.7652 -0.0063
 5080TIP3    H115204   5.808   6.330   4.165 -0.2737  0.7533 -0.1477
 5080TIP3    H215205   5.766   6.189   4.130 -0.0853  0.7353 -0.3008
 5081TIP3   OH215206   2.191   1.913   5.079  0.0991 -0.2117 -0.1651
 5081TIP3    H115207   2.135   1.973   5.028 -0.1921 -0.1245  0.2512
 5081TIP3    H215208   2.197   1.954   5.165  0.3521 -0.5087 -0.0419
 5082TIP3   OH215209   4.576   5.331   4.398 -0.3640  0.5134 -0.0035
 5082TIP3    H115210   4.620   5.416   4.392  2.5179 -0.8034  0.9000
 5082TIP3    H215211   4.633   5.271   4.350  0.1227 -1.7238  3.0784
 5083TIP3   OH215212   1.811   3.350   5.545 -0.2552 -0.6451  0.6341
 5083TIP3    H115213   1.836   3.440   5.522  1.3784 -0.7993  1.5973
 5083TIP3    H215214   1.797   3.307   5.461  1.0541 -0.0166  0.0549
 5084TIP3   OH215215   0.589   4.276   1.944  0.4540 -0.5066  0.4873
 5084TIP3    H115216   0.631   4.201   1.985  2.1060  0.2288  0.1996
 5084TIP3    H215217   0.540   4.239   1.871 -0.4005 -1.5131  1.5437
 5085TIP3   OH215218   3.330   3.717   3.917 -0.3877 -0.0744 -0.3420
 5085TIP3    H115219   3.411   3.753   3.955 -1.4644 -0.0509  2.1143
 5085TIP3    H215220   3.265   3.785   3.933 -1.8122 -1.8000  1.7155
 5086TIP3   OH215221   2.966   1.651   3.099  0.7915 -0.1053 -0.0723
 5086TIP3    H115222   2.952   1.618   3.010  1.0803  1.0266 -0.5482
 5086TIP3    H215223   3.060   1.639   3.115  0.9492  0.7246 -0.3515
 5087TIP3   OH215224   6.837   2.260   3.742 -0.4001  0.1401  0.4167
 5087TIP3    H115225   6.907   2.291   3.685 -0.0111 -1.2522  0.1054
 5087TIP3    H215226   6.836   2.322   3.815 -0.7736  1.8492 -0.9653
 5088TIP3   OH215227   2.914   2.100   3.806  0.2871 -0.7279 -0.1151
 5088TIP3    H115228   2.896   2.081   3.899  0.5090  0.8857  0.2754
 5088TIP3    H215229   2.827   2.103   3.766  0.1962 -1.5769 -0.0008
 5089TIP3   OH215230   3.199   3.153   5.750  0.3530 -0.1360  0.3378
 5089TIP3    H115231   3.176   3.246   5.756  1.0010  0.0538 -0.0106
 5089TIP3    H215232   3.191   3.120   5.839 -2.2283 -0.3333  0.1224
 5090TIP3   OH215233   1.448   5.917   4.694 -0.1124 -0.2523  0.3346
 5090TIP3    H115234   1.429   5.897   4.603 -0.6202 -0.0427  0.3898
 5090TIP3    H215235   1.486   5.837   4.730 -0.0543 -0.3827 -0.0237
 5091TIP3   OH215236   0.501   2.525   0.869 -0.1905  0.2959 -0.6787
 5091TIP3    H115237   0.424   2.476   0.840 -0.1470 -0.4126  0.3460
 5091TIP3    H215238   0.525   2.484   0.952  1.3314  0.4659 -1.0091
 5092TIP3   OH215239   5.965   0.562   4.177  0.6011  0.4611 -0.1019
 5092TIP3    H115240   5.960   0.644   4.128  0.4938  0.3476 -0.2813
 5092TIP3    H215241   6.056   0.557   4.206  0.3714  1.1336  0.7642
 5093TIP3   OH215242   5.514   1.935   5.521 -0.5615  0.1289 -0.1478
 5093TIP3    H115243   5.528   1.889   5.604 -1.2396 -1.4552 -0.8585
 5093TIP3    H215244   5.496   2.025   5.546  0.1716 -0.1171  1.3677
 5094TIP3   OH215245   6.381   3.166   5.346  0.1270 -0.6933 -0.2807
 5094TIP3    H115246   6.357   3.258   5.353  0.5395 -0.6305  0.3959
 5094TIP3    H215247   6.332   3.124   5.417  2.7357 -0.4009  1.8464
 5095TIP3   OH215248   1.644   6.673   0.749 -0.3498 -0.0775 -0.0135
 5095TIP3    H115249   1.700   6.615   0.699 -0.3259 -0.9090  0.9346
 5095TIP3    H215250   1.653   6.643   0.840 -0.0253  1.6648  0.5723
 5096TIP3   OH215251   6.187   3.215   1.457  0.1978  0.1026 -0.0032
 5096TIP3    H115252   6.194   3.263   1.374  1.3809 -0.8530 -0.4889
 5096TIP3    H215253   6.205   3.280   1.524 -0.2373  0.7723 -0.5215
 5097TIP3   OH215254   3.719   5.724   0.863 -0.3780  0.1233  0.2198
 5097TIP3    H115255   3.702   5.665   0.936 -0.2524 -0.0710  0.0934
 5097TIP3    H215256   3.691   5.676   0.785  1.7298 -0.6632 -0.1158
 5098TIP3   OH215257   5.141   5.484   2.029  0.1000  0.1616 -0.3475
 5098TIP3    H115258   5.079   5.513   1.963  0.4451  0.6731 -0.4529
 5098TIP3    H215259   5.168   5.397   2.000 -0.5603 -0.0681 -0.3003
 5099TIP3   OH215260   0.750   4.716   2.943 -0.0842 -0.5089 -0.2673
 5099TIP3    H115261   0.681   4.728   2.877  0.5912  0.7962 -0.7798
 5099TIP3    H215262   0.713   4.752   3.023 -0.0833 -0.0052 -0.4898
 5100TIP3   OH215263   1.878   2.648   5.451 -0.0770  0.4448  0.1159
 5100TIP3    H115264   1.842   2.561   5.462 -0.8795  0.5879 -1.2366
 5100TIP3    H215265   1.864   2.669   5.359  0.5115  1.8216  0.3114
 5101TIP3   OH215266   0.975   3.538   0.653  0.1585 -0.8325  0.5001
 5101TIP3    H115267   1.008   3.598   0.586  1.4999 -1.6820  0.3574
 5101TIP3    H215268   0.967   3.591   0.732  2.3989 -0.6664  0.6738
 5102TIP3   OH215269   2.551   5.513   1.663 -0.1387  0.3179 -0.2761
 5102TIP3    H115270   2.466   5.486   1.628 -0.1999  0.1371  0.0103
 5102TIP3    H215271   2.529   5.581   1.727 -0.2612 -1.1822  1.3588
 5103TIP3   OH215272   6.698   1.555   4.786  0.4153 -0.0561  0.2309
 5103TIP3    H115273   6.638   1.514   4.849  1.7159  0.5361  1.9120
 5103TIP3    H215274   6.771   1.494   4.780 -0.3456 -0.8516 -1.9333
 5104TIP3   OH215275   1.576   4.302   4.437  0.2194 -0.5907  0.3045
 5104TIP3    H115276   1.552   4.377   4.383  1.1901 -0.0618  0.5789
 5104TIP3    H215277   1.521   4.230   4.406 -0.3222  0.0971 -0.3381
 5105TIP3   OH215278   3.265   0.351   0.892 -0.0779 -0.3636  0.0299
 5105TIP3    H115279   3.347   0.327   0.850  0.0708 -0.3207  0.2933
 5105TIP3    H215280   3.204   0.364   0.820  0.6166  1.3962 -0.2886
 5106TIP3   OH215281   5.120   1.393   4.173  0.0743  0.4378  0.7255
 5106TIP3    H115282   5.114   1.366   4.081  0.5073 -1.2747  1.1675
 5106TIP3    H215283   5.147   1.485   4.169 -1.2051  0.7832 -0.8584
 5107TIP3   OH215284   1.699   3.377   2.626  0.0404 -0.5282  0.3631
 5107TIP3    H115285   1.604   3.389   2.628  0.2618  1.3582  0.9757
 5107TIP3    H215286   1.711   3.282   2.634 -1.8166 -1.0302 -1.7776
 5108TIP3   OH215287   4.573   1.472   2.190  0.1036 -0.0824 -0.3163
 5108TIP3    H115288   4.650   1.421   2.164 -1.2191 -2.4346  0.1581
 5108TIP3    H215289   4.601   1.519   2.268  0.6255 -2.2480  0.8839
 5109TIP3   OH215290   6.480   3.068   2.803 -0.3942  0.9621 -0.5532
 5109TIP3    H115291   6.525   2.986   2.785 -0.9578  0.1222  1.5392
 5109TIP3    H215292   6.529   3.107   2.876 -1.9676  0.8840  0.5936
 5110TIP3   OH215293   5.836   1.413   1.341  0.8196 -0.2165 -0.0273
 5110TIP3    H115294   5.882   1.430   1.259 -0.5459 -0.3441 -0.8520
 5110TIP3    H215295   5.815   1.319   1.337  0.3959 -0.1381  0.2778
 5111TIP3   OH215296   0.923   0.847   3.585 -0.1869 -0.0966 -0.4606
 5111TIP3    H115297   0.883   0.916   3.531  1.0213  1.1518  0.1579
 5111TIP3    H215298   0.988   0.807   3.528 -0.1136  0.0405 -0.4739
 5112TIP3   OH215299   6.329   2.811   4.079 -0.0298 -0.4376 -0.1382
 5112TIP3    H115300   6.249   2.857   4.106 -0.9018 -1.5666 -0.6882
 5112TIP3    H215301   6.334   2.735   4.137  0.1796 -0.8060 -0.6263
 5113TIP3   OH215302   0.672   5.773   2.654  0.2035  0.4669  0.6665
 5113TIP3    H115303   0.712   5.858   2.673 -0.7042  1.2633 -0.7899
 5113TIP3    H215304   0.744   5.722   2.616  0.0771  1.6641 -1.3218
 5114TIP3   OH215305   0.747   5.313   4.358  0.1757 -0.4908 -0.2069
 5114TIP3    H115306   0.793   5.290   4.278 -1.1435  1.1345 -1.5093
 5114TIP3    H215307   0.678   5.372   4.330 -1.1190 -0.8311  1.9856
 5115TIP3   OH215308   6.264   4.361   4.092 -0.2916  0.3023  0.6500
 5115TIP3    H115309   6.238   4.277   4.054 -0.0017  1.2736 -1.8877
 5115TIP3    H215310   6.359   4.365   4.081 -0.3915  1.2866 -0.0176
 5116TIP3   OH215311   2.513   6.424   3.228  0.4633 -0.5013 -0.0929
 5116TIP3    H115312   2.477   6.447   3.314  0.8211 -1.0122  0.2023
 5116TIP3    H215313   2.482   6.492   3.169  0.6245  0.1298  0.5432
 5117TIP3   OH215314   3.555   4.457   5.199 -0.3017  0.0391 -0.5380
 5117TIP3    H115315   3.629   4.444   5.257 -0.8382 -0.0624  0.1418
 5117TIP3    H215316   3.502   4.524   5.242  0.8733  2.3885 -2.4894
 5118TIP3   OH215317   0.469   0.232   3.423 -0.1614 -0.3710  0.0894
 5118TIP3    H115318   0.555   0.240   3.463 -0.2730 -0.6741  0.3895
 5118TIP3    H215319   0.410   0.277   3.483 -0.5683 -2.1105  1.0611
 5119TIP3   OH215320   2.027   1.517   4.513 -0.6680  0.3632  0.2291
 5119TIP3    H115321   1.994   1.568   4.587 -1.5311 -0.4271  0.4060
 5119TIP3    H215322   2.112   1.485   4.543  1.0912  3.6136 -0.7693
 5120TIP3   OH215323   5.084   1.691   1.417 -0.3974 -0.2412 -0.7508
 5120TIP3    H115324   5.087   1.726   1.328  0.6888  0.4527 -0.4661
 5120TIP3    H215325   5.132   1.608   1.411 -2.2828 -1.3566 -1.2573
 5121TIP3   OH215326   4.347   0.186   1.037  0.4375 -0.1463  0.4424
 5121TIP3    H115327   4.392   0.262   1.073 -0.0943  0.1194  0.5545
 5121TIP3    H215328   4.335   0.127   1.111  2.4020 -1.1390  0.0413
 5122TIP3   OH215329   0.437   6.357   5.741  0.1566  0.0357  0.0596
 5122TIP3    H115330   0.453   6.364   5.647  2.6496  3.3874  0.5594
 5122TIP3    H215331   0.361   6.412   5.756 -2.9079 -3.6357 -0.2688
 5123TIP3   OH215332   3.481   6.037   4.410 -0.3691 -0.0673  0.5914
 5123TIP3    H115333   3.396   6.080   4.413 -0.9459 -1.0852 -0.4192
 5123TIP3    H215334   3.543   6.108   4.395 -1.1118  0.6026  0.6292
 5124TIP3   OH215335   2.032   3.161   3.586  0.6522 -0.2826  0.2891
 5124TIP3    H115336   1.997   3.210   3.512 -0.1263 -0.8987  0.2401
 5124TIP3    H215337   1.988   3.198   3.662  0.7305 -0.3056  0.3460
 5125TIP3   OH215338   6.873   6.395   1.091 -0.2874  0.1368  0.1452
 5125TIP3    H115339   6.953   6.404   1.040 -0.8218  0.4123 -0.6676
 5125TIP3    H215340   6.886   6.316   1.144  1.2857  1.2263  1.4742
 5126TIP3   OH215341   0.423   1.592   4.956 -0.2318 -0.0758  0.3120
 5126TIP3    H115342   0.388   1.508   4.984 -0.3042 -0.6041 -1.2831
 5126TIP3    H215343   0.346   1.648   4.944 -0.3376 -0.3597 -0.3999
 5127TIP3   OH215344   5.584   2.660   0.744  0.4572  0.1478 -0.1390
 5127TIP3    H115345   5.506   2.641   0.692  0.2491  0.7951 -0.0666
 5127TIP3    H215346   5.656   2.620   0.694 -0.2969 -4.3147  1.8501
 5128TIP3   OH215347   3.431   5.413   1.503 -0.2020 -0.1876 -0.0655
 5128TIP3    H115348   3.476   5.437   1.584 -0.7148 -0.2310  0.2347
 5128TIP3    H215349   3.444   5.318   1.496  1.9688  0.1232 -1.3385
 5129TIP3   OH215350   3.842   1.189   0.177  0.4662 -0.1886  0.3268
 5129TIP3    H115351   3.876   1.265   0.224  0.4583 -1.3479  2.3217
 5129TIP3    H215352   3.882   1.195   0.090  2.5014  0.7249  1.2493
 5130TIP3   OH215353   7.068   5.607   4.423  0.1351  0.1780 -0.2459
 5130TIP3    H115354   7.092   5.548   4.495  0.7271  1.3066  0.5117
 5130TIP3    H215355   7.105   5.566   4.345 -0.5900 -1.1082  0.0643
 5131TIP3   OH215356   4.936   1.498   3.653  0.0636 -0.3616 -0.2100
 5131TIP3    H115357   4.906   1.440   3.723 -0.0141  0.3082  0.3248
 5131TIP3    H215358   4.908   1.455   3.573  1.1444 -1.7185  0.0992
 5132TIP3   OH215359   7.167   1.896   2.313  0.2539 -0.4384 -0.7384
 5132TIP3    H115360   7.212   1.868   2.393  0.4506 -1.5152 -1.2038
 5132TIP3    H215361   7.103   1.960   2.342  2.0318  1.1183 -0.0280
 5133TIP3   OH215362   1.086   2.660   4.523  0.1390 -0.2436  0.0436
 5133TIP3    H115363   1.052   2.687   4.609 -0.7575 -2.0740  0.3375
 5133TIP3    H215364   1.043   2.576   4.507  1.1657 -0.4762 -1.6961
 5134TIP3   OH215365   5.011   5.478   4.873  0.1234  0.9262 -0.0709
 5134TIP3    H115366   4.953   5.485   4.797 -0.6476  0.3489  0.4474
 5134TIP3    H215367   4.966   5.525   4.942 -0.0182 -0.0293  0.5002
 5135TIP3   OH215368   0.623   4.281   0.230 -0.0562 -0.0902  0.0126
 5135TIP3    H115369   0.680   4.258   0.304 -0.6962 -1.3786  0.1405
 5135TIP3    H215370   0.678   4.334   0.173  0.9440 -0.3972  0.6571
 5136TIP3   OH215371   2.086   3.855   1.571 -0.1571 -0.5650  0.2224
 5136TIP3    H115372   2.106   3.820   1.484 -0.9777  0.0492 -0.2268
 5136TIP3    H215373   2.019   3.796   1.606 -0.6889 -0.1402 -0.0580
 5137TIP3   OH215374   4.967   5.272   5.824  0.0410  0.0995 -0.4461
 5137TIP3    H115375   4.881   5.314   5.826  0.1276  0.3402  2.7531
 5137TIP3    H215376   5.027   5.339   5.856  1.0066 -0.8906 -0.1360
 5138TIP3   OH215377   1.697   5.938   4.234 -0.4180  0.1543  0.5714
 5138TIP3    H115378   1.745   5.870   4.281 -0.3563  0.0257  0.3243
 5138TIP3    H215379   1.766   5.995   4.199 -0.4464 -0.0322  0.2133
 5139TIP3   OH215380   6.782   4.491   0.493 -0.0041  0.3273 -0.3587
 5139TIP3    H115381   6.834   4.471   0.571 -0.3273 -0.5729 -0.3679
 5139TIP3    H215382   6.716   4.423   0.490  0.4660 -0.1001 -1.8319
 5140TIP3   OH215383   2.123   5.281   1.917  0.2950 -0.3602  0.1856
 5140TIP3    H115384   2.217   5.262   1.922  0.0143 -2.0132 -0.1601
 5140TIP3    H215385   2.101   5.318   2.003  1.5210  1.5286 -0.2499
 5141TIP3   OH215386   5.786   1.606   5.743 -0.2916  0.1672 -0.1241
 5141TIP3    H115387   5.802   1.534   5.682  0.5889  0.4500 -0.2441
 5141TIP3    H215388   5.873   1.641   5.762 -0.5964  0.3758  0.9463
 5142TIP3   OH215389   0.070   3.080   2.906 -0.2809  0.7300 -0.2804
 5142TIP3    H115390  -0.002   3.024   2.877 -0.9765  2.0875 -1.3585
 5142TIP3    H215391   0.138   3.068   2.840 -0.5517  1.3475 -0.6841
 5143TIP3   OH215392   2.115   4.530   2.529  0.1948  0.0054  0.3385
 5143TIP3    H115393   2.147   4.585   2.458 -0.7259  0.8307  0.5396
 5143TIP3    H215394   2.028   4.564   2.548 -0.1595 -1.1615  0.8651
 5144TIP3   OH215395   2.942   6.607   5.096 -0.2491 -0.1733 -0.1455
 5144TIP3    H115396   2.999   6.549   5.146  0.4034 -0.9144 -1.6697
 5144TIP3    H215397   2.910   6.553   5.023 -2.8655  0.2379  0.5821
 5145TIP3   OH215398   3.864   5.678   0.250  0.4901 -0.0264  0.3178
 5145TIP3    H115399   3.842   5.737   0.321  0.7089 -0.3187  0.6341
 5145TIP3    H215400   3.937   5.720   0.205  0.7157 -0.1033  0.6074
 5146TIP3   OH215401   5.259   4.687   1.540 -0.2631 -0.0466  0.0119
 5146TIP3    H115402   5.318   4.641   1.480  0.0550 -0.4910  0.6563
 5146TIP3    H215403   5.289   4.662   1.627 -1.2917 -0.1480  0.3567
 5147TIP3   OH215404   5.430   1.087   5.221 -0.2535 -0.0532 -0.0562
 5147TIP3    H115405   5.366   1.156   5.205 -1.3316 -1.4564 -2.3487
 5147TIP3    H215406   5.467   1.068   5.134  0.6970 -1.6842  0.6555
 5148TIP3   OH215407   6.178   6.081   3.377 -0.2747  0.1619 -0.5802
 5148TIP3    H115408   6.166   6.174   3.396 -0.1496  0.2197 -0.7776
 5148TIP3    H215409   6.147   6.036   3.456  0.1754  0.3914 -0.2669
 5149TIP3   OH215410   2.834   3.859   5.349  0.0258  0.3413 -0.1278
 5149TIP3    H115411   2.921   3.890   5.324  0.7725 -0.6253  1.1563
 5149TIP3    H215412   2.835   3.765   5.330 -0.2421  0.0587  1.1567
 5150TIP3   OH215413   6.601   0.370   2.171  0.5570 -0.3285  0.4206
 5150TIP3    H115414   6.645   0.453   2.190 -1.0788  1.1022 -1.5688
 5150TIP3    H215415   6.507   0.392   2.172  0.1546 -1.5050 -2.5202
 5151TIP3   OH215416   7.049   4.929   3.431  0.0098 -0.7338 -0.1991
 5151TIP3    H115417   7.049   4.853   3.373  1.8127 -1.4954  0.7203
 5151TIP3    H215418   7.023   4.894   3.516 -0.4528 -0.0534 -0.0558
 5152TIP3   OH215419   7.153   1.395   3.406  0.5856 -0.4055  0.4223
 5152TIP3    H115420   7.096   1.469   3.388  1.5430 -0.3271 -3.0806
 5152TIP3    H215421   7.221   1.429   3.464 -0.6529  0.5506  1.3616
 5153TIP3   OH215422   1.279   2.666   2.488 -0.6762 -0.3749  0.2553
 5153TIP3    H115423   1.242   2.663   2.576  0.2132  0.2694  0.6764
 5153TIP3    H215424   1.373   2.677   2.502 -0.6777  1.5703 -0.7468
 5154TIP3   OH215425   0.825   0.912   5.060  0.6706  0.1231  0.2307
 5154TIP3    H115426   0.842   0.937   5.151 -0.7358  0.0646  0.5307
 5154TIP3    H215427   0.775   0.831   5.066 -2.7678  1.9974 -0.3808
 5155TIP3   OH215428   7.223   5.310   0.094  0.5986  0.4612 -0.4265
 5155TIP3    H115429   7.242   5.223   0.129 -0.5778  0.1271 -0.5756
 5155TIP3    H215430   7.128   5.317   0.100  0.2522  0.2533 -3.8570
 5156TIP3   OH215431   1.400   6.080   4.941  0.5196  0.0810  0.0664
 5156TIP3    H115432   1.440   6.044   4.862  1.1510 -2.7664  1.5240
 5156TIP3    H215433   1.306   6.074   4.926  0.5755 -2.5531  0.2523
 5157TIP3   OH215434   4.908   1.502   5.333 -0.2344  0.1861 -0.1513
 5157TIP3    H115435   4.978   1.497   5.268  0.5896  0.9044  0.6450
 5157TIP3    H215436   4.951   1.479   5.416 -1.2157 -0.5064  0.1777
 5158TIP3   OH215437   5.383   5.347   5.775  0.4264 -0.3387  0.1892
 5158TIP3    H115438   5.323   5.274   5.793 -0.2694  0.1633 -0.0819
 5158TIP3    H215439   5.326   5.422   5.760  1.1558  0.7057  2.2040
 5159TIP3   OH215440   3.798   2.073   4.597  0.0785 -0.3818 -0.2754
 5159TIP3    H115441   3.798   1.979   4.577  2.7000 -0.7290  0.9485
 5159TIP3    H215442   3.878   2.106   4.557 -0.6376  1.2962 -0.4055
 5160TIP3   OH215443   5.928   5.241   4.811 -0.0377 -0.3036  0.0909
 5160TIP3    H115444   6.001   5.199   4.764 -0.5448 -0.1054 -0.9084
 5160TIP3    H215445   5.960   5.251   4.901  0.9849 -0.6600 -0.2137
 5161TIP3   OH215446   6.183   5.916   2.247  0.1935 -0.2419  0.3972
 5161TIP3    H115447   6.170   5.965   2.328  0.0369 -2.0072  1.4946
 5161TIP3    H215448   6.113   5.850   2.247  0.2246 -0.3211 -1.1535
 5162TIP3   OH215449   4.716   5.593   4.377 -0.1548 -0.4893 -0.2185
 5162TIP3    H115450   4.689   5.597   4.285  0.9435  1.1165 -0.5089
 5162TIP3    H215451   4.657   5.653   4.421 -0.6835 -1.2636  0.1440
 5163TIP3   OH215452   1.685   0.645   4.428  0.0504  0.1959 -0.0319
 5163TIP3    H115453   1.650   0.721   4.381  0.4553  0.8535  0.7160
 5163TIP3    H215454   1.731   0.682   4.503  0.9104 -0.7501 -0.0723
 5164TIP3   OH215455   2.667   1.175   1.135  0.1657  1.0444  0.6358
 5164TIP3    H115456   2.680   1.268   1.118  0.4316  1.3308  2.1786
 5164TIP3    H215457   2.755   1.141   1.151  0.0231  0.6468  0.5890
 5165TIP3   OH215458   4.906   4.509   4.346 -0.1724  0.5654  0.7220
 5165TIP3    H115459   4.942   4.501   4.257 -0.7307 -0.0650  0.5434
 5165TIP3    H215460   4.911   4.603   4.365 -1.0653  0.8714 -0.4206
 5166TIP3   OH215461   2.794   4.689   5.596  0.7081 -0.4920 -0.1589
 5166TIP3    H115462   2.709   4.701   5.639 -0.6946  0.4437 -2.9152
 5166TIP3    H215463   2.772   4.674   5.504  3.5553  0.9677 -1.2001
 5167TIP3   OH215464   3.446   0.685   4.523  0.2569 -0.0619 -0.1772
 5167TIP3    H115465   3.367   0.684   4.469  0.4135  1.2018 -0.4545
 5167TIP3    H215466   3.438   0.764   4.576  1.5042  0.2970 -0.4806
 5168TIP3   OH215467   1.404   4.823   0.323 -0.2555 -0.1955 -0.4727
 5168TIP3    H115468   1.429   4.877   0.398 -1.6251 -3.2741  2.4594
 5168TIP3    H215469   1.486   4.788   0.289  0.4849  2.1709 -1.3114
 5169TIP3   OH215470   4.741   3.803   4.111 -0.0621  0.6406  0.1380
 5169TIP3    H115471   4.647   3.784   4.106  0.4797 -2.4097 -0.6266
 5169TIP3    H215472   4.763   3.837   4.024 -0.3567  0.8874  0.1569
 5170TIP3   OH215473   6.995   3.613   2.740  0.3730  0.1424  0.3674
 5170TIP3    H115474   6.938   3.559   2.686  0.3872  2.8313 -2.6412
 5170TIP3    H215475   6.961   3.603   2.829 -2.7426 -0.8643 -0.8000
 5171TIP3   OH215476   0.859   1.916   2.121  0.2908 -0.2533 -0.1690
 5171TIP3    H115477   0.899   1.880   2.041  1.1503  0.3118 -0.0112
 5171TIP3    H215478   0.781   1.963   2.090  0.7144  0.1076 -0.7027
 5172TIP3   OH215479   5.993   1.586   0.544 -0.2620 -0.5942  0.1417
 5172TIP3    H115480   5.944   1.546   0.615 -0.3145  1.4617  1.3630
 5172TIP3    H215481   5.947   1.559   0.464 -0.4906 -2.5461  0.8963
 5173TIP3   OH215482   0.272   4.879  -0.008 -0.0212 -0.2138  0.0427
 5173TIP3    H115483   0.196   4.925   0.028 -0.4771 -0.6480 -0.3461
 5173TIP3    H215484   0.347   4.932   0.020 -0.4138 -0.1182  0.9607
 5174TIP3   OH215485   1.888   6.114   4.132  0.5007 -0.3320  0.5468
 5174TIP3    H115486   1.942   6.189   4.108  1.6579 -0.9566  1.1467
 5174TIP3    H215487   1.913   6.045   4.072 -0.1918 -0.4086  0.3340
 5175TIP3   OH215488   0.839   2.828   5.262 -0.5125  0.0870  0.1715
 5175TIP3    H115489   0.752   2.800   5.234 -0.6698  1.0270 -0.3130
 5175TIP3    H215490   0.885   2.747   5.282 -1.5049 -0.4234  0.4597
 5176TIP3   OH215491   6.126   0.874   5.212  0.2310 -0.3992 -0.3320
 5176TIP3    H115492   6.112   0.944   5.275  0.0466 -1.5377  0.9331
 5176TIP3    H215493   6.056   0.811   5.230  0.5325 -1.0254 -1.2782
 5177TIP3   OH215494   2.438   3.330   4.703 -0.4304  0.1206 -0.0054
 5177TIP3    H115495   2.514   3.302   4.754 -0.8701 -0.0870  0.5509
 5177TIP3    H215496   2.362   3.297   4.753 -0.8982  0.7608 -0.2767
 5178TIP3   OH215497   2.790   6.060   3.067 -0.1855  0.2023  0.0752
 5178TIP3    H115498   2.860   6.061   3.002 -0.0449  0.4928  0.2283
 5178TIP3    H215499   2.770   6.153   3.081  0.5146  0.1841  1.2415
 5179TIP3   OH215500   1.131   0.260   4.224  0.3665 -0.2207  0.4023
 5179TIP3    H115501   1.072   0.201   4.271  0.6700 -0.5372  0.3875
 5179TIP3    H215502   1.094   0.347   4.239  0.3747 -0.3304  1.1072
 5180TIP3   OH215503   3.673   3.968   1.772  0.4397 -0.1026 -0.2014
 5180TIP3    H115504   3.703   4.054   1.803  1.9756 -0.8192  0.3943
 5180TIP3    H215505   3.718   3.957   1.689  0.0437 -0.2375 -0.3989
 5181TIP3   OH215506   5.670   5.558   0.160 -0.4487 -0.3058  0.0937
 5181TIP3    H115507   5.624   5.640   0.180  0.9785  0.9626 -1.4835
 5181TIP3    H215508   5.640   5.496   0.226  0.2696  2.1489  2.8996
 5182TIP3   OH215509   0.134   4.182   3.011 -0.0711 -0.2231  0.3976
 5182TIP3    H115510   0.170   4.109   2.960  0.5415 -0.0303  0.5480
 5182TIP3    H215511   0.123   4.252   2.946  0.0700 -0.1999  0.3970
 5183TIP3   OH215512   2.951   4.362   4.090 -0.1731  0.1251 -0.2520
 5183TIP3    H115513   2.976   4.447   4.127  0.8220 -0.6041  0.7960
 5183TIP3    H215514   2.860   4.374   4.062 -0.4123  1.2024  0.9144
 5184TIP3   OH215515   4.861   0.241   2.782 -0.3463  0.2561 -0.5125
 5184TIP3    H115516   4.840   0.171   2.721  2.2627  0.2780 -1.5812
 5184TIP3    H215517   4.786   0.246   2.840 -2.3060 -0.7934 -2.7730
 5185TIP3   OH215518   3.216   4.667   2.499 -0.2863  0.1748 -0.3816
 5185TIP3    H115519   3.153   4.730   2.533 -0.3243  0.1138 -0.3369
 5185TIP3    H215520   3.179   4.639   2.415  0.6847  1.6475 -1.3413
 5186TIP3   OH215521   1.836   2.914   2.289 -0.2279  0.0555  0.1808
 5186TIP3    H115522   1.882   2.915   2.205  1.5574 -0.6371  1.0902
 5186TIP3    H215523   1.890   2.858   2.345 -0.4485  1.8013  2.2797
 5187TIP3   OH215524   3.426   4.621   0.036 -0.3940 -0.1500  0.8769
 5187TIP3    H115525   3.462   4.651   0.120  3.2377  0.4218 -0.7008
 5187TIP3    H215526   3.413   4.527   0.049 -1.4021  0.1736  2.5140
 5188TIP3   OH215527   6.540   1.402   4.215 -0.3848 -0.2335  0.5926
 5188TIP3    H115528   6.535   1.313   4.182  0.2114 -0.3892  0.9017
 5188TIP3    H215529   6.562   1.455   4.138 -1.8973 -0.1729  0.1704
 5189TIP3   OH215530   0.521   0.043   2.730  0.2064  0.1499  0.5314
 5189TIP3    H115531   0.590   0.108   2.737  0.0127  0.3224  0.8411
 5189TIP3    H215532   0.541  -0.023   2.796  0.0024  0.2680  0.7125
 5190TIP3   OH215533   4.942   0.021   2.086  0.0589 -0.5810  0.1432
 5190TIP3    H115534   5.022  -0.018   2.051  0.9464 -0.6023  2.0610
 5190TIP3    H215535   4.939   0.109   2.049  0.5277 -0.8577 -0.5669
 5191TIP3   OH215536   1.599   0.331   5.749  0.0867 -0.1305 -0.5247
 5191TIP3    H115537   1.645   0.256   5.786 -0.3798  0.2139  0.8263
 5191TIP3    H215538   1.509   0.302   5.741  0.1833 -0.1973 -1.4172
 5192TIP3   OH215539   6.823   4.411   0.198  0.3733  0.1402  0.7756
 5192TIP3    H115540   6.762   4.339   0.182  0.6302  0.2164 -0.7334
 5192TIP3    H215541   6.830   4.417   0.293  0.5556 -2.0143  0.9396
 5193TIP3   OH215542   6.344   6.459   4.568 -0.2787 -0.0829  0.0329
 5193TIP3    H115543   6.250   6.478   4.572 -0.3861 -0.1553 -1.5394
 5193TIP3    H215544   6.376   6.511   4.494  0.9279 -0.0796  0.5279
 5194TIP3   OH215545   6.803   1.015   0.786  0.0008  0.8311 -0.1968
 5194TIP3    H115546   6.805   0.920   0.777 -0.6597  0.7820  0.0436
 5194TIP3    H215547   6.839   1.048   0.704  0.3128  0.3724 -0.2491
 5195TIP3   OH215548   3.558   3.916   3.654 -0.1977  0.0642  0.2384
 5195TIP3    H115549   3.501   3.976   3.702 -0.4065  0.0563  0.0053
 5195TIP3    H215550   3.506   3.891   3.577 -0.4510 -1.0915  0.7785
 5196TIP3   OH215551   0.877   3.800   3.766  0.5742 -0.6691 -0.5216
 5196TIP3    H115552   0.792   3.768   3.795  1.0902 -1.2557  0.3857
 5196TIP3    H215553   0.905   3.737   3.700  1.1602 -1.5904  0.5751
 5197TIP3   OH215554   3.846   4.989   0.067  0.2912 -0.1390  0.0003
 5197TIP3    H115555   3.934   5.017   0.041  1.0075 -0.4965  1.8900
 5197TIP3    H215556   3.794   5.069   0.065  0.9944  0.3337  0.1593
 5198TIP3   OH215557   0.267   6.622   3.871 -0.2818 -0.0074  0.0178
 5198TIP3    H115558   0.200   6.649   3.934 -0.3888 -0.5410  0.1421
 5198TIP3    H215559   0.335   6.689   3.877  0.0171 -0.3945  1.1991
 5199TIP3   OH215560   2.459   3.144   2.044 -0.0446  0.6471 -0.2358
 5199TIP3    H115561   2.433   3.098   2.124  0.1856  1.2129  0.1686
 5199TIP3    H215562   2.378   3.185   2.012 -1.1027 -2.7249 -2.4803
 5200TIP3   OH215563   1.056   4.756   2.334  0.0048 -0.1305 -0.4264
 5200TIP3    H115564   1.149   4.776   2.346  0.4757 -2.8874  1.5346
 5200TIP3    H215565   1.014   4.791   2.412 -0.4310  0.1654 -0.7941
 5201TIP3   OH215566   3.892   5.202   2.641 -0.3924 -0.2496 -0.3754
 5201TIP3    H115567   3.968   5.209   2.699  0.2059 -3.3536 -0.5863
 5201TIP3    H215568   3.905   5.120   2.594 -3.0805 -0.0607 -1.6552
 5202TIP3   OH215569   5.908   3.388   2.113 -0.8516  0.1133  0.5536
 5202TIP3    H115570   5.989   3.366   2.159  0.0642 -0.5805 -1.3009
 5202TIP3    H215571   5.863   3.304   2.102 -0.2803  0.0166 -1.1980
 5203TIP3   OH215572   0.876   4.021   1.477  0.8542  0.5486  1.1201
 5203TIP3    H115573   0.784   4.018   1.451  1.2143  1.6024 -0.3899
 5203TIP3    H215574   0.879   3.974   1.561 -1.0438  0.5041  1.1970
 5204TIP3   OH215575   0.763   5.708   5.785 -0.6416  0.5470 -0.5029
 5204TIP3    H115576   0.771   5.796   5.823 -1.1030 -0.7072  2.8609
 5204TIP3    H215577   0.830   5.656   5.830 -0.7000 -0.9553 -2.0593
 5205TIP3   OH215578   3.343   2.097   2.381 -0.3477 -0.1565  0.1030
 5205TIP3    H115579   3.258   2.140   2.377 -0.6674 -0.6020  1.4542
 5205TIP3    H215580   3.337   2.024   2.320 -0.9501 -0.1917  0.2035
 5206TIP3   OH215581   0.752   0.654   0.872 -0.2646  0.1828  0.6691
 5206TIP3    H115582   0.779   0.568   0.839  1.6183  0.3387  1.6283
 5206TIP3    H215583   0.825   0.712   0.850 -1.2993  1.4482  0.4504
 5207TIP3   OH215584   5.943   4.215   0.026  0.1076 -0.9980  0.0405
 5207TIP3    H115585   5.968   4.136  -0.023 -2.6968 -1.5827 -0.6436
 5207TIP3    H215586   5.852   4.229   0.002 -0.0599  1.3010  1.7603
 5208TIP3   OH215587   4.600   2.398   1.791 -0.5860  0.5686  0.2175
 5208TIP3    H115588   4.682   2.443   1.769 -1.3268  2.5338  1.1774
 5208TIP3    H215589   4.602   2.389   1.886 -2.2764  2.4974  0.5194
 5209TIP3   OH215590   3.509   5.942   4.997 -0.3027 -0.0296 -0.1298
 5209TIP3    H115591   3.560   6.022   4.983 -1.5691  1.1517  1.6154
 5209TIP3    H215592   3.492   5.909   4.909  1.4059  0.8464 -0.8375
 5210TIP3   OH215593   1.171   3.182   2.283  0.0419  0.3117 -0.0399
 5210TIP3    H115594   1.081   3.148   2.282  0.0152  0.2466  1.7478
 5210TIP3    H215595   1.168   3.254   2.346  1.2261  0.3749 -0.0449
 5211TIP3   OH215596   4.662   4.242   2.987  0.2324 -0.2480  0.1642
 5211TIP3    H115597   4.678   4.249   2.893 -0.1956  0.0861  0.1090
 5211TIP3    H215598   4.747   4.255   3.028  0.2773  0.5044 -0.1485
 5212TIP3   OH215599   2.969   2.073   5.583  0.0915  0.1947 -0.3730
 5212TIP3    H115600   2.923   2.019   5.647 -1.0615  0.0853 -1.2501
 5212TIP3    H215601   3.018   2.009   5.530 -0.3758  0.0945 -0.6989
 5213TIP3   OH215602   1.655   5.662   4.620  0.8374 -0.2314  0.2196
 5213TIP3    H115603   1.733   5.716   4.604  0.9531 -0.7537 -1.0934
 5213TIP3    H215604   1.670   5.623   4.706  1.2133  1.0222  0.7601
 5214TIP3   OH215605   6.800   3.072   3.798  0.2589 -0.0175  0.0891
 5214TIP3    H115606   6.786   2.978   3.791 -2.7332  0.3936 -0.7398
 5214TIP3    H215607   6.894   3.084   3.784  0.9052 -2.9280  1.2706
 5215TIP3   OH215608   0.979   2.405   4.496 -0.6652 -0.0130  0.3664
 5215TIP3    H115609   0.903   2.435   4.447  1.2087 -0.2229 -3.0030
 5215TIP3    H215610   1.038   2.371   4.429  2.0530 -0.6300  2.8822
 5216TIP3   OH215611   3.748   2.029   1.967 -0.1258 -0.1218 -0.1920
 5216TIP3    H115612   3.710   1.945   1.942  0.8192 -0.2325 -1.3753
 5216TIP3    H215613   3.719   2.090   1.898 -0.0007  0.2956  0.1167
 5217TIP3   OH215614   0.038   6.444   5.122  0.5357  0.2000 -0.0168
 5217TIP3    H115615   0.105   6.509   5.102  0.7862 -0.4119 -1.2400
 5217TIP3    H215616   0.081   6.383   5.181  0.2517  1.1940  1.2705
 5218TIP3   OH215617   2.881   5.460   4.883 -0.6352 -0.1177 -0.5643
 5218TIP3    H115618   2.876   5.495   4.794 -2.4894  0.6349 -0.2186
 5218TIP3    H215619   2.909   5.535   4.936 -0.6921 -0.2493 -0.3493
 5219TIP3   OH215620   2.138   5.697   4.371 -0.8056  0.1740  0.0746
 5219TIP3    H115621   2.143   5.675   4.464  2.6385  0.7759  0.1372
 5219TIP3    H215622   2.107   5.616   4.329 -3.5470  0.2179  1.7151
 5220TIP3   OH215623   1.081   5.897   1.592  0.4175  0.2576 -0.0743
 5220TIP3    H115624   1.024   5.901   1.516 -1.2880 -2.6218  0.9002
 5220TIP3    H215625   1.032   5.939   1.662 -1.1545 -2.9802  0.9887
 5221TIP3   OH215626   4.894   3.805   3.560 -0.0581 -0.0241  0.3569
 5221TIP3    H115627   4.970   3.783   3.506 -0.4257 -0.3897 -0.0253
 5221TIP3    H215628   4.930   3.825   3.646  0.6819  1.9265 -0.3482
 5222TIP3   OH215629   6.542   4.219   3.286 -0.1118 -0.6127 -0.0743
 5222TIP3    H115630   6.573   4.309   3.299  1.3567 -1.0202 -0.5902
 5222TIP3    H215631   6.500   4.196   3.369 -0.3905  0.4976  0.1114
 5223TIP3   OH215632   3.431   4.319   4.339  0.1767  0.2168 -0.2001
 5223TIP3    H115633   3.434   4.363   4.425 -1.3359  0.5437 -0.2979
 5223TIP3    H215634   3.376   4.375   4.285  1.5269  0.2768 -1.5666
 5224TIP3   OH215635   5.277   3.761   2.966  0.0142 -0.3042  0.5120
 5224TIP3    H115636   5.321   3.830   3.016 -1.3642 -0.6240  2.2454
 5224TIP3    H215637   5.340   3.689   2.965  1.3992  0.8500 -1.1681
 5225TIP3   OH215638   3.761   3.525   0.589 -0.4563 -0.0051  0.1509
 5225TIP3    H115639   3.692   3.555   0.648 -0.0906  0.7797  0.1921
 5225TIP3    H215640   3.714   3.489   0.514 -0.9228  1.1619 -0.1390
 5226TIP3   OH215641   0.905   4.924   1.222 -0.2541  0.0582 -0.5329
 5226TIP3    H115642   0.995   4.950   1.240  0.1292 -1.7612  0.3730
 5226TIP3    H215643   0.859   5.007   1.208  1.1966  1.1175  0.5954
 5227TIP3   OH215644   1.507   0.451   4.328 -0.1741  0.4304  0.0376
 5227TIP3    H115645   1.574   0.514   4.356 -0.1180 -0.2034  1.4381
 5227TIP3    H215646   1.453   0.499   4.266  1.6888  0.9059 -1.2972
 5228TIP3   OH215647   0.949   1.213   3.609 -0.0408 -0.2928 -0.4295
 5228TIP3    H115648   0.973   1.177   3.695  0.2607  1.9389  0.4889
 5228TIP3    H215649   1.007   1.168   3.547  1.8450  0.1678  0.9221
 5229TIP3   OH215650   0.440   3.071   2.955 -0.5578 -0.1201  0.0791
 5229TIP3    H115651   0.448   3.144   3.017 -0.4475  0.7785 -0.9667
 5229TIP3    H215652   0.525   3.027   2.958 -0.2996  0.3711  0.0203
 5230TIP3   OH215653   4.023   2.338   3.917 -0.0542  0.0189  0.6997
 5230TIP3    H115654   4.046   2.412   3.973  0.1256  1.2960 -0.9768
 5230TIP3    H215655   3.966   2.377   3.850  1.0881 -1.0915 -0.9674
 5231TIP3   OH215656   0.515   5.411   2.682 -0.3123  0.5237 -0.0461
 5231TIP3    H115657   0.479   5.368   2.759  0.3295  0.7241  0.3779
 5231TIP3    H215658   0.439   5.429   2.627 -0.6969 -0.2626  0.2104
 5232TIP3   OH215659   5.002   0.948   0.546 -0.3183  0.6313  0.1351
 5232TIP3    H115660   4.949   0.876   0.511 -0.2601  1.4280 -1.7393
 5232TIP3    H215661   4.956   1.027   0.518  1.1898  1.3339 -0.4800
 5233TIP3   OH215662   4.290   5.868   4.618  0.1342  0.0864 -0.3679
 5233TIP3    H115663   4.230   5.796   4.601  0.2480 -0.2047  0.4191
 5233TIP3    H215664   4.268   5.934   4.553 -2.1012  0.6257  0.8482
 5234TIP3   OH215665   4.538   5.081   1.391 -0.2961  0.0210 -0.2972
 5234TIP3    H115666   4.551   5.154   1.331  0.4555  2.2059  2.3286
 5234TIP3    H215667   4.444   5.066   1.392 -0.6893  2.2547  0.4562
 5235TIP3   OH215668   6.956   5.807   1.250  0.0820 -1.0304 -0.0151
 5235TIP3    H115669   7.023   5.869   1.279 -0.2467  0.0016 -1.3595
 5235TIP3    H215670   6.927   5.763   1.331  0.9623 -0.0767  0.8430
 5236TIP3   OH215671   6.043   3.726   5.850  0.4531 -0.9261 -0.0507
 5236TIP3    H115672   5.997   3.735   5.933  1.1119 -0.7286  0.3022
 5236TIP3    H215673   6.132   3.701   5.875  1.2869  1.3146 -0.5538
 5237TIP3   OH215674   2.148   5.224   3.040 -0.0617  0.1616  0.2705
 5237TIP3    H115675   2.159   5.313   3.005  0.1237  0.3370  0.7728
 5237TIP3    H215676   2.096   5.236   3.119  0.1866 -0.1506  0.4816
 5238TIP3   OH215677   1.833   2.719   4.029 -0.4279  0.0705  0.2334
 5238TIP3    H115678   1.923   2.715   3.995 -0.9489  0.7093 -1.3305
 5238TIP3    H215679   1.808   2.627   4.039  0.4266 -0.1179  0.8013
 5239TIP3   OH215680   1.136   1.925   0.337  0.4116  0.1316 -0.5067
 5239TIP3    H115681   1.060   1.896   0.286 -1.0079  0.7743  1.1514
 5239TIP3    H215682   1.173   1.844   0.373 -0.0497 -0.1048 -0.5606
 5240TIP3   OH215683   0.592   0.985   3.491 -0.1042 -0.1512  0.5589
 5240TIP3    H115684   0.599   1.038   3.571  1.5300 -2.7380  2.2974
 5240TIP3    H215685   0.604   0.895   3.521 -2.2806 -1.5427 -2.2902
 5241TIP3   OH215686   3.835   5.799   3.470 -0.4229  0.0014 -0.1027
 5241TIP3    H115687   3.862   5.822   3.559 -1.8830  0.9035  0.1373
 5241TIP3    H215688   3.864   5.873   3.416 -0.4565 -0.0606 -0.2058
 5242TIP3   OH215689   0.788   2.569   4.341 -0.1644 -0.2833  0.1984
 5242TIP3    H115690   0.757   2.659   4.351  0.6820  0.0666 -0.2292
 5242TIP3    H215691   0.715   2.515   4.373 -0.1156  0.5757  1.9075
 5243TIP3   OH215692   4.206   3.503   5.603  0.1855  0.6212 -0.0359
 5243TIP3    H115693   4.278   3.528   5.545  0.8253 -1.2191 -0.0913
 5243TIP3    H215694   4.154   3.441   5.552 -0.4239  0.5573  0.6468
 5244TIP3   OH215695   1.450   2.999   4.236  0.1037  0.1090  0.0092
 5244TIP3    H115696   1.509   2.977   4.165 -0.9923 -0.6279 -0.7009
 5244TIP3    H215697   1.369   3.026   4.193  0.1010  1.7197  0.9415
 5245TIP3   OH215698   5.256   2.953   3.830  0.8426 -0.2856 -0.1586
 5245TIP3    H115699   5.269   2.883   3.766  0.7834  0.3803 -0.9135
 5245TIP3    H215700   5.173   2.993   3.804  0.8888  0.0768  0.2555
 5246TIP3   OH215701   1.524   6.032   1.432  0.1770 -0.0821  0.4781
 5246TIP3    H115702   1.543   6.109   1.485 -1.6943  1.7016 -1.2356
 5246TIP3    H215703   1.605   6.016   1.383 -0.0845  2.3998 -0.9335
 5247TIP3   OH215704   0.042   4.488   5.538 -0.2246  0.2600  0.2136
 5247TIP3    H115705   0.014   4.397   5.546  0.4490  0.0019 -0.2051
 5247TIP3    H215706   0.085   4.492   5.452 -0.6909  1.0979  0.0041
 5248TIP3   OH215707   6.442   6.673   0.906 -0.1331  0.1343 -0.3227
 5248TIP3    H115708   6.457   6.756   0.860  1.5462  0.7495  1.1882
 5248TIP3    H215709   6.379   6.626   0.851 -1.3308  2.4803 -1.1315
 5249TIP3   OH215710   4.870   0.185   5.692  0.3342 -0.0560  0.5903
 5249TIP3    H115711   4.841   0.095   5.677  0.7837 -0.0807 -0.2035
 5249TIP3    H215712   4.962   0.184   5.666  0.0017  0.9386 -0.7235
 5250TIP3   OH215713   4.833   2.850   2.585  0.0795  0.6618  0.0080
 5250TIP3    H115714   4.747   2.809   2.574  0.5864 -0.0343 -1.8758
 5250TIP3    H215715   4.834   2.882   2.675 -1.7872 -0.1414  0.3560
 5251TIP3   OH215716   5.370   3.376   2.669 -0.0384 -0.1180  0.3689
 5251TIP3    H115717   5.451   3.359   2.718  0.7015 -0.5815 -0.9542
 5251TIP3    H215718   5.392   3.354   2.579 -1.8910 -1.0743  0.0960
 5252TIP3   OH215719   2.026   2.605   3.595  0.0340 -0.2504 -0.1628
 5252TIP3    H115720   2.011   2.698   3.609  0.0882 -0.0798 -1.1422
 5252TIP3    H215721   2.020   2.594   3.500 -0.4748 -1.3375 -0.0182
 5253TIP3   OH215722   3.027   4.742   1.236 -0.2508 -0.2191 -0.2248
 5253TIP3    H115723   3.098   4.683   1.211  0.0881 -0.3197  0.9211
 5253TIP3    H215724   3.066   4.829   1.232 -0.1667 -0.2436  0.0469
 5254TIP3   OH215725   7.014   5.084   5.625  0.3650  0.3164  0.4932
 5254TIP3    H115726   6.931   5.113   5.587  1.0651  1.6732 -0.0725
 5254TIP3    H215727   7.025   4.995   5.592 -0.9405  0.0373  0.7255
 5255TIP3   OH215728   1.108   0.099   1.636 -0.2691 -0.4856  0.3496
 5255TIP3    H115729   1.054   0.083   1.714  0.1682 -0.2377  0.7136
 5255TIP3    H215730   1.063   0.170   1.590 -0.2493 -0.2704  0.6579
 5256TIP3   OH215731   0.222   3.074   0.898  0.1266  0.5447 -0.2230
 5256TIP3    H115732   0.202   3.057   0.990  0.0915 -0.0142 -0.3282
 5256TIP3    H215733   0.250   3.166   0.895 -1.7525  1.1571  0.0257
 5257TIP3   OH215734   0.763   1.061   3.024 -0.4093  0.5920  0.3349
 5257TIP3    H115735   0.705   1.002   3.073  0.0915  0.4069  0.7217
 5257TIP3    H215736   0.848   1.050   3.066  0.0685  0.3249 -0.6789
 5258TIP3   OH215737   6.529   5.693   2.889  0.2416  0.1602  0.5845
 5258TIP3    H115738   6.565   5.654   2.809 -0.9699  0.0560  0.0716
 5258TIP3    H215739   6.435   5.696   2.874 -0.0921 -0.5574  2.3280
 5259TIP3   OH215740   6.956   0.084   0.300 -0.2384  0.5173 -0.1090
 5259TIP3    H115741   6.930   0.168   0.338 -1.7103 -0.1241  0.3832
 5259TIP3    H215742   6.874   0.034   0.296  0.4563 -0.5676 -1.2304
 5260TIP3   OH215743   4.890   5.435   1.449 -0.0323  0.0367  0.0170
 5260TIP3    H115744   4.886   5.530   1.434  2.4331  0.6538  2.4158
 5260TIP3    H215745   4.978   5.410   1.422 -0.5843 -1.5617 -0.4081
 5261TIP3   OH215746   7.074   5.605   0.063 -0.0517 -0.2169  0.4546
 5261TIP3    H115747   7.141   5.597   0.132  0.4846  0.3837  0.0156
 5261TIP3    H215748   7.113   5.665  -0.001 -0.1450 -1.4831 -0.8417
 5262TIP3   OH215749   6.698   1.235   2.422  0.0151  0.2531  0.1841
 5262TIP3    H115750   6.780   1.230   2.472 -0.4552 -0.6427  0.8880
 5262TIP3    H215751   6.704   1.164   2.358 -0.1480  0.2878  0.1291
 5263TIP3   OH215752   5.087   6.524   0.784 -0.0678  0.1264  0.4509
 5263TIP3    H115753   5.069   6.453   0.723 -0.4775 -0.6369  1.4435
 5263TIP3    H215754   5.047   6.601   0.743 -1.1404 -0.5526  0.1877
 5264TIP3   OH215755   0.206   4.011   3.212 -0.1543 -0.2972 -0.1506
 5264TIP3    H115756   0.194   4.096   3.169  1.1503 -0.5191 -1.0260
 5264TIP3    H215757   0.234   3.953   3.141  1.3887 -0.8444  0.8661
 5265TIP3   OH215758   7.091   0.686   2.966  0.3299  0.2894  0.7238
 5265TIP3    H115759   7.026   0.707   2.899  0.4722  0.0900  0.5239
 5265TIP3    H215760   7.041   0.643   3.035  0.0009  1.4170  1.2155
 5266TIP3   OH215761   0.440   3.097   2.681 -0.0433 -0.8797 -0.3376
 5266TIP3    H115762   0.456   3.120   2.773 -0.9985 -1.2499 -0.0651
 5266TIP3    H215763   0.352   3.059   2.681 -0.6367  0.4162 -1.6450
 5267TIP3   OH215764   0.938   4.165   0.964 -0.4150 -0.3475 -0.1032
 5267TIP3    H115765   0.979   4.210   1.037 -2.2001  2.2658 -0.5766
 5267TIP3    H215766   1.010   4.119   0.921  1.6571  2.2636  0.3088
 5268TIP3   OH215767   2.934   0.106   2.178 -0.2426  0.5730 -0.0409
 5268TIP3    H115768   2.957   0.198   2.188  1.7202  0.2429 -0.9986
 5268TIP3    H215769   2.842   0.107   2.151 -0.3532  2.2121  0.2760
 5269TIP3   OH215770   3.294   5.408   5.613 -0.0042 -0.0485  0.5181
 5269TIP3    H115771   3.251   5.348   5.674 -1.2753 -1.1152 -1.3471
 5269TIP3    H215772   3.387   5.401   5.635 -0.3316 -1.1273  1.7081
 5270TIP3   OH215773   2.892   5.257   5.101 -0.3597  0.6708  0.0085
 5270TIP3    H115774   2.927   5.345   5.115  0.1737  0.2705  1.3162
 5270TIP3    H215775   2.932   5.203   5.169 -0.0084 -0.7868 -1.2794
 5271TIP3   OH215776   3.327   3.714   4.698 -0.1667 -0.1526  0.3898
 5271TIP3    H115777   3.317   3.802   4.734  1.9107  0.6758 -0.8432
 5271TIP3    H215778   3.247   3.700   4.647 -1.0095  0.5531  1.4848
 5272TIP3   OH215779   0.664   6.166   4.288  0.0707  0.5198 -0.4781
 5272TIP3    H115780   0.674   6.093   4.349  0.0164 -0.4962 -1.6540
 5272TIP3    H215781   0.590   6.217   4.323  0.9705  0.8292  1.1165
 5273TIP3   OH215782   1.126   4.304   4.812 -0.1640  0.2097  0.4786
 5273TIP3    H115783   1.101   4.309   4.720 -1.2448  0.0630  0.7568
 5273TIP3    H215784   1.045   4.319   4.861  0.1837 -0.7542  1.4038
 5274TIP3   OH215785   0.754   0.394   4.361  0.8363  0.5210  0.1206
 5274TIP3    H115786   0.719   0.365   4.445  0.1409  1.3216  0.1285
 5274TIP3    H215787   0.678   0.429   4.314  1.1472 -0.2592 -1.0011
 5275TIP3   OH215788   0.188   4.556   3.310  0.2552 -0.3477  0.4239
 5275TIP3    H115789   0.107   4.518   3.277  0.1201  0.6066 -0.3937
 5275TIP3    H215790   0.256   4.492   3.289  0.1353  0.1012 -1.5097
 5276TIP3   OH215791   5.767   5.875   2.057 -0.0708  0.2175 -0.3550
 5276TIP3    H115792   5.829   5.829   2.000  1.7153  0.7828  1.0489
 5276TIP3    H215793   5.727   5.941   2.001  1.4618  0.5969 -1.0233
 5277TIP3   OH215794   4.157   2.050   5.360 -0.0853  0.3712 -0.3757
 5277TIP3    H115795   4.076   2.033   5.311 -0.1957  1.5443 -0.6343
 5277TIP3    H215796   4.223   2.066   5.293  0.0028  0.9451 -0.1569
 5278TIP3   OH215797   0.597   1.938   5.229 -0.2055  0.3785  0.3873
 5278TIP3    H115798   0.658   1.891   5.286 -0.5508  0.3264  0.7199
 5278TIP3    H215799   0.535   1.871   5.200 -0.3556  0.5132  0.3944
 5279TIP3   OH215800   6.152   0.756   3.823  0.1449 -0.3167  0.3798
 5279TIP3    H115801   6.079   0.738   3.764 -0.2909 -1.3599  1.1862
 5279TIP3    H215802   6.159   0.851   3.826 -0.4610 -0.2311 -0.5572
 5280TIP3   OH215803   2.647   6.005   5.596  0.1382 -0.6613 -0.0786
 5280TIP3    H115804   2.552   6.007   5.584 -0.2070 -1.3518  1.9738
 5280TIP3    H215805   2.674   6.096   5.587 -0.9448 -0.2449  0.5570
 5281TIP3   OH215806   5.387   6.431   5.107  0.4750 -0.0064  0.9344
 5281TIP3    H115807   5.316   6.439   5.043  0.8746  1.5838  0.6338
 5281TIP3    H215808   5.417   6.341   5.100 -1.6464 -0.7955  1.2257
 5282TIP3   OH215809   0.104   0.044   4.661 -0.1313  0.3346 -0.4100
 5282TIP3    H115810   0.113   0.097   4.740 -0.6408  0.3756 -0.3798
 5282TIP3    H215811   0.014   0.011   4.664 -0.1162  0.2445 -0.9158
 5283TIP3   OH215812   0.417   4.483   5.731 -0.3900 -0.2016  0.1549
 5283TIP3    H115813   0.360   4.448   5.799  2.0856 -1.9458  1.4817
 5283TIP3    H215814   0.360   4.539   5.678 -2.8659 -0.3887  2.4315
 5284TIP3   OH215815   3.435   2.424   5.699  0.9637 -0.2994  0.0564
 5284TIP3    H115816   3.363   2.364   5.680  1.7243 -1.0470 -0.5634
 5284TIP3    H215817   3.479   2.386   5.775 -0.5595  1.3290  1.8392
 5285TIP3   OH215818   4.421   3.271   4.492 -0.1995 -0.3886  0.4794
 5285TIP3    H115819   4.451   3.348   4.443 -0.0146 -0.9850 -0.3558
 5285TIP3    H215820   4.493   3.209   4.486  0.2285 -0.1367  2.3348
 5286TIP3   OH215821   2.022   4.284   5.496 -0.0548  1.0774 -0.1634
 5286TIP3    H115822   2.036   4.195   5.466  0.7818  1.2270 -0.2301
 5286TIP3    H215823   2.083   4.337   5.445  0.4319  1.5072  0.8374
 5287TIP3   OH215824   6.088   1.543   2.689 -0.2531 -0.5277 -0.0448
 5287TIP3    H115825   6.061   1.463   2.735  1.3090 -1.3615 -0.4997
 5287TIP3    H215826   6.184   1.536   2.684 -0.2955 -0.2577 -2.9610
 5288TIP3   OH215827   4.540   3.031   2.496  0.2430 -0.2056 -0.2141
 5288TIP3    H115828   4.563   3.033   2.403 -0.3640 -0.5847 -0.3777
 5288TIP3    H215829   4.553   2.940   2.522  1.4130  0.0968  0.3462
 5289TIP3   OH215830   4.156   4.912   1.474  0.0903  0.4600 -0.3130
 5289TIP3    H115831   4.179   4.982   1.535  2.4032 -0.4200 -0.0735
 5289TIP3    H215832   4.195   4.938   1.391  0.4938 -0.2536 -0.3595
 5290TIP3   OH215833   5.198   6.472   1.894  0.1817  0.0447  0.2522
 5290TIP3    H115834   5.189   6.378   1.911 -1.9799  0.4397  1.5285
 5290TIP3    H215835   5.272   6.477   1.833 -0.0133 -2.5264 -0.3303
 5291TIP3   OH215836   7.070   3.658   2.137 -0.0452  0.1044 -0.5776
 5291TIP3    H115837   7.029   3.572   2.141  0.0127  0.0145 -1.5043
 5291TIP3    H215838   7.117   3.658   2.053 -1.0956  1.4830 -1.2091
 5292TIP3   OH215839   5.291   1.044   4.166  0.0774 -0.0102 -0.5858
 5292TIP3    H115840   5.265   1.086   4.248  2.2941 -0.2572  0.3305
 5292TIP3    H215841   5.305   0.952   4.191  2.0759  0.1805 -0.8852
 5293TIP3   OH215842   3.085   3.946   0.905  0.2665  0.0092 -0.0970
 5293TIP3    H115843   3.015   3.969   0.966 -0.2230 -0.2803 -0.5399
 5293TIP3    H215844   3.113   4.030   0.868  0.0468  0.1108 -0.0320
 5294TIP3   OH215845   4.364   5.782   1.004  0.0763  0.5974 -0.5613
 5294TIP3    H115846   4.349   5.873   0.975 -0.5629  0.8291  0.4698
 5294TIP3    H215847   4.277   5.749   1.026  0.3763 -0.0922 -0.3888
 5295TIP3   OH215848   0.721   3.754   0.576  0.0120 -0.6207 -0.6080
 5295TIP3    H115849   0.797   3.765   0.634  0.2772  1.4260 -1.2635
 5295TIP3    H215850   0.759   3.732   0.491 -0.3561 -3.1275 -0.2059
 5296TIP3   OH215851   3.908   2.145   2.185 -0.1513  0.4171  0.1776
 5296TIP3    H115852   3.999   2.119   2.168  0.0357  1.9102 -1.4487
 5296TIP3    H215853   3.856   2.088   2.129 -0.2610 -0.5253  1.2048
 5297TIP3   OH215854   2.381   5.485   2.965  0.2616  0.0355  0.4564
 5297TIP3    H115855   2.286   5.489   2.973  0.3864 -0.0149  2.2217
 5297TIP3    H215856   2.396   5.429   2.889 -1.1164 -1.4117  1.1943
 5298TIP3   OH215857   5.210   6.267   3.318 -0.5249  0.3078 -0.4153
 5298TIP3    H115858   5.123   6.303   3.299 -0.7007  0.8780  1.2751
 5298TIP3    H215859   5.192   6.184   3.364 -0.1839  0.3542 -0.1925
 5299TIP3   OH215860   2.836   0.583   4.532  0.6593 -0.4086  0.6949
 5299TIP3    H115861   2.770   0.624   4.477  0.4860 -0.4650  0.8611
 5299TIP3    H215862   2.903   0.551   4.470  0.4026 -0.5892  0.5092
 5300TIP3   OH215863   4.039   2.186   0.637 -0.3651  0.7404 -0.0225
 5300TIP3    H115864   4.107   2.140   0.587  1.4357  2.6540  0.5337
 5300TIP3    H215865   4.053   2.278   0.619 -2.0260  1.2821  1.1436
 5301TIP3   OH215866   6.181   0.870   2.521  0.1261 -0.2030 -0.1557
 5301TIP3    H115867   6.112   0.903   2.579 -0.7198 -0.6285 -0.8898
 5301TIP3    H215868   6.262   0.881   2.571 -0.7873 -2.8688  2.1817
 5302TIP3   OH215869   2.106   6.060   0.380 -0.1165  0.6304 -0.0908
 5302TIP3    H115870   2.013   6.060   0.404 -0.4060 -0.5813 -1.0664
 5302TIP3    H215871   2.148   6.114   0.446 -1.2939 -0.0985  1.3104
 5303TIP3   OH215872   6.459   2.274   3.420  0.5077 -0.5567  0.3399
 5303TIP3    H115873   6.483   2.227   3.500 -0.8976 -0.7445  0.6746
 5303TIP3    H215874   6.536   2.327   3.400  0.9329 -0.5986  1.7461
 5304TIP3   OH215875   0.089   4.561   2.398  0.4175  0.3189  0.2314
 5304TIP3    H115876   0.148   4.486   2.408 -0.1591  0.0045  1.6123
 5304TIP3    H215877   0.138   4.635   2.433  0.0953  0.0952  1.1918
 5305TIP3   OH215878   1.788   0.528   5.710  0.1617 -0.2654  0.1235
 5305TIP3    H115879   1.724   0.458   5.696 -0.4747  0.4014 -0.3489
 5305TIP3    H215880   1.744   0.590   5.768  0.3581  0.2150 -0.2324
 5306TIP3   OH215881   0.335   4.340   3.191 -0.8419  0.5075  0.3092
 5306TIP3    H115882   0.413   4.292   3.161 -0.4347  1.4761 -0.2382
 5306TIP3    H215883   0.263   4.301   3.142  0.0214  3.3897 -3.8047
 5307TIP3   OH215884   4.602   1.604   1.894  0.1212 -0.3235  0.4086
 5307TIP3    H115885   4.681   1.654   1.870 -1.0291  0.4516 -2.1882
 5307TIP3    H215886   4.545   1.668   1.936  0.1603 -0.4374  0.6370
 5308TIP3   OH215887   0.994   4.893   0.314  0.7186  0.0174  0.1320
 5308TIP3    H115888   0.977   4.814   0.262 -1.5349  1.0167 -0.7795
 5308TIP3    H215889   1.016   4.860   0.401  2.2297 -1.6468 -0.7938
 5309TIP3   OH215890   2.424   6.013   1.961  0.3727  0.0941 -0.0196
 5309TIP3    H115891   2.394   6.065   1.887 -0.3171 -1.6367 -1.0256
 5309TIP3    H215892   2.344   5.987   2.007  0.4139 -2.2605 -1.1255
 5310TIP3   OH215893   3.822   5.943   5.170  0.3988 -0.4394 -0.0576
 5310TIP3    H115894   3.850   6.017   5.224  0.8214  0.8987 -1.9995
 5310TIP3    H215895   3.738   5.917   5.207  0.7914  0.2243  1.3884
 5311TIP3   OH215896   0.400   6.056   0.576  0.5759 -0.0978  0.0059
 5311TIP3    H115897   0.390   6.030   0.485  0.9570 -0.7614  0.1476
 5311TIP3    H215898   0.361   5.984   0.626  0.6908  0.0946  0.3782
 5312TIP3   OH215899   2.596   4.145   0.804 -0.0572 -0.0704 -0.2989
 5312TIP3    H115900   2.570   4.218   0.860 -0.0492  0.4332 -0.9308
 5312TIP3    H215901   2.665   4.180   0.749  0.0269 -0.5915 -0.5364
 5313TIP3   OH215902   3.452   3.570   3.159 -0.2824  0.3488 -0.2329
 5313TIP3    H115903   3.394   3.618   3.101 -0.0923 -1.2019 -1.8123
 5313TIP3    H215904   3.460   3.624   3.237 -1.5099  1.9492 -1.1748
 5314TIP3   OH215905   3.000   2.888   4.507 -0.0513  0.3913 -0.3232
 5314TIP3    H115906   3.004   2.808   4.560  1.0517  1.0689  0.6519
 5314TIP3    H215907   2.907   2.904   4.495 -0.3448 -1.9352 -1.9649
 5315TIP3   OH215908   0.012   0.694   1.963  0.0790  0.0594  0.5075
 5315TIP3    H115909  -0.065   0.706   1.907 -0.2806 -3.1264  0.1700
 5315TIP3    H215910   0.086   0.709   1.905 -0.3021 -2.2681 -0.6925
 5316TIP3   OH215911   4.426   0.941   2.436 -0.4154  0.2373  0.3189
 5316TIP3    H115912   4.501   0.984   2.395 -0.2648 -0.0959  0.2348
 5316TIP3    H215913   4.463   0.893   2.510 -0.5519  0.1053  0.3022
 5317TIP3   OH215914   6.253   4.711   1.388  0.3416 -0.4746 -0.1127
 5317TIP3    H115915   6.258   4.637   1.328  0.2061 -1.2396  0.7975
 5317TIP3    H215916   6.161   4.736   1.389  0.4978  0.1937 -0.9728
 5318TIP3   OH215917   1.203   1.948   5.424  0.5652  0.7294 -0.3936
 5318TIP3    H115918   1.287   1.994   5.415  0.9467  0.3114  0.7712
 5318TIP3    H215919   1.167   1.981   5.507 -1.2297  2.1290 -1.6491
 5319TIP3   OH215920   2.261   2.003   3.936 -0.1947 -0.5638  0.0862
 5319TIP3    H115921   2.299   1.920   3.965  2.3552  0.7480  0.8005
 5319TIP3    H215922   2.223   2.041   4.016 -1.0310 -0.8297 -0.1677
 5320TIP3   OH215923   4.457   0.362   3.864 -0.3547  0.0604 -0.5653
 5320TIP3    H115924   4.486   0.273   3.885  3.0700  1.2520  0.5087
 5320TIP3    H215925   4.412   0.354   3.779  0.5336 -2.5722 -0.8635
 5321TIP3   OH215926   4.914   6.406   3.077  0.2215  0.2406 -0.5525
 5321TIP3    H115927   4.948   6.480   3.126 -0.3583  0.8642 -1.0713
 5321TIP3    H215928   4.990   6.350   3.060  0.6401  0.6599 -0.0584
 5322TIP3   OH215929   4.726   2.037   0.200 -0.3562  0.1628  0.1021
 5322TIP3    H115930   4.735   2.026   0.106 -2.1630  0.8567 -0.1892
 5322TIP3    H215931   4.780   1.968   0.238  0.8692  0.2553 -1.4188
 5323TIP3   OH215932   5.982   0.531   2.823 -0.2328 -0.4288  0.4079
 5323TIP3    H115933   5.960   0.573   2.740  0.5596 -0.8061 -0.0044
 5323TIP3    H215934   6.042   0.592   2.865 -0.4940 -0.3214  0.6305
 5324TIP3   OH215935   2.177   5.399   1.006  0.3026 -0.7017 -0.1921
 5324TIP3    H115936   2.205   5.441   1.088 -1.9017  1.0978 -0.2417
 5324TIP3    H215937   2.110   5.337   1.034  1.7637 -2.4291 -0.3855
 5325TIP3   OH215938   2.212   2.054   1.638 -0.2163  0.3906 -0.1425
 5325TIP3    H115939   2.126   2.021   1.612 -0.5648  0.9324  0.3058
 5325TIP3    H215940   2.206   2.060   1.734  1.1907 -2.0621  0.1898
 5326TIP3   OH215941   6.676   1.187   3.546 -0.3886 -0.5440 -0.7053
 5326TIP3    H115942   6.729   1.265   3.530  0.3181 -0.8014  0.2947
 5326TIP3    H215943   6.739   1.117   3.562 -0.9664 -0.5759  1.8845
 5327TIP3   OH215944   7.026   6.694   2.617  0.1089  0.0053  0.1800
 5327TIP3    H115945   7.049   6.643   2.695  0.5661  0.6026  0.4536
 5327TIP3    H215946   6.934   6.674   2.601  0.5802 -1.8111 -0.4410
 5328TIP3   OH215947   6.460   6.190   4.623  0.8029 -0.3265  0.3651
 5328TIP3    H115948   6.498   6.162   4.540  0.0404 -1.2134  0.3013
 5328TIP3    H215949   6.421   6.275   4.605 -1.5540 -1.5753 -0.8833
 5329TIP3   OH215950   2.180   2.448   4.178  0.2711 -0.1293 -0.4882
 5329TIP3    H115951   2.239   2.464   4.252  1.4645 -0.5077 -1.3234
 5329TIP3    H215952   2.128   2.528   4.172 -1.2978 -0.8325  1.9730
 5330TIP3   OH215953   5.124   1.695   1.844  0.0357  0.0838  0.1281
 5330TIP3    H115954   5.142   1.706   1.937  1.2409  0.2403 -0.1040
 5330TIP3    H215955   5.179   1.761   1.801 -0.3757 -0.0997 -0.7027
 5331TIP3   OH215956   3.466   6.110   2.857 -0.4038  0.2089 -0.4394
 5331TIP3    H115957   3.542   6.165   2.838  0.0623 -0.4284 -0.4465
 5331TIP3    H215958   3.501   6.037   2.907 -1.0269 -0.0574 -0.3782
 5332TIP3   OH215959   4.666   3.557   5.069 -0.1755 -0.0110 -0.1443
 5332TIP3    H115960   4.619   3.474   5.057 -0.3192  0.3398 -2.7324
 5332TIP3    H215961   4.620   3.602   5.139  0.7541 -2.6415  2.3469
 5333TIP3   OH215962   7.205   4.073   2.004 -0.1372 -0.1366 -0.0329
 5333TIP3    H115963   7.207   4.169   1.997  0.3388  0.0647  2.2104
 5333TIP3    H215964   7.115   4.049   1.986  0.1105  0.5106 -2.5014
 5334TIP3   OH215965   3.282   0.139   2.595 -0.0894  0.0685  0.7475
 5334TIP3    H115966   3.255   0.231   2.593 -1.2732 -0.2688 -0.2870
 5334TIP3    H215967   3.217   0.096   2.651 -0.9404 -0.5178 -0.6411
 5335TIP3   OH215968   5.581   1.263   3.879  0.0235  0.0352  0.5531
 5335TIP3    H115969   5.673   1.281   3.898  1.5328 -3.5639 -2.1069
 5335TIP3    H215970   5.552   1.337   3.826  1.3614  1.1781  1.3355
 5336TIP3   OH215971   4.351   4.598   3.475  0.5021  0.6763 -0.0425
 5336TIP3    H115972   4.392   4.511   3.475  0.0179  0.3941  2.0055
 5336TIP3    H215973   4.375   4.636   3.390  3.5642 -0.1003  0.3765
 5337TIP3   OH215974   0.273   4.243   4.696  0.7505 -0.1564 -0.4262
 5337TIP3    H115975   0.216   4.251   4.620  1.7779 -0.9678 -1.3087
 5337TIP3    H215976   0.302   4.333   4.713 -0.1285  0.1507 -0.4518
 5338TIP3   OH215977   0.212   0.007   2.064 -0.3666 -0.3466  0.0198
 5338TIP3    H115978   0.248   0.091   2.092 -0.2853 -0.6279  0.7766
 5338TIP3    H215979   0.288  -0.046   2.042 -0.4573  0.3801 -2.3302
 5339TIP3   OH215980   6.839   4.089   2.149  0.0569 -0.0523  0.1301
 5339TIP3    H115981   6.796   4.081   2.234 -0.5071  0.1551 -0.1277
 5339TIP3    H215982   6.799   4.166   2.110  0.0504 -0.3528 -0.4672
 5340TIP3   OH215983   4.657   4.230   4.996 -0.4043  0.1905 -0.8879
 5340TIP3    H115984   4.611   4.146   4.995  0.9616 -0.6097  0.3771
 5340TIP3    H215985   4.678   4.245   5.088  0.2544  1.4512 -1.2178
 5341TIP3   OH215986   1.651   0.914   0.508  0.0694 -0.3157  0.0722
 5341TIP3    H115987   1.741   0.946   0.515 -0.3983  1.2878 -0.8483
 5341TIP3    H215988   1.636   0.868   0.591  0.8439  1.7522  1.4480
 5342TIP3   OH215989   5.989   6.657   1.164  0.4384  0.2550  0.1555
 5342TIP3    H115990   6.074   6.614   1.158  0.1465 -0.1520 -1.4325
 5342TIP3    H215991   5.987   6.694   1.253  2.4460  0.6875  0.0653
 5343TIP3   OH215992   0.106   4.810   4.419 -0.1326  0.7482 -0.7251
 5343TIP3    H115993   0.050   4.797   4.495 -0.5132  0.6445 -1.0193
 5343TIP3    H215994   0.068   4.754   4.351  0.9970 -0.2126 -0.5973
 5344TIP3   OH215995   2.353   6.329   3.455 -0.5690  0.2753  0.3104
 5344TIP3    H115996   2.422   6.263   3.453  0.2791  1.1212  0.6374
 5344TIP3    H215997   2.295   6.301   3.526 -1.7564 -1.5461 -1.2687
 5345TIP3   OH215998   7.232   1.198   1.979  0.2956  0.3982 -0.1712
 5345TIP3    H115999   7.146   1.201   2.021  0.0757  1.8533 -0.6932
 5345TIP3    H216000   7.257   1.105   1.984 -2.0496 -0.3908 -1.5230
 5346TIP3   OH216001   2.019   2.926   2.022 -0.2028 -0.2330 -0.2871
 5346TIP3    H116002   1.969   2.947   1.943  1.0886  1.7810 -0.6576
 5346TIP3    H216003   2.079   2.856   1.996 -0.6395 -0.4350 -0.7429
 5347TIP3   OH216004   4.635   1.344   5.409 -0.1915  0.6411  0.2698
 5347TIP3    H116005   4.563   1.306   5.359  0.0997  0.8342 -0.3112
 5347TIP3    H216006   4.593   1.393   5.480 -0.5567 -1.6317  1.7114
 5348TIP3   OH216007   1.915   4.057   2.104  0.2760 -0.0100 -0.0022
 5348TIP3    H116008   1.868   3.980   2.071  0.2571 -0.6288  1.3923
 5348TIP3    H216009   2.007   4.029   2.108  0.6938  0.9450 -1.9988
 5349TIP3   OH216010   3.534   4.295   5.727 -0.3025  0.3144 -0.2823
 5349TIP3    H116011   3.529   4.270   5.635 -0.2118  1.1857 -0.5319
 5349TIP3    H216012   3.601   4.237   5.764 -1.1024 -0.7733 -0.5080
 5350TIP3   OH216013   5.957   6.623   2.514 -0.1861  0.1597 -0.4837
 5350TIP3    H116014   5.906   6.674   2.451  0.5733 -0.1714 -1.3816
 5350TIP3    H216015   5.926   6.654   2.600 -2.7796 -0.8619 -0.9418
 5351TIP3   OH216016   1.984   0.845   4.374  0.1791  0.8443  0.1047
 5351TIP3    H116017   1.970   0.753   4.351  1.2497  1.3520 -2.9727
 5351TIP3    H216018   1.974   0.847   4.469 -2.0702 -2.0238  0.0877
 5352TIP3   OH216019   5.859   0.994   0.033 -0.2393  0.2120  0.4454
 5352TIP3    H116020   5.944   0.952   0.048 -1.5705 -2.1550  1.7663
 5352TIP3    H216021   5.841   1.042   0.114  0.3943  1.9191 -0.3538
 5353TIP3   OH216022   1.630   5.583   0.946  0.1588  0.5208 -0.0678
 5353TIP3    H116023   1.718   5.545   0.945  0.0772  0.3290  0.0338
 5353TIP3    H216024   1.586   5.538   1.018 -0.4361 -0.3231 -0.9355
 5354TIP3   OH216025   2.352   1.980   3.365 -0.1924  0.0944 -0.5727
 5354TIP3    H116026   2.278   1.975   3.304  0.2588  0.7061 -1.1860
 5354TIP3    H216027   2.327   1.923   3.438 -0.9521 -0.2650 -1.1031
 5355TIP3   OH216028   4.622   2.506   2.435  0.0149 -0.2677  0.2445
 5355TIP3    H116029   4.709   2.541   2.454  0.5272 -1.1374 -0.4395
 5355TIP3    H216030   4.621   2.419   2.475 -1.2304  0.4392  1.8845
 5356TIP3   OH216031   0.752   6.755   3.076 -0.7122 -0.0550 -0.2095
 5356TIP3    H116032   0.727   6.839   3.115 -0.2834 -0.4818  1.0165
 5356TIP3    H216033   0.696   6.690   3.121 -1.8687 -0.3366 -1.9415
 5357TIP3   OH216034   4.823   1.091   4.593 -0.2370  0.1370  0.4377
 5357TIP3    H116035   4.879   1.167   4.577 -0.6063  0.4466  0.5908
 5357TIP3    H216036   4.817   1.085   4.688  1.8559 -1.6333  0.5315
 5358TIP3   OH216037   6.582   2.587   2.342 -0.0298  0.3072 -0.4246
 5358TIP3    H116038   6.599   2.541   2.260  1.6042  0.2027 -0.0613
 5358TIP3    H216039   6.535   2.523   2.396  0.6292 -0.3095 -0.5725
 5359TIP3   OH216040   6.188   3.620   2.325  0.7189  0.6168 -0.3797
 5359TIP3    H116041   6.193   3.647   2.417 -0.8996  0.4831 -0.2154
 5359TIP3    H216042   6.228   3.692   2.276  1.2960  0.8360  0.4050
 5360TIP3   OH216043   4.421   0.471   2.510  0.0888  0.3989  0.0923
 5360TIP3    H116044   4.338   0.423   2.514 -0.8373  1.9486  0.3777
 5360TIP3    H216045   4.481   0.420   2.564 -1.6702  1.0165  2.8270
 5361TIP3   OH216046   2.783   2.386   0.365  0.3671  0.0194 -0.0757
 5361TIP3    H116047   2.804   2.303   0.407  0.2210 -0.2983 -0.6158
 5361TIP3    H216048   2.829   2.383   0.281 -0.5800 -0.0328 -0.6178
 5362TIP3   OH216049   1.369   4.898   4.183  0.3434 -0.4879 -0.2989
 5362TIP3    H116050   1.424   4.828   4.218 -0.1469 -1.4894 -1.4739
 5362TIP3    H216051   1.344   4.868   4.095  1.2683  1.7819 -1.4236
 5363TIP3   OH216052   0.999   1.313   0.200  0.1113 -0.1042 -0.4459
 5363TIP3    H116053   0.956   1.277   0.278  0.4168  1.0670  0.2918
 5363TIP3    H216054   1.031   1.236   0.152 -1.8311 -0.9552 -0.4733
 5364TIP3   OH216055   5.647   0.952   2.000 -0.1548  0.2466 -0.8257
 5364TIP3    H116056   5.592   0.983   1.928 -0.9577 -1.6123 -1.0847
 5364TIP3    H216057   5.733   0.989   1.984 -0.4715  0.3264 -2.4337
 5365TIP3   OH216058   4.006   0.829   5.373 -1.0103 -0.1259 -0.3128
 5365TIP3    H116059   3.977   0.880   5.448  0.3527  0.3004 -0.0504
 5365TIP3    H216060   3.990   0.885   5.297 -1.7127 -0.2718 -0.2812
 5366TIP3   OH216061   6.370   2.276   0.916  0.2812 -0.0205 -0.1541
 5366TIP3    H116062   6.425   2.281   0.837 -0.6036 -1.0713 -0.8738
 5366TIP3    H216063   6.367   2.366   0.948  0.7795  0.4157 -1.2460
 5367TIP3   OH216064   4.239   4.023   0.668  0.3202 -0.2957 -0.1799
 5367TIP3    H116065   4.290   4.038   0.588  0.1789  1.5972  0.0441
 5367TIP3    H216066   4.302   3.988   0.731  0.3595 -2.1377 -1.1892
 5368TIP3   OH216067   4.444   1.443   5.172  0.3940  0.0887 -0.3212
 5368TIP3    H116068   4.418   1.359   5.211 -0.4714  0.8122  0.7328
 5368TIP3    H216069   4.398   1.446   5.088 -1.9993  0.7360  0.9066
 5369TIP3   OH216070   2.025   5.898   4.953 -0.7405  0.8536 -1.0577
 5369TIP3    H116071   2.055   5.813   4.921 -0.1742  0.8771 -0.6082
 5369TIP3    H216072   1.932   5.901   4.932 -0.6084  0.4186 -1.7116
 5370TIP3   OH216073   1.308   1.901   3.582  0.1453  0.6756 -0.8864
 5370TIP3    H116074   1.399   1.872   3.571 -0.1065  0.1567 -1.6387
 5370TIP3    H216075   1.255   1.825   3.557 -0.5197  1.5330 -2.1497
 5371TIP3   OH216076   1.592   2.353   0.038  0.5117  0.6785  0.2008
 5371TIP3    H116077   1.501   2.333   0.017  0.9890  0.7923 -2.2719
 5371TIP3    H216078   1.591   2.375   0.131 -1.6614 -1.0697  0.6681
 5372TIP3   OH216079   1.122   0.690   1.611  0.8132  0.0083 -0.1027
 5372TIP3    H116080   1.213   0.705   1.633  0.2418  0.4959  2.1425
 5372TIP3    H216081   1.093   0.623   1.672 -0.8118  1.2080  0.5110
 5373TIP3   OH216082   5.143   5.361   4.291 -0.6954 -0.2990 -0.4497
 5373TIP3    H116083   5.117   5.451   4.270  0.4385  0.1983  0.1358
 5373TIP3    H216084   5.127   5.353   4.384 -2.6592 -1.4057 -0.8337
 5374TIP3   OH216085   0.857   4.886   3.691  0.1940  0.2418 -0.0393
 5374TIP3    H116086   0.816   4.933   3.618 -1.9876  2.1458  2.2534
 5374TIP3    H216087   0.927   4.945   3.721  0.2818  0.0327  0.1652
 5375TIP3   OH216088   3.182   1.761   2.414 -0.2847 -0.3120  0.0093
 5375TIP3    H116089   3.220   1.752   2.327 -0.9473  0.6055 -0.3888
 5375TIP3    H216090   3.120   1.834   2.407 -0.7262 -0.5436  1.1181
 5376TIP3   OH216091   2.610   3.322   5.701  0.3530 -0.1073  0.6643
 5376TIP3    H116092   2.526   3.339   5.744  0.7579 -0.4318  1.6171
 5376TIP3    H216093   2.610   3.379   5.624 -0.9959 -0.5604  0.3103
 5377TIP3   OH216094   5.115   2.857   2.314 -0.7141 -0.3371  0.0097
 5377TIP3    H116095   5.062   2.916   2.367 -0.5132 -0.5121  0.4092
 5377TIP3    H216096   5.162   2.802   2.378 -0.8103 -0.8475 -0.3515
 5378TIP3   OH216097   7.162   2.981   5.411 -0.1969 -0.1255  0.0353
 5378TIP3    H116098   7.146   3.063   5.458 -0.4523  0.7443 -1.5144
 5378TIP3    H216099   7.078   2.936   5.411 -0.4536  0.3554 -0.4912
 5379TIP3   OH216100   6.213   4.801   1.082 -0.3091  0.0162 -0.3625
 5379TIP3    H116101   6.211   4.845   1.167 -1.2807 -3.8755  1.8178
 5379TIP3    H216102   6.290   4.745   1.085 -1.4857 -1.7204 -1.1669
 5380TIP3   OH216103   2.194   4.009   5.516 -0.1695 -0.7094 -0.1322
 5380TIP3    H116104   2.276   4.009   5.566 -0.0788  1.5260 -0.1932
 5380TIP3    H216105   2.221   4.014   5.425 -0.3186  1.4441 -0.1030
 5381TIP3   OH216106   3.782   0.605   4.109  0.1550  0.0213 -0.0143
 5381TIP3    H116107   3.760   0.576   4.021  0.0091 -0.4996  0.1878
 5381TIP3    H216108   3.721   0.677   4.126  0.3888  0.3285 -0.4470
 5382TIP3   OH216109   1.629   1.500   4.681 -0.0383  0.1878 -0.3766
 5382TIP3    H116110   1.589   1.558   4.746  0.4166  0.4838 -0.3543
 5382TIP3    H216111   1.582   1.520   4.599 -2.3201 -1.9335  0.3141
 5383TIP3   OH216112   3.897   1.993   2.446 -0.1991  0.2954 -0.0068
 5383TIP3    H116113   3.843   2.025   2.374  0.5232  0.4733 -0.4838
 5383TIP3    H216114   3.959   2.064   2.462  1.7696 -0.9848 -1.4194
 5384TIP3   OH216115   4.133   0.918   1.073  0.7571  0.3202 -0.1607
 5384TIP3    H116116   4.120   0.949   0.984  1.8941  1.0525 -0.0939
 5384TIP3    H216117   4.185   0.838   1.064 -2.7324 -2.1095 -0.3752
 5385TIP3   OH216118   6.422   0.681   4.166 -0.6746 -0.0710  0.4160
 5385TIP3    H116119   6.444   0.614   4.102  0.4804  1.1249 -0.5083
 5385TIP3    H216120   6.497   0.741   4.165 -1.6034  1.1703  1.2838
 5386TIP3   OH216121   4.480   3.161   5.206  0.2187 -0.0288 -0.0254
 5386TIP3    H116122   4.541   3.145   5.134 -1.8192 -0.5333 -1.7356
 5386TIP3    H216123   4.395   3.129   5.174 -1.3444  2.1993  1.5513
 5387TIP3   OH216124   2.754   1.435   1.408 -0.0107 -0.3313  0.0696
 5387TIP3    H116125   2.808   1.377   1.463  1.5663 -0.2662 -1.3191
 5387TIP3    H216126   2.669   1.391   1.403 -0.0840 -0.5551  2.1531
 5388TIP3   OH216127   2.603   0.160   1.442  0.7148  0.3805 -0.5766
 5388TIP3    H116128   2.693   0.128   1.441  0.4917 -0.2593 -0.5212
 5388TIP3    H216129   2.576   0.153   1.534  0.9718  1.6202 -0.3903
 5389TIP3   OH216130   3.881   1.151   1.385  0.3501  0.6663 -0.1668
 5389TIP3    H116131   3.845   1.065   1.406  0.7883  0.4611 -0.2465
 5389TIP3    H216132   3.970   1.133   1.353  0.2701  1.1062 -0.6466
 5390TIP3   OH216133   5.638   0.950   2.711  0.2021  0.0348  0.6514
 5390TIP3    H116134   5.596   1.013   2.770  0.2815 -0.0479  0.7965
 5390TIP3    H216135   5.565   0.911   2.663  0.2460  1.2144 -0.4337
 5391TIP3   OH216136   6.136   3.077   3.776 -0.1336 -0.3473 -0.1244
 5391TIP3    H116137   6.056   3.130   3.784  0.4413  0.8920 -1.8533
 5391TIP3    H216138   6.205   3.141   3.760  0.7699 -1.5367 -1.2025
 5392TIP3   OH216139   2.082   4.964   2.596  0.2835 -0.3903  0.4587
 5392TIP3    H116140   2.144   4.985   2.526  0.4389  1.9150  1.1967
 5392TIP3    H216141   2.009   4.921   2.551  1.2108 -0.6967 -0.8166
 5393TIP3   OH216142   6.562   2.863   0.146 -0.3976 -0.4859  0.6678
 5393TIP3    H116143   6.521   2.859   0.060  0.8757 -1.0198  0.0577
 5393TIP3    H216144   6.489   2.873   0.207 -1.3442 -0.4129 -0.4417
 5394TIP3   OH216145   5.468   3.387   2.401  0.4716  0.3903 -0.3526
 5394TIP3    H116146   5.451   3.300   2.364  0.6733  0.7865 -1.4301
 5394TIP3    H216147   5.559   3.406   2.376 -0.1750  1.7265 -1.9276
 5395TIP3   OH216148   2.958   0.078   1.871 -0.3220 -0.4406 -0.2361
 5395TIP3    H116149   2.961   0.055   1.964 -0.3426 -0.7284 -0.3066
 5395TIP3    H216150   2.879   0.132   1.863  0.9121  1.5488  0.3491
 5396TIP3   OH216151   3.932   5.079   4.694  0.2917 -0.0030  0.0574
 5396TIP3    H116152   3.838   5.063   4.689  0.4244 -0.4788 -1.4736
 5396TIP3    H216153   3.951   5.135   4.618  0.8320  2.4212  1.8686
 5397TIP3   OH216154   3.725   0.735   0.597 -0.1904 -0.9945  0.4163
 5397TIP3    H116155   3.688   0.657   0.639 -2.6589 -0.2614 -0.2518
 5397TIP3    H216156   3.788   0.769   0.661 -1.4243 -1.7568  2.1036
 5398TIP3   OH216157   2.661   0.586   0.426  0.0760  0.8040 -0.2313
 5398TIP3    H116158   2.679   0.582   0.332  1.9119 -1.1139  0.1221
 5398TIP3    H216159   2.747   0.596   0.466 -0.2042 -2.0597  1.3403
 5399TIP3   OH216160   3.307   5.618   3.441  0.2530  0.0453  0.2314
 5399TIP3    H116161   3.288   5.632   3.534  1.3824 -1.6440  0.7652
 5399TIP3    H216162   3.241   5.555   3.412 -0.4361  0.9832 -0.2755
 5400TIP3   OH216163   2.639   2.046   0.177 -0.4603  0.0564  0.5978
 5400TIP3    H116164   2.627   1.985   0.250 -1.9044  0.1923  0.5074
 5400TIP3    H216165   2.733   2.046   0.161 -0.0455  0.3211  2.7120
 5401TIP3   OH216166   2.130   0.773   3.469 -0.0475  0.4309  0.3250
 5401TIP3    H116167   2.062   0.815   3.417 -1.4492 -1.9307  0.1138
 5401TIP3    H216168   2.140   0.830   3.546 -1.8283  1.1471  0.0678
 5402TIP3   OH216169   6.374   1.991   5.456  0.3012  0.3910  0.1642
 5402TIP3    H116170   6.469   1.990   5.461  0.3448 -2.4468  0.6731
 5402TIP3    H216171   6.351   1.910   5.410 -1.8942  0.7778  0.4369
 5403TIP3   OH216172   1.421   3.849   2.275 -0.3987 -0.0375  0.2698
 5403TIP3    H116173   1.461   3.762   2.277  1.1626  0.6278 -0.2754
 5403TIP3    H216174   1.440   3.882   2.187 -0.7598  0.9467  0.5466
 5404TIP3   OH216175   1.472   5.807   0.929  0.1409  0.6001 -0.1451
 5404TIP3    H116176   1.430   5.810   0.843  1.2044  0.6446 -0.6845
 5404TIP3    H216177   1.536   5.736   0.922  0.2176  0.5796  0.6270
 5405TIP3   OH216178   6.673   1.199   5.570 -1.0912 -0.1475 -0.0569
 5405TIP3    H116179   6.762   1.210   5.605 -1.1676 -2.3862  0.9921
 5405TIP3    H216180   6.625   1.276   5.602  0.8472  2.1316 -2.2267
 5406TIP3   OH216181   3.005   1.595   2.532  0.1941 -0.1910  0.6757
 5406TIP3    H116182   3.048   1.512   2.552 -0.8437 -0.5367  1.6249
 5406TIP3    H216183   3.076   1.653   2.507  1.2259 -0.7478  2.1193
 5407TIP3   OH216184   5.260   2.691   1.240  0.9626  0.2561  0.3785
 5407TIP3    H116185   5.230   2.754   1.174 -0.9154  2.0571  2.8005
 5407TIP3    H216186   5.351   2.715   1.255  0.6104  1.6665  0.4220
 5408TIP3   OH216187   6.813   5.722   1.870 -0.1858 -0.2156  0.4261
 5408TIP3    H116188   6.758   5.724   1.948  0.0999 -0.8358  0.6532
 5408TIP3    H216189   6.804   5.632   1.837 -1.2872  0.3676 -0.9753
 5409TIP3   OH216190   1.507   1.556   1.985  0.1106 -0.6291 -0.0330
 5409TIP3    H116191   1.414   1.556   2.009  0.4245 -0.0890  1.2210
 5409TIP3    H216192   1.510   1.506   1.903 -1.8162  2.3867 -2.1485
 5410TIP3   OH216193   1.166   5.346   0.847  0.5833 -0.2620  0.0795
 5410TIP3    H116194   1.076   5.320   0.870  0.9488  0.0341  1.9737
 5410TIP3    H216195   1.181   5.305   0.761 -0.8781 -1.4715  0.3515
 5411TIP3   OH216196   5.022   0.795   5.233 -0.1496  0.0385  0.4787
 5411TIP3    H116197   4.956   0.863   5.244 -1.1350 -1.1283  2.3680
 5411TIP3    H216198   4.972   0.713   5.240  1.3612 -0.8630  1.0030
 5412TIP3   OH216199   6.049   2.480   0.128 -0.3119 -0.4081 -0.1599
 5412TIP3    H116200   6.116   2.488   0.059  0.4083  0.1121  0.5831
 5412TIP3    H216201   6.049   2.386   0.150  1.0468 -0.2526  0.6509
 5413TIP3   OH216202   6.909   6.190   2.654  0.6947  0.3892 -0.7683
 5413TIP3    H116203   6.839   6.229   2.602  0.3873  0.3659 -0.3832
 5413TIP3    H216204   6.984   6.186   2.595  0.2019 -0.1455 -1.3653
 5414TIP3   OH216205   0.702   5.658   2.970 -0.2633 -0.8736 -0.2962
 5414TIP3    H116206   0.610   5.673   2.948 -0.9674 -2.7132  1.0588
 5414TIP3    H216207   0.735   5.743   2.998 -1.8784 -0.3696  0.2062
 5415TIP3   OH216208   3.127   1.374   2.633  0.3251  0.1154 -0.1737
 5415TIP3    H116209   3.181   1.379   2.712 -1.5546 -0.0914  1.2044
 5415TIP3    H216210   3.086   1.287   2.638 -1.6129  0.9867 -0.1064
 5416TIP3   OH216211   4.340   4.795   4.253 -0.2151 -0.3280 -0.2400
 5416TIP3    H116212   4.341   4.878   4.206 -0.1653 -1.2267 -1.8975
 5416TIP3    H216213   4.432   4.777   4.273 -0.0233 -0.8427 -1.5046
 5417TIP3   OH216214   6.228   2.086   5.657 -0.0245  0.6511  0.1945
 5417TIP3    H116215   6.271   2.051   5.578 -1.8441  0.6183 -0.8430
 5417TIP3    H216216   6.296   2.137   5.701  1.1628  0.3091 -1.1625
 5418TIP3   OH216217   1.655   2.432   0.614 -0.2148  0.2063 -0.3260
 5418TIP3    H116218   1.564   2.416   0.590  0.3880  0.2488 -2.9576
 5418TIP3    H216219   1.686   2.497   0.551  1.2961  1.1991  1.3389
 5419TIP3   OH216220   4.917   4.843   1.199  0.5516  0.0673 -0.1064
 5419TIP3    H116221   4.841   4.842   1.257 -0.5175 -0.0084 -1.4612
 5419TIP3    H216222   4.962   4.925   1.220  0.5557 -0.2528  1.2506
 5420TIP3   OH216223   6.899   6.709   4.838 -0.6760  0.3709 -0.3139
 5420TIP3    H116224   6.990   6.691   4.816 -0.5527  0.5957  0.0183
 5420TIP3    H216225   6.857   6.727   4.753 -0.2107  1.1837 -0.3828
 5421TIP3   OH216226   2.047   1.143   2.292  0.2624  0.1448 -0.1602
 5421TIP3    H116227   2.132   1.170   2.256  0.1138  0.1740 -0.4965
 5421TIP3    H216228   2.006   1.093   2.221 -0.8019  1.7445 -0.7427
 5422TIP3   OH216229   4.607   3.476   0.998  0.4703 -0.0209 -0.0451
 5422TIP3    H116230   4.644   3.389   1.008 -1.2033 -0.6224  1.6195
 5422TIP3    H216231   4.558   3.491   1.079 -0.3953  1.9214 -0.8496
 5423TIP3   OH216232   2.868   0.220   4.107 -0.3184 -0.3923 -0.0778
 5423TIP3    H116233   2.963   0.220   4.119 -0.3837  0.9274  0.6072
 5423TIP3    H216234   2.856   0.208   4.013  0.5988  1.1535 -0.4235
 5424TIP3   OH216235   6.162   2.101   0.976  0.2354  0.2561 -0.1792
 5424TIP3    H116236   6.225   2.160   0.935  0.8704 -1.3660 -1.6461
 5424TIP3    H216237   6.214   2.026   1.005 -0.6111  0.2052  1.3376
 5425TIP3   OH216238   2.455   4.486   5.330 -0.0049 -0.2197  0.0096
 5425TIP3    H116239   2.534   4.448   5.370  0.6706 -1.0088 -1.9414
 5425TIP3    H216240   2.470   4.478   5.236 -1.7420  1.0832 -0.4292
 5426TIP3   OH216241   1.226   0.562   4.367  0.0174  0.1811  0.4853
 5426TIP3    H116242   1.146   0.515   4.393  1.0380 -1.8823  0.1197
 5426TIP3    H216243   1.290   0.538   4.435  1.1834 -0.8347 -0.9204
 5427TIP3   OH216244   1.296   1.357   4.451  0.4273  0.9428  0.3453
 5427TIP3    H116245   1.272   1.374   4.361 -0.4336 -4.3123 -0.6989
 5427TIP3    H216246   1.381   1.313   4.446 -0.4563 -1.0923  1.8425
 5428TIP3   OH216247   5.386   3.753   2.353  0.1433  0.1305  0.0086
 5428TIP3    H116248   5.328   3.692   2.306  0.5620  0.4359 -0.9380
 5428TIP3    H216249   5.468   3.705   2.364  0.3022  0.3316 -0.2759
 5429TIP3   OH216250   7.065   3.414   5.784 -0.1387  0.5991  0.7210
 5429TIP3    H116251   7.150   3.451   5.762 -0.6351  0.0739 -2.5830
 5429TIP3    H216252   7.085   3.329   5.823  1.0718 -1.6449 -4.0621
 5430TIP3   OH216253   4.721   0.603   3.636 -0.7477 -0.1398 -0.3006
 5430TIP3    H116254   4.809   0.618   3.671 -0.7845 -0.3098 -0.1315
 5430TIP3    H216255   4.662   0.626   3.708 -0.8088 -1.0051 -0.0571
 5431TIP3   OH216256   1.960   0.162   2.222 -0.0529 -0.1486 -0.1243
 5431TIP3    H116257   2.023   0.231   2.244  1.1212 -0.7835 -1.2917
 5431TIP3    H216258   1.888   0.174   2.283 -0.0797  2.3692 -0.5682
 5432TIP3   OH216259   5.266   1.899   4.040 -0.1324  0.7858 -0.6248
 5432TIP3    H116260   5.215   1.902   4.121  0.3237  0.1116 -0.3036
 5432TIP3    H216261   5.282   1.991   4.018 -1.5025  1.0144 -0.7566
 5433TIP3   OH216262   2.260   3.648   4.655  0.1809  0.2610  0.3130
 5433TIP3    H116263   2.323   3.628   4.725  0.5460 -1.9438 -0.5515
 5433TIP3    H216264   2.275   3.580   4.590 -1.4394  1.1573 -1.0645
 5434TIP3   OH216265   0.321   0.580   2.920 -0.3097  0.1991 -0.3111
 5434TIP3    H116266   0.253   0.647   2.927 -0.9680 -0.3396 -1.2215
 5434TIP3    H216267   0.392   0.611   2.976 -2.3083 -0.4612  2.8003
 5435TIP3   OH216268   6.706   2.040   1.316  0.0470  0.3073 -0.6857
 5435TIP3    H116269   6.697   2.054   1.411  0.0636  2.2653 -0.9310
 5435TIP3    H216270   6.797   2.062   1.297  0.2132 -0.6703 -1.0985
 5436TIP3   OH216271   0.748   4.069   3.711 -0.3844  0.0969 -0.1076
 5436TIP3    H116272   0.806   3.994   3.701  1.2836  1.3109  0.1425
 5436TIP3    H216273   0.740   4.081   3.806  1.4221  1.7353 -0.1202
 5437TIP3   OH216274   4.378   1.391   4.906 -0.1067  0.4390 -0.1184
 5437TIP3    H116275   4.343   1.434   4.827 -0.8627 -2.7006 -1.6272
 5437TIP3    H216276   4.469   1.373   4.884 -0.6299 -1.5190 -0.8413
 5438TIP3   OH216277   6.700   4.976   5.013 -0.4179 -0.0716 -0.3214
 5438TIP3    H116278   6.791   4.949   5.014 -0.7819 -1.5001  1.7068
 5438TIP3    H216279   6.702   5.070   4.994  1.3130 -0.3674 -1.8478
 5439TIP3   OH216280   0.535   4.075   2.487  0.0558  0.6379 -0.3938
 5439TIP3    H116281   0.562   4.104   2.400 -0.2255  1.5384 -0.1930
 5439TIP3    H216282   0.539   4.154   2.541  1.9326 -0.2393  0.8471
 5440TIP3   OH216283   6.234   3.424   0.818 -0.1876  0.2563 -0.6612
 5440TIP3    H116284   6.317   3.378   0.825  0.9109  2.0350 -1.3072
 5440TIP3    H216285   6.172   3.370   0.868  1.8660  0.1582  1.9921
 5441TIP3   OH216286   4.096   5.012   4.203 -0.1991 -0.1247  0.1339
 5441TIP3    H116287   4.154   5.085   4.180 -0.3524 -0.3136 -0.8773
 5441TIP3    H216288   4.079   5.024   4.297  1.6212 -0.1801  0.5054
 5442TIP3   OH216289   4.230   2.365   0.500 -0.3912 -0.4067  0.3097
 5442TIP3    H116290   4.238   2.394   0.409  0.1723  0.8053  0.7146
 5442TIP3    H216291   4.265   2.276   0.500 -2.0444 -1.1065 -0.9682
 5443TIP3   OH216292   5.294   0.825   0.538  0.5183 -0.0460 -0.2863
 5443TIP3    H116293   5.242   0.863   0.466 -0.9296 -0.3024  0.5793
 5443TIP3    H216294   5.383   0.824   0.505 -0.0351  0.3120 -1.8983
 5444TIP3   OH216295   4.821   2.725   1.202 -0.3889 -0.5608  0.0929
 5444TIP3    H116296   4.843   2.685   1.118  1.0650  0.2773  0.0291
 5444TIP3    H216297   4.821   2.653   1.264  2.1259 -0.7325 -0.0217
 5445TIP3   OH216298   3.911   6.449   3.307 -0.3555 -0.0869 -0.0564
 5445TIP3    H116299   3.888   6.489   3.391 -0.7425 -2.2729  0.9732
 5445TIP3    H216300   3.839   6.472   3.249  0.2981  2.1123 -0.0488
 5446TIP3   OH216301   1.008   0.270   1.854  0.7691 -0.2020  0.1641
 5446TIP3    H116302   0.957   0.311   1.784  0.2452 -0.5589  0.3294
 5446TIP3    H216303   1.076   0.333   1.874 -0.4050  0.8856  0.8622
 5447TIP3   OH216304   0.474   4.259   5.487 -0.0301  0.0925  0.2237
 5447TIP3    H116305   0.508   4.312   5.559 -2.2458 -0.7796  2.0272
 5447TIP3    H216306   0.491   4.169   5.512  1.2458 -0.2110 -1.5214
 5448TIP3   OH216307   6.163   1.401   2.390  0.3900 -0.2619  0.2835
 5448TIP3    H116308   6.159   1.383   2.484 -0.9639 -1.0499  0.0950
 5448TIP3    H216309   6.076   1.381   2.358  0.1570  2.1390 -0.7920
 5449TIP3   OH216310   6.181   5.652   5.043  0.5449  0.0675  0.3636
 5449TIP3    H116311   6.210   5.741   5.025  1.1060  0.2072  1.8684
 5449TIP3    H216312   6.086   5.657   5.043  0.5784  0.7451  0.8104
 5450TIP3   OH216313   4.451   3.861   3.949 -0.3782 -0.2520  0.8856
 5450TIP3    H116314   4.537   3.880   3.913 -0.8036  0.7055  0.3207
 5450TIP3    H216315   4.451   3.767   3.964  0.9641 -0.1669  1.4564
 5451TIP3   OH216316   2.476   0.161   4.497 -0.4963  0.5229  0.2582
 5451TIP3    H116317   2.566   0.142   4.521 -0.0706 -0.7929 -2.0959
 5451TIP3    H216318   2.424   0.128   4.571  0.9112  1.4722  1.7265
 5452TIP3   OH216319   2.566   5.774   2.256 -1.1289  0.2201 -0.3159
 5452TIP3    H116320   2.657   5.757   2.283 -1.2360  0.9846  0.5970
 5452TIP3    H216321   2.537   5.692   2.216 -1.0015 -1.1193  2.1348
 5453TIP3   OH216322   4.171   6.547   2.576  0.1314  0.5619  0.0264
 5453TIP3    H116323   4.263   6.520   2.576  0.2638  1.0046 -0.5023
 5453TIP3    H216324   4.122   6.466   2.594  0.4640 -0.2619 -2.3783
 5454TIP3   OH216325   6.489   5.083   2.292 -0.1099 -0.2234 -0.6288
 5454TIP3    H116326   6.451   5.107   2.208 -2.2628  0.1440  0.3703
 5454TIP3    H216327   6.476   4.988   2.298  1.1407 -0.4465 -1.1908
 5455TIP3   OH216328   0.138   4.788   0.479  0.2524 -0.0080 -0.0812
 5455TIP3    H116329   0.117   4.753   0.393  1.8441 -0.4536 -0.3132
 5455TIP3    H216330   0.136   4.883   0.468  2.9260 -0.0351 -1.2917
 5456TIP3   OH216331   3.201   1.989   5.789  0.3613 -0.2663  0.6391
 5456TIP3    H116332   3.110   2.013   5.806 -0.0009 -1.9024  1.2100
 5456TIP3    H216333   3.243   1.992   5.875  0.7208  0.0148  0.4530
 5457TIP3   OH216334   3.051   6.236   4.638 -0.1805  0.1915  0.9065
 5457TIP3    H116335   3.013   6.322   4.652 -0.1609  0.2205  0.7865
 5457TIP3    H216336   3.028   6.186   4.716 -0.5480  0.1781  0.7908
 5458TIP3   OH216337   5.033   6.596   3.201 -0.4077  0.1554  0.5485
 5458TIP3    H116338   5.003   6.683   3.224 -1.5371  0.2691 -1.1903
 5458TIP3    H216339   5.128   6.604   3.193 -0.6352  1.6311 -1.1039
 5459TIP3   OH216340   4.477   3.582   0.503 -0.0926  0.3841 -0.4602
 5459TIP3    H116341   4.395   3.569   0.552 -0.2629  0.2839 -0.7671
 5459TIP3    H216342   4.497   3.674   0.514 -0.7368  0.6201 -1.1245
 5460TIP3   OH216343   6.345   5.882   3.746 -0.1376  0.4408 -0.0114
 5460TIP3    H116344   6.337   5.787   3.752  0.4104  0.4573  1.3848
 5460TIP3    H216345   6.396   5.907   3.823  0.0861  1.8285 -0.5743
 5461TIP3   OH216346   2.412   4.160   0.607  0.2621  0.4109  0.4658
 5461TIP3    H116347   2.485   4.144   0.667  1.1065 -0.4480 -0.7184
 5461TIP3    H216348   2.453   4.163   0.520 -1.0236  0.6335 -0.1633
 5462TIP3   OH216349   3.803   2.998   2.099 -0.5358 -0.2333 -0.4672
 5462TIP3    H116350   3.710   3.006   2.080 -0.2225  1.4495 -1.5497
 5462TIP3    H216351   3.837   3.087   2.090  1.0956 -0.7195  0.4141
 5463TIP3   OH216352   1.336   6.496   2.113  0.2853  0.0892  0.1341
 5463TIP3    H116353   1.269   6.492   2.046 -0.1319  0.7829  0.4993
 5463TIP3    H216354   1.360   6.405   2.128 -2.3206 -0.4555  1.7041
 5464TIP3   OH216355   2.978   6.697   2.723  0.3448  0.6697 -0.6081
 5464TIP3    H116356   3.063   6.697   2.680  0.2724  2.9771 -0.8754
 5464TIP3    H216357   2.916   6.719   2.653 -0.7693 -2.4639 -0.7764
 5465TIP3   OH216358   4.132   4.827   5.132  0.6472  0.0730 -0.0049
 5465TIP3    H116359   4.073   4.811   5.059  1.5586 -1.7787 -0.4072
 5465TIP3    H216360   4.210   4.865   5.093  0.6969  0.1500  0.1678
 5466TIP3   OH216361   6.899   4.333   0.674  0.0910 -0.4393 -0.0256
 5466TIP3    H116362   6.845   4.305   0.748 -2.2548 -1.6823 -2.0281
 5466TIP3    H216363   6.955   4.258   0.655  0.8075 -0.0616  0.5434
 5467TIP3   OH216364   3.310   1.107   2.250  0.6051  0.0333 -0.0609
 5467TIP3    H116365   3.248   1.038   2.272  1.2457 -0.7754 -0.7371
 5467TIP3    H216366   3.333   1.090   2.159  1.1914  0.8255 -0.0723
 5468TIP3   OH216367   5.446   4.350   2.328  0.3802 -0.4235 -0.3400
 5468TIP3    H116368   5.390   4.325   2.402  0.4927 -0.5576 -0.3006
 5468TIP3    H216369   5.448   4.272   2.273  0.8254 -0.5408 -0.1596
 5469TIP3   OH216370   6.327   3.994   0.051 -0.0874 -0.3866  0.1492
 5469TIP3    H116371   6.401   3.984  -0.009 -0.2754  1.4934 -0.4720
 5469TIP3    H216372   6.251   4.004  -0.007 -0.7471 -1.5401  0.7709
 5470TIP3   OH216373   0.797   6.195   2.523 -0.1817  0.6689  0.5151
 5470TIP3    H116374   0.722   6.254   2.517  1.1213  2.2746 -0.7748
 5470TIP3    H216375   0.868   6.249   2.557  0.6753 -0.5786  0.7974
 5471TIP3   OH216376   2.173   1.905   2.172 -0.2838  0.2703  0.7791
 5471TIP3    H116377   2.118   1.836   2.134 -0.0278  0.1091  0.7045
 5471TIP3    H216378   2.251   1.907   2.117 -1.1844  2.0678 -0.5558
 5472TIP3   OH216379   5.890   3.237   0.288 -0.3635  0.2971 -0.3932
 5472TIP3    H116380   5.980   3.264   0.308 -0.2789 -0.3207  0.1213
 5472TIP3    H216381   5.869   3.281   0.206  0.0382  1.2782  0.0126
 5473TIP3   OH216382   3.073   0.457   5.311  0.6273  0.0272 -0.4306
 5473TIP3    H116383   2.997   0.513   5.295  1.0010  0.2743 -1.3981
 5473TIP3    H216384   3.046   0.400   5.384 -0.4277  0.2071 -0.6688
 5474TIP3   OH216385   1.165   1.403   3.601 -0.5824  0.1804  0.4881
 5474TIP3    H116386   1.107   1.340   3.557 -0.3396 -0.1821  0.6816
 5474TIP3    H216387   1.240   1.412   3.543 -2.3157  3.3223 -1.5391
 5475TIP3   OH216388   1.430   3.477   2.643 -0.0597  0.3219 -0.3499
 5475TIP3    H116389   1.337   3.498   2.631  0.0389  0.0157 -1.9586
 5475TIP3    H216390   1.476   3.547   2.596  0.4024 -0.9548 -1.9006
 5476TIP3   OH216391   2.860   4.759   2.629  0.3158 -0.0031  0.1433
 5476TIP3    H116392   2.836   4.851   2.621 -3.1209 -0.8539 -0.7426
 5476TIP3    H216393   2.889   4.750   2.720 -1.5933  1.5248  0.9890
 5477TIP3   OH216394   6.205   1.845   3.418 -0.1598  0.2748  0.0617
 5477TIP3    H116395   6.264   1.864   3.345 -0.1280 -2.0121 -0.5840
 5477TIP3    H216396   6.122   1.822   3.375 -0.1735 -0.9808  0.7236
 5478TIP3   OH216397   1.758   1.566   0.209 -0.5118  0.1230  0.2393
 5478TIP3    H116398   1.848   1.555   0.239  0.1965 -0.2877 -1.8479
 5478TIP3    H216399   1.713   1.488   0.239  0.1293 -0.2219  0.3315
 5479TIP3   OH216400   0.417   1.082   4.143 -0.5183 -0.6189  0.4404
 5479TIP3    H116401   0.371   0.999   4.153 -0.0461 -0.9447  0.0242
 5479TIP3    H216402   0.501   1.068   4.188  0.4419 -1.1219 -1.3933
 5480TIP3   OH216403   5.826   0.654   0.897  0.1422  0.3046  0.8242
 5480TIP3    H116404   5.739   0.686   0.920  0.1217  1.0530 -0.1815
 5480TIP3    H216405   5.863   0.622   0.979 -2.1049 -2.6752  0.8554
 5481TIP3   OH216406   0.232   3.804   1.912  0.1343  0.0301  0.0893
 5481TIP3    H116407   0.163   3.823   1.975 -1.8059 -0.4460 -1.8119
 5481TIP3    H216408   0.261   3.716   1.935  1.2240  0.7707  1.8032
 5482TIP3   OH216409   1.849   6.387   2.398  0.3538  0.3284 -0.2904
 5482TIP3    H116410   1.851   6.439   2.317 -0.4078 -0.6476 -0.9639
 5482TIP3    H216411   1.936   6.398   2.435  0.9368  0.3066 -1.5781
 5483TIP3   OH216412   1.997   1.871   3.722 -0.0895 -0.1773 -0.1587
 5483TIP3    H116413   2.066   1.902   3.663  0.7607 -2.5117 -0.5020
 5483TIP3    H216414   1.923   1.930   3.706  1.8384  2.5795  0.4027
 5484TIP3   OH216415   1.313   1.569   1.339  1.1348 -0.0138  0.4283
 5484TIP3    H116416   1.321   1.607   1.427  0.7544  1.0275  0.0239
 5484TIP3    H216417   1.369   1.492   1.342 -0.9735 -1.6103  2.4464
 5485TIP3   OH216418   4.470   3.865   2.514 -0.3179 -0.4014 -0.2955
 5485TIP3    H116419   4.519   3.858   2.432 -1.1860  3.1433 -1.2738
 5485TIP3    H216420   4.392   3.811   2.501 -0.2735 -0.1526 -1.6889
 5486TIP3   OH216421   4.038   3.613   3.837  0.3941  0.1740  0.0947
 5486TIP3    H116422   4.100   3.678   3.803 -1.6162  1.3219 -1.6003
 5486TIP3    H216423   3.984   3.662   3.899 -0.4019 -0.1487 -0.3317
 5487TIP3   OH216424   0.496   0.708   0.173 -0.3495 -0.0942  0.3994
 5487TIP3    H116425   0.407   0.723   0.204 -1.2072 -0.4987 -1.6913
 5487TIP3    H216426   0.498   0.615   0.149 -1.2264  0.8841 -4.6187
 5488TIP3   OH216427   6.531   5.005   5.671 -0.1065 -0.9308  0.1678
 5488TIP3    H116428   6.471   4.932   5.686 -1.3493  0.0929  0.3947
 5488TIP3    H216429   6.599   4.970   5.614 -1.5377 -1.8506 -1.0389
 5489TIP3   OH216430   4.860   1.166   0.492  0.3915  0.3570 -0.1990
 5489TIP3    H116431   4.777   1.181   0.448 -0.0258  0.2699  0.5485
 5489TIP3    H216432   4.875   1.245   0.544  1.1180  0.6639 -0.8499
 5490TIP3   OH216433   0.027   4.973   3.109  0.2255 -0.1213  0.2453
 5490TIP3    H116434  -0.047   5.028   3.083  0.6690 -0.1887 -1.2530
 5490TIP3    H216435   0.101   5.008   3.060  1.1210 -0.2888  1.4443
 5491TIP3   OH216436   6.951   5.322   1.506 -0.0874  0.2570  0.5618
 5491TIP3    H116437   7.018   5.386   1.481  0.4037 -1.6042 -3.5875
 5491TIP3    H216438   6.999   5.252   1.550  0.4137 -0.1253 -0.5670
 5492TIP3   OH216439   2.861   1.079   3.133  0.3716  0.5157  0.5804
 5492TIP3    H116440   2.928   1.145   3.153  0.6206  0.1421  0.9848
 5492TIP3    H216441   2.911   0.998   3.120  0.3457  0.8667 -2.4092
 5493TIP3   OH216442   5.566   1.550   4.383 -0.8868  0.0860  0.1282
 5493TIP3    H116443   5.579   1.543   4.288  0.3969  1.5666  0.1622
 5493TIP3    H216444   5.485   1.600   4.392 -1.0116 -0.0550 -0.1761
 5494TIP3   OH216445   2.044   4.909   3.681  0.6114 -0.3518  0.5418
 5494TIP3    H116446   2.077   4.988   3.724  0.8162  0.1707 -0.5461
 5494TIP3    H216447   2.122   4.861   3.655  0.5089  0.0724 -0.5682
 5495TIP3   OH216448   0.975   3.921   3.977 -0.6621 -0.1714  0.3158
 5495TIP3    H116449   0.934   3.872   3.905 -2.9262  1.2363  0.5541
 5495TIP3    H216450   1.059   3.950   3.941  0.8825 -4.1536  0.1886
 5496TIP3   OH216451   4.639   6.380   4.092  0.2325 -0.3934 -0.3773
 5496TIP3    H116452   4.564   6.324   4.112  0.0849 -0.2631 -0.5620
 5496TIP3    H216453   4.650   6.435   4.170  2.0913 -2.5262  1.0011
 5497TIP3   OH216454   4.118   0.092   5.842 -0.2335  0.1811  0.1961
 5497TIP3    H116455   4.158   0.172   5.807  0.1288  0.6459  1.5862
 5497TIP3    H216456   4.184   0.024   5.828 -0.7728 -0.0256 -1.5099
 5498TIP3   OH216457   1.229   0.736   0.964 -0.7145  0.1788  0.3989
 5498TIP3    H116458   1.180   0.674   1.019 -0.2198 -0.3115  0.3000
 5498TIP3    H216459   1.245   0.687   0.882  0.1017  0.2593  0.5040
 5499TIP3   OH216460   3.029   6.368   5.229  0.5301  0.4048  0.2673
 5499TIP3    H116461   2.998   6.415   5.306 -2.3502 -0.1841 -0.3910
 5499TIP3    H216462   3.122   6.352   5.246  0.4241  1.8821  2.7481
 5500TIP3   OH216463   0.823   2.387   3.866 -0.1624  0.1335  0.2335
 5500TIP3    H116464   0.811   2.373   3.960 -1.0428  0.3885  0.1652
 5500TIP3    H216465   0.877   2.313   3.838  0.0490  0.0134  0.9171
 5501TIP3   OH216466   3.779   5.713   3.053 -0.0190  0.0276 -0.0953
 5501TIP3    H116467   3.841   5.686   2.986 -0.5187  1.5391 -1.2223
 5501TIP3    H216468   3.814   5.677   3.135  1.3644 -0.6400 -0.9502
 5502TIP3   OH216469   3.495   2.456   3.083 -0.0552  0.5596  0.2312
 5502TIP3    H116470   3.496   2.362   3.063  1.8043  0.3460  1.1365
 5502TIP3    H216471   3.403   2.476   3.101 -0.4346 -1.1505  0.3502
 5503TIP3   OH216472   3.441   5.080   2.738 -0.4785  0.3518  0.3467
 5503TIP3    H116473   3.417   5.157   2.687 -0.1055  0.7667  0.7858
 5503TIP3    H216474   3.523   5.104   2.781 -0.7409 -0.0199  1.0692
 5504TIP3   OH216475   1.789   6.779   3.170 -0.2407 -0.0572  1.2322
 5504TIP3    H116476   1.741   6.785   3.253 -0.8345 -0.6312  0.9392
 5504TIP3    H216477   1.722   6.759   3.105  0.2002  0.5776  0.5774
 5505TIP3   OH216478   2.325   1.752   4.377 -0.2470 -0.5060  0.4031
 5505TIP3    H116479   2.360   1.700   4.305 -0.8658 -1.6264  0.8956
 5505TIP3    H216480   2.383   1.734   4.450  0.3455  0.5866  0.2198
 5506TIP3   OH216481   7.219   4.289   0.074 -0.1744  0.8173 -0.1981
 5506TIP3    H116482   7.133   4.284   0.032 -0.8549 -0.4756  1.2639
 5506TIP3    H216483   7.246   4.198   0.085  2.4188  1.1472 -2.5373
 5507TIP3   OH216484   0.680   0.879   4.685 -0.1741 -0.2736  0.3849
 5507TIP3    H116485   0.743   0.899   4.755  0.2479  1.4030 -0.4222
 5507TIP3    H216486   0.642   0.964   4.663  0.0902 -0.6692 -1.7809
 5508TIP3   OH216487   6.679   1.267   1.896  0.4287  0.8292  0.3049
 5508TIP3    H116488   6.675   1.348   1.946  1.0769  1.0935 -0.0465
 5508TIP3    H216489   6.761   1.274   1.847  0.7902 -0.3107  0.7255
 5509TIP3   OH216490   1.456   6.337   5.518 -0.0937 -0.2009 -0.0448
 5509TIP3    H116491   1.510   6.257   5.512 -0.7411 -0.6077 -0.5722
 5509TIP3    H216492   1.463   6.377   5.432 -0.2797 -0.0251  0.0222
 5510TIP3   OH216493   1.639   3.625   0.727  0.1247 -0.2052 -0.0126
 5510TIP3    H116494   1.723   3.594   0.694 -0.0981  0.4003 -1.1954
 5510TIP3    H216495   1.577   3.608   0.656 -0.2838  1.5447 -0.1294
 5511TIP3   OH216496   5.624   5.356   3.301  0.6523 -0.1140  0.2148
 5511TIP3    H116497   5.685   5.411   3.253  0.1930 -0.1089 -0.3698
 5511TIP3    H216498   5.541   5.364   3.253  0.2256 -0.2268  0.9158
 5512TIP3   OH216499   3.117   6.616   5.545  0.1853  0.7824  0.0673
 5512TIP3    H116500   3.110   6.639   5.452 -0.2459 -0.4069 -0.2257
 5512TIP3    H216501   3.028   6.627   5.579 -0.1678 -0.8540 -0.2167
 5513TIP3   OH216502   0.487   3.244   1.695 -0.2712  0.2127  0.3767
 5513TIP3    H116503   0.408   3.276   1.651 -0.6710  0.8191  1.4839
 5513TIP3    H216504   0.454   3.188   1.766  0.3911 -1.6194 -0.6920
 5514TIP3   OH216505   0.767   6.075   3.702  0.2302 -0.5616 -0.0147
 5514TIP3    H116506   0.684   6.102   3.662  1.5047  2.3382 -0.9174
 5514TIP3    H216507   0.750   6.075   3.796 -0.8372 -0.2038 -0.1969
 5515TIP3   OH216508   5.982   2.218   5.313 -0.5935 -0.3417 -0.1071
 5515TIP3    H116509   5.929   2.157   5.363 -0.6543  0.8111  1.2833
 5515TIP3    H216510   5.954   2.205   5.222 -1.3749 -1.5837  0.2940
 5516TIP3   OH216511   5.937   5.952   0.246 -0.5350 -0.3446  0.5582
 5516TIP3    H116512   5.959   6.019   0.311  2.1420  1.1037 -1.6237
 5516TIP3    H216513   5.988   5.875   0.272  0.9801  0.4131 -0.0319
 5517TIP3   OH216514   5.891   4.048   5.237  0.1393 -0.6359  0.0892
 5517TIP3    H116515   5.907   4.093   5.154  0.0633  1.3946  1.0947
 5517TIP3    H216516   5.796   4.033   5.239  0.0876 -0.3328 -0.0305
 5518TIP3   OH216517   1.246   0.354   0.456 -0.9431  0.3064 -0.1163
 5518TIP3    H116518   1.209   0.375   0.542  0.8663  1.3973  0.4391
 5518TIP3    H216519   1.202   0.272   0.431 -0.9446 -0.4798  2.2153
 5519TIP3   OH216520   3.036   1.894   0.913  0.0667 -0.0104 -0.2413
 5519TIP3    H116521   3.083   1.971   0.943  0.2992 -0.1358 -0.2713
 5519TIP3    H216522   3.006   1.851   0.993 -0.3828  0.3076 -0.2420
 5520TIP3   OH216523   1.870   5.546   3.744  0.0458  0.7532  0.5552
 5520TIP3    H116524   1.808   5.577   3.678  1.1071  1.6910 -0.0475
 5520TIP3    H216525   1.906   5.626   3.782  1.5407  0.2640  0.2387
 5521TIP3   OH216526   1.817   3.213   0.063  0.5353 -0.3760  0.0959
 5521TIP3    H116527   1.817   3.163   0.145 -0.2142 -0.0133  0.3264
 5521TIP3    H216528   1.862   3.294   0.085  0.9844 -0.5855 -0.0477
 5522TIP3   OH216529   1.549   4.149   3.704  0.4457  0.6114  0.0491
 5522TIP3    H116530   1.602   4.185   3.633 -0.5182  2.7242  0.3115
 5522TIP3    H216531   1.481   4.098   3.660  1.0925  0.1469 -0.4261
 5523TIP3   OH216532   6.250   2.248   3.771 -0.0835 -0.0242 -0.1425
 5523TIP3    H116533   6.202   2.179   3.725 -2.4624 -0.4653  2.7621
 5523TIP3    H216534   6.264   2.214   3.859  0.2553  2.5055  0.8598
 5524TIP3   OH216535   0.625   5.461   1.867 -0.5332 -0.0718  0.3256
 5524TIP3    H116536   0.557   5.487   1.806 -1.5384  0.4705  1.6398
 5524TIP3    H216537   0.667   5.385   1.826  0.4395  1.6774 -2.1498
 5525TIP3   OH216538   1.452   0.967   2.723 -0.3351 -0.2552 -0.1091
 5525TIP3    H116539   1.382   1.002   2.779 -1.1899  1.3368 -2.0732
 5525TIP3    H216540   1.432   1.000   2.636  1.4816 -1.8852 -1.2140
 5526TIP3   OH216541   4.608   1.097   1.314  0.0284 -0.9505  0.6410
 5526TIP3    H116542   4.552   1.127   1.386  1.9672  1.1160  1.3968
 5526TIP3    H216543   4.694   1.086   1.354  1.4445  1.3260 -1.4768
 5527TIP3   OH216544   2.972   4.616   3.181 -0.0076 -0.2400 -0.0378
 5527TIP3    H116545   3.067   4.614   3.170 -0.0407 -0.5189 -0.2946
 5527TIP3    H216546   2.947   4.524   3.195 -0.3706 -0.3348 -1.1701
 5528TIP3   OH216547   4.965   4.120   2.622 -0.3807 -0.2225  0.0527
 5528TIP3    H116548   5.054   4.103   2.651 -0.1587 -0.7442 -0.8833
 5528TIP3    H216549   4.974   4.139   2.528 -1.3983 -1.8357 -0.4091
 5529TIP3   OH216550   2.917   3.744   2.352  0.0316  0.2256  0.0502
 5529TIP3    H116551   2.871   3.807   2.407 -0.0635 -0.2728  0.5586
 5529TIP3    H216552   3.000   3.729   2.396 -0.7383 -1.4777  1.0366
 5530TIP3   OH216553   1.468   4.923   5.543  0.2651 -0.3885  0.0201
 5530TIP3    H116554   1.465   4.875   5.625 -2.0444 -1.1687 -0.4713
 5530TIP3    H216555   1.412   4.999   5.557  2.2760  1.1725  0.1134
 5531TIP3   OH216556   6.226   2.649   0.527 -0.0377  0.4251  0.0997
 5531TIP3    H116557   6.166   2.640   0.601  0.1067 -0.9818  0.0668
 5531TIP3    H216558   6.289   2.715   0.555  0.3245 -0.4642  1.4455
 5532TIP3   OH216559   5.418   2.232   1.545 -0.0519  0.4024  0.6063
 5532TIP3    H116560   5.478   2.206   1.616  0.2837  0.2032  0.2503
 5532TIP3    H216561   5.400   2.150   1.499  0.1575  0.6240  0.1300
 5533TIP3   OH216562   5.575   6.713   5.445  0.2324 -0.0022  0.1026
 5533TIP3    H116563   5.552   6.625   5.473  0.6934 -0.5735 -1.2466
 5533TIP3    H216564   5.640   6.742   5.509  0.0807 -0.6437  0.5536
 5534TIP3   OH216565   7.186   1.701   0.850  0.0989  0.6016 -0.2534
 5534TIP3    H116566   7.181   1.617   0.803 -1.0770  1.6204 -2.0518
 5534TIP3    H216567   7.141   1.684   0.933  1.6807 -1.0764  0.3250
 5535TIP3   OH216568   3.673   6.208   1.870  0.1358 -0.5848  0.1064
 5535TIP3    H116569   3.598   6.201   1.930 -0.3473 -0.9726 -0.5310
 5535TIP3    H216570   3.739   6.256   1.920 -0.4342 -0.4828  0.7794
 5536TIP3   OH216571   4.490   4.032   4.143 -0.3384 -0.4218 -0.5431
 5536TIP3    H116572   4.574   4.043   4.098 -0.4380  0.9454 -0.4381
 5536TIP3    H216573   4.448   3.959   4.097  0.6964 -0.8228 -0.8939
 5537TIP3   OH216574   0.802   5.692   4.974 -0.4571  0.4414  0.1400
 5537TIP3    H116575   0.721   5.640   4.979  0.5866 -1.6543 -2.3455
 5537TIP3    H216576   0.819   5.700   4.880  2.4962  0.3227  0.5704
 5538TIP3   OH216577   4.689   2.788   5.061  0.7235  0.9427 -0.4314
 5538TIP3    H116578   4.774   2.746   5.046  0.1941  0.3449 -1.9093
 5538TIP3    H216579   4.629   2.715   5.076  0.3322  1.3356 -0.0489
 5539TIP3   OH216580   3.579   1.652   1.603  0.3397 -0.8570 -0.0433
 5539TIP3    H116581   3.552   1.733   1.559 -0.4636 -0.1405  1.6628
 5539TIP3    H216582   3.503   1.626   1.654 -0.0319 -3.7181 -1.8757
 5540TIP3   OH216583   5.902   4.326   3.014 -0.3692  0.2350 -0.2973
 5540TIP3    H116584   5.837   4.267   2.975  0.0074 -0.6744  0.4256
 5540TIP3    H216585   5.882   4.411   2.976  0.0886 -0.6244 -2.6628
 5541TIP3   OH216586   6.569   4.751   3.426  0.1528  0.1150 -0.0835
 5541TIP3    H116587   6.535   4.773   3.512  0.6267 -0.7784  0.3367
 5541TIP3    H216588   6.546   4.827   3.371 -0.3510  0.5822  0.7610
 5542TIP3   OH216589   4.790   1.921   4.350  0.5576  0.2299  0.8415
 5542TIP3    H116590   4.764   2.003   4.307  0.4333 -0.3349 -0.1890
 5542TIP3    H216591   4.868   1.893   4.303  0.5384 -0.3034  1.1236
 5543TIP3   OH216592   5.092   6.705   4.483  0.2807  0.0521  0.5531
 5543TIP3    H116593   5.024   6.768   4.505  0.0218 -0.3570  0.9269
 5543TIP3    H216594   5.046   6.623   4.466  0.2850  0.6225 -2.9672
 5544TIP3   OH216595   1.169   0.402   1.500 -0.1700 -0.1450  0.3409
 5544TIP3    H116596   1.082   0.396   1.541 -0.7763  1.0688 -0.7039
 5544TIP3    H216597   1.213   0.321   1.527 -1.7436 -0.9614  0.6269
 5545TIP3   OH216598   1.713   6.713   5.132 -0.4830 -0.0656  0.1206
 5545TIP3    H116599   1.799   6.751   5.113 -0.5577 -0.3042 -0.7231
 5545TIP3    H216600   1.654   6.789   5.139 -0.4492  0.0394 -0.6156
 5546TIP3   OH216601   3.743   1.869   2.634  0.2543 -0.1054 -0.3289
 5546TIP3    H116602   3.778   1.925   2.565 -1.1832  0.3017 -0.7680
 5546TIP3    H216603   3.817   1.854   2.693  1.3586  0.0351 -1.6264
 5547TIP3   OH216604   6.828   3.542   3.573 -0.1027 -0.3113  0.3963
 5547TIP3    H116605   6.909   3.561   3.621 -0.1533 -2.7999  1.5944
 5547TIP3    H216606   6.780   3.625   3.574  1.3313  0.5650  1.8224
 5548TIP3   OH216607   5.943   2.220   2.303  0.1882  0.0134  0.2618
 5548TIP3    H116608   5.935   2.132   2.266  0.0859  0.8174 -1.7576
 5548TIP3    H216609   6.037   2.235   2.310  0.2062 -0.5916  1.5235
 5549TIP3   OH216610   5.930   2.604   5.440  0.2645  0.7801  0.2195
 5549TIP3    H116611   5.915   2.574   5.530 -0.5683 -0.5687 -0.3263
 5549TIP3    H216612   5.842   2.609   5.403  0.6740 -0.0701 -0.9248
 5550TIP3   OH216613   2.534   0.445   1.659 -0.4701 -0.2886 -0.2301
 5550TIP3    H116614   2.583   0.394   1.724 -1.6748 -0.2483  0.7421
 5550TIP3    H216615   2.442   0.431   1.683 -0.8420  2.3215  0.0718
 5551TIP3   OH216616   4.415   5.433   1.068 -0.1425 -0.1863 -0.8819
 5551TIP3    H116617   4.328   5.396   1.086 -0.8000  0.2425 -2.9448
 5551TIP3    H216618   4.441   5.474   1.151 -0.9214 -2.1530  0.4271
 5552TIP3   OH216619   1.537   1.707   0.110 -0.0074 -0.4995 -0.1244
 5552TIP3    H116620   1.610   1.660   0.150  1.3162  0.1007 -1.7246
 5552TIP3    H216621   1.508   1.651   0.039  0.8380  0.5219 -1.3284
 5553TIP3   OH216622   1.737   0.178   2.380  0.5613  0.0261  0.3181
 5553TIP3    H116623   1.720   0.229   2.459  1.5980 -0.2523  0.7378
 5553TIP3    H216624   1.671   0.108   2.381 -0.5907  1.0855 -0.0361
 5554TIP3   OH216625   5.612   0.094   1.632  0.2003 -0.0671 -0.0510
 5554TIP3    H116626   5.621   0.189   1.643  0.8480 -0.2325  0.9359
 5554TIP3    H216627   5.614   0.081   1.537 -0.9782  0.9980 -0.2485
 5555TIP3   OH216628   6.193   0.843   1.944  0.1952 -0.2611  0.0360
 5555TIP3    H116629   6.169   0.859   2.035 -0.2719 -1.7569  0.2067
 5555TIP3    H216630   6.257   0.772   1.948  2.4584  1.6131 -0.6344
 5556TIP3   OH216631   4.584   5.267   1.737 -0.3280 -0.3060 -0.2460
 5556TIP3    H116632   4.656   5.215   1.699  0.9546  0.0943  1.5416
 5556TIP3    H216633   4.516   5.202   1.755 -0.0690 -0.8386 -1.0783
 5557TIP3   OH216634   1.627   6.338   0.490 -0.2454  0.3303 -0.1853
 5557TIP3    H116635   1.600   6.273   0.555  0.0067  0.6798  0.2835
 5557TIP3    H216636   1.661   6.411   0.543  0.9603  0.1921 -0.7381
 5558TIP3   OH216637   0.822   5.192   1.187 -0.0210 -0.4705 -0.4376
 5558TIP3    H116638   0.817   5.259   1.256 -0.4141 -1.7305  0.7926
 5558TIP3    H216639   0.743   5.207   1.134 -1.1847 -1.2043  1.0284
 5559TIP3   OH216640   1.759   0.029   4.681 -0.3215  0.0441  0.4868
 5559TIP3    H116641   1.773   0.058   4.771  1.1310 -0.8103  0.5679
 5559TIP3    H216642   1.715   0.103   4.639  0.4259  1.0957  1.4942
 5560TIP3   OH216643   5.417   2.214   4.952 -0.0789  0.3641  0.5439
 5560TIP3    H116644   5.506   2.241   4.976  0.3044 -0.3552 -0.0631
 5560TIP3    H216645   5.393   2.271   4.879 -0.7403  1.6366  1.6855
 5561TIP3   OH216646   4.969   3.577   0.287  0.1534  0.5942  0.0864
 5561TIP3    H116647   4.878   3.572   0.316  0.7523  1.6466  2.3811
 5561TIP3    H216648   5.008   3.496   0.320  0.6362  1.4094  1.6527
 5562TIP3   OH216649   1.065   6.482   3.258 -0.6417 -0.2350 -0.2777
 5562TIP3    H116650   1.133   6.463   3.323 -0.8085 -2.0324 -0.5875
 5562TIP3    H216651   1.005   6.540   3.304 -0.0258 -0.3488  0.7155
 5563TIP3   OH216652   1.266   1.215   1.744  0.0890  0.5341  0.5303
 5563TIP3    H116653   1.346   1.184   1.701  0.3415  1.2743  0.4620
 5563TIP3    H216654   1.220   1.265   1.677  0.5728  1.8486  1.1542
 5564TIP3   OH216655   5.405   4.539   1.348 -0.1364 -0.3581 -0.3769
 5564TIP3    H116656   5.475   4.579   1.400  0.4452 -1.6656 -0.1220
 5564TIP3    H216657   5.412   4.446   1.366 -1.6068 -0.5768 -0.7836
 5565TIP3   OH216658   0.756   1.235   4.492  0.1472  0.0098 -0.0693
 5565TIP3    H116659   0.825   1.245   4.557  2.0028 -2.3330 -1.4986
 5565TIP3    H216660   0.689   1.182   4.535 -1.0909  2.6378  1.4651
 5566TIP3   OH216661   5.341   5.820   1.195 -0.5175  0.1451 -0.7805
 5566TIP3    H116662   5.418   5.815   1.138 -1.1580  2.2722 -1.9459
 5566TIP3    H216663   5.291   5.741   1.175  1.2524 -1.2174 -0.0831
 5567TIP3   OH216664   6.697   4.179   0.214 -0.5011 -0.3353  0.3153
 5567TIP3    H116665   6.639   4.221   0.277  0.1875 -0.9889  1.4146
 5567TIP3    H216666   6.736   4.106   0.262 -1.9422 -2.5244 -1.6308
 5568TIP3   OH216667   0.024   2.561   5.673  0.1089 -0.0325  0.0714
 5568TIP3    H116668   0.106   2.528   5.638  0.2901  0.9244 -0.4453
 5568TIP3    H216669  -0.043   2.503   5.637  0.5229 -0.6871  0.3236
 5569TIP3   OH216670   0.855   4.449   3.284  0.1425 -0.3078 -0.0388
 5569TIP3    H116671   0.848   4.411   3.372 -0.6724 -0.8250 -0.3216
 5569TIP3    H216672   0.923   4.516   3.293  2.5637 -2.6408  0.1614
 5570TIP3   OH216673   0.833   5.237   5.216 -0.3123 -0.3887 -0.4576
 5570TIP3    H116674   0.869   5.196   5.137  0.1461 -2.2406  0.6639
 5570TIP3    H216675   0.881   5.197   5.288 -0.7075  1.2858  0.7884
 5571TIP3   OH216676   2.217   1.253   1.087 -0.0742  0.4459  0.3195
 5571TIP3    H116677   2.139   1.286   1.041  0.5684  1.3934 -0.1336
 5571TIP3    H216678   2.266   1.205   1.021 -0.5801 -0.7366  0.7704
 5572TIP3   OH216679   1.272   0.105   5.064 -0.1044 -0.2726 -0.0190
 5572TIP3    H116680   1.223   0.028   5.093  0.0757 -0.8453 -1.1374
 5572TIP3    H216681   1.236   0.178   5.114  0.9484 -1.3175  2.4338
 5573TIP3   OH216682   1.133   0.108   3.461 -0.6121 -0.1389  0.1927
 5573TIP3    H116683   1.045   0.141   3.481 -0.3700 -0.1678  1.3805
 5573TIP3    H216684   1.190   0.185   3.466 -0.4815 -0.2218  0.0013
 5574TIP3   OH216685   4.471   0.524   0.782 -0.1808 -0.7617 -0.1549
 5574TIP3    H116686   4.443   0.534   0.692  0.8187 -1.8999 -0.6265
 5574TIP3    H216687   4.504   0.434   0.787 -2.2373 -1.4998  1.9008
 5575TIP3   OH216688   2.936   2.970   1.076  0.4502 -1.0906 -0.4707
 5575TIP3    H116689   3.014   2.984   1.022  0.2333 -0.3890 -0.6007
 5575TIP3    H216690   2.961   3.002   1.163 -1.1297  3.5918 -1.4829
 5576TIP3   OH216691   0.877   0.905   0.575 -0.1613  0.3803 -0.2081
 5576TIP3    H116692   0.852   0.817   0.546  1.7213  0.1198 -1.1493
 5576TIP3    H216693   0.948   0.890   0.638 -0.8427  1.1851  0.7839
 5577TIP3   OH216694   2.511   3.234   1.168  0.2686 -0.2002 -0.7149
 5577TIP3    H116695   2.559   3.286   1.232 -0.3328 -0.2176 -0.2410
 5577TIP3    H216696   2.548   3.146   1.177 -0.6670 -0.4949  0.5163
 5578TIP3   OH216697   6.099   4.909   0.080 -0.0381  0.2292  0.2892
 5578TIP3    H116698   6.055   4.876   0.158 -0.6347 -0.5630 -0.3703
 5578TIP3    H216699   6.048   4.986   0.055  2.1180  2.6129  2.5903
 5579TIP3   OH216700   6.098   5.279   5.072 -0.4585  0.0857  0.3310
 5579TIP3    H116701   6.160   5.319   5.011  0.0677 -1.6277 -0.3212
 5579TIP3    H216702   6.116   5.322   5.156  0.3029  0.9521 -0.2558
 5580TIP3   OH216703   1.760   4.302   2.120 -0.0529  0.7121 -0.5812
 5580TIP3    H116704   1.835   4.360   2.131 -0.1579  0.4534  2.1455
 5580TIP3    H216705   1.798   4.216   2.101  0.1621  1.1490 -2.3846
 5581TIP3   OH216706   2.963   3.679   5.749  0.1590  0.3089 -0.4491
 5581TIP3    H116707   2.904   3.736   5.701 -1.3675  0.3383  1.3675
 5581TIP3    H216708   2.911   3.600   5.767  0.9560 -0.0448  0.4003
 5582TIP3   OH216709   5.698   0.190   5.385 -0.1368 -0.1827  0.3423
 5582TIP3    H116710   5.724   0.227   5.469 -0.4064 -0.9483  0.7787
 5582TIP3    H216711   5.767   0.126   5.365  0.4176  0.6614 -0.4840
 5583TIP3   OH216712   4.485   4.346   1.118  0.0172  0.4861 -0.1326
 5583TIP3    H116713   4.491   4.411   1.049  2.1705  1.5014  0.9160
 5583TIP3    H216714   4.541   4.274   1.090 -0.4803  0.1223 -0.2132
 5584TIP3   OH216715   2.687   4.745   5.306 -0.0883 -0.3587 -0.2712
 5584TIP3    H116716   2.666   4.705   5.221 -1.0246  0.3316 -0.3870
 5584TIP3    H216717   2.663   4.837   5.295 -0.1239 -0.2422  0.7182
 5585TIP3   OH216718   1.353   0.458   3.893  0.2791 -0.4882 -0.0789
 5585TIP3    H116719   1.260   0.459   3.871  0.5565  1.0507 -1.4124
 5585TIP3    H216720   1.357   0.492   3.982 -0.4131 -0.1010 -0.1862
 5586TIP3   OH216721   3.563   4.877   3.847  0.1405 -0.5513 -0.1118
 5586TIP3    H116722   3.620   4.815   3.894  0.8024 -0.5529 -0.8914
 5586TIP3    H216723   3.503   4.821   3.799 -1.7285 -0.5580  2.0614
 5587TIP3   OH216724   2.791   2.573   4.158 -0.6144  0.6046  0.2826
 5587TIP3    H116725   2.882   2.585   4.185 -0.4197  0.6369 -0.3791
 5587TIP3    H216726   2.794   2.506   4.090 -1.1738  0.0699  0.7626
 5588TIP3   OH216727   6.762   5.005   5.807 -0.2705 -0.6676 -0.1831
 5588TIP3    H116728   6.775   5.099   5.820 -1.6316 -0.4731 -0.1306
 5588TIP3    H216729   6.667   4.994   5.802 -0.0791 -1.7439 -2.4058
 5589TIP3   OH216730   0.709   3.751   5.479 -0.1536 -0.0420 -0.1251
 5589TIP3    H116731   0.702   3.823   5.417  1.7824  3.5069  3.3887
 5589TIP3    H216732   0.801   3.727   5.478 -0.4165 -1.1260  0.2253
 5590TIP3   OH216733   5.156   6.210   5.233  0.1944  0.7259  0.1382
 5590TIP3    H116734   5.161   6.136   5.172  0.2690  1.5725 -0.9166
 5590TIP3    H216735   5.245   6.217   5.269  1.1906  2.3832 -2.3544
 5591TIP3   OH216736   1.734   4.896   4.921  0.2759 -0.4308 -0.3558
 5591TIP3    H116737   1.699   4.983   4.938  0.3756 -0.1465 -1.5112
 5591TIP3    H216738   1.756   4.861   5.007  1.6587  1.2882  0.0462
 5592TIP3   OH216739   6.858   2.850   5.672  0.2557  0.2100 -0.5420
 5592TIP3    H116740   6.783   2.902   5.642 -0.3940 -0.8155 -0.7285
 5592TIP3    H216741   6.888   2.895   5.751  0.1703  1.2872 -1.1037
 5593TIP3   OH216742   3.452   3.658   0.372  0.4005  0.1992 -0.2229
 5593TIP3    H116743   3.465   3.570   0.406  0.7877  0.4711  0.3607
 5593TIP3    H216744   3.508   3.713   0.427 -0.6895  0.9663  0.1603
 5594TIP3   OH216745   0.893   3.465   5.846 -0.3211  0.0575  0.3747
 5594TIP3    H116746   0.940   3.548   5.837 -1.1151  0.4699 -0.1201
 5594TIP3    H216747   0.947   3.413   5.906  0.2918  0.8520  0.5320
 5595TIP3   OH216748   4.353   6.507   4.377  0.0673 -0.4342 -0.0089
 5595TIP3    H116749   4.407   6.430   4.394 -0.5975 -0.6430  1.2945
 5595TIP3    H216750   4.312   6.527   4.461 -2.1890 -0.5259 -1.0068
 5596TIP3   OH216751   4.771   6.045   1.744 -0.2770  0.1082  0.3019
 5596TIP3    H116752   4.839   6.059   1.810 -0.6532  0.2531  0.6608
 5596TIP3    H216753   4.720   6.126   1.744  0.9250  0.9327 -1.6117
 5597TIP3   OH216754   0.305   0.669   4.831 -0.1727  0.5734 -0.1637
 5597TIP3    H116755   0.325   0.709   4.916 -2.9410  1.3417  0.2048
 5597TIP3    H216756   0.240   0.602   4.851  0.1789 -0.1903 -1.5222
 5598TIP3   OH216757   4.309   5.712   4.133  0.1544  0.2693  0.6087
 5598TIP3    H116758   4.221   5.680   4.113  0.3096  0.2480 -0.0448
 5598TIP3    H216759   4.367   5.640   4.106  0.3715  0.2653  1.0786
 5599TIP3   OH216760   5.014   4.398   2.200 -0.0865 -0.0101 -0.0735
 5599TIP3    H116761   5.077   4.351   2.146  0.5674  0.1516  0.5374
 5599TIP3    H216762   5.067   4.446   2.264 -0.7355  1.3309 -0.4884
 5600TIP3   OH216763   0.471   1.908   2.390  0.2986 -0.2557  0.1326
 5600TIP3    H116764   0.528   1.981   2.367  0.4896 -0.2804  0.5111
 5600TIP3    H216765   0.522   1.830   2.368  1.7423 -0.3763  3.2692
 5601TIP3   OH216766   6.453   4.416   1.047  0.3274  0.0901 -0.1231
 5601TIP3    H116767   6.461   4.384   0.957  2.3437 -2.2516  0.7752
 5601TIP3    H216768   6.536   4.393   1.089 -1.4049 -1.1548  2.9996
 5602TIP3   OH216769   3.378   1.536   1.282  0.3905 -0.0068 -0.2100
 5602TIP3    H116770   3.384   1.617   1.334  1.6701 -0.7916  0.9461
 5602TIP3    H216771   3.394   1.466   1.345 -2.0125 -1.3040 -0.9184
 5603TIP3   OH216772   4.130   3.783   5.661  1.1636 -0.0352 -0.6569
 5603TIP3    H116773   4.176   3.699   5.667  1.6572  0.3262  1.3230
 5603TIP3    H216774   4.198   3.849   5.674  0.5463  0.6267 -0.7351
 5604TIP3   OH216775   6.261   4.657   3.620  0.4503 -0.1195 -0.7313
 5604TIP3    H116776   6.264   4.598   3.545  0.5437  1.2886 -1.8729
 5604TIP3    H216777   6.214   4.608   3.687 -0.9114 -0.8963 -2.1840
 5605TIP3   OH216778   0.385   0.339   2.417 -0.1117 -0.1264 -0.6943
 5605TIP3    H116779   0.363   0.404   2.350 -1.9219 -0.5828 -0.5994
 5605TIP3    H216780   0.352   0.376   2.499  0.5513 -0.3368 -0.3221
 5606TIP3   OH216781   6.194   6.666   5.727  0.2244 -0.0114 -1.1967
 5606TIP3    H116782   6.238   6.585   5.754  0.5655  0.4142 -0.4531
 5606TIP3    H216783   6.256   6.708   5.668 -0.4094 -0.8105 -2.4733
 5607TIP3   OH216784   4.576   5.024   5.371 -0.7650 -0.2235 -0.1441
 5607TIP3    H116785   4.526   5.105   5.371 -0.6616 -0.1537  0.5999
 5607TIP3    H216786   4.653   5.043   5.317 -1.1942 -0.1234 -0.7326
 5608TIP3   OH216787   0.188   0.721   4.590  0.5726 -0.1494  0.0604
 5608TIP3    H116788   0.203   0.650   4.528 -0.0351  1.4768 -2.0981
 5608TIP3    H216789   0.229   0.692   4.671  1.3805 -2.4132 -1.0763
 5609TIP3   OH216790   4.594   0.715   2.245  0.3279 -0.3071 -0.0808
 5609TIP3    H116791   4.632   0.762   2.319 -0.5317  0.8833 -0.3668
 5609TIP3    H216792   4.507   0.688   2.277 -0.1989  0.5395 -0.7616
 5610TIP3   OH216793   0.238   2.110   4.464  0.3008  0.1818  0.3286
 5610TIP3    H116794   0.305   2.137   4.401  2.0949 -0.3944  1.9218
 5610TIP3    H216795   0.157   2.148   4.429  1.2554  0.1737 -2.1282
 5611TIP3   OH216796   2.510   4.523   1.968 -0.7040 -0.0264 -0.0448
 5611TIP3    H116797   2.560   4.442   1.954 -1.0398 -0.3125  0.3847
 5611TIP3    H216798   2.568   4.578   2.020 -0.5789 -0.0945 -0.1087
 5612TIP3   OH216799   1.130   0.118   1.299  0.2434  0.9115 -0.5005
 5612TIP3    H116800   1.104   0.121   1.207 -2.5700  1.9129  0.2287
 5612TIP3    H216801   1.185   0.195   1.311  0.2122  1.0536 -1.2305
 5613TIP3   OH216802   0.241   1.128   5.495 -0.0644  0.1414  0.2589
 5613TIP3    H116803   0.255   1.033   5.494 -0.5089  0.0775 -0.4818
 5613TIP3    H216804   0.266   1.158   5.408 -2.0951  0.3563 -0.3211
 5614TIP3   OH216805   3.867   2.800   4.661 -0.1518 -0.7741 -0.6024
 5614TIP3    H116806   3.888   2.801   4.567 -1.6887 -1.6707 -0.9927
 5614TIP3    H216807   3.820   2.718   4.674 -1.4449  0.1059  0.5910
 5615TIP3   OH216808   2.679   3.260   4.818 -0.2676  0.3922  0.0306
 5615TIP3    H116809   2.713   3.183   4.864 -2.5505 -1.1594 -0.7333
 5615TIP3    H216810   2.697   3.333   4.877  2.4305 -0.5739  0.5647
 5616TIP3   OH216811   6.196   2.810   3.834 -0.6377  0.0005  0.7867
 5616TIP3    H116812   6.250   2.790   3.911  1.3993  0.8936 -0.3320
 5616TIP3    H216813   6.171   2.901   3.846 -0.4421  0.0968  0.4649
 5617TIP3   OH216814   1.350   4.926   4.846  0.4277  0.2531 -0.1179
 5617TIP3    H116815   1.262   4.926   4.809 -0.0584  1.7421  0.9363
 5617TIP3    H216816   1.354   4.844   4.897  0.8790 -1.4707 -2.7445
 5618TIP3   OH216817   0.268   0.487   5.792 -0.1605  0.1330  0.8564
 5618TIP3    H116818   0.281   0.497   5.698  1.7592  0.1698  1.0826
 5618TIP3    H216819   0.199   0.550   5.814 -0.0805  0.6841 -0.3928
 5619TIP3   OH216820   7.105   4.915   5.292 -0.8215  0.0776 -0.0865
 5619TIP3    H116821   7.040   4.984   5.282 -1.3036 -0.3238  0.2413
 5619TIP3    H216822   7.065   4.838   5.252 -0.8753 -0.3620  0.7728
 5620TIP3   OH216823   3.490   6.218   0.904 -0.2570 -0.3276  0.0013
 5620TIP3    H116824   3.445   6.263   0.832  0.7278  2.0564  0.7760
 5620TIP3    H216825   3.423   6.211   0.972 -0.1228  1.0954  0.3039
 5621TIP3   OH216826   3.069   2.402   0.945 -0.1241 -0.2996 -0.0071
 5621TIP3    H116827   3.066   2.450   1.028  0.9381  0.9810 -0.6556
 5621TIP3    H216828   2.992   2.432   0.897  0.5017  0.7446 -0.3836
 5622TIP3   OH216829   4.166   3.201   2.753  0.0557 -0.8028 -0.2081
 5622TIP3    H116830   4.114   3.278   2.778  0.9815 -0.1912 -0.1284
 5622TIP3    H216831   4.105   3.147   2.702 -1.3958 -1.2786  1.8767
 5623TIP3   OH216832   6.952   6.364   2.950  0.1022  0.0851 -0.1961
 5623TIP3    H116833   6.978   6.323   3.033  0.6939  0.3411 -0.2507
 5623TIP3    H216834   6.859   6.343   2.942 -0.3769  1.3908  1.3139
 5624TIP3   OH216835   1.753   1.996   3.650  0.0076 -0.2790  0.6098
 5624TIP3    H116836   1.697   2.072   3.669  0.7744 -0.2952  3.3259
 5624TIP3    H216837   1.695   1.934   3.606 -0.2342  2.4468 -3.4672
 5625TIP3   OH216838   1.685   2.930   4.088 -0.4200 -0.2281 -0.3112
 5625TIP3    H116839   1.732   2.965   4.164 -0.9194 -0.1943 -0.0168
 5625TIP3    H216840   1.736   2.853   4.062 -0.5594 -0.5668  0.4028
 5626TIP3   OH216841   0.434   2.413   5.074 -0.2700  0.6394 -0.0994
 5626TIP3    H116842   0.360   2.430   5.017 -1.5440 -1.3216  0.8574
 5626TIP3    H216843   0.408   2.449   5.159 -0.0653  0.0597  0.2125
 5627TIP3   OH216844   1.503   6.385   0.262 -0.1219 -0.1268  0.3658
 5627TIP3    H116845   1.540   6.353   0.344  1.3123  0.0830 -0.1670
 5627TIP3    H216846   1.576   6.430   0.219 -0.7039 -0.6519 -1.2419
 5628TIP3   OH216847   6.930   4.982   0.847  0.2269  0.3453 -0.2143
 5628TIP3    H116848   6.894   4.906   0.892 -0.0655  0.0269 -0.9617
 5628TIP3    H216849   6.939   4.954   0.756  1.2919  0.7957 -0.2696
 5629TIP3   OH216850   0.269   5.128   0.514 -0.0372  0.1148 -0.4065
 5629TIP3    H116851   0.362   5.152   0.512  0.9565 -3.1383  0.2394
 5629TIP3    H216852   0.256   5.077   0.434 -1.5576  1.3028 -0.9574
 5630TIP3   OH216853   3.091   0.416   0.699  0.0972 -0.1733  0.2439
 5630TIP3    H116854   3.136   0.398   0.616  0.8515 -1.1165  0.8360
 5630TIP3    H216855   3.029   0.486   0.678 -1.0648 -1.6698 -1.5397
 5631TIP3   OH216856   2.119   0.953   3.672 -0.0038  0.2118  0.0487
 5631TIP3    H116857   2.119   0.931   3.765  0.6866 -0.2357 -0.0466
 5631TIP3    H216858   2.039   1.003   3.659 -0.1748  0.1634  0.8563
 5632TIP3   OH216859   5.328   2.905   2.124 -0.2395  0.1981  0.3717
 5632TIP3    H116860   5.293   2.836   2.180 -0.3068 -0.3579 -0.3409
 5632TIP3    H216861   5.251   2.955   2.096 -0.5399 -1.1174 -1.3203
 5633TIP3   OH216862   6.522   5.261   5.751  0.0756 -0.7469  0.5191
 5633TIP3    H116863   6.539   5.171   5.720  2.2664 -0.4470  0.6844
 5633TIP3    H216864   6.484   5.250   5.838 -0.6130 -1.5056  0.1408
 5634TIP3   OH216865   3.886   0.986   3.444  0.3075  0.3444 -0.2574
 5634TIP3    H116866   3.927   1.007   3.361 -0.8685  0.2669 -0.8771
 5634TIP3    H216867   3.792   0.988   3.426 -0.0362  1.8710  1.4301
 5635TIP3   OH216868   2.356   6.713   1.303 -0.1148 -0.0564  0.1925
 5635TIP3    H116869   2.314   6.639   1.259 -0.4767  0.8337 -1.0315
 5635TIP3    H216870   2.425   6.741   1.242  1.2534 -0.5054  1.4677
 5636TIP3   OH216871   0.270   3.877   4.180 -0.1233 -0.2122 -0.4154
 5636TIP3    H116872   0.321   3.831   4.246  0.7895  0.7033 -0.4628
 5636TIP3    H216873   0.324   3.952   4.155 -1.5118  0.8374 -0.4136
 5637TIP3   OH216874   2.565   2.686   4.719  0.2344 -0.5359 -0.1252
 5637TIP3    H116875   2.499   2.726   4.776  1.1786 -0.0549  0.6745
 5637TIP3    H216876   2.547   2.722   4.633  1.3094  2.0756  0.6387
 5638TIP3   OH216877   3.002   6.625   1.148 -0.0963  0.3895  0.4600
 5638TIP3    H116878   2.989   6.590   1.236  0.2650 -0.4293  0.2018
 5638TIP3    H216879   3.080   6.580   1.116 -1.0159 -0.3871 -0.7989
 5639TIP3   OH216880   6.950   1.210   5.635  0.0068 -0.1937 -0.3005
 5639TIP3    H116881   6.898   1.150   5.689  1.1807 -0.7661  0.2119
 5639TIP3    H216882   7.038   1.174   5.637  0.1311 -0.1151 -2.4569
 5640TIP3   OH216883   4.893   3.449   5.835 -0.0811 -0.1585  0.5689
 5640TIP3    H116884   4.969   3.391   5.839  0.8430  0.7499 -1.9846
 5640TIP3    H216885   4.824   3.396   5.796  0.2991 -0.0252 -0.3114
 5641TIP3   OH216886   7.115   5.138   1.648 -0.2807 -0.4838  0.8125
 5641TIP3    H116887   7.198   5.096   1.625 -0.2257  0.6381 -1.3461
 5641TIP3    H216888   7.097   5.110   1.738  1.2554 -2.6014  0.5263
 5642TIP3   OH216889   0.479   3.603   2.117  1.0308  0.0908 -0.3239
 5642TIP3    H116890   0.518   3.524   2.156  0.9122 -0.2504 -0.8863
 5642TIP3    H216891   0.429   3.570   2.042 -0.7689  0.4504  0.6474
 5643TIP3   OH216892   2.525   0.274   4.148 -0.3355  0.1731  0.3664
 5643TIP3    H116893   2.536   0.326   4.227  1.2268 -0.1496  0.3802
 5643TIP3    H216894   2.576   0.195   4.163 -0.3332 -0.0701 -0.8016
 5644TIP3   OH216895   1.917   0.952   1.205 -0.4943 -0.2055  0.6033
 5644TIP3    H116896   1.829   0.913   1.202 -0.1766 -0.8776 -1.2891
 5644TIP3    H216897   1.965   0.895   1.266 -1.1992 -0.1571  1.2307
 5645TIP3   OH216898   4.677   4.591   1.981 -0.0635 -0.0711 -0.0539
 5645TIP3    H116899   4.727   4.517   1.947 -1.9357 -0.9360 -1.0594
 5645TIP3    H216900   4.612   4.552   2.039 -1.1474  0.7431 -0.6722
 5646TIP3   OH216901   7.000   3.719   5.356 -0.3901 -0.0014 -0.3865
 5646TIP3    H116902   7.049   3.758   5.428  1.4933 -1.6283 -0.7250
 5646TIP3    H216903   7.012   3.625   5.366  0.1899 -0.2734 -2.9824
 5647TIP3   OH216904   4.553   3.056   2.210  0.3168 -0.3604 -0.1330
 5647TIP3    H116905   4.457   3.054   2.212  0.3185 -1.2461 -0.7367
 5647TIP3    H216906   4.577   3.003   2.134  1.3087 -0.5813  0.3204
 5648TIP3   OH216907   3.101   6.697   0.065 -0.2433 -0.1591 -0.1266
 5648TIP3    H116908   3.073   6.648  -0.012 -0.9375  0.9564 -0.6079
 5648TIP3    H216909   3.163   6.762   0.030  0.6519 -0.6571  0.4962
 5649TIP3   OH216910   5.101   4.177   5.564 -0.0255  0.9280  0.3010
 5649TIP3    H116911   5.030   4.205   5.506  1.0218  0.5780 -1.2084
 5649TIP3    H216912   5.061   4.113   5.622 -0.6060 -0.5790 -1.6443
 5650TIP3   OH216913   3.725   3.471   2.635 -0.0991  0.0008  0.1222
 5650TIP3    H116914   3.681   3.474   2.720 -1.2784  1.7224 -0.4875
 5650TIP3    H216915   3.705   3.556   2.595  3.2988  0.6563 -0.4681
 5651TIP3   OH216916   4.310   3.801   0.151  0.2008 -0.8889 -0.5886
 5651TIP3    H116917   4.290   3.802   0.058 -0.0398 -0.3776 -0.5301
 5651TIP3    H216918   4.246   3.740   0.189 -1.7957  1.2730 -0.2873
 5652TIP3   OH216919   0.028   1.195   3.958  0.4988  0.1053  0.0406
 5652TIP3    H116920   0.058   1.161   4.043  0.7896  2.2388  0.8581
 5652TIP3    H216921   0.107   1.194   3.903  0.1140 -2.1177 -0.5403
 5653TIP3   OH216922   0.742   4.629   0.254  0.0676  0.0641  0.0990
 5653TIP3    H116923   0.813   4.576   0.217 -1.1907 -1.0752 -0.7649
 5653TIP3    H216924   0.682   4.643   0.181 -1.3449 -0.2783  1.1654
 5654TIP3   OH216925   6.963   5.583   3.057  0.1026  0.4801  0.2025
 5654TIP3    H116926   7.051   5.614   3.035 -0.2478  0.2857 -1.5942
 5654TIP3    H216927   6.905   5.654   3.033 -0.2285  0.8813  2.0249
 5655TIP3   OH216928   3.086   4.052   0.560 -0.0823 -0.1333  0.1930
 5655TIP3    H116929   3.146   3.977   0.556  0.5939  0.2354  2.3671
 5655TIP3    H216930   3.117   4.103   0.634 -0.9111  2.0018 -0.8500
 5656TIP3   OH216931   6.203   3.307   1.976  0.1490 -0.3354  0.4744
 5656TIP3    H116932   6.293   3.328   1.951 -0.7593  1.9436 -1.1844
 5656TIP3    H216933   6.197   3.333   2.068  1.4700 -1.7280  1.0119
 5657TIP3   OH216934   3.001   5.372   0.218  0.6896  0.1030 -0.1012
 5657TIP3    H116935   2.959   5.434   0.159  1.2421  0.3346 -0.2604
 5657TIP3    H216936   2.973   5.399   0.306 -0.6420 -0.6230 -0.2671
 5658TIP3   OH216937   1.196   2.553   3.770  0.0180 -0.5355  0.4033
 5658TIP3    H116938   1.219   2.469   3.728 -2.4344 -1.0640 -0.0487
 5658TIP3    H216939   1.237   2.619   3.714  1.8704 -1.3763  0.6762
 5659TIP3   OH216940   3.548   0.451   5.092  0.1531 -0.0566 -0.2854
 5659TIP3    H116941   3.588   0.468   5.178 -0.2514  0.0644 -0.1170
 5659TIP3    H216942   3.544   0.537   5.050  0.4973 -0.1410 -0.4901
 5660TIP3   OH216943   0.333   2.147   3.988 -0.5495  0.0334 -0.3901
 5660TIP3    H116944   0.358   2.234   4.018 -1.6147  0.1896  0.0874
 5660TIP3    H216945   0.342   2.091   4.066 -0.0993 -0.2399 -0.6340
 5661TIP3   OH216946   2.342   2.621   2.372 -0.3722  0.6485 -0.0693
 5661TIP3    H116947   2.431   2.654   2.358 -0.7341  1.8200  0.2816
 5661TIP3    H216948   2.287   2.699   2.374 -1.6440 -0.1283 -1.7929
 5662TIP3   OH216949   6.430   3.505   5.729 -0.6338  0.1981  0.4571
 5662TIP3    H116950   6.520   3.479   5.710 -0.2867  1.8127 -0.3073
 5662TIP3    H216951   6.381   3.423   5.731  0.6317 -0.6138 -0.3008
 5663TIP3   OH216952   6.343   5.055   4.454 -0.0319  0.2636 -0.3094
 5663TIP3    H116953   6.264   5.089   4.495 -0.7089 -1.6139  0.0244
 5663TIP3    H216954   6.397   5.133   4.437 -2.0576  1.6115 -0.8601
 5664TIP3   OH216955   3.184   2.333   0.724 -0.0156  0.0360  0.6344
 5664TIP3    H116956   3.150   2.344   0.812 -1.9248 -1.7270  0.1836
 5664TIP3    H216957   3.277   2.316   0.736  0.2329  2.0388  2.1105
 5665TIP3   OH216958   6.093   0.017   4.034 -0.4070 -0.5123 -0.0935
 5665TIP3    H116959   6.013   0.047   4.076 -0.2659 -0.2883  0.0155
 5665TIP3    H216960   6.085   0.044   3.943 -2.1572 -3.6927 -1.0623
 5666TIP3   OH216961   3.328   0.680   4.256  0.3035 -0.1805 -0.2496
 5666TIP3    H116962   3.300   0.609   4.197 -0.8230  0.9498 -1.1510
 5666TIP3    H216963   3.411   0.711   4.219 -1.0908  1.4855 -2.2324
 5667TIP3   OH216964   5.386   5.045   3.916  0.4889  0.0026  0.1020
 5667TIP3    H116965   5.352   5.129   3.885 -0.9563 -0.3167  0.7534
 5667TIP3    H216966   5.314   5.008   3.968  1.6793 -0.9225  1.1365
 5668TIP3   OH216967   0.547   4.323   2.700  0.0901  0.0068  0.0975
 5668TIP3    H116968   0.504   4.316   2.786 -0.1822 -1.6843 -0.1447
 5668TIP3    H216969   0.638   4.343   2.721 -0.0959  0.2136  0.7498
 5669TIP3   OH216970   2.642   2.809   0.393  0.3392 -0.3383  0.1434
 5669TIP3    H116971   2.736   2.829   0.393 -0.0092  1.5087  1.2845
 5669TIP3    H216972   2.600   2.892   0.368 -1.0856 -0.3590  2.2520
 5670TIP3   OH216973   4.694   3.565   3.058  0.5600 -0.5145  0.1729
 5670TIP3    H116974   4.715   3.492   2.999 -1.2115 -1.8118  1.0189
 5670TIP3    H216975   4.663   3.634   3.000  1.9484 -0.5259 -0.6293
 5671TIP3   OH216976   0.534   5.889   1.609 -0.3488  0.4764  0.1181
 5671TIP3    H116977   0.556   5.982   1.610  1.9612 -0.0124 -0.1047
 5671TIP3    H216978   0.512   5.871   1.518 -2.3305  1.0622  0.4215
 5672TIP3   OH216979   3.841   6.634   5.264  0.0708  0.2706 -0.5016
 5672TIP3    H116980   3.930   6.627   5.300  0.1199  0.1998 -0.6351
 5672TIP3    H216981   3.833   6.559   5.205  0.4706  1.1093 -1.6592
 5673TIP3   OH216982   2.763   0.986   4.723  0.6308 -0.0937  0.2044
 5673TIP3    H116983   2.720   0.903   4.743  0.4578 -0.0672 -0.0559
 5673TIP3    H216984   2.849   0.979   4.765  0.7598 -0.5547 -0.1344
 5674TIP3   OH216985   2.014   2.220   1.191  0.2882  0.3117 -0.5320
 5674TIP3    H116986   2.064   2.199   1.270 -2.4551  2.6725  2.1013
 5674TIP3    H216987   1.956   2.145   1.178 -0.5573  0.6643  0.9514
 5675TIP3   OH216988   1.734   2.510   3.163  0.6239  0.2860 -0.2787
 5675TIP3    H116989   1.771   2.488   3.248  2.5091 -1.1099 -1.3508
 5675TIP3    H216990   1.651   2.462   3.159  2.2515 -2.7653 -0.5567
 5676TIP3   OH216991   7.173   3.371   5.287  0.1748 -0.3526  0.5899
 5676TIP3    H116992   7.197   3.463   5.292  2.2736 -0.7767 -0.4757
 5676TIP3    H216993   7.182   3.339   5.377 -1.8050  0.6887  1.2268
 5677TIP3   OH216994   5.113   0.231   5.554 -0.0241  0.2900 -0.3620
 5677TIP3    H116995   5.087   0.156   5.499  0.7595 -1.3979  1.4495
 5677TIP3    H216996   5.200   0.208   5.586 -0.2825  1.3867  1.2510
 5678TIP3   OH216997   6.543   2.882   4.252 -0.3509 -0.2137  0.4690
 5678TIP3    H116998   6.608   2.845   4.192  0.5385 -1.9896  2.4090
 5678TIP3    H216999   6.462   2.884   4.200  0.8705  0.5985 -1.5129
 5679TIP3   OH217000   4.022   5.576   1.544 -0.7174 -0.3184  0.3262
 5679TIP3    H117001   4.065   5.661   1.558 -1.3620  0.0466  0.1799
 5679TIP3    H217002   3.932   5.591   1.574 -1.1350 -0.6177 -0.7196
 5680TIP3   OH217003   3.752   3.495   1.336  0.7831  0.5566  0.0943
 5680TIP3    H117004   3.680   3.478   1.396  0.1690  0.7701 -0.5621
 5680TIP3    H217005   3.761   3.414   1.286  0.7351  0.6662 -0.0920
 5681TIP3   OH217006   4.177   4.096   2.731 -0.2413 -1.1595  0.8602
 5681TIP3    H117007   4.108   4.086   2.666  0.2048 -1.9148  0.4940
 5681TIP3    H217008   4.254   4.125   2.681 -0.7258  1.4805  1.4972
 5682TIP3   OH217009   6.978   1.079   2.047 -0.1028  0.2633  0.3352
 5682TIP3    H117010   6.946   1.152   2.099 -0.2664 -0.1682  0.8474
 5682TIP3    H217011   6.904   1.055   1.991 -0.3904 -0.1622  0.8895
 5683TIP3   OH217012   0.505   6.185   3.241 -0.2710 -0.6792  0.6068
 5683TIP3    H117013   0.412   6.163   3.252 -1.3425  1.7607 -2.1184
 5683TIP3    H217014   0.521   6.255   3.304 -0.8587  0.1018 -0.0777
 5684TIP3   OH217015   4.379   5.615   1.729 -0.3830  0.1576  0.2279
 5684TIP3    H117016   4.368   5.607   1.824 -3.5635  0.9851  0.0647
 5684TIP3    H217017   4.346   5.703   1.709  0.9117  0.2682 -1.5791
 5685TIP3   OH217018   3.833   2.980   1.543 -0.1099  0.0443  0.1244
 5685TIP3    H117019   3.772   2.908   1.556 -0.2069  0.2255  0.6900
 5685TIP3    H217020   3.778   3.056   1.524  0.0296 -0.2321 -1.5103
 5686TIP3   OH217021   2.667   3.372   4.393  0.2375  0.0675  0.3247
 5686TIP3    H117022   2.749   3.418   4.373 -0.2547  0.6242 -0.4451
 5686TIP3    H217023   2.616   3.434   4.444  1.1481 -1.0525  2.8039
 5687TIP3   OH217024   1.762   6.409   4.019  0.1233 -0.7861 -0.2340
 5687TIP3    H117025   1.814   6.488   4.037  1.1944 -1.1918 -1.4022
 5687TIP3    H217026   1.728   6.383   4.104  1.1740 -0.0376  0.4436
 5688TIP3   OH217027   2.980   2.540   2.299  0.0307 -0.4330 -0.3329
 5688TIP3    H117028   3.016   2.452   2.291  1.6548  0.0088  1.2869
 5688TIP3    H217029   2.911   2.532   2.366  1.1262 -0.2662  0.8532
 5689TIP3   OH217030   7.209   0.924   2.118 -0.0470 -0.1291 -0.0503
 5689TIP3    H117031   7.220   0.838   2.078  1.1332  0.3555 -0.8259
 5689TIP3    H217032   7.130   0.960   2.078  0.4307 -0.1589 -1.0484
 5690TIP3   OH217033   0.214   6.639   5.514  0.1641 -0.2080  0.4899
 5690TIP3    H117034   0.295   6.650   5.565  0.1793  0.3646  0.3459
 5690TIP3    H217035   0.243   6.604   5.430  0.1242 -1.3130  0.9192
 5691TIP3   OH217036   4.416   5.590   3.166 -0.6724  0.5279 -0.3421
 5691TIP3    H117037   4.323   5.572   3.154 -1.1124  2.1699  0.2876
 5691TIP3    H217038   4.444   5.528   3.234 -1.1876 -0.2632 -0.8323
 5692TIP3   OH217039   5.982   4.357   5.230  0.1669  0.0934  0.1626
 5692TIP3    H117040   5.934   4.314   5.301  2.3559 -0.1359  1.6417
 5692TIP3    H217041   5.921   4.359   5.156 -1.2501 -2.2839  1.1564
 5693TIP3   OH217042   2.550   6.639   3.942  0.1186 -0.3502 -0.0283
 5693TIP3    H117043   2.637   6.648   3.980 -0.1175  0.5688  0.3139
 5693TIP3    H217044   2.535   6.544   3.939  1.4548 -0.5606 -0.8685
 5694TIP3   OH217045   4.015   5.373   2.868  0.8391  0.3267  0.5932
 5694TIP3    H117046   4.042   5.282   2.855  0.9830  0.2026  1.6747
 5694TIP3    H217047   4.096   5.423   2.859  0.7199  0.3838 -0.2437
 5695TIP3   OH217048   0.280   2.995   2.141  0.0831 -0.3660 -0.0456
 5695TIP3    H117049   0.226   3.065   2.177  1.2279  0.2630  0.4990
 5695TIP3    H217050   0.227   2.916   2.152  0.2806 -0.2079  2.9185
 5696TIP3   OH217051   4.821   1.501   4.860  0.1499 -0.0400  0.3743
 5696TIP3    H117052   4.793   1.495   4.951 -0.7687 -1.1115  0.0515
 5696TIP3    H217053   4.829   1.594   4.843 -0.1483  0.1836  1.4145
 5697TIP3   OH217054   6.307   5.780   0.562  0.5370 -0.4169 -0.4432
 5697TIP3    H117055   6.338   5.716   0.626 -0.1804 -0.6131 -0.2928
 5697TIP3    H217056   6.274   5.853   0.615  0.1346 -0.4908 -0.5913
 5698TIP3   OH217057   4.312   3.583   3.001  0.1697 -0.1296 -0.2292
 5698TIP3    H117058   4.378   3.573   2.933 -0.0238 -0.1916 -0.4052
 5698TIP3    H217059   4.230   3.596   2.954  0.4100  2.5978 -0.0751
 5699TIP3   OH217060   2.383   1.138   2.414 -0.3208  0.6490  0.1805
 5699TIP3    H117061   2.472   1.105   2.423 -1.2904 -2.1076  0.9629
 5699TIP3    H217062   2.387   1.201   2.342  2.2776  0.7826  0.3737
 5700TIP3   OH217063   5.559   1.715   1.296  0.4652 -0.1925  0.5650
 5700TIP3    H117064   5.619   1.788   1.310  0.0043  0.4818 -0.7908
 5700TIP3    H217065   5.584   1.679   1.211  0.3665 -1.3097  0.9924
 5701TIP3   OH217066   1.836   5.521   0.338  0.3349  0.5567 -0.0253
 5701TIP3    H117067   1.764   5.463   0.362  1.1347 -0.4964 -0.1015
 5701TIP3    H217068   1.882   5.537   0.421 -0.1165  1.4327  0.0684
 5702TIP3   OH217069   1.030   3.302   5.061  0.2548  0.0431 -0.0644
 5702TIP3    H117070   1.002   3.299   4.969  2.1928 -0.7068 -0.6799
 5702TIP3    H217071   1.104   3.363   5.061 -1.3533  2.1453  1.5401
 5703TIP3   OH217072   0.932   3.224   5.343  0.0902 -0.1993 -0.3635
 5703TIP3    H117073   0.909   3.272   5.422 -0.8862 -2.2434  0.6837
 5703TIP3    H217074   0.906   3.281   5.271 -0.3021  1.1308  0.7826
 5704TIP3   OH217075   4.200   2.732   0.846  0.7259  0.2591 -0.4641
 5704TIP3    H117076   4.233   2.644   0.865  1.8905  1.0598  1.5875
 5704TIP3    H217077   4.180   2.731   0.753  0.2620 -2.3064 -0.3987
 5705TIP3   OH217078   1.577   1.070   1.931 -0.6375  0.3689 -0.2151
 5705TIP3    H117079   1.512   1.112   1.987 -0.4243  2.9679 -1.7465
 5705TIP3    H217080   1.549   1.090   1.842  2.6970  2.5790 -0.9617
 5706TIP3   OH217081   4.746   4.722   4.590  0.2313 -0.3462 -0.1159
 5706TIP3    H117082   4.693   4.683   4.520 -0.8952  1.1016 -0.1268
 5706TIP3    H217083   4.776   4.805   4.552  1.1460 -0.3920  0.4908
 5707TIP3   OH217084   1.582   3.549   4.400  0.4592 -0.2745  0.1406
 5707TIP3    H117085   1.656   3.488   4.400 -0.3074 -1.2366  0.7671
 5707TIP3    H217086   1.556   3.555   4.492 -0.8313 -0.7153 -0.1762
 5708TIP3   OH217087   4.606   6.615   4.238 -0.1854  0.2587  0.5688
 5708TIP3    H117088   4.518   6.584   4.261  0.1591 -0.9150  0.3652
 5708TIP3    H217089   4.655   6.610   4.320  0.0240 -0.2943  0.4130
 5709TIP3   OH217090   2.531   3.571   0.460 -0.1592  0.2731 -0.8276
 5709TIP3    H117091   2.509   3.486   0.497  1.3521  0.4125  0.5409
 5709TIP3    H217092   2.546   3.627   0.536 -0.5232  1.6097 -1.6986
 5710TIP3   OH217093   4.891   6.341   4.700  0.6828  0.4427 -0.2200
 5710TIP3    H117094   4.900   6.424   4.746  1.6962  0.2866 -0.1209
 5710TIP3    H217095   4.874   6.276   4.768 -0.3194  0.5911 -0.3174
 5711TIP3   OH217096   2.600   3.612   3.179  0.4934  0.2812  0.2604
 5711TIP3    H117097   2.679   3.630   3.229  1.6382 -0.8485 -1.0771
 5711TIP3    H217098   2.556   3.543   3.229  1.7966 -1.0803 -0.3990
 5712TIP3   OH217099   0.165   1.504   0.386 -0.3915 -0.2371 -0.1088
 5712TIP3    H117100   0.188   1.566   0.317  0.5978 -1.8103 -1.2781
 5712TIP3    H217101   0.246   1.492   0.435 -1.3204  1.6140  2.0551
 5713TIP3   OH217102   1.601   1.811   3.923  0.3816 -0.3857 -0.0451
 5713TIP3    H117103   1.551   1.734   3.896  0.2138 -1.1857  2.2955
 5713TIP3    H217104   1.692   1.782   3.920  0.3525 -0.5260  0.3517
 5714TIP3   OH217105   3.090   3.658   0.925  0.0260  0.0621 -0.5787
 5714TIP3    H117106   3.101   3.643   1.019  1.0146 -0.9901 -0.8397
 5714TIP3    H217107   3.068   3.751   0.918 -1.4006 -0.1465  0.7747
 5715TIP3   OH217108   2.693   1.756   5.353  0.0367 -0.2619  0.0757
 5715TIP3    H117109   2.759   1.762   5.285 -1.0174 -1.9380 -1.1699
 5715TIP3    H217110   2.657   1.668   5.344 -1.7097  0.2680  1.3311
 5716TIP3   OH217111   1.171   2.086   2.577 -0.7892  0.0983 -0.2204
 5716TIP3    H117112   1.263   2.100   2.554  0.0479  0.4034  2.8876
 5716TIP3    H217113   1.161   1.991   2.579 -0.1228  0.0411  0.8244
 5717TIP3   OH217114   1.627   1.280   4.162  0.0478  0.2019 -0.0855
 5717TIP3    H117115   1.663   1.191   4.160 -2.3752 -0.8589 -2.3843
 5717TIP3    H217116   1.633   1.306   4.254 -0.7967 -3.0842  1.0434
 5718TIP3   OH217117   4.398   1.091   4.568 -0.1125 -0.4844 -0.3575
 5718TIP3    H117118   4.467   1.109   4.504  2.1202  1.5161  2.3852
 5718TIP3    H217119   4.444   1.076   4.650 -2.9075 -1.4045  1.1731
 5719TIP3   OH217120   0.994   5.652   3.184 -0.5397 -0.6043  0.9038
 5719TIP3    H117121   0.918   5.660   3.127 -0.3456 -1.8076  0.4503
 5719TIP3    H217122   0.982   5.721   3.250 -0.1504  1.6762 -1.2685
 5720TIP3   OH217123   2.587   1.348   0.571 -0.5260  0.2112  0.4930
 5720TIP3    H117124   2.676   1.383   0.566 -0.5698  0.1395 -1.2764
 5720TIP3    H217125   2.530   1.423   0.551 -0.7761 -0.0856  0.0648
 5721TIP3   OH217126   3.099   5.569   2.451 -0.6985  0.4558  0.1651
 5721TIP3    H117127   3.086   5.661   2.432 -1.8266  0.5890  1.4392
 5721TIP3    H217128   3.022   5.525   2.415 -1.5305  0.3909  1.9145
 5722TIP3   OH217129   5.058   4.209   5.116  0.0322 -0.0042  0.2393
 5722TIP3    H117130   5.153   4.201   5.111 -0.1198 -1.3234 -1.2674
 5722TIP3    H217131   5.025   4.157   5.043 -1.8483  0.6982  0.5228
 5723TIP3   OH217132   1.717   0.237   1.594 -0.1951  0.0372 -0.4469
 5723TIP3    H117133   1.660   0.188   1.535 -1.1606 -2.3351  2.2651
 5723TIP3    H217134   1.659   0.272   1.661  1.1840 -0.1941  0.9324
 5724TIP3   OH217135   7.180   0.975   2.631 -0.3390 -0.1341  0.1850
 5724TIP3    H117136   7.100   0.936   2.668 -0.8203  0.2974 -0.3798
 5724TIP3    H217137   7.159   0.988   2.539  0.5512 -0.4259 -0.0650
 5725TIP3   OH217138   3.245   4.282   0.130  0.6587 -0.8587  0.5416
 5725TIP3    H117139   3.331   4.302   0.092  1.1757 -2.9095  0.5279
 5725TIP3    H217140   3.224   4.194   0.098 -0.7644 -1.0008  1.7574
 5726TIP3   OH217141   1.460   4.730   5.787 -0.4008 -0.0259 -0.3822
 5726TIP3    H117142   1.413   4.693   5.713  0.0531 -2.1710  0.3410
 5726TIP3    H217143   1.392   4.755   5.849 -0.6999 -0.9077 -0.3423
 5727TIP3   OH217144   0.502   2.669   2.380 -0.0434  0.1640 -0.3157
 5727TIP3    H117145   0.418   2.688   2.421  0.0574  0.4065 -0.2213
 5727TIP3    H217146   0.491   2.581   2.342 -1.0325  0.9779 -2.0623
 5728TIP3   OH217147   1.889   5.196   0.409  0.0659  0.1974  0.4378
 5728TIP3    H117148   1.803   5.238   0.411  0.2624  0.8220 -1.6028
 5728TIP3    H217149   1.884   5.135   0.335  1.5303  0.6009 -0.0270
 5729TIP3   OH217150   5.927   3.238   3.740 -0.1865 -0.4713  0.5269
 5729TIP3    H117151   5.951   3.321   3.780  0.6645 -0.6703  0.4460
 5729TIP3    H217152   5.832   3.243   3.728  0.0951  1.4486 -1.5955
 5730TIP3   OH217153   5.108   3.781   3.767  0.0559 -0.1679  0.3541
 5730TIP3    H117154   5.084   3.732   3.846 -0.6454 -2.1068 -1.0160
 5730TIP3    H217155   5.204   3.773   3.763  0.2067  0.7063  1.4363
 5731TIP3   OH217156   2.658   2.102   3.673 -0.0532  0.0733 -0.1479
 5731TIP3    H117157   2.654   2.008   3.654  1.7601 -0.1661  0.4992
 5731TIP3    H217158   2.647   2.144   3.588  3.5970 -0.8642 -1.2604
 5732TIP3   OH217159   5.075   1.747   0.816  0.1884  0.2608 -0.0252
 5732TIP3    H117160   5.127   1.815   0.856 -0.0206  0.1678  0.4057
 5732TIP3    H217161   4.993   1.746   0.865  0.9075 -1.5795  1.2466
 5733TIP3   OH217162   3.386   2.822   5.774 -0.3688  0.0936 -0.4695
 5733TIP3    H117163   3.435   2.743   5.797 -0.8939  0.5432  2.6546
 5733TIP3    H217164   3.294   2.797   5.785 -0.5171  1.2717  1.2987
 5734TIP3   OH217165   2.024   4.804   5.859  0.1374 -0.1494  0.1952
 5734TIP3    H117166   2.070   4.876   5.904  1.2530  0.1380 -1.3294
 5734TIP3    H217167   2.068   4.796   5.775 -0.4508 -2.1422  0.0141
 5735TIP3   OH217168   2.317   0.729   1.014 -0.1884 -0.2242  0.5191
 5735TIP3    H117169   2.387   0.793   1.000 -1.4279  1.2057  0.5786
 5735TIP3    H217170   2.237   0.775   0.988 -1.1823 -1.6054  1.0171
 5736TIP3   OH217171   2.187   5.202   4.353  0.0587  0.0345 -0.1464
 5736TIP3    H117172   2.255   5.221   4.418  0.6282 -0.3203 -0.6235
 5736TIP3    H217173   2.233   5.155   4.283 -0.8311 -0.8743 -0.1399
 5737TIP3   OH217174   6.343   5.732   0.132 -0.0484  0.1589  0.1450
 5737TIP3    H117175   6.414   5.693   0.081  0.2727 -0.7951  1.2893
 5737TIP3    H217176   6.269   5.672   0.118 -0.5505  0.9695 -0.7757
 5738TIP3   OH217177   1.006   0.573   5.249  0.1062  0.1181  0.1076
 5738TIP3    H117178   0.916   0.545   5.269  0.0641 -0.2710 -0.5798
 5738TIP3    H217179   1.047   0.495   5.211  0.3766  0.6335 -0.6807
 5739TIP3   OH217180   4.162   0.926   4.063 -0.1456  0.3545 -0.5738
 5739TIP3    H117181   4.138   0.835   4.083 -1.2368  0.5104 -1.0726
 5739TIP3    H217182   4.238   0.918   4.006  0.6108 -0.1939  0.4886
 5740TIP3   OH217183   0.210   2.595   4.929  0.2819  0.4650 -0.2205
 5740TIP3    H117184   0.231   2.687   4.945  1.0824  0.0060  1.4861
 5740TIP3    H217185   0.172   2.595   4.841 -1.4143  2.6855  0.3977
 5741TIP3   OH217186   3.331   5.276   5.127  0.2670 -0.5275 -0.1903
 5741TIP3    H117187   3.386   5.218   5.181 -0.2033 -1.1049 -0.3270
 5741TIP3    H217188   3.302   5.344   5.188 -1.3641 -1.9151  0.6492
 5742TIP3   OH217189   0.720   3.129   0.520  0.1573  0.1279  0.1593
 5742TIP3    H117190   0.718   3.181   0.440  0.3775  0.2757  0.2510
 5742TIP3    H217191   0.773   3.180   0.581  2.1781 -1.1609 -0.4240
 5743TIP3   OH217192   5.679   5.664   0.559  0.2688 -0.0278  0.3018
 5743TIP3    H117193   5.656   5.739   0.615 -0.0101  1.7795 -2.0795
 5743TIP3    H217194   5.608   5.602   0.572  0.0434  0.4761  1.6837
 5744TIP3   OH217195   1.790   3.402   4.231 -0.7511 -0.6072  0.3056
 5744TIP3    H117196   1.882   3.423   4.215 -0.6737 -0.6457  0.6855
 5744TIP3    H217197   1.742   3.467   4.180 -0.5124 -0.1194  0.6977
 5745TIP3   OH217198   0.410   0.231   0.505 -0.0922  0.0938  0.3720
 5745TIP3    H117199   0.332   0.245   0.559 -0.9522 -1.6773 -0.3407
 5745TIP3    H217200   0.459   0.164   0.551 -1.7144 -2.7859 -1.7694
 5746TIP3   OH217201   1.777   6.443   1.030 -0.3136 -1.1136  0.3301
 5746TIP3    H117202   1.775   6.351   1.002 -0.4624 -1.0646  0.1796
 5746TIP3    H217203   1.686   6.464   1.051 -0.3212 -0.9200  0.1052
 5747TIP3   OH217204   5.265   5.090   5.321  0.2504  0.0025  0.1659
 5747TIP3    H117205   5.280   5.179   5.353  2.4140  0.0947 -0.9186
 5747TIP3    H217206   5.209   5.050   5.387 -0.3947  2.0087  0.9142
 5748TIP3   OH217207   5.608   0.727   2.249  0.2744  0.3039  0.4514
 5748TIP3    H117208   5.528   0.776   2.233  0.3593  0.8850  1.7226
 5748TIP3    H217209   5.579   0.645   2.288  0.2450  0.0626 -0.0646
 5749TIP3   OH217210   2.431   1.035   5.199  0.3443  0.4387  0.1654
 5749TIP3    H117211   2.399   0.951   5.234  1.0007 -0.0624 -0.4099
 5749TIP3    H217212   2.359   1.068   5.146  0.2089  0.0514  0.1022
 5750TIP3   OH217213   6.359   3.628   0.446  0.4446  0.2031  0.0759
 5750TIP3    H117214   6.279   3.634   0.499  0.2695 -1.5814  0.0626
 5750TIP3    H217215   6.376   3.718   0.418 -1.1630  0.7229  0.6727
 5751TIP3   OH217216   7.149   6.524   2.134 -0.5007 -0.2270  0.5136
 5751TIP3    H117217   7.087   6.453   2.156  0.1549 -0.9181  0.1666
 5751TIP3    H217218   7.234   6.489   2.160  0.0923 -0.3811 -1.5192
 5752TIP3   OH217219   4.009   6.118   1.554 -0.4401  0.3874  0.0076
 5752TIP3    H117220   4.052   6.133   1.469  0.0213  0.6341  0.2757
 5752TIP3    H217221   4.082   6.110   1.615 -0.7768  0.3703  0.4043
 5753TIP3   OH217222   0.034   5.948   3.925 -0.4155 -0.6487  0.4104
 5753TIP3    H117223  -0.011   6.025   3.890  2.5536  0.9465 -0.2143
 5753TIP3    H217224   0.000   5.875   3.872 -0.1754  0.8901 -2.0031
 5754TIP3   OH217225   7.055   2.579   3.685  0.2664 -0.1729  0.2130
 5754TIP3    H117226   7.026   2.653   3.632  0.9304 -0.1810 -0.1846
 5754TIP3    H217227   7.142   2.604   3.717  0.7627 -0.9983 -0.4206
 5755TIP3   OH217228   2.937   4.341   3.115  0.3566 -0.3038  0.9799
 5755TIP3    H117229   2.864   4.315   3.059  0.1108  1.3082  0.4876
 5755TIP3    H217230   3.009   4.357   3.055 -0.0281  1.8581  1.0075
 5756TIP3   OH217231   1.499   1.754   1.248 -0.2076 -0.1650  0.1428
 5756TIP3    H117232   1.420   1.712   1.282  0.0363 -1.5235 -0.8810
 5756TIP3    H217233   1.534   1.692   1.184  0.7117  1.1976 -0.7490
 5757TIP3   OH217234   3.299   0.886   2.993 -0.4027 -0.0764 -0.1593
 5757TIP3    H117235   3.260   0.803   2.967 -1.0688 -0.5988  2.3107
 5757TIP3    H217236   3.231   0.930   3.044  0.9782  0.6276  1.1357
 5758TIP3   OH217237   6.142   5.923   4.008  0.5257  0.3921 -0.3065
 5758TIP3    H117238   6.126   5.907   3.915  0.2529 -0.0427 -0.1917
 5758TIP3    H217239   6.134   6.018   4.018  0.1859  0.4024 -0.6595
 5759TIP3   OH217240   3.521   3.069   2.465 -0.2961 -0.9800  0.0167
 5759TIP3    H117241   3.602   3.106   2.500  0.2683 -1.3743 -0.8139
 5759TIP3    H217242   3.527   2.975   2.485 -0.9681 -0.8795  0.7204
 5760TIP3   OH217243   3.014   1.287   4.351  0.1779 -0.0663 -0.2715
 5760TIP3    H117244   2.937   1.281   4.294  1.1985 -0.6258 -1.6570
 5760TIP3    H217245   2.979   1.313   4.436 -1.8056 -2.4686 -0.2375
 5761TIP3   OH217246   6.950   2.576   4.406 -0.1761 -0.0507  0.6774
 5761TIP3    H117247   6.883   2.517   4.372 -0.5394 -0.1807  1.5804
 5761TIP3    H217248   6.926   2.662   4.372 -0.3555 -0.2275  0.3558
 5762TIP3   OH217249   0.805   4.686   5.661  0.2854  0.7501 -0.1779
 5762TIP3    H117250   0.897   4.658   5.656  0.0884  0.0587 -0.0761
 5762TIP3    H217251   0.793   4.715   5.752  0.1997  0.0887  0.0273
 5763TIP3   OH217252   1.479   2.807   0.172  0.3737  0.0243 -0.2234
 5763TIP3    H117253   1.571   2.784   0.188  0.4502  1.4100  1.6765
 5763TIP3    H217254   1.437   2.725   0.147  1.8536 -0.8976  0.2156
 5764TIP3   OH217255   3.586   0.357   0.559 -0.0174  0.0445 -0.3071
 5764TIP3    H117256   3.568   0.449   0.575 -0.7774 -0.0527 -0.5877
 5764TIP3    H217257   3.625   0.354   0.472 -0.9631 -0.0068 -0.7334
 5765TIP3   OH217258   1.139   2.032   5.671  0.4411 -0.1027 -0.1749
 5765TIP3    H117259   1.183   2.058   5.752 -0.3039  2.6176 -0.5643
 5765TIP3    H217260   1.047   2.028   5.694  0.2505  0.4319 -0.8050
 5766TIP3   OH217261   0.790   1.764   0.513  0.2275  0.1563  0.1652
 5766TIP3    H117262   0.754   1.853   0.516 -0.9734 -0.3262  0.4768
 5766TIP3    H217263   0.828   1.756   0.426 -2.3081 -0.0097 -1.0054
 5767TIP3   OH217264   4.376   0.403   2.012  0.2760  0.3383  0.4874
 5767TIP3    H117265   4.421   0.456   1.946  0.6836 -0.3666  0.1880
 5767TIP3    H217266   4.313   0.463   2.052  1.6793  1.4403  1.1272
 5768TIP3   OH217267   3.278   5.202   4.161 -0.9081 -0.2722 -0.3774
 5768TIP3    H117268   3.224   5.185   4.238  1.1628 -2.1100  0.8042
 5768TIP3    H217269   3.337   5.272   4.187 -0.8153 -0.2633 -0.6060
 5769TIP3   OH217270   1.203   5.390   3.971 -0.0661  0.3214  0.2616
 5769TIP3    H117271   1.281   5.383   4.026 -0.8424  0.8516  1.4847
 5769TIP3    H217272   1.135   5.423   4.030 -1.3547 -0.6152 -0.6398
 5770TIP3   OH217273   4.506   2.716   0.985  0.1558 -0.0430  0.4980
 5770TIP3    H117274   4.465   2.641   1.029 -2.9714  1.0502 -0.2792
 5770TIP3    H217275   4.576   2.677   0.932  1.6893 -1.7910  3.5326
 5771TIP3   OH217276   6.996   5.457   3.846 -0.5417 -0.5574 -0.4648
 5771TIP3    H117277   7.011   5.382   3.903 -0.3965 -0.1749 -0.0025
 5771TIP3    H217278   6.912   5.437   3.803  0.6576 -2.1598 -2.2252
 5772TIP3   OH217279   1.133   5.983   4.284 -0.3484 -0.1329 -0.1229
 5772TIP3    H117280   1.107   6.075   4.295 -1.8378 -0.5791  0.3035
 5772TIP3    H217281   1.172   5.979   4.197  1.4476  1.2586  0.5520
 5773TIP3   OH217282   1.517   1.640   0.480 -0.2250 -0.2245 -0.0317
 5773TIP3    H117283   1.545   1.726   0.449  0.4300 -0.3704  0.1349
 5773TIP3    H217284   1.422   1.640   0.467  0.0499 -0.4872 -2.5816
 5774TIP3   OH217285   3.684   4.516   3.670 -0.0054  0.1771  0.3081
 5774TIP3    H117286   3.774   4.547   3.663 -0.0336  0.1468 -0.2185
 5774TIP3    H217287   3.682   4.466   3.752 -0.2044  2.3496  1.6939
 5775TIP3   OH217288   5.621   4.547   2.389 -0.5980  0.2658  0.6342
 5775TIP3    H117289   5.559   4.484   2.354  0.5161 -0.3089 -0.4025
 5775TIP3    H217290   5.574   4.630   2.391 -0.9583  0.1839 -1.6211
 5776TIP3   OH217291   5.573   1.047   5.460 -0.1891  0.0264 -0.2262
 5776TIP3    H117292   5.529   1.073   5.380  2.1491  1.5932 -1.1385
 5776TIP3    H217293   5.577   0.951   5.456  0.5440  0.0947 -2.3994
 5777TIP3   OH217294   1.141   3.991   5.639  0.1113  0.0690 -0.4165
 5777TIP3    H117295   1.197   3.929   5.592 -0.7741 -1.7331  0.8115
 5777TIP3    H217296   1.110   4.050   5.570 -0.1074 -1.6817 -1.9205
 5778TIP3   OH217297   3.197   2.467   4.734 -0.0262  0.1901 -0.0603
 5778TIP3    H117298   3.143   2.475   4.813  1.6115 -0.1161  1.1467
 5778TIP3    H217299   3.225   2.557   4.716 -0.2842  0.2405 -0.2168
 5779TIP3   OH217300   3.448   4.932   1.007  0.2841 -0.1937 -0.0954
 5779TIP3    H117301   3.390   4.991   0.958  1.1992  0.0613 -0.8878
 5779TIP3    H217302   3.535   4.949   0.972  0.9571 -0.1030  1.5301
 5780TIP3   OH217303   7.018   5.767   2.574 -0.3755  0.0836  0.6256
 5780TIP3    H117304   7.090   5.705   2.586  0.2833  1.2477  3.4686
 5780TIP3    H217305   7.038   5.811   2.491  0.6690 -1.4878 -0.0170
 5781TIP3   OH217306   0.722   2.400   2.986  0.4006  0.5411  0.1135
 5781TIP3    H117307   0.648   2.357   3.030 -1.0760 -0.1391 -2.8085
 5781TIP3    H217308   0.773   2.439   3.058 -0.6940 -2.1474  2.5554
 5782TIP3   OH217309   3.199   5.885   4.597 -0.0233 -0.2765  0.2515
 5782TIP3    H117310   3.143   5.957   4.567 -0.7094 -0.8578  0.1083
 5782TIP3    H217311   3.220   5.836   4.518 -0.9359 -1.1804  0.5401
 5783TIP3   OH217312   2.642   5.330   1.001 -0.1474 -0.3049  0.0668
 5783TIP3    H117313   2.619   5.239   1.022 -0.1937 -0.0148  1.3518
 5783TIP3    H217314   2.714   5.351   1.059 -0.1148  0.4799 -0.2438
 5784TIP3   OH217315   1.625   0.691   4.005  0.0045 -0.1492 -0.6440
 5784TIP3    H117316   1.699   0.636   4.033  0.9917  0.5783 -1.7653
 5784TIP3    H217317   1.548   0.638   4.025  0.7285 -0.4419  1.6780
 5785TIP3   OH217318   5.647   4.453   0.142  0.2076 -0.2174  0.3965
 5785TIP3    H117319   5.699   4.404   0.206  2.4576  1.2948 -0.1139
 5785TIP3    H217320   5.582   4.391   0.110  0.4088 -1.6447  2.5473
 5786TIP3   OH217321   0.589   2.712   0.654 -0.2444 -0.3667  0.9508
 5786TIP3    H117322   0.568   2.694   0.745 -0.7256  1.1967  1.1801
 5786TIP3    H217323   0.565   2.804   0.641  1.2889 -0.0812 -0.3031
 5787TIP3   OH217324   1.087   1.159   3.855  0.1941 -0.4280 -0.0862
 5787TIP3    H117325   1.057   1.237   3.903  1.0592  2.0992 -3.3021
 5787TIP3    H217326   1.182   1.166   3.856  0.2309 -0.2495 -2.1400
 5788TIP3   OH217327   6.262   1.770   2.947 -0.9105  0.1198 -0.3996
 5788TIP3    H117328   6.176   1.796   2.979 -0.2680 -0.4983  2.0043
 5788TIP3    H217329   6.264   1.675   2.954 -0.0335  0.1229 -0.3891
 5789TIP3   OH217330   3.789   4.386   5.612 -0.0264  0.3149 -0.4796
 5789TIP3    H117331   3.839   4.433   5.678  0.1997  0.9436 -1.0793
 5789TIP3    H217332   3.699   4.384   5.647  0.4626 -1.2387  0.8195
 5790TIP3   OH217333   3.864   0.017   0.151 -0.2725 -0.1095 -0.3336
 5790TIP3    H117334   3.847  -0.055   0.211  0.0848 -0.4192 -0.5949
 5790TIP3    H217335   3.886   0.091   0.207 -1.6814  0.0846 -0.0263
 5791TIP3   OH217336   4.255   3.599   4.403 -0.3990  0.1584 -0.5530
 5791TIP3    H117337   4.200   3.569   4.475  0.9056 -1.1895 -0.0488
 5791TIP3    H217338   4.236   3.692   4.395  0.5464  0.7521  2.6273
 5792TIP3   OH217339   0.364   0.449   5.498 -0.4641 -0.0924 -0.1354
 5792TIP3    H117340   0.443   0.399   5.520  0.5128  1.2366 -0.4963
 5792TIP3    H217341   0.337   0.415   5.413 -0.2903 -0.5700 -0.0040
 5793TIP3   OH217342   6.711   0.982   5.109  0.3675 -0.1249  0.6291
 5793TIP3    H117343   6.779   0.971   5.176 -0.5431 -1.2084  1.4194
 5793TIP3    H217344   6.759   0.979   5.026  1.1015 -3.5463  1.0324
 5794TIP3   OH217345   5.745   1.408   5.531  0.2530 -0.1146  0.4645
 5794TIP3    H117346   5.771   1.460   5.455  1.6912 -1.1640  0.1990
 5794TIP3    H217347   5.654   1.434   5.548  0.1217  0.6246 -1.1992
 5795TIP3   OH217348   4.157   2.800   4.000  0.3209  0.3194  0.7620
 5795TIP3    H117349   4.086   2.855   4.032 -1.0277 -0.9111 -0.0208
 5795TIP3    H217350   4.118   2.748   3.930  2.0622 -0.2099  0.1283
 5796TIP3   OH217351   0.600   4.041   1.481 -0.3550  0.9221  0.0004
 5796TIP3    H117352   0.573   3.953   1.455 -1.5803  1.1363  0.4697
 5796TIP3    H217353   0.518   4.091   1.485  0.2098  1.8278  0.6626
 5797TIP3   OH217354   4.450   3.670   5.595 -0.0836 -0.2373 -0.4378
 5797TIP3    H117355   4.485   3.752   5.629 -2.5023  1.0198 -0.7640
 5797TIP3    H217356   4.466   3.673   5.501 -2.0694  0.9808 -0.8029
 5798TIP3   OH217357   2.760   4.508   2.187 -0.0832  0.3511  0.0707
 5798TIP3    H117358   2.776   4.544   2.274  1.7520 -1.0004  0.3404
 5798TIP3    H217359   2.706   4.430   2.202  0.2153  0.1294  0.0010
 5799TIP3   OH217360   7.129   0.836   3.290  0.0673  0.3800 -0.1811
 5799TIP3    H117361   7.063   0.898   3.260 -0.3250 -0.1799 -0.4913
 5799TIP3    H217362   7.148   0.862   3.380 -0.5786  0.5460 -0.0910
 5800TIP3   OH217363   2.421   4.145   2.080 -0.1174 -0.1712 -0.2205
 5800TIP3    H117364   2.469   4.071   2.118 -0.0407  0.0980  0.2185
 5800TIP3    H217365   2.347   4.159   2.140 -0.1385  0.0982 -0.3062
 5801TIP3   OH217366   2.546   1.975   5.330  0.2226 -0.6036 -0.3234
 5801TIP3    H117367   2.583   1.888   5.341 -1.5456 -1.4983 -0.9831
 5801TIP3    H217368   2.608   2.020   5.272 -0.7326 -2.8137 -3.2997
 5802TIP3   OH217369   6.301   2.346   1.198 -0.3766 -0.2564 -0.0464
 5802TIP3    H117370   6.390   2.318   1.178  0.4574  1.8664  0.4651
 5802TIP3    H217371   6.286   2.421   1.141 -1.7309 -0.3892  0.1102
 5803TIP3   OH217372   4.245   2.457   0.232  0.3346 -0.0011  0.3787
 5803TIP3    H117373   4.294   2.540   0.230 -1.0375  0.8601  0.7227
 5803TIP3    H217374   4.292   2.400   0.172  1.0548  1.1809 -0.2326
 5804TIP3   OH217375   4.167   3.577   2.207  0.1095 -0.5666 -0.2354
 5804TIP3    H117376   4.083   3.564   2.165  0.3511 -0.6215 -0.7039
 5804TIP3    H217377   4.212   3.641   2.152  0.7097 -1.1770 -0.4709
 5805TIP3   OH217378   0.131   0.693   0.146 -0.0941 -0.6078  0.0024
 5805TIP3    H117379   0.197   0.654   0.088  0.6004  2.4692 -1.5085
 5805TIP3    H217380   0.066   0.625   0.158  1.6781 -2.6578 -1.2390
 5806TIP3   OH217381   3.824   3.823   4.183  0.2669 -0.8518  0.2323
 5806TIP3    H117382   3.819   3.893   4.119  0.6652 -0.4569  0.6231
 5806TIP3    H217383   3.748   3.767   4.165 -0.5656  0.1731  0.4983
 5807TIP3   OH217384   1.410   6.756   3.892 -0.5924  0.3050 -0.5214
 5807TIP3    H117385   1.457   6.676   3.914  1.3071  1.1743 -1.2042
 5807TIP3    H217386   1.445   6.822   3.952 -0.6134  1.0730 -1.3354
 5808TIP3   OH217387   5.743   3.529   2.860 -0.0793  0.5701 -0.2200
 5808TIP3    H117388   5.822   3.551   2.910 -1.3157  1.3723  1.5054
 5808TIP3    H217389   5.727   3.437   2.880  1.1769 -0.0225 -1.7503
 5809TIP3   OH217390   5.271   4.372   5.609  0.3358 -0.1826 -0.4388
 5809TIP3    H117391   5.222   4.291   5.597 -0.6927  0.5102 -1.1345
 5809TIP3    H217392   5.232   4.433   5.546  1.8817  0.5088 -0.7687
 5810TIP3   OH217393   5.423   0.572   2.472 -0.2296  0.3173 -0.4609
 5810TIP3    H117394   5.472   0.504   2.519  0.3944  0.9372 -0.1965
 5810TIP3    H217395   5.339   0.531   2.451  0.1327 -0.5325 -0.2979
 5811TIP3   OH217396   1.215   5.070   1.659  0.3147 -0.2496 -0.7236
 5811TIP3    H117397   1.189   5.136   1.595  0.3015  1.9187  1.3539
 5811TIP3    H217398   1.134   5.046   1.704  0.6759  0.2450  0.2157
 5812TIP3   OH217399   2.987   1.346   2.391 -0.4084  0.3271  0.3861
 5812TIP3    H117400   3.051   1.347   2.463 -0.6816 -0.8051  0.6598
 5812TIP3    H217401   2.908   1.309   2.429 -0.1729 -1.5275 -0.7838
 5813TIP3   OH217402   1.755   5.244   5.045  0.5118  0.2550 -0.5153
 5813TIP3    H117403   1.763   5.277   5.135  1.0163 -0.4965 -0.2795
 5813TIP3    H217404   1.685   5.180   5.049  0.7261  0.0159 -0.6025
 5814TIP3   OH217405   6.687   4.290   1.164 -0.6261 -0.1796  0.6820
 5814TIP3    H117406   6.720   4.336   1.241  2.4220  0.3827 -0.8045
 5814TIP3    H217407   6.641   4.214   1.199  1.0507 -0.2020  3.0696
 5815TIP3   OH217408   2.519   3.401   1.982 -0.5636  0.0158  0.0774
 5815TIP3    H117409   2.529   3.411   1.888  2.1798  1.7726  0.4668
 5815TIP3    H217410   2.569   3.322   2.003  0.6726  0.8405  0.2963
 5816TIP3   OH217411   0.888   0.942   0.165 -0.1580 -0.3551 -0.2753
 5816TIP3    H117412   0.866   1.006   0.098  0.4641  0.5067  0.3205
 5816TIP3    H217413   0.937   0.874   0.119 -0.5755 -0.2652 -0.8612
 5817TIP3   OH217414   0.233   5.862   2.632  0.1737 -0.1729 -0.6505
 5817TIP3    H117415   0.252   5.935   2.691 -2.2295  0.5097 -0.6254
 5817TIP3    H217416   0.189   5.798   2.687 -1.7010  0.2811 -1.5431
 5818TIP3   OH217417   6.698   6.283   2.497 -0.1843  0.1505 -0.2508
 5818TIP3    H117418   6.721   6.342   2.425  0.0594  4.1991  2.8054
 5818TIP3    H217419   6.624   6.325   2.540 -0.6722 -2.3616  1.6201
 5819TIP3   OH217420   6.288   5.395   5.664  0.2720 -0.3545  0.5408
 5819TIP3    H117421   6.370   5.362   5.701 -0.1956 -0.9021  1.1100
 5819TIP3    H217422   6.268   5.473   5.716  0.5844 -0.0347  0.1935
 5820TIP3   OH217423   3.250   3.793   4.284 -0.2444 -0.1678  0.0304
 5820TIP3    H117424   3.270   3.886   4.276  0.1989 -0.2016  0.7272
 5820TIP3    H217425   3.216   3.783   4.373 -2.0565 -0.3521 -0.6360
 5821TIP3   OH217426   4.062   1.442   3.089 -0.3790  0.0954 -0.0602
 5821TIP3    H117427   4.071   1.350   3.064 -0.4421 -0.0026  0.2750
 5821TIP3    H217428   4.042   1.440   3.182  0.9421  0.4890  0.2545
 5822TIP3   OH217429   6.084   3.143   5.231  0.4600  0.4971  0.2091
 5822TIP3    H117430   6.162   3.114   5.184  0.3981  0.2310  0.2662
 5822TIP3    H217431   6.080   3.087   5.308  0.4285  0.7711  0.4075
 5823TIP3   OH217432   5.294   4.363   3.221  0.6902  0.0149 -0.2099
 5823TIP3    H117433   5.355   4.312   3.169  3.6806  1.1090  1.9288
 5823TIP3    H217434   5.328   4.453   3.215  0.8203  0.2818  2.9589
 5824TIP3   OH217435   7.080   0.253   4.364  0.1713 -0.5714 -0.6751
 5824TIP3    H117436   7.033   0.332   4.337  0.2133 -0.3781 -0.1825
 5824TIP3    H217437   7.010   0.189   4.381  0.1406 -0.6692 -1.1514
 5825TIP3   OH217438   1.546   2.653   2.703 -0.0813  0.1037  0.5400
 5825TIP3    H117439   1.509   2.707   2.772  2.2327 -0.2116  2.1386
 5825TIP3    H217440   1.490   2.576   2.699 -2.3068  1.6825 -0.4536
 5826TIP3   OH217441   3.664   0.459   3.676 -0.1875 -0.0339  0.0726
 5826TIP3    H117442   3.589   0.488   3.623 -0.3244 -2.4174 -1.2041
 5826TIP3    H217443   3.741   0.492   3.630 -0.3824  0.4718  0.1019
 5827TIP3   OH217444   4.235   5.699   0.274 -0.4422  0.3242 -0.5123
 5827TIP3    H117445   4.308   5.640   0.254  0.9099  1.5419  0.6499
 5827TIP3    H217446   4.212   5.679   0.365 -1.5181  0.0229 -0.8347
 5828TIP3   OH217447   3.423   0.388   5.575  0.0110  0.0517 -0.2562
 5828TIP3    H117448   3.505   0.339   5.581 -0.1739 -0.2624 -0.2556
 5828TIP3    H217449   3.362   0.341   5.632  0.3080  1.2909  1.1328
 5829TIP3   OH217450   3.350   0.249   5.146 -0.5819 -0.1461 -0.4308
 5829TIP3    H117451   3.406   0.325   5.162  0.5218 -1.1528  0.7898
 5829TIP3    H217452   3.379   0.215   5.062  0.3652 -0.3812 -0.0276
 5830TIP3   OH217453   2.565   6.063   0.524  0.1109 -0.5230  0.3879
 5830TIP3    H117454   2.607   6.134   0.573 -0.1706 -1.4687  2.0754
 5830TIP3    H217455   2.555   6.097   0.435  0.1435  1.4749  1.1123
 5831TIP3   OH217456   5.817   3.889   1.692 -0.4758  0.3149  0.0729
 5831TIP3    H117457   5.793   3.811   1.742  2.0458 -1.0460 -0.6866
 5831TIP3    H217458   5.769   3.879   1.609 -2.3426  1.0718  1.0077
 5832TIP3   OH217459   6.439   1.201   2.478  0.3165 -0.5280  0.4379
 5832TIP3    H117460   6.527   1.237   2.493 -0.1864  0.5561  0.9087
 5832TIP3    H217461   6.382   1.254   2.533 -0.8847 -0.0031 -1.2322
 5833TIP3   OH217462   5.892   5.480   1.412 -0.0722  0.4493  0.0853
 5833TIP3    H117463   5.955   5.412   1.437  1.0265  1.1667 -0.6924
 5833TIP3    H217464   5.807   5.436   1.417  0.3713 -0.2757  2.0847
 5834TIP3   OH217465   0.810   5.094   5.668  0.5174  0.1544  0.6559
 5834TIP3    H117466   0.778   5.176   5.706  0.6998  0.6887 -0.2957
 5834TIP3    H217467   0.731   5.043   5.650  0.3566  0.3975  0.6624
 5835TIP3   OH217468   3.328   2.335   4.539 -0.4138  0.3857  0.0451
 5835TIP3    H117469   3.261   2.372   4.597 -1.2221 -0.1518 -0.5179
 5835TIP3    H217470   3.293   2.249   4.514 -1.1188  1.4328 -2.9115
 5836TIP3   OH217471   4.687   3.214   1.044  0.0386  0.0244 -0.3521
 5836TIP3    H117472   4.687   3.134   1.096  0.6180 -0.0069 -0.4000
 5836TIP3    H217473   4.778   3.225   1.016  0.3850  1.7359  1.2591
 5837TIP3   OH217474   6.315   5.887   3.239  0.2483 -0.0930  0.2462
 5837TIP3    H117475   6.301   5.969   3.286  0.7614  0.3014 -0.2657
 5837TIP3    H217476   6.228   5.861   3.209  0.2190  0.8318 -0.5087
 5838TIP3   OH217477   1.348   4.485   4.846 -0.0147  0.2516  0.0126
 5838TIP3    H117478   1.280   4.421   4.824 -0.8847  0.9840  0.4748
 5838TIP3    H217479   1.388   4.508   4.763  1.9749 -2.6328  0.0516
 5839TIP3   OH217480   4.779   1.450   0.947 -0.5472  0.5526  0.1777
 5839TIP3    H117481   4.853   1.479   1.000 -0.2815 -1.2180  0.8593
 5839TIP3    H217482   4.711   1.516   0.963  0.6780  1.9001 -0.0269
 5840TIP3   OH217483   0.108   1.240   0.853  0.1442 -0.4998  0.4752
 5840TIP3    H117484   0.158   1.317   0.879  0.8030  0.0253 -2.0465
 5840TIP3    H217485   0.161   1.199   0.785 -2.0172 -0.9323 -1.0434
 5841TIP3   OH217486   0.629   6.226   5.163  0.1655 -0.0430 -0.1101
 5841TIP3    H117487   0.657   6.216   5.254  1.7136  0.9815 -0.4425
 5841TIP3    H217488   0.697   6.183   5.112 -0.6265 -0.4970 -0.7955
 5842TIP3   OH217489   4.552   4.022   2.904  0.3645  0.0428 -0.1350
 5842TIP3    H117490   4.632   3.971   2.914  0.9370  0.9506  0.0693
 5842TIP3    H217491   4.564   4.097   2.962 -1.8651 -1.2169  2.1385
 5843TIP3   OH217492   4.873   6.153   3.945 -0.3200 -0.0975  0.0335
 5843TIP3    H117493   4.903   6.224   3.889 -0.2627  0.3127  0.5803
 5843TIP3    H217494   4.791   6.124   3.905 -0.3757  0.3157 -0.1569
 5844TIP3   OH217495   3.164   3.960   5.339  0.2466  0.3126 -0.3483
 5844TIP3    H117496   3.256   3.985   5.336 -0.4255  3.1545 -0.4198
 5844TIP3    H217497   3.124   4.008   5.266 -1.3939 -0.3856  0.0499
 5845TIP3   OH217498   3.882   3.598   4.811  0.2376 -0.8863 -0.3939
 5845TIP3    H117499   3.856   3.672   4.756  1.0201 -0.8211 -0.6859
 5845TIP3    H217500   3.813   3.533   4.798  0.2681 -0.7627 -1.2382
 5846TIP3   OH217501   5.432   3.103   2.504  0.2889 -0.2270 -0.0079
 5846TIP3    H117502   5.524   3.116   2.526 -0.2951  2.1847  1.4549
 5846TIP3    H217503   5.403   3.031   2.560  0.8996  0.1342  0.7833
 5847TIP3   OH217504   0.294   6.802   3.033  0.1356  0.2822 -0.4411
 5847TIP3    H117505   0.303   6.712   3.001 -2.9538 -0.4746  0.3802
 5847TIP3    H217506   0.209   6.830   2.999 -0.6354  1.5194  2.2642
 5848TIP3   OH217507   1.644   0.369   3.259 -0.2241  0.2068  0.2795
 5848TIP3    H117508   1.582   0.307   3.298  0.9528 -1.6281 -0.6223
 5848TIP3    H217509   1.632   0.359   3.164  1.4610 -0.2511  0.0803
 5849TIP3   OH217510   4.988   2.004   1.199 -0.2349  0.0938  0.2085
 5849TIP3    H117511   5.071   2.051   1.199  0.4266 -1.0067  1.1704
 5849TIP3    H217512   4.937   2.045   1.129  1.3933  0.2941 -0.9234
 5850TIP3   OH217513   4.109   4.584   3.102  0.2024 -0.2646  0.3758
 5850TIP3    H117514   4.041   4.615   3.042  0.2118  0.0691  0.5357
 5850TIP3    H217515   4.109   4.489   3.090  0.6560 -0.1496 -0.6367
 5851TIP3   OH217516   3.951   0.452   0.920 -0.1724  0.3695 -0.2296
 5851TIP3    H117517   3.969   0.513   0.848 -1.3534  0.8501 -0.1379
 5851TIP3    H217518   3.898   0.503   0.981  0.0458 -0.3204  0.5550
 5852TIP3   OH217519   5.797   0.182   5.654  0.0752 -0.4822 -0.5759
 5852TIP3    H117520   5.813   0.089   5.638  0.4071 -0.6338  0.5158
 5852TIP3    H217521   5.766   0.185   5.744  1.5109  0.5976 -0.0822
 5853TIP3   OH217522   4.646   3.349   1.705 -0.0689  0.0252 -0.0368
 5853TIP3    H117523   4.658   3.436   1.670  1.7916 -0.3464 -0.4125
 5853TIP3    H217524   4.552   3.332   1.696 -0.2630  1.4941 -1.0748
 5854TIP3   OH217525   2.906   5.424   3.009  0.0439  0.0727  0.2779
 5854TIP3    H117526   2.826   5.412   3.060  0.6228 -0.3703  1.1085
 5854TIP3    H217527   2.877   5.465   2.927 -1.0256 -0.1138  0.5533
 5855TIP3   OH217528   6.827   4.271   5.864 -0.0767 -0.4062  0.1815
 5855TIP3    H117529   6.819   4.266   5.769  0.3316  1.0178  0.0440
 5855TIP3    H217530   6.777   4.196   5.896 -0.5587 -0.6832 -1.1309
 5856TIP3   OH217531   3.895   0.222   5.749 -0.6893  0.1658 -0.3518
 5856TIP3    H117532   3.937   0.161   5.810  0.4548 -0.9114 -2.1294
 5856TIP3    H217533   3.956   0.296   5.745 -0.0524 -0.3972 -1.2391
 5857TIP3   OH217534   7.133   1.759   0.585 -0.0401 -0.2112 -0.1028
 5857TIP3    H117535   7.210   1.811   0.560 -0.3146 -0.6754 -2.0759
 5857TIP3    H217536   7.137   1.755   0.681  1.4627  1.1694 -0.0596
 5858TIP3   OH217537   4.600   0.526   5.354 -0.9303 -0.2695  0.1706
 5858TIP3    H117538   4.681   0.575   5.342 -0.4498 -0.6572  1.6032
 5858TIP3    H217539   4.627   0.435   5.364 -1.6372 -0.5498 -0.3418
 5859TIP3   OH217540   1.444   0.195   3.309  0.0513  0.3628 -0.1574
 5859TIP3    H117541   1.418   0.103   3.299  1.5487  0.0549 -1.8332
 5859TIP3    H217542   1.494   0.198   3.391  1.9172 -0.8603 -1.1765
 5860TIP3   OH217543   4.102   6.580   5.352 -0.4097  0.4652  0.4319
 5860TIP3    H117544   4.181   6.598   5.403  0.5911 -1.2030 -0.4503
 5860TIP3    H217545   4.097   6.485   5.350 -2.7286  0.5267  0.8377
 5861TIP3   OH217546   1.735   2.585   1.080  0.5852 -0.0763 -1.1182
 5861TIP3    H117547   1.732   2.489   1.086  0.0156 -0.0671 -1.1665
 5861TIP3    H217548   1.645   2.612   1.098  1.1524  0.5845  1.1682
 5862TIP3   OH217549   2.179   0.179   2.640  0.0115  0.2547 -0.1991
 5862TIP3    H117550   2.228   0.191   2.559  0.7783  0.3004  0.2661
 5862TIP3    H217551   2.126   0.101   2.625  1.2475 -0.5933 -0.2082
 5863TIP3   OH217552   6.948   0.798   4.677  0.5351 -0.6110 -0.0268
 5863TIP3    H117553   6.911   0.767   4.594 -0.4026  0.5253 -0.0642
 5863TIP3    H217554   7.040   0.813   4.659  0.7204 -2.0112 -0.3715
 5864TIP3   OH217555   4.984   1.175   5.035 -0.0189  0.1318 -0.2262
 5864TIP3    H117556   5.010   1.083   5.043 -0.1444 -0.0504 -1.6851
 5864TIP3    H217557   4.911   1.185   5.097  1.0228 -0.3169  1.1307
 5865TIP3   OH217558   0.611   1.336   1.793 -0.4490  0.1219  0.0431
 5865TIP3    H117559   0.570   1.294   1.717  2.6140 -0.4867 -1.4301
 5865TIP3    H217560   0.625   1.265   1.855 -1.9024  0.4181  0.7680
 5866TIP3   OH217561   1.658   1.147   3.078  0.1286  0.5106 -0.3411
 5866TIP3    H117562   1.691   1.230   3.046  0.3019  0.2710 -0.7866
 5866TIP3    H217563   1.565   1.164   3.096 -0.3693  0.2664 -2.4056
 5867TIP3   OH217564   4.585   0.113   3.832 -0.1075 -0.6905 -0.5671
 5867TIP3    H117565   4.663   0.146   3.788 -1.4824 -0.1631 -2.7550
 5867TIP3    H217566   4.592   0.018   3.826  0.9644 -0.6969  0.4342
 5868TIP3   OH217567   5.089   1.968   2.862  0.2725 -0.1928  0.3959
 5868TIP3    H117568   5.031   1.950   2.936 -0.1754 -0.4682 -0.0143
 5868TIP3    H217569   5.096   1.884   2.817 -0.1108  0.1579 -0.3298
 5869TIP3   OH217570   2.434   1.407   5.839 -0.0610 -0.4980  0.3925
 5869TIP3    H117571   2.525   1.425   5.862  0.5527 -1.0464 -1.4184
 5869TIP3    H217572   2.392   1.494   5.839  0.2406 -0.3303  2.0048
 5870TIP3   OH217573   3.970   1.060   1.693 -0.0403 -0.0927  0.1349
 5870TIP3    H117574   4.029   1.016   1.631  0.3000 -0.5324  0.7571
 5870TIP3    H217575   4.028   1.090   1.764 -0.3390  0.9340 -0.0433
 5871TIP3   OH217576   7.153   6.017   0.888 -0.1759  0.6507 -0.4982
 5871TIP3    H117577   7.180   5.925   0.898  1.1884  1.2175  2.0542
 5871TIP3    H217578   7.222   6.056   0.834  0.8022  0.7166  0.7415
 5872TIP3   OH217579   1.113   4.125   3.743  0.4185  0.0743  0.0470
 5872TIP3    H117580   1.053   4.066   3.697 -1.9284  2.3571 -0.0569
 5872TIP3    H217581   1.175   4.154   3.676 -1.9094  2.0341 -1.4116
 5873TIP3   OH217582   1.998   1.491   3.994 -0.2465 -0.0368  0.2817
 5873TIP3    H117583   2.053   1.472   4.069  0.8350  1.5800 -0.0506
 5873TIP3    H217584   1.988   1.407   3.949  0.6023 -0.6610  1.2219
 5874TIP3   OH217585   6.145   4.938   0.486 -0.3195 -0.0462  0.0897
 5874TIP3    H117586   6.130   5.031   0.471 -1.1062  0.1890  2.0337
 5874TIP3    H217587   6.092   4.894   0.420 -0.6316  0.8834 -0.2917
 5875TIP3   OH217588   4.084   3.070   4.796  0.2237 -0.0579 -0.6615
 5875TIP3    H117589   4.116   2.981   4.781 -1.3943 -0.7588 -0.1831
 5875TIP3    H217590   3.995   3.058   4.830 -0.9259  1.7545 -2.7433
 5876TIP3   OH217591   3.588   1.441   1.851 -0.1475  0.0445 -0.7627
 5876TIP3    H117592   3.628   1.366   1.808 -1.2260 -0.6762 -0.5525
 5876TIP3    H217593   3.662   1.498   1.874  0.5584 -0.1504 -2.3831
 5877TIP3   OH217594   1.364   2.017   4.213  0.1676  0.2741  0.5981
 5877TIP3    H117595   1.439   2.066   4.248  0.9527  0.7573 -1.6262
 5877TIP3    H217596   1.403   1.937   4.177 -0.2926  0.6941 -0.9023
 5878TIP3   OH217597   4.224   3.025   3.171 -0.2538  0.3732  0.2193
 5878TIP3    H117598   4.148   3.083   3.177 -0.7559 -0.0794 -1.3794
 5878TIP3    H217599   4.286   3.072   3.115 -0.4937 -0.4346 -0.7407
 5879TIP3   OH217600   0.673   5.386   4.992 -0.0643 -0.5182  0.4735
 5879TIP3    H117601   0.740   5.391   4.923 -0.6877  0.1161 -0.0923
 5879TIP3    H217602   0.606   5.327   4.956  0.6776 -2.0756  1.4890
 5880TIP3   OH217603   2.753   2.904   2.158 -0.4472 -0.0234  0.2733
 5880TIP3    H117604   2.777   2.994   2.133  0.1176 -0.3501 -0.3743
 5880TIP3    H217605   2.730   2.862   2.076 -1.2030 -0.3340  0.6409
 5881TIP3   OH217606   3.239   6.457   5.718  0.7663  0.1302  0.2979
 5881TIP3    H117607   3.152   6.418   5.713  1.7875 -2.1591 -0.9427
 5881TIP3    H217608   3.241   6.522   5.648  0.4752 -0.6993 -0.4861
 5882TIP3   OH217609   6.886   0.776   0.606 -0.2678 -0.1552  0.0414
 5882TIP3    H117610   6.860   0.821   0.525 -1.4567  0.3865  0.6956
 5882TIP3    H217611   6.807   0.730   0.633  0.9631 -2.8885 -0.7188
 5883TIP3   OH217612   5.034   6.012   3.036  0.3512 -0.3527  0.2464
 5883TIP3    H117613   5.074   6.096   3.056 -0.9302  0.4805 -0.5272
 5883TIP3    H217614   5.012   6.017   2.943 -2.3189 -0.3744  0.7910
 5884TIP3   OH217615   5.724  -0.004   5.059 -0.6960  0.2439 -0.3925
 5884TIP3    H117616   5.776   0.023   5.134 -0.1915 -1.0630 -0.2550
 5884TIP3    H217617   5.780   0.014   4.983 -0.6418  0.2147 -0.3589
 5885TIP3   OH217618   1.656   6.195   3.891 -0.0467 -0.3312 -0.4479
 5885TIP3    H117619   1.702   6.256   3.950  0.7463 -0.4075 -0.9833
 5885TIP3    H217620   1.593   6.151   3.948  0.5871 -0.2754  0.3172
 5886TIP3   OH217621   1.721   3.899   3.768  0.6937 -0.5545 -0.6718
 5886TIP3    H117622   1.667   3.977   3.774  1.1730 -0.1341 -1.6376
 5886TIP3    H217623   1.807   3.925   3.803  0.7160 -0.7904 -0.5419
 5887TIP3   OH217624   3.682   2.930   0.536  0.3553  0.0006  0.3778
 5887TIP3    H117625   3.708   2.843   0.505  1.4115  1.3246 -2.8615
 5887TIP3    H217626   3.599   2.948   0.491  0.5160  0.9348  0.4323
 5888TIP3   OH217627   2.835   0.468   4.252 -0.3039  0.0557  0.3928
 5888TIP3    H117628   2.814   0.419   4.173  0.4180 -0.4052  0.4802
 5888TIP3    H217629   2.882   0.405   4.307 -1.1348  0.2544  1.3512
 5889TIP3   OH217630   3.559   5.737   3.238  0.0137 -0.6499  0.5349
 5889TIP3    H117631   3.606   5.726   3.156 -2.3478  0.1476 -1.0076
 5889TIP3    H217632   3.520   5.824   3.233 -2.0708 -1.4690  1.4532
 5890TIP3   OH217633   6.137   4.846   1.874 -0.0812 -1.2061 -0.3757
 5890TIP3    H117634   6.098   4.800   1.800 -1.5762  1.2315 -1.2546
 5890TIP3    H217635   6.157   4.933   1.840 -1.3999  0.2246  2.1727
 5891TIP3   OH217636   6.434   5.774   4.077 -0.0834 -0.3629 -0.6415
 5891TIP3    H117637   6.425   5.688   4.035 -0.6017 -0.3135 -0.6346
 5891TIP3    H217638   6.356   5.782   4.132 -0.0943  0.1618 -0.7280
 5892TIP3   OH217639   1.413   0.466   0.299 -0.1637  0.1494 -0.0545
 5892TIP3    H117640   1.447   0.537   0.354 -0.3967  0.2468 -0.0334
 5892TIP3    H217641   1.355   0.417   0.356  0.3191 -0.3095  0.0450
 5893TIP3   OH217642   6.914   0.579   3.704 -0.1477  0.1476 -0.1740
 5893TIP3    H117643   6.889   0.501   3.755  2.3149 -0.4222  0.3068
 5893TIP3    H217644   6.911   0.650   3.768  2.1686 -0.4321  0.6873
 5894TIP3   OH217645   6.424   0.971   3.033  0.2121  0.0478  0.0434
 5894TIP3    H117646   6.490   0.919   3.080  0.2803  0.5287  0.4849
 5894TIP3    H217647   6.345   0.963   3.086  0.1486  0.1709 -0.0324
 5895TIP3   OH217648   2.432   6.573   0.729  0.4901  0.1060 -0.7121
 5895TIP3    H117649   2.364   6.629   0.691 -0.5300 -0.6084  0.0080
 5895TIP3    H217650   2.399   6.552   0.817  0.3386 -2.4198 -1.2927
 5896TIP3   OH217651   6.509   4.624   4.388 -0.3178  0.6280  0.0324
 5896TIP3    H117652   6.490   4.540   4.429 -1.9795  1.2898  0.7135
 5896TIP3    H217653   6.424   4.668   4.382  0.4781  2.1977 -0.4679
 5897TIP3   OH217654   0.295   3.334   0.960 -0.5837 -0.6945  0.1568
 5897TIP3    H117655   0.291   3.397   0.888 -0.2056 -0.6391  0.1804
 5897TIP3    H217656   0.382   3.294   0.952  0.1902  0.5520  1.5924
 5898TIP3   OH217657   1.395   5.249   1.115 -0.2758 -0.2473  0.2358
 5898TIP3    H117658   1.467   5.312   1.124 -1.1379  0.9062 -0.6192
 5898TIP3    H217659   1.316   5.301   1.129 -1.0276 -1.0817 -0.7388
 5899TIP3   OH217660   2.316   4.428   0.680 -0.8431 -0.2128  0.3985
 5899TIP3    H117661   2.316   4.333   0.673  1.4633 -0.1638 -0.9158
 5899TIP3    H217662   2.345   4.445   0.770  0.1664 -0.7670  0.1921
 5900TIP3   OH217663   0.905   3.663   1.457 -0.0544 -0.2410  0.1556
 5900TIP3    H117664   0.909   3.568   1.445  1.5444 -0.2179  0.2661
 5900TIP3    H217665   0.822   3.678   1.501 -0.8447 -1.4726 -0.8441
 5901TIP3   OH217666   3.550   6.488   4.926 -0.3554 -0.3170 -0.3400
 5901TIP3    H117667   3.572   6.580   4.913 -0.6607  0.1205  1.8417
 5901TIP3    H217668   3.630   6.448   4.958 -0.5005 -0.5706 -0.2868
 5902TIP3   OH217669   6.180   5.608   1.716  0.9142  0.1013 -0.4612
 5902TIP3    H117670   6.157   5.653   1.635  1.2054  0.6830 -0.2286
 5902TIP3    H217671   6.276   5.599   1.711  1.0269  0.8309  0.1585
 5903TIP3   OH217672   5.850   2.890   3.832  1.0668  0.2317 -0.1418
 5903TIP3    H117673   5.767   2.904   3.786  0.6951 -0.8096  0.1747
 5903TIP3    H217674   5.914   2.941   3.782  0.7084 -0.9882 -1.9394
 5904TIP3   OH217675   5.865   6.016   5.110 -0.4503 -0.1283  0.2873
 5904TIP3    H117676   5.878   5.939   5.054 -3.1341 -0.0231 -0.6172
 5904TIP3    H217677   5.922   6.083   5.072 -0.3366 -0.8085 -0.7870
 5905TIP3   OH217678   6.067   6.075   1.258 -0.2360 -0.2633  0.2507
 5905TIP3    H117679   6.126   6.071   1.333 -0.9170 -0.2492  0.8028
 5905TIP3    H217680   6.043   5.983   1.242  1.3269 -0.4716 -1.1282
 5906TIP3   OH217681   2.803   5.784   2.480  0.1689  0.3323 -0.1929
 5906TIP3    H117682   2.854   5.832   2.416  1.5054 -0.1326  0.4873
 5906TIP3    H217683   2.842   5.806   2.565 -0.4859 -0.3619  0.3139
 5907TIP3   OH217684   0.483   0.101   0.855 -0.5045  0.0319 -0.2539
 5907TIP3    H117685   0.509   0.009   0.866  2.1547  0.9644  2.5723
 5907TIP3    H217686   0.563   0.144   0.824 -1.0121  1.7759  0.7582
 5908TIP3   OH217687   7.026   6.411   1.656  0.0894 -0.2399 -0.3312
 5908TIP3    H117688   7.084   6.485   1.639 -0.4208  0.9086  2.4788
 5908TIP3    H217689   7.065   6.367   1.732 -2.8163  0.8365  1.9425
 5909TIP3   OH217690   3.987   6.202   0.643 -0.1084 -0.2349 -0.1661
 5909TIP3    H117691   3.999   6.212   0.548 -1.4370 -0.1643 -0.3423
 5909TIP3    H217692   3.904   6.246   0.662  0.2845  0.0047  1.0862
 5910TIP3   OH217693   4.084   0.430   5.730 -0.5477  0.4072  0.0949
 5910TIP3    H117694   4.154   0.491   5.751 -1.7264  1.6869  0.4621
 5910TIP3    H217695   4.068   0.442   5.636 -0.8434  0.7718  0.1853
 5911TIP3   OH217696   5.569   4.706   0.280  0.1015 -0.1924  0.0548
 5911TIP3    H117697   5.545   4.757   0.202 -0.1351 -1.2315 -0.5708
 5911TIP3    H217698   5.606   4.625   0.245 -0.2339 -0.7825  1.0239
 5912TIP3   OH217699   2.251   4.738   3.218  0.1172  0.6563 -0.0733
 5912TIP3    H117700   2.186   4.707   3.281  1.5545  2.2267  2.3624
 5912TIP3    H217701   2.322   4.674   3.223  1.3632  2.0713  1.9980
 5913TIP3   OH217702   4.321   6.041   3.417  0.3928 -0.5494  0.6415
 5913TIP3    H117703   4.387   6.075   3.357 -1.1162 -0.1747 -0.8683
 5913TIP3    H217704   4.251   6.106   3.417 -1.6322 -2.5673 -0.6799
 5914TIP3   OH217705   4.560   2.381   0.782 -0.4049  0.0777 -0.7272
 5914TIP3    H117706   4.589   2.293   0.805  1.5985  1.1110  1.2122
 5914TIP3    H217707   4.601   2.399   0.697  2.9508  0.5784  0.8095
 5915TIP3   OH217708   6.040   3.441   3.870 -0.3946  0.0112 -0.3287
 5915TIP3    H117709   6.069   3.491   3.794 -3.1865  1.9367 -0.3073
 5915TIP3    H217710   6.069   3.493   3.945  3.4008 -2.4780  0.1810
 5916TIP3   OH217711  -0.030   3.860   3.281  0.5708 -0.0340 -0.3992
 5916TIP3    H117712  -0.024   3.766   3.266 -0.5137 -0.6170  2.1705
 5916TIP3    H217713   0.061   3.891   3.283  0.9528 -1.1079 -0.8948
 5917TIP3   OH217714   5.294   2.750   2.493  0.3605  0.4202  0.0549
 5917TIP3    H117715   5.381   2.734   2.457  0.8617  0.4563  1.1990
 5917TIP3    H217716   5.249   2.666   2.487  0.6002  0.3145 -0.2310
 5918TIP3   OH217717   6.034   2.117   3.288  0.3626 -0.0290  0.2499
 5918TIP3    H117718   6.029   2.044   3.226 -0.9555 -0.6610  1.0572
 5918TIP3    H217719   6.093   2.180   3.246  0.7578 -1.1269 -0.9078
 5919TIP3   OH217720   0.123   1.043   4.427 -0.0186 -0.5042 -0.2666
 5919TIP3    H117721   0.028   1.043   4.415 -0.4560  2.9812  1.8839
 5919TIP3    H217722   0.139   0.972   4.489 -1.2831 -0.8159 -0.2664
 5920TIP3   OH217723   3.960   3.295   0.807 -0.0186 -0.0255 -0.2233
 5920TIP3    H117724   3.953   3.201   0.823 -2.0216  0.3762  1.8468
 5920TIP3    H217725   3.957   3.304   0.712 -1.4492 -1.9773 -0.4286
 5921TIP3   OH217726   4.798   1.990   2.014  0.3324  0.2738  0.1261
 5921TIP3    H117727   4.792   2.034   1.929 -0.0596  1.2665  0.6438
 5921TIP3    H217728   4.853   2.048   2.067 -1.3947  0.9650  1.2842
 5922TIP3   OH217729   6.417   5.995   5.597  0.0601 -0.4855 -0.3488
 5922TIP3    H117730   6.430   5.900   5.605 -2.4914 -0.7389  2.7792
 5922TIP3    H217731   6.439   6.029   5.684 -0.2675  1.6483 -1.0498
 5923TIP3   OH217732   3.158   1.592   5.511  0.4157 -0.1258 -0.2850
 5923TIP3    H117733   3.204   1.598   5.427 -1.0124  1.4381 -1.0048
 5923TIP3    H217734   3.193   1.665   5.563 -0.0527  0.0534 -0.2202
 5924TIP3   OH217735   0.602   4.748   1.658 -0.4401  0.3382  0.6196
 5924TIP3    H117736   0.543   4.770   1.586  0.7616  1.4008 -0.0811
 5924TIP3    H217737   0.608   4.652   1.656  0.3536  0.3969 -1.3572
 5925TIP3   OH217738   3.789   1.796   4.551 -0.0089 -0.2168  0.1882
 5925TIP3    H117739   3.754   1.784   4.639 -0.8342  1.2585  0.1105
 5925TIP3    H217740   3.714   1.778   4.494  0.3527 -0.5537 -0.1854
 5926TIP3   OH217741   5.095   5.788   2.424  0.4200  0.1562  0.1731
 5926TIP3    H117742   5.015   5.840   2.418  0.7484  0.5887 -0.5060
 5926TIP3    H217743   5.083   5.736   2.503  0.0086  1.1382  0.7797
 5927TIP3   OH217744   1.986   2.717   0.518  0.0632  0.0877 -0.0031
 5927TIP3    H117745   1.977   2.749   0.428  2.9387  0.4463 -0.2619
 5927TIP3    H217746   1.938   2.780   0.571 -0.7452  0.4994 -1.1674
 5928TIP3   OH217747   4.752   2.787   5.382  0.0592  0.7745  0.1698
 5928TIP3    H117748   4.708   2.854   5.435 -0.1755  1.0681 -0.3824
 5928TIP3    H217749   4.806   2.837   5.320 -1.4887  0.5460 -1.4493
 5929TIP3   OH217750   4.256   6.122   5.822 -0.2760  0.1389  0.2904
 5929TIP3    H117751   4.303   6.203   5.840  1.4498 -0.8695  0.5416
 5929TIP3    H217752   4.184   6.122   5.885 -0.8434  1.8637 -0.2900
 5930TIP3   OH217753   6.713   6.013   2.411 -0.5418 -0.2171 -0.0336
 5930TIP3    H117754   6.683   6.085   2.466  0.7524  0.4335 -0.1353
 5930TIP3    H217755   6.661   6.021   2.331 -0.5961  0.4402  0.0637
 5931TIP3   OH217756   3.536   0.604   5.740 -0.2805 -0.0273 -0.2242
 5931TIP3    H117757   3.510   0.550   5.665  0.7097 -1.0766  0.1501
 5931TIP3    H217758   3.529   0.545   5.815 -0.1139  0.6588  0.3329
 5932TIP3   OH217759   4.270   5.484   5.360 -0.0735  0.8543  0.7790
 5932TIP3    H117760   4.235   5.406   5.402  1.3750 -0.6289 -0.6438
 5932TIP3    H217761   4.346   5.507   5.414 -0.0969  0.8806  0.8012
 5933TIP3   OH217762   4.542   2.231   5.276  0.2069  0.3551  0.0795
 5933TIP3    H117763   4.539   2.136   5.275  0.2523  0.3428  0.7372
 5933TIP3    H217764   4.616   2.253   5.332 -0.4869  0.7755  0.8585
 5934TIP3   OH217765   7.062   6.424   2.482 -0.5643 -0.4065  0.3530
 5934TIP3    H117766   6.977   6.429   2.438 -0.4259 -2.1960 -0.1923
 5934TIP3    H217767   7.125   6.410   2.412  0.0299 -0.3044  0.8597
 5935TIP3   OH217768   3.146   6.410   1.444  0.1526 -0.2448 -0.4366
 5935TIP3    H117769   3.210   6.346   1.476 -0.7289 -0.9242  0.0412
 5935TIP3    H217770   3.197   6.470   1.391  1.0737 -1.1721 -0.6473
 5936TIP3   OH217771   3.591   2.134   1.259 -0.3024  0.0822 -0.8462
 5936TIP3    H117772   3.677   2.101   1.232  0.7377  0.4793  1.6606
 5936TIP3    H217773   3.601   2.229   1.257 -0.8404  0.1354 -0.9962
 5937TIP3   OH217774   1.513   5.178   3.370 -0.6019  0.0136 -0.3843
 5937TIP3    H117775   1.495   5.155   3.279  0.8632 -2.8334 -0.0486
 5937TIP3    H217776   1.439   5.142   3.419  0.6886 -2.4219 -0.0795
 5938TIP3   OH217777   2.223   0.624   1.829 -0.4008 -0.1950 -0.1625
 5938TIP3    H117778   2.131   0.640   1.849 -0.4282  0.0727 -0.4858
 5938TIP3    H217779   2.220   0.569   1.750 -0.2891 -0.4752  0.0301
 5939TIP3   OH217780   0.463   4.665   3.506  0.4292  0.2593 -0.5865
 5939TIP3    H117781   0.470   4.571   3.525 -0.0427  0.4567  0.6009
 5939TIP3    H217782   0.368   4.682   3.507  0.4883  0.6623 -1.2615
 5940TIP3   OH217783   1.762   4.612   4.050 -0.0179  0.5409 -0.8216
 5940TIP3    H117784   1.804   4.656   3.975  2.2681  0.1056  0.1332
 5940TIP3    H217785   1.745   4.683   4.112 -1.5914  0.8509 -1.5683
 5941TIP3   OH217786   5.491   1.569   1.517 -0.6648 -0.0141 -0.0466
 5941TIP3    H117787   5.519   1.604   1.432 -1.4679  0.0975 -0.2716
 5941TIP3    H217788   5.541   1.620   1.581  0.4032 -0.5041 -0.4533
 5942TIP3   OH217789   2.409   1.567   2.672 -0.4068 -0.5883 -0.5645
 5942TIP3    H117790   2.493   1.580   2.714 -0.3876 -0.9147 -0.4935
 5942TIP3    H217791   2.351   1.633   2.710  0.0112  0.1519 -1.1824
 5943TIP3   OH217792   4.286   3.170   0.743 -0.1620 -0.0556 -0.3188
 5943TIP3    H117793   4.342   3.102   0.780 -1.9393 -1.7988 -0.6297
 5943TIP3    H217794   4.267   3.229   0.816  0.2159 -0.7425  0.3414
 5944TIP3   OH217795   6.247   0.839   1.672 -0.1177  0.1452 -0.0621
 5944TIP3    H117796   6.217   0.838   1.762  0.4469 -0.5109  0.1284
 5944TIP3    H217797   6.173   0.808   1.621 -0.0045 -0.8035  0.3273
 5945TIP3   OH217798   3.070   5.147   5.317 -0.1223  0.0019  0.3441
 5945TIP3    H117799   3.152   5.197   5.311 -0.5589  0.6323 -0.6985
 5945TIP3    H217800   3.084   5.071   5.261 -0.3832  0.3136 -0.1497
 5946TIP3   OH217801   2.110   3.098   4.261  0.2905 -0.3034 -0.5939
 5946TIP3    H117802   2.181   3.046   4.224  1.8673  0.9535  0.5085
 5946TIP3    H217803   2.144   3.188   4.262 -0.7024  0.1037  1.4072
 5947TIP3   OH217804   4.992   1.278   2.501 -0.1808  0.3360 -0.4328
 5947TIP3    H117805   4.919   1.236   2.547  1.1897 -0.1658  1.4305
 5947TIP3    H217806   5.024   1.211   2.440  0.9887 -0.8544  1.3928
 5948TIP3   OH217807   1.852   3.582   0.523  0.4805  0.1253 -0.6803
 5948TIP3    H117808   1.924   3.645   0.524 -1.2402  2.2283 -1.6617
 5948TIP3    H217809   1.786   3.621   0.467 -1.2881 -1.9280 -0.1870
 5949TIP3   OH217810   0.228   2.833   1.789  0.1762 -0.1729  0.3131
 5949TIP3    H117811   0.140   2.796   1.781 -0.0661  0.4558 -0.0589
 5949TIP3    H217812   0.213   2.927   1.804  0.7715 -0.2029  1.1942
 5950TIP3   OH217813   5.394   6.564   5.699  0.0095  0.1390 -0.3411
 5950TIP3    H117814   5.454   6.544   5.771 -1.0082 -1.2306  0.1711
 5950TIP3    H217815   5.325   6.616   5.739 -1.2592 -1.7420  0.0292
 5951TIP3   OH217816   0.031   1.739   4.486 -0.5055 -0.2008 -0.5465
 5951TIP3    H117817   0.117   1.720   4.450  0.8277 -0.0476  2.2938
 5951TIP3    H217818  -0.028   1.679   4.441  1.2413 -1.0280 -1.8284
 5952TIP3   OH217819   1.113   0.125   3.961 -0.3911 -0.1860  0.7389
 5952TIP3    H117820   1.093   0.164   4.047 -2.4704  1.0279 -0.2217
 5952TIP3    H217821   1.088   0.193   3.898  0.2924 -1.3821 -0.8774
 5953TIP3   OH217822   5.704   5.281   4.648 -0.1103 -0.1238 -0.4163
 5953TIP3    H117823   5.744   5.272   4.735 -0.4899  2.9754  0.1781
 5953TIP3    H217824   5.621   5.326   4.664  0.2077  1.3034 -2.4339
 5954TIP3   OH217825   2.085   5.497   3.083  0.5638 -0.5992  0.4704
 5954TIP3    H117826   2.052   5.545   3.159 -1.9790 -2.6274  0.7929
 5954TIP3    H217827   2.028   5.523   3.011  0.5299 -1.5236  0.1513
 5955TIP3   OH217828   5.172   2.475   1.078 -0.0260 -0.3929 -0.5090
 5955TIP3    H117829   5.256   2.466   1.034 -0.2052  1.0002 -1.1811
 5955TIP3    H217830   5.182   2.551   1.135 -1.2178  0.6115 -1.5889
 5956TIP3   OH217831   2.407   3.035   5.231  0.1390  0.6366 -0.6069
 5956TIP3    H117832   2.398   3.088   5.310  0.3766  2.2478 -1.6069
 5956TIP3    H217833   2.340   3.069   5.172  0.6696  0.2204 -1.4745
 5957TIP3   OH217834   2.209   2.309   4.698  0.3953  0.5683  0.1065
 5957TIP3    H117835   2.114   2.303   4.706  0.5381  0.2649  1.9694
 5957TIP3    H217836   2.241   2.221   4.717  1.0637  0.6109 -0.7236
 5958TIP3   OH217837   4.820   4.343   2.005 -0.3566  0.1289 -0.1785
 5958TIP3    H117838   4.873   4.280   1.957 -0.5141 -0.0854 -0.0716
 5958TIP3    H217839   4.879   4.379   2.071 -0.3024  0.0033 -0.1584
 5959TIP3   OH217840   0.878   1.126   1.011  0.0112  0.3963 -0.5930
 5959TIP3    H117841   0.925   1.066   1.070 -0.3142  0.9046  0.1906
 5959TIP3    H217842   0.787   1.118   1.037 -0.3818 -0.5968 -2.1235
 5960TIP3   OH217843   2.935   6.598   1.422  0.5515  0.2709  0.6889
 5960TIP3    H117844   2.916   6.654   1.497 -0.0196  1.2714 -0.1707
 5960TIP3    H217845   2.987   6.526   1.458 -0.1318  0.4530  2.1286
 5961TIP3   OH217846   5.578   3.440   3.928  1.0984 -0.1387  0.4064
 5961TIP3    H117847   5.558   3.521   3.880 -0.2731  0.0331  1.2168
 5961TIP3    H217848   5.585   3.373   3.860 -2.2608 -0.1981 -0.0421
 5962TIP3   OH217849   3.075   4.725   5.821 -0.1098  0.3361 -0.0121
 5962TIP3    H117850   3.122   4.807   5.813 -0.8958  0.8438  0.4260
 5962TIP3    H217851   3.035   4.728   5.908 -0.9444 -0.0701 -0.3628
 5963TIP3   OH217852   0.441   6.709   3.444 -0.2744  0.4448 -0.0290
 5963TIP3    H117853   0.452   6.799   3.412  0.0801 -0.4383 -2.5962
 5963TIP3    H217854   0.518   6.694   3.499  0.5261  1.1832 -0.9127
 5964TIP3   OH217855   3.163   0.226   1.727  0.1057  0.3298 -0.1856
 5964TIP3    H117856   3.198   0.200   1.641  0.8642 -0.1907  0.2612
 5964TIP3    H217857   3.097   0.160   1.746  2.8016 -2.1629  1.4515
 5965TIP3   OH217858   5.930   3.751   3.855 -0.3434  0.1321  0.3295
 5965TIP3    H117859   5.892   3.715   3.935 -0.0674 -1.4824 -0.2252
 5965TIP3    H217860   6.005   3.802   3.884 -1.0578  0.7158  1.1897
 5966TIP3   OH217861   2.303   1.755   1.820  0.4630 -0.2233 -0.3336
 5966TIP3    H117862   2.365   1.776   1.890  0.6977 -0.5915 -0.4279
 5966TIP3    H217863   2.356   1.711   1.754 -0.0193 -1.1418 -0.1212
 5967TIP3   OH217864   6.538   2.677   3.763  0.0098 -0.2651 -0.2042
 5967TIP3    H117865   6.552   2.666   3.669 -0.3800 -0.3388 -0.2547
 5967TIP3    H217866   6.508   2.592   3.794 -3.0864  0.5471 -0.6156
 5968TIP3   OH217867   0.848   3.072   3.567 -0.2397 -0.2092  0.3094
 5968TIP3    H117868   0.903   3.011   3.616 -1.2590 -0.2236  1.4739
 5968TIP3    H217869   0.765   3.027   3.556 -0.9303  0.8426  0.9866
 5969TIP3   OH217870   1.058   3.519   3.824 -0.2398 -0.0892 -0.0321
 5969TIP3    H117871   1.146   3.499   3.791 -0.3042  0.3293 -0.4566
 5969TIP3    H217872   1.073   3.582   3.894 -0.1940 -0.1339 -0.0008
 5970TIP3   OH217873   1.485   0.849   1.015 -0.3957 -0.5249 -0.3368
 5970TIP3    H117874   1.545   0.840   1.089  0.2728 -0.5003 -0.8677
 5970TIP3    H217875   1.398   0.833   1.053 -0.3285  1.7527  0.9439
 5971TIP3   OH217876   6.336   4.660   5.806  0.2197  0.5354  0.3097
 5971TIP3    H117877   6.329   4.613   5.722 -1.9885 -0.3339  0.9078
 5971TIP3    H217878   6.276   4.734   5.796 -0.0621  0.4192  1.1279
 5972TIP3   OH217879   5.775   0.688   1.710 -0.1828  0.1379  0.6331
 5972TIP3    H117880   5.698   0.728   1.670 -0.2598 -0.6028  0.0172
 5972TIP3    H217881   5.757   0.689   1.804 -1.4947 -1.1134  0.4259
 5973TIP3   OH217882   0.375   3.508   4.215 -0.0377 -0.1658 -0.2496
 5973TIP3    H117883   0.352   3.433   4.271  1.2404  0.0816  0.6495
 5973TIP3    H217884   0.468   3.524   4.233  0.1031  0.6719 -1.5865
 5974TIP3   OH217885   3.749   5.191   3.910  0.0344 -0.3315 -0.4438
 5974TIP3    H117886   3.826   5.138   3.930  0.9891  1.6265  1.4728
 5974TIP3    H217887   3.676   5.144   3.949  0.7229 -0.7469  0.3668
 5975TIP3   OH217888   6.601   4.738   5.056  0.0240  0.1318 -0.1971
 5975TIP3    H117889   6.622   4.831   5.052 -0.6050  0.2897  0.1186
 5975TIP3    H217890   6.508   4.735   5.077 -0.0503 -0.5664 -0.5948
 5976TIP3   OH217891   2.468   3.644   0.706  0.3051 -0.6930  0.2613
 5976TIP3    H117892   2.456   3.609   0.795 -1.2965  0.2835  0.4585
 5976TIP3    H217893   2.523   3.722   0.718  1.2711 -1.3474  0.1993
 5977TIP3   OH217894   4.831   2.034   3.560  0.0108 -0.2571  0.3272
 5977TIP3    H117895   4.885   1.972   3.610  1.2056 -0.3464 -1.0086
 5977TIP3    H217896   4.785   2.085   3.626  0.2507 -1.4838  1.4853
 5978TIP3   OH217897   5.292   6.765   3.510 -0.0843  0.4399 -0.2384
 5978TIP3    H117898   5.200   6.758   3.535  0.3043  0.8424  1.3866
 5978TIP3    H217899   5.301   6.855   3.480 -0.1913  0.4366 -0.2832
 5979TIP3   OH217900   1.486   6.729   2.191  0.5332  0.4631  0.6972
 5979TIP3    H117901   1.424   6.659   2.172  0.9710  0.5969 -1.4121
 5979TIP3    H217902   1.536   6.741   2.110  1.0708  2.6198  1.2735
 5980TIP3   OH217903   1.765   6.050   1.978 -0.1183 -0.4501 -0.0364
 5980TIP3    H117904   1.678   6.024   1.946 -0.5461 -1.1844  1.5865
 5980TIP3    H217905   1.782   5.990   2.051  1.0635  0.6920  0.6767
 5981TIP3   OH217906   4.372   6.315   3.437  0.0571  0.1266  0.7038
 5981TIP3    H117907   4.280   6.320   3.463  0.3026  2.9184  1.3908
 5981TIP3    H217908   4.371   6.324   3.342 -0.3796  1.6340  0.8193
 5982TIP3   OH217909   4.057   5.827   2.868  0.1945 -0.0795 -0.2476
 5982TIP3    H117910   4.106   5.796   2.792 -1.3501  0.3057 -1.4644
 5982TIP3    H217911   3.968   5.843   2.834 -1.0461 -1.6248  2.0498
 5983TIP3   OH217912   3.223   3.348   5.182  0.2866  0.1460  0.4253
 5983TIP3    H117913   3.150   3.347   5.244 -0.6415 -2.7002 -0.5453
 5983TIP3    H217914   3.193   3.404   5.110  0.4148  1.5294  1.3969
 5984TIP3   OH217915   0.041   0.351   2.337 -0.2599  0.8031  0.1757
 5984TIP3    H117916  -0.046   0.311   2.344  0.3025 -0.6101 -0.3329
 5984TIP3    H217917   0.092   0.309   2.406 -0.2990  2.5823  1.3262
 5985TIP3   OH217918   6.297   0.914   4.815  0.6046  0.0568 -0.1736
 5985TIP3    H117919   6.228   0.951   4.760  0.1331  0.0127  0.3823
 5985TIP3    H217920   6.323   0.833   4.772 -0.0049 -0.1518 -0.1455
 5986TIP3   OH217921   2.035   2.774   1.288 -0.1222 -0.1917  0.6736
 5986TIP3    H117922   2.013   2.742   1.200 -0.6257  1.1988  0.2729
 5986TIP3    H217923   1.952   2.768   1.336  0.0470 -0.5213  0.9262
 5987TIP3   OH217924   1.277   2.950   0.039  0.0870  0.0392 -0.0691
 5987TIP3    H117925   1.327   2.871   0.060  0.7707  0.1668 -1.1459
 5987TIP3    H217926   1.291   3.009   0.113  0.2780 -0.5125  0.3386
 5988TIP3   OH217927   4.851   1.499   0.238  0.7276  0.0237 -0.0320
 5988TIP3    H117928   4.862   1.459   0.152  0.5570 -1.2221  0.5066
 5988TIP3    H217929   4.760   1.528   0.239  1.0123  0.9903 -0.6415
 5989TIP3   OH217930   2.239   3.230   4.888 -0.4726 -0.0792  0.3110
 5989TIP3    H117931   2.173   3.279   4.937 -0.1205 -0.7453  1.5023
 5989TIP3    H217932   2.239   3.143   4.930  0.9889 -0.1553  0.1821
 5990TIP3   OH217933   5.542   3.814   1.945 -0.4637 -0.3987  0.3820
 5990TIP3    H117934   5.474   3.781   2.003 -0.9562 -0.5935 -0.3025
 5990TIP3    H217935   5.559   3.742   1.884 -1.3786  0.4811 -0.9705
 5991TIP3   OH217936   2.215   6.393   2.238 -0.0860 -0.3069  0.1118
 5991TIP3    H117937   2.128   6.423   2.213  0.2433  1.4691  0.9096
 5991TIP3    H217938   2.274   6.441   2.179  0.3776 -1.3273 -0.2773
 5992TIP3   OH217939   0.210   1.691   0.161 -0.0650  0.5188  0.4797
 5992TIP3    H117940   0.284   1.637   0.135 -2.6322 -2.3871 -1.4685
 5992TIP3    H217941   0.187   1.740   0.082  0.0211  1.8161  1.2218
 5993TIP3   OH217942   4.287   6.319   4.574  0.3651 -0.1456 -0.0925
 5993TIP3    H117943   4.375   6.282   4.563  1.3638  2.0051  0.1624
 5993TIP3    H217944   4.268   6.310   4.667  1.0391  0.8390  0.1541
 5994TIP3   OH217945   2.734   2.954   4.376 -1.0238  0.5922 -0.0453
 5994TIP3    H117946   2.677   2.990   4.307  0.7780  0.5104 -1.6666
 5994TIP3    H217947   2.730   3.019   4.446 -0.7097  2.1605 -1.4078
 5995TIP3   OH217948   1.653   4.491   5.666 -0.7577 -0.2280 -0.7066
 5995TIP3    H117949   1.574   4.437   5.671 -0.8585 -0.0576 -0.4709
 5995TIP3    H217950   1.631   4.570   5.714 -1.3514  0.9455 -2.7785
 5996TIP3   OH217951   0.204   2.209   1.844 -0.7433 -0.2387 -0.3830
 5996TIP3    H117952   0.209   2.304   1.846 -1.8320 -0.1652 -0.7839
 5996TIP3    H217953   0.223   2.185   1.753  1.1023 -0.5388  0.0195
 5997TIP3   OH217954   1.459   6.034   0.289  0.0530  0.0370  0.2933
 5997TIP3    H117955   1.492   5.946   0.272 -1.1233 -0.8002  2.0669
 5997TIP3    H217956   1.494   6.087   0.217 -0.1194 -2.0764 -1.4430
 5998TIP3   OH217957   0.415   3.386   1.400  0.0589 -0.3580  0.3069
 5998TIP3    H117958   0.405   3.451   1.331  0.6457 -0.6335 -0.0473
 5998TIP3    H217959   0.467   3.431   1.467  1.1463 -0.6978 -0.2839
 5999TIP3   OH217960   6.841   5.732   4.250  0.2386  0.5528 -0.0240
 5999TIP3    H117961   6.900   5.664   4.282 -0.2204 -0.1289 -0.5941
 5999TIP3    H217962   6.883   5.765   4.170 -0.7397 -0.8404 -1.1672
 6000TIP3   OH217963   1.609   4.100   5.313  0.1950 -0.1852 -0.2774
 6000TIP3    H117964   1.602   4.178   5.258 -0.3400  0.7771  1.1006
 6000TIP3    H217965   1.700   4.072   5.302  0.1871  0.1540 -1.4029
 6001TIP3   OH217966   5.168   5.545   1.701  0.8005  0.2135  0.1045
 6001TIP3    H117967   5.129   5.629   1.725 -0.3544  0.0497 -1.1275
 6001TIP3    H217968   5.246   5.539   1.756 -0.0934  1.2321  1.5652
 6002TIP3   OH217969   0.856   3.409   5.529  0.0270 -0.0189  0.0918
 6002TIP3    H117970   0.775   3.425   5.577 -0.1456  0.6963 -0.4148
 6002TIP3    H217971   0.898   3.495   5.525  0.2200 -0.1430 -0.6985
 6003TIP3   OH217972   0.729   2.251   0.458  0.2336 -0.2676  0.1251
 6003TIP3    H117973   0.692   2.323   0.508  1.2959  0.6409 -0.3611
 6003TIP3    H217974   0.802   2.290   0.409  0.6987 -1.6198 -0.3125
 6004TIP3   OH217975   1.864   0.126   4.154 -0.4443  0.2776 -0.2500
 6004TIP3    H117976   1.816   0.044   4.144  1.6925 -1.1573  0.5420
 6004TIP3    H217977   1.877   0.157   4.064 -1.2154 -0.2600 -0.5651
 6005TIP3   OH217978   4.530   4.225   1.829  0.5557 -0.1292 -0.3392
 6005TIP3    H117979   4.569   4.312   1.822  1.2992 -0.4336 -0.1347
 6005TIP3    H217980   4.567   4.176   1.756  0.9457 -0.5584  0.1303
 6006TIP3   OH217981   6.133   4.827   3.414 -0.0331 -0.3222 -0.0787
 6006TIP3    H117982   6.104   4.756   3.356 -2.8096 -0.7997  1.6909
 6006TIP3    H217983   6.179   4.783   3.484 -0.8977 -0.3149  0.5116
 6007TIP3   OH217984   0.372   2.095   5.250 -0.0197  0.1921 -0.6254
 6007TIP3    H117985   0.343   2.080   5.160 -0.4479 -0.0758 -0.4431
 6007TIP3    H217986   0.455   2.048   5.258 -0.2085 -0.1583 -0.7436
 6008TIP3   OH217987   6.641   2.501   2.754 -0.2098  0.0750 -0.0388
 6008TIP3    H117988   6.589   2.423   2.769 -1.9511  0.9192 -1.3500
 6008TIP3    H217989   6.689   2.483   2.674  1.1332 -0.4712  0.8524
 6009TIP3   OH217990   5.419   3.645   2.651  0.1981 -0.1340  0.8472
 6009TIP3    H117991   5.487   3.620   2.588 -0.3202  0.5004  0.0097
 6009TIP3    H217992   5.363   3.567   2.657 -0.4752  0.2139 -0.4890
 6010TIP3   OH217993   3.533   5.835   4.252 -0.0740  0.3212 -0.5226
 6010TIP3    H117994   3.532   5.899   4.323  0.0596  0.0211 -0.2491
 6010TIP3    H217995   3.566   5.883   4.176  0.0851  0.5591 -0.3006
 6011TIP3   OH217996   1.722   3.715   0.316 -0.0724 -0.3317 -0.1110
 6011TIP3    H117997   1.659   3.786   0.322  0.4286  0.1219 -0.1631
 6011TIP3    H217998   1.806   3.758   0.297  0.2656 -0.9166  0.0195
 6012TIP3   OH217999   0.578   5.434   3.077  0.1862 -0.4248  0.2990
 6012TIP3    H118000   0.633   5.495   3.027 -1.5175  1.1785  0.3166
 6012TIP3    H218001   0.631   5.412   3.154  0.4095  1.9752  0.9042
 6013TIP3   OH218002   5.440   6.410   2.243  0.1024  0.0708 -0.0507
 6013TIP3    H118003   5.434   6.501   2.213 -1.0480  0.4700  1.3087
 6013TIP3    H218004   5.370   6.401   2.308  0.9031 -1.4732  0.6518
 6014TIP3   OH218005   6.779   6.255   4.909  0.3968  0.0909  0.0373
 6014TIP3    H118006   6.792   6.282   4.818  0.9832 -2.3847 -0.7109
 6014TIP3    H218007   6.863   6.272   4.951  0.1041  1.3052  0.1483
 6015TIP3   OH218008   4.384   4.538   5.464  0.6447  0.0879  0.1741
 6015TIP3    H118009   4.329   4.536   5.386 -1.0078  0.5307  1.2681
 6015TIP3    H218010   4.397   4.445   5.486 -1.2199 -0.0636  0.8807
 6016TIP3   OH218011   2.152   3.426   2.440  0.4242  0.1300  0.4168
 6016TIP3    H118012   2.131   3.334   2.455 -0.2402 -0.1149 -1.6977
 6016TIP3    H218013   2.207   3.450   2.514 -1.0799 -1.3716  2.1294
 6017TIP3   OH218014   1.844   5.355   5.278  0.5815 -0.1556 -0.2404
 6017TIP3    H118015   1.803   5.359   5.365 -0.3901 -0.0293 -0.6995
 6017TIP3    H218016   1.936   5.336   5.297  0.7256  1.5075  0.9043
 6018TIP3   OH218017   1.848   3.814   5.884  0.2924  0.0747  0.1000
 6018TIP3    H118018   1.851   3.826   5.790  0.3996 -0.9421 -0.0411
 6018TIP3    H218019   1.783   3.876   5.915  0.0691  0.2316 -0.6760
 6019TIP3   OH218020   2.395   1.489   4.879  0.2251  0.1549  0.1384
 6019TIP3    H118021   2.321   1.444   4.921  0.5121  0.4596  0.9772
 6019TIP3    H218022   2.366   1.580   4.872 -0.0805 -0.0112 -0.9359
 6020TIP3   OH218023   6.449   4.167   2.365 -0.1441 -0.4454  0.0184
 6020TIP3    H118024   6.507   4.116   2.422 -0.3322 -0.1575  0.4771
 6020TIP3    H218025   6.417   4.238   2.421 -2.1771 -1.4774  0.2674
 6021TIP3   OH218026   2.482   6.370   3.705 -0.5551 -0.2194  0.0106
 6021TIP3    H118027   2.546   6.385   3.775 -0.5100  0.0031 -0.0791
 6021TIP3    H218028   2.455   6.279   3.718  0.1910 -0.4903 -0.2908
 6022TIP3   OH218029   4.837   5.232   1.990 -0.1004 -0.0070  0.2562
 6022TIP3    H118030   4.890   5.247   1.911 -1.5809 -0.2358 -0.8195
 6022TIP3    H218031   4.835   5.137   2.000 -0.4990 -0.0120  0.1479
 6023TIP3   OH218032   4.785   3.703   5.423  0.1349 -0.4815  0.5010
 6023TIP3    H118033   4.791   3.794   5.451 -2.3375 -0.1291  0.0725
 6023TIP3    H218034   4.717   3.703   5.355  0.8168 -2.4848 -0.2448
 6024TIP3   OH218035   0.020   4.146   5.055 -0.1782  0.2819 -0.1149
 6024TIP3    H118036   0.107   4.108   5.069  1.0884  2.7789 -0.4194
 6024TIP3    H218037   0.026   4.186   4.968 -2.0024 -0.3074 -0.5457
 6025TIP3   OH218038   4.776   0.411   3.930  0.1091 -0.2089  0.0224
 6025TIP3    H118039   4.692   0.438   3.967  1.2265  1.0606  1.7863
 6025TIP3    H218040   4.828   0.492   3.927  1.9288 -1.2912  0.8614
 6026TIP3   OH218041   6.105   3.172   0.066 -0.6910 -0.7104 -0.1486
 6026TIP3    H118042   6.036   3.238   0.060 -0.8200 -0.7838  0.4620
 6026TIP3    H218043   6.186   3.222   0.056 -0.8372 -0.7013 -1.4691
 6027TIP3   OH218044   1.775   5.684   5.344  0.5078  0.3365 -0.4577
 6027TIP3    H118045   1.814   5.627   5.278  0.5901 -1.4531  1.0531
 6027TIP3    H218046   1.688   5.647   5.359 -0.5611  2.3036 -1.4002
 6028TIP3   OH218047   3.695   5.412   4.771  0.1363  0.1789 -0.1824
 6028TIP3    H118048   3.692   5.405   4.676  1.3993  0.9024 -0.2870
 6028TIP3    H218049   3.610   5.376   4.800  0.5140 -1.8948 -1.4347
 6029TIP3   OH218050   6.045   5.083   4.318  0.3660 -0.4738 -0.0377
 6029TIP3    H118051   5.986   5.124   4.255  2.2754  0.4631 -1.3012
 6029TIP3    H218052   6.051   4.992   4.288 -1.0137 -0.8192  0.6078
 6030TIP3   OH218053   0.094   4.284   0.664 -0.4421 -0.4531 -0.5580
 6030TIP3    H118054   0.102   4.307   0.571  0.6165  0.0861 -0.3468
 6030TIP3    H218055   0.183   4.290   0.698 -0.8537 -0.4039  0.5573
 6031TIP3   OH218056   2.310   6.488   1.535 -0.1076 -0.9822  0.5317
 6031TIP3    H118057   2.260   6.501   1.455  3.2147 -1.7702 -1.9181
 6031TIP3    H218058   2.325   6.576   1.569 -1.8304 -0.6612  0.5626
 6032TIP3   OH218059   3.986   1.969   0.418 -0.3416  0.4164 -0.4812
 6032TIP3    H118060   3.914   1.931   0.367 -0.6981 -0.0733  0.3751
 6032TIP3    H218061   4.055   1.902   0.415 -0.0987  0.6756 -0.8773
 6033TIP3   OH218062   1.737   4.094   4.978 -0.0707  0.1576 -0.3942
 6033TIP3    H118063   1.657   4.145   4.992 -1.5000 -1.8413 -0.7951
 6033TIP3    H218064   1.752   4.050   5.061  0.2202  0.0271 -0.5156
 6034TIP3   OH218065   2.230   4.147   2.278  0.1350 -0.4128  0.0719
 6034TIP3    H118066   2.152   4.186   2.317 -1.4517 -2.5837 -0.6852
 6034TIP3    H218067   2.254   4.076   2.337 -0.1854 -1.5088 -1.0673
 6035TIP3   OH218068   6.606   5.857   4.336 -0.1575 -0.4152  0.5296
 6035TIP3    H118069   6.563   5.839   4.253 -1.1903  1.5452  0.5906
 6035TIP3    H218070   6.697   5.830   4.323 -0.8085 -2.3573 -0.4041
 6036TIP3   OH218071   0.796   2.207   4.339  0.4080  0.9458  0.2845
 6036TIP3    H118072   0.874   2.154   4.356 -0.1597  0.3100  1.0176
 6036TIP3    H218073   0.727   2.142   4.322 -0.2623  1.4366  1.0349
 6037TIP3   OH218074   0.576   1.455   5.735  0.1859  0.0171 -0.0115
 6037TIP3    H118075   0.641   1.413   5.791  1.6118 -0.9672 -2.2789
 6037TIP3    H218076   0.504   1.392   5.730  0.1216  0.0410  0.5375
 6038TIP3   OH218077   1.023   1.985   2.338  0.6318  0.0282  0.5571
 6038TIP3    H118078   0.974   1.952   2.263  0.3714  0.3002  0.6111
 6038TIP3    H218079   1.023   2.080   2.328 -0.8945  0.1974  1.8242
 6039TIP3   OH218080   0.275   2.885   0.695 -0.2247 -0.3045 -0.1261
 6039TIP3    H118081   0.267   2.938   0.774  1.9704 -0.7401  0.4598
 6039TIP3    H218082   0.337   2.934   0.640 -1.0011 -0.4708 -1.1786
 6040TIP3   OH218083   2.485   4.717   0.073 -0.2616 -0.5644 -0.1424
 6040TIP3    H118084   2.431   4.791   0.045 -1.6582 -1.4676  0.0841
 6040TIP3    H218085   2.494   4.728   0.168  0.2834 -0.2030 -0.2350
 6041TIP3   OH218086   2.585   3.647   0.214 -0.4660 -0.9937 -0.0322
 6041TIP3    H118087   2.568   3.625   0.305 -0.0047  0.0094  0.3127
 6041TIP3    H218088   2.676   3.678   0.213 -1.1523  1.1951 -0.3819
 6042TIP3   OH218089   4.127   4.632   5.557 -0.3080  0.0579 -0.4800
 6042TIP3    H118090   4.081   4.696   5.503 -2.4460 -0.8851  0.1114
 6042TIP3    H218091   4.196   4.598   5.500 -0.4826  1.3590 -1.5128
 6043TIP3   OH218092   0.526   3.499   4.513 -0.0778 -0.2893 -0.0174
 6043TIP3    H118093   0.570   3.539   4.588  0.6443 -0.2219 -0.4572
 6043TIP3    H218094   0.489   3.573   4.464 -0.2105 -0.2993  0.0686
 6044TIP3   OH218095   5.290   2.781   4.283  0.1687  0.0974 -0.0815
 6044TIP3    H118096   5.338   2.863   4.295  0.3253 -0.1050  0.7337
 6044TIP3    H218097   5.231   2.798   4.210 -0.3272  1.1797  0.5454
 6045TIP3   OH218098   5.096   3.400   0.927 -0.1359 -0.6847  0.5155
 6045TIP3    H118099   5.080   3.326   0.985  0.1164 -0.8650  0.3590
 6045TIP3    H218100   5.028   3.394   0.860 -0.2396 -0.6552  0.6184
 6046TIP3   OH218101   3.529   2.364   2.766 -0.0351 -0.0619  0.3717
 6046TIP3    H118102   3.486   2.343   2.683  1.0749  0.2014 -0.2907
 6046TIP3    H218103   3.474   2.322   2.833 -0.2431 -1.3848 -0.5872
 6047TIP3   OH218104   0.301   1.258   0.195 -0.3898  0.2747 -0.1993
 6047TIP3    H118105   0.207   1.257   0.214 -0.3638  1.1005  0.0152
 6047TIP3    H218106   0.311   1.322   0.125  0.1448  1.1156  0.6101
 6048TIP3   OH218107   4.591   4.881   2.652  0.1850 -0.1426 -0.3677
 6048TIP3    H118108   4.671   4.879   2.600  0.9277  2.7695  0.4796
 6048TIP3    H218109   4.609   4.823   2.726  1.5342  0.4774 -0.1876
 6049TIP3   OH218110   1.124   5.202   5.107  0.1225  0.4779 -0.0778
 6049TIP3    H118111   1.058   5.156   5.054 -0.2213  1.3370 -0.4322
 6049TIP3    H218112   1.170   5.133   5.154 -2.4641 -0.0724  1.8721
 6050TIP3   OH218113   5.766   0.319   3.135 -0.2204 -0.0374 -0.1351
 6050TIP3    H118114   5.701   0.326   3.066  0.3713  2.9292 -0.5362
 6050TIP3    H218115   5.850   0.310   3.089  0.0269  0.4282  0.2066
 6051TIP3   OH218116   1.961   5.210   1.705 -0.5424 -0.0124  0.2624
 6051TIP3    H118117   1.951   5.115   1.701  0.0170 -0.0570 -0.1729
 6051TIP3    H218118   2.031   5.225   1.768 -1.3863  0.1743  1.1873
 6052TIP3   OH218119   2.023   0.365   0.191  0.3662 -0.0648  0.5136
 6052TIP3    H118120   1.993   0.335   0.277 -2.0922 -0.8790 -0.5235
 6052TIP3    H218121   1.969   0.442   0.173  0.3655 -0.3111 -0.5776
 6053TIP3   OH218122   1.949   2.660   2.422  0.2411  0.2419 -0.5030
 6053TIP3    H118123   2.027   2.714   2.411  1.4820 -1.3604  0.0918
 6053TIP3    H218124   1.958   2.621   2.508 -0.4914 -1.0730 -0.9909
 6054TIP3   OH218125   0.542   5.191   0.488 -0.3151 -0.1251  0.3240
 6054TIP3    H118126   0.585   5.127   0.431 -1.3203 -0.1449 -0.4365
 6054TIP3    H218127   0.600   5.198   0.564  0.5767 -0.7974 -0.2731
 6055TIP3   OH218128   3.464   6.021   0.116 -0.0013 -0.6497 -0.5529
 6055TIP3    H118129   3.420   6.088   0.168  0.1637 -0.9925  0.0402
 6055TIP3    H218130   3.445   5.938   0.161 -2.0697 -1.3291 -2.4938
 6056TIP3   OH218131   1.203   3.723   1.462 -0.4631  0.2615 -0.2412
 6056TIP3    H118132   1.145   3.687   1.528 -2.5530 -0.7910 -2.5266
 6056TIP3    H218133   1.209   3.655   1.395  2.8010  0.6705 -0.5226
 6057TIP3   OH218134   3.883   5.359   4.961 -0.2705 -0.0806  0.2590
 6057TIP3    H118135   3.846   5.369   4.873  0.5632 -1.2587 -0.2372
 6057TIP3    H218136   3.895   5.265   4.972  4.2608  0.2199 -0.3649
 6058TIP3   OH218137   3.220   1.507   3.963  0.2075  0.2929 -0.1075
 6058TIP3    H118138   3.176   1.591   3.966  1.2423  0.8834 -0.9630
 6058TIP3    H218139   3.224   1.484   3.870 -0.0263 -0.6913  0.1059
 6059TIP3   OH218140   3.001   0.813   3.120 -0.0350 -0.7691  0.0652
 6059TIP3    H118141   3.019   0.763   3.040  1.4134  1.6500 -1.2514
 6059TIP3    H218142   3.074   0.792   3.178 -1.0956 -2.5399  0.8460
 6060TIP3   OH218143   1.457   2.285   2.931  0.2741 -0.3640  0.2897
 6060TIP3    H118144   1.415   2.223   2.990 -1.0930  0.6408  0.4250
 6060TIP3    H218145   1.520   2.332   2.985  0.7020 -1.0506  0.3862
 6061TIP3   OH218146   5.124   1.516   3.319 -0.1122  0.0393  0.2799
 6061TIP3    H118147   5.188   1.543   3.385  1.8734 -0.1726 -1.4621
 6061TIP3    H218148   5.101   1.427   3.344  1.6069 -0.5153  0.0183
 6062TIP3   OH218149   1.172   2.001   0.603  0.3899 -0.1431  0.0408
 6062TIP3    H118150   1.167   2.001   0.507 -0.1504  4.0626 -0.0917
 6062TIP3    H218151   1.265   2.006   0.622  0.4405  0.6784 -0.3690
 6063TIP3   OH218152   0.560   3.001   3.557  0.0490  1.0976  0.0893
 6063TIP3    H118153   0.510   3.017   3.637  0.0694  1.5366  0.0159
 6063TIP3    H218154   0.577   2.906   3.558 -1.1602  0.8716 -0.1222
 6064TIP3   OH218155   2.349   1.339   3.235  0.0841 -0.3830 -0.2344
 6064TIP3    H118156   2.260   1.309   3.215  0.3323  0.4751 -3.0240
 6064TIP3    H218157   2.382   1.374   3.152  3.2451 -1.1838  0.5474
 6065TIP3   OH218158   3.989   2.566   2.996  0.5800 -0.2841 -0.0291
 6065TIP3    H118159   3.973   2.660   3.004 -0.3177 -0.4579  0.3018
 6065TIP3    H218160   4.045   2.558   2.918  1.5769  0.6064  0.5706
 6066TIP3   OH218161   5.941   2.570   0.387 -0.6640  0.0390 -0.4000
 6066TIP3    H118162   6.022   2.561   0.437 -0.6073 -1.2019 -0.6730
 6066TIP3    H218163   5.966   2.549   0.297 -0.8209  1.9599 -0.9392
 6067TIP3   OH218164   1.640   2.747   3.265  0.0145  0.3033  0.3270
 6067TIP3    H118165   1.673   2.659   3.246  1.1350  0.4519  1.4755
 6067TIP3    H218166   1.619   2.783   3.179  1.2124 -0.4509 -0.3142
 6068TIP3   OH218167   5.477   0.107   2.873  0.1586  0.2035 -0.0778
 6068TIP3    H118168   5.441   0.039   2.816  2.5000  0.0185 -1.4688
 6068TIP3    H218169   5.524   0.060   2.941  2.3535  0.3259 -1.4218
 6069TIP3   OH218170   6.671   2.073   2.363 -0.5938 -0.5005  0.3763
 6069TIP3    H118171   6.663   1.991   2.412  0.3234 -0.7942  0.0460
 6069TIP3    H218172   6.676   2.046   2.272  1.2014 -0.1978  0.3485
 6070TIP3   OH218173   1.614   5.021   2.677  0.0937  0.0842  0.3088
 6070TIP3    H118174   1.569   4.986   2.753 -1.1227 -0.9868 -0.8409
 6070TIP3    H218175   1.566   5.101   2.655  1.2494  1.1163  1.3881
 6071TIP3   OH218176   6.366   0.094   1.806 -0.2795 -0.3628  0.1534
 6071TIP3    H118177   6.322   0.171   1.841 -2.2222 -0.7211 -1.3195
 6071TIP3    H218178   6.454   0.097   1.843 -0.2264  2.6328 -0.0120
 6072TIP3   OH218179   7.014   1.506   4.961 -0.1026  0.5419 -0.1463
 6072TIP3    H118180   7.100   1.472   4.987 -0.4219 -0.3944 -0.2442
 6072TIP3    H218181   6.981   1.440   4.900 -1.0374  0.7165  0.1609
 6073TIP3   OH218182   4.233   1.206   5.774 -0.2903  0.8033 -0.1325
 6073TIP3    H118183   4.207   1.153   5.698 -0.5464  2.6056 -1.3705
 6073TIP3    H218184   4.191   1.291   5.759  2.1355  2.1876  0.4242
 6074TIP3   OH218185   5.125   4.574   5.457 -0.1675 -0.1834 -0.2804
 6074TIP3    H118186   5.077   4.657   5.457 -0.6680 -0.4677 -0.1762
 6074TIP3    H218187   5.128   4.548   5.365 -0.4349 -0.2900 -0.2598
 6075TIP3   OH218188   5.355   4.532   4.873  0.3625 -0.1732  0.0078
 6075TIP3    H118189   5.397   4.615   4.897  0.5063  0.8759 -3.3329
 6075TIP3    H218190   5.390   4.511   4.787 -1.1324 -2.7329 -0.0872
 6076TIP3   OH218191   0.172   5.984   0.411  0.7399 -0.7116 -0.6631
 6076TIP3    H118192   0.174   5.914   0.346 -0.8465 -0.6481 -0.8023
 6076TIP3    H218193   0.079   5.996   0.432  1.0375  0.8345 -0.0760
 6077TIP3   OH218194   2.152   4.841   5.623  0.1987  0.3316  0.4734
 6077TIP3    H118195   2.157   4.926   5.668  0.8481 -0.5155  2.0660
 6077TIP3    H218196   2.243   4.818   5.605  0.0516 -0.2330  0.4373
 6078TIP3   OH218197   3.598   3.647   4.660  0.5243 -0.3840 -0.4757
 6078TIP3    H118198   3.657   3.722   4.668  0.8884 -0.8405  1.9946
 6078TIP3    H218199   3.511   3.685   4.648  1.0766  0.3198 -2.6815
 6079TIP3   OH218200   3.281   0.501   1.486 -0.6759 -0.0302 -0.1845
 6079TIP3    H118201   3.308   0.413   1.512  1.0081  0.6267  0.4139
 6079TIP3    H218202   3.262   0.493   1.392  0.7672 -0.7691 -0.4528
 6080TIP3   OH218203   2.785   6.650   4.088  0.0004  0.1580  0.1796
 6080TIP3    H118204   2.853   6.609   4.141  0.5318  1.3599  0.4608
 6080TIP3    H218205   2.749   6.719   4.145 -1.7854 -0.7405  0.2166
 6081TIP3   OH218206   5.614   5.704   1.753 -0.3270  0.0261  0.2407
 6081TIP3    H118207   5.697   5.657   1.744 -0.4151 -0.2733  0.9616
 6081TIP3    H218208   5.639   5.797   1.749  0.2231 -0.0332  1.7882
 6082TIP3   OH218209   3.945   2.364   4.829 -0.3013 -0.0380  0.2037
 6082TIP3    H118210   3.871   2.318   4.790 -0.5658  0.5018  0.0595
 6082TIP3    H218211   3.985   2.300   4.888 -0.7670 -0.3940  0.1373
 6083TIP3   OH218212   5.894   0.968   5.693  0.5723 -0.1872 -0.3829
 6083TIP3    H118213   5.965   1.028   5.669 -0.1686  0.7708 -0.2580
 6083TIP3    H218214   5.815   1.023   5.692 -0.3546 -1.4402 -1.6232
 6084TIP3   OH218215   0.557   0.637   4.716 -0.4694  0.9223  0.1724
 6084TIP3    H118216   0.480   0.649   4.772 -0.2697 -0.6063  0.7969
 6084TIP3    H218217   0.593   0.725   4.706 -0.1740  1.1807  2.9215
 6085TIP3   OH218218   1.976   6.119   3.800 -0.5700  0.6487 -0.0997
 6085TIP3    H118219   1.900   6.167   3.766 -0.8425 -0.9675 -1.9391
 6085TIP3    H218220   1.949   6.027   3.798  0.5844  0.2403  1.5705
 6086TIP3   OH218221   1.771   6.081   5.086  0.1974  0.3128 -0.0969
 6086TIP3    H118222   1.817   6.020   5.144  0.5252  2.0085  1.5531
 6086TIP3    H218223   1.680   6.078   5.116  0.0526  0.0692 -0.5472
 6087TIP3   OH218224   5.428   3.349   3.222  0.3344  0.4249  0.1112
 6087TIP3    H118225   5.336   3.343   3.248  0.7464  0.4165  1.6582
 6087TIP3    H218226   5.476   3.313   3.296  1.6739  1.8121 -0.0406
 6088TIP3   OH218227   4.547   6.194   5.888  0.3753 -0.0281  0.0067
 6088TIP3    H118228   4.631   6.191   5.843  0.7895  1.2021  0.6429
 6088TIP3    H218229   4.503   6.114   5.862  1.5512 -0.4677 -0.7167
 6089TIP3   OH218230   2.101   5.811   2.398 -0.2151  0.2326 -0.1118
 6089TIP3    H118231   2.089   5.902   2.370 -2.1949 -0.2676 -1.0431
 6089TIP3    H218232   2.088   5.812   2.492  0.5851  1.0233  0.0033
 6090TIP3   OH218233   0.029   5.763   5.909 -0.2919  0.0705  0.4223
 6090TIP3    H118234   0.100   5.729   5.855 -0.4371 -0.0981  0.3370
 6090TIP3    H218235  -0.019   5.822   5.850 -0.9478 -0.7558  0.1118
 6091TIP3   OH218236   2.308   2.306   1.766 -0.0335  0.1000  0.0601
 6091TIP3    H118237   2.319   2.381   1.824  1.0135 -0.5076  0.6841
 6091TIP3    H218238   2.248   2.248   1.813 -0.0309  0.0821  0.0414
 6092TIP3   OH218239   3.858   4.379   2.091  0.2460 -0.0076 -0.1460
 6092TIP3    H118240   3.888   4.323   2.020 -0.1788 -2.0901  1.2525
 6092TIP3    H218241   3.788   4.431   2.052  0.9515 -0.0817 -1.5921
 6093TIP3   OH218242   0.016   3.626   3.148  0.0121  0.1535  0.2147
 6093TIP3    H118243  -0.046   3.571   3.196 -0.8000  0.9171  0.0666
 6093TIP3    H218244   0.095   3.572   3.141 -0.8292 -1.0792 -0.1183
 6094TIP3   OH218245   6.510   0.690   1.604 -0.4905  0.0433  0.2735
 6094TIP3    H118246   6.476   0.720   1.689 -0.8371 -0.9407  0.4896
 6094TIP3    H218247   6.456   0.736   1.539  0.0038  1.0712  0.5684
 6095TIP3   OH218248   1.057   4.447   0.802 -0.1383  0.1677 -0.3172
 6095TIP3    H118249   1.030   4.505   0.873  1.5635  1.2616 -0.5122
 6095TIP3    H218250   1.064   4.361   0.843 -3.2783 -0.1152 -0.1567
 6096TIP3   OH218251   6.812   1.696   3.521 -0.1209 -0.6479 -0.0401
 6096TIP3    H118252   6.841   1.642   3.447  0.8112 -0.1762 -0.0456
 6096TIP3    H218253   6.888   1.750   3.541  0.4563 -2.3029  2.7302
 6097TIP3   OH218254   1.939   0.269   0.461  0.1210  0.2248  0.7358
 6097TIP3    H118255   1.974   0.196   0.511  0.0606  0.5905  1.3141
 6097TIP3    H218256   1.847   0.274   0.487 -0.6180 -1.2064 -1.3215
 6098TIP3   OH218257   3.882   6.037   2.789  0.3624 -0.0111  0.5050
 6098TIP3    H118258   3.942   6.078   2.851  0.3698  0.9736 -0.1281
 6098TIP3    H218259   3.866   6.104   2.723  0.1968 -0.9566 -0.4535
 6099TIP3   OH218260   1.119   2.535   5.599 -0.1672  0.4072 -0.4879
 6099TIP3    H118261   1.064   2.601   5.642 -1.0324 -0.2620 -0.5350
 6099TIP3    H218262   1.059   2.462   5.581  0.1707  0.6062 -2.7031
 6100TIP3   OH218263   2.547   6.555   4.774  0.4058  0.1221  0.2689
 6100TIP3    H118264   2.571   6.509   4.855  1.5567  1.9830  1.0469
 6100TIP3    H218265   2.623   6.544   4.717  0.0403 -0.2555 -0.1514
 6101TIP3   OH218266   0.761   0.489   4.834 -0.3630 -0.5704 -0.6079
 6101TIP3    H118267   0.731   0.418   4.891 -1.0048 -1.0125 -1.4666
 6101TIP3    H218268   0.680   0.526   4.799  0.0290 -0.7075 -1.6996
 6102TIP3   OH218269   7.200   2.692   1.764 -0.3106 -0.0774 -0.1027
 6102TIP3    H118270   7.169   2.611   1.722 -0.6765  0.6798 -1.3310
 6102TIP3    H218271   7.136   2.758   1.739 -0.8205  0.3371  2.0809
 6103TIP3   OH218272   0.273   6.764   1.998 -0.3846  0.2455 -0.0997
 6103TIP3    H118273   0.179   6.785   2.003 -0.2649  0.5418  1.2637
 6103TIP3    H218274   0.287   6.703   2.070  0.5402  0.4701 -0.0825
 6104TIP3   OH218275   4.091   5.530   0.792  0.7211  0.0399 -0.0057
 6104TIP3    H118276   4.043   5.454   0.826  0.0882  0.2133 -0.4713
 6104TIP3    H218277   4.087   5.595   0.862 -1.4889  0.7864 -0.7283
 6105TIP3   OH218278   2.931   4.207   0.953 -0.1167  0.1288 -0.1474
 6105TIP3    H118279   3.012   4.193   0.904 -0.2219  1.6888 -0.8082
 6105TIP3    H218280   2.862   4.206   0.886 -0.4232  0.8188  0.1543
 6106TIP3   OH218281   0.686   0.584   1.141 -0.4491 -0.3128 -0.5867
 6106TIP3    H118282   0.775   0.563   1.170 -0.2276  1.4396  0.1365
 6106TIP3    H218283   0.694   0.596   1.046 -0.3072 -1.9508 -0.7995
 6107TIP3   OH218284   3.820   0.510   1.368  0.1786 -0.2910 -0.0165
 6107TIP3    H118285   3.819   0.508   1.464 -1.9477  0.9129  0.0317
 6107TIP3    H218286   3.912   0.528   1.346  0.6116 -0.0634  1.7962
 6108TIP3   OH218287   3.050   4.213   2.670 -0.3739  0.2138  0.5943
 6108TIP3    H118288   3.005   4.286   2.627 -1.3585  0.0474  1.2965
 6108TIP3    H218289   3.117   4.186   2.608 -0.3889  1.3344  0.0708
 6109TIP3   OH218290   2.773   4.989   1.585 -0.4088 -0.1864  0.5826
 6109TIP3    H118291   2.771   4.973   1.680 -0.6545  0.2183  0.6474
 6109TIP3    H218292   2.773   4.901   1.546 -0.4838 -0.3536  0.9542
 6110TIP3   OH218293   6.053   1.700   0.986  0.5987  0.6451  0.1698
 6110TIP3    H118294   6.125   1.696   1.049  0.6751 -0.2352  0.0383
 6110TIP3    H218295   6.093   1.734   0.906  0.7558  0.6635  0.2544
 6111TIP3   OH218296   0.435   5.722   5.162  0.1645  0.5057 -0.0494
 6111TIP3    H118297   0.454   5.712   5.069  1.2618 -0.9834  0.2947
 6111TIP3    H218298   0.501   5.668   5.206 -1.4320 -0.2764  1.5184
 6112TIP3   OH218299   4.810   0.229   4.470 -0.5277  0.4116 -0.2480
 6112TIP3    H118300   4.882   0.255   4.412 -1.3224 -1.5840 -2.2608
 6112TIP3    H218301   4.755   0.307   4.476  0.4055  1.1422 -0.8603
 6113TIP3   OH218302   2.660   2.750   2.590 -0.0389 -0.2452  0.4937
 6113TIP3    H118303   2.699   2.669   2.622 -0.0840  0.2011  1.7554
 6113TIP3    H218304   2.596   2.774   2.657  2.0038  2.3343  1.7297
 6114TIP3   OH218305   1.162   3.991   0.812  0.3743  0.7237 -0.0050
 6114TIP3    H118306   1.171   3.986   0.907 -2.4092  0.6526  0.3186
 6114TIP3    H218307   1.232   4.051   0.784 -0.6678  3.2804  2.4627
 6115TIP3   OH218308   2.166   1.040   4.290  0.0369  0.5203  0.6412
 6115TIP3    H118309   2.086   0.987   4.302 -0.3551  0.7851 -0.6182
 6115TIP3    H218310   2.224   1.011   4.359 -0.0976 -1.7342 -0.1048
 6116TIP3   OH218311   4.836   3.211   4.947 -0.0269  0.3087 -0.1571
 6116TIP3    H118312   4.792   3.127   4.963 -0.0220  0.1352 -0.9969
 6116TIP3    H218313   4.765   3.274   4.937 -0.1352 -0.0191 -1.7790
 6117TIP3   OH218314   3.463   0.978   5.260  0.0052  0.5828  0.0777
 6117TIP3    H118315   3.436   1.046   5.322  0.3071  2.4199 -1.7006
 6117TIP3    H218316   3.544   0.943   5.296 -0.2622  1.0175  1.1439
 6118TIP3   OH218317   2.366   4.453  -0.024  0.2117  0.0848  0.0834
 6118TIP3    H118318   2.362   4.415   0.064  2.1438  1.8757  1.0298
 6118TIP3    H218319   2.416   4.534  -0.013 -0.2945  0.8348 -2.5297
 6119TIP3   OH218320   1.208   3.659   5.565 -0.0692  0.2635  0.4099
 6119TIP3    H118321   1.275   3.670   5.497 -0.3681 -0.4963 -0.0190
 6119TIP3    H218322   1.237   3.583   5.615 -0.2292  0.3811  0.6835
 6120TIP3   OH218323   3.356   6.377   1.220 -0.2859  0.1168 -0.1404
 6120TIP3    H118324   3.318   6.448   1.168 -1.0327  0.7132  1.1737
 6120TIP3    H218325   3.282   6.319   1.238  0.2754 -0.9102 -1.0170
 6121TIP3   OH218326   0.084   1.818   3.664 -0.3906  0.1318 -0.7516
 6121TIP3    H118327   0.066   1.861   3.748  0.5440 -0.1462 -0.3925
 6121TIP3    H218328   0.094   1.726   3.686  0.5406  0.1524 -1.0511
 6122TIP3   OH218329   7.017   3.319   4.595 -0.0625  0.6856  0.7312
 6122TIP3    H118330   6.974   3.400   4.569 -0.1090  0.8784  1.3901
 6122TIP3    H218331   7.064   3.290   4.516  1.4690  2.3012  0.9830
 6123TIP3   OH218332   3.759   4.606   5.361 -0.1541 -0.0040 -0.5474
 6123TIP3    H118333   3.849   4.637   5.353 -0.0732 -0.2392 -0.5583
 6123TIP3    H218334   3.756   4.561   5.446 -0.6176  1.1737  0.0891
 6124TIP3   OH218335   5.139   6.199   1.824  0.0878 -0.1539  0.0086
 6124TIP3    H118336   5.055   6.173   1.862 -0.1867  0.0852 -0.4312
 6124TIP3    H218337   5.204   6.150   1.875 -0.3465 -0.7585 -0.0029
 6125TIP3   OH218338   1.231   4.603   3.602 -0.0419  0.4028  0.6822
 6125TIP3    H118339   1.173   4.667   3.643 -2.4951 -0.8502 -0.6191
 6125TIP3    H218340   1.250   4.540   3.671  0.0417  1.0038  1.2129
 6126TIP3   OH218341   1.490   2.967   5.688  0.2003  0.1743  0.1235
 6126TIP3    H118342   1.401   2.969   5.652 -1.8360 -0.1323  4.5223
 6126TIP3    H218343   1.498   3.049   5.737  2.6976  0.5139 -0.7181
 6127TIP3   OH218344   6.026   4.516   5.590 -0.3865 -0.2236  0.7988
 6127TIP3    H118345   5.946   4.466   5.577 -1.2242  1.0446  0.8807
 6127TIP3    H218346   5.998   4.594   5.638  1.1103 -0.3411  1.9301
 6128TIP3   OH218347   5.742   5.352   0.930 -0.0874 -0.2982  0.6922
 6128TIP3    H118348   5.761   5.366   0.837  0.6848 -1.3404  0.6919
 6128TIP3    H218349   5.746   5.440   0.968  0.5662  0.0173 -0.0783
 6129TIP3   OH218350   0.476   2.389   2.332 -0.6149 -0.7760  0.5860
 6129TIP3    H118351   0.544   2.342   2.284  0.8058 -0.4634  2.2042
 6129TIP3    H218352   0.492   2.367   2.424 -0.1287  2.5202  1.3934
 6130TIP3   OH218353   3.643   4.360   1.078 -0.0781  0.2564 -0.5899
 6130TIP3    H118354   3.659   4.410   0.998  0.2310 -0.3067 -0.8840
 6130TIP3    H218355   3.549   4.369   1.094 -0.1516  0.3139 -1.0468
 6131TIP3   OH218356   0.978   1.434   4.033 -0.6002  0.0465  0.2671
 6131TIP3    H118357   0.959   1.455   3.941 -0.5865  1.6574  0.6095
 6131TIP3    H218358   0.893   1.411   4.070 -0.4430 -1.8243 -0.4008
 6132TIP3   OH218359   3.030   3.028   5.127  0.3636  0.2490  0.0475
 6132TIP3    H118360   3.102   3.084   5.156 -0.5948  1.9446 -0.6802
 6132TIP3    H218361   3.052   2.941   5.160  1.5281  1.1965  1.9248
 6133TIP3   OH218362   0.071   6.079   4.212  0.8714  0.5842 -0.1494
 6133TIP3    H118363  -0.001   6.033   4.256  1.2506  0.2988  0.1893
 6133TIP3    H218364   0.028   6.141   4.154  0.3429  1.7323  1.4001
 6134TIP3   OH218365   6.701   3.067   4.433 -0.6063 -0.5892  0.5738
 6134TIP3    H118366   6.667   3.154   4.415  1.3720  0.2016  0.4005
 6134TIP3    H218367   6.702   3.023   4.348 -0.2900 -0.2588  0.4010
 6135TIP3   OH218368   0.965   6.403   2.372 -0.1805 -0.1434  0.2749
 6135TIP3    H118369   1.048   6.385   2.417 -0.7684 -2.5042  0.5152
 6135TIP3    H218370   0.910   6.444   2.439  0.8950  1.8888 -0.0166
 6136TIP3   OH218371   0.811   5.240   0.686  0.6394 -0.4101  0.1112
 6136TIP3    H118372   0.802   5.314   0.626 -2.2118 -0.4743  0.3376
 6136TIP3    H218373   0.847   5.278   0.766  0.3496  0.5147 -0.1788
 6137TIP3   OH218374   6.384   0.043   1.540 -0.2808 -0.1023 -0.2138
 6137TIP3    H118375   6.374   0.032   1.635  0.4898 -1.9387 -0.2967
 6137TIP3    H218376   6.376  -0.046   1.505  1.8679  0.1870 -1.6097
 6138TIP3   OH218377   1.469   0.127   4.884 -0.9107 -0.2833 -0.1775
 6138TIP3    H118378   1.395   0.126   4.944 -0.0946  1.0899  0.9182
 6138TIP3    H218379   1.507   0.039   4.892 -0.8822 -0.1667  1.2644
 6139TIP3   OH218380   2.421   4.963   5.612 -0.0334 -0.3547  0.3817
 6139TIP3    H118381   2.480   5.000   5.677  0.6617 -0.6761 -0.0591
 6139TIP3    H218382   2.411   5.032   5.546  1.3078 -0.9385 -0.4694
 6140TIP3   OH218383   6.160   0.227   2.572  0.0773  0.9283 -0.0247
 6140TIP3    H118384   6.153   0.176   2.491  1.4907 -0.1936  0.5187
 6140TIP3    H218385   6.069   0.242   2.599 -0.4301 -1.5506 -0.0850
 6141TIP3   OH218386   1.334   4.460   0.084  0.7602  0.3749 -0.1308
 6141TIP3    H118387   1.298   4.548   0.084  0.6543  0.3561 -1.5529
 6141TIP3    H218388   1.348   4.440  -0.008 -0.1288 -1.4790  0.1051
 6142TIP3   OH218389   0.228   5.580   2.796 -0.0331 -0.3893  0.4249
 6142TIP3    H118390   0.231   5.489   2.825  0.3862 -0.6281 -0.3297
 6142TIP3    H218391   0.311   5.617   2.826 -0.8137  0.1614  1.9962
 6143TIP3   OH218392   4.118   2.862   1.406 -0.1941  0.8896 -0.4854
 6143TIP3    H118393   4.069   2.817   1.337 -0.3438 -0.1421  0.2555
 6143TIP3    H218394   4.200   2.813   1.413  0.1446  1.4583 -0.4508
 6144TIP3   OH218395   5.342   5.014   0.404 -0.1785  0.1462 -0.8622
 6144TIP3    H118396   5.295   5.017   0.487 -0.0658 -1.3682 -0.7151
 6144TIP3    H218397   5.311   4.934   0.361  1.4641 -0.3443 -1.2149
 6145TIP3   OH218398   7.029   2.798   1.573 -0.1528 -0.0644 -0.2708
 6145TIP3    H118399   7.067   2.849   1.501  1.9326 -1.5605 -0.2954
 6145TIP3    H218400   7.014   2.711   1.536 -1.2272 -0.2260  0.4931
 6146TIP3   OH218401   4.170   5.305   0.326 -0.3943 -0.2827 -0.0586
 6146TIP3    H118402   4.082   5.338   0.306 -0.0012  0.3012 -0.9230
 6146TIP3    H218403   4.223   5.336   0.253  0.4934 -0.7962  0.3600
 6147TIP3   OH218404   4.653   6.193   4.676  0.3567 -0.6863  0.3672
 6147TIP3    H118405   4.649   6.266   4.737 -3.2164  0.8228 -1.3786
 6147TIP3    H218406   4.604   6.123   4.719 -1.1688 -0.0101 -0.1842
 6148TIP3   OH218407   6.965   6.222   0.831 -0.5318  0.0886 -0.1226
 6148TIP3    H118408   7.001   6.137   0.854 -0.3638 -0.0031 -0.7246
 6148TIP3    H218409   7.030   6.285   0.862 -0.5140 -0.0125  0.0458
 6149TIP3   OH218410   6.732   5.353   4.088  0.2703  0.6156 -0.6412
 6149TIP3    H118411   6.744   5.290   4.018  0.6973  1.9207 -1.7969
 6149TIP3    H218412   6.769   5.311   4.165  1.9147  0.0354 -1.7019
 6150TIP3   OH218413   0.182   6.282   0.338 -0.0693 -0.2978 -0.5109
 6150TIP3    H118414   0.160   6.321   0.253  0.1154 -1.0655 -0.9225
 6150TIP3    H218415   0.190   6.188   0.319  1.3229 -0.3168  0.0778
 6151TIP3   OH218416   0.049   0.166   5.744 -0.1808  0.6373  0.3985
 6151TIP3    H118417   0.057   0.096   5.808 -1.2444  0.5029  0.4123
 6151TIP3    H218418   0.027   0.120   5.662  0.2052  0.8770  0.1598
 6152TIP3   OH218419   0.611   1.747   3.215  0.5414 -0.1923 -0.3026
 6152TIP3    H118420   0.545   1.742   3.284  0.3878 -1.8611 -0.5400
 6152TIP3    H218421   0.644   1.837   3.221 -2.1664  0.9440 -0.5933
 6153TIP3   OH218422   3.831   1.188   4.755 -0.3248  0.1320  0.1473
 6153TIP3    H118423   3.883   1.167   4.678 -0.8048  1.6548 -0.6353
 6153TIP3    H218424   3.879   1.150   4.828 -0.2273 -1.9753 -0.9510
 6154TIP3   OH218425   5.488   4.299   3.719  0.0075 -0.1789  0.2635
 6154TIP3    H118426   5.565   4.351   3.742 -0.3409  0.6599 -0.3975
 6154TIP3    H218427   5.523   4.215   3.690  0.7195  0.4077 -0.6307
 6155TIP3   OH218428   5.668   3.546   2.574 -0.0741 -0.0093  0.5475
 6155TIP3    H118429   5.709   3.561   2.659 -0.8755 -1.0904  1.1625
 6155TIP3    H218430   5.663   3.450   2.567 -2.4791  0.0341  0.5555
 6156TIP3   OH218431   0.081   1.986   5.475  0.0405  0.4588 -0.5317
 6156TIP3    H118432  -0.005   1.972   5.435  0.5777  1.6986 -2.2043
 6156TIP3    H218433   0.090   1.912   5.536 -1.6037 -0.4777 -1.3245
 6157TIP3   OH218434   3.704   2.955   1.225 -0.0961  0.0199  0.1934
 6157TIP3    H118435   3.694   2.872   1.273 -1.1274 -0.3098 -0.5592
 6157TIP3    H218436   3.669   2.936   1.138  0.5728  0.9801 -0.2888
 6158TIP3   OH218437   7.139   0.573   4.042 -0.4579 -0.1898 -0.7230
 6158TIP3    H118438   7.118   0.520   3.965 -0.9193  0.2051 -0.8703
 6158TIP3    H218439   7.233   0.558   4.056 -0.3618 -0.2371 -1.3840
 6159TIP3   OH218440   6.650   3.183   4.877  0.1649  0.2058 -0.2591
 6159TIP3    H118441   6.712   3.189   4.950 -0.6586  0.7804  0.4174
 6159TIP3    H218442   6.702   3.207   4.800  0.8286  0.5188  0.2693
 6160TIP3   OH218443   1.162   4.465   2.987 -0.0863  0.7868 -0.4499
 6160TIP3    H118444   1.075   4.499   3.007  0.2587  0.9552  0.8409
 6160TIP3    H218445   1.199   4.443   3.072  1.0990  0.6241 -0.9949
 6161TIP3   OH218446   0.180   1.440   1.982 -0.1296  0.0121 -0.0681
 6161TIP3    H118447   0.113   1.374   1.999 -1.9818  0.2930 -4.7172
 6161TIP3    H218448   0.133   1.523   1.982  0.7507  0.5280 -0.7296
 6162TIP3   OH218449   7.024   0.494   4.266 -0.4358  0.9580 -0.3090
 6162TIP3    H118450   7.076   0.498   4.186  0.9222  0.1011  0.4863
 6162TIP3    H218451   6.935   0.475   4.236 -0.0481  1.1477 -1.6330
 6163TIP3   OH218452   7.197   2.963   5.095 -0.6871  0.0047 -0.1837
 6163TIP3    H118453   7.186   2.891   5.157 -0.9193  0.4804  0.3377
 6163TIP3    H218454   7.131   3.028   5.122 -0.6115  0.3315 -0.7633
 6164TIP3   OH218455   2.661   4.267   2.352  0.1361  0.1499 -0.5453
 6164TIP3    H118456   2.588   4.305   2.401  1.2846  1.7340  0.0185
 6164TIP3    H218457   2.662   4.174   2.377 -2.6896 -0.3433 -1.8854
 6165TIP3   OH218458   6.005   6.762   0.456  0.4167 -0.1998  0.1403
 6165TIP3    H118459   6.069   6.727   0.395  0.4368  1.2903 -0.7453
 6165TIP3    H218460   5.934   6.796   0.401 -0.9283 -1.3805  1.0842
 6166TIP3   OH218461   2.626   2.518   5.268 -0.4493 -0.2926 -0.6439
 6166TIP3    H118462   2.572   2.446   5.302 -1.0129  0.5572  0.3185
 6166TIP3    H218463   2.564   2.572   5.219 -0.4011  0.4510  0.0937
 6167TIP3   OH218464   3.128   6.151   1.268  0.6631 -0.2785  0.0048
 6167TIP3    H118465   3.041   6.191   1.265  0.8469  0.1429  0.3220
 6167TIP3    H218466   3.147   6.141   1.361  0.3874 -1.6154 -0.0652
 6168TIP3   OH218467   3.964   2.162   4.189 -0.0428  0.0968 -0.5992
 6168TIP3    H118468   3.999   2.129   4.105  0.9441  2.9751 -1.4465
 6168TIP3    H218469   3.900   2.227   4.164 -1.2381 -0.4247  0.9678
 6169TIP3   OH218470   4.225   2.865   4.731 -0.0073 -0.3214 -0.2336
 6169TIP3    H118471   4.290   2.866   4.661  1.9201 -1.0031  1.4492
 6169TIP3    H218472   4.202   2.773   4.741  0.2393 -0.3163  0.4405
 6170TIP3   OH218473   6.303   0.517   5.641 -0.4266  0.2001 -0.5335
 6170TIP3    H118474   6.262   0.457   5.579  1.2468 -1.6207  0.0389
 6170TIP3    H218475   6.365   0.568   5.589  1.5193 -1.8358 -0.3387
 6171TIP3   OH218476   0.961   0.677   1.402  0.0668 -0.1210  0.3686
 6171TIP3    H118477   0.890   0.661   1.464  0.3637  3.3683  1.8803
 6171TIP3    H218478   1.041   0.662   1.452  0.3200  3.2578  1.2408
 6172TIP3   OH218479   0.550   1.589   4.651 -0.8112 -0.3801 -0.4780
 6172TIP3    H118480   0.572   1.573   4.559  0.9744 -0.8688 -0.0151
 6172TIP3    H218481   0.483   1.657   4.648 -1.3606 -0.9520 -2.1615
 6173TIP3   OH218482   3.385   6.661   3.233 -0.0128 -0.3874 -0.4477
 6173TIP3    H118483   3.434   6.723   3.287 -0.7849 -1.2828  1.3587
 6173TIP3    H218484   3.438   6.581   3.235 -0.2084 -0.5263 -0.7780
 6174TIP3   OH218485   3.787   3.702   1.907 -0.0462  0.0885 -0.2778
 6174TIP3    H118486   3.767   3.792   1.882  1.4532 -0.0935 -2.4501
 6174TIP3    H218487   3.702   3.661   1.919 -0.8165  1.2554 -1.4550
 6175TIP3   OH218488   3.123   3.410   3.277 -0.1116  0.1115 -0.1577
 6175TIP3    H118489   3.115   3.448   3.190  0.8549  0.3238 -0.1674
 6175TIP3    H218490   3.116   3.316   3.263 -0.6645  0.1819 -0.3715
 6176TIP3   OH218491   3.574   1.796   2.012 -0.1196 -0.3601 -0.1862
 6176TIP3    H118492   3.658   1.764   1.980  0.0955  1.1934 -1.3126
 6176TIP3    H218493   3.592   1.826   2.101  0.2705 -0.9759 -0.0552
 6177TIP3   OH218494   5.144   4.477   5.173  0.0843 -0.5648 -0.0412
 6177TIP3    H118495   5.145   4.512   5.084  0.8545  1.6379  0.7631
 6177TIP3    H218496   5.109   4.388   5.164  0.4631 -0.5196 -2.5587
 6178TIP3   OH218497   2.098   3.949   4.126  0.0671 -0.2838 -0.9075
 6178TIP3    H118498   2.130   3.859   4.127  0.0400 -0.2912 -0.5463
 6178TIP3    H218499   2.003   3.940   4.120 -0.0187 -0.3062  0.2528
 6179TIP3   OH218500   2.677   4.431   3.784 -0.0973 -0.5076 -0.1156
 6179TIP3    H118501   2.623   4.404   3.710  0.8065 -0.9545 -0.6313
 6179TIP3    H218502   2.688   4.526   3.773 -0.4287 -0.4793 -0.2241
 6180TIP3   OH218503   5.686   4.632   4.963  0.5933  0.2430  0.1208
 6180TIP3    H118504   5.598   4.666   4.978  0.9293  1.7712 -1.0268
 6180TIP3    H218505   5.683   4.542   4.995 -1.3409  0.2906  0.2230
 6181TIP3   OH218506   3.174   5.651   0.062  0.2628 -0.4835 -0.3238
 6181TIP3    H118507   3.148   5.590   0.131  1.8944  1.0814  1.8267
 6181TIP3    H218508   3.123   5.730   0.079  1.5654  0.3370 -0.1144
 6182TIP3   OH218509   3.597   3.291   1.084  0.3103  0.2531  0.9367
 6182TIP3    H118510   3.562   3.240   1.157  0.6290 -1.1224  0.1568
 6182TIP3    H218511   3.688   3.311   1.110  0.4994 -0.4389  0.8169
 6183TIP3   OH218512   6.423   2.234   4.900 -0.3239 -0.6297  0.4531
 6183TIP3    H118513   6.431   2.230   4.805 -0.7023 -1.2523  0.4472
 6183TIP3    H218514   6.508   2.206   4.933 -0.2973 -0.7212  0.3042
 6184TIP3   OH218515   6.141   3.315   0.358 -0.7044  0.9877 -0.3520
 6184TIP3    H118516   6.143   3.405   0.324  0.2406  0.6202 -1.3096
 6184TIP3    H218517   6.226   3.304   0.401 -0.8256  0.5453 -0.2171
 6185TIP3   OH218518   3.621   0.129   2.116  0.2120 -0.5067 -0.1865
 6185TIP3    H118519   3.651   0.040   2.100 -1.0527 -0.6797 -1.8102
 6185TIP3    H218520   3.540   0.119   2.167 -0.1315 -0.3202 -0.6858
 6186TIP3   OH218521   6.959   0.121   1.084  0.4066 -0.4308  0.1033
 6186TIP3    H118522   6.969   0.026   1.093 -0.4096 -0.4987  0.2773
 6186TIP3    H218523   7.043   0.149   1.048  0.8954 -1.1308  0.6585
 6187TIP3   OH218524   6.550   2.536   0.581 -0.0858  0.4820 -0.2603
 6187TIP3    H118525   6.463   2.533   0.540 -0.0179  1.3524 -0.4840
 6187TIP3    H218526   6.591   2.614   0.545  1.3711 -0.7059 -1.3200
 6188TIP3   OH218527   0.567   6.247   3.602  0.5454 -0.2640 -0.1820
 6188TIP3    H118528   0.526   6.323   3.643 -1.0382 -0.6242 -1.0074
 6188TIP3    H218529   0.508   6.174   3.622  1.1822 -0.9553 -0.7706
 6189TIP3   OH218530   2.288   5.010   4.160 -0.0726 -0.0936 -0.2118
 6189TIP3    H118531   2.322   4.994   4.072 -2.8721  0.2072 -1.4527
 6189TIP3    H218532   2.264   4.924   4.193 -1.2276 -0.0115 -0.7722
 6190TIP3   OH218533   4.391   3.459   1.841 -0.1139 -0.3106  0.2383
 6190TIP3    H118534   4.339   3.511   1.780 -0.1567 -0.5783  0.0438
 6190TIP3    H218535   4.394   3.372   1.802  1.0992 -0.1276 -0.1361
 6191TIP3   OH218536   6.748   1.514   2.412  0.3069 -0.1344 -0.0397
 6191TIP3    H118537   6.715   1.424   2.413  1.6581 -0.6846 -1.2632
 6191TIP3    H218538   6.815   1.515   2.480  0.3325 -0.0713 -0.0665
 6192TIP3   OH218539   3.384   1.783   1.809  0.1298  0.2704  0.1824
 6192TIP3    H118540   3.442   1.788   1.886 -0.0507  1.4717  0.2488
 6192TIP3    H218541   3.334   1.703   1.823  2.0846 -1.0798 -0.1118
 6193TIP3   OH218542   3.542   1.307   3.469  0.5055 -0.4974  0.1344
 6193TIP3    H118543   3.519   1.248   3.540 -1.9064  1.2228  0.9188
 6193TIP3    H218544   3.563   1.390   3.512  0.3061  0.2119 -1.0737
 6194TIP3   OH218545   5.907   1.509   3.256 -0.6393 -0.3562 -0.3014
 6194TIP3    H118546   5.908   1.430   3.202  0.3337  0.0361 -0.8809
 6194TIP3    H218547   5.829   1.557   3.227 -0.3424 -0.3367 -1.0957
 6195TIP3   OH218548   1.390   4.314   1.468 -0.3948 -0.0031  0.4469
 6195TIP3    H118549   1.334   4.252   1.516  1.0904 -0.5130  1.5841
 6195TIP3    H218550   1.470   4.319   1.520  0.2676  1.4231 -0.6551
 6196TIP3   OH218551   4.508   0.222   2.689 -0.0915  0.0409  0.4260
 6196TIP3    H118552   4.513   0.192   2.598  1.9546 -1.4677  0.9577
 6196TIP3    H218553   4.416   0.210   2.713 -0.5661 -0.0315 -1.2757
 6197TIP3   OH218554   6.339   5.649   4.430 -0.7490 -0.2205 -0.1073
 6197TIP3    H118555   6.286   5.667   4.352 -0.6463  1.2640  0.1222
 6197TIP3    H218556   6.387   5.569   4.408 -1.1457 -0.1512 -1.3444
 6198TIP3   OH218557   2.605   2.875   5.812  0.5037 -0.1559 -0.1803
 6198TIP3    H118558   2.655   2.818   5.870 -1.5838 -1.5057  0.4362
 6198TIP3    H218559   2.541   2.917   5.870 -0.9847 -0.7852 -1.2817
 6199TIP3   OH218560   0.311   2.989   1.160  0.1127 -0.0690 -0.5197
 6199TIP3    H118561   0.396   2.993   1.204 -1.5209 -1.3254  3.1429
 6199TIP3    H218562   0.320   2.915   1.099  1.2882 -1.1099  0.8320
 6200TIP3   OH218563   4.654   1.248   0.285 -0.1575  0.5757 -0.7205
 6200TIP3    H118564   4.629   1.162   0.251 -1.5261  0.1514  1.2392
 6200TIP3    H218565   4.603   1.310   0.234 -0.2248  0.1442 -1.1877
 6201TIP3   OH218566   5.009   5.386   0.941  0.2357  0.3133  0.1773
 6201TIP3    H118567   5.072   5.315   0.939  0.2343  0.2570  1.3601
 6201TIP3    H218568   4.943   5.358   1.005  0.6379  1.6864  1.2394
 6202TIP3   OH218569   6.395   4.958   1.251  0.5234  0.5110 -0.6130
 6202TIP3    H118570   6.402   4.869   1.217 -0.4833  0.0531  0.3209
 6202TIP3    H218571   6.430   4.952   1.340 -0.1926  0.8886 -0.3036
 6203TIP3   OH218572   1.285   3.067   4.033  0.1615  0.5983  0.2235
 6203TIP3    H118573   1.198   3.027   4.025  0.0446  1.1040 -1.2256
 6203TIP3    H218574   1.341   3.017   3.974  1.0058 -0.0211  1.4848
 6204TIP3   OH218575   1.438   1.763   2.738  0.2583  0.3160 -0.4205
 6204TIP3    H118576   1.471   1.846   2.774  0.9739  0.3911 -1.2150
 6204TIP3    H218577   1.477   1.758   2.651  0.1915 -0.8477 -0.3944
 6205TIP3   OH218578   2.900   3.071   5.803 -0.6230 -0.2239  0.4915
 6205TIP3    H118579   2.865   3.111   5.724  2.2059 -0.4860 -1.0528
 6205TIP3    H218580   2.955   3.139   5.842  0.2767 -0.9931  0.6083
 6206TIP3   OH218581   2.621   0.047   0.851 -0.0438  0.1288 -0.3871
 6206TIP3    H118582   2.537   0.092   0.848  0.0869  0.4967  0.8600
 6206TIP3    H218583   2.663   0.079   0.931  0.9814 -0.5808 -0.6143
 6207TIP3   OH218584   2.318   5.974   1.383  0.2700  0.1832  0.2886
 6207TIP3    H118585   2.406   6.011   1.374 -0.2230  1.5922  0.8620
 6207TIP3    H218586   2.259   6.047   1.360 -0.7747 -1.3399 -2.3470
 6208TIP3   OH218587   2.112   5.798   0.623 -0.0442 -0.3631  0.2534
 6208TIP3    H118588   2.154   5.730   0.677 -0.4106 -1.3629 -0.6718
 6208TIP3    H218589   2.185   5.850   0.589  0.3086 -0.8071  0.3180
 6209TIP3   OH218590   5.805   1.420   3.925  0.1269 -0.9238 -0.6605
 6209TIP3    H118591   5.805   1.483   3.853  0.3025  0.9972  0.9313
 6209TIP3    H218592   5.897   1.411   3.949 -0.0416 -0.4445  0.2123
 6210TIP3   OH218593   4.567   1.077   2.108  0.1087 -0.1374 -0.0992
 6210TIP3    H118594   4.499   1.010   2.110 -1.2296  1.1152 -1.2470
 6210TIP3    H218595   4.559   1.121   2.193  0.2611 -0.7100  0.2187
 6211TIP3   OH218596   3.436   5.884   4.753  0.0052 -0.2475 -0.3058
 6211TIP3    H118597   3.368   5.927   4.700  1.4830  1.3281 -1.0134
 6211TIP3    H218598   3.513   5.939   4.742  0.8510 -0.8063  2.1735
 6212TIP3   OH218599   5.381   4.527   0.953 -0.4618  0.0941 -0.1133
 6212TIP3    H118600   5.333   4.524   0.871 -2.1278  0.6304  0.7935
 6212TIP3    H218601   5.327   4.583   1.010  0.8369  0.0479  1.2187
 6213TIP3   OH218602   5.422   4.447   4.008 -0.1710  0.4215 -0.0441
 6213TIP3    H118603   5.459   4.532   4.031  1.4267 -0.0426 -0.7373
 6213TIP3    H218604   5.398   4.455   3.915 -1.5476  0.6053  0.3056
 6214TIP3   OH218605   5.446   3.255   1.923 -0.2886 -0.2359  0.5053
 6214TIP3    H118606   5.416   3.269   1.833 -0.7200  0.7112  0.7779
 6214TIP3    H218607   5.540   3.273   1.919 -0.2778 -0.3537  0.2081
 6215TIP3   OH218608   6.018   0.821   0.808  0.0132 -0.0690  0.1102
 6215TIP3    H118609   5.957   0.748   0.815 -0.0096  0.0992  2.6653
 6215TIP3    H218610   5.963   0.898   0.791 -0.4140 -0.0965  1.2583
 6216TIP3   OH218611   1.527   5.739   3.865  0.0809  0.5146 -0.1495
 6216TIP3    H118612   1.459   5.676   3.840 -2.4164  2.3382  1.5337
 6216TIP3    H218613   1.507   5.817   3.813  2.2112  0.5046 -1.1000
 6217TIP3   OH218614   4.045   0.065   3.387 -0.0081  0.2574 -0.3185
 6217TIP3    H118615   4.027   0.136   3.325  0.3167  1.2293  0.6645
 6217TIP3    H218616   3.959   0.043   3.424 -0.5986 -1.9433 -2.7210
 6218TIP3   OH218617   5.282   2.264   1.892  0.3200 -0.2551  0.4248
 6218TIP3    H118618   5.331   2.346   1.891 -1.4371  0.8700  0.8062
 6218TIP3    H218619   5.313   2.218   1.970 -0.1717  1.0674  1.4342
 6219TIP3   OH218620   3.122   0.659   3.704 -0.0274  0.2484 -0.3504
 6219TIP3    H118621   3.108   0.587   3.643 -1.4207  0.6347 -0.5203
 6219TIP3    H218622   3.074   0.733   3.667  0.5817  1.0101  0.3075
 6220TIP3   OH218623   2.569   0.629   3.919  0.1487  0.0196 -0.1803
 6220TIP3    H118624   2.500   0.658   3.859 -0.6185  0.6773  0.9894
 6220TIP3    H218625   2.571   0.534   3.910 -1.2425 -0.0539  0.0980
 6221TIP3   OH218626   6.268   0.202   0.357  0.1129  0.0173  0.1600
 6221TIP3    H118627   6.311   0.210   0.442  0.0250 -0.4016  0.2482
 6221TIP3    H218628   6.339   0.206   0.294  0.0379  2.0464  0.1383
 6222TIP3   OH218629   7.120   1.177   3.239  0.2154  0.0385  0.4857
 6222TIP3    H118630   7.124   1.258   3.290 -1.3156  0.1799  0.4162
 6222TIP3    H218631   7.210   1.145   3.237  0.9360  2.0075  0.0737
 6223TIP3   OH218632   2.072   5.853   5.223 -0.4041  0.0717  0.0914
 6223TIP3    H118633   2.026   5.795   5.163  0.9639 -1.3365  0.3392
 6223TIP3    H218634   2.005   5.915   5.253 -1.4176 -0.0478 -1.7976
 6224TIP3   OH218635   1.821   1.527   1.895 -0.0583 -0.3190  0.4097
 6224TIP3    H118636   1.896   1.477   1.927  0.3862  0.5930  0.8151
 6224TIP3    H218637   1.767   1.541   1.972 -0.1421 -0.1057  0.3133
 6225TIP3   OH218638   2.734   4.991   2.790 -1.1215 -0.5579  0.6693
 6225TIP3    H118639   2.673   4.924   2.822 -0.7968  0.0896  2.8226
 6225TIP3    H218640   2.800   4.997   2.859 -0.1224  0.6648 -0.3640
 6226TIP3   OH218641   4.452   4.249   5.479 -0.1912 -0.7608 -0.3982
 6226TIP3    H118642   4.479   4.212   5.563  0.2398 -0.0837 -0.2338
 6226TIP3    H218643   4.358   4.229   5.473 -0.1979 -0.9135  0.1836
 6227TIP3   OH218644   2.682   1.785   5.076  0.4048 -0.1727 -0.0898
 6227TIP3    H118645   2.707   1.693   5.062 -0.3610 -0.4393  0.2234
 6227TIP3    H218646   2.595   1.780   5.118  0.2329  0.6991 -0.3246
 6228TIP3   OH218647   3.563   5.427   2.264  0.1763 -0.1925 -0.0194
 6228TIP3    H118648   3.614   5.400   2.340 -0.9086  0.2598  0.9049
 6228TIP3    H218649   3.472   5.423   2.294 -0.3218 -0.6225 -1.4965
 6229TIP3   OH218650   1.457   1.790   5.285 -0.5056 -0.0754  0.2858
 6229TIP3    H118651   1.444   1.877   5.323 -1.0813  0.3066 -0.7484
 6229TIP3    H218652   1.546   1.766   5.312  0.3091  1.5414 -0.7501
 6230TIP3   OH218653   4.401   3.226   1.666  0.1814  0.2686 -0.2692
 6230TIP3    H118654   4.393   3.224   1.571  0.2646  0.6822 -0.2865
 6230TIP3    H218655   4.325   3.178   1.698 -0.7008  1.4714 -0.5051
 6231TIP3   OH218656   0.040   5.624   5.355 -0.1607 -0.7794  0.3078
 6231TIP3    H118657   0.088   5.701   5.326  1.1249 -1.5873  0.2404
 6231TIP3    H218658  -0.047   5.658   5.379 -0.0428  0.4742 -0.9121
 6232TIP3   OH218659   2.873   5.561   4.611 -0.1720  0.0168 -0.2457
 6232TIP3    H118660   2.809   5.633   4.604 -0.1769  0.4958  3.1666
 6232TIP3    H218661   2.958   5.603   4.595 -0.3787  0.1283 -1.1402
 6233TIP3   OH218662   5.455   1.920   1.128  0.0645  0.3956  0.1252
 6233TIP3    H118663   5.536   1.962   1.097 -0.3970  1.9125  0.8823
 6233TIP3    H218664   5.482   1.830   1.150  1.1286  0.3089 -1.3574
 6234TIP3   OH218665   1.573   4.115   2.494 -0.6060 -0.4566 -0.3010
 6234TIP3    H118666   1.580   4.128   2.588 -1.1634  1.8374 -0.5139
 6234TIP3    H218667   1.657   4.077   2.468  0.0598  0.1191  0.9493
 6235TIP3   OH218668   4.709   5.273   3.099  0.0101  0.4478 -0.1652
 6235TIP3    H118669   4.675   5.267   3.010  0.0806 -3.4420 -0.1006
 6235TIP3    H218670   4.675   5.195   3.143  2.5934  0.5114  2.2482
 6236TIP3   OH218671   6.832   5.584   4.579  0.4598 -0.1633 -0.1468
 6236TIP3    H118672   6.762   5.649   4.578  0.5686  0.0549  1.6793
 6236TIP3    H218673   6.906   5.627   4.537  0.5689  0.9895  1.1404
 6237TIP3   OH218674   4.413   5.896   5.866  0.1514  0.6087 -0.2101
 6237TIP3    H118675   4.346   5.965   5.859  0.2974  0.8229  0.3832
 6237TIP3    H218676   4.367   5.816   5.843 -0.0613  0.8821 -0.7622
 6238TIP3   OH218677   3.317   4.538   3.747  0.1827 -1.1102  0.4016
 6238TIP3    H118678   3.334   4.598   3.674 -3.1352 -0.5517 -0.0576
 6238TIP3    H218679   3.292   4.456   3.706  0.1082 -1.3740  0.9572
 6239TIP3   OH218680   1.295   4.388   5.274  0.5596 -0.0034  0.7050
 6239TIP3    H118681   1.298   4.395   5.370  0.2010 -0.2714  0.7420
 6239TIP3    H218682   1.386   4.377   5.248  0.7347  0.8038  0.9518
 6240TIP3   OH218683   0.533   4.770   0.602 -0.8986 -0.0819 -0.0059
 6240TIP3    H118684   0.522   4.832   0.530  0.0568 -1.2866 -1.2187
 6240TIP3    H218685   0.446   4.732   0.614 -1.6522  1.8632  1.1629
 6241TIP3   OH218686   5.104   4.821   5.633  0.2140  0.3918 -0.2215
 6241TIP3    H118687   5.169   4.889   5.617  1.3952 -0.3224  1.3124
 6241TIP3    H218688   5.041   4.861   5.693 -1.3535  1.3754 -2.3741
 6242TIP3   OH218689   1.440   3.356   4.817  0.1472  0.0826  0.4828
 6242TIP3    H118690   1.433   3.261   4.804  0.5385  0.1190 -0.0066
 6242TIP3    H218691   1.455   3.367   4.911  1.1151 -0.3916  0.3885
 6243TIP3   OH218692   6.784   2.453   5.543 -0.0301  0.1880 -0.4256
 6243TIP3    H118693   6.793   2.478   5.451 -1.2441 -0.6580 -0.7971
 6243TIP3    H218694   6.746   2.366   5.540 -0.1883  0.1986  0.8892
 6244TIP3   OH218695   4.356   2.285   1.141 -0.1110  0.2523  0.2417
 6244TIP3    H118696   4.417   2.225   1.184  1.0145  0.8018 -0.5330
 6244TIP3    H218697   4.334   2.242   1.058  1.0135  1.0712 -0.4958
 6245TIP3   OH218698   2.723   2.549   0.584 -0.7954 -0.2170 -0.6914
 6245TIP3    H118699   2.751   2.492   0.512  0.7305 -1.8239  1.0786
 6245TIP3    H218700   2.629   2.563   0.569 -0.9833 -2.3480 -1.7740
 6246TIP3   OH218701   6.095   6.592   5.439  0.3082 -0.0221  0.2762
 6246TIP3    H118702   6.131   6.679   5.420 -0.9015  0.3475 -0.4045
 6246TIP3    H218703   6.109   6.580   5.533  3.3210 -0.4305 -0.0977
 6247TIP3   OH218704   0.187   3.067   3.964 -0.6575  0.8617 -0.4330
 6247TIP3    H118705   0.207   3.026   4.048 -0.8927 -0.0184 -0.7940
 6247TIP3    H218706   0.247   3.141   3.958  0.3806  0.0596 -0.1551
 6248TIP3   OH218707   6.266   3.621   3.052 -0.4894 -0.1955  0.2939
 6248TIP3    H118708   6.278   3.708   3.090  0.3750 -0.0766 -0.2078
 6248TIP3    H218709   6.280   3.634   2.959  0.8547 -1.0649  0.3493
 6249TIP3   OH218710   3.457   1.953   0.903  0.2935  0.4880 -0.2460
 6249TIP3    H118711   3.542   1.928   0.866  0.5325  2.3462 -1.0331
 6249TIP3    H218712   3.433   2.033   0.856 -2.0998 -0.2109 -0.3383
 6250TIP3   OH218713   3.572   4.620   3.429 -0.6023 -0.3923  0.5243
 6250TIP3    H118714   3.613   4.590   3.510  2.2527  1.1934 -0.1832
 6250TIP3    H218715   3.646   4.649   3.374 -2.6601  2.5547 -0.9606
 6251TIP3   OH218716   2.210   4.473   2.794  0.5501 -0.0469  0.4739
 6251TIP3    H118717   2.171   4.487   2.708  1.0503  0.1822  0.2785
 6251TIP3    H218718   2.248   4.558   2.818 -0.4297  0.1629  1.3615
 6252TIP3   OH218719   3.768   5.619   2.124  0.7379  0.2592 -0.3402
 6252TIP3    H118720   3.790   5.711   2.140 -0.8013  0.7882 -1.1119
 6252TIP3    H218721   3.704   5.597   2.191  0.1499  0.1339 -0.9340
 6253TIP3   OH218722   2.290   4.467   2.123  0.2242  0.6871  0.2981
 6253TIP3    H118723   2.348   4.498   2.053 -0.3176 -0.6969 -0.8237
 6253TIP3    H218724   2.319   4.378   2.140 -1.2061  0.1603  0.0987
 6254TIP3   OH218725   3.493   4.625   1.733  0.6809 -0.3574  1.0713
 6254TIP3    H118726   3.526   4.535   1.734 -0.3202 -0.7776 -0.5206
 6254TIP3    H218727   3.398   4.617   1.737  0.6125  0.6902  2.0553
 6255TIP3   OH218728   1.552   5.305   4.572  0.5098  0.2453 -0.4252
 6255TIP3    H118729   1.534   5.212   4.585  0.5727  0.5225  2.0905
 6255TIP3    H218730   1.639   5.308   4.533  0.9441 -0.7580  0.4317
 6256TIP3   OH218731   6.995   2.656   2.532 -0.2009 -0.3854 -0.2187
 6256TIP3    H118732   6.966   2.662   2.442 -0.2531 -0.2403 -0.1933
 6256TIP3    H218733   7.011   2.563   2.547  0.0554 -0.3813 -0.4563
 6257TIP3   OH218734   3.948   0.129   5.106  0.6685  0.6600  0.0740
 6257TIP3    H118735   4.003   0.164   5.176 -0.1460  0.7945  0.6661
 6257TIP3    H218736   3.909   0.207   5.066  1.4184  0.6062 -0.7841
 6258TIP3   OH218737   0.753   4.406   4.087 -0.6281 -0.1966  0.2950
 6258TIP3    H118738   0.784   4.458   4.012 -0.4474  0.0629  0.5504
 6258TIP3    H218739   0.739   4.470   4.157 -0.8010 -0.4399  0.4841
 6259TIP3   OH218740   3.588   1.279   4.608  0.0498 -0.2117  0.0900
 6259TIP3    H118741   3.511   1.231   4.639 -0.0353 -0.4628 -0.4963
 6259TIP3    H218742   3.657   1.256   4.670 -0.7579  1.3777  1.6600
 6260TIP3   OH218743   3.596   2.618   0.857  0.4080 -0.4761  0.0895
 6260TIP3    H118744   3.529   2.667   0.809  0.4422 -0.2994  0.2196
 6260TIP3    H218745   3.635   2.560   0.791  4.2238  3.4773 -1.7137
 6261TIP3   OH218746   5.567   5.430   3.677 -0.0816  0.0680 -0.3162
 6261TIP3    H118747   5.597   5.512   3.639 -1.0220  0.5474 -0.0506
 6261TIP3    H218748   5.627   5.414   3.750 -0.4791  1.0321  0.2365
 6262TIP3   OH218749   0.937   6.590   1.066  0.2098  0.3480  0.2027
 6262TIP3    H118750   0.986   6.624   0.992  0.9241 -0.1728  0.4207
 6262TIP3    H218751   0.864   6.541   1.027 -0.1445  1.1120 -0.1207
 6263TIP3   OH218752   5.581   1.447   2.017 -0.1126 -0.2021  0.1556
 6263TIP3    H118753   5.493   1.420   1.989 -0.2777  0.6358 -0.1458
 6263TIP3    H218754   5.592   1.405   2.102 -1.4598  0.9817  0.9615
 6264TIP3   OH218755   0.088   6.671   4.099 -0.5422  0.5094 -0.1779
 6264TIP3    H118756   0.012   6.687   4.156  0.6714  1.9716  1.1211
 6264TIP3    H218757   0.164   6.687   4.155  0.7963 -1.6308 -1.2338
 6265TIP3   OH218758   2.395   2.480   4.505  0.3643  0.2768  0.6242
 6265TIP3    H118759   2.347   2.408   4.547  0.1224 -0.7458 -1.2451
 6265TIP3    H218760   2.432   2.440   4.426  1.9074  1.7608  0.5445
 6266TIP3   OH218761   3.131   6.071   1.530 -0.0622 -0.3829  0.4481
 6266TIP3    H118762   3.094   6.136   1.589  1.6630  0.4318  0.6880
 6266TIP3    H218763   3.082   5.991   1.549 -1.3957  0.5260  1.0109
 6267TIP3   OH218764   5.822   1.025   4.953  0.5667  0.1032  0.1447
 6267TIP3    H118765   5.863   1.100   4.911  0.2975  0.2613  0.1640
 6267TIP3    H218766   5.879   1.005   5.027  1.9624 -1.1999 -1.2032
 6268TIP3   OH218767   1.128   1.842   1.856  0.2981  0.2690  0.9171
 6268TIP3    H118768   1.081   1.816   1.776  0.3193 -0.3901  1.1110
 6268TIP3    H218769   1.158   1.759   1.893  1.1964  0.6493  1.0563
 6269TIP3   OH218770   4.099   1.828   5.616 -0.4233  0.0947 -0.3319
 6269TIP3    H118771   4.178   1.793   5.656  0.1820  2.5051  0.7144
 6269TIP3    H218772   4.089   1.778   5.535 -0.5284 -3.5322  1.7200
 6270TIP3   OH218773   1.193   6.439   4.616  0.5035  0.4710 -0.3209
 6270TIP3    H118774   1.120   6.417   4.675  1.7429  0.6429  1.3390
 6270TIP3    H218775   1.164   6.518   4.571 -0.0144  0.9956  0.9106
 6271TIP3   OH218776   5.775   4.842   2.385  0.3195  0.1359  0.0210
 6271TIP3    H118777   5.776   4.937   2.377 -0.1050  0.1558  0.1784
 6271TIP3    H218778   5.687   4.821   2.415  0.5427 -0.2741  0.4175
 6272TIP3   OH218779   2.167   2.465   2.174 -0.0333 -0.0127  0.6211
 6272TIP3    H118780   2.227   2.502   2.238  0.7076 -1.6267  0.8901
 6272TIP3    H218781   2.094   2.431   2.226  0.2399 -0.7093  0.5514
 6273TIP3   OH218782   2.003   6.077   2.317 -0.8134 -0.2731 -0.0927
 6273TIP3    H118783   1.919   6.070   2.363 -1.9467  0.5966 -1.8831
 6273TIP3    H218784   2.063   6.115   2.381 -1.9143 -0.4530  1.0879
 6274TIP3   OH218785   0.967   0.962   3.183  0.3578 -0.3767 -0.9006
 6274TIP3    H118786   0.992   1.046   3.222  0.8007 -0.6866 -0.5047
 6274TIP3    H218787   1.046   0.908   3.188 -0.7779 -2.0147  2.1232
 6275TIP3   OH218788   1.309   5.893   5.713  0.0645  0.4648 -0.2612
 6275TIP3    H118789   1.267   5.979   5.713  1.0860  0.9795  0.1267
 6275TIP3    H218790   1.376   5.900   5.780  0.4674 -0.4897 -0.5562
 6276TIP3   OH218791   5.559   3.155   0.953  0.1135 -0.0884 -0.2156
 6276TIP3    H118792   5.540   3.163   1.047  0.4402 -2.3563  0.0993
 6276TIP3    H218793   5.652   3.132   0.949  0.4077  1.1706 -1.1928
 6277TIP3   OH218794   6.354   1.127   2.804 -0.2985 -0.1665 -0.6070
 6277TIP3    H118795   6.383   1.100   2.892 -0.9618  0.4557 -0.1823
 6277TIP3    H218796   6.378   1.054   2.747  1.5205  0.0407 -0.1831
 6278TIP3   OH218797   4.726   4.062   0.780 -0.3309  0.5054 -0.1204
 6278TIP3    H118798   4.784   4.137   0.774 -0.5395  0.7839  1.1117
 6278TIP3    H218799   4.783   3.989   0.803 -0.4656  0.8177  1.2885
 6279TIP3   OH218800   0.099   2.815   2.167 -0.4641 -0.0415  0.2289
 6279TIP3    H118801   0.063   2.840   2.082  0.5722  4.4395  0.8807
 6279TIP3    H218802   0.024   2.812   2.226 -0.9382 -1.2445 -0.4049
 6280TIP3   OH218803   5.081   5.705   3.556  0.1301  0.0970 -0.2712
 6280TIP3    H118804   5.166   5.714   3.514  0.1408 -1.5325 -0.6602
 6280TIP3    H218805   5.045   5.794   3.557  2.1422  0.9759  0.6335
 6281TIP3   OH218806   2.422   1.451   2.074  0.4917  0.0614  0.6550
 6281TIP3    H118807   2.510   1.431   2.042  0.5452  1.4126 -0.1442
 6281TIP3    H218808   2.437   1.517   2.142  0.0350  1.6203 -0.6887
 6282TIP3   OH218809   4.631   6.668   0.126 -0.2832 -0.2395 -0.0699
 6282TIP3    H118810   4.570   6.595   0.118 -1.0988  0.5231 -1.1550
 6282TIP3    H218811   4.607   6.709   0.210 -0.9319 -0.2686 -0.2302
 6283TIP3   OH218812   2.474   3.880   5.415 -0.7379  0.4838  0.3495
 6283TIP3    H118813   2.502   3.921   5.333 -0.7824  1.3358  0.7425
 6283TIP3    H218814   2.476   3.952   5.479 -0.3048 -0.2482  1.1842
 6284TIP3   OH218815   4.564   4.210   4.352  0.0403  0.1723 -0.0077
 6284TIP3    H118816   4.501   4.138   4.349 -0.8116  0.9245 -1.7805
 6284TIP3    H218817   4.645   4.173   4.318  0.5323 -0.7342  2.0370
 6285TIP3   OH218818   6.970   3.911   2.000  0.2799  0.5455  0.0173
 6285TIP3    H118819   6.929   3.971   2.062  0.0787 -1.0749  1.5333
 6285TIP3    H218820   6.981   3.830   2.049  0.1206 -0.8184 -2.0956
 6286TIP3   OH218821   3.696   3.212   0.599 -0.4681 -0.1761  0.1546
 6286TIP3    H118822   3.665   3.122   0.585 -2.0980  0.6252 -1.8237
 6286TIP3    H218823   3.664   3.234   0.687 -0.3086 -1.3959  0.5465
 6287TIP3   OH218824   4.136   4.248   2.380  0.1192  0.2123 -0.0083
 6287TIP3    H118825   4.096   4.326   2.420 -0.0932  0.0629  0.0687
 6287TIP3    H218826   4.067   4.210   2.327  0.4301  0.4538 -0.5876
 6288TIP3   OH218827   2.459   4.244   3.145  0.3141 -0.1160 -0.3250
 6288TIP3    H118828   2.533   4.184   3.150  1.0689  0.8198  0.1121
 6288TIP3    H218829   2.409   4.216   3.069  1.3392 -0.5231 -0.8578
 6289TIP3   OH218830   5.557   5.930   1.043  0.6502 -0.4582  0.1628
 6289TIP3    H118831   5.615   5.871   0.994  0.4365  0.3501 -1.1082
 6289TIP3    H218832   5.572   6.016   1.004  0.3036  0.1818  1.3967
 6290TIP3   OH218833   0.031   2.530   5.321  0.2163  0.4957 -0.0404
 6290TIP3    H118834  -0.009   2.445   5.302  0.5971  0.5186 -0.9769
 6290TIP3    H218835   0.104   2.508   5.379 -0.5381  0.3526  0.8852
 6291TIP3   OH218836   1.988   0.834   2.523  0.1603  0.7524  0.2044
 6291TIP3    H118837   1.897   0.847   2.497  0.0425 -1.9721 -1.0205
 6291TIP3    H218838   1.984   0.823   2.618 -0.7644  0.8212  0.1817
 6292TIP3   OH218839   0.701   6.735   3.593 -0.7097  0.0683 -0.1881
 6292TIP3    H118840   0.760   6.807   3.615  1.0712 -0.8848 -1.5620
 6292TIP3    H218841   0.696   6.683   3.673  1.3536 -0.4902 -0.3794
 6293TIP3   OH218842   0.720   6.765   2.308  0.1577 -0.3912 -0.4617
 6293TIP3    H118843   0.795   6.821   2.289  0.6767 -1.2465 -1.0462
 6293TIP3    H218844   0.645   6.810   2.270  0.7588 -0.7058 -2.0763
 6294TIP3   OH218845   5.645   6.739   0.644  0.5564  0.0086  0.2430
 6294TIP3    H118846   5.703   6.681   0.593  0.8470 -0.0960  0.6835
 6294TIP3    H218847   5.665   6.717   0.735  0.1738  0.3257  0.4012
 6295TIP3   OH218848   5.778   4.615   2.630  0.3473 -0.0128 -0.3369
 6295TIP3    H118849   5.730   4.565   2.563 -1.5760 -0.1222  1.0196
 6295TIP3    H218850   5.799   4.698   2.588 -0.1274 -0.3728 -1.3197
 6296TIP3   OH218851   3.374   2.154   0.294  0.2509 -0.4447 -0.6313
 6296TIP3    H118852   3.330   2.212   0.232  0.0903  1.1174  0.8690
 6296TIP3    H218853   3.311   2.084   0.311 -1.8413  1.7655  1.5105
 6297TIP3   OH218854   6.945   5.556   5.000 -0.4664  0.0567 -0.2211
 6297TIP3    H118855   6.993   5.638   5.010  2.3327 -1.4069 -0.6754
 6297TIP3    H218856   6.855   5.578   5.023 -0.1928  3.6055 -1.8951
 6298TIP3   OH218857   6.976   2.367   3.511 -0.2091  0.3003  0.1701
 6298TIP3    H118858   7.020   2.344   3.430 -0.6788  0.6994 -0.2032
 6298TIP3    H218859   7.023   2.444   3.544  0.1339 -0.0054  0.4102
 6299TIP3   OH218860   4.932   1.425   4.493 -0.1819  0.1009 -0.0357
 6299TIP3    H118861   4.844   1.438   4.526 -0.8538 -1.1447 -1.2595
 6299TIP3    H218862   4.939   1.484   4.418 -0.2843 -0.4624 -0.4869
 6300TIP3   OH218863   6.861   2.809   4.308  0.3397 -0.3955 -0.6723
 6300TIP3    H118864   6.912   2.884   4.337 -0.5762 -0.2549  0.6472
 6300TIP3    H218865   6.888   2.796   4.217  3.4825 -0.9752  0.2268
 6301TIP3   OH218866   1.507   5.010   4.661 -0.0485 -0.4795  0.0217
 6301TIP3    H118867   1.487   4.981   4.750  0.1305  0.1485  0.2758
 6301TIP3    H218868   1.433   4.979   4.608 -0.5733 -0.1418  0.5416
 6302TIP3   OH218869   2.944   2.434   1.544 -0.3914 -0.4789 -0.5116
 6302TIP3    H118870   2.871   2.413   1.485 -0.6591  0.9746 -0.7345
 6302TIP3    H218871   2.914   2.404   1.630 -1.0158 -0.4023 -0.6941
 6303TIP3   OH218872   4.977   5.843   5.779 -0.0042  0.3243  0.0624
 6303TIP3    H118873   5.061   5.818   5.818  0.5474 -0.4242 -1.5092
 6303TIP3    H218874   5.001   5.907   5.712 -0.8490  1.0814  0.4596
 6304TIP3   OH218875   7.056   5.256   4.053 -0.1072 -0.0141  0.1962
 6304TIP3    H118876   7.006   5.175   4.047  0.2183 -0.1947 -0.1306
 6304TIP3    H218877   7.133   5.240   3.998 -1.3126  1.4505 -2.0859
 6305TIP3   OH218878   2.259   1.229   2.909 -0.3027  0.1144 -0.0196
 6305TIP3    H118879   2.293   1.259   2.825  0.8346 -0.6282  0.1618
 6305TIP3    H218880   2.259   1.134   2.903 -2.0218  0.0693  0.1389
 6306TIP3   OH218881   0.496   0.623   2.558 -0.7465 -0.1789 -0.1703
 6306TIP3    H118882   0.446   0.551   2.596  0.8470 -0.8432  0.8120
 6306TIP3    H218883   0.488   0.694   2.622  0.2168 -0.5883  0.4458
 6307TIP3   OH218884   2.347   0.487   3.017  0.0542  0.0337 -0.1719
 6307TIP3    H118885   2.292   0.517   3.090 -0.2666 -0.0744 -0.3645
 6307TIP3    H218886   2.361   0.394   3.035  0.2339  0.0780 -0.0848
 6308TIP3   OH218887   5.921   3.943   4.303  0.3545  0.3019  0.2542
 6308TIP3    H118888   5.908   3.852   4.279 -0.7239  0.2250  1.0543
 6308TIP3    H218889   5.839   3.986   4.279  0.8094  1.0477 -0.0150
 6309TIP3   OH218890   1.419   1.139   5.395  0.2588  0.4262  0.0693
 6309TIP3    H118891   1.366   1.170   5.468 -1.0863 -0.1225 -0.6229
 6309TIP3    H218892   1.509   1.139   5.428 -0.3133  0.1551  1.7194
 6310TIP3   OH218893   1.073   4.841   4.849 -0.5324 -0.0211  0.9697
 6310TIP3    H118894   1.023   4.905   4.900 -3.9329 -1.3643 -0.4214
 6310TIP3    H218895   1.045   4.855   4.759  0.8838 -1.5538  0.2355
 6311TIP3   OH218896   6.568   3.915   2.106  0.1251  0.1524  0.0908
 6311TIP3    H118897   6.625   3.906   2.030  1.4964 -2.0837  1.2576
 6311TIP3    H218898   6.547   4.008   2.110  1.1747  0.5441 -2.1717
 6312TIP3   OH218899   6.723   0.663   3.489  0.3227  1.1617 -0.3821
 6312TIP3    H118900   6.761   0.615   3.563 -1.2146  0.6866  0.1493
 6312TIP3    H218901   6.713   0.598   3.420  0.6466  1.3293 -0.5893
 6313TIP3   OH218902   5.883   5.255   1.712 -0.5518  0.0740  0.1801
 6313TIP3    H118903   5.895   5.163   1.688 -0.4746 -0.7042  2.8690
 6313TIP3    H218904   5.971   5.287   1.729 -0.7076  0.1579  0.8425
 6314TIP3   OH218905   6.211   3.490   4.233 -0.3777 -0.0131 -0.0625
 6314TIP3    H118906   6.222   3.398   4.256 -0.5064  0.1140  0.5234
 6314TIP3    H218907   6.233   3.538   4.313  0.9276  0.5431 -0.7264
 6315TIP3   OH218908   1.614   1.324   1.025 -0.1648  0.2529  0.5913
 6315TIP3    H118909   1.682   1.269   1.063 -0.7111 -0.4546  0.5658
 6315TIP3    H218910   1.582   1.274   0.950 -1.6674 -0.0709  1.4074
 6316TIP3   OH218911   2.814   6.696   2.151 -0.0071 -0.2690 -0.1135
 6316TIP3    H118912   2.880   6.740   2.206 -0.8788  1.5580 -0.4605
 6316TIP3    H218913   2.859   6.681   2.068  0.7307 -1.3367  0.4506
 6317TIP3   OH218914   6.601   0.934   4.448  0.2160 -0.0775 -0.6039
 6317TIP3    H118915   6.683   0.937   4.399 -0.1295 -1.5757 -1.3100
 6317TIP3    H218916   6.535   0.967   4.388  0.1061 -0.0257 -0.4566
 6318TIP3   OH218917   2.979   5.057   1.966  0.4035  0.3392 -0.1338
 6318TIP3    H118918   3.000   4.982   2.021  1.0153 -0.2432 -1.1398
 6318TIP3    H218919   3.033   5.129   2.000  1.1548 -0.1481 -0.2794
 6319TIP3   OH218920   3.976   5.493   5.264 -0.5128 -0.0558 -0.4684
 6319TIP3    H118921   3.997   5.584   5.286 -0.6455 -0.3856  1.1855
 6319TIP3    H218922   3.889   5.479   5.301 -0.0188 -1.1649  0.3323
 6320TIP3   OH218923   6.125   5.915   4.567  0.3052 -0.6077 -0.1529
 6320TIP3    H118924   6.201   5.893   4.621  1.1689 -0.2862 -1.1902
 6320TIP3    H218925   6.087   5.993   4.608  1.0783 -0.2364 -0.1294
 6321TIP3   OH218926   6.886   0.916   2.450  0.0901  0.2485 -0.0545
 6321TIP3    H118927   6.813   0.854   2.449 -0.7878  1.2526 -1.0061
 6321TIP3    H218928   6.890   0.946   2.541 -0.3279 -0.2269  0.1252
 6322TIP3   OH218929   4.772   6.137   3.576 -0.4292  0.5961 -0.1524
 6322TIP3    H118930   4.792   6.221   3.617  0.8243 -0.3938  1.3545
 6322TIP3    H218931   4.683   6.116   3.606 -0.3162  0.8544  0.3740
 6323TIP3   OH218932   5.804   1.409   5.088 -0.4331  0.3286  0.0653
 6323TIP3    H118933   5.741   1.345   5.121 -0.4171 -0.4107 -1.2677
 6323TIP3    H218934   5.820   1.467   5.162 -0.5585 -1.1156  1.2851
 6324TIP3   OH218935   3.572   1.465   0.485  0.5615  0.3560  0.0489
 6324TIP3    H118936   3.639   1.527   0.512  2.6811 -0.6657 -2.4532
 6324TIP3    H218937   3.613   1.379   0.496 -1.6285 -0.5713  1.6696
 6325TIP3   OH218938   3.524   2.142   3.209 -0.0116  0.3928  0.2428
 6325TIP3    H118939   3.600   2.180   3.252  0.4980  0.3895 -0.6370
 6325TIP3    H218940   3.543   2.048   3.205 -0.3366  0.3112  0.5551
 6326TIP3   OH218941   1.047   2.789   1.579 -0.3544 -0.3032  0.0502
 6326TIP3    H118942   1.089   2.800   1.665 -1.7533 -1.0927  0.8679
 6326TIP3    H218943   0.976   2.853   1.580  0.0333  0.1468 -0.8072
 6327TIP3   OH218944   4.977   5.488   3.297  0.2481  0.7835  0.9105
 6327TIP3    H118945   5.028   5.474   3.377 -1.9842  0.5230  2.3690
 6327TIP3    H218946   4.912   5.554   3.322 -0.1130  1.1655 -0.9067
 6328TIP3   OH218947   3.302   6.620   1.371 -0.0766  0.0513  0.0182
 6328TIP3    H118948   3.305   6.691   1.307 -0.9935 -0.8966 -1.1007
 6328TIP3    H218949   3.394   6.608   1.397  0.3490  0.2809 -1.3017
 6329TIP3   OH218950   0.142   6.587   0.753  0.0730  0.3755  0.3352
 6329TIP3    H118951   0.143   6.569   0.847 -3.3352  0.8090  0.5617
 6329TIP3    H218952   0.172   6.678   0.745  1.5735 -0.0521  0.8205
 6330TIP3   OH218953   4.385   5.560   2.051 -0.5101  0.3620 -0.0637
 6330TIP3    H118954   4.427   5.504   2.116 -1.1187  0.4167  0.3822
 6330TIP3    H218955   4.439   5.639   2.049 -0.0221  0.0289 -0.2259
 6331TIP3   OH218956   0.892   1.498  -0.008 -0.0286  0.5648  0.0661
 6331TIP3    H118957   0.907   1.426   0.054  0.5965 -0.1009 -0.8270
 6331TIP3    H218958   0.905   1.577   0.044 -1.4421  0.0723  1.2491
 6332TIP3   OH218959   0.021   3.970   0.510  0.4953 -0.5056 -0.2477
 6332TIP3    H118960   0.076   3.892   0.517  0.8008 -0.5205 -2.3094
 6332TIP3    H218961   0.063   4.023   0.442 -0.9065  0.4462 -0.4100
 6333TIP3   OH218962   6.289   6.765   2.086  0.3018 -0.5119 -0.3988
 6333TIP3    H118963   6.193   6.758   2.083  0.2278  0.6521 -2.3416
 6333TIP3    H218964   6.319   6.703   2.020  0.7274  0.9770 -1.6545
 6334TIP3   OH218965   3.943   3.910   1.289 -0.4950 -0.2936 -0.8006
 6334TIP3    H118966   4.013   3.911   1.354 -0.2254  0.7945 -1.0768
 6334TIP3    H218967   3.944   3.821   1.254 -0.8857 -1.0214  0.9141
 6335TIP3   OH218968   1.845   3.091   4.277  0.2068 -0.3800  0.1900
 6335TIP3    H118969   1.846   3.181   4.310  1.5702 -1.0111  2.0679
 6335TIP3    H218970   1.937   3.064   4.279 -0.1035 -1.6493 -0.8927
 6336TIP3   OH218971   4.736   2.208   3.367  0.3447 -0.4762 -0.2317
 6336TIP3    H118972   4.644   2.184   3.360  0.4278 -0.8893  0.0457
 6336TIP3    H218973   4.775   2.137   3.419  1.2346 -1.3488 -2.0196
 6337TIP3   OH218974   1.023   1.077   0.777  0.0795  0.5429  0.0024
 6337TIP3    H118975   1.007   1.166   0.746  1.0113  1.4781  2.0236
 6337TIP3    H218976   0.965   1.067   0.853  0.4776 -0.3414  0.2016
 6338TIP3   OH218977   0.158   5.457   0.940  0.5957  0.2221 -0.0534
 6338TIP3    H118978   0.195   5.484   0.856  0.3212 -1.7014 -0.8672
 6338TIP3    H218979   0.070   5.426   0.918 -0.3434  1.7971  1.3396
 6339TIP3   OH218980   3.263   1.379   3.694 -0.0906 -0.2790 -0.2794
 6339TIP3    H118981   3.272   1.467   3.659 -1.4444  0.3426  0.8338
 6339TIP3    H218982   3.353   1.348   3.705  0.4132  1.1569 -0.1779
 6340TIP3   OH218983   2.702   5.091   1.866  0.1822  0.7130 -0.0177
 6340TIP3    H118984   2.722   5.180   1.838 -0.9697  1.0571  0.1870
 6340TIP3    H218985   2.787   5.053   1.888  1.0402  0.7625 -2.8819
 6341TIP3   OH218986   5.289   6.267   0.579 -0.1733  0.1736 -0.1312
 6341TIP3    H118987   5.322   6.302   0.496 -1.2226  0.7755 -0.3194
 6341TIP3    H218988   5.196   6.289   0.578 -0.7772 -2.0777  0.0209
 6342TIP3   OH218989   3.010   2.675   4.700 -0.1839  0.2780 -0.4187
 6342TIP3    H118990   2.969   2.589   4.696 -0.2224  0.3094 -0.7901
 6342TIP3    H218991   2.982   2.712   4.784  1.0781 -0.6797  0.4560
 6343TIP3   OH218992   3.394   0.385   3.774  0.1102  0.4370 -0.3495
 6343TIP3    H118993   3.384   0.291   3.762  0.8527  0.0818  1.4377
 6343TIP3    H218994   3.353   0.424   3.697  0.9778 -1.3628 -1.7769
 6344TIP3   OH218995   6.781   0.589   4.010 -0.0785 -0.0515  0.6289
 6344TIP3    H118996   6.869   0.624   4.012  0.7698 -1.7981 -1.6016
 6344TIP3    H218997   6.780   0.521   4.078 -0.8558  2.1738  2.9900
 6345TIP3   OH218998   0.819   2.871   3.291 -0.5111  0.3996  0.1101
 6345TIP3    H118999   0.871   2.944   3.259  0.3120 -0.3547 -0.2997
 6345TIP3    H219000   0.728   2.897   3.273 -0.1302  0.3851 -2.0698
 6346TIP3   OH219001   1.023   1.655   4.950  1.1511  0.4174 -0.0422
 6346TIP3    H119002   0.983   1.694   5.028  1.8240  0.7861  0.1317
 6346TIP3    H219003   0.950   1.635   4.892  0.6005 -0.2412  0.8575
 6347TIP3   OH219004   2.033   0.558   2.322 -0.1204  0.6911  0.3279
 6347TIP3    H119005   2.063   0.649   2.316  0.6211  0.5921  1.9500
 6347TIP3    H219006   2.056   0.531   2.411 -0.1099 -1.1616 -0.1892
 6348TIP3   OH219007   5.601   1.295   2.494 -0.0796 -0.7219  0.0566
 6348TIP3    H119008   5.643   1.372   2.456  0.6464 -1.2668 -0.2637
 6348TIP3    H219009   5.513   1.325   2.517  0.0548  0.0898 -0.4435
 6349TIP3   OH219010   0.081   2.060   3.188  0.2714  0.5505 -0.0865
 6349TIP3    H119011   0.011   1.995   3.183  0.9556 -0.1353 -1.7099
 6349TIP3    H219012   0.159   2.009   3.211  0.6818  0.9127 -0.6589
 6350TIP3   OH219013   6.060   1.678   5.686 -0.1229  0.5965 -0.3340
 6350TIP3    H119014   6.148   1.685   5.723 -0.3805  1.9694  0.1055
 6350TIP3    H219015   6.058   1.593   5.643  0.4151 -0.7993  2.2279
 6351TIP3   OH219016   4.902   4.236   1.171  0.2161 -0.0627 -0.0032
 6351TIP3    H119017   4.987   4.241   1.214 -0.4882 -0.3378  1.4851
 6351TIP3    H219018   4.905   4.304   1.104  1.3366  0.4182  0.5080
 6352TIP3   OH219019   1.740   1.892   4.450  0.0241  0.0365  0.1299
 6352TIP3    H119020   1.711   1.975   4.487 -1.8226 -1.0627  1.3064
 6352TIP3    H219021   1.722   1.900   4.356 -0.4002  0.8532  0.2690
 6353TIP3   OH219022   1.436   2.060   5.356  0.1790  0.6882 -0.0859
 6353TIP3    H119023   1.485   2.089   5.433  2.0892 -0.3466 -0.8353
 6353TIP3    H219024   1.486   2.094   5.281 -0.8260  0.4579 -0.8888
 6354TIP3   OH219025   2.438   5.552   0.945  0.2141  0.0569 -0.0550
 6354TIP3    H119026   2.383   5.487   0.902 -0.4183  0.4205  0.1852
 6354TIP3    H219027   2.517   5.504   0.972  0.4005 -0.2833 -1.1563
 6355TIP3   OH219028   4.647   4.797   3.989  0.4896 -0.2449  0.8888
 6355TIP3    H119029   4.674   4.718   3.942  1.9586  0.3754  0.6331
 6355TIP3    H219030   4.612   4.855   3.921 -0.4248 -0.5832  1.0522
 6356TIP3   OH219031   5.427   6.521   2.616  0.1448  0.2440  0.3921
 6356TIP3    H119032   5.490   6.566   2.560  0.3465  0.6145  0.9187
 6356TIP3    H219033   5.350   6.508   2.559  0.6472 -0.1271 -0.2185
 6357TIP3   OH219034   1.865   3.242   0.646  0.1860  0.1229  0.2065
 6357TIP3    H119035   1.806   3.301   0.693  0.8357  1.2699 -0.3533
 6357TIP3    H219036   1.949   3.252   0.692 -0.1953 -2.0862  1.4967
 6358TIP3   OH219037   6.470   5.398   5.131 -0.0371  0.1986 -0.3190
 6358TIP3    H119038   6.403   5.378   5.066 -1.1504  1.8293  0.2568
 6358TIP3    H219039   6.520   5.470   5.091  2.1519 -1.6887 -1.2158
 6359TIP3   OH219040   3.894   3.389   2.978 -0.4042 -0.0332  0.4775
 6359TIP3    H119041   3.803   3.360   2.975 -0.4328 -0.1158  1.7005
 6359TIP3    H219042   3.904   3.429   3.065  0.4230  0.9993 -0.0643
 6360TIP3   OH219043   6.355   0.201   5.225  0.2022 -0.6457  0.1967
 6360TIP3    H119044   6.261   0.197   5.208  0.1589  0.4079  0.1406
 6360TIP3    H219045   6.362   0.228   5.316  0.4581 -1.2443  0.3604
 6361TIP3   OH219046   4.531   2.774   4.713  0.0852  0.2344 -0.4819
 6361TIP3    H119047   4.554   2.693   4.757 -1.8973  0.4905  1.1481
 6361TIP3    H219048   4.567   2.765   4.625  0.9267 -1.8786  0.0315
 6362TIP3   OH219049   4.264   4.217   3.245 -0.0924  0.0653 -1.0157
 6362TIP3    H119050   4.306   4.136   3.274  0.7661  1.0464  0.6560
 6362TIP3    H219051   4.336   4.271   3.213 -0.1542  1.2784  0.7010
 6363TIP3   OH219052   3.561   1.896   2.263  0.4588 -0.2626  0.5467
 6363TIP3    H119053   3.552   1.977   2.314 -0.7812  0.1550 -0.2767
 6363TIP3    H219054   3.552   1.826   2.328  1.7557  0.2477  1.2992
 6364TIP3   OH219055   5.220   2.205   2.424  0.1269  0.1012  1.1723
 6364TIP3    H119056   5.262   2.224   2.508  0.5717 -2.3054  1.5444
 6364TIP3    H219057   5.211   2.110   2.422 -0.0475  0.1104 -1.4416
 6365TIP3   OH219058   3.674   5.736   2.393  0.4450  0.3726  0.1755
 6365TIP3    H119059   3.581   5.720   2.377  0.9803 -1.3539 -1.7890
 6365TIP3    H219060   3.689   5.704   2.481 -0.6645 -0.1929  0.1845
 6366TIP3   OH219061   4.199   4.800   4.700  0.2455 -0.0865 -0.3926
 6366TIP3    H119062   4.118   4.822   4.746 -0.3132 -0.2820 -1.2749
 6366TIP3    H219063   4.214   4.708   4.720  0.3572 -0.0035 -0.0808
 6367TIP3   OH219064   1.174   3.817   2.401 -0.2974 -0.5845 -0.1308
 6367TIP3    H119065   1.158   3.731   2.362  0.7224 -1.7734  1.9099
 6367TIP3    H219066   1.260   3.844   2.368 -0.3969 -0.5747 -0.3824
 6368TIP3   OH219067   0.958   5.644   4.744  0.5533  0.2267 -0.3936
 6368TIP3    H119068   1.018   5.629   4.670 -0.6123 -0.2685 -1.2704
 6368TIP3    H219069   1.016   5.654   4.820  1.7308 -0.6166 -1.1403
 6369TIP3   OH219070   2.645   4.208   4.417 -0.1001  0.3933  0.2192
 6369TIP3    H119071   2.602   4.126   4.392  0.7927 -0.2448  0.7211
 6369TIP3    H219072   2.676   4.244   4.334  0.5465 -0.3888  0.1019
 6370TIP3   OH219073   6.997   4.619   4.790 -0.5417  0.4966  0.2370
 6370TIP3    H119074   6.940   4.573   4.729 -1.0731  1.8194 -0.2908
 6370TIP3    H219075   6.947   4.624   4.872  0.4560 -1.9316  1.0903
 6371TIP3   OH219076   1.667   0.192   1.121 -0.2012 -0.1545 -0.2675
 6371TIP3    H119077   1.668   0.202   1.216 -0.3960 -1.6333 -0.0747
 6371TIP3    H219078   1.669   0.097   1.108  1.7502  0.0364 -1.7834
 6372TIP3   OH219079   3.335   4.469   3.348  0.1066  0.3147  0.9061
 6372TIP3    H119080   3.287   4.506   3.274  2.3377 -0.3573 -0.9967
 6372TIP3    H219081   3.400   4.535   3.371  2.1609 -1.0772 -0.5603
 6373TIP3   OH219082   6.721   4.528   5.756 -0.0975 -0.4497  0.3014
 6373TIP3    H119083   6.657   4.465   5.723 -0.5819 -0.6848  1.6260
 6373TIP3    H219084   6.801   4.476   5.767  0.1525 -0.3055 -0.7248
 6374TIP3   OH219085   4.658   4.126   1.037 -0.2948  0.1858  0.0815
 6374TIP3    H119086   4.738   4.178   1.039 -0.5993  0.6590  0.1936
 6374TIP3    H219087   4.646   4.105   0.944  0.4266 -0.6394  0.1579
 6375TIP3   OH219088   2.937   6.147   4.882 -0.3011 -0.1322 -0.3084
 6375TIP3    H119089   2.845   6.171   4.868 -0.4030 -0.8323 -0.8612
 6375TIP3    H219090   2.935   6.086   4.956 -0.4170 -1.0214 -1.0273
 6376TIP3   OH219091   4.401   0.596   1.835  0.4456 -0.5704  0.3966
 6376TIP3    H119092   4.469   0.655   1.803  0.7830 -1.3364 -0.3365
 6376TIP3    H219093   4.361   0.560   1.756 -0.7147 -0.2681  0.8119
 6377TIP3   OH219094   2.466   1.754   1.265 -0.3969 -0.0592  0.0880
 6377TIP3    H119095   2.431   1.786   1.348 -0.1725 -1.2317  0.6583
 6377TIP3    H219096   2.393   1.707   1.225  0.0604 -1.1805  0.5536
 6378TIP3   OH219097   4.940   2.034   3.935 -0.8126  0.1388  0.5617
 6378TIP3    H119098   4.983   2.048   4.020 -1.4241  1.2971  0.6906
 6378TIP3    H219099   4.850   2.061   3.949 -1.0405 -0.1195 -0.3429
 6379TIP3   OH219100   3.336   1.402   0.323  0.1290 -0.2570 -0.5932
 6379TIP3    H119101   3.387   1.476   0.355  1.3154 -0.9607 -0.8110
 6379TIP3    H219102   3.289   1.371   0.401 -2.1951  2.0366 -0.9092
 6380TIP3   OH219103   3.830   5.952   5.521  0.1771  0.7092  0.0474
 6380TIP3    H119104   3.922   5.930   5.533  0.0012  0.5040  1.0939
 6380TIP3    H219105   3.830   6.046   5.503  0.6456  0.5559 -0.8076
 6381TIP3   OH219106   0.760   4.320   0.773 -0.3212  0.5047 -0.0477
 6381TIP3    H119107   0.835   4.359   0.730  0.3225 -1.1499 -0.5059
 6381TIP3    H219108   0.789   4.305   0.863 -0.0451 -0.2040 -0.2440
 6382TIP3   OH219109   6.526   0.382   0.290 -0.0309 -0.0774  0.3347
 6382TIP3    H119110   6.499   0.470   0.264  0.7095 -0.1451 -0.7226
 6382TIP3    H219111   6.504   0.327   0.216 -1.3617 -0.9800  1.3560
 6383TIP3   OH219112   3.430   2.915   0.448  0.2704  0.1363 -0.4746
 6383TIP3    H119113   3.427   2.858   0.371 -0.4255  0.8796 -1.0061
 6383TIP3    H219114   3.439   3.003   0.413  0.6930  0.4195  0.3243
 6384TIP3   OH219115   1.846   0.026   1.739 -0.5593 -0.4791  0.4958
 6384TIP3    H119116   1.852   0.069   1.824  2.4291  0.5679 -0.1353
 6384TIP3    H219117   1.829   0.097   1.678 -0.2005 -0.8554 -0.0509
 6385TIP3   OH219118   2.805   4.790   0.309  0.0747  0.1516 -0.0501
 6385TIP3    H119119   2.799   4.846   0.386  1.0660  3.6753 -2.3164
 6385TIP3    H219120   2.714   4.772   0.285 -0.2456 -0.7435  1.6633
 6386TIP3   OH219121   6.214   6.183   1.771  0.4032  0.4275 -0.0045
 6386TIP3    H119122   6.216   6.194   1.866  0.5739  2.7162 -0.2185
 6386TIP3    H219123   6.289   6.127   1.752 -0.1478 -0.7961  1.2612
 6387TIP3   OH219124   2.358   0.696   5.586  0.7499  0.1000  0.0328
 6387TIP3    H119125   2.309   0.694   5.668 -0.3041 -0.7798 -0.5892
 6387TIP3    H219126   2.293   0.714   5.519  1.2233 -1.2259 -0.8386
 6388TIP3   OH219127   2.037   6.394   4.164 -0.7241  0.2014 -0.3612
 6388TIP3    H119128   2.119   6.438   4.142 -0.7598  0.8153  0.6469
 6388TIP3    H219129   2.047   6.367   4.255 -1.1388 -0.9160 -0.6321
 6389TIP3   OH219130   6.188   6.446   2.150 -0.1408 -0.1210 -0.6249
 6389TIP3    H119131   6.115   6.496   2.187 -0.2268 -0.6664 -0.0416
 6389TIP3    H219132   6.237   6.509   2.098 -1.5502  0.0634 -1.7898
 6390TIP3   OH219133   0.289   5.616   4.614 -0.3698  0.4541 -0.0975
 6390TIP3    H119134   0.283   5.560   4.692 -0.4624  2.6868  1.5944
 6390TIP3    H219135   0.208   5.597   4.565  0.4828 -2.2355 -0.6400
 6391TIP3   OH219136   0.306   2.777   0.974 -0.2295 -0.0435  0.0650
 6391TIP3    H119137   0.359   2.808   0.901 -0.9326  2.0292  0.3895
 6391TIP3    H219138   0.258   2.702   0.938 -0.8128  1.1307 -1.7421
 6392TIP3   OH219139   3.038   4.632   0.241  0.0111  0.2351 -0.2913
 6392TIP3    H119140   2.992   4.552   0.217  0.4632 -0.2397  0.3756
 6392TIP3    H219141   2.975   4.682   0.292 -0.1034  0.0751 -0.2755
 6393TIP3   OH219142   2.985   4.434   1.749  0.4612  0.5908  0.4243
 6393TIP3    H119143   2.958   4.369   1.684  0.6058  0.7612  0.1918
 6393TIP3    H219144   2.945   4.404   1.831  0.0043  0.5577  0.1908
 6394TIP3   OH219145   5.580   2.672   3.452  0.6812 -0.5679 -0.0792
 6394TIP3    H119146   5.520   2.657   3.379 -0.6291  3.0110  0.0413
 6394TIP3    H219147   5.590   2.587   3.493 -0.1213 -2.3409 -3.2149
 6395TIP3   OH219148   3.772   0.984   3.988 -0.2903 -0.3202  0.0237
 6395TIP3    H119149   3.705   0.916   3.982 -0.8302  0.3263 -2.8725
 6395TIP3    H219150   3.734   1.059   3.943  0.5364  1.7687  2.5668
 6396TIP3   OH219151   3.126   2.676   3.127  0.0853  0.4811 -0.3352
 6396TIP3    H119152   3.161   2.621   3.197  2.3246  2.8255  0.5074
 6396TIP3    H219153   3.071   2.616   3.075  0.5753 -1.9702  1.7771
 6397TIP3   OH219154   4.230   0.783   1.339 -0.3586 -0.0755 -0.4417
 6397TIP3    H119155   4.169   0.857   1.339 -1.5457 -0.9367  1.9527
 6397TIP3    H219156   4.308   0.815   1.293 -2.6227  0.9797 -3.9005
 6398TIP3   OH219157   4.788   5.950   2.141 -0.5923 -0.3866 -0.0264
 6398TIP3    H119158   4.782   5.855   2.134  0.3810 -0.5883  1.5507
 6398TIP3    H219159   4.800   5.967   2.234 -0.2655  1.2622 -0.3430
 6399TIP3   OH219160   3.833   6.139   4.200  0.5703 -0.1658 -0.3276
 6399TIP3    H119161   3.808   6.230   4.215 -1.4296 -0.5969 -0.7751
 6399TIP3    H219162   3.843   6.101   4.288  1.4178  0.4651 -0.1429
 6400TIP3   OH219163   0.432   4.103   4.100  0.4707  0.0996 -0.6059
 6400TIP3    H119164   0.446   4.116   4.006 -1.3781 -0.0777 -0.9460
 6400TIP3    H219165   0.379   4.178   4.126  0.4812 -0.1592  0.1655
 6401TIP3   OH219166   0.703   0.378   3.372 -0.3401  0.5214 -0.0316
 6401TIP3    H119167   0.709   0.375   3.277  0.2696 -1.8762  0.0343
 6401TIP3    H219168   0.616   0.415   3.390 -0.6689  0.5057 -1.4999
 6402TIP3   OH219169   5.216   4.958   2.474 -0.5616  0.0836 -0.1258
 6402TIP3    H119170   5.151   5.002   2.530 -1.4704 -0.4237 -0.7608
 6402TIP3    H219171   5.279   5.027   2.453 -1.4645  0.8628 -0.3579
 6403TIP3   OH219172   3.293   0.630   0.091  0.7356 -0.0773 -0.1207
 6403TIP3    H119173   3.322   0.578   0.016  2.0144 -0.1428  0.3889
 6403TIP3    H219174   3.284   0.719   0.056 -1.4045 -0.5779 -0.9825
 6404TIP3   OH219175   6.839   4.660   4.281  0.5606  0.6018  0.3151
 6404TIP3    H119176   6.818   4.613   4.362  0.3129  0.5810  0.2387
 6404TIP3    H219177   6.772   4.728   4.275 -0.1769 -0.1587 -0.5081
 6405TIP3   OH219178   1.194   6.478   0.571 -0.7771  0.2234 -0.2634
 6405TIP3    H119179   1.215   6.385   0.582 -0.1412  0.0615 -2.4271
 6405TIP3    H219180   1.123   6.479   0.507 -0.0160  1.2792 -1.1122
 6406TIP3   OH219181   0.914   5.352   2.120  0.2435 -0.0409  0.0185
 6406TIP3    H119182   0.915   5.447   2.129  2.3024  0.0925 -0.8996
 6406TIP3    H219183   0.979   5.321   2.183  0.6730 -0.6890 -0.7190
 6407TIP3   OH219184   0.078   0.373   1.377 -0.0071 -0.5308  0.0480
 6407TIP3    H119185   0.081   0.323   1.459 -1.7803  2.1904  1.9253
 6407TIP3    H219186   0.003   0.337   1.330  0.7482 -1.8018 -0.2424
 6408TIP3   OH219187   7.078   3.492   0.945 -0.4866  0.0178  0.1672
 6408TIP3    H119188   7.120   3.501   0.859 -1.3831  0.4656 -0.2360
 6408TIP3    H219189   7.032   3.408   0.940  1.6675 -1.2986  1.2064
 6409TIP3   OH219190   3.475   6.005   3.274 -0.4114  0.1130 -0.1890
 6409TIP3    H119191   3.457   5.987   3.366  1.2864 -0.1454  0.1405
 6409TIP3    H219192   3.440   6.093   3.259 -2.3741 -0.5665  0.1687
 6410TIP3   OH219193   1.557   0.282   0.182 -0.1636  0.1270  0.2312
 6410TIP3    H119194   1.497   0.349   0.217 -0.0706 -0.2741  1.1845
 6410TIP3    H219195   1.632   0.333   0.149 -1.6603  0.7833 -2.4885
 6411TIP3   OH219196   4.228   6.082   2.919  0.2346 -0.0294  0.4847
 6411TIP3    H119197   4.273   6.024   2.858 -0.3541 -0.7093  0.6875
 6411TIP3    H219198   4.169   6.025   2.968 -0.2024  0.7084  0.8360
 6412TIP3   OH219199   5.118   2.902   2.948 -0.0420  0.2395  0.2267
 6412TIP3    H119200   5.170   2.966   2.899  1.2958  0.4666  1.8796
 6412TIP3    H219201   5.064   2.861   2.881  2.3740 -0.1453 -1.6510
 6413TIP3   OH219202   0.782   5.459   0.523 -0.4919 -0.0838  0.2667
 6413TIP3    H119203   0.743   5.540   0.558 -2.4555 -0.7453 -0.2660
 6413TIP3    H219204   0.771   5.466   0.429 -1.1568 -1.1894  0.2505
 6414TIP3   OH219205   4.874   2.536   5.299 -0.0343  0.0323  0.0021
 6414TIP3    H119206   4.933   2.524   5.224 -0.3613 -0.1678 -0.2303
 6414TIP3    H219207   4.862   2.630   5.305 -1.0250 -0.0015 -1.0204
 6415TIP3   OH219208   2.096   0.407   0.747 -0.3100 -0.6371 -0.3895
 6415TIP3    H119209   2.094   0.375   0.837  0.1818  0.0859 -0.1175
 6415TIP3    H219210   2.153   0.483   0.749 -2.0473  0.7570 -0.8672
 6416TIP3   OH219211   1.009   6.812   2.974 -0.0787 -0.2541 -0.0246
 6416TIP3    H119212   0.932   6.778   3.019 -1.2240  2.0995 -0.0381
 6416TIP3    H219213   1.030   6.746   2.908 -0.3239 -2.2656  1.7892
 6417TIP3   OH219214   3.692   2.638   0.285  0.1908  0.1689  0.3810
 6417TIP3    H119215   3.609   2.658   0.240 -0.4296 -2.0128  0.4378
 6417TIP3    H219216   3.747   2.600   0.217 -0.0370 -1.3093  0.9785
 6418TIP3   OH219217   1.436   2.258   0.472 -0.3020  0.0690  0.3125
 6418TIP3    H119218   1.376   2.245   0.398  0.0870  0.6458 -0.1119
 6418TIP3    H219219   1.440   2.173   0.515  0.8610 -0.7969 -1.3876
 6419TIP3   OH219220   1.489   6.775   3.622 -0.5318  0.4099  0.1446
 6419TIP3    H119221   1.494   6.737   3.710 -0.3622 -0.8339 -0.3670
 6419TIP3    H219222   1.548   6.850   3.625 -1.2815  0.9895  1.3618
 6420TIP3   OH219223   2.683   0.026   4.250 -0.4968 -0.1634  0.1769
 6420TIP3    H119224   2.734   0.040   4.170 -1.9877 -1.4375 -1.0604
 6420TIP3    H219225   2.748   0.007   4.317  0.7150 -0.8903 -1.1502
 6421TIP3   OH219226   0.787   1.491   2.154  0.1382 -0.4498 -0.3531
 6421TIP3    H119227   0.763   1.398   2.148 -0.1160 -0.5583  1.5793
 6421TIP3    H219228   0.704   1.538   2.151 -0.1407 -0.5796  2.3333
 6422TIP3   OH219229   5.784   2.843   4.613 -0.1150 -0.8002  0.4714
 6422TIP3    H119230   5.689   2.839   4.599  0.0308  0.5158 -1.1744
 6422TIP3    H219231   5.818   2.881   4.532  1.6880  0.0120  1.5742
 6423TIP3   OH219232   3.753   5.247   0.036 -0.2522 -0.5659  0.2358
 6423TIP3    H119233   3.710   5.323   0.074  0.6570 -0.6512  1.5026
 6423TIP3    H219234   3.831   5.283  -0.007 -1.8086 -0.3146 -2.6623
 6424TIP3   OH219235   6.005   5.290   0.180 -0.2276 -0.7291 -0.5367
 6424TIP3    H119236   6.086   5.252   0.147 -1.0029  0.0177 -3.6197
 6424TIP3    H219237   5.946   5.215   0.190 -0.2785 -0.8832 -1.9084
 6425TIP3   OH219238   3.507   5.757   2.724  0.5298  0.1233  0.0847
 6425TIP3    H119239   3.495   5.834   2.668  1.4767  0.6152  0.5437
 6425TIP3    H219240   3.418   5.733   2.750  0.1685  0.6261 -0.6452
 6426TIP3   OH219241   1.934   0.229   1.017 -0.1793  0.4042 -0.3021
 6426TIP3    H119242   1.933   0.177   0.937  1.0871  0.1821 -0.1952
 6426TIP3    H219243   1.842   0.251   1.032 -0.3177  1.7174 -2.6156
 6427TIP3   OH219244   6.923   6.700   0.056  0.3076  0.8260 -0.0840
 6427TIP3    H119245   6.987   6.632   0.036  0.4443  0.6326  0.9467
 6427TIP3    H219246   6.939   6.768  -0.010  2.0081  1.0637  0.5032
 6428TIP3   OH219247   4.103   1.478   5.165 -0.1399  0.3876  0.5426
 6428TIP3    H119248   4.042   1.539   5.124  0.8014  0.9172 -0.0988
 6428TIP3    H219249   4.138   1.526   5.240 -0.3684  0.1424  0.8121
 6429TIP3   OH219250   3.268   6.008   4.047 -0.4310 -0.2032  0.1736
 6429TIP3    H119251   3.350   6.056   4.033  0.7276 -1.9240  0.7295
 6429TIP3    H219252   3.212   6.070   4.094  1.5295  0.1793  2.1646
 6430TIP3   OH219253   3.692   5.298   5.334 -0.4695 -0.5754  0.4791
 6430TIP3    H119254   3.675   5.370   5.273 -0.0140 -0.5042  0.4322
 6430TIP3    H219255   3.606   5.260   5.351 -0.4104 -1.8788 -1.7668
 6431TIP3   OH219256   6.447   1.746   1.581 -0.3239  0.1761 -0.0947
 6431TIP3    H119257   6.496   1.663   1.582 -0.2157  0.2257  1.7460
 6431TIP3    H219258   6.382   1.736   1.651  1.0055  2.3736  1.5575
 6432TIP3   OH219259   0.873   1.575   2.661 -0.7151  0.0853  0.2821
 6432TIP3    H119260   0.805   1.598   2.723 -0.8090 -0.1785  0.2760
 6432TIP3    H219261   0.896   1.658   2.618 -1.7337  0.0185 -0.4247
 6433TIP3   OH219262   1.505   2.355   3.210 -0.1394  0.4530  0.0745
 6433TIP3    H119263   1.427   2.299   3.207 -0.9172  1.3499  1.8929
 6433TIP3    H219264   1.561   2.315   3.276  1.1317 -0.3259 -1.3933
 6434TIP3   OH219265   6.994   6.107   3.420 -0.3703  0.3250 -0.3803
 6434TIP3    H119266   6.918   6.152   3.458  0.6984  0.7644  1.3444
 6434TIP3    H219267   6.979   6.112   3.326 -1.3375  2.4979 -0.1870
 6435TIP3   OH219268   2.259   0.419   1.611  0.6464  0.1409 -0.8238
 6435TIP3    H119269   2.289   0.357   1.545  1.7512 -0.3644  0.1033
 6435TIP3    H219270   2.175   0.385   1.641  1.1641 -0.8637 -0.4385
 6436TIP3   OH219271   0.681   1.486   4.980 -0.0217  0.2907 -0.0881
 6436TIP3    H119272   0.732   1.529   4.912  0.5556  1.3725  1.0077
 6436TIP3    H219273   0.597   1.533   4.981 -0.3832 -0.3157 -0.6478
 6437TIP3   OH219274   0.889   6.341   5.856  0.1433 -0.2252 -0.2390
 6437TIP3    H119275   0.889   6.396   5.778  0.3063 -2.3133 -1.7724
 6437TIP3    H219276   0.974   6.359   5.898  0.8425 -0.4348 -1.5346
 6438TIP3   OH219277   2.434   4.311   2.490  0.0671  0.6984 -0.0901
 6438TIP3    H119278   2.391   4.396   2.504  1.1061  1.1009  0.7930
 6438TIP3    H219279   2.371   4.248   2.525 -1.1916  0.9746 -1.7308
 6439TIP3   OH219280   4.844   5.557   4.626 -0.5876 -0.0912 -0.0260
 6439TIP3    H119281   4.816   5.593   4.542 -1.4083  0.9354  0.6608
 6439TIP3    H219282   4.810   5.467   4.626 -0.3102 -0.2101 -0.8995
 6440TIP3   OH219283   1.120   0.414   0.696 -0.1380  0.4538 -0.4329
 6440TIP3    H119284   1.044   0.368   0.660 -1.1319  1.5451  0.2036
 6440TIP3    H219285   1.129   0.380   0.785  0.1932  0.2493 -0.5424
 6441TIP3   OH219286   4.391   4.846   5.032  0.3576  0.3173  0.0516
 6441TIP3    H119287   4.485   4.862   5.030  0.3281  0.4814  0.0202
 6441TIP3    H219288   4.383   4.750   5.039  0.5113  0.1630 -1.5967
 6442TIP3   OH219289   6.695   4.428   2.910 -0.0316 -0.4672  0.3267
 6442TIP3    H119290   6.736   4.476   2.982  0.0937  0.5174 -0.3809
 6442TIP3    H219291   6.724   4.338   2.922  1.0306 -0.0830  0.7709
 6443TIP3   OH219292   0.417   2.155   5.696  0.4660 -0.4973 -0.1508
 6443TIP3    H119293   0.352   2.145   5.627  0.8064  1.5553 -0.8340
 6443TIP3    H219294   0.366   2.182   5.773  0.4493  0.9721 -0.6485
 6444TIP3   OH219295   3.515   0.644   1.679 -0.0466  0.4757 -0.0548
 6444TIP3    H119296   3.562   0.573   1.634 -1.5468 -2.7553  3.0070
 6444TIP3    H219297   3.424   0.635   1.650 -0.7374 -0.6674  2.2298
 6445TIP3   OH219298   2.463   4.983   3.946 -0.2662  0.7154  0.4685
 6445TIP3    H119299   2.409   4.955   3.872  0.1223  1.8709 -0.2791
 6445TIP3    H219300   2.548   5.003   3.908 -0.1753  1.7201  1.1361
 6446TIP3   OH219301   5.273   5.484   4.784 -0.0751 -0.1265 -0.0744
 6446TIP3    H119302   5.230   5.560   4.745 -0.5173 -0.4576 -0.2529
 6446TIP3    H219303   5.200   5.428   4.813  0.2456 -0.2951  0.4164
 6447TIP3   OH219304   1.778   5.024   1.928  0.2972  0.0676 -0.4037
 6447TIP3    H119305   1.701   5.057   1.974 -0.3583 -1.1245 -0.6101
 6447TIP3    H219306   1.853   5.057   1.979 -0.3740 -2.6008  2.6514
 6448TIP3   OH219307   6.586   1.462   0.302  0.3657 -0.2753  0.1322
 6448TIP3    H119308   6.540   1.501   0.228  1.3473 -0.9949 -0.9082
 6448TIP3    H219309   6.671   1.505   0.302  0.0429  0.3802  1.4443
 6449TIP3   OH219310   4.430   0.523   2.933  0.1547 -0.3468  0.1003
 6449TIP3    H119311   4.376   0.460   2.981  0.8247 -1.0353 -0.0313
 6449TIP3    H219312   4.514   0.479   2.921 -0.0913 -0.3696 -2.0111
 6450TIP3   OH219313  -0.008   5.666   2.985  0.0315  0.2925 -0.1530
 6450TIP3    H119314   0.041   5.643   2.906 -0.5084 -0.9630 -0.1440
 6450TIP3    H219315   0.056   5.654   3.056 -0.5383 -2.5046 -0.0185
 6451TIP3   OH219316   3.040   1.607   3.677  0.0135  0.6176 -0.5405
 6451TIP3    H119317   3.052   1.682   3.620  0.4041 -0.3705 -1.7930
 6451TIP3    H219318   3.033   1.645   3.765  0.1806  2.1014 -1.1361
 6452TIP3   OH219319   6.974   3.043   4.840  0.0487 -0.3020  0.1761
 6452TIP3    H119320   7.025   3.103   4.895 -1.7619  0.8589  0.6650
 6452TIP3    H219321   6.925   3.101   4.781 -0.5913 -1.3814 -0.3874
 6453TIP3   OH219322   4.644   0.545   1.455  0.0587  0.1675  0.0491
 6453TIP3    H119323   4.688   0.602   1.519 -0.7700  1.5741 -0.5720
 6453TIP3    H219324   4.672   0.579   1.370 -1.4351  0.5171 -0.3496
 6454TIP3   OH219325   6.868   1.483   1.476  0.1969  0.5895 -0.7602
 6454TIP3    H119326   6.877   1.466   1.569 -2.5986 -1.1812 -0.7135
 6454TIP3    H219327   6.958   1.479   1.442  1.2455  0.9755  1.7388
 6455TIP3   OH219328   2.896   0.236   2.949  0.0119  0.4388 -0.7965
 6455TIP3    H119329   2.833   0.177   2.991  1.4883  0.7390  2.0912
 6455TIP3    H219330   2.940   0.181   2.884  0.2280 -1.2172  0.6833
 6456TIP3   OH219331   6.938   0.629   1.463  0.5235 -0.1107 -0.1958
 6456TIP3    H119332   6.934   0.711   1.414  0.6835  0.1267  0.1799
 6456TIP3    H219333   6.855   0.585   1.444  1.0142 -0.5214 -1.5208
 6457TIP3   OH219334   3.100   0.672   5.026 -0.0455  0.2437  0.4987
 6457TIP3    H119335   3.174   0.684   5.085  0.3187  0.4727  0.0029
 6457TIP3    H219336   3.025   0.663   5.084  0.5181 -1.2393  1.0601
 6458TIP3   OH219337   4.730   3.581   1.252  0.6404 -0.2382 -0.1771
 6458TIP3    H119338   4.794   3.530   1.204  2.2819  0.1140  1.5198
 6458TIP3    H219339   4.764   3.670   1.252  0.9055 -0.2961  1.9005
 6459TIP3   OH219340   4.772   4.222   3.445  0.0522 -0.1113  0.5788
 6459TIP3    H119341   4.827   4.202   3.521 -0.7314 -1.2423  0.8623
 6459TIP3    H219342   4.744   4.137   3.413 -0.2089  0.3939 -0.5583
 6460TIP3   OH219343   2.695   6.245   4.465 -0.1078 -0.7643 -0.6184
 6460TIP3    H119344   2.779   6.290   4.454  0.0135 -1.0415 -0.8382
 6460TIP3    H219345   2.691   6.183   4.392 -0.2200 -1.1843 -0.2600
 6461TIP3   OH219346   2.379   5.360   4.771 -0.2475  0.3860 -0.1923
 6461TIP3    H119347   2.346   5.280   4.731 -0.4905 -0.1554  1.0331
 6461TIP3    H219348   2.428   5.404   4.702 -2.1216  0.3907 -1.5785
 6462TIP3   OH219349   6.544   1.594   3.151  0.2518 -0.2608 -0.3474
 6462TIP3    H119350   6.460   1.559   3.178  0.5135 -1.4140 -0.9286
 6462TIP3    H219351   6.606   1.522   3.165  0.7110 -0.2739 -2.1437
 6463TIP3   OH219352   6.789   0.309   0.228  0.6519 -0.1622  0.0450
 6463TIP3    H119353   6.736   0.268   0.297  1.1466 -0.7239  0.0983
 6463TIP3    H219354   6.729   0.321   0.155  0.1352  0.3776  0.5439
 6464TIP3   OH219355   4.074   2.800   0.398  0.2863  0.5568 -0.2523
 6464TIP3    H119356   4.105   2.880   0.440  0.1822  1.0434 -1.0830
 6464TIP3    H219357   3.991   2.780   0.443  0.8569  0.2816  0.7139
 6465TIP3   OH219358   5.347   1.756   0.636 -0.4935  0.2533 -0.3583
 6465TIP3    H119359   5.398   1.735   0.714 -2.2366  1.4862  1.1942
 6465TIP3    H219360   5.275   1.693   0.637 -0.7658  0.5523 -0.7369
 6466TIP3   OH219361   1.391   2.622   0.852  0.6158  0.2975  0.4775
 6466TIP3    H119362   1.298   2.640   0.866  0.8400  1.9876  0.0160
 6466TIP3    H219363   1.392   2.542   0.798 -0.5979  0.7565 -0.2666
 6467TIP3   OH219364   6.966   4.862   2.706 -0.3827  0.0026 -0.2534
 6467TIP3    H119365   6.947   4.943   2.754 -1.9530 -0.8984  0.7545
 6467TIP3    H219366   7.006   4.891   2.624  2.6712  1.6328  1.6166
 6468TIP3   OH219367   2.275   2.929   4.085  0.2897  0.1778 -0.2194
 6468TIP3    H119368   2.207   2.989   4.054  1.3443  1.5410  0.0047
 6468TIP3    H219369   2.256   2.846   4.040 -3.0648 -0.3458  1.7857
 6469TIP3   OH219370   4.299   1.498   0.468  0.3214  0.1304  0.1876
 6469TIP3    H119371   4.303   1.470   0.377  0.3867 -4.3833  1.3349
 6469TIP3    H219372   4.209   1.482   0.494  0.1904  1.7903  0.8764
 6470TIP3   OH219373   5.340   4.892   0.099 -0.1336  0.0144  0.1601
 6470TIP3    H119374   5.306   4.979   0.117  2.1337  1.3268 -1.3776
 6470TIP3    H219375   5.393   4.902   0.020  1.4773 -2.4029  0.7821
 6471TIP3   OH219376   2.045   1.235   0.360 -0.2211  0.1646 -0.3634
 6471TIP3    H119377   1.952   1.212   0.371 -0.0748 -0.8199 -1.0864
 6471TIP3    H219378   2.091   1.174   0.418  0.0554 -0.1893 -0.9514
 6472TIP3   OH219379   6.755   2.092   4.091 -0.6849 -0.7211  0.3040
 6472TIP3    H119380   6.783   2.053   4.173  0.0852 -2.6602 -0.8307
 6472TIP3    H219381   6.832   2.138   4.058 -1.1189  0.4309  0.8424
 6473TIP3   OH219382   3.355   1.271   4.056 -0.1016 -0.2103  0.0977
 6473TIP3    H119383   3.437   1.310   4.087  0.4507 -0.0019 -1.5579
 6473TIP3    H219384   3.300   1.345   4.034  0.3547 -0.3012 -1.5119
 6474TIP3   OH219385   0.266   0.243   0.747 -0.6907  0.1107 -0.2686
 6474TIP3    H119386   0.321   0.196   0.811 -1.0220 -0.0375 -0.0882
 6474TIP3    H219387   0.206   0.295   0.801 -0.6716  0.3382 -0.4663
 6475TIP3   OH219388   6.052   1.505   4.695  0.0735  0.1445  0.4333
 6475TIP3    H119389   6.036   1.598   4.675 -0.2471  0.0407  0.1913
 6475TIP3    H219390   6.068   1.503   4.789  2.2641  0.7398  0.1308
 6476TIP3   OH219391   2.661   4.708   4.368 -0.2221  0.1167 -0.2057
 6476TIP3    H119392   2.635   4.800   4.361  2.8970  1.1885  0.6205
 6476TIP3    H219393   2.632   4.681   4.455 -0.0687  0.7588  0.0520
 6477TIP3   OH219394   5.824   2.644   0.058  0.2530  0.2421 -0.4557
 6477TIP3    H119395   5.853   2.735   0.057  1.6625 -0.0915  1.6116
 6477TIP3    H219396   5.905   2.594   0.065 -0.5824 -0.9818  1.3050
 6478TIP3   OH219397   3.984   2.665   3.839  0.6357 -0.2161 -0.3488
 6478TIP3    H119398   3.928   2.594   3.807  0.9802 -0.6541  0.0279
 6478TIP3    H219399   3.965   2.738   3.779  1.3961 -1.0755 -1.6814
 6479TIP3   OH219400   6.029   3.831   2.116  0.0015  0.3909  0.2373
 6479TIP3    H119401   6.009   3.810   2.025  1.3172 -0.6008  0.1510
 6479TIP3    H219402   5.943   3.835   2.159 -0.6341  0.7999 -1.0109
 6480TIP3   OH219403   5.283   5.281   1.913 -0.0559  0.2619 -0.0582
 6480TIP3    H119404   5.300   5.206   1.856  0.9687  0.4709 -0.0444
 6480TIP3    H219405   5.335   5.352   1.876  1.4649  0.1335  1.6889
 6481TIP3   OH219406   6.430   6.255   5.479  0.3043  0.2953 -0.0320
 6481TIP3    H119407   6.409   6.170   5.518 -1.7451  0.5953 -0.3900
 6481TIP3    H219408   6.393   6.251   5.391 -0.8560  1.9299  0.3359
 6482TIP3   OH219409   6.185   3.722   4.405  0.0733  0.0312  0.2206
 6482TIP3    H119410   6.090   3.725   4.413 -0.1249 -2.1379 -0.6717
 6482TIP3    H219411   6.206   3.788   4.339 -1.4461 -2.7031 -3.3978
 6483TIP3   OH219412   2.089   5.816   3.526  0.3298  0.1451  0.3915
 6483TIP3    H119413   2.005   5.850   3.556  0.5081  0.8155  0.1478
 6483TIP3    H219414   2.148   5.828   3.600  0.2768 -0.0916  0.4739
 6484TIP3   OH219415   6.941   6.275   0.558  0.0934 -0.0780 -0.0962
 6484TIP3    H119416   6.850   6.262   0.529 -0.6997  0.9829  1.7394
 6484TIP3    H219417   6.940   6.250   0.650  1.9271 -0.9701 -0.2789
 6485TIP3   OH219418   6.328   1.720   1.827  0.0892  0.6880  0.5349
 6485TIP3    H119419   6.253   1.776   1.851  0.3938  0.1815  2.8579
 6485TIP3    H219420   6.289   1.635   1.808 -0.0001  0.6742  0.7861
 6486TIP3   OH219421   4.807   2.286   5.394 -0.4374  0.0797  0.1805
 6486TIP3    H119422   4.830   2.375   5.369  0.5381 -0.2098 -0.0308
 6486TIP3    H219423   4.861   2.231   5.337 -1.2923 -0.6529  0.0626
 6487TIP3   OH219424   4.222   0.142   2.791 -0.1550  0.3404  0.8407
 6487TIP3    H119425   4.170   0.128   2.712  0.5390  1.2275  0.2023
 6487TIP3    H219426   4.259   0.056   2.810  2.2141  0.6518 -1.6769
 6488TIP3   OH219427   1.724   5.425   4.831 -0.6043  0.2053 -0.8761
 6488TIP3    H119428   1.724   5.346   4.884 -0.2477  1.0065  0.3674
 6488TIP3    H219429   1.632   5.446   4.818 -0.7029 -0.5245 -1.4060
 6489TIP3   OH219430   5.535   0.356   2.941  0.4815  0.0402 -0.3789
 6489TIP3    H119431   5.456   0.405   2.964  0.6526 -0.4070  1.2664
 6489TIP3    H219432   5.501   0.273   2.907  0.2380  0.0586 -0.1858
 6490TIP3   OH219433   6.484   6.038   1.823 -0.5511 -0.3051  0.3268
 6490TIP3    H119434   6.425   6.028   1.898 -1.4587  2.2143  0.0159
 6490TIP3    H219435   6.505   5.948   1.798 -0.9348 -1.2303  3.0148
 6491TIP3   OH219436   6.276   0.077   3.033  0.2469  0.4740  0.2075
 6491TIP3    H119437   6.217   0.096   2.960  0.4045  0.1403 -0.0138
 6491TIP3    H219438   6.313  -0.009   3.012 -0.1628  0.1006  0.9928
 6492TIP3   OH219439   4.111   6.231   3.370  0.0396  0.3593 -0.2367
 6492TIP3    H119440   4.111   6.153   3.315 -0.3782  0.0601  0.1709
 6492TIP3    H219441   4.021   6.264   3.364 -0.6985 -0.9622  1.9982
 6493TIP3   OH219442   6.571   1.858   1.117 -0.8158  0.1021 -0.1347
 6493TIP3    H119443   6.580   1.928   1.181  0.3382  1.2171 -1.4550
 6493TIP3    H219444   6.585   1.778   1.167  0.9290  0.9855  0.8558
 6494TIP3   OH219445   1.820   2.796   2.996 -0.2400 -0.3775  0.0229
 6494TIP3    H119446   1.735   2.839   2.995 -0.1979 -0.0390  2.6879
 6494TIP3    H219447   1.871   2.840   2.928 -2.0470 -0.3570 -1.3661
 6495TIP3   OH219448   1.921   6.675   1.017  0.0770  0.2319  0.0432
 6495TIP3    H119449   1.919   6.690   1.112  0.4502 -0.6953  0.2136
 6495TIP3    H219450   1.843   6.623   1.000 -0.1846  0.7072 -0.2237
 6496TIP3   OH219451   5.735   3.132   1.875  0.0982 -0.0647  0.2719
 6496TIP3    H119452   5.828   3.120   1.859  0.1471  0.1513  0.3973
 6496TIP3    H219453   5.718   3.089   1.959  0.0799 -0.1313  0.2338
 6497TIP3   OH219454   0.641   0.996   3.798 -0.0706 -0.2641 -0.1638
 6497TIP3    H119455   0.676   0.907   3.804 -0.6184 -0.4415  0.5095
 6497TIP3    H219456   0.686   1.043   3.867 -1.9166 -0.7678  1.4542
 6498TIP3   OH219457   2.300   4.711   1.586  0.7686 -0.0752  0.1564
 6498TIP3    H119458   2.369   4.646   1.603  1.2464  0.2642 -0.4460
 6498TIP3    H219459   2.222   4.673   1.625  1.3454 -0.3623  1.0784
 6499TIP3   OH219460   1.550   2.930   1.200  0.7139  1.2853  0.3929
 6499TIP3    H119461   1.554   2.835   1.188 -0.2802  1.0585  1.5713
 6499TIP3    H219462   1.578   2.967   1.117  1.4452 -0.0402  0.0332
 6500TIP3   OH219463   6.517   0.817   1.874 -0.5830 -0.0428  0.0104
 6500TIP3    H119464   6.450   0.772   1.925 -0.8027  1.2003  0.8761
 6500TIP3    H219465   6.474   0.898   1.845  0.5076  0.7653  0.5656
 6501TIP3   OH219466   4.066   4.272   3.025 -0.3471 -0.1550 -0.1325
 6501TIP3    H119467   4.114   4.314   2.953 -0.1336 -2.5952 -1.5149
 6501TIP3    H219468   4.135   4.242   3.085 -0.2228 -1.7075 -1.0079
 6502TIP3   OH219469   3.913   1.848   1.651 -0.0134  0.0367  0.5317
 6502TIP3    H119470   3.952   1.877   1.734 -1.5032  0.2411  1.1935
 6502TIP3    H219471   3.844   1.912   1.633  0.7652  0.4105 -1.2710
 6503TIP3   OH219472   7.209   0.543   1.651  0.3687  0.3801 -0.2583
 6503TIP3    H119473   7.147   0.604   1.692  0.6365  0.5564 -0.1114
 6503TIP3    H219474   7.170   0.524   1.566 -0.3321 -0.1978  0.1752
 6504TIP3   OH219475   0.147   5.623   0.691  0.0208  0.3528 -0.1471
 6504TIP3    H119476   0.071   5.590   0.642  0.0271 -2.2178  1.3618
 6504TIP3    H219477   0.217   5.629   0.626 -0.9475  0.9003 -1.1843
 6505TIP3   OH219478   5.503   1.008   1.737 -0.6995  0.1486 -0.0045
 6505TIP3    H119479   5.525   0.967   1.654 -1.0513 -2.0949  0.9408
 6505TIP3    H219480   5.423   1.057   1.719  0.3441  1.4045 -1.4376
 6506TIP3   OH219481   6.305   1.919   2.081 -0.6346  0.2264 -0.0753
 6506TIP3    H119482   6.270   1.983   2.144  0.6070  0.1164  0.7519
 6506TIP3    H219483   6.356   1.858   2.134  1.4613  0.8207 -1.3038
 6507TIP3   OH219484   0.389   3.351   3.454  0.7324 -0.0755  0.1097
 6507TIP3    H119485   0.332   3.368   3.529  1.3003 -0.9348  0.7594
 6507TIP3    H219486   0.365   3.263   3.425  0.8369  0.0701 -0.4255
 6508TIP3   OH219487   1.615   5.635   0.663  0.1550 -0.1500 -0.3562
 6508TIP3    H119488   1.685   5.694   0.693  1.2906 -0.8683 -1.4828
 6508TIP3    H219489   1.577   5.600   0.743 -0.8143  2.3453  0.3803
 6509TIP3   OH219490   1.451   0.354   1.390 -0.0260 -0.0357 -0.4552
 6509TIP3    H119491   1.499   0.274   1.368  0.0837  0.5480 -2.5335
 6509TIP3    H219492   1.519   0.415   1.417  0.2748  0.3074 -1.9116
 6510TIP3   OH219493   4.335   1.770   5.721  0.3972  0.4643 -0.0713
 6510TIP3    H119494   4.359   1.678   5.719 -0.4760  0.2418 -0.9902
 6510TIP3    H219495   4.409   1.814   5.677 -0.1278 -0.0502 -1.5517
 6511TIP3   OH219496   1.380   5.402   2.946 -0.5030  0.5210 -0.2491
 6511TIP3    H119497   1.442   5.332   2.966 -2.6529 -1.7108 -0.8174
 6511TIP3    H219498   1.391   5.465   3.017  1.3921 -0.4915  0.4258
 6512TIP3   OH219499   5.082   6.353   2.649  0.0735 -0.1957  0.4660
 6512TIP3    H119500   5.069   6.283   2.712  1.6900 -0.7488  0.2212
 6512TIP3    H219501   5.093   6.432   2.702  0.7170 -0.5446  0.8572
 6513TIP3   OH219502   4.389   2.303   0.062 -0.5851  0.1652  0.2743
 6513TIP3    H119503   4.459   2.349   0.015 -0.6738 -0.1221 -0.1388
 6513TIP3    H219504   4.359   2.236   0.001 -1.6427  0.6785  0.2109
 6514TIP3   OH219505   1.727   4.274   1.116  0.3523 -0.1040  0.3040
 6514TIP3    H119506   1.811   4.229   1.109 -0.0266 -0.7344 -0.4266
 6514TIP3    H219507   1.672   4.231   1.050 -1.1393 -1.0575  2.0676
 6515TIP3   OH219508   1.289   0.951   0.774  0.3886 -0.0186  0.2462
 6515TIP3    H119509   1.278   0.881   0.839  0.1856 -1.1777 -1.0037
 6515TIP3    H219510   1.200   0.982   0.758  0.6084  1.8115  2.0944
 6516TIP3   OH219511   4.424   0.027   3.026 -0.2943 -0.4998 -0.3095
 6516TIP3    H119512   4.394  -0.035   2.959 -1.0151  0.0554 -0.5219
 6516TIP3    H219513   4.368   0.010   3.102 -1.5390  0.8645 -0.8681
 6517TIP3   OH219514   0.262   0.484   4.459  0.3939  0.1335 -0.2033
 6517TIP3    H119515   0.296   0.409   4.507 -0.3540 -0.5104 -0.6669
 6517TIP3    H219516   0.167   0.475   4.464  0.2904  0.1255 -1.6811
 6518TIP3   OH219517   6.099   6.606   5.150  0.2502 -0.7919 -0.6480
 6518TIP3    H119518   6.018   6.556   5.140  0.2847 -0.5765 -2.2439
 6518TIP3    H219519   6.109   6.616   5.245 -1.3547 -1.1870 -0.4001
 6519TIP3   OH219520   5.002   2.880   0.739 -0.6897 -0.2464  0.3114
 6519TIP3    H119521   5.074   2.841   0.789 -0.7897  0.5742  1.1241
 6519TIP3    H219522   4.933   2.815   0.743 -1.0038  0.1381  2.0180
 6520TIP3   OH219523   6.882   1.473   1.777 -0.2473 -0.0325 -0.1150
 6520TIP3    H119524   6.877   1.528   1.855  1.0516 -0.3216  0.1905
 6520TIP3    H219525   6.969   1.435   1.780 -0.3226 -0.3686 -1.5019
 6521TIP3   OH219526   1.577   0.508   2.725  0.5800  0.0591 -0.2180
 6521TIP3    H119527   1.499   0.526   2.776  1.2360 -1.1056  1.2823
 6521TIP3    H219528   1.598   0.591   2.682 -1.1992  0.4988 -0.3020
 6522TIP3   OH219529   1.337   4.311   3.484 -0.4056  0.4890 -0.0736
 6522TIP3    H119530   1.358   4.224   3.518 -1.2927 -0.0089 -0.7365
 6522TIP3    H219531   1.350   4.370   3.558 -1.6654 -0.4643  0.9577
 6523TIP3   OH219532   4.490   4.512   0.250 -0.0135  0.2425  0.0770
 6523TIP3    H119533   4.518   4.569   0.322  0.6175 -0.5565  0.4844
 6523TIP3    H219534   4.548   4.534   0.177  0.7493 -0.4004  0.4741
 6524TIP3   OH219535   5.828   3.007   5.141 -0.1218 -0.1171 -0.8894
 6524TIP3    H119536   5.887   3.064   5.191  0.9584 -0.1728 -2.0380
 6524TIP3    H219537   5.747   3.058   5.133 -0.2190 -0.0005  0.6509
 6525TIP3   OH219538   0.465   3.178   0.655  0.2025 -0.7377 -0.2252
 6525TIP3    H119539   0.529   3.206   0.591 -0.5084 -0.8240 -0.9976
 6525TIP3    H219540   0.500   3.207   0.739  0.0864  1.3683 -0.8563
 6526TIP3   OH219541   3.173   5.582   5.011 -0.2258 -0.8108 -0.7349
 6526TIP3    H119542   3.155   5.654   4.950  0.3350 -0.0341 -0.0154
 6526TIP3    H219543   3.258   5.604   5.049 -1.2314 -0.4253  1.4522
 6527TIP3   OH219544   1.539   3.502   0.494 -0.8068  0.2617  0.5494
 6527TIP3    H119545   1.611   3.439   0.488  0.9713  1.8727  2.8579
 6527TIP3    H219546   1.556   3.565   0.424 -0.8352 -0.1610  0.1579
 6528TIP3   OH219547   3.606   1.757   0.128 -0.7603  0.2781  0.1062
 6528TIP3    H119548   3.606   1.664   0.104 -0.7761 -0.4686  2.6755
 6528TIP3    H219549   3.529   1.793   0.084 -1.5859 -1.2688  0.2077
 6529TIP3   OH219550   2.236   3.032   1.624 -0.3965 -0.6282 -0.2533
 6529TIP3    H119551   2.305   3.015   1.689  0.6329  1.5252 -0.6683
 6529TIP3    H219552   2.254   2.970   1.553  1.0797 -0.2012 -0.2899
 6530TIP3   OH219553   1.332   5.939   3.066  0.0710  0.2147  0.1229
 6530TIP3    H119554   1.426   5.921   3.071  0.1362  0.8897  2.0687
 6530TIP3    H219555   1.298   5.918   3.153 -1.4474  0.7624 -0.2916
 6531TIP3   OH219556   6.919   2.145   2.006 -0.4503 -0.2628  0.4830
 6531TIP3    H119557   6.919   2.088   1.929  1.2942 -0.0130  0.2448
 6531TIP3    H219558   7.012   2.160   2.023 -0.7777 -0.6152  2.8658
 6532TIP3   OH219559   7.158   1.826   4.758  0.0176  0.4233 -0.4708
 6532TIP3    H119560   7.187   1.779   4.680  0.3081 -0.1671 -0.0155
 6532TIP3    H219561   7.117   1.906   4.724 -0.2900 -0.0507 -1.2489
 6533TIP3   OH219562   3.679   0.801   0.337  0.1581 -0.2702  0.2946
 6533TIP3    H119563   3.734   0.785   0.413  0.9488 -0.5385 -0.3222
 6533TIP3    H219564   3.672   0.897   0.332 -0.6201 -0.2671  1.1956
 6534TIP3   OH219565   1.453   3.337   1.458  0.0628  0.4181 -0.3942
 6534TIP3    H119566   1.468   3.308   1.368 -1.0659  0.3401 -0.5645
 6534TIP3    H219567   1.386   3.278   1.492 -0.1941  1.0343  0.1977
 6535TIP3   OH219568   2.085   6.378   0.346 -0.1327  0.0875  0.2562
 6535TIP3    H119569   2.073   6.365   0.440 -0.9379 -1.0097  0.0258
 6535TIP3    H219570   2.004   6.345   0.307  0.0794  0.7828 -0.8091
 6536TIP3   OH219571   4.057   1.762   2.521  0.1380 -0.0451 -0.0624
 6536TIP3    H119572   3.996   1.690   2.534  0.6543 -0.7662 -1.4691
 6536TIP3    H219573   4.008   1.827   2.471 -0.3976  0.7194  1.3925
 6537TIP3   OH219574   5.327   1.706   3.841  0.1590  0.1899  0.4472
 6537TIP3    H119575   5.418   1.677   3.837  0.3649  0.6050  1.5759
 6537TIP3    H219576   5.329   1.782   3.899 -0.3991  2.3297 -2.1443
 6538TIP3   OH219577   1.297   1.559   5.188  0.2807  0.3055 -0.0164
 6538TIP3    H119578   1.339   1.639   5.218  1.2728  0.1954 -1.0260
 6538TIP3    H219579   1.293   1.569   5.092 -2.9765  0.7723  0.0503
 6539TIP3   OH219580   6.813   3.437   4.858 -0.1023 -0.0792 -0.0522
 6539TIP3    H119581   6.890   3.418   4.912  0.6525  1.2527 -0.6279
 6539TIP3    H219582   6.823   3.379   4.782 -0.5349 -1.0786  0.6316
 6540TIP3   OH219583   5.208   0.383   3.717  0.2695 -0.4004  0.0178
 6540TIP3    H119584   5.241   0.379   3.627  0.9151  1.4869  0.1243
 6540TIP3    H219585   5.125   0.335   3.714  0.2289 -0.2750 -1.6118
 6541TIP3   OH219586   0.068   5.373   0.462 -0.2141  0.2063 -0.1130
 6541TIP3    H119587   0.135   5.323   0.416 -1.1633 -0.7787 -0.4686
 6541TIP3    H219588   0.086   5.358   0.555  2.5542  3.2996  0.0244
 6542TIP3   OH219589   2.734   6.688   3.179 -0.1410 -0.0098 -0.0905
 6542TIP3    H119590   2.656   6.641   3.207 -2.2112  1.3982 -2.8935
 6542TIP3    H219591   2.712   6.780   3.193  0.2571  0.5055 -2.3795
 6543TIP3   OH219592   2.383   5.153   5.373 -0.3577  0.1991  0.4469
 6543TIP3    H119593   2.305   5.121   5.327 -0.2320 -0.1008  0.4418
 6543TIP3    H219594   2.368   5.247   5.382 -0.7583  0.1329  0.5154
 6544TIP3   OH219595   4.228   4.669   0.174  0.6009 -0.7829  0.4350
 6544TIP3    H119596   4.218   4.739   0.238 -0.5659 -2.0331  1.7007
 6544TIP3    H219597   4.317   4.636   0.189  0.8283 -0.1846  0.4516
 6545TIP3   OH219598   0.978   2.738   2.204  0.1599  0.1257 -0.0306
 6545TIP3    H119599   1.004   2.804   2.139 -0.4280 -0.4765 -0.9051
 6545TIP3    H219600   0.900   2.775   2.245 -0.1508 -0.0049 -0.4973
 6546TIP3   OH219601   2.688   2.167   5.219 -0.0954 -0.2477  0.0543
 6546TIP3    H119602   2.756   2.204   5.163  1.1393  1.3217  2.3924
 6546TIP3    H219603   2.614   2.227   5.211 -0.5075 -0.8677 -0.9861
 6547TIP3   OH219604   3.521   2.902   4.651 -0.0551 -0.4722  0.1338
 6547TIP3    H119605   3.458   2.973   4.641  0.1267 -0.2279  0.6639
 6547TIP3    H219606   3.607   2.944   4.642  0.0875 -0.4039  1.5520
 6548TIP3   OH219607   0.559   5.356   1.155 -0.0060  0.1467 -0.6486
 6548TIP3    H119608   0.593   5.422   1.095 -0.2794  0.4311 -0.4933
 6548TIP3    H219609   0.532   5.405   1.232  0.7738 -0.2673 -0.0919
 6549TIP3   OH219610   6.408   5.456   0.133 -0.3140  0.1301  0.0902
 6549TIP3    H119611   6.374   5.460   0.223  0.5171  0.5686  0.3907
 6549TIP3    H219612   6.465   5.379   0.133  1.0619  1.1237  0.4377
 6550TIP3   OH219613   0.815   5.860   5.216 -0.1267  0.2450  0.2655
 6550TIP3    H119614   0.791   5.789   5.156 -1.8807  0.3916  0.7477
 6550TIP3    H219615   0.786   5.829   5.302 -1.5743  1.8048  0.3848
 6551TIP3   OH219616   5.087   3.699   1.315  0.3801 -0.6426 -0.1496
 6551TIP3    H119617   5.027   3.770   1.338  1.1605  0.9400 -2.6304
 6551TIP3    H219618   5.042   3.652   1.245  0.6296 -1.5460  0.2851
 6552TIP3   OH219619   1.614   0.017   2.781  0.4299  0.0699  0.5436
 6552TIP3    H119620   1.533  -0.018   2.817  0.6028 -2.2224 -1.1001
 6552TIP3    H219621   1.610   0.111   2.799 -1.2723 -0.3784  2.9137
 6553TIP3   OH219622   5.372   4.004   1.430 -0.0049 -0.1848  0.4131
 6553TIP3    H119623   5.282   4.037   1.438  0.3615  2.1445 -3.1365
 6553TIP3    H219624   5.370   3.946   1.354  2.0058  2.8568 -2.2279
 6554TIP3   OH219625   2.482   4.353   3.601 -0.0839  0.4251  0.4945
 6554TIP3    H119626   2.418   4.424   3.592 -0.0265  0.3278 -0.9971
 6554TIP3    H219627   2.455   4.288   3.536  2.0050  0.7891 -0.8382
 6555TIP3   OH219628   4.664   2.208   3.724  0.5730 -0.0418  0.0675
 6555TIP3    H119629   4.641   2.296   3.752  0.3891  0.2530 -0.9505
 6555TIP3    H219630   4.583   2.174   3.684  0.8456 -0.4015 -0.1867
 6556TIP3   OH219631   0.710   1.406   4.071 -0.1177 -0.3131 -0.1191
 6556TIP3    H119632   0.651   1.476   4.043 -1.0889 -0.5052  1.2887
 6556TIP3    H219633   0.701   1.404   4.166  1.1098 -1.3036  0.0071
 6557TIP3   OH219634   3.657   6.023   3.815  0.1091  0.7132 -0.0954
 6557TIP3    H119635   3.579   6.078   3.807  0.3711  1.1420  0.1985
 6557TIP3    H219636   3.723   6.068   3.762 -0.4593 -0.8763 -2.2765
 6558TIP3   OH219637   4.914   2.425   4.750  0.3235  0.5964 -0.0664
 6558TIP3    H119638   4.823   2.395   4.741  0.8421 -0.6672 -1.4398
 6558TIP3    H219639   4.962   2.349   4.783  0.9457  1.1884  0.4384
 6559TIP3   OH219640   4.426   6.475   3.210  0.9652 -0.3407 -0.0061
 6559TIP3    H119641   4.428   6.390   3.165  1.9688 -0.8160  0.8841
 6559TIP3    H219642   4.333   6.491   3.227  0.7208 -0.9947 -0.6762
 6560TIP3   OH219643   5.719   1.934   1.330  0.1051  0.0653  0.2804
 6560TIP3    H119644   5.811   1.909   1.329  0.2000  0.2541 -2.1453
 6560TIP3    H219645   5.714   2.010   1.271 -1.7697 -0.7970 -0.7825
 6561TIP3   OH219646   1.046   3.436   2.431 -0.2707 -0.3047 -0.5176
 6561TIP3    H119647   0.958   3.467   2.410 -1.0372 -1.4373  0.7807
 6561TIP3    H219648   1.032   3.368   2.498  1.6177 -0.2056  0.0524
 6562TIP3   OH219649   3.796   1.129   2.417 -0.7119  0.0076  0.0066
 6562TIP3    H119650   3.819   1.050   2.368  0.5835  0.1845  0.3044
 6562TIP3    H219651   3.773   1.193   2.349  0.0374 -0.0688 -0.3242
 6563TIP3   OH219652   3.504   1.038   4.044 -0.2110  0.3608  0.0613
 6563TIP3    H119653   3.454   1.108   4.084 -1.2052 -0.7766  0.8893
 6563TIP3    H219654   3.470   1.030   3.955 -1.8974 -0.6972  0.7496
 6564TIP3   OH219655   3.476   5.958   0.998  0.0639 -0.3356 -0.4561
 6564TIP3    H119656   3.469   5.975   0.904  1.6752  0.3769 -0.4830
 6564TIP3    H219657   3.401   6.004   1.036  1.4696  2.6942 -1.0552
 6565TIP3   OH219658   7.143   6.350   4.658  0.0214  0.6667  0.3556
 6565TIP3    H119659   7.204   6.299   4.605 -1.1688  1.6154 -2.0621
 6565TIP3    H219660   7.073   6.288   4.679 -0.5833  0.8210 -1.1108
 6566TIP3   OH219661   4.171   4.925   3.133 -0.2930 -0.3568  0.6588
 6566TIP3    H119662   4.161   4.875   3.215  0.1860 -0.8089  0.4516
 6566TIP3    H219663   4.084   4.922   3.092 -0.5529 -0.0663  1.1814
 6567TIP3   OH219664   6.555   5.280   3.722 -0.3340 -0.1458 -0.1794
 6567TIP3    H119665   6.481   5.219   3.723 -0.5661  0.0834 -1.5121
 6567TIP3    H219666   6.609   5.254   3.797 -1.0292 -1.2260 -0.0358
 6568TIP3   OH219667   4.697   5.796   5.211  0.3868 -0.6322 -0.1343
 6568TIP3    H119668   4.638   5.736   5.166  1.2496 -1.0043 -0.7734
 6568TIP3    H219669   4.749   5.837   5.142 -0.0341  0.7065  0.3039
 6569TIP3   OH219670   6.314   6.098   4.832 -0.4894  0.7074  0.3762
 6569TIP3    H119671   6.354   6.154   4.900 -2.0277  1.6643  0.5367
 6569TIP3    H219672   6.358   6.126   4.751 -0.1267  1.0443  0.6792
 6570TIP3   OH219673   6.127   5.195   2.748 -0.5200  0.2303  0.4454
 6570TIP3    H119674   6.172   5.240   2.677 -1.6014  0.3706 -0.1678
 6570TIP3    H219675   6.191   5.132   2.780 -0.6591 -1.2670 -1.9880
 6571TIP3   OH219676   0.166   1.501   1.159  0.5756 -0.0744  0.3046
 6571TIP3    H119677   0.143   1.412   1.186 -1.5862  0.1228 -0.7008
 6571TIP3    H219678   0.227   1.488   1.086 -0.8862 -0.8340 -0.8546
 6572TIP3   OH219679   1.022   4.633   0.162 -0.5014 -0.5397 -0.2651
 6572TIP3    H119680   1.113   4.662   0.170 -0.2233 -1.2471 -0.7620
 6572TIP3    H219681   0.999   4.650   0.070 -1.5903  1.6237  0.3368
 6573TIP3   OH219682   0.737   1.213   2.125 -0.0863 -0.6662 -0.5868
 6573TIP3    H119683   0.696   1.159   2.192 -0.6701  0.5587  0.0704
 6573TIP3    H219684   0.830   1.191   2.130  0.0397  0.1439  1.3559
 6574TIP3   OH219685   2.720   0.834   1.127  0.1267 -0.0309  0.0048
 6574TIP3    H119686   2.680   0.846   1.213  0.6636  0.2794  0.2158
 6574TIP3    H219687   2.757   0.920   1.105  2.4520 -0.7779  0.7242
 6575TIP3   OH219688   5.477   3.137   2.168  0.1504 -0.0296  0.4734
 6575TIP3    H119689   5.471   3.162   2.076 -0.0859  0.5897  0.6512
 6575TIP3    H219690   5.402   3.079   2.182 -0.4137  0.6913  0.5198
 6576TIP3   OH219691   2.639   5.788   4.093  0.1459 -0.1121  0.2931
 6576TIP3    H119692   2.555   5.824   4.122  1.1182  1.4427  1.2889
 6576TIP3    H219693   2.614   5.715   4.037 -1.8717 -0.2477  1.2445
 6577TIP3   OH219694   6.842   3.471   2.586  0.3221 -0.6148  0.2042
 6577TIP3    H119695   6.814   3.528   2.514  0.2289 -2.0687 -0.9484
 6577TIP3    H219696   6.880   3.395   2.543  0.4614 -1.4301  1.7139
 6578TIP3   OH219697   6.159   4.574   0.772  0.3421  0.4353 -0.4930
 6578TIP3    H119698   6.190   4.524   0.848  0.3477  0.0960 -0.7149
 6578TIP3    H219699   6.070   4.599   0.795 -0.6373 -1.9371 -1.4314
 6579TIP3   OH219700   2.716   4.096   2.106 -0.2901  0.2457 -0.2501
 6579TIP3    H119701   2.657   4.021   2.110  2.3158 -1.9897 -0.1500
 6579TIP3    H219702   2.718   4.129   2.196 -0.6138 -0.3260 -0.0224
 6580TIP3   OH219703   3.001   1.722   4.914  0.6454  0.1700  0.0064
 6580TIP3    H119704   2.996   1.643   4.967  1.7464 -0.0420 -0.1928
 6580TIP3    H219705   2.995   1.794   4.977 -1.0062 -0.0297  0.1336
 6581TIP3   OH219706   6.867   0.647   5.427 -0.0104  0.9437 -0.1797
 6581TIP3    H119707   6.884   0.678   5.338  1.6625 -0.1967 -0.3087
 6581TIP3    H219708   6.953   0.626   5.462 -0.7820 -0.5050  0.9984
 6582TIP3   OH219709   4.112   6.345   3.665 -0.1704 -0.1938 -0.0386
 6582TIP3    H119710   4.079   6.259   3.639 -1.5990  0.4077 -0.3124
 6582TIP3    H219711   4.168   6.328   3.741  0.2788 -1.4524 -0.6322
 6583TIP3   OH219712   5.455   0.283   5.040 -0.4382  0.5971 -0.2172
 6583TIP3    H119713   5.415   0.303   4.955 -0.4598 -1.2031 -0.6779
 6583TIP3    H219714   5.547   0.309   5.029 -0.0824 -0.9302 -1.3609
 6584TIP3   OH219715   3.399   4.251   1.529  0.2916 -0.0058  0.4447
 6584TIP3    H119716   3.412   4.182   1.464  1.1809 -0.8799  1.4877
 6584TIP3    H219717   3.446   4.327   1.494  1.3135 -0.6627  0.3459
 6585TIP3   OH219718   7.202   5.278   5.548  0.1779  0.2430  0.7250
 6585TIP3    H119719   7.163   5.206   5.598 -0.9537  0.0594 -0.3887
 6585TIP3    H219720   7.158   5.356   5.581  2.5432  0.7308  3.1080
 6586TIP3   OH219721   2.038   4.275   0.991  0.8474 -0.5990  0.3377
 6586TIP3    H119722   2.124   4.262   1.029  0.7609 -0.3331  0.6254
 6586TIP3    H219723   2.011   4.362   1.021 -0.2318 -1.3458  1.6289
 6587TIP3   OH219724   3.082   5.114   4.321  0.7407 -0.3049  0.1579
 6587TIP3    H119725   3.032   5.106   4.403  1.1294 -1.9299  0.2650
 6587TIP3    H219726   3.040   5.052   4.261  1.1757  0.0440 -0.5141
 6588TIP3   OH219727   0.481   6.078   2.649  0.4962  0.5244  0.3424
 6588TIP3    H119728   0.541   6.135   2.601  1.1677  0.0552  0.6110
 6588TIP3    H219729   0.504   6.091   2.741 -0.2287  0.7977  0.4856
 6589TIP3   OH219730   5.978   3.512   3.017 -0.2128 -0.5107 -0.2001
 6589TIP3    H119731   6.015   3.463   3.091 -1.2416  0.6092  1.1006
 6589TIP3    H219732   6.004   3.602   3.032 -0.8876 -0.1850 -0.9095
 6590TIP3   OH219733   3.579   0.400   1.003  0.7864  0.3064 -0.5715
 6590TIP3    H119734   3.546   0.367   0.919 -0.4317 -0.2184  0.0984
 6590TIP3    H219735   3.639   0.331   1.033  2.0816  0.9836 -1.4967
 6591TIP3   OH219736   1.146   2.192   0.923 -0.0292  0.3527  0.3906
 6591TIP3    H119737   1.154   2.261   0.857 -1.4466  0.7616  0.6180
 6591TIP3    H219738   1.093   2.124   0.881 -0.2825  0.2721  0.8334
 6592TIP3   OH219739   0.964   2.750   2.930 -0.3462 -0.2078 -0.4863
 6592TIP3    H119740   0.936   2.699   3.006 -0.3187  1.8420  0.9929
 6592TIP3    H219741   0.943   2.695   2.855 -2.5732 -1.3698  0.8721
 6593TIP3   OH219742   2.008   3.572   5.485 -0.1688  0.1090 -0.3048
 6593TIP3    H119743   2.057   3.492   5.467 -0.1975  0.0031  0.0784
 6593TIP3    H219744   1.995   3.612   5.399 -0.2501 -0.3549 -0.5130
 6594TIP3   OH219745   5.679   6.714   2.163 -0.6870  0.3247  0.6898
 6594TIP3    H119746   5.711   6.768   2.091 -1.6054  0.5832  0.4573
 6594TIP3    H219747   5.666   6.627   2.123 -1.0564  0.4313  0.5682
 6595TIP3   OH219748   6.738   0.892   1.191 -0.0331 -0.1099 -0.2090
 6595TIP3    H119749   6.661   0.949   1.203 -0.3097 -0.6417  0.6759
 6595TIP3    H219750   6.719   0.843   1.111 -1.9472 -2.2025  1.3857
 6596TIP3   OH219751   2.406   0.651   3.673 -0.3955  0.5873  0.3310
 6596TIP3    H119752   2.434   0.710   3.603 -1.2453  0.0578 -0.4731
 6596TIP3    H219753   2.361   0.580   3.628 -0.6264  0.0404  1.3947
 6597TIP3   OH219754   3.648   1.278   1.303  0.0231  0.0979 -0.7735
 6597TIP3    H119755   3.723   1.234   1.343 -1.0788 -2.5499 -1.4303
 6597TIP3    H219756   3.622   1.344   1.367  0.8190 -1.2349  1.0067
 6598TIP3   OH219757   0.618   6.477   0.111  0.2092  0.1970 -0.2991
 6598TIP3    H119758   0.637   6.523   0.030 -0.3002 -1.6175 -1.5170
 6598TIP3    H219759   0.541   6.521   0.147 -0.3425  0.2458 -1.4971
 6599TIP3   OH219760   5.287   2.660   4.946 -0.2442  0.5360  0.2859
 6599TIP3    H119761   5.367   2.608   4.938  0.6859  1.7926  1.0389
 6599TIP3    H219762   5.285   2.712   4.866 -2.1748 -1.8927 -1.3822
 6600TIP3   OH219763   2.371   6.602   2.123 -0.3990  0.1994  0.1768
 6600TIP3    H119764   2.359   6.610   2.217 -0.5721  0.4076  0.1390
 6600TIP3    H219765   2.439   6.667   2.102  1.0214 -1.1475  0.4276
 6601TIP3   OH219766   2.699   4.713   0.662 -0.3083 -0.4464 -0.1676
 6601TIP3    H119767   2.687   4.797   0.618 -0.4073  0.6027  1.7650
 6601TIP3    H219768   2.715   4.651   0.591  1.9180  1.5562 -1.5658
 6602TIP3   OH219769   1.239   2.192   3.963  0.4649 -0.3199 -0.3879
 6602TIP3    H119770   1.291   2.267   3.991  0.0730 -0.8412  1.9059
 6602TIP3    H219771   1.304   2.130   3.928  0.8737  0.6857 -1.4793
 6603TIP3   OH219772   5.358   3.545   1.512 -0.3147 -0.5490  0.0244
 6603TIP3    H119773   5.304   3.602   1.567  1.0419  3.2580 -2.2015
 6603TIP3    H219774   5.301   3.523   1.438  0.4044  1.7618 -1.3036
 6604TIP3   OH219775   3.587   1.023   0.105  0.0093  0.2969 -0.7672
 6604TIP3    H119776   3.675   1.047   0.075  0.2592  1.4975  0.8073
 6604TIP3    H219777   3.550   1.104   0.138 -1.0831 -0.5153  0.0756
 6605TIP3   OH219778   2.788   1.237   5.027  0.3029  0.1947  0.4921
 6605TIP3    H119779   2.758   1.200   5.110 -2.3232 -1.6798 -1.1629
 6605TIP3    H219780   2.838   1.167   4.985  0.0957  0.4914 -0.2756
 6606TIP3   OH219781   2.474   1.688   4.607 -0.1107 -0.1924  0.2245
 6606TIP3    H119782   2.500   1.596   4.606 -0.5831 -0.3300  0.2881
 6606TIP3    H219783   2.536   1.730   4.665 -0.5542 -0.6740  1.0682
 6607TIP3   OH219784   3.791   4.164   3.369 -0.0185 -0.2541  0.2100
 6607TIP3    H119785   3.836   4.091   3.327 -1.2351 -1.1712  0.4442
 6607TIP3    H219786   3.843   4.241   3.345 -0.0827 -0.8571 -2.1092
 6608TIP3   OH219787   0.431   2.061   0.660 -0.2738 -0.0202 -0.6761
 6608TIP3    H119788   0.344   2.052   0.619 -1.0108 -0.6094  0.9420
 6608TIP3    H219789   0.412   2.069   0.754  1.4396 -0.1551 -0.2997
 6609TIP3   OH219790   0.379   4.830   5.418  0.1764  0.1833  0.2186
 6609TIP3    H119791   0.326   4.824   5.338 -0.7561  0.9940  0.7557
 6609TIP3    H219792   0.339   4.901   5.469  1.5642  0.5665  0.8243
 6610TIP3   OH219793   4.827   3.949   5.514  0.6018 -0.0584  0.0552
 6610TIP3    H119794   4.878   3.980   5.588 -0.6669  2.4529 -0.0133
 6610TIP3    H219795   4.856   4.003   5.440 -1.0287  0.3608 -0.3132
 6611TIP3   OH219796   0.806   4.841   3.216  0.2364 -0.4477 -0.2338
 6611TIP3    H119797   0.802   4.887   3.301  1.7370 -0.3449 -0.1774
 6611TIP3    H219798   0.892   4.866   3.181 -0.8397  0.4617 -2.3499
 6612TIP3   OH219799   1.490   3.231   1.211  0.7060  0.4878  0.7786
 6612TIP3    H119800   1.416   3.228   1.150  0.4665 -0.3769  1.0967
 6612TIP3    H219801   1.555   3.171   1.173  1.0099  0.8005  0.8023
 6613TIP3   OH219802   5.197   1.280   2.183 -0.0455  0.1821 -0.2896
 6613TIP3    H119803   5.248   1.307   2.260 -0.4632 -1.0238  0.4313
 6613TIP3    H219804   5.139   1.354   2.166  0.0780  0.4802  0.5288
 6614TIP3   OH219805   7.058   1.051   2.934  0.1464  0.1982  0.1996
 6614TIP3    H119806   7.030   1.094   3.015 -0.7904 -0.8492  0.4565
 6614TIP3    H219807   7.153   1.063   2.932 -0.2094  3.9693 -0.7504
 6615TIP3   OH219808   6.178   3.659   1.156 -0.2057 -0.1527 -0.4914
 6615TIP3    H119809   6.213   3.710   1.229 -0.9929  1.2910 -1.0782
 6615TIP3    H219810   6.214   3.701   1.078 -0.2259 -1.0144 -0.9775
 6616TIP3   OH219811   1.138   2.633   2.724  0.0637 -0.5112  0.4107
 6616TIP3    H119812   1.167   2.697   2.789 -0.3208 -1.2893  1.3832
 6616TIP3    H219813   1.134   2.550   2.773 -0.2353 -1.1127 -0.6089
 6617TIP3   OH219814   6.311   3.058   5.602  0.2086 -0.2592 -0.0204
 6617TIP3    H119815   6.370   2.985   5.618  0.4576  0.2090  1.3979
 6617TIP3    H219816   6.319   3.113   5.681  0.9526  1.9416 -1.5427
 6618TIP3   OH219817   1.913   1.770   0.079  0.0265  0.5303 -0.2525
 6618TIP3    H119818   1.909   1.712   0.003 -0.4511 -1.0454  0.9279
 6618TIP3    H219819   1.879   1.717   0.151  1.2385  1.7104  1.2421
 6619TIP3   OH219820   4.340   4.283   5.119  0.7132 -0.6260  0.0348
 6619TIP3    H119821   4.389   4.206   5.149  0.7919 -0.4746  0.2928
 6619TIP3    H219822   4.249   4.263   5.141  0.8551 -0.1898  1.0769
 6620TIP3   OH219823   6.631   0.166   1.934  0.1307 -0.4723  0.0335
 6620TIP3    H119824   6.711   0.113   1.936  1.3232  1.1910 -1.2626
 6620TIP3    H219825   6.635   0.218   2.014  0.9691  0.4312 -0.5755
 6621TIP3   OH219826   1.879   3.518   5.205 -0.6429 -0.5299  0.0615
 6621TIP3    H119827   1.916   3.547   5.121  0.8973 -0.7299  0.6291
 6621TIP3    H219828   1.870   3.423   5.196 -2.0836 -0.3590 -0.4571
 6622TIP3   OH219829   6.067   0.271   3.269 -0.2112  0.6469  0.4139
 6622TIP3    H119830   6.037   0.345   3.320  0.3103  0.6138  0.7664
 6622TIP3    H219831   6.038   0.290   3.179 -2.8767 -0.2142  1.0071
 6623TIP3   OH219832   7.133   3.685   2.458  0.5668  0.1777  0.2424
 6623TIP3    H119833   7.066   3.670   2.392  1.4261 -1.4312 -0.3203
 6623TIP3    H219834   7.099   3.644   2.537  0.5329  0.0941  0.1839
 6624TIP3   OH219835   3.437   5.600   0.193  0.1964 -0.1259 -0.1027
 6624TIP3    H119836   3.412   5.529   0.253  2.0691 -0.4283  0.3901
 6624TIP3    H219837   3.354   5.632   0.159 -0.8440 -1.0703  1.3778
 6625TIP3   OH219838   1.253   6.174   4.080  0.0628 -0.3110 -0.3126
 6625TIP3    H119839   1.338   6.132   4.075  0.7104  1.0360 -1.5204
 6625TIP3    H219840   1.224   6.181   3.988 -1.2013 -0.4783  0.0541
 6626TIP3   OH219841   4.398   0.290   5.027  0.2578  0.1642  0.0485
 6626TIP3    H119842   4.408   0.383   5.044 -2.7090  0.3925  1.0343
 6626TIP3    H219843   4.354   0.284   4.943  2.0839 -0.4879 -0.9240
 6627TIP3   OH219844   0.122   1.414   5.344  0.2307 -0.3895 -0.7509
 6627TIP3    H119845   0.054   1.371   5.292 -0.2968 -0.2925 -0.1512
 6627TIP3    H219846   0.204   1.371   5.318 -0.2008 -1.2827 -0.6541
 6628TIP3   OH219847   1.844   2.053   3.360  0.3368 -0.1894 -0.1064
 6628TIP3    H119848   1.855   2.052   3.265 -0.9578 -1.2836 -0.2711
 6628TIP3    H219849   1.848   1.961   3.386  0.5044  0.0855  0.8863
 6629TIP3   OH219850   4.583   2.749   2.554 -0.4917 -0.2068  0.3205
 6629TIP3    H119851   4.542   2.735   2.640 -1.6353  0.2523 -0.1278
 6629TIP3    H219852   4.568   2.667   2.507 -1.6209  0.2380 -0.1178
 6630TIP3   OH219853   2.714   0.407   5.861  0.3182 -0.0324  0.7327
 6630TIP3    H119854   2.761   0.483   5.895 -1.0874  0.3084  2.0373
 6630TIP3    H219855   2.625   0.417   5.895 -0.9631 -0.2380 -2.2643
 6631TIP3   OH219856   3.169   5.328   1.089  0.2270  0.3071  0.6448
 6631TIP3    H119857   3.190   5.418   1.064 -1.2975  1.1298  2.1361
 6631TIP3    H219858   3.193   5.322   1.181  0.3512 -0.8528  0.5512
 6632TIP3   OH219859   6.381   3.339   0.497 -0.3641  0.3708 -0.1839
 6632TIP3    H119860   6.379   3.428   0.462  0.7989  0.1944 -0.7336
 6632TIP3    H219861   6.458   3.299   0.456 -1.5482 -1.2783 -0.8901
 6633TIP3   OH219862   3.663   2.267   4.429  0.7436 -0.4762  0.2954
 6633TIP3    H119863   3.729   2.230   4.488  0.7394 -2.2300 -0.7240
 6633TIP3    H219864   3.714   2.304   4.357  0.6884  0.5315  0.7491
 6634TIP3   OH219865   7.006   2.054   5.067  0.3946 -0.3399  0.1645
 6634TIP3    H119866   6.968   1.989   5.008  1.6910 -2.0825  1.1702
 6634TIP3    H219867   7.074   2.097   5.016 -1.2267  1.1300 -0.8786
 6635TIP3   OH219868   1.865   2.069   5.237  0.5907  0.5901  0.8260
 6635TIP3    H119869   1.885   1.985   5.277 -1.1061 -1.5988 -2.5372
 6635TIP3    H219870   1.934   2.083   5.173 -0.1536  0.7399  0.0268
 6636TIP3   OH219871   0.634   6.637   2.571 -0.5417 -0.3873  0.2747
 6636TIP3    H119872   0.636   6.718   2.520 -1.4866 -0.9601 -0.7132
 6636TIP3    H219873   0.543   6.608   2.566 -0.5566 -0.7137  1.9143
 6637TIP3   OH219874   3.927   5.094   4.959 -0.0602 -0.1602 -0.2326
 6637TIP3    H119875   3.852   5.036   4.972 -0.3898  0.2882 -0.1241
 6637TIP3    H219876   3.949   5.084   4.866  0.7087 -1.4388  0.0491
 6638TIP3   OH219877   1.226   0.380   3.532 -0.1310  0.2460  0.0032
 6638TIP3    H119878   1.307   0.372   3.583 -0.9233  0.3867  1.3141
 6638TIP3    H219879   1.242   0.455   3.475  0.6549  0.3004  0.2773
 6639TIP3   OH219880   0.640   2.002   0.473  0.1378  0.0785 -0.2331
 6639TIP3    H119881   0.572   2.011   0.540  1.3080 -1.9135  1.3733
 6639TIP3    H219882   0.682   2.088   0.470 -0.2260  0.3470  1.3235
 6640TIP3   OH219883   0.416   6.544   1.887 -0.2368 -0.2206 -0.0074
 6640TIP3    H119884   0.509   6.564   1.896  0.0076 -2.1108  2.8194
 6640TIP3    H219885   0.372   6.605   1.946 -0.6890 -0.0698 -0.4919
 6641TIP3   OH219886   1.088   1.424   4.642 -0.0500  0.4007  0.0036
 6641TIP3    H119887   1.067   1.356   4.705  0.0807  0.3506 -0.0062
 6641TIP3    H219888   1.140   1.380   4.575 -0.4190  0.3964 -0.2814
 6642TIP3   OH219889   0.387   2.637   4.224  0.0245 -0.3196 -0.4080
 6642TIP3    H119890   0.471   2.646   4.180  0.1100 -1.0200 -0.4098
 6642TIP3    H219891   0.407   2.642   4.317  0.1983 -1.3193 -0.3770
 6643TIP3   OH219892   0.656   1.109   4.288  0.5295  0.2673  0.3522
 6643TIP3    H119893   0.683   1.017   4.292 -2.5018 -0.6912  1.2372
 6643TIP3    H219894   0.676   1.143   4.376  0.2583  0.0199  0.5098
 6644TIP3   OH219895   3.249   4.361   5.587  0.3047 -0.0301 -0.6068
 6644TIP3    H119896   3.249   4.274   5.625 -0.6796 -0.3409 -1.2776
 6644TIP3    H219897   3.237   4.346   5.493 -1.8366  0.8859 -0.5209
 6645TIP3   OH219898   1.808   2.578   2.846  0.1509 -0.1919 -0.1324
 6645TIP3    H119899   1.735   2.595   2.787 -0.1372  1.5867  0.6850
 6645TIP3    H219900   1.786   2.625   2.926  0.1998 -3.0460  1.7056
 6646TIP3   OH219901   2.389   2.818   1.159 -0.3695 -0.2057 -0.0085
 6646TIP3    H119902   2.361   2.848   1.072 -2.1409 -1.3724  0.1108
 6646TIP3    H219903   2.471   2.771   1.143  1.0378  2.2953 -0.5539
 6647TIP3   OH219904   2.251   5.111   4.814  0.7243  0.3536  0.3147
 6647TIP3    H119905   2.291   5.141   4.896  1.7377  0.8197 -0.3394
 6647TIP3    H219906   2.157   5.114   4.831  0.7283  3.8555  0.3280
 6648TIP3   OH219907   6.347   0.241   0.855  0.0796 -0.4209  0.0516
 6648TIP3    H119908   6.384   0.248   0.767 -0.7234 -1.9262 -0.4385
 6648TIP3    H219909   6.394   0.169   0.896  0.6673  0.4724  0.9995
 6649TIP3   OH219910   2.201   4.467   5.384 -0.4492  0.1655  0.4282
 6649TIP3    H119911   2.164   4.555   5.381  0.7638  0.7298  1.2651
 6649TIP3    H219912   2.292   4.478   5.356 -0.4499 -0.9406 -0.0870
 6650TIP3   OH219913   4.243   0.052   3.553  0.1789 -0.3024 -0.3749
 6650TIP3    H119914   4.276   0.137   3.581 -0.4191 -0.5063  1.0372
 6650TIP3    H219915   4.182   0.072   3.482  0.0090  0.4475 -0.0279
 6651TIP3   OH219916   2.900   3.544   4.672 -0.2291 -0.3434  0.9282
 6651TIP3    H119917   2.812   3.518   4.701 -1.1155  0.4040 -0.9176
 6651TIP3    H219918   2.887   3.629   4.630  1.4363 -0.1122  0.8361
 6652TIP3   OH219919   7.049   1.147   4.750 -0.0307 -0.5466  0.1571
 6652TIP3    H119920   7.072   1.058   4.724  1.0201 -0.4956  0.8558
 6652TIP3    H219921   7.058   1.199   4.670 -2.1841 -1.3055 -0.6435
 6653TIP3   OH219922   2.202   2.372   3.595 -0.0189 -0.3721  0.0812
 6653TIP3    H119923   2.155   2.453   3.613 -0.1790 -0.9629  2.7530
 6653TIP3    H219924   2.133   2.305   3.589  0.2482 -0.7630  1.0502
 6654TIP3   OH219925   4.724   1.738   1.557  0.1251  0.0416  0.1383
 6654TIP3    H119926   4.703   1.709   1.646 -0.3916  0.4037  0.1378
 6654TIP3    H219927   4.759   1.659   1.514  0.3149 -0.1525  0.6348
 6655TIP3   OH219928   2.062   1.946   0.232 -0.3797 -0.1466 -0.4519
 6655TIP3    H119929   2.152   1.914   0.237  0.8425  2.8446 -1.4241
 6655TIP3    H219930   2.022   1.894   0.163  0.8681 -0.9206 -0.6292
 6656TIP3   OH219931   1.434   2.226   2.537 -0.1010 -0.0526 -0.6330
 6656TIP3    H119932   1.507   2.225   2.475 -0.0835  1.6760 -0.6748
 6656TIP3    H219933   1.468   2.270   2.614 -0.5852 -0.8253  0.0418
 6657TIP3   OH219934   6.233   1.584   3.695  0.6453 -0.1069 -0.1118
 6657TIP3    H119935   6.284   1.525   3.639 -0.8222 -0.4281 -1.1556
 6657TIP3    H219936   6.283   1.666   3.695  1.0291 -0.3281 -1.3369
 6658TIP3   OH219937   1.799   4.255   4.752  0.6379  0.2798  0.0640
 6658TIP3    H119938   1.761   4.221   4.832  1.3684 -0.5750  0.0717
 6658TIP3    H219939   1.782   4.187   4.686  1.1240  0.4020 -0.1989
 6659TIP3   OH219940   4.535   5.475   1.581  0.3184 -0.2632 -0.0218
 6659TIP3    H119941   4.465   5.526   1.622  0.0633 -0.6022 -0.0282
 6659TIP3    H219942   4.552   5.403   1.642  0.1752 -0.5740 -0.3456
 6660TIP3   OH219943   0.196   3.035   4.388 -0.3447 -0.3174 -0.4166
 6660TIP3    H119944   0.240   3.003   4.309  2.2902 -1.2825  1.3211
 6660TIP3    H219945   0.150   2.958   4.422  1.1774 -0.7974  0.6442
 6661TIP3   OH219946   5.852   5.485   0.449  0.1078 -0.1946 -0.2087
 6661TIP3    H119947   5.796   5.546   0.496  0.9270 -0.4111  1.1156
 6661TIP3    H219948   5.800   5.457   0.374 -1.6620 -0.5763  1.0901
 6662TIP3   OH219949   4.214   2.170   5.109 -0.4614  0.3915 -0.1146
 6662TIP3    H119950   4.236   2.263   5.116 -0.2261  0.2588  1.3203
 6662TIP3    H219951   4.120   2.168   5.092 -0.5349  0.8994  0.2092
 6663TIP3   OH219952   3.272   2.884   2.494 -0.2322  0.1418 -0.1173
 6663TIP3    H119953   3.335   2.816   2.516 -1.9494 -2.1611 -1.8044
 6663TIP3    H219954   3.187   2.839   2.496 -1.4918  2.3297 -0.9361
 6664TIP3   OH219955   5.502   2.824   4.474  0.0752  0.3030  0.1564
 6664TIP3    H119956   5.539   2.832   4.386  2.8346  1.8126  1.3443
 6664TIP3    H219957   5.455   2.741   4.472  2.7444 -1.3288 -1.8509
 6665TIP3   OH219958   3.996   0.167   1.296  0.0954 -0.0563  0.1146
 6665TIP3    H119959   4.044   0.231   1.244 -0.5163  0.4206  0.1198
 6665TIP3    H219960   4.001   0.086   1.246  0.7047  0.0432  0.0098
 6666TIP3   OH219961   1.748   6.492   4.976 -0.3243  0.3157  0.1394
 6666TIP3    H119962   1.722   6.561   5.037  0.0450 -0.4527  1.1930
 6666TIP3    H219963   1.677   6.429   4.979  0.0088 -0.0565  0.3080
 6667TIP3   OH219964   5.181   0.575   0.602  0.7899  0.4948  1.0878
 6667TIP3    H119965   5.248   0.638   0.575 -0.1270  1.5250  1.1294
 6667TIP3    H219966   5.130   0.622   0.668 -0.1978 -0.1235  0.7833
 6668TIP3   OH219967   4.192   2.508   2.471 -0.1716  0.5089  0.0497
 6668TIP3    H119968   4.239   2.500   2.388  1.9599  0.3416  1.1970
 6668TIP3    H219969   4.197   2.601   2.492  0.6438  0.3242  0.7091
 6669TIP3   OH219970   2.547   6.471   5.471 -0.1582  0.4810 -0.4003
 6669TIP3    H119971   2.498   6.394   5.498  0.6274 -0.6082 -1.9421
 6669TIP3    H219972   2.529   6.536   5.539 -2.2746 -0.4485 -0.0128
 6670TIP3   OH219973   0.160   6.202   1.081 -0.1569 -0.1501 -0.3148
 6670TIP3    H119974   0.191   6.184   0.992  0.7376  3.7101 -0.9814
 6670TIP3    H219975   0.219   6.271   1.112 -1.4749 -0.2500  2.6810
 6671TIP3   OH219976   6.115   0.172   2.298  0.0849 -0.6008  0.1622
 6671TIP3    H119977   6.036   0.157   2.246  0.9342 -1.6643 -0.8653
 6671TIP3    H219978   6.147   0.258   2.269  0.3525 -1.0252 -0.8372
 6672TIP3   OH219979   5.626   1.295   0.461  0.1365 -0.0161 -0.5636
 6672TIP3    H119980   5.571   1.227   0.499  1.1565 -0.6670 -0.2011
 6672TIP3    H219981   5.595   1.376   0.501  0.6694 -0.5853  1.1034
 6673TIP3   OH219982   1.771   0.366   4.614  0.4368  0.5447  0.1658
 6673TIP3    H119983   1.804   0.335   4.530  1.2777 -1.0517  1.0479
 6673TIP3    H219984   1.681   0.395   4.595  0.6751  0.3968 -1.3071
 6674TIP3   OH219985   4.965   4.603   1.383  0.0391 -0.3951  0.0537
 6674TIP3    H119986   5.049   4.562   1.364  1.4494  0.9073  2.8009
 6674TIP3    H219987   4.957   4.673   1.318  1.0765 -0.5647 -0.2714
 6675TIP3   OH219988   2.424   5.915   3.104 -0.0526 -0.2241  0.1910
 6675TIP3    H119989   2.331   5.905   3.088 -0.1503  0.0356  0.5870
 6675TIP3    H219990   2.432   5.929   3.199  0.2976  0.6849  0.0481
 6676TIP3   OH219991   5.778   6.474   5.200  0.4631  0.6886  0.5405
 6676TIP3    H119992   5.852   6.414   5.199 -0.0511  0.0453  0.0492
 6676TIP3    H219993   5.731   6.456   5.118 -0.1745  1.1577  0.7930
 6677TIP3   OH219994   6.323   6.258   1.437 -0.4429  0.4578 -0.7562
 6677TIP3    H119995   6.270   6.182   1.461 -0.6380  1.1126  1.0400
 6677TIP3    H219996   6.407   6.244   1.482 -0.2605  1.0105 -0.9154
 6678TIP3   OH219997   5.521   6.732   3.247 -0.2258  0.3214 -0.2759
 6678TIP3    H119998   5.561   6.651   3.279 -1.6867  0.1656  1.2879
 6678TIP3    H219999   5.432   6.731   3.283 -0.8350  1.8327 -1.6019
 6679TIP3   OH220000   4.183   5.419   3.185  0.2227 -0.9855 -0.1890
 6679TIP3    H120001   4.149   5.409   3.096 -2.4007  0.4533  0.5400
 6679TIP3    H220002   4.201   5.329   3.214 -3.1158 -1.9583 -0.7023
 6680TIP3   OH220003   5.220   2.839   4.739  0.5635  0.4682  0.0384
 6680TIP3    H120004   5.219   2.922   4.692 -1.7344 -0.1350 -1.1278
 6680TIP3    H220005   5.144   2.791   4.705  1.7609 -2.0904  0.7057
 6681TIP3   OH220006   2.830   2.504   0.828 -0.2947  0.0747 -0.3900
 6681TIP3    H120007   2.777   2.530   0.753 -0.2557 -0.6383 -0.6768
 6681TIP3    H220008   2.781   2.535   0.904 -0.0187  1.3719 -0.7148
 6682TIP3   OH220009   0.165   1.202   4.199 -0.2045  0.5183 -0.5025
 6682TIP3    H120010   0.151   1.159   4.284  1.2412  0.7365 -0.1275
 6682TIP3    H220011   0.248   1.166   4.168  0.2059  1.7973 -0.9516
 6683TIP3   OH220012   0.059   2.783   4.360 -0.1188 -0.9060  0.3130
 6683TIP3    H120013   0.070   2.689   4.375  0.8546 -0.6308  1.4268
 6683TIP3    H220014   0.034   2.819   4.446 -3.2133 -0.4833 -0.6139
 6684TIP3   OH220015   1.297   3.503   0.230  0.3624 -0.1802 -0.4596
 6684TIP3    H120016   1.252   3.464   0.155  0.4508 -0.1248 -0.5421
 6684TIP3    H220017   1.350   3.431   0.265  0.9299  0.0016 -0.9298
 6685TIP3   OH220018   4.174   6.156   4.151  0.0971  0.4075  0.4525
 6685TIP3    H120019   4.151   6.195   4.236  0.4036 -1.3408  1.3791
 6685TIP3    H220020   4.266   6.131   4.160 -0.5769 -2.2735  0.6573
 6686TIP3   OH220021   0.587   3.043   5.859 -0.6675 -0.5969 -0.3517
 6686TIP3    H120022   0.651   2.973   5.857 -0.5791 -0.5169 -0.3283
 6686TIP3    H220023   0.587   3.075   5.949 -0.7885 -0.6406 -0.3354
 6687TIP3   OH220024   5.918   5.834   4.897 -0.9659 -0.0888  0.2905
 6687TIP3    H120025   5.870   5.851   4.815 -1.3111  0.2237  0.5561
 6687TIP3    H220026   5.940   5.741   4.892 -2.0877 -0.3771  0.4160
 6688TIP3   OH220027   2.876   0.723   1.945 -1.1408 -0.2308 -0.4603
 6688TIP3    H120028   2.790   0.757   1.970 -0.4498  1.9818 -0.8400
 6688TIP3    H220029   2.932   0.800   1.944  1.1894 -1.8065  1.0909
 6689TIP3   OH220030   6.886   1.204   1.647  0.2126  0.4052  0.6002
 6689TIP3    H120031   6.936   1.125   1.623 -0.2310 -0.3565  2.0679
 6689TIP3    H220032   6.951   1.263   1.684  0.3706  0.3034  0.4893
 6690TIP3   OH220033   3.269   4.095   4.022 -0.1417 -0.1066  0.7655
 6690TIP3    H120034   3.247   4.081   3.930  0.3919 -1.7450  0.8470
 6690TIP3    H220035   3.215   4.169   4.049 -2.2696 -1.2369 -0.1699
 6691TIP3   OH220036   2.599   4.122   5.315  0.3087 -0.2451 -0.5142
 6691TIP3    H120037   2.681   4.074   5.300  0.3400 -0.6184  0.7341
 6691TIP3    H220038   2.622   4.190   5.379 -0.6388 -1.2772  0.9929
 6692TIP3   OH220039   5.857   0.369   3.983  0.0374 -0.0581 -0.1865
 6692TIP3    H120040   5.897   0.430   4.046  1.1771  0.0083 -0.9441
 6692TIP3    H220041   5.781   0.417   3.949 -0.8242 -0.2448  1.3934
 6693TIP3   OH220042   4.745   1.903   4.602 -0.1632 -0.3785 -0.3712
 6693TIP3    H120043   4.770   1.891   4.510 -0.4063 -0.6373 -0.4058
 6693TIP3    H220044   4.691   1.982   4.602 -0.6832 -0.7345 -0.5498
 6694TIP3   OH220045   2.189   0.514   2.574 -0.5512 -0.6850 -0.0012
 6694TIP3    H120046   2.232   0.597   2.593  0.1486 -0.9748 -0.2584
 6694TIP3    H220047   2.113   0.512   2.631 -2.6446  1.7329 -2.4543
 6695TIP3   OH220048   4.609   4.907   3.705  0.0970  0.0260 -0.5146
 6695TIP3    H120049   4.680   4.842   3.704 -1.5132 -1.8689  0.4263
 6695TIP3    H220050   4.549   4.877   3.637 -1.0602  0.0279  0.4720
 6696TIP3   OH220051   4.895   0.803   5.607 -0.2234 -0.5890  0.2006
 6696TIP3    H120052   4.975   0.805   5.553  0.1272  0.9515  0.7379
 6696TIP3    H220053   4.892   0.713   5.641 -0.4527 -1.6176 -2.3238
 6697TIP3   OH220054   1.598   1.713   4.883 -0.5492 -0.0510  0.4362
 6697TIP3    H120055   1.563   1.783   4.938  0.2310 -0.3905  1.3888
 6697TIP3    H220056   1.654   1.758   4.820 -0.7807  0.2643  0.4518
 6698TIP3   OH220057   6.530   4.708   1.079 -0.3514 -0.3198  0.1106
 6698TIP3    H120058   6.489   4.623   1.064 -0.7567 -0.1678  0.3294
 6698TIP3    H220059   6.586   4.694   1.156  0.8161 -0.7915 -0.7992
 6699TIP3   OH220060   1.576   2.068   0.836 -0.3087  0.2788  0.1148
 6699TIP3    H120061   1.666   2.091   0.857  0.1524  0.1502 -1.5262
 6699TIP3    H220062   1.522   2.131   0.884  0.7000  1.0353  0.2792
 6700TIP3   OH220063   3.169   5.866   0.318  0.1251  0.0697 -0.3788
 6700TIP3    H120064   3.228   5.941   0.311 -1.9798  1.8222 -0.7919
 6700TIP3    H220065   3.093   5.901   0.365 -1.5417 -1.3846 -1.8542
 6701TIP3   OH220066   3.662   6.582   2.686 -0.2803  0.2154 -0.2509
 6701TIP3    H120067   3.572   6.575   2.656  0.2581 -0.4154 -1.8525
 6701TIP3    H220068   3.714   6.581   2.605  1.2015 -0.3031  0.6672
 6702TIP3   OH220069   4.013   6.201   0.089 -0.4442 -0.0747 -0.6594
 6702TIP3    H120070   4.026   6.296   0.094 -0.0629 -0.1729  0.9838
 6702TIP3    H220071   3.922   6.190   0.061 -0.2367  0.7559 -1.7140
 6703TIP3   OH220072   4.206   5.781   3.384  0.6623  0.4227  0.1786
 6703TIP3    H120073   4.242   5.870   3.381  2.4162 -0.2421  0.1008
 6703TIP3    H220074   4.202   5.753   3.293  1.3257 -0.0073  0.2706
 6704TIP3   OH220075   0.530   6.414   1.463 -0.8154 -0.2099 -0.0303
 6704TIP3    H120076   0.519   6.439   1.555 -1.3176 -1.2744  0.2082
 6704TIP3    H220077   0.560   6.495   1.420  0.2361  0.0969  1.2042
 6705TIP3   OH220078   0.874   6.120   2.260 -0.4358  0.1864  0.1469
 6705TIP3    H120079   0.962   6.157   2.272 -0.4295  0.0640  0.4749
 6705TIP3    H220080   0.824   6.151   2.336 -0.8841  0.8642 -0.4068
 6706TIP3   OH220081   0.835   3.663   1.930 -0.1001  0.4609  0.7602
 6706TIP3    H120082   0.892   3.599   1.974  1.2586  0.6751 -0.6409
 6706TIP3    H220083   0.778   3.610   1.875 -0.7657  0.3073  1.5653
 6707TIP3   OH220084   4.841   1.824   5.079  0.2669 -0.1488  0.0857
 6707TIP3    H120085   4.901   1.811   5.006 -2.3275 -2.0047 -1.9158
 6707TIP3    H220086   4.820   1.735   5.109 -0.3847  0.4958  1.6454
 6708TIP3   OH220087   7.019   5.363   2.459  0.3059  0.0690  0.1530
 6708TIP3    H120088   6.962   5.290   2.435  0.2087 -0.0778  0.8239
 6708TIP3    H220089   6.966   5.418   2.516  0.6585  0.2211  0.3377
 6709TIP3   OH220090   5.199   6.301   0.936  0.0293  0.0102  0.3144
 6709TIP3    H120091   5.257   6.249   0.879  0.4640 -1.8990  2.3722
 6709TIP3    H220092   5.170   6.373   0.880 -0.4577 -2.3027 -2.6881
 6710TIP3   OH220093   2.879   2.665   3.265 -0.6510  0.1539  0.2347
 6710TIP3    H120094   2.971   2.664   3.239 -1.2365 -0.4244 -2.0575
 6710TIP3    H220095   2.867   2.584   3.316 -0.1171 -0.3564 -0.4274
 6711TIP3   OH220096   0.170   4.353   2.805 -0.1214 -0.0703  0.4266
 6711TIP3    H120097   0.165   4.448   2.791 -2.9660  0.0868  1.7200
 6711TIP3    H220098   0.114   4.316   2.737  1.6000 -0.9708 -0.5766
 6712TIP3   OH220099   0.944   5.075   4.942  0.4160 -0.2862  0.2876
 6712TIP3    H120100   0.926   5.150   4.886  0.1252  0.0623  0.8416
 6712TIP3    H220101   0.859   5.048   4.976  0.6675  0.0288  1.2143
 6713TIP3   OH220102   3.151   1.233   1.076 -0.1324  0.5222  0.0366
 6713TIP3    H120103   3.242   1.210   1.095 -0.4386 -1.3892 -0.6304
 6713TIP3    H220104   3.153   1.328   1.065  1.8551  0.4892 -0.2865
 6714TIP3   OH220105   6.682   5.119   3.478 -0.3034 -0.8040  0.3541
 6714TIP3    H120106   6.636   5.144   3.558 -0.7786  1.2574 -0.4927
 6714TIP3    H220107   6.620   5.064   3.431 -2.1599  2.1022 -0.8683
 6715TIP3   OH220108   4.641   3.210   2.663  0.1293  0.0173  0.0034
 6715TIP3    H120109   4.680   3.273   2.603  0.5266  0.5473  0.7956
 6715TIP3    H220110   4.614   3.137   2.608 -0.8441  1.1066 -1.0040
 6716TIP3   OH220111   1.065   1.004   5.253 -0.2328  0.3586  0.6690
 6716TIP3    H120112   1.069   1.086   5.205 -1.6174  1.0493  1.6679
 6716TIP3    H220113   1.072   0.936   5.186  1.9845  1.2296 -0.0909
 6717TIP3   OH220114   5.455   4.999   5.103 -0.1547  0.3199  0.0782
 6717TIP3    H120115   5.485   5.087   5.081  0.9079  0.2016  0.9313
 6717TIP3    H220116   5.411   5.009   5.187  2.3783 -0.3195  1.5957
 6718TIP3   OH220117   3.401   2.988   1.505  0.1098  0.3342  0.1169
 6718TIP3    H120118   3.419   2.999   1.599 -0.9742  0.1226  0.3615
 6718TIP3    H220119   3.351   2.907   1.500  1.3786 -0.4366 -0.8268
 6719TIP3   OH220120   6.248   1.487   1.712  0.1614  0.3590 -0.1169
 6719TIP3    H120121   6.190   1.475   1.637 -0.6883  0.1291  0.5467
 6719TIP3    H220122   6.221   1.419   1.774  1.0117  0.3809  0.2948
 6720TIP3   OH220123   1.419   4.293   1.193 -0.4755  0.3110 -0.2179
 6720TIP3    H120124   1.395   4.337   1.274 -2.7371  1.6753 -1.4989
 6720TIP3    H220125   1.498   4.244   1.214  0.0200  1.9993  2.3184
 6721TIP3   OH220126   0.749   5.790   1.018 -0.5133 -0.0623 -0.1176
 6721TIP3    H120127   0.759   5.884   1.035 -2.0379  0.3550 -1.3343
 6721TIP3    H220128   0.761   5.781   0.923  0.9746 -1.3297  0.1431
 6722TIP3   OH220129   1.903   6.154   0.770  0.7037 -0.0487  0.1800
 6722TIP3    H120130   1.857   6.164   0.854  0.3734 -1.6544  0.2227
 6722TIP3    H220131   1.979   6.101   0.791  0.6047 -0.4835 -0.5455
 6723TIP3   OH220132   0.869   1.949   1.841 -0.0443 -0.5331 -0.5758
 6723TIP3    H120133   0.836   1.911   1.759  0.4920 -0.7181 -0.7075
 6723TIP3    H220134   0.955   1.909   1.853 -0.2220 -0.6893  0.2104
 6724TIP3   OH220135   3.613   4.621   3.117  0.1659 -0.2963 -0.1538
 6724TIP3    H120136   3.665   4.550   3.156 -0.3744 -1.0007 -0.6975
 6724TIP3    H220137   3.537   4.577   3.080  0.0691  0.5192 -0.9336
 6725TIP3   OH220138   1.734   1.003   1.521  0.3709 -0.0156 -0.3246
 6725TIP3    H120139   1.826   1.015   1.542 -0.0642  2.0083  0.7088
 6725TIP3    H220140   1.728   1.020   1.427  0.9626  0.6452 -0.2532
 6726TIP3   OH220141   5.961   1.967   2.170 -0.1800 -0.6531  0.2685
 6726TIP3    H120142   6.034   1.906   2.179 -1.4869 -2.2462  0.4455
 6726TIP3    H220143   5.967   1.997   2.079  1.1538 -0.0930  0.5064
 6727TIP3   OH220144   2.322   1.484   2.372  0.2795  0.1831  0.0758
 6727TIP3    H120145   2.307   1.578   2.364  1.0266  0.3768  0.7687
 6727TIP3    H220146   2.404   1.478   2.422 -0.6144 -0.8515  1.4701
 6728TIP3   OH220147   6.686   1.398   4.550  0.5497  0.0445 -0.2463
 6728TIP3    H120148   6.622   1.436   4.489 -0.5856 -1.4321 -0.0264
 6728TIP3    H220149   6.640   1.392   4.633  1.5956  0.6329  0.3978
 6729TIP3   OH220150   0.292   5.363   3.444  0.1864  0.0810 -0.2222
 6729TIP3    H120151   0.200   5.391   3.453 -0.0989 -1.0043  0.3469
 6729TIP3    H220152   0.342   5.442   3.462 -0.6182  0.4241  0.5985
 6730TIP3   OH220153   3.482   0.121   1.866 -0.3292  0.2699  0.0085
 6730TIP3    H120154   3.546   0.166   1.921 -0.7470 -0.9277  1.5420
 6730TIP3    H220155   3.514   0.134   1.777 -0.4661  3.6136  0.3060
 6731TIP3   OH220156   1.621   2.773   0.815  0.9845 -0.3334 -0.7812
 6731TIP3    H120157   1.645   2.692   0.859  1.0536 -0.4407 -1.0182
 6731TIP3    H220158   1.525   2.777   0.821  1.1006  0.7597  1.3619
 6732TIP3   OH220159   4.675   6.417   2.073  0.5118 -0.1038 -0.1400
 6732TIP3    H120160   4.684   6.323   2.056  0.3546 -0.3748  1.1942
 6732TIP3    H220161   4.763   6.446   2.098  0.0606 -0.5041  2.1677
 6733TIP3   OH220162   2.538   5.452   1.345  0.3350  0.0538 -0.2176
 6733TIP3    H120163   2.535   5.384   1.412  0.9863  1.0108  0.8037
 6733TIP3    H220164   2.622   5.495   1.358 -1.0775  2.7275  0.8524
 6734TIP3   OH220165   3.209   3.534   4.252  0.3295  0.5159  0.1552
 6734TIP3    H120166   3.221   3.500   4.164  1.7337 -0.4570  0.6854
 6734TIP3    H220167   3.194   3.628   4.240  1.7933  0.6306 -1.0416
 6735TIP3   OH220168   3.354   5.175   2.203  0.2683 -0.1189 -0.2958
 6735TIP3    H120169   3.439   5.154   2.164  0.0530 -0.4171 -0.6100
 6735TIP3    H220170   3.376   5.205   2.291  0.7009 -0.2116 -0.3655
 6736TIP3   OH220171   3.761   6.410   5.661  0.0301 -0.7493  0.0242
 6736TIP3    H120172   3.837   6.392   5.717 -0.7229 -0.1255  1.2886
 6736TIP3    H220173   3.685   6.397   5.719 -0.9222 -2.6543 -1.5334
 6737TIP3   OH220174   3.664   1.752   2.915  0.0916 -0.4490  0.0512
 6737TIP3    H120175   3.623   1.680   2.867 -0.5422  0.3060 -0.5693
 6737TIP3    H220176   3.756   1.749   2.889  0.1101 -1.1465  0.1776
 6738TIP3   OH220177   5.278   5.544   5.125  0.2584  0.7684 -0.2914
 6738TIP3    H120178   5.372   5.554   5.109  0.0172  0.1987 -2.3102
 6738TIP3    H220179   5.250   5.629   5.158  1.4050  1.0567 -0.0247
 6739TIP3   OH220180   4.953   1.063   3.200 -0.5275 -0.2415 -0.4077
 6739TIP3    H120181   4.993   1.024   3.121 -0.2463  0.0031 -0.3891
 6739TIP3    H220182   4.905   0.991   3.240  1.5037 -1.0953  0.6379
 6740TIP3   OH220183   4.418   1.526   0.701  0.4588  0.0022 -0.2329
 6740TIP3    H120184   4.378   1.529   0.614  0.5722  0.3366 -0.2746
 6740TIP3    H220185   4.407   1.435   0.729  0.8778 -0.2294 -0.8050
 6741TIP3   OH220186   6.839   1.619   3.877  0.0516 -0.0832 -0.4301
 6741TIP3    H120187   6.891   1.580   3.807  0.0002  1.2331 -1.2469
 6741TIP3    H220188   6.793   1.691   3.834 -2.7806 -1.4039  0.1488
 6742TIP3   OH220189   0.443   5.282   4.535 -0.7024  0.4896  0.4147
 6742TIP3    H120190   0.492   5.364   4.525 -1.4750  1.1067  1.5254
 6742TIP3    H220191   0.511   5.215   4.546 -0.0692  0.9881 -0.3237
 6743TIP3   OH220192   0.165   1.448   3.139  0.3308 -0.1181  0.5901
 6743TIP3    H120193   0.194   1.465   3.228  2.2353 -0.6453  0.1074
 6743TIP3    H220194   0.201   1.520   3.087  0.2517 -0.4539  0.0609
 6744TIP3   OH220195   2.726   6.229   5.469  0.3681  0.6062 -0.2345
 6744TIP3    H120196   2.786   6.219   5.395  1.3569 -0.0635  0.6380
 6744TIP3    H220197   2.645   6.260   5.429  0.9158  0.3813 -1.5879
 6745TIP3   OH220198   1.914   1.404   3.043 -0.2174  0.2718  0.0840
 6745TIP3    H120199   1.880   1.338   2.982 -1.6049  0.5383  0.5365
 6745TIP3    H220200   1.962   1.465   2.987 -1.1181  0.2816 -0.7119
 6746TIP3   OH220201   4.205   4.479   1.832 -0.0920 -0.8993 -0.4571
 6746TIP3    H120202   4.270   4.528   1.882  1.1329 -2.2034 -0.7124
 6746TIP3    H220203   4.250   4.454   1.751 -1.1473 -1.2322 -0.9626
 6747TIP3   OH220204   2.223   4.685   3.635 -0.2425  0.9297  0.1284
 6747TIP3    H120205   2.187   4.600   3.609  0.0886  0.3843  1.3724
 6747TIP3    H220206   2.296   4.700   3.575  0.8373 -0.5408  1.0274
 6748TIP3   OH220207   6.330   4.663   2.014  0.2918 -0.1891  0.8021
 6748TIP3    H120208   6.296   4.582   1.976  0.3302  0.8001 -1.4716
 6748TIP3    H220209   6.267   4.730   1.987  0.6767  0.6848  1.9922
 6749TIP3   OH220210   0.012   2.930   4.580 -0.4818 -0.0049 -0.0137
 6749TIP3    H120211   0.022   3.024   4.568  0.9060 -0.2296 -0.9824
 6749TIP3    H220212   0.026   2.916   4.674  0.0753  0.6807  0.0122
 6750TIP3   OH220213   6.250   4.579   1.712  0.0686 -0.2908 -0.6035
 6750TIP3    H120214   6.202   4.565   1.631 -0.4537 -0.9142 -0.1969
 6750TIP3    H220215   6.334   4.615   1.684 -0.4727  0.4297 -1.3530
 6751TIP3   OH220216   5.227   3.157   2.323  0.0477  0.2370 -0.0485
 6751TIP3    H120217   5.306   3.144   2.376 -0.2027  0.5947  0.4180
 6751TIP3    H220218   5.156   3.122   2.377  0.0371 -1.3911 -1.0405
 6752TIP3   OH220219   6.224   2.534   2.674 -0.0297 -0.5188  0.8674
 6752TIP3    H120220   6.132   2.560   2.682  0.0587 -0.5171  1.9264
 6752TIP3    H220221   6.261   2.548   2.761  0.6872 -1.6220  0.7577
 6753TIP3   OH220222   6.230   5.998   0.059 -0.0438 -0.0740 -0.5891
 6753TIP3    H120223   6.158   5.986   0.121 -0.2467 -0.9948 -0.9788
 6753TIP3    H220224   6.274   5.913   0.058 -0.6099 -0.3759 -2.3852
 6754TIP3   OH220225   6.877   4.174   4.243  0.3224 -0.1854 -0.1682
 6754TIP3    H120226   6.850   4.233   4.313  1.6497 -0.6053  0.7310
 6754TIP3    H220227   6.812   4.103   4.246 -0.6410  0.6537 -0.5386
 6755TIP3   OH220228   7.160   0.161   4.051  0.0224 -0.0302 -0.3375
 6755TIP3    H120229   7.116   0.203   4.125 -2.3204 -0.2073 -1.5471
 6755TIP3    H220230   7.185   0.075   4.085 -0.1917  0.2308  0.5246
 6756TIP3   OH220231   2.546   0.549   2.203  0.4116 -0.3817 -0.5083
 6756TIP3    H120232   2.451   0.544   2.211  0.3234 -2.6526 -2.0445
 6756TIP3    H220233   2.575   0.588   2.285 -1.8397  0.7931 -0.1746
 6757TIP3   OH220234   6.107   1.581   2.194  0.0180  0.3454  0.0262
 6757TIP3    H120235   6.139   1.515   2.256 -0.9480 -0.4261 -0.2608
 6757TIP3    H220236   6.185   1.626   2.164  0.6399 -0.2501  0.7177
 6758TIP3   OH220237   2.132   0.198   3.438  0.1696 -0.3178 -0.5125
 6758TIP3    H120238   2.101   0.198   3.529 -1.1075  0.2594 -0.9301
 6758TIP3    H220239   2.222   0.166   3.444  0.0690 -0.4088  0.9421
 6759TIP3   OH220240   6.292   4.340   4.721  0.0896  0.6894  0.1388
 6759TIP3    H120241   6.298   4.424   4.676 -0.3175  0.4874 -0.3025
 6759TIP3    H220242   6.326   4.357   4.809  2.8375  0.6076 -0.8315
 6760TIP3   OH220243   0.627   3.187   4.405  0.1261  0.5136 -0.1462
 6760TIP3    H120244   0.634   3.157   4.496 -2.7884 -0.3552 -0.1150
 6760TIP3    H220245   0.641   3.281   4.410 -0.2008  0.5180  1.2583
 6761TIP3   OH220246   2.797   4.592   1.275 -0.1287  0.3653  0.4006
 6761TIP3    H120247   2.810   4.511   1.226  2.0946 -1.0664  3.0678
 6761TIP3    H220248   2.878   4.641   1.262 -1.3929  2.2413 -1.0727
 6762TIP3   OH220249   3.641   6.241   3.546 -0.2682  0.3276  0.1724
 6762TIP3    H120250   3.717   6.202   3.588  0.0890 -1.0796 -1.6389
 6762TIP3    H220251   3.585   6.268   3.619  1.5047  0.5156  1.5365
 6763TIP3   OH220252   6.040   0.780   3.483 -0.8788  0.1830 -0.2518
 6763TIP3    H120253   5.994   0.809   3.404 -2.0713  1.2506  0.7981
 6763TIP3    H220254   5.970   0.761   3.546  0.0433 -0.7928  0.5163
 6764TIP3   OH220255   0.848   5.151   1.584 -0.2313  0.1900 -0.7802
 6764TIP3    H120256   0.810   5.237   1.569 -2.0250 -0.7522 -1.8592
 6764TIP3    H220257   0.939   5.159   1.554  0.1436  2.1363  0.7078
 6765TIP3   OH220258   7.007   3.027   3.139  0.2150 -0.7972  0.5952
 6765TIP3    H120259   6.935   3.020   3.202 -0.6094  0.4711 -0.1532
 6765TIP3    H220260   7.038   3.118   3.149  0.5482 -0.8044 -0.3246
 6766TIP3   OH220261   4.382   4.114   0.444 -0.0395 -0.2039  0.3462
 6766TIP3    H120262   4.436   4.177   0.492 -0.7146  0.5062  0.2004
 6766TIP3    H220263   4.346   4.165   0.371 -0.6330 -0.7432  0.2535
 6767TIP3   OH220264   5.661   1.943   3.605 -0.0252 -0.4182 -0.2696
 6767TIP3    H120265   5.748   1.951   3.645 -0.7746  1.4901  1.1459
 6767TIP3    H220266   5.653   1.850   3.582  2.3443 -0.6391 -0.3811
 6768TIP3   OH220267   4.577   6.112   2.400 -0.2732 -0.6696  0.0678
 6768TIP3    H120268   4.559   6.116   2.494 -0.2225 -0.8975  0.0859
 6768TIP3    H220269   4.664   6.074   2.394 -0.3770 -0.8829 -0.0845
 6769TIP3   OH220270   1.874   1.991   1.188  0.2062 -0.3878 -0.5741
 6769TIP3    H120271   1.791   1.996   1.140  0.0086  0.2610 -0.1786
 6769TIP3    H220272   1.853   1.939   1.266  0.6497 -1.8831 -1.4082
 6770TIP3   OH220273   0.251   2.726   3.304 -0.3239 -0.3984 -0.0059
 6770TIP3    H120274   0.200   2.798   3.268 -0.4706 -0.4513  0.0945
 6770TIP3    H220275   0.235   2.652   3.245  0.5781 -0.0931 -0.6486
 6771TIP3   OH220276   5.347   5.470   3.498 -0.1997  0.3124 -0.1314
 6771TIP3    H120277   5.428   5.452   3.545 -0.5134 -1.5049 -0.1819
 6771TIP3    H220278   5.338   5.565   3.499  1.1074  0.4552  1.2427
 6772TIP3   OH220279   0.263   1.990   2.231  0.3278 -0.5405  0.1852
 6772TIP3    H120280   0.330   1.974   2.297  0.1406 -0.2738  0.4421
 6772TIP3    H220281   0.183   2.003   2.282  0.2100 -0.1926 -0.0870
 6773TIP3   OH220282   3.895   3.554   2.115  0.5049  0.5409  0.3211
 6773TIP3    H120283   3.837   3.585   2.184 -0.0857  2.3868 -0.9254
 6773TIP3    H220284   3.860   3.592   2.034  2.6142  0.5656 -0.6626
 6774TIP3   OH220285   1.835   0.230   3.904  0.5654 -0.2939 -0.9661
 6774TIP3    H120286   1.766   0.176   3.867  1.0766 -0.5808 -1.5105
 6774TIP3    H220287   1.858   0.291   3.834 -1.1948  1.8239  0.1700
 6775TIP3   OH220288   5.695   4.011   2.368 -0.2584 -0.3119 -0.6928
 6775TIP3    H120289   5.698   3.925   2.326  0.0064  0.4462 -2.3271
 6775TIP3    H220290   5.772   4.056   2.335 -1.2227  1.0881 -1.1338
 6776TIP3   OH220291   2.154   3.134   4.648  0.4256 -0.3669  0.1648
 6776TIP3    H120292   2.176   3.167   4.736  0.0705 -0.1871  0.1885
 6776TIP3    H220293   2.219   3.066   4.631  2.2637  1.4257 -0.5472
 6777TIP3   OH220294   3.604   0.862   2.413  0.4342 -0.4424  0.4845
 6777TIP3    H120295   3.516   0.823   2.418  0.1401 -0.1099 -1.2523
 6777TIP3    H220296   3.662   0.787   2.397  0.3883 -0.6004  1.0549
 6778TIP3   OH220297   4.947   3.667   5.118  0.1125  0.1607  0.9066
 6778TIP3    H120298   4.967   3.737   5.056  0.0653 -2.0802 -1.8609
 6778TIP3    H220299   4.856   3.683   5.143 -0.0247  0.8836  0.0107
 6779TIP3   OH220300   3.646   6.170   4.946  0.0733  0.4342 -0.0503
 6779TIP3    H120301   3.572   6.213   4.903  0.7688  0.5165 -1.2210
 6779TIP3    H220302   3.714   6.237   4.951  0.6108 -0.0671 -0.4331
 6780TIP3   OH220303   5.339   1.538   2.928  0.2940 -0.5047  0.5124
 6780TIP3    H120304   5.426   1.567   2.902 -0.4530  0.1673 -1.4827
 6780TIP3    H220305   5.314   1.597   3.000  0.5220  0.9813 -0.5876
 6781TIP3   OH220306   2.330   6.359   5.272 -0.0955 -0.1970 -0.3194
 6781TIP3    H120307   2.364   6.305   5.201 -1.0618  0.9113 -1.6806
 6781TIP3    H220308   2.333   6.448   5.238  2.0641  0.7802  2.1038
 6782TIP3   OH220309   2.429   1.548   4.210  0.3542 -0.6245  0.0126
 6782TIP3    H120310   2.431   1.498   4.129  0.7588 -1.6816  0.6489
 6782TIP3    H220311   2.437   1.482   4.279  1.1455  0.3349  0.8719
 6783TIP3   OH220312   2.479   1.723   5.574  0.9381 -0.3405  0.2633
 6783TIP3    H120313   2.565   1.707   5.613  0.1402 -1.4941  1.6402
 6783TIP3    H220314   2.465   1.648   5.516  1.3254  0.4348 -0.8735
 6784TIP3   OH220315   7.158   5.696   3.833  0.7047  0.6951 -0.1986
 6784TIP3    H120316   7.099   5.622   3.818 -1.2101  2.1825 -0.4927
 6784TIP3    H220317   7.223   5.689   3.764  2.1611 -2.1208  1.3040
 6785TIP3   OH220318   5.583   6.202   2.182  0.0387  0.0285  0.2623
 6785TIP3    H120319   5.577   6.170   2.092  1.4329 -0.0568  0.1916
 6785TIP3    H220320   5.538   6.287   2.179 -0.7587 -0.3969 -0.2882
 6786TIP3   OH220321   0.767   3.673   4.465  0.6063 -0.3344  0.2090
 6786TIP3    H120322   0.745   3.680   4.558  1.8702  0.8974  0.4378
 6786TIP3    H220323   0.685   3.647   4.423 -0.2133  0.0022  1.5477
 6787TIP3   OH220324   2.660   3.694   2.014 -0.1761  0.2174 -0.0421
 6787TIP3    H120325   2.721   3.764   2.036 -0.7321  1.6225 -2.5157
 6787TIP3    H220326   2.578   3.719   2.058  0.4912 -0.7637  1.8682
 6788TIP3   OH220327   0.448   5.338  -0.007  0.0523  0.0877 -0.2468
 6788TIP3    H120328   0.443   5.425  -0.045  0.4017  0.0746 -0.3244
 6788TIP3    H220329   0.480   5.352   0.082 -2.6638  0.3277  0.8142
 6789TIP3   OH220330   0.462   0.058   5.525  0.3179  0.1378  0.0680
 6789TIP3    H120331   0.522   0.026   5.592  0.1973 -0.0176  0.1041
 6789TIP3    H220332   0.396   0.108   5.575  1.8766  2.6345 -0.2005
 6790TIP3   OH220333   5.579   0.766   0.979 -0.1997  0.0576 -0.6596
 6790TIP3    H120334   5.572   0.836   1.043  0.1813  0.7713 -1.3752
 6790TIP3    H220335   5.515   0.788   0.912  0.2519 -0.0136 -1.1267
 6791TIP3   OH220336   0.112   2.848   0.086 -0.2918 -0.2492 -0.0658
 6791TIP3    H120337   0.162   2.911   0.033 -1.2370  0.0206 -0.6605
 6791TIP3    H220338   0.151   2.854   0.173  0.3984  0.2972 -0.3980
 6792TIP3   OH220339   2.871   0.568   4.794  0.3708  0.5235  0.2272
 6792TIP3    H120340   2.824   0.646   4.824  2.1613  1.6781  0.2055
 6792TIP3    H220341   2.871   0.575   4.698  0.4499  0.4439  0.2213
 6793TIP3   OH220342   7.040   0.830   0.093 -0.5033  0.1673  0.4043
 6793TIP3    H120343   7.071   0.740   0.107 -0.2441  0.3572  1.1288
 6793TIP3    H220344   7.052   0.872   0.178 -1.6158  0.5989  0.3540
 6794TIP3   OH220345   6.902   6.528   4.443 -0.4170 -0.2052  0.1339
 6794TIP3    H120346   6.923   6.567   4.358  3.6419  1.6002  1.7054
 6794TIP3    H220347   6.849   6.595   4.487 -0.3329 -0.0251 -0.0387
 6795TIP3   OH220348   4.931   2.609   0.988 -0.3943 -0.0315  0.2965
 6795TIP3    H120349   4.872   2.619   0.913 -1.3221 -0.5148  0.9278
 6795TIP3    H220350   4.959   2.517   0.984 -1.3848 -0.3974  1.1727
 6796TIP3   OH220351   3.154   0.328   2.951  0.1023  0.1012 -0.0262
 6796TIP3    H120352   3.069   0.345   2.910  0.2336  3.1474  0.7238
 6796TIP3    H220353   3.132   0.276   3.029 -1.2208  1.2546  0.4377
 6797TIP3   OH220354   5.821   1.717   3.763  0.1055 -0.4132  0.1391
 6797TIP3    H120355   5.855   1.806   3.774 -0.9244  0.2819 -1.8478
 6797TIP3    H220356   5.814   1.706   3.668 -1.3065 -2.0221  0.3916
 6798TIP3   OH220357   0.793   2.898   0.327  0.7725 -0.5862 -0.2805
 6798TIP3    H120358   0.877   2.940   0.309 -0.4796  1.2525 -2.1500
 6798TIP3    H220359   0.753   2.952   0.395  0.1435 -0.0464 -1.0561
 6799TIP3   OH220360   5.474   3.444   0.503  0.0590 -0.2720 -0.8422
 6799TIP3    H120361   5.533   3.492   0.445  0.6578 -1.6759 -1.4295
 6799TIP3    H220362   5.423   3.387   0.445  2.3668 -3.5743  0.0572
 6800TIP3   OH220363   0.337   6.575   5.287  0.2671  1.1094  0.2317
 6800TIP3    H120364   0.296   6.601   5.204  0.7605 -1.3910 -0.8702
 6800TIP3    H220365   0.425   6.548   5.262 -0.9791 -4.3830  0.5438
 6801TIP3   OH220366   3.294   3.964   2.145  0.5176  0.3870  0.1301
 6801TIP3    H120367   3.215   4.008   2.173 -0.2181 -0.3488 -0.7257
 6801TIP3    H220368   3.266   3.875   2.123  1.2282  0.6081 -1.8759
 6802TIP3   OH220369   2.814   4.618   0.883 -0.3620  0.1417  0.2466
 6802TIP3    H120370   2.797   4.669   0.803 -0.6222  0.3060  0.4051
 6802TIP3    H220371   2.750   4.651   0.946  1.4929  1.8360  1.3313
 6803TIP3   OH220372   5.762   5.238   1.203 -0.0990 -0.4924 -0.0378
 6803TIP3    H120373   5.731   5.277   1.285 -0.5468 -1.2540  0.1586
 6803TIP3    H220374   5.736   5.301   1.136 -0.7350 -0.3946  0.2904
 6804TIP3   OH220375   6.906   5.227   0.676 -0.4193 -0.0483  1.0387
 6804TIP3    H120376   6.957   5.296   0.718  0.1250  0.7175 -0.7787
 6804TIP3    H220377   6.923   5.149   0.728  2.4424  0.2383  0.6625
 6805TIP3   OH220378   7.138   6.094   0.516  0.3714  0.0617 -0.2524
 6805TIP3    H120379   7.203   6.137   0.572  0.9384 -0.5199 -0.4459
 6805TIP3    H220380   7.068   6.158   0.506  0.3376  0.2438  0.9906
 6806TIP3   OH220381   5.757   6.399   0.088 -0.0768  0.1155  0.3303
 6806TIP3    H120382   5.825   6.465   0.078 -1.2788  1.2550 -0.6108
 6806TIP3    H220383   5.765   6.345   0.010 -1.3687  1.3469 -0.6933
 6807TIP3   OH220384   4.197   0.013   0.105 -0.2037  0.3059  0.2724
 6807TIP3    H120385   4.205   0.077   0.176  0.9296 -0.7407  1.1357
 6807TIP3    H220386   4.128   0.048   0.049 -0.4865  1.6363  1.3907
 6808TIP3   OH220387   2.278   6.557   4.267  0.0628  0.1082 -0.9720
 6808TIP3    H120388   2.343   6.487   4.280  0.6931  0.7979 -0.3099
 6808TIP3    H220389   2.330   6.634   4.243 -0.6082  0.4115 -1.4722
 6809TIP3   OH220390   5.229   5.072   0.645  0.3905  0.3066 -0.1470
 6809TIP3    H120391   5.134   5.065   0.656  0.5815 -1.7509  0.7095
 6809TIP3    H220392   5.265   5.031   0.723  1.9804 -0.1891 -1.0920
 6810TIP3   OH220393   2.173   1.892   3.139 -0.1118 -0.2756 -0.4152
 6810TIP3    H120394   2.124   1.896   3.057 -0.1999  0.2720 -0.3365
 6810TIP3    H220395   2.252   1.841   3.117 -1.3793 -2.4537 -0.1916
 6811TIP3   OH220396   5.142   4.858   1.349  0.1255 -0.1398  0.2298
 6811TIP3    H120397   5.163   4.802   1.423  1.5949  0.3019  0.1922
 6811TIP3    H220398   5.116   4.942   1.388 -0.3695 -0.3125  0.2659
 6812TIP3   OH220399   4.250   2.722   4.458  0.1023 -0.3085  0.4121
 6812TIP3    H120400   4.210   2.757   4.378 -0.0070 -0.5009  0.3822
 6812TIP3    H220401   4.209   2.636   4.469  1.3875 -1.0381 -0.2933
 6813TIP3   OH220402   0.884   3.517   5.220  0.2110 -0.3992 -0.3412
 6813TIP3    H120403   0.962   3.511   5.164  0.4314 -0.7388 -0.0062
 6813TIP3    H220404   0.917   3.555   5.302  0.0608 -0.7239 -0.1294
 6814TIP3   OH220405   1.222   5.811   4.048  0.3328  0.4204 -0.1962
 6814TIP3    H120406   1.251   5.734   4.097  0.3310  0.1067 -0.6742
 6814TIP3    H220407   1.146   5.781   3.999 -0.1138  0.9330  0.1787
 6815TIP3   OH220408   0.267   3.054   5.077 -0.0020 -0.0193  0.1045
 6815TIP3    H120409   0.180   3.014   5.079  0.7564 -1.7708 -0.1792
 6815TIP3    H220410   0.266   3.108   4.998 -0.7086 -0.2740 -0.0714
 6816TIP3   OH220411   6.091   6.143   3.123 -0.1670  0.6451  0.0014
 6816TIP3    H120412   6.119   6.233   3.141  0.2618  0.2506  1.4837
 6816TIP3    H220413   6.102   6.098   3.207  1.6550 -1.3081 -1.1931
 6817TIP3   OH220414   3.729   3.433   5.535 -0.0042  0.2854 -0.1876
 6817TIP3    H120415   3.807   3.380   5.550  0.7436  0.8743 -1.7770
 6817TIP3    H220416   3.761   3.522   5.521 -1.0704  0.7747  0.2937
 6818TIP3   OH220417   6.437   2.500   5.636  0.0012 -0.2565 -0.7370
 6818TIP3    H120418   6.418   2.540   5.551 -0.6777 -0.9910 -0.9341
 6818TIP3    H220419   6.507   2.555   5.672 -0.4680  0.7376 -1.2782
 6819TIP3   OH220420   2.140   1.056   0.563  0.3520  0.2939  0.0790
 6819TIP3    H120421   2.133   1.038   0.656  0.1466  2.1175  0.4568
 6819TIP3    H220422   2.071   1.003   0.523 -0.6252  0.7109  1.1671
 6820TIP3   OH220423   2.232   1.212   4.580 -0.3433  0.3073  0.1105
 6820TIP3    H120424   2.273   1.130   4.554 -0.2272  0.6250 -0.7258
 6820TIP3    H220425   2.139   1.193   4.584 -0.1559 -0.5242  2.3920
 6821TIP3   OH220426   2.204   0.332   2.213 -0.0877 -0.0220 -0.2913
 6821TIP3    H120427   2.265   0.309   2.283 -1.9849  1.1174  1.8615
 6821TIP3    H220428   2.235   0.417   2.181  0.2524 -0.1069 -0.1912
 6822TIP3   OH220429   5.530   5.454   4.753  0.1724 -0.0637 -0.6024
 6822TIP3    H120430   5.439   5.480   4.765 -0.0277 -0.4067 -1.2835
 6822TIP3    H220431   5.580   5.532   4.775 -0.1938 -0.3012  1.1777
 6823TIP3   OH220432   5.967   1.905   0.118 -0.0519  0.3651  0.3343
 6823TIP3    H120433   5.922   1.867   0.043  0.1449  2.0730 -0.6905
 6823TIP3    H220434   5.907   1.889   0.192 -0.9474 -0.0119 -0.4480
 6824TIP3   OH220435   0.179   5.463   1.914 -0.5033  0.2599  0.4745
 6824TIP3    H120436   0.086   5.487   1.905 -0.8545 -1.0870  0.3961
 6824TIP3    H220437   0.178   5.372   1.940  0.8036 -0.6833 -2.3340
 6825TIP3   OH220438   4.969   1.279   4.782  0.6380  0.6780  0.7189
 6825TIP3    H120439   4.920   1.361   4.781  0.2508  0.4534  1.4450
 6825TIP3    H220440   4.963   1.247   4.872  2.0311  0.5999  0.8146
 6826TIP3   OH220441   7.201   0.224   2.826  0.2437 -0.3417 -0.3039
 6826TIP3    H120442   7.210   0.254   2.916 -0.9215 -1.7174  0.3321
 6826TIP3    H220443   7.182   0.303   2.776  1.2387  0.4963  0.5821
 6827TIP3   OH220444   3.922   5.414   0.261 -0.1971  0.2603 -0.0913
 6827TIP3    H120445   3.876   5.498   0.259  1.6762  1.3342 -0.8910
 6827TIP3    H220446   3.873   5.361   0.325 -1.9249  1.6359 -0.2051
 6828TIP3   OH220447   0.962   5.088   5.411  0.2123  0.1591 -0.3623
 6828TIP3    H120448   1.040   5.124   5.453 -0.0711  0.0036  0.3174
 6828TIP3    H220449   0.901   5.074   5.483 -0.1163 -0.5665 -0.7729
 6829TIP3   OH220450   4.614   4.156   2.157  0.2178  0.0220 -0.1135
 6829TIP3    H120451   4.539   4.191   2.206 -2.3207 -0.1746 -3.5065
 6829TIP3    H220452   4.655   4.233   2.118 -0.3017 -0.0869 -0.9064
 6830TIP3   OH220453   4.443   6.705   5.715 -0.5788  0.0116 -0.1395
 6830TIP3    H120454   4.415   6.754   5.793  2.5781 -0.6963  1.5717
 6830TIP3    H220455   4.522   6.660   5.742  1.6974  1.0771 -4.2686
 6831TIP3   OH220456   2.345   4.490   3.291 -0.7947  0.1650 -0.5104
 6831TIP3    H120457   2.261   4.444   3.288 -0.8247 -0.2875  3.0986
 6831TIP3    H220458   2.408   4.427   3.255 -1.2300 -1.8319  1.9699
 6832TIP3   OH220459   6.706   0.149   0.769 -0.1043  0.1648 -0.2286
 6832TIP3    H120460   6.730   0.057   0.769 -0.8790 -0.0475 -0.6711
 6832TIP3    H220461   6.752   0.186   0.693  1.7852  0.5967  1.0688
 6833TIP3   OH220462   5.078   0.611   1.515 -0.0928  0.4713 -0.0993
 6833TIP3    H120463   5.068   0.691   1.463  0.3554  0.8428  0.3748
 6833TIP3    H220464   5.053   0.541   1.455  2.9909  0.6303 -1.7650
 6834TIP3   OH220465   4.028   2.069   3.915  0.0459  0.4182  0.1853
 6834TIP3    H120466   4.028   2.165   3.913 -0.1198  0.5247  2.5960
 6834TIP3    H220467   4.121   2.046   3.919  0.1955  0.3293 -2.1548
 6835TIP3   OH220468   6.906   5.174   3.308 -0.0764 -0.0507  0.3073
 6835TIP3    H120469   6.846   5.132   3.369  0.1981  1.2327  1.5248
 6835TIP3    H220470   6.992   5.166   3.348  0.1420  0.6421  0.0079
 6836TIP3   OH220471   3.129   4.144   5.087  0.0291 -0.0239 -0.1517
 6836TIP3    H120472   3.069   4.197   5.035  0.0656 -2.0964 -2.5041
 6836TIP3    H220473   3.179   4.093   5.022  3.4513  0.6076  1.7318
 6837TIP3   OH220474   0.293   0.537   2.241  0.4638  0.0875 -0.3494
 6837TIP3    H120475   0.258   0.613   2.286  0.3287 -0.7891  1.0778
 6837TIP3    H220476   0.299   0.564   2.149  0.1831  1.7112  0.0859
 6838TIP3   OH220477   3.033   5.500   3.627  0.3974  0.6171 -0.5425
 6838TIP3    H120478   2.967   5.434   3.606  0.3980  0.7051 -0.8277
 6838TIP3    H220479   3.116   5.451   3.629  0.2073  0.3190  0.8089
 6839TIP3   OH220480   3.486   5.239   5.494  0.3916 -0.3911  0.1483
 6839TIP3    H120481   3.536   5.248   5.575  1.6802  2.0760 -0.8248
 6839TIP3    H220482   3.395   5.254   5.521  0.8041  0.4545  1.1466
 6840TIP3   OH220483   1.467   6.171   3.534  0.3633 -0.2112 -0.3750
 6840TIP3    H120484   1.459   6.168   3.438  1.0555 -1.1828 -0.4144
 6840TIP3    H220485   1.549   6.219   3.549  0.8142 -0.9992 -0.3009
 6841TIP3   OH220486   5.431   2.768   3.137 -0.3774  0.0034  0.3626
 6841TIP3    H120487   5.409   2.684   3.177 -0.7504  0.3662  0.9426
 6841TIP3    H220488   5.364   2.781   3.070  2.1632 -2.2184 -2.8955
 6842TIP3   OH220489   6.784   0.379   4.194  0.7243 -0.0283 -0.1681
 6842TIP3    H120490   6.698   0.375   4.235  0.3016  1.2097 -0.8642
 6842TIP3    H220491   6.790   0.300   4.141 -1.4207  1.3646 -2.7427
 6843TIP3   OH220492   1.048   3.040   4.354  0.1661  0.2774 -0.3603
 6843TIP3    H120493   1.090   2.956   4.333 -1.4035 -0.2544 -1.5099
 6843TIP3    H220494   1.023   3.031   4.446  0.2913 -0.3998 -0.3817
 6844TIP3   OH220495   2.747   5.492   0.775  0.1516 -0.0589  0.0977
 6844TIP3    H120496   2.802   5.566   0.800 -1.4014  1.2876 -0.2487
 6844TIP3    H220497   2.720   5.452   0.857 -0.5373  0.9692  0.3881
 6845TIP3   OH220498   6.852   1.863   2.700 -0.4544  0.3616 -0.0801
 6845TIP3    H120499   6.797   1.880   2.624 -1.5476  1.0567  0.8356
 6845TIP3    H220500   6.931   1.914   2.685 -0.4032  0.0222 -1.0135
 6846TIP3   OH220501   5.452   6.397   1.747  0.3144  0.2992  0.2118
 6846TIP3    H120502   5.422   6.384   1.657  0.3268  0.6130  0.1628
 6846TIP3    H220503   5.492   6.313   1.770 -3.5696 -1.4034  1.4963
 6847TIP3   OH220504   4.751   0.418   0.633 -0.5400 -0.0083  0.0479
 6847TIP3    H120505   4.681   0.417   0.568 -0.2509 -3.3068 -0.3977
 6847TIP3    H220506   4.722   0.359   0.702  0.8853  0.2625  0.9338
 6848TIP3   OH220507   3.676   3.694   5.717  0.1096  0.1511 -0.4823
 6848TIP3    H120508   3.613   3.720   5.785 -1.6399 -2.9219 -0.7398
 6848TIP3    H220509   3.742   3.643   5.764 -0.9714 -1.7743 -0.9779
 6849TIP3   OH220510   1.529   2.356   5.347  0.2243 -0.3760 -0.0468
 6849TIP3    H120511   1.452   2.341   5.401 -0.3086  1.7603 -0.1176
 6849TIP3    H220512   1.497   2.346   5.257  0.0037  0.5704 -0.0781
 6850TIP3   OH220513   3.310   6.008   2.283  0.4057 -0.3069 -0.1820
 6850TIP3    H120514   3.300   6.013   2.188  1.3664  3.7169 -0.2474
 6850TIP3    H220515   3.404   6.015   2.297  0.2236 -0.2107  1.0855
 6851TIP3   OH220516   3.613   2.213   2.181  0.1083 -0.8993  0.5665
 6851TIP3    H120517   3.621   2.143   2.116  1.2496  0.7392 -1.1973
 6851TIP3    H220518   3.694   2.208   2.231  0.6416 -0.2755 -0.2077
 6852TIP3   OH220519   1.438   6.228   3.016  0.1227  1.1784  0.3479
 6852TIP3    H120520   1.500   6.225   2.943 -0.5236  1.1020 -0.2040
 6852TIP3    H220521   1.399   6.141   3.019 -0.8818  1.5913 -0.1293
 6853TIP3   OH220522   3.878   6.297   2.250  0.0943  0.4308  0.5700
 6853TIP3    H120523   3.961   6.344   2.257  0.3886  0.0647 -0.3630
 6853TIP3    H220524   3.813   6.365   2.238 -0.0478  0.8886  3.2838
 6854TIP3   OH220525   0.859   4.271   5.744  0.3379 -0.4248  0.0088
 6854TIP3    H120526   0.790   4.321   5.700  0.9045 -0.8539 -1.4047
 6854TIP3    H220527   0.873   4.318   5.826 -0.7220  0.4199 -0.2716
 6855TIP3   OH220528   3.922   1.977   2.844 -0.2146  0.3152  0.6750
 6855TIP3    H120529   4.002   2.000   2.798 -0.3891  1.7320  1.0105
 6855TIP3    H220530   3.942   1.895   2.889  0.4304 -0.3002 -0.6982
 6856TIP3   OH220531   0.154   5.811   1.999 -0.2521  0.4068  0.3777
 6856TIP3    H120532   0.207   5.780   1.925  0.2566  1.1046  0.4392
 6856TIP3    H220533   0.074   5.845   1.959  0.4430  1.6977  0.0394
 6857TIP3   OH220534   4.142   1.299   3.986 -0.2740  0.3075 -0.1692
 6857TIP3    H120535   4.147   1.257   3.900 -0.5924  0.5490 -0.3058
 6857TIP3    H220536   4.123   1.227   4.046  1.4111 -0.1095 -0.0859
 6858TIP3   OH220537   0.600   5.624   0.651 -0.6491 -0.2355 -0.4070
 6858TIP3    H120538   0.603   5.557   0.720  1.2321 -0.3453 -0.5369
 6858TIP3    H220539   0.634   5.703   0.694 -0.0323 -0.1497 -1.0448
 6859TIP3   OH220540   4.417   0.714   4.923  0.4984 -0.2655  0.3388
 6859TIP3    H120541   4.453   0.681   5.005 -0.1874 -0.9561  0.3729
 6859TIP3    H220542   4.387   0.636   4.877  0.4474  0.1612 -0.3673
 6860TIP3   OH220543   0.545   3.902   5.073 -0.0103  0.0946 -0.1785
 6860TIP3    H120544   0.504   3.816   5.079 -1.9569  1.0442  1.2485
 6860TIP3    H220545   0.513   3.938   4.990  0.7879 -0.4894 -0.7653
 6861TIP3   OH220546   6.637   0.385   5.656  0.5903  0.1014  0.3876
 6861TIP3    H120547   6.632   0.326   5.731 -1.6138 -0.3554 -0.0466
 6861TIP3    H220548   6.610   0.470   5.690  0.0153 -0.0067  0.1965
 6862TIP3   OH220549   6.338   3.025   1.125  0.0094  0.4807  0.3804
 6862TIP3    H120550   6.419   3.038   1.175  0.0995  0.6775  0.1844
 6862TIP3    H220551   6.279   3.093   1.158 -0.3601 -0.1730  1.1071
 6863TIP3   OH220552   2.220   0.217   1.051 -0.3278 -0.3945  0.3445
 6863TIP3    H120553   2.245   0.278   1.120  0.7385 -1.4821  0.9532
 6863TIP3    H220554   2.126   0.230   1.041 -0.1824  1.1212  0.6626
 6864TIP3   OH220555   5.209   1.681   2.291 -0.5944 -0.0803 -0.0142
 6864TIP3    H120556   5.235   1.729   2.212 -0.9040  1.8441  1.0053
 6864TIP3    H220557   5.193   1.749   2.356  0.3694 -1.6444  1.9465
 6865TIP3   OH220558   2.053   2.082   4.555  0.1348 -0.4157  1.2928
 6865TIP3    H120559   2.049   2.145   4.483  1.9617 -0.7138  0.8792
 6865TIP3    H220560   2.067   1.998   4.512 -0.2015 -0.8116  1.9448
 6866TIP3   OH220561   3.350   1.706   2.690 -0.6678 -0.0368  0.1184
 6866TIP3    H120562   3.359   1.627   2.637 -1.3705  0.7834 -1.2808
 6866TIP3    H220563   3.406   1.771   2.647 -0.4260  0.3552  0.9974
 6867TIP3   OH220564   4.582   2.711   3.098  0.4834 -0.1805  0.6805
 6867TIP3    H120565   4.609   2.798   3.066 -0.5635  0.2685  0.9682
 6867TIP3    H220566   4.494   2.699   3.063  1.1094 -1.7272 -0.4563
 6868TIP3   OH220567   6.275   4.559   0.530 -0.1087  0.4560  0.5835
 6868TIP3    H120568   6.256   4.602   0.613  1.1686  1.2158  0.5113
 6868TIP3    H220569   6.356   4.600   0.500 -0.9413  0.7572 -1.4273
 6869TIP3   OH220570   2.744   0.906   3.406 -0.4842  0.4595  0.0032
 6869TIP3    H120571   2.654   0.889   3.436 -0.8459  0.9334 -0.7549
 6869TIP3    H220572   2.735   0.982   3.348  0.2100 -0.2647 -1.0879
 6870TIP3   OH220573   2.214   0.469   5.134  0.1319  0.3550 -0.3151
 6870TIP3    H120574   2.222   0.419   5.053  0.4006  0.3645 -0.2941
 6870TIP3    H220575   2.129   0.512   5.127 -0.4670 -0.7277  0.0181
 6871TIP3   OH220576   5.760   3.874   4.592 -0.6498 -0.1994  0.1371
 6871TIP3    H120577   5.718   3.830   4.519 -0.2654  0.0686 -0.2559
 6871TIP3    H220578   5.733   3.825   4.670 -1.1691 -0.4038 -0.1708
 6872TIP3   OH220579   3.144   6.757   4.229 -0.8349 -0.0972 -0.4260
 6872TIP3    H120580   3.116   6.838   4.271  1.4114  1.4868 -1.7284
 6872TIP3    H220581   3.122   6.769   4.137 -2.1429 -1.8196 -0.3884
 6873TIP3   OH220582   6.785   0.324   2.777  0.0717 -0.0427 -0.0168
 6873TIP3    H120583   6.839   0.246   2.786  0.4677 -0.3903 -3.9030
 6873TIP3    H220584   6.700   0.298   2.812  0.5160 -1.8195 -0.1597
 6874TIP3   OH220585   5.064   6.456   3.519  0.6162  0.4595 -0.1001
 6874TIP3    H120586   5.026   6.483   3.435 -0.3284 -0.4267  0.0230
 6874TIP3    H220587   5.065   6.361   3.516  2.1871  0.4516  0.2115
 6875TIP3   OH220588   6.918   4.830   5.648  0.1510  0.1406 -0.0260
 6875TIP3    H120589   6.869   4.896   5.697  1.4396  0.4610  0.8875
 6875TIP3    H220590   6.862   4.808   5.574 -1.1586  0.8090  0.7421
 6876TIP3   OH220591   0.547   1.886   2.030 -0.6261 -0.4421 -0.1880
 6876TIP3    H120592   0.530   1.908   1.939 -0.8595 -1.2984 -0.3597
 6876TIP3    H220593   0.521   1.963   2.080 -1.1000 -0.2149 -0.7916
 6877TIP3   OH220594   0.382   1.412   1.615  0.0401 -0.2219 -0.4937
 6877TIP3    H120595   0.396   1.319   1.631 -0.7383 -0.0997  1.1014
 6877TIP3    H220596   0.431   1.455   1.686 -1.8351  0.4605  0.4358
 6878TIP3   OH220597   3.284   5.799   0.638  0.1678  0.0159 -0.2955
 6878TIP3    H120598   3.327   5.769   0.718  0.7889  0.2707 -0.5260
 6878TIP3    H220599   3.206   5.846   0.669  0.9006  0.9178  0.2031
 6879TIP3   OH220600   1.184   5.611   2.107 -0.5668  0.1211  0.0664
 6879TIP3    H120601   1.122   5.578   2.042  0.3720 -0.6180 -0.4780
 6879TIP3    H220602   1.242   5.537   2.125  1.7769  1.5039 -1.4034
 6880TIP3   OH220603   6.027   4.152   2.514  0.1373 -0.1777 -0.4143
 6880TIP3    H120604   6.035   4.240   2.548 -0.7658 -0.3337  0.2401
 6880TIP3    H220605   5.943   4.120   2.547  0.8934 -1.6469  0.2032
 6881TIP3   OH220606   1.536   3.785   4.714 -0.4122 -0.3966  0.1076
 6881TIP3    H120607   1.615   3.835   4.734 -2.5436  3.9855 -1.1321
 6881TIP3    H220608   1.533   3.716   4.781  2.9962  0.9038  1.8343
 6882TIP3   OH220609   3.247   1.504   3.026  0.4579  0.7175  0.2365
 6882TIP3    H120610   3.300   1.584   3.027  2.2700 -0.4127  1.4075
 6882TIP3    H220611   3.294   1.447   2.964  0.3368 -0.1347  0.9239
 6883TIP3   OH220612   6.456   1.232   4.460 -0.3875  0.4962  0.2818
 6883TIP3    H120613   6.493   1.277   4.383 -1.0345  0.7338  0.1074
 6883TIP3    H220614   6.371   1.200   4.430 -0.0982 -0.5307  0.5155
 6884TIP3   OH220615   6.146   3.400   3.224  0.0321  0.6383  0.2671
 6884TIP3    H120616   6.198   3.467   3.181  1.3907 -1.0221 -0.8280
 6884TIP3    H220617   6.109   3.443   3.301 -1.1456  3.2611 -1.6183
 6885TIP3   OH220618   2.084   5.082   0.545 -0.0538 -0.7499  0.0911
 6885TIP3    H120619   2.064   5.094   0.638 -1.0299 -0.6741 -0.1200
 6885TIP3    H220620   2.016   5.130   0.499  2.3391  2.2571 -0.6832
 6886TIP3   OH220621   6.428   3.734   1.561 -0.6468  0.1642 -0.0689
 6886TIP3    H120622   6.414   3.715   1.654 -0.3975 -1.8531 -0.3878
 6886TIP3    H220623   6.516   3.770   1.557 -1.0220  1.1843  0.5732
 6887TIP3   OH220624   3.940   2.408   5.160 -0.1539 -1.1145  0.1995
 6887TIP3    H120625   3.863   2.352   5.148 -1.0542  0.5477 -2.5216
 6887TIP3    H220626   3.914   2.469   5.229 -0.7639 -1.3595  0.1999
 6888TIP3   OH220627   0.847   0.926   5.396  0.1408  0.1400 -0.2892
 6888TIP3    H120628   0.796   1.005   5.415  0.4148  1.2191 -3.3763
 6888TIP3    H220629   0.937   0.957   5.384  0.5353 -0.8814 -0.1074
 6889TIP3   OH220630   2.450   5.546   2.069 -0.1530  0.1004 -0.1140
 6889TIP3    H120631   2.419   5.473   2.014  0.2797  0.3701 -0.7320
 6889TIP3    H220632   2.377   5.565   2.127 -0.5109 -0.4031 -0.3917
 6890TIP3   OH220633   6.046   2.299   3.554  0.2105  0.2322  0.3247
 6890TIP3    H120634   6.046   2.213   3.511 -0.2602  0.3221  0.1461
 6890TIP3    H220635   6.124   2.297   3.609  0.1864 -0.3268  0.3487
 6891TIP3   OH220636   4.298   5.094   4.806 -0.3267  0.2132  0.2165
 6891TIP3    H120637   4.285   4.999   4.804  1.3729 -0.0462 -0.1726
 6891TIP3    H220638   4.298   5.119   4.714 -2.0409  0.8165  0.3525
 6892TIP3   OH220639   6.349   0.841   2.746 -0.7378  0.2364 -0.3709
 6892TIP3    H120640   6.429   0.798   2.775 -0.9083  1.3679  2.0693
 6892TIP3    H220641   6.279   0.796   2.793 -1.2548  0.9423 -0.4507
 6893TIP3   OH220642   1.339   0.525   2.964  0.7412  0.2679 -0.0583
 6893TIP3    H120643   1.270   0.476   3.011 -1.4523  0.5676 -2.7470
 6893TIP3    H220644   1.303   0.612   2.952  1.4192  0.3413 -1.8419
 6894TIP3   OH220645   4.540   2.086   1.257 -0.1903  0.1592  0.2622
 6894TIP3    H120646   4.539   2.146   1.332  1.7022 -2.0783  2.2426
 6894TIP3    H220647   4.512   2.002   1.293  1.8550 -1.2542 -1.2086
 6895TIP3   OH220648   3.150   0.901   1.688  0.1136 -0.1561 -0.3430
 6895TIP3    H120649   3.105   0.830   1.641  2.4457 -1.7512 -0.3356
 6895TIP3    H220650   3.205   0.942   1.621  0.2263  0.4009  0.0881
 6896TIP3   OH220651   4.070   3.295   2.321  0.1636 -0.3104  0.3246
 6896TIP3    H120652   4.089   3.377   2.367  0.8958 -0.5704  0.5000
 6896TIP3    H220653   4.133   3.232   2.358  0.4200 -0.6524 -0.6755
 6897TIP3   OH220654   0.222   2.025   4.727  0.4101 -0.2201 -0.3750
 6897TIP3    H120655   0.208   1.932   4.714  0.5978 -0.2475 -0.3861
 6897TIP3    H220656   0.228   2.061   4.639 -0.2253 -0.1104 -0.3749
 6898TIP3   OH220657   3.550   1.506   0.035  0.4001 -0.1742  0.0668
 6898TIP3    H120658   3.593   1.491  -0.049  0.1299 -0.5198 -0.0140
 6898TIP3    H220659   3.499   1.426   0.050  0.3293 -0.0521  0.4867
 6899TIP3   OH220660   2.619   6.395   2.874 -0.0030 -0.2598  0.2791
 6899TIP3    H120661   2.599   6.486   2.854 -0.6496 -0.3915  0.2976
 6899TIP3    H220662   2.710   6.383   2.847 -0.7846 -0.4102 -2.5024
 6900TIP3   OH220663   2.998   4.469   2.560  0.1312 -0.1237  0.4830
 6900TIP3    H120664   3.008   4.441   2.469  1.7352 -1.4445  1.0246
 6900TIP3    H220665   2.919   4.523   2.559  0.0386 -0.1929 -1.6625
 6901TIP3   OH220666   4.353   1.199   2.812 -0.7860  0.0873  0.4465
 6901TIP3    H120667   4.411   1.265   2.773  1.5587 -1.6827  0.7610
 6901TIP3    H220668   4.307   1.160   2.738  0.3812 -0.2522 -0.1194
 6902TIP3   OH220669   3.795   4.794   3.997 -0.3263  0.0273 -0.0999
 6902TIP3    H120670   3.837   4.879   4.014 -0.9925  0.0908  1.3791
 6902TIP3    H220671   3.867   4.737   3.969  0.6883  0.2957  1.7945
 6903TIP3   OH220672   2.950   0.636   2.241 -0.0053  0.0052  0.5459
 6903TIP3    H120673   2.891   0.653   2.168  0.2476  0.6513  0.4815
 6903TIP3    H220674   3.038   0.643   2.203  0.1286  0.3362  0.9069
 6904TIP3   OH220675   3.180   2.989   4.326 -0.2890  0.7273  0.2305
 6904TIP3    H120676   3.145   2.949   4.405  0.0036  0.2212  0.1042
 6904TIP3    H220677   3.275   2.980   4.334 -0.2776  0.1435 -0.4505
 6905TIP3   OH220678   5.298   5.075   2.894  0.1455  0.1438 -0.3743
 6905TIP3    H120679   5.380   5.038   2.928 -0.4746  0.1592  1.2236
 6905TIP3    H220680   5.286   5.156   2.942 -0.3189  0.6551 -1.3199
 6906TIP3   OH220681   5.537   0.996   4.956  0.5619 -0.1580  0.1437
 6906TIP3    H120682   5.626   0.960   4.950  0.8569  0.2866  1.3791
 6906TIP3    H220683   5.481   0.921   4.973  0.7155 -0.4306 -0.5454
 6907TIP3   OH220684   5.049   5.941   4.813 -0.2406  0.2099 -0.0461
 6907TIP3    H120685   5.096   5.858   4.813  0.0501  0.3718  0.1513
 6907TIP3    H220686   5.058   5.974   4.724  0.4506  0.4785  0.1162
 6908TIP3   OH220687   1.679   6.507   0.090 -0.0404  0.3506 -0.0754
 6908TIP3    H120688   1.714   6.596   0.100  0.0677  0.3256 -0.2249
 6908TIP3    H220689   1.599   6.519   0.040 -0.2885  0.4157  0.3292
 6909TIP3   OH220690   1.653   4.072   1.830 -0.1142  0.4449 -0.1898
 6909TIP3    H120691   1.636   4.023   1.750 -0.6979 -0.1699  0.3033
 6909TIP3    H220692   1.746   4.093   1.826  0.4691 -1.8519  0.2192
 6910TIP3   OH220693   1.055   2.341   4.242  0.0359 -0.5388  0.4678
 6910TIP3    H120694   1.028   2.253   4.216 -1.2867 -0.3818  1.2269
 6910TIP3    H220695   1.109   2.372   4.169  1.5791 -2.4285  0.7257
 6911TIP3   OH220696   6.847   5.963   3.642  0.2209  0.2938  0.2976
 6911TIP3    H120697   6.801   6.046   3.650 -1.2242 -0.4918  0.5024
 6911TIP3    H220698   6.861   5.952   3.548 -0.4510  0.3272  0.1877
 6912TIP3   OH220699   5.210   2.571   3.096 -0.4703 -0.3481  0.1503
 6912TIP3    H120700   5.135   2.512   3.093 -1.7792  1.2264  0.2905
 6912TIP3    H220701   5.192   2.637   3.029 -0.2055  1.1525  1.4732
 6913TIP3   OH220702   4.548   4.056   5.237 -0.4652  0.2181 -0.9403
 6913TIP3    H120703   4.580   4.109   5.311  0.7941  0.7480 -1.8429
 6913TIP3    H220704   4.626   4.014   5.202 -1.2640 -1.1658 -1.1165
 6914TIP3   OH220705   0.131   0.763   2.310  0.6566 -0.0340  0.1986
 6914TIP3    H120706   0.076   0.699   2.354  0.9848  0.0171  0.6886
 6914TIP3    H220707   0.070   0.818   2.262  0.2370  0.3471  1.1571
 6915TIP3   OH220708   5.194   6.372   4.791  0.5083 -0.6650 -0.1395
 6915TIP3    H120709   5.133   6.404   4.725  2.5532  2.5952 -0.6575
 6915TIP3    H220710   5.158   6.403   4.874  0.9712  0.5509 -0.3696
 6916TIP3   OH220711   6.617   6.270   1.276 -0.0583 -0.5395 -0.3534
 6916TIP3    H120712   6.558   6.197   1.257  0.6780 -1.1116 -0.4889
 6916TIP3    H220713   6.704   6.230   1.277  0.2414  0.1081  0.8003
 6917TIP3   OH220714   1.190   1.554   2.906  0.0893 -0.0960  0.2693
 6917TIP3    H120715   1.161   1.638   2.942  0.4150  0.3160 -0.4048
 6917TIP3    H220716   1.286   1.559   2.907  0.1368 -0.8756  1.1665
 6918TIP3   OH220717   4.279   2.004   3.796  0.0545  0.3955  0.5182
 6918TIP3    H120718   4.352   1.985   3.737 -0.3553  0.7577 -0.1040
 6918TIP3    H220719   4.317   1.994   3.884  1.1835  1.7714  0.2160
 6919TIP3   OH220720   4.469   6.126   5.049 -0.3024 -0.4987 -0.4439
 6919TIP3    H120721   4.377   6.131   5.025  0.2352  1.3967 -2.3968
 6919TIP3    H220722   4.495   6.036   5.028 -1.9753 -1.5187  1.5061
 6920TIP3   OH220723   2.091   2.985   0.731 -0.0544 -0.8978  0.2713
 6920TIP3    H120724   2.100   3.080   0.733  0.9369 -0.9477  3.8128
 6920TIP3    H220725   2.011   2.967   0.780  0.3442 -1.9180  0.5740
 6921TIP3   OH220726   7.099   5.943   2.011  0.1217 -0.2993 -0.1376
 6921TIP3    H120727   7.064   5.979   1.930 -0.9578  1.1528  0.9177
 6921TIP3    H220728   7.024   5.901   2.053  0.4149 -0.1558  0.5515
 6922TIP3   OH220729   5.537   4.598   0.668 -0.3000 -0.5270 -0.2985
 6922TIP3    H120730   5.543   4.649   0.749 -0.8775  0.1399 -0.6636
 6922TIP3    H220731   5.624   4.602   0.630 -0.1724 -0.3691  0.0104
 6923TIP3   OH220732   0.854   3.943   2.586 -0.2223 -0.4966 -0.1122
 6923TIP3    H120733   0.802   3.938   2.506 -0.2467 -1.8779 -0.0430
 6923TIP3    H220734   0.795   3.909   2.654 -0.6905  1.8953  0.7888
 6924TIP3   OH220735   2.686   1.607   5.724 -0.0015 -0.7254 -0.1769
 6924TIP3    H120736   2.719   1.608   5.814  0.1485 -0.6876 -0.2312
 6924TIP3    H220737   2.757   1.646   5.673 -0.6288  0.5674 -0.1206
 6925TIP3   OH220738   4.541   4.455   0.868 -0.2480  0.1719 -0.1313
 6925TIP3    H120739   4.552   4.500   0.785 -1.1934  0.3520 -0.1676
 6925TIP3    H220740   4.622   4.474   0.916  0.7641 -0.7879 -1.3824
 6926TIP3   OH220741   3.768   5.991   2.415  0.3801 -0.0069 -0.3234
 6926TIP3    H120742   3.735   5.902   2.409  0.4759 -0.1899  1.3296
 6926TIP3    H220743   3.852   5.983   2.460  0.5875  0.8805 -0.5272
 6927TIP3   OH220744   1.164   2.321   0.051 -0.0435  0.2496  0.3788
 6927TIP3    H120745   1.070   2.308   0.036 -0.0672 -1.7656  1.8186
 6927TIP3    H220746   1.203   2.323  -0.036 -1.1344 -1.7135 -0.2097
 6928TIP3   OH220747   1.782   5.786   1.535 -0.2661 -0.2058 -1.0497
 6928TIP3    H120748   1.824   5.800   1.620 -0.9988  0.5548 -0.7939
 6928TIP3    H220749   1.708   5.728   1.555 -0.4113 -0.0641 -1.1763
 6929TIP3   OH220750   3.290   3.807   0.749 -0.0700  0.5292 -0.0972
 6929TIP3    H120751   3.244   3.856   0.817 -0.4518  1.3395 -0.9220
 6929TIP3    H220752   3.221   3.770   0.695  0.2140 -1.0187  0.5573
 6930TIP3   OH220753   1.602   0.273   2.949  0.2703  0.0909  0.5309
 6930TIP3    H120754   1.669   0.330   2.911 -0.3787  2.6441  2.8251
 6930TIP3    H220755   1.521   0.325   2.944 -0.9418 -1.7305  0.4165
 6931TIP3   OH220756   5.659   5.639   3.547  0.2178  0.4246  0.7501
 6931TIP3    H120757   5.623   5.666   3.463  0.7646  0.6943  0.5983
 6931TIP3    H220758   5.753   5.636   3.534  0.1923 -1.8540  0.6845
 6932TIP3   OH220759   6.620   3.410   2.723  0.2756 -0.2961  0.5407
 6932TIP3    H120760   6.698   3.441   2.676 -0.7233 -0.4758 -1.3078
 6932TIP3    H220761   6.654   3.382   2.808  1.9197  1.5021  0.5663
 6933TIP3   OH220762   1.614   2.601   4.319 -0.3004  0.2618  0.6211
 6933TIP3    H120763   1.587   2.643   4.400 -2.4328  0.0323  0.0665
 6933TIP3    H220764   1.707   2.580   4.334 -0.6862 -0.0210  3.0998
 6934TIP3   OH220765   2.828   1.246   3.866 -0.2099 -0.0582 -0.1555
 6934TIP3    H120766   2.917   1.252   3.902 -0.1739 -0.6726 -0.1356
 6934TIP3    H220767   2.829   1.167   3.813  0.1741  1.5960 -2.8087
 6935TIP3   OH220768   0.927   6.732   1.285 -0.1782  0.8138 -0.4261
 6935TIP3    H120769   0.961   6.667   1.223  0.3092 -0.9416  1.5792
 6935TIP3    H220770   0.848   6.767   1.242 -0.3462 -0.9553 -1.6717
 6936TIP3   OH220771   3.804   2.009   0.623  0.1996  0.2526  0.3154
 6936TIP3    H120772   3.871   2.051   0.677  1.1900  2.1338 -2.1743
 6936TIP3    H220773   3.845   2.001   0.537 -0.7099 -4.1134  0.0638
 6937TIP3   OH220774   5.483   1.355   1.138 -0.3050 -0.2613 -0.2476
 6937TIP3    H120775   5.509   1.274   1.181  1.2425  1.3290  2.0865
 6937TIP3    H220776   5.390   1.364   1.158  0.3331  0.4012  3.0312
 6938TIP3   OH220777   4.822   3.024   4.088 -0.4142 -0.2132  0.5213
 6938TIP3    H120778   4.742   2.980   4.116 -0.8723  1.0116  1.1954
 6938TIP3    H220779   4.835   3.093   4.152  0.6010  0.2770 -0.1925
 6939TIP3   OH220780   2.288   2.820   3.770 -0.6148 -0.0398  0.3542
 6939TIP3    H120781   2.300   2.785   3.681 -1.4265 -0.9694  0.5900
 6939TIP3    H220782   2.322   2.909   3.765  0.3560 -0.4368 -0.6068
 6940TIP3   OH220783   2.557   1.542   0.262 -0.0682 -0.3977 -0.0957
 6940TIP3    H120784   2.562   1.447   0.258 -0.0149 -0.4028  0.0832
 6940TIP3    H220785   2.556   1.562   0.356 -0.0207 -0.2189 -0.1327
 6941TIP3   OH220786   5.600   4.875   1.199 -0.3542  0.0289  0.6344
 6941TIP3    H120787   5.591   4.835   1.285 -1.8985 -0.3158  0.3450
 6941TIP3    H220788   5.517   4.919   1.184 -0.1418  0.0182 -0.7169
 6942TIP3   OH220789   1.242   3.778   5.204  0.1292  0.1660  0.1722
 6942TIP3    H120790   1.299   3.844   5.166 -1.3316 -0.3673 -3.2550
 6942TIP3    H220791   1.167   3.827   5.238  0.1400  0.4506 -0.2162
 6943TIP3   OH220792   0.311   4.746   4.181  0.0744  0.4430  0.4240
 6943TIP3    H120793   0.373   4.737   4.108  0.2387 -2.0402  0.7868
 6943TIP3    H220794   0.230   4.707   4.149 -0.5861  1.4814  0.7910
 6944TIP3   OH220795   3.591   5.128   4.138 -0.9719 -0.0540  0.1024
 6944TIP3    H120796   3.529   5.056   4.128 -1.2759 -0.0316  1.6010
 6944TIP3    H220797   3.597   5.141   4.233 -0.7556  1.7430 -0.1326
 6945TIP3   OH220798   0.606   0.371   0.345  0.2042 -0.1457  0.1063
 6945TIP3    H120799   0.637   0.415   0.425 -0.0224 -2.2711  1.4354
 6945TIP3    H220800   0.530   0.320   0.373 -0.1528 -0.6166 -1.5787
 6946TIP3   OH220801   3.887   6.657   0.678 -0.2306  0.3282 -0.0054
 6946TIP3    H120802   3.811   6.707   0.648 -1.6831 -1.3097  0.7738
 6946TIP3    H220803   3.877   6.653   0.773  0.9085  0.1785  0.1246
 6947TIP3   OH220804   2.367   0.998   4.455  0.5876 -0.0588  0.5152
 6947TIP3    H120805   2.371   0.907   4.426 -0.2058 -0.0092  0.2279
 6947TIP3    H220806   2.459   1.024   4.466  0.8210 -0.8446  0.4521
 6948TIP3   OH220807   1.054   5.192   5.790 -0.2620 -0.4399 -0.0588
 6948TIP3    H120808   1.119   5.174   5.723 -0.7672  2.1850 -1.3907
 6948TIP3    H220809   0.975   5.146   5.761  0.3532 -1.8230  0.4036
 6949TIP3   OH220810   4.844   1.974   1.459 -0.6683  0.4083  0.2453
 6949TIP3    H120811   4.826   1.884   1.486 -0.0940  0.2249  0.0339
 6949TIP3    H220812   4.870   1.966   1.367 -2.4823  1.0039 -0.3682
 6950TIP3   OH220813   0.289   0.063   1.735  0.0278  0.0623 -0.7116
 6950TIP3    H120814   0.285  -0.033   1.726 -0.9254  0.1327 -1.1297
 6950TIP3    H220815   0.243   0.081   1.817 -0.1003  0.1838 -0.8091
 6951TIP3   OH220816   4.102   5.157   5.164 -0.1033  0.5075  0.0911
 6951TIP3    H120817   4.045   5.107   5.105  1.6314 -2.1662  0.5434
 6951TIP3    H220818   4.189   5.147   5.127  0.6692  0.9054  1.7243
 6952TIP3   OH220819   6.531   4.319   3.976 -0.2669 -0.3642 -0.0033
 6952TIP3    H120820   6.544   4.414   3.974 -1.9149 -0.0952 -2.2745
 6952TIP3    H220821   6.619   4.283   3.988  0.3447  1.4198  1.3148
 6953TIP3   OH220822   2.778   0.080   5.058 -0.3022  0.4901  0.1361
 6953TIP3    H120823   2.796   0.158   5.006  0.7756 -0.0057 -0.2713
 6953TIP3    H220824   2.864   0.051   5.088 -0.6481 -0.6757  0.0583
 6954TIP3   OH220825   0.239   1.666   1.340  0.1680 -0.6149  0.8309
 6954TIP3    H120826   0.204   1.581   1.313 -0.4034 -0.5093  1.2309
 6954TIP3    H220827   0.206   1.727   1.275 -0.2015 -0.5545  1.0706
 6955TIP3   OH220828   1.576   4.122   2.786 -1.1048  0.4339 -0.3131
 6955TIP3    H120829   1.498   4.066   2.784 -0.0325 -1.3526  2.2067
 6955TIP3    H220830   1.565   4.175   2.866  0.6624 -0.6125  0.6963
 6956TIP3   OH220831   3.580   2.620   5.574 -0.3881  0.9194 -0.5814
 6956TIP3    H120832   3.522   2.554   5.610 -0.7091  1.5326  0.0370
 6956TIP3    H220833   3.522   2.689   5.541 -0.0251  1.5646  0.0953
 6957TIP3   OH220834   2.460   2.594   1.508  0.8351  0.0437  0.1211
 6957TIP3    H120835   2.441   2.686   1.489  0.5896  0.1516  0.8869
 6957TIP3    H220836   2.385   2.546   1.473  1.2506  0.0663 -0.8416
 6958TIP3   OH220837   6.400   2.442   2.487 -0.3174  0.4387 -0.3696
 6958TIP3    H120838   6.374   2.354   2.461  1.3436 -0.1987 -0.0090
 6958TIP3    H220839   6.333   2.470   2.549 -0.5198 -0.8632  0.0290
 6959TIP3   OH220840   1.320   1.225   2.591  0.0529 -0.0243 -0.3998
 6959TIP3    H120841   1.380   1.297   2.614 -1.6168  0.6543  2.3205
 6959TIP3    H220842   1.233   1.259   2.613 -0.6893 -3.5467  3.3633
 6960TIP3   OH220843   1.489   6.026   5.202  0.2532  0.0314  0.1103
 6960TIP3    H120844   1.485   6.029   5.106  1.4361 -0.4355  0.0386
 6960TIP3    H220845   1.452   5.940   5.224 -1.5616  0.7811  0.1990
 6961TIP3   OH220846   6.548   5.451   1.877  0.3492  0.1475  0.2830
 6961TIP3    H120847   6.568   5.358   1.891 -1.5127 -0.8871 -2.8858
 6961TIP3    H220848   6.494   5.476   1.952  2.4433 -0.7089  2.1651
 6962TIP3   OH220849   2.006   1.571   1.303  0.2349 -0.3420  0.3798
 6962TIP3    H120850   1.978   1.573   1.212  2.8170 -0.1365 -0.4898
 6962TIP3    H220851   2.061   1.649   1.313 -0.3101 -0.1329  2.2535
 6963TIP3   OH220852   0.582   3.180   5.070  0.1962 -0.2080 -0.0242
 6963TIP3    H120853   0.505   3.236   5.061  0.0133 -0.6636 -1.6770
 6963TIP3    H220854   0.628   3.214   5.147 -0.2176  1.8309 -0.6076
 6964TIP3   OH220855   1.394   2.209   1.258 -0.5068  0.2256 -0.1927
 6964TIP3    H120856   1.396   2.289   1.311 -1.1569 -0.3216  0.6864
 6964TIP3    H220857   1.486   2.183   1.251 -0.2928  1.0197 -0.4510
 6965TIP3   OH220858   0.360   5.421   5.191  0.2377  0.4950 -0.0716
 6965TIP3    H120859   0.408   5.471   5.256  0.6842 -1.5557  1.2596
 6965TIP3    H220860   0.280   5.393   5.236  0.3828 -0.6596 -0.5052
 6966TIP3   OH220861   1.144   0.191   4.572  0.1561  0.2582  0.6874
 6966TIP3    H120862   1.091   0.167   4.649  0.2374 -0.8437  0.4085
 6966TIP3    H220863   1.094   0.262   4.531 -0.3350  0.2655  1.2750
 6967TIP3   OH220864   5.410   2.518   1.879  0.3912  0.2129  0.2815
 6967TIP3    H120865   5.477   2.534   1.813  0.6974  0.7521  0.7208
 6967TIP3    H220866   5.347   2.589   1.867  0.3335  0.1863  0.4220
 6968TIP3   OH220867   1.998   3.051   0.403  0.3091 -0.0734 -0.0272
 6968TIP3    H120868   2.061   3.109   0.446  0.1446 -0.6166  0.9716
 6968TIP3    H220869   2.043   3.023   0.323  0.7666  0.6613 -0.0408
 6969TIP3   OH220870   2.310   1.272   0.693  0.4962 -0.4449  0.3522
 6969TIP3    H120871   2.388   1.325   0.678  0.9236  0.0803  3.7178
 6969TIP3    H220872   2.309   1.210   0.620  2.0361  1.7714 -1.7098
 6970TIP3   OH220873   2.003   3.703   2.998 -0.1349 -0.5863  0.3391
 6970TIP3    H120874   2.007   3.725   2.904  0.8945  0.8822  0.6957
 6970TIP3    H220875   1.910   3.685   3.013 -0.0681 -2.7059 -1.3322
 6971TIP3   OH220876   3.356   2.271   1.081  0.1344 -0.2075 -0.5589
 6971TIP3    H120877   3.359   2.367   1.078  0.9973 -0.2370 -0.9668
 6971TIP3    H220878   3.448   2.245   1.089 -0.0624 -1.0167 -0.8796
 6972TIP3   OH220879   1.685   4.537   1.076  0.1111  0.3398 -0.2071
 6972TIP3    H120880   1.702   4.456   1.123  3.1371  1.4213  0.8117
 6972TIP3    H220881   1.727   4.524   0.990  0.1100  0.5944 -0.2480
 6973TIP3   OH220882   5.434   0.316   0.125 -0.2126 -0.0522 -0.0017
 6973TIP3    H120883   5.523   0.283   0.118 -0.0746  0.2328  0.4198
 6973TIP3    H220884   5.434   0.397   0.074 -0.0934  0.2216  0.4287
 6974TIP3   OH220885   0.235   0.914   3.813 -0.8550  0.0729  0.0503
 6974TIP3    H120886   0.324   0.907   3.848 -1.6522  2.1136  2.8481
 6974TIP3    H220887   0.243   0.972   3.738  0.4564 -1.7986 -1.3580
 6975TIP3   OH220888   2.470   1.774   4.049  0.0678  0.6533  0.0863
 6975TIP3    H120889   2.560   1.778   4.080  1.2231 -2.3021 -2.3084
 6975TIP3    H220890   2.430   1.704   4.100  0.3311 -0.5074 -1.2196
 6976TIP3   OH220891   6.177   3.986   4.284 -0.1760  0.3709 -0.7225
 6976TIP3    H120892   6.082   3.997   4.283 -0.1366  0.7083 -0.9256
 6976TIP3    H220893   6.207   4.047   4.351 -0.1965 -0.5710  0.1737
 6977TIP3   OH220894   3.401   6.244   5.792 -1.0624  0.1665  0.2026
 6977TIP3    H120895   3.340   6.304   5.749 -1.4862  0.4620  1.1728
 6977TIP3    H220896   3.448   6.201   5.720  0.1120  2.5166 -0.5302
 6978TIP3   OH220897   4.043   6.467   0.163  0.2392 -0.0713  0.3897
 6978TIP3    H120898   4.027   6.528   0.090 -0.0991 -1.6682 -0.9132
 6978TIP3    H220899   4.023   6.519   0.241 -0.0535  1.4872 -0.6659
 6979TIP3   OH220900   6.902   0.067   4.434 -0.1001  0.3906  0.3080
 6979TIP3    H120901   6.845  -0.000   4.395 -0.3612  1.7305 -1.8120
 6979TIP3    H220902   6.844   0.123   4.484 -0.5533  1.1631 -1.0204
 6980TIP3   OH220903   0.418   6.756   5.744  0.0539 -0.3585 -0.1891
 6980TIP3    H120904   0.403   6.835   5.692  0.2332  0.1768  0.5492
 6980TIP3    H220905   0.489   6.711   5.699  0.1441  0.0452 -0.4595
 6981TIP3   OH220906   5.027   1.473   2.279 -0.0835  0.6650  0.2498
 6981TIP3    H120907   5.003   1.462   2.371  1.7105 -0.6231  0.6161
 6981TIP3    H220908   5.107   1.525   2.281 -0.6870  1.6777 -0.6926
 6982TIP3   OH220909   1.955   6.421   3.636  0.1170 -0.2653 -0.3578
 6982TIP3    H120910   1.931   6.488   3.700 -1.7762 -0.7364 -0.5198
 6982TIP3    H220911   1.999   6.469   3.566  1.7758  0.3259  1.0048
 6983TIP3   OH220912   7.023   3.862   0.238 -0.0418  0.2005  0.2294
 6983TIP3    H120913   7.033   3.770   0.262  2.3161  0.0892 -0.8422
 6983TIP3    H220914   7.015   3.860   0.142  1.0973  1.1529  0.1025
 6984TIP3   OH220915   0.125   1.688   5.199 -0.2350  0.4279 -0.3431
 6984TIP3    H120916   0.073   1.767   5.212  0.0527  0.7237 -0.9338
 6984TIP3    H220917   0.082   1.622   5.253 -1.2472  0.6489 -0.8515
 6985TIP3   OH220918   2.598   3.221   3.181  0.2522 -0.0833  0.4983
 6985TIP3    H120919   2.571   3.141   3.135 -0.1329  0.1729  0.2720
 6985TIP3    H220920   2.652   3.268   3.118  2.2570 -1.1400  1.3409
 6986TIP3   OH220921   6.008   3.126   1.835  0.2388  0.0220 -0.5721
 6986TIP3    H120922   6.061   3.202   1.859 -0.3196 -0.3850  2.3712
 6986TIP3    H220923   6.071   3.056   1.817  0.8540 -0.3135  2.3678
 6987TIP3   OH220924   4.757   5.872   5.455  0.6869 -0.3756 -0.0461
 6987TIP3    H120925   4.732   5.962   5.475  0.6794 -0.6926  1.5110
 6987TIP3    H220926   4.720   5.855   5.368  0.3861  0.9898 -0.2035
 6988TIP3   OH220927   3.353   4.313   1.109  0.0133  0.2949 -0.1291
 6988TIP3    H120928   3.310   4.380   1.161  0.7334  0.7966 -0.1685
 6988TIP3    H220929   3.332   4.231   1.153  0.2609  0.6724  0.7028
 6989TIP3   OH220930   4.338   0.948   5.251  0.7557  0.2555  0.5966
 6989TIP3    H120931   4.276   0.955   5.178  1.7206 -0.5850 -0.3390
 6989TIP3    H220932   4.342   1.037   5.287 -1.8977  0.1026  1.5111
 6990TIP3   OH220933   0.759   3.370   3.016 -0.4200  0.4073  0.1317
 6990TIP3    H120934   0.784   3.438   2.954  2.1339 -1.7819 -1.4744
 6990TIP3    H220935   0.840   3.354   3.066 -0.8115 -1.6794  0.1641
 6991TIP3   OH220936   3.486   6.526   0.805 -0.4614 -0.0231  0.2835
 6991TIP3    H120937   3.417   6.592   0.808  0.2817  0.7972 -0.4705
 6991TIP3    H220938   3.555   6.560   0.862 -0.5043 -0.6740  0.7499
 6992TIP3   OH220939   6.676   6.120   3.783  0.1980 -0.1330  0.4264
 6992TIP3    H120940   6.630   6.168   3.852 -1.1817 -0.7606 -0.0013
 6992TIP3    H220941   6.695   6.035   3.822 -0.7161 -0.5417  0.0248
 6993TIP3   OH220942   1.347   4.789   3.123 -0.2491 -0.2645  0.7939
 6993TIP3    H120943   1.437   4.809   3.098 -0.6938  1.1156  0.2204
 6993TIP3    H220944   1.349   4.784   3.219  0.1557  1.3006  0.8801
 6994TIP3   OH220945   6.611   3.435   1.646 -1.2587  0.3989 -0.3394
 6994TIP3    H120946   6.646   3.466   1.563 -1.1424 -1.3648 -1.0052
 6994TIP3    H220947   6.677   3.460   1.711 -1.0247  1.2006 -0.8725
 6995TIP3   OH220948   0.149   4.892   2.765 -0.2142  0.3531  0.5362
 6995TIP3    H120949   0.208   4.823   2.797  0.4379 -0.2621 -1.8121
 6995TIP3    H220950   0.164   4.965   2.825  0.4743 -0.9032  1.9702
 6996TIP3   OH220951   6.235   1.500   4.454 -0.2197 -0.3215  0.3164
 6996TIP3    H120952   6.179   1.555   4.399  1.1769 -0.4012 -1.2435
 6996TIP3    H220953   6.187   1.418   4.463  0.4722 -1.1615 -2.7351
 6997TIP3   OH220954   5.060   5.503   2.571 -0.0684  0.3649 -0.4357
 6997TIP3    H120955   5.036   5.452   2.648  0.9623  2.0237  1.0807
 6997TIP3    H220956   5.052   5.442   2.498  1.5789 -2.1107  1.2887
 6998TIP3   OH220957   3.280   3.855   1.116 -0.0111 -0.2989  0.3619
 6998TIP3    H120958   3.371   3.871   1.091  0.0533 -0.3640  0.5521
 6998TIP3    H220959   3.228   3.890   1.043  0.1537  0.0421  0.4069
 6999TIP3   OH220960   5.683   0.208   0.612 -0.1773 -0.1686  0.2335
 6999TIP3    H120961   5.615   0.145   0.635 -1.9221  1.9108  1.1380
 6999TIP3    H220962   5.737   0.215   0.690  1.0037 -1.6444 -0.4049
 7000TIP3   OH220963   4.417   5.483   3.999 -0.0108  0.5002  0.3201
 7000TIP3    H120964   4.332   5.450   3.969  0.1674 -0.3134  0.6594
 7000TIP3    H220965   4.476   5.468   3.925 -0.0661  0.6252  0.2516
 7001TIP3   OH220966   2.207   0.983   2.848 -0.2135  0.3144  0.4794
 7001TIP3    H120967   2.179   0.898   2.882 -0.0790 -0.0654 -0.3406
 7001TIP3    H220968   2.147   1.000   2.775  0.0361  0.7233  0.3690
 7002TIP3   OH220969   6.780   3.676   0.369 -0.1201  0.2416 -0.2624
 7002TIP3    H120970   6.868   3.675   0.332 -0.0894  1.0953 -0.2328
 7002TIP3    H220971   6.724   3.646   0.298  0.1903 -0.3396 -0.2707
 7003TIP3   OH220972   4.146   2.087   5.661 -0.2627  0.6675  0.6128
 7003TIP3    H120973   4.130   2.074   5.754 -1.9448  0.0906  0.2938
 7003TIP3    H220974   4.160   1.998   5.627 -0.2687  0.8154  0.2227
 7004TIP3   OH220975   0.030   5.635   1.189  0.5278  0.8980 -0.7004
 7004TIP3    H120976   0.001   5.615   1.278  2.1967  1.7257  0.0794
 7004TIP3    H220977   0.106   5.579   1.176 -0.0274  0.3837 -1.8446
 7005TIP3   OH220978   0.865   3.472   1.716 -0.1492 -0.2354 -0.4878
 7005TIP3    H120979   0.876   3.426   1.799  0.6026 -0.4646 -0.7122
 7005TIP3    H220980   0.948   3.516   1.701  0.3832 -1.6243 -1.9821
 7006TIP3   OH220981   2.550   2.198   1.680 -0.6609  0.3199 -0.6835
 7006TIP3    H120982   2.461   2.232   1.693 -0.5511  0.2518  0.3268
 7006TIP3    H220983   2.540   2.132   1.611 -1.7324 -0.9524  0.6289
 7007TIP3   OH220984   6.491   6.601   3.897 -0.2076 -0.3069 -0.1325
 7007TIP3    H120985   6.476   6.637   3.984 -1.1057 -0.2946 -0.2850
 7007TIP3    H220986   6.415   6.545   3.881  0.5301 -1.2433 -0.4326
 7008TIP3   OH220987   7.003   3.515   3.339  0.7592  0.6084 -0.2356
 7008TIP3    H120988   7.077   3.529   3.397  1.2586  1.8646 -1.1366
 7008TIP3    H220989   6.927   3.548   3.388  0.8645 -0.0703  0.4182
 7009TIP3   OH220990   5.752   5.008   4.589 -0.4814 -0.0940  0.2146
 7009TIP3    H120991   5.737   5.046   4.675  0.3031  2.2691 -0.6105
 7009TIP3    H220992   5.767   5.083   4.532  3.3140 -1.6576 -1.1670
 7010TIP3   OH220993   6.087   4.190   5.836 -0.0871  0.5466  0.3677
 7010TIP3    H120994   6.077   4.219   5.745 -0.4211  1.5976  0.7294
 7010TIP3    H220995   6.039   4.254   5.887 -0.9370 -0.7182  1.2039
 7011TIP3   OH220996   1.790   6.604   1.465 -0.3989 -0.1814 -0.2703
 7011TIP3    H120997   1.843   6.525   1.453  1.5162  1.1217 -0.9256
 7011TIP3    H220998   1.782   6.614   1.560  0.4596 -0.4880 -0.1520
 7012TIP3   OH220999   3.010   0.977   5.177 -0.2465  0.6008  0.5486
 7012TIP3    H121000   3.091   0.926   5.182 -2.0617 -2.5032  0.7103
 7012TIP3    H221001   3.003   1.002   5.085  0.1945 -0.3893  0.2288
 7013TIP3   OH221002   1.570   0.193   3.552 -0.1328  0.6534 -0.0469
 7013TIP3    H121003   1.527   0.265   3.600  1.0017  0.2348  1.6945
 7013TIP3    H221004   1.595   0.131   3.621  0.2640 -0.6958 -1.3723
 7014TIP3   OH221005   5.468   4.275   1.388 -0.0420 -0.0789 -0.0291
 7014TIP3    H121006   5.555   4.261   1.426  0.3589  1.7325 -0.1470
 7014TIP3    H221007   5.410   4.218   1.437  1.0488 -0.5199  0.7932
 7015TIP3   OH221008   4.589   6.523   4.692 -0.1443  0.2547 -0.1244
 7015TIP3    H121009   4.616   6.449   4.746  1.3728  0.7697 -0.1115
 7015TIP3    H221010   4.542   6.581   4.751 -0.7487 -0.3805  0.0243
 7016TIP3   OH221011   7.169   3.682   1.680 -0.3481 -0.0975 -0.3607
 7016TIP3    H121012   7.141   3.773   1.672  0.7610  0.1472 -1.5465
 7016TIP3    H221013   7.095   3.631   1.645 -1.1926  0.2771  0.7873
 7017TIP3   OH221014   0.335   4.999   3.864 -0.2268  0.3803  0.1401
 7017TIP3    H121015   0.279   4.994   3.787 -1.0682  1.6018  0.6433
 7017TIP3    H221016   0.275   5.013   3.937  0.6204  0.1414  0.9068
 7018TIP3   OH221017   1.087   2.053   4.212 -0.1219 -0.0414  0.0497
 7018TIP3    H121018   1.142   2.072   4.136 -0.5300 -1.0408 -0.5184
 7018TIP3    H221019   1.131   1.980   4.255  0.1258  0.5434  0.8045
 7019TIP3   OH221020   0.039   3.080   1.712  0.0763  0.3556 -0.2145
 7019TIP3    H121021  -0.008   3.055   1.792 -2.3810  0.6660 -1.4682
 7019TIP3    H221022   0.080   3.164   1.734  1.5707 -0.7367  1.4558
 7020TIP3   OH221023   0.828   4.307   2.790 -0.3883  0.3202  0.1164
 7020TIP3    H121024   0.845   4.370   2.860  0.4995  0.8978 -0.6014
 7020TIP3    H221025   0.911   4.261   2.779 -0.5205  0.2365 -0.5549
 7021TIP3   OH221026   5.837   6.752   5.238 -0.7045  0.3757  0.2427
 7021TIP3    H121027   5.859   6.662   5.214  1.2084  0.9424 -0.3252
 7021TIP3    H221028   5.756   6.745   5.287 -0.3047 -1.7101  0.6822
 7022TIP3   OH221029   4.199   6.467   0.922  0.4336 -0.1597  0.2456
 7022TIP3    H121030   4.255   6.441   0.995  0.1527  1.6051  1.1325
 7022TIP3    H221031   4.241   6.545   0.886 -2.1055  2.1232  1.8599
 7023TIP3   OH221032   1.621   4.719   1.910 -0.0872 -0.4287  0.1029
 7023TIP3    H121033   1.601   4.777   1.984  1.9315  0.8957 -0.2998
 7023TIP3    H221034   1.569   4.754   1.838 -1.4299 -1.2174  0.6489
 7024TIP3   OH221035   7.128   4.056   1.167  0.1659 -0.3421 -0.5211
 7024TIP3    H121036   7.051   4.027   1.118 -0.4798 -0.0675  0.2998
 7024TIP3    H221037   7.093   4.117   1.232  1.2480  0.7522 -0.9359
 7025TIP3   OH221038   1.997   2.097   4.995  0.4719  0.2758 -0.0312
 7025TIP3    H121039   1.961   2.089   4.907 -0.5488 -0.1682  0.4089
 7025TIP3    H221040   2.001   2.191   5.011  0.6805  0.3599 -0.5517
 7026TIP3   OH221041   5.461   3.718   0.665 -0.3536  0.2351  0.0687
 7026TIP3    H121042   5.420   3.638   0.698 -2.1078  0.5299 -1.2537
 7026TIP3    H221043   5.437   3.785   0.730 -1.5560  0.2861 -0.4000
 7027TIP3   OH221044   0.006   0.462   5.118  0.4928  0.0407 -0.0649
 7027TIP3    H121045   0.065   0.441   5.045  1.2134  1.1307  0.1797
 7027TIP3    H221046   0.019   0.390   5.180  1.3708  0.1146 -0.1454
 7028TIP3   OH221047   5.353   4.672   3.239  0.0404 -0.2499 -0.1090
 7028TIP3    H121048   5.335   4.743   3.177  0.5852  1.2424  1.3988
 7028TIP3    H221049   5.295   4.689   3.313 -1.2705 -2.5346 -0.5017
 7029TIP3   OH221050   6.851   5.825   2.163  0.3160  0.3347  0.2168
 7029TIP3    H121051   6.767   5.851   2.126  0.2020 -1.0875 -0.6089
 7029TIP3    H221052   6.828   5.768   2.236  0.5372 -0.7214 -0.5146
 7030TIP3   OH221053   4.832   1.640   2.291  0.7565 -0.7031 -0.5513
 7030TIP3    H121054   4.911   1.594   2.263  2.0648  1.7648 -1.1214
 7030TIP3    H221055   4.863   1.707   2.351 -1.0838 -0.4948  0.2392
 7031TIP3   OH221056   3.376   3.430   2.759  0.8355 -0.0174  0.2384
 7031TIP3    H121057   3.403   3.437   2.851  2.9532 -0.3392 -0.3124
 7031TIP3    H221058   3.281   3.426   2.763  0.8919 -0.7177  2.4819
 7032TIP3   OH221059   2.773   4.955   0.520 -0.0438 -0.1771 -0.1673
 7032TIP3    H121060   2.849   4.964   0.576  0.6640  0.1212 -1.1520
 7032TIP3    H221061   2.750   5.044   0.495 -1.4372 -0.1605  1.0216
 7033TIP3   OH221062   3.155   0.412   1.244  0.1959  0.1160  0.4058
 7033TIP3    H121063   3.160   0.325   1.203 -1.4938 -0.3109  1.0268
 7033TIP3    H221064   3.067   0.443   1.225  0.1512  0.8983  1.7526
 7034TIP3   OH221065   1.429   4.142   5.534 -0.2875 -0.2811  0.2837
 7034TIP3    H121066   1.453   4.232   5.556 -2.3192 -0.1438  2.2944
 7034TIP3    H221067   1.496   4.114   5.472  0.4541  2.5740 -0.3535
 7035TIP3   OH221068   2.339   1.045   1.253 -0.2576  0.0076  0.6608
 7035TIP3    H121069   2.270   1.090   1.205 -0.4280 -0.1263  0.7740
 7035TIP3    H221070   2.321   1.065   1.345  2.1414  3.2711  0.5957
 7036TIP3   OH221071   4.659   2.894   1.994 -0.3422  0.0010 -0.1115
 7036TIP3    H121072   4.651   2.820   2.054 -0.7921  0.7428  0.7780
 7036TIP3    H221073   4.737   2.875   1.942 -0.1773 -0.8581  0.4296
 7037TIP3   OH221074   4.578   0.099   1.421  0.2293  0.3526 -0.2818
 7037TIP3    H121075   4.559   0.088   1.514  0.8866  0.9877 -0.0611
 7037TIP3    H221076   4.634   0.025   1.399  1.6813  1.2390  0.3178
 7038TIP3   OH221077   1.810   6.156   4.823  0.3456 -0.3008 -0.4721
 7038TIP3    H121078   1.720   6.158   4.790  0.0730  1.6188  0.2251
 7038TIP3    H221079   1.800   6.147   4.918  0.7385  2.0693 -0.1479
 7039TIP3   OH221080   5.261   4.600   5.755  0.3542  0.0846  0.5646
 7039TIP3    H121081   5.215   4.653   5.690 -0.1500  1.3852  1.9267
 7039TIP3    H221082   5.273   4.515   5.712  1.7282  1.4028 -1.9619
 7040TIP3   OH221083   6.007   2.530   4.653  1.3167 -0.3764 -0.2598
 7040TIP3    H121084   5.973   2.442   4.635  1.5799 -0.4583 -0.3612
 7040TIP3    H221085   6.056   2.521   4.735  0.3701 -0.0679  0.3584
 7041TIP3   OH221086   1.055   0.500   2.200  0.1692 -0.0464  0.2341
 7041TIP3    H121087   0.980   0.533   2.149 -0.2910  0.2744  1.0823
 7041TIP3    H221088   1.054   0.554   2.280  1.5323  0.2017  0.0976
 7042TIP3   OH221089   3.382   5.586   4.406  0.1816 -0.8511 -0.4328
 7042TIP3    H121090   3.468   5.582   4.365  1.2876  0.4024  1.5964
 7042TIP3    H221091   3.332   5.645   4.350  2.1149  2.0037  0.5725
 7043TIP3   OH221092   1.663   1.888   5.490 -0.6234  0.0121 -0.4120
 7043TIP3    H121093   1.635   1.812   5.542  4.8754 -1.2231  1.4541
 7043TIP3    H221094   1.624   1.963   5.534 -3.5256 -1.4277 -0.2657
 7044TIP3   OH221095   5.665   3.553   0.323 -0.2989 -0.5474 -0.4661
 7044TIP3    H121096   5.622   3.502   0.255 -1.9586 -0.9780  0.8483
 7044TIP3    H221097   5.655   3.644   0.295  0.9056 -0.8047 -1.8163
 7045TIP3   OH221098   6.735   6.175   1.936  0.4042 -0.1471 -0.2331
 7045TIP3    H121099   6.740   6.269   1.950  0.9054 -0.4778  2.4895
 7045TIP3    H221100   6.652   6.161   1.892  0.5993  1.5837 -1.2516
 7046TIP3   OH221101   6.574   0.272   4.852  0.0776  1.0628 -0.1860
 7046TIP3    H121102   6.511   0.298   4.784  1.4889  3.9954 -0.5581
 7046TIP3    H221103   6.571   0.344   4.916  0.2777 -0.6397  1.8405
 7047TIP3   OH221104   5.627   4.122   0.283  0.1796  0.2189 -0.1453
 7047TIP3    H121105   5.617   4.120   0.188  0.7096 -1.9003 -0.2251
 7047TIP3    H221106   5.682   4.046   0.302 -0.7553  0.0078  1.9374
 7048TIP3   OH221107   5.244   1.444   0.922 -0.0728  0.4347 -0.5800
 7048TIP3    H121108   5.239   1.349   0.932 -2.5586  0.6228  0.7425
 7048TIP3    H221109   5.221   1.460   0.831 -1.9510 -0.1655 -0.2492
 7049TIP3   OH221110   5.715   6.314   3.780 -0.3986 -0.8762  0.1510
 7049TIP3    H121111   5.654   6.336   3.710  1.4602 -1.0062 -1.5998
 7049TIP3    H221112   5.716   6.218   3.782 -0.5083 -0.8753  0.4500
 7050TIP3   OH221113   3.868   5.122   0.726  0.4037 -0.1838  0.2031
 7050TIP3    H121114   3.827   5.078   0.800  1.3547  0.2813  1.0352
 7050TIP3    H221115   3.875   5.054   0.659  0.3353 -0.8550  0.8606
 7051TIP3   OH221116   3.578   3.671   2.519 -0.1062 -0.7655 -0.0855
 7051TIP3    H121117   3.500   3.616   2.518  0.0151 -1.0848  2.5961
 7051TIP3    H221118   3.551   3.751   2.565  1.1510 -0.9335  1.0054
 7052TIP3   OH221119   1.732   2.914   3.450  0.0038 -0.2000 -0.0569
 7052TIP3    H121120   1.733   2.999   3.404  1.1192  0.2013  0.6782
 7052TIP3    H221121   1.725   2.849   3.379 -1.9848  0.5034 -0.5764
 7053TIP3   OH221122   6.524   4.975   0.996 -0.0250  0.3181 -0.0290
 7053TIP3    H121123   6.482   4.975   0.910 -1.5116 -1.4237  0.6277
 7053TIP3    H221124   6.545   4.883   1.013 -0.2772  0.5349  1.6903
 7054TIP3   OH221125   1.543   2.325   1.819  0.2043 -0.0288  0.5164
 7054TIP3    H121126   1.487   2.277   1.881 -0.6773  0.7123  0.3215
 7054TIP3    H221127   1.541   2.415   1.850  0.4632  0.1937 -0.0951
 7055TIP3   OH221128   2.888   1.558   0.199 -0.2412  0.2350 -0.7917
 7055TIP3    H121129   2.870   1.466   0.177 -1.3963 -0.0890  1.2388
 7055TIP3    H221130   2.898   1.558   0.294  1.9433  1.9053 -0.9534
 7056TIP3   OH221131   1.653   2.005   0.114  0.0836  0.5208  0.3533
 7056TIP3    H121132   1.716   1.932   0.106  0.9946  1.3254 -0.0160
 7056TIP3    H221133   1.619   2.017   0.025 -0.2480  0.3946  0.4613
 7057TIP3   OH221134   1.946   2.390   0.796  0.0400 -0.2238  0.2747
 7057TIP3    H121135   2.037   2.422   0.795 -0.8862  2.7499 -1.7053
 7057TIP3    H221136   1.903   2.439   0.727 -2.8064 -2.6088  0.1710
 7058TIP3   OH221137   0.380   5.469   1.688 -0.1056 -0.0956 -0.6901
 7058TIP3    H121138   0.351   5.557   1.715  0.8939 -0.0452  0.3232
 7058TIP3    H221139   0.324   5.410   1.737 -0.1872 -0.0145 -0.6847
 7059TIP3   OH221140   5.469   1.278   1.518 -0.1457  0.1883  0.1999
 7059TIP3    H121141   5.548   1.237   1.484 -1.6559 -1.1093 -1.9754
 7059TIP3    H221142   5.489   1.371   1.521  1.2809 -0.0562 -0.8409
 7060TIP3   OH221143   3.318   0.753   0.897 -0.4433  0.1660  0.0516
 7060TIP3    H121144   3.407   0.790   0.898  0.2043 -1.2885 -0.7126
 7060TIP3    H221145   3.328   0.665   0.932 -1.0632 -0.9996 -2.4829
 7061TIP3   OH221146   5.984   1.783   3.259 -0.0230 -0.1344  0.3301
 7061TIP3    H121147   5.966   1.691   3.243  2.6386 -0.6222 -0.3873
 7061TIP3    H221148   5.959   1.827   3.178 -1.2595 -0.1995  0.6595
 7062TIP3   OH221149   6.686   4.986   0.428  0.0834 -0.4706 -0.5269
 7062TIP3    H121150   6.637   4.922   0.377 -0.1530  0.4299 -1.4474
 7062TIP3    H221151   6.651   4.978   0.517 -1.3780 -0.2048 -1.0628
 7063TIP3   OH221152   4.479   1.651   4.755  0.3845  0.1176  0.0126
 7063TIP3    H121153   4.542   1.717   4.784  0.0975  0.5660 -0.3722
 7063TIP3    H221154   4.414   1.647   4.826  0.3385  0.3375 -0.0146
 7064TIP3   OH221155   5.435   3.928   3.113 -0.1575 -0.1631  0.3409
 7064TIP3    H121156   5.495   3.983   3.163  0.5571 -0.7591  0.1572
 7064TIP3    H221157   5.482   3.908   3.032 -1.2848  0.7552 -0.5626
 7065TIP3   OH221158   3.988   2.567   3.454 -0.4048 -0.4072  0.7145
 7065TIP3    H121159   4.022   2.504   3.391 -1.0377  0.6960 -0.8024
 7065TIP3    H221160   3.970   2.516   3.532 -0.6441 -2.0539 -0.3632
 7066TIP3   OH221161   6.172   2.788   1.102  0.3307 -0.3815  0.0527
 7066TIP3    H121162   6.153   2.832   1.019  0.7872 -1.9800 -0.9537
 7066TIP3    H221163   6.177   2.859   1.166  0.3774  0.9502 -1.3564
 7067TIP3   OH221164   7.027   4.122   2.795 -0.2153 -0.8615  0.2107
 7067TIP3    H121165   7.033   4.210   2.833  0.4588  0.0785 -1.9274
 7067TIP3    H221166   6.947   4.086   2.833  0.1583  0.1689  2.1074
 7068TIP3   OH221167   6.364   5.074   0.657 -0.2426 -0.2068  0.1197
 7068TIP3    H121168   6.349   5.147   0.718 -3.4340 -1.1328  0.6244
 7068TIP3    H221169   6.309   5.003   0.690 -0.6167 -1.3979 -2.7726
 7069TIP3   OH221170   0.442   4.563   3.020 -0.2871  0.1936 -0.1332
 7069TIP3    H121171   0.480   4.585   3.105  0.1616  1.1528 -0.5705
 7069TIP3    H221172   0.440   4.467   3.019 -0.2067  0.1720  0.9142
 7070TIP3   OH221173   2.364   1.772   4.926  0.2656 -0.5471  0.0599
 7070TIP3    H121174   2.310   1.840   4.965  0.9407  1.6251 -2.5071
 7070TIP3    H221175   2.341   1.774   4.833  1.9477 -2.2973 -0.4592
 7071TIP3   OH221176   6.303   6.780   5.259  0.0867  0.9803 -0.0239
 7071TIP3    H121177   6.385   6.751   5.219 -0.4379 -0.2668 -0.2466
 7071TIP3    H221178   6.237   6.765   5.192 -0.6010  0.1386  0.8069
 7072TIP3   OH221179   6.596   2.801   2.777  0.7936  0.4318  0.4496
 7072TIP3    H121180   6.669   2.837   2.726  0.1512 -0.1984 -0.9465
 7072TIP3    H221181   6.619   2.709   2.790  0.5718  0.3998  0.6109
 7073TIP3   OH221182   1.071   2.164   4.622  0.0076  0.3603 -0.2193
 7073TIP3    H121183   1.154   2.160   4.573  0.5204  0.2655  0.6475
 7073TIP3    H221184   1.040   2.254   4.609 -1.1702 -0.3236 -2.8061
 7074TIP3   OH221185   0.929   4.006   0.246 -0.3460 -0.7963 -0.3008
 7074TIP3    H121186   1.014   3.990   0.287  0.3620 -1.9221 -2.0304
 7074TIP3    H221187   0.883   4.064   0.305  1.2074 -1.0578  1.2329
 7075TIP3   OH221188   3.360   3.161   4.681 -0.1706  0.0615 -0.1894
 7075TIP3    H121189   3.266   3.144   4.681 -0.2740  0.5982 -0.5922
 7075TIP3    H221190   3.382   3.172   4.773 -0.3921 -0.6479 -0.0507
 7076TIP3   OH221191   6.101   3.492   4.918 -0.2458  0.2180 -0.2618
 7076TIP3    H121192   6.099   3.542   4.836  0.0966 -0.9645 -1.0334
 7076TIP3    H221193   6.110   3.401   4.889 -0.4608 -0.2555  1.0968
 7077TIP3   OH221194   2.510   3.344  -0.013 -0.5382  0.3471  0.2066
 7077TIP3    H121195   2.601   3.346   0.016 -0.1319 -0.4159 -0.9309
 7077TIP3    H221196   2.459   3.366   0.065  0.4153 -2.5294  1.8215
 7078TIP3   OH221197   4.851   1.865   3.035  0.0143  0.2496  0.0930
 7078TIP3    H121198   4.835   1.816   3.116 -0.5010  0.6571  0.2376
 7078TIP3    H221199   4.797   1.822   2.970 -0.8886  0.9731  0.3485
 7079TIP3   OH221200   5.774   0.880   1.161 -0.2035  0.0288 -0.5878
 7079TIP3    H121201   5.819   0.797   1.142 -3.2647 -1.4310 -2.1722
 7079TIP3    H221202   5.809   0.942   1.098  0.0697 -0.8837 -1.3459
 7080TIP3   OH221203   3.949   3.935   3.274 -0.0152 -0.2032  0.3828
 7080TIP3    H121204   3.884   3.865   3.274 -1.2935  0.9378  0.6388
 7080TIP3    H221205   4.028   3.895   3.237 -0.2714 -2.1468  1.7743
 7081TIP3   OH221206   3.565   1.845   5.104  0.2032 -0.4289  0.5129
 7081TIP3    H121207   3.500   1.802   5.049  0.8266 -0.1696 -0.4439
 7081TIP3    H221208   3.554   1.804   5.190 -1.2910 -0.3029  0.4011
 7082TIP3   OH221209   1.024   0.046   4.796 -0.3639 -0.1250 -0.1250
 7082TIP3    H121210   1.021   0.072   4.888 -1.3233  2.1747 -0.7408
 7082TIP3    H221211   0.933   0.029   4.773  0.1428 -4.1132  0.1376
 7083TIP3   OH221212   1.038   4.928   2.554 -0.2697 -0.5141  0.0604
 7083TIP3    H121213   0.997   5.015   2.552 -2.3897 -1.4594 -0.0438
 7083TIP3    H221214   1.098   4.932   2.629 -1.1987  0.6719  0.7770
 7084TIP3   OH221215   3.556   3.582   2.013  0.0771  0.5713  0.4707
 7084TIP3    H121216   3.495   3.638   1.964 -0.6621  0.2411  0.9950
 7084TIP3    H221217   3.510   3.562   2.094  0.6204 -0.2355  0.5915
 7085TIP3   OH221218   5.994   6.033   1.693 -0.3025 -0.1095  0.0456
 7085TIP3    H121219   5.959   6.110   1.648  0.0879  0.8445  1.3159
 7085TIP3    H221220   6.083   6.059   1.718  0.5615 -1.6904 -1.2045
 7086TIP3   OH221221   0.677   6.292   2.765 -0.5173  0.0067  0.4609
 7086TIP3    H121222   0.652   6.232   2.836  0.9973 -0.6726  0.4593
 7086TIP3    H221223   0.628   6.372   2.783 -1.0364 -0.5431  1.6224
 7087TIP3   OH221224   2.054   0.615   4.061  0.6740  0.3671 -0.2837
 7087TIP3    H121225   2.057   0.704   4.026 -0.5235  0.5581  0.0634
 7087TIP3    H221226   2.046   0.627   4.156  1.3758 -0.1255 -0.1539
 7088TIP3   OH221227   4.588   0.718   0.477 -0.5565 -0.1589 -0.4010
 7088TIP3    H121228   4.610   0.725   0.384  0.3305  2.9618 -0.0707
 7088TIP3    H221229   4.513   0.776   0.488  0.4086  0.8710  1.0785
 7089TIP3   OH221230   2.698   5.480   2.186  0.0184  1.2210  0.2114
 7089TIP3    H121231   2.729   5.391   2.200  1.5814  1.3905 -1.7163
 7089TIP3    H221232   2.613   5.470   2.144  0.1328  0.6328  0.1102
 7090TIP3   OH221233   3.710   3.394   4.819  0.8032  0.3938 -0.0406
 7090TIP3    H121234   3.704   3.392   4.914  0.1773 -1.6409 -0.0745
 7090TIP3    H221235   3.644   3.458   4.792 -0.0254 -0.0566  0.8494
 7091TIP3   OH221236   1.803   2.435   2.115 -0.2757 -0.1415  0.0198
 7091TIP3    H121237   1.727   2.383   2.140 -2.4028  1.2764 -2.8213
 7091TIP3    H221238   1.767   2.507   2.063  2.9480  1.3119 -0.4926
 7092TIP3   OH221239   2.052   4.951   1.541  0.0445 -0.0410  0.3135
 7092TIP3    H121240   2.066   4.957   1.636  0.4017 -0.5550  0.3013
 7092TIP3    H221241   1.990   4.879   1.531 -1.1053  0.9398  0.2371
 7093TIP3   OH221242   6.714   3.361   0.814 -0.2435  0.5770 -0.6480
 7093TIP3    H121243   6.722   3.448   0.776  0.5675  0.7780 -0.0298
 7093TIP3    H221244   6.797   3.345   0.858 -0.8570  0.0435  0.3827
 7094TIP3   OH221245   3.483   2.584   4.482  0.0347 -0.4240  0.1833
 7094TIP3    H121246   3.404   2.617   4.440  0.9772 -1.1508 -2.3536
 7094TIP3    H221247   3.475   2.489   4.476  1.0385 -0.5035  0.0049
 7095TIP3   OH221248   6.166   2.699   5.355 -0.3499  0.0630 -0.1700
 7095TIP3    H121249   6.102   2.645   5.401  0.3303 -0.0455  0.6871
 7095TIP3    H221250   6.151   2.681   5.262 -0.1320 -1.6083  0.0986
 7096TIP3   OH221251   0.505   3.953   0.659  0.0024  0.0357 -0.0264
 7096TIP3    H121252   0.518   4.017   0.589 -1.3332 -1.4088 -1.7177
 7096TIP3    H221253   0.558   3.877   0.631  0.6221 -0.0528  1.3208
 7097TIP3   OH221254   0.817   4.149   4.818  0.1326 -0.0075  0.1016
 7097TIP3    H121255   0.820   4.072   4.873  1.9676  1.1551  1.7367
 7097TIP3    H221256   0.766   4.213   4.868 -0.0735  0.3404 -0.5394
 7098TIP3   OH221257   6.226   4.597   3.026  0.5562  0.5606 -0.2920
 7098TIP3    H121258   6.282   4.524   2.998 -1.4516 -1.9133  1.6741
 7098TIP3    H221259   6.183   4.626   2.945  0.6795 -1.0817 -0.9889
 7099TIP3   OH221260   6.725   5.180   3.103  0.2062  0.3108  0.3686
 7099TIP3    H121261   6.779   5.174   3.182  1.4425  1.7167 -0.3156
 7099TIP3    H221262   6.711   5.274   3.091  0.1274  0.1341 -1.1273
 7100TIP3   OH221263   3.118   2.133   1.026 -0.6046 -0.1456 -0.0431
 7100TIP3    H121264   3.191   2.169   1.076 -1.5517 -0.9862  2.0579
 7100TIP3    H221265   3.078   2.209   0.984  1.2678  0.3619 -1.0252
 7101TIP3   OH221266   1.668   2.848   3.716 -0.4554  0.1023  0.1859
 7101TIP3    H121267   1.647   2.934   3.751  1.7379  0.2924  1.2063
 7101TIP3    H221268   1.694   2.865   3.625  1.0016  0.7259  0.6854
 7102TIP3   OH221269   3.033   2.964   1.763  0.5744  0.3107 -0.5274
 7102TIP3    H121270   3.038   2.917   1.845 -0.3995 -0.6949 -1.0219
 7102TIP3    H221271   3.032   3.057   1.788 -2.1528  0.0169  0.7886
 7103TIP3   OH221272   6.596   4.756   5.862 -0.1076  0.1261  0.2986
 7103TIP3    H121273   6.638   4.687   5.811  1.6333  0.7666  0.8104
 7103TIP3    H221274   6.507   4.759   5.827 -0.4699 -2.7866  0.6936
 7104TIP3   OH221275   5.847   4.487   1.230  0.5228  0.4041  0.0818
 7104TIP3    H121276   5.922   4.530   1.189  0.1478  0.5893 -0.4218
 7104TIP3    H221277   5.779   4.488   1.162  0.2087 -0.1543  0.3823
 7105TIP3   OH221278   1.802   0.721   2.256 -0.1486 -0.0149  0.4706
 7105TIP3    H121279   1.728   0.671   2.289  0.9433 -0.5079  2.2982
 7105TIP3    H221280   1.879   0.669   2.279  0.8002  0.3151 -1.6734
 7106TIP3   OH221281   2.524   4.176   4.869  0.1303 -0.5563  0.7507
 7106TIP3    H121282   2.480   4.103   4.825  1.9262 -0.9924 -0.4442
 7106TIP3    H221283   2.617   4.160   4.854  0.6209  1.4610  1.3360
 7107TIP3   OH221284   2.826   1.505   1.716  0.6543  0.3562  0.1241
 7107TIP3    H121285   2.732   1.517   1.700  0.5882  0.6108  0.6873
 7107TIP3    H221286   2.854   1.443   1.649  0.0164  0.0312  0.1523
 7108TIP3   OH221287   5.325   5.594   0.520  0.1593 -0.0817  0.2860
 7108TIP3    H121288   5.284   5.546   0.593  2.4716 -0.1099  1.6601
 7108TIP3    H221289   5.316   5.536   0.445  1.1037 -1.8142  1.4490
 7109TIP3   OH221290   6.044   1.317   0.049  0.8285 -0.3915  0.0821
 7109TIP3    H121291   6.009   1.283   0.131 -0.6938 -0.7176 -0.6566
 7109TIP3    H221292   5.984   1.285  -0.018  1.2908  0.9250 -1.0248
 7110TIP3   OH221293   0.383   3.844   0.261  0.1975  0.5451  0.2219
 7110TIP3    H121294   0.388   3.939   0.272  0.6294  0.7191 -1.2054
 7110TIP3    H221295   0.474   3.815   0.263  0.1772  0.3669 -0.6823
 7111TIP3   OH221296   0.089   5.279   0.714 -0.8008  0.5248 -0.6502
 7111TIP3    H121297   0.087   5.189   0.748  1.8919  0.6998  0.1763
 7111TIP3    H221298   0.025   5.326   0.767 -0.8709 -0.5125  0.2159
 7112TIP3   OH221299   4.283   1.740   1.477 -0.3719  0.1078 -0.3123
 7112TIP3    H121300   4.358   1.778   1.430 -0.6381  0.0392 -0.8001
 7112TIP3    H221301   4.213   1.804   1.466 -0.3136  0.2981  0.3750
 7113TIP3   OH221302   0.682   4.960   3.459  0.6494 -0.6934 -0.6661
 7113TIP3    H121303   0.621   4.944   3.387  0.0702 -0.7494 -0.1709
 7113TIP3    H221304   0.649   5.039   3.502  1.1744 -0.4767 -0.6513
 7114TIP3   OH221305   5.817   1.728   0.826 -0.3276 -0.1271 -0.0191
 7114TIP3    H121306   5.747   1.665   0.840 -0.1709 -0.3892 -0.4277
 7114TIP3    H221307   5.880   1.710   0.896 -1.1830  0.8495  1.0561
 7115TIP3   OH221308   4.755   3.344   2.479  0.2279  0.0355  0.4064
 7115TIP3    H121309   4.762   3.439   2.467 -1.4454  0.2348  0.7771
 7115TIP3    H221310   4.806   3.307   2.408 -0.6420  1.2268 -0.8910
 7116TIP3   OH221311   4.853   2.261   1.438  0.0362  0.1880  0.2526
 7116TIP3    H121312   4.947   2.263   1.461 -0.1000  0.4231  0.8163
 7116TIP3    H221313   4.826   2.172   1.458 -0.1865  0.5138  1.4938
 7117TIP3   OH221314   4.370   6.540   5.090  0.1072  0.3450 -0.5578
 7117TIP3    H121315   4.378   6.605   5.020  0.3713 -0.3530 -1.1966
 7117TIP3    H221316   4.293   6.567   5.139  0.9106  1.8328 -0.0629
 7118TIP3   OH221317   1.353   2.997   0.647 -0.2141 -0.2823 -0.3116
 7118TIP3    H121318   1.358   3.067   0.713  2.0274 -1.4027  0.8005
 7118TIP3    H221319   1.281   2.941   0.678  0.8555 -0.8369  1.3195
 7119TIP3   OH221320   2.928   4.945   2.958 -0.4267  0.3611 -0.0917
 7119TIP3    H121321   2.982   5.005   3.009  0.6424  0.0687 -0.8422
 7119TIP3    H221322   2.990   4.901   2.899 -0.9931 -2.1169  1.0232
 7120TIP3   OH221323   5.852   5.177   3.792  0.9059 -0.2215  0.1949
 7120TIP3    H121324   5.847   5.192   3.698 -0.2124  0.3009  0.3224
 7120TIP3    H221325   5.882   5.087   3.800  3.4851  0.4738 -0.6248
 7121TIP3   OH221326   4.933   2.940   5.163  0.9384 -0.3959 -0.3746
 7121TIP3    H121327   4.876   2.918   5.089  0.6688  0.3183 -0.3925
 7121TIP3    H221328   5.021   2.925   5.130  0.9601  1.9429 -1.6087
 7122TIP3   OH221329   3.840   3.923   0.118 -0.2469 -1.2952  0.6833
 7122TIP3    H121330   3.812   3.863   0.049  1.6329 -1.2960 -0.1264
 7122TIP3    H221331   3.865   3.867   0.190  0.2766 -1.4239  0.4029
 7123TIP3   OH221332   2.744   5.370   1.799  0.0045  0.2067 -0.0819
 7123TIP3    H121333   2.686   5.431   1.753  1.3144  0.5522 -1.3498
 7123TIP3    H221334   2.830   5.413   1.797 -0.0641  1.0126  4.1293
 7124TIP3   OH221335   5.330   0.794   4.976  0.2379 -0.5894  0.2630
 7124TIP3    H121336   5.263   0.827   4.917  1.7051  0.8855 -0.6661
 7124TIP3    H221337   5.310   0.701   4.985 -3.4576  0.2114  2.1923
 7125TIP3   OH221338   0.242   6.700   1.640 -0.4551  0.1470  0.0256
 7125TIP3    H121339   0.176   6.769   1.631 -0.0867  0.4687 -0.2241
 7125TIP3    H221340   0.201   6.635   1.698 -2.0783 -1.0137 -2.3008
 7126TIP3   OH221341   4.916   3.072   0.283  0.2454  0.0807  0.0746
 7126TIP3    H121342   4.954   3.060   0.370 -1.0705 -0.3205  0.6250
 7126TIP3    H221343   4.951   3.000   0.231  0.9118  0.2268  0.3130
 7127TIP3   OH221344   4.209   0.933   2.888 -0.4044  0.2813  0.5504
 7127TIP3    H121345   4.141   0.872   2.919 -1.0611  1.0021  0.5787
 7127TIP3    H221346   4.168   0.978   2.814  1.0719 -1.2543 -1.2773
 7128TIP3   OH221347   3.801   0.368   3.948 -0.3850 -0.7436  0.5528
 7128TIP3    H121348   3.803   0.308   4.022 -0.4820  0.3654  1.4929
 7128TIP3    H221349   3.890   0.368   3.914  0.0561 -0.1177  1.6490
 7129TIP3   OH221350   0.482   2.392   3.198  0.0218  0.6128  0.8465
 7129TIP3    H121351   0.468   2.474   3.151 -2.0630  0.3471  0.8805
 7129TIP3    H221352   0.493   2.418   3.290  0.5283  0.9085  0.7043
 7130TIP3   OH221353   6.065   4.003   1.627 -0.2926 -0.0761 -0.1230
 7130TIP3    H121354   5.979   3.963   1.614 -0.7347  1.5428 -3.1420
 7130TIP3    H221355   6.100   4.012   1.538  2.6215  0.1888  0.9510
 7131TIP3   OH221356   4.557   1.590   2.437  0.7798  0.0204  0.1551
 7131TIP3    H121357   4.629   1.651   2.420  1.2834 -0.1166  1.6251
 7131TIP3    H221358   4.493   1.641   2.487  1.1232 -0.5649  1.2357
 7132TIP3   OH221359   6.994   0.413   4.755 -0.0398  0.3355  0.6024
 7132TIP3    H121360   6.988   0.458   4.840 -2.7913 -0.5646  0.9694
 7132TIP3    H221361   6.912   0.433   4.711  1.1805  0.4843 -1.7719
 7133TIP3   OH221362   6.182   4.712   2.802 -0.1261  0.0332  0.0658
 7133TIP3    H121363   6.137   4.795   2.817 -0.8225 -0.2894 -0.1930
 7133TIP3    H221364   6.243   4.730   2.730  0.1341  0.4662  0.3949
 7134TIP3   OH221365   5.430   3.864   5.747 -0.0311 -0.1692  0.2700
 7134TIP3    H121366   5.392   3.924   5.811 -0.4580  1.2681 -1.2504
 7134TIP3    H221367   5.396   3.778   5.771 -0.0896  0.2960  1.9999
 7135TIP3   OH221368   4.127   5.417   2.060  0.3703 -0.2606 -0.7639
 7135TIP3    H121369   4.105   5.470   2.136 -2.2669 -0.2243 -1.4561
 7135TIP3    H221370   4.221   5.430   2.048  0.3918  1.6866  0.9873
 7136TIP3   OH221371   5.850   3.774   3.121 -0.1051  0.0499  0.3228
 7136TIP3    H121372   5.840   3.800   3.213 -2.0729 -1.8506  0.7583
 7136TIP3    H221373   5.836   3.854   3.071  1.5415  1.2322  1.6503
 7137TIP3   OH221374   2.549   2.433   1.283 -0.2286 -0.1058 -0.5156
 7137TIP3    H121375   2.605   2.368   1.325 -0.3675 -1.1278 -1.8313
 7137TIP3    H221376   2.516   2.487   1.355  0.7915 -0.7790  0.4905
 7138TIP3   OH221377   2.094   6.692   4.474 -0.2132  0.2057  0.7484
 7138TIP3    H121378   2.145   6.674   4.395 -1.0126 -4.5986  1.0362
 7138TIP3    H221379   2.158   6.724   4.537  1.3066 -0.1908 -0.5359
 7139TIP3   OH221380   6.107   1.860   1.815  0.0486 -0.0791 -0.4338
 7139TIP3    H121381   6.096   1.948   1.851 -1.0217 -0.2075 -0.4119
 7139TIP3    H221382   6.054   1.860   1.736  0.6704 -0.4679 -0.8562
 7140TIP3   OH221383   0.586   4.485   1.629  0.2644 -0.5955 -0.1425
 7140TIP3    H121384   0.619   4.398   1.652 -1.0669 -0.9502  0.5091
 7140TIP3    H221385   0.493   4.472   1.613  0.3537  0.4221 -1.7193
 7141TIP3   OH221386   6.645   2.255   4.700  0.1786  0.1940  0.2280
 7141TIP3    H121387   6.624   2.348   4.708  1.4369  0.3950  1.8746
 7141TIP3    H221388   6.698   2.236   4.778 -0.2120 -1.9491  0.0312
 7142TIP3   OH221389   1.537   0.837   4.318  0.2105 -0.3728 -0.3766
 7142TIP3    H121390   1.601   0.891   4.271  0.3226 -0.1948 -0.0241
 7142TIP3    H221391   1.453   0.857   4.276 -0.2338  2.2302  1.5119
 7143TIP3   OH221392   4.002   0.227   3.671  0.3944  0.0637 -0.0954
 7143TIP3    H121393   3.979   0.307   3.623 -0.5665  0.7461  1.4211
 7143TIP3    H221394   4.035   0.258   3.755  0.4118 -1.1359  0.3595
 7144TIP3   OH221395   3.235   3.004   3.419 -0.2928 -0.0611  0.2016
 7144TIP3    H121396   3.294   3.068   3.457  1.5885 -2.3169  1.3231
 7144TIP3    H221397   3.186   3.053   3.352  1.5302  2.3123  0.4857
 7145TIP3   OH221398   5.303   4.125   5.132 -0.4181 -0.2742 -0.7812
 7145TIP3    H121399   5.284   4.031   5.123 -2.8480  0.2351 -1.6757
 7145TIP3    H221400   5.315   4.137   5.227  0.6907 -1.5792 -0.7157
 7146TIP3   OH221401   4.203   4.576   5.264  0.0795  0.2267 -0.0438
 7146TIP3    H121402   4.153   4.496   5.248  0.4697 -0.1255  0.4564
 7146TIP3    H221403   4.160   4.642   5.211 -1.0794 -0.0035  0.5739
 7147TIP3   OH221404   4.295   4.657   2.301  0.4149  0.6401  0.3669
 7147TIP3    H121405   4.243   4.589   2.258  3.9871 -0.1734 -3.1572
 7147TIP3    H221406   4.248   4.738   2.282 -1.0475 -0.2869 -0.1427
 7148TIP3   OH221407   4.494   3.633   1.409  0.1583  0.0144  0.5596
 7148TIP3    H121408   4.574   3.624   1.358 -0.5006 -0.3011 -0.4506
 7148TIP3    H221409   4.523   3.635   1.500  1.5116  2.2011  0.1568
 7149TIP3   OH221410   4.101   2.449   3.239  0.4925  0.8860 -1.0278
 7149TIP3    H121411   4.177   2.496   3.274  1.2225 -1.7169  1.2126
 7149TIP3    H221412   4.094   2.480   3.148  2.6215  3.0974 -0.5545
 7150TIP3   OH221413   0.921   3.511   0.033 -0.1383  0.7693 -0.2127
 7150TIP3    H121414   0.881   3.424   0.030 -0.2279  0.7615  0.9608
 7150TIP3    H221415   0.852   3.569   0.066 -0.0825  1.3032 -0.9870
 7151TIP3   OH221416   0.051   5.385   1.564 -0.3281  0.7714 -0.2231
 7151TIP3    H121417   0.085   5.298   1.582 -1.3140  0.3539 -0.3144
 7151TIP3    H221418   0.091   5.441   1.630  1.5307  0.5501 -1.1089
 7152TIP3   OH221419   3.248   4.138   1.723  0.0344  0.1007 -0.0775
 7152TIP3    H121420   3.272   4.196   1.652 -0.5618 -0.7159 -0.9682
 7152TIP3    H221421   3.225   4.055   1.681  0.8723 -0.8073  1.1543
 7153TIP3   OH221422   3.185   2.334   3.901  0.0271 -0.3352 -0.0762
 7153TIP3    H121423   3.174   2.428   3.885 -0.0052 -0.8171 -3.9067
 7153TIP3    H221424   3.280   2.321   3.907  0.0033 -0.0073  1.2600
 7154TIP3   OH221425   3.155   2.439   3.300 -0.1242  0.0868 -0.6627
 7154TIP3    H121426   3.161   2.357   3.348  3.2246 -0.8230 -2.3659
 7154TIP3    H221427   3.132   2.504   3.367 -1.4165 -1.9393  0.9847
 7155TIP3   OH221428   2.729   4.290   2.923  0.5260 -0.0204 -0.4547
 7155TIP3    H121429   2.638   4.295   2.892  0.9008  0.0783 -1.6123
 7155TIP3    H221430   2.762   4.208   2.887  0.5924 -0.5819  0.8621
 7156TIP3   OH221431   6.017   3.462   1.772  0.2894 -0.1342  0.3154
 7156TIP3    H121432   6.102   3.427   1.801  1.4923  3.1024  1.1160
 7156TIP3    H221433   6.041   3.535   1.715 -2.0155  0.5875  0.2123
 7157TIP3   OH221434   0.348   6.239   2.875  0.5355 -0.3356 -0.0794
 7157TIP3    H121435   0.252   6.239   2.869  0.4834 -2.5130  0.1049
 7157TIP3    H221436   0.367   6.288   2.954 -0.5733 -1.6119  1.0254
 7158TIP3   OH221437   0.757   3.232   1.561 -0.6041 -0.9697 -1.0620
 7158TIP3    H121438   0.830   3.225   1.622  0.8156  0.8652 -2.3976
 7158TIP3    H221439   0.678   3.226   1.615  0.5692  1.1862  1.0810
 7159TIP3   OH221440   3.365   2.332   2.124 -0.2853  0.5890  0.6278
 7159TIP3    H121441   3.448   2.294   2.151 -0.4231  0.1201  0.4054
 7159TIP3    H221442   3.359   2.313   2.030 -1.4460 -0.9620  0.9636
 7160TIP3   OH221443   4.785   4.406   4.814  0.7730  0.2570  0.1085
 7160TIP3    H121444   4.741   4.351   4.878  0.0179  1.0123  0.2580
 7160TIP3    H221445   4.752   4.494   4.831  0.6104  0.4852 -1.2695
 7161TIP3   OH221446   3.728   4.300   4.354 -0.3563  0.1904 -0.5808
 7161TIP3    H121447   3.663   4.233   4.334  0.8975 -1.2587 -0.0020
 7161TIP3    H221448   3.797   4.287   4.289 -0.2534  1.1737 -0.6823
 7162TIP3   OH221449   3.287   4.463   4.136 -0.1670  0.0299  0.4523
 7162TIP3    H121450   3.232   4.459   4.057 -0.3620 -0.1344  0.5956
 7162TIP3    H221451   3.373   4.490   4.104  0.1128 -1.3196 -0.0128
 7163TIP3   OH221452   3.208   6.417   0.463 -0.0102  0.2480 -0.0067
 7163TIP3    H121453   3.159   6.342   0.429 -1.6513  2.0585 -1.9457
 7163TIP3    H221454   3.200   6.410   0.558 -2.2534 -0.7465 -0.1947
 7164TIP3   OH221455   2.715   2.803   3.652 -0.3634 -0.2546  0.1846
 7164TIP3    H121456   2.710   2.898   3.651 -0.1873 -0.2433 -0.8744
 7164TIP3    H221457   2.648   2.776   3.714  0.2320  0.5843  1.2281
 7165TIP3   OH221458   2.490   4.861   1.418  0.5887  0.0604  0.0380
 7165TIP3    H121459   2.404   4.826   1.444  0.5061 -1.9952 -2.5601
 7165TIP3    H221460   2.500   4.833   1.327  2.9634  2.4211 -0.5395
 7166TIP3   OH221461   7.169   3.302   3.677 -0.4466 -0.2931 -0.3335
 7166TIP3    H121462   7.135   3.346   3.755  2.1652  0.2602  0.5893
 7166TIP3    H221463   7.127   3.216   3.678 -0.4565 -0.3298  1.7627
 7167TIP3   OH221464   1.436   2.445   1.405  0.2606  0.0082  0.4978
 7167TIP3    H121465   1.364   2.506   1.422  0.1609 -0.5496  2.2680
 7167TIP3    H221466   1.507   2.475   1.461  1.2396  0.1697 -0.7614
 7168TIP3   OH221467   3.424   4.760   3.597 -0.2260  0.2940 -0.0521
 7168TIP3    H121468   3.490   4.711   3.548 -0.3778  0.9280 -0.8939
 7168TIP3    H221469   3.387   4.821   3.534  0.4276  1.9682  1.1351
 7169TIP3   OH221470   4.885   4.934   4.109  0.5395  0.1562  0.5266
 7169TIP3    H121471   4.814   4.896   4.057  0.6221  0.5778  0.0981
 7169TIP3    H221472   4.935   4.987   4.046 -0.1983  1.8629  1.3104
 7170TIP3   OH221473   2.776   4.559   2.938  0.3105 -0.2786 -0.0944
 7170TIP3    H121474   2.753   4.466   2.932  0.4520 -0.5598  2.5166
 7170TIP3    H221475   2.872   4.560   2.942  0.3217 -0.0035 -0.4443
 7171TIP3   OH221476   4.728   1.352   1.803 -0.1496  0.1489 -0.1903
 7171TIP3    H121477   4.695   1.422   1.860  1.2584  0.6038  0.1129
 7171TIP3    H221478   4.787   1.398   1.742  1.6618 -0.8772  0.7020
 7172TIP3   OH221479   5.598   5.607   0.872  0.1023 -0.0856 -0.1253
 7172TIP3    H121480   5.644   5.685   0.840 -0.7803  0.4176 -0.2351
 7172TIP3    H221481   5.591   5.550   0.795 -1.3596  0.7985 -0.6944
 7173TIP3   OH221482   0.065   5.534   3.432 -0.2757 -0.3678 -0.6067
 7173TIP3    H121483   0.104   5.575   3.509  1.3946  1.7771 -2.4770
 7173TIP3    H221484  -0.028   5.554   3.439 -0.1316 -0.0450  0.7240
 7174TIP3   OH221485   5.008   0.831   1.371 -0.6872 -0.0048 -0.0450
 7174TIP3    H121486   4.936   0.813   1.310  0.0019 -0.2890 -0.7919
 7174TIP3    H221487   4.985   0.916   1.410 -0.5491  0.7875 -1.6218
 7175TIP3   OH221488   3.341   5.479   2.387 -0.1439 -0.0506  0.6530
 7175TIP3    H121489   3.250   5.493   2.414 -0.8798 -0.5897 -1.4247
 7175TIP3    H221490   3.378   5.567   2.380 -0.1438  0.1468  2.5048
 7176TIP3   OH221491   5.554   6.281   0.687  0.1657 -0.5676  0.0870
 7176TIP3    H121492   5.468   6.262   0.651 -0.3993 -0.0736  1.1319
 7176TIP3    H221493   5.610   6.297   0.611 -0.8252 -0.1952 -0.5768
 7177TIP3   OH221494   7.112   2.728   5.224  0.0865 -0.5524  0.0754
 7177TIP3    H121495   7.032   2.739   5.275 -0.0337  2.4530 -0.5980
 7177TIP3    H221496   7.155   2.651   5.262 -3.3097 -2.6303  0.1012
 7178TIP3   OH221497   2.855   3.580   4.067 -0.3627 -0.3115 -0.0824
 7178TIP3    H121498   2.919   3.647   4.092 -0.5846 -0.9148  2.2674
 7178TIP3    H221499   2.803   3.622   3.999  1.5522  0.7218 -1.0025
 7179TIP3   OH221500   4.646   2.192   4.664  0.3896 -0.3358  0.1432
 7179TIP3    H121501   4.559   2.180   4.703 -0.0961  1.2711 -0.3937
 7179TIP3    H221502   4.705   2.195   4.740 -0.0669 -0.9688  0.5383
 7180TIP3   OH221503   3.025   0.706   1.537 -0.1207 -0.0084  0.4054
 7180TIP3    H121504   2.983   0.772   1.482 -0.2898 -0.5935 -0.1722
 7180TIP3    H221505   3.095   0.670   1.484 -0.0645 -0.3352  0.6949
 7181TIP3   OH221506   2.428   2.278   4.298  0.1978  0.7374  0.2806
 7181TIP3    H121507   2.422   2.319   4.212 -1.2355  2.9980  1.3545
 7181TIP3    H221508   2.384   2.194   4.288  3.3962 -0.8617 -2.0649
 7182TIP3   OH221509   1.625   5.978   3.080 -0.3350 -0.3068 -0.6038
 7182TIP3    H121510   1.635   5.942   2.992  2.0755 -0.4401 -0.3381
 7182TIP3    H221511   1.695   5.938   3.131 -1.9521 -0.6094  1.5498
 7183TIP3   OH221512   7.192   1.123   3.571  0.0809 -0.7102 -0.1610
 7183TIP3    H121513   7.282   1.147   3.592 -0.0606 -1.6683  1.7715
 7183TIP3    H221514   7.149   1.205   3.549  0.7436  0.1568  1.6446
 7184TIP3   OH221515   3.023   0.236   0.987 -0.5356 -0.0832 -0.6078
 7184TIP3    H121516   3.094   0.257   0.926  1.2473 -0.0114  1.3573
 7184TIP3    H221517   2.992   0.322   1.017  1.1417 -0.0547  1.2704
 7185TIP3   OH221518   5.099   5.831   4.420 -0.3556  0.3988 -0.1654
 7185TIP3    H121519   5.080   5.891   4.493  0.2368  0.8392 -0.3612
 7185TIP3    H221520   5.147   5.885   4.358  1.4577 -0.6385  0.2784
 7186TIP3   OH221521   1.334   5.107   3.573  0.7436 -0.4207  0.3262
 7186TIP3    H121522   1.265   5.077   3.514  0.0161 -0.6962  1.2999
 7186TIP3    H221523   1.299   5.187   3.613  1.1657 -0.3192  0.5047
 7187TIP3   OH221524   5.587   4.522   3.210  0.0730  0.2271 -0.0113
 7187TIP3    H121525   5.555   4.449   3.158  1.2109 -1.3992  1.4504
 7187TIP3    H221526   5.522   4.591   3.198 -1.3792 -1.2439 -0.9443
 7188TIP3   OH221527   0.089   6.130   0.068 -0.1374 -0.2685 -0.0890
 7188TIP3    H121528   0.108   6.224   0.066 -0.4074 -0.1961  0.7514
 7188TIP3    H221529  -0.005   6.125   0.080 -0.2219 -0.6570 -0.8115
 7189TIP3   OH221530   7.106   1.408   0.825  0.0583  0.4410 -0.2438
 7189TIP3    H121531   7.185   1.353   0.826  0.5650  1.1473  1.7769
 7189TIP3    H221532   7.068   1.398   0.912 -1.9886  0.3197 -1.0935
 7190TIP3   OH221533   5.582   1.179   3.202 -0.2330  0.0891 -0.0377
 7190TIP3    H121534   5.618   1.222   3.124  1.3065 -0.7265  0.1914
 7190TIP3    H221535   5.501   1.138   3.171  1.1972 -1.6776 -1.6885
 7191TIP3   OH221536   0.126   5.215   3.648 -0.1139  0.4826  0.0516
 7191TIP3    H121537   0.161   5.178   3.568 -0.2831 -0.2830  0.3216
 7191TIP3    H221538   0.037   5.241   3.625 -0.1859  0.2020  0.0026
 7192TIP3   OH221539   5.362   0.826   0.823 -0.0995 -0.5186  0.3401
 7192TIP3    H121540   5.313   0.895   0.868 -0.2316 -0.7860  0.6090
 7192TIP3    H221541   5.349   0.845   0.730 -0.0169 -0.0990  0.4091
 7193TIP3   OH221542   5.645   1.252   1.797 -0.2513  0.3608 -0.8899
 7193TIP3    H121543   5.580   1.189   1.766 -0.2556  0.6135 -1.4183
 7193TIP3    H221544   5.601   1.298   1.868 -0.0044 -0.6870 -0.0355
 7194TIP3   OH221545   4.872   2.976   1.281  0.2293 -0.1469  0.4075
 7194TIP3    H121546   4.791   3.008   1.319  0.1839 -0.6697  0.7563
 7194TIP3    H221547   4.859   2.882   1.271  1.3459 -0.4875  1.8781
 7195TIP3   OH221548   2.129   1.819   1.307 -0.4924  0.2285 -0.7025
 7195TIP3    H121549   2.166   1.865   1.232  0.1421  0.6573 -0.1342
 7195TIP3    H221550   2.077   1.884   1.353  0.2584  0.3486  0.0018
 7196TIP3   OH221551   3.406   4.024   5.831 -0.4819 -0.0532 -0.3313
 7196TIP3    H121552   3.493   4.053   5.807 -0.5753  0.2675 -0.2877
 7196TIP3    H221553   3.419   3.937   5.868  0.2660  1.2338  2.7361
 7197TIP3   OH221554   0.765   6.373   4.473  0.1753 -0.6394  0.2999
 7197TIP3    H121555   0.736   6.299   4.420  0.3923 -0.3265 -0.2667
 7197TIP3    H221556   0.685   6.420   4.496  0.1342 -0.3736 -0.3642
 7198TIP3   OH221557   1.261   3.374   3.109 -0.5317 -0.1298  0.0965
 7198TIP3    H121558   1.341   3.419   3.135  0.1698 -1.6269  0.6238
 7198TIP3    H221559   1.206   3.442   3.070  1.3259  0.7683 -1.0553
 7199TIP3   OH221560   0.190   2.351   2.711 -0.3153  0.4734  1.0033
 7199TIP3    H121561   0.237   2.269   2.719  1.6973  1.2335 -1.5890
 7199TIP3    H221562   0.112   2.330   2.659  0.1590  0.1788  0.4075
 7200TIP3   OH221563   6.591   4.234   2.128  0.6566 -0.0062 -0.0887
 7200TIP3    H121564   6.559   4.203   2.212  0.7921 -1.1524 -0.4413
 7200TIP3    H221565   6.663   4.294   2.150  1.3023 -1.0016  0.6057
 7201TIP3   OH221566   3.164   3.703   2.142 -0.2238 -0.3410  0.2606
 7201TIP3    H121567   3.154   3.718   2.236  0.0279  0.7192  0.1329
 7201TIP3    H221568   3.218   3.624   2.137 -1.1535 -1.0470  0.9886
 7202TIP3   OH221569   0.956   1.107   0.409 -0.4511 -0.5048 -0.9567
 7202TIP3    H121570   0.970   1.052   0.333  3.3622 -0.2912 -0.5722
 7202TIP3    H221571   0.939   1.046   0.481  0.9695 -1.0483 -1.0658
 7203TIP3   OH221572   2.413   1.716   3.598  0.0570  0.2891 -0.2410
 7203TIP3    H121573   2.481   1.697   3.663 -2.6691 -2.0405  2.2048
 7203TIP3    H221574   2.407   1.636   3.546 -1.5877 -0.0874  0.4509
 7204TIP3   OH221575   1.399   5.474   5.183 -0.0201 -0.2869  0.3628
 7204TIP3    H121576   1.457   5.404   5.216  1.3930  0.7066  0.0921
 7204TIP3    H221577   1.357   5.436   5.106  1.5023 -0.5271 -0.3860
 7205TIP3   OH221578   5.072   3.260   1.611  0.0712  0.1576  0.3635
 7205TIP3    H121579   5.017   3.277   1.687 -0.7843 -1.3222  0.1137
 7205TIP3    H221580   5.012   3.263   1.537  0.6602  0.2466 -0.1208
 7206TIP3   OH221581   4.872   3.735   0.067 -0.0165  0.0452 -0.5453
 7206TIP3    H121582   4.778   3.740   0.083 -0.0361  1.5876 -1.0122
 7206TIP3    H221583   4.906   3.683   0.139 -1.2447 -0.6959 -0.4756
 7207TIP3   OH221584   7.044   0.919   1.563  0.0191  0.2272 -0.0361
 7207TIP3    H121585   6.949   0.915   1.555 -0.0538 -0.3257  0.8767
 7207TIP3    H221586   7.076   0.855   1.500 -0.3149 -0.8819  0.8742
 7208TIP3   OH221587   2.944   0.712   3.434  0.4016 -0.0249  0.8756
 7208TIP3    H121588   2.880   0.641   3.438  0.6368 -0.1974  3.5118
 7208TIP3    H221589   2.898   0.788   3.467  0.5965  0.7152 -0.4954
 7209TIP3   OH221590   6.316   3.442   5.363 -0.5279  0.1255  0.5038
 7209TIP3    H121591   6.223   3.428   5.380 -0.3322  0.0723  1.5912
 7209TIP3    H221592   6.334   3.529   5.397 -0.2130  0.2124  0.1207
 7210TIP3   OH221593   1.137   1.042   3.471 -0.2420  0.8498  0.2364
 7210TIP3    H121594   1.230   1.056   3.486 -0.0322  0.1529 -0.3558
 7210TIP3    H221595   1.130   0.951   3.443 -1.4170  0.0782  2.7825
 7211TIP3   OH221596   6.243   1.371   5.725  0.2455 -0.0299 -0.1797
 7211TIP3    H121597   6.263   1.394   5.635  0.7176  0.5973  0.0787
 7211TIP3    H221598   6.328   1.372   5.770  0.3334 -2.4259 -0.1696
 7212TIP3   OH221599   2.772   0.685   3.076 -0.3710  0.0933  0.1116
 7212TIP3    H121600   2.718   0.739   3.017 -0.3626  0.7363  0.6801
 7212TIP3    H221601   2.823   0.749   3.126 -1.0239 -0.4107  1.4414
 7213TIP3   OH221602   2.702   2.111   1.174  0.2648 -0.3456  0.3936
 7213TIP3    H121603   2.753   2.109   1.093 -2.3471 -1.8129 -1.3370
 7213TIP3    H221604   2.704   2.021   1.206 -1.3073 -0.4797  0.1833
 7214TIP3   OH221605   1.947   1.324   4.789  0.0262  0.4522  0.0103
 7214TIP3    H121606   1.955   1.287   4.701  0.8437  1.6898 -0.4639
 7214TIP3    H221607   1.891   1.262   4.836 -0.7048 -0.0572 -1.4747
 7215TIP3   OH221608   2.741   4.925   2.301 -0.5761  0.4807 -0.7985
 7215TIP3    H121609   2.742   4.849   2.242 -2.0217  0.2312 -0.5306
 7215TIP3    H221610   2.682   4.899   2.372  0.3697  1.1532  0.2745
 7216TIP3   OH221611   6.969   5.790   4.016  0.0655  0.2633 -0.2040
 7216TIP3    H121612   7.059   5.785   3.984  0.3523  0.6655  0.5258
 7216TIP3    H221613   6.918   5.817   3.939  0.7308  1.0898 -0.3678
 7217TIP3   OH221614   4.104   1.526   4.131  0.6585 -0.0838  0.4345
 7217TIP3    H121615   4.169   1.591   4.105 -0.2392  0.6552 -0.0391
 7217TIP3    H221616   4.115   1.454   4.068 -0.0331  0.7341 -0.6495
 7218TIP3   OH221617   4.002   2.523   0.340  0.8749 -0.2007  0.3126
 7218TIP3    H121618   4.078   2.484   0.297  1.8222  0.1830  1.5829
 7218TIP3    H221619   4.014   2.617   0.327 -0.9041 -0.1873 -1.9218
 7219TIP3   OH221620   0.073   1.946   2.833 -0.0683 -0.2848  0.0650
 7219TIP3    H121621   0.105   1.855   2.831  0.5418 -0.0719 -0.6556
 7219TIP3    H221622   0.003   1.945   2.897  0.3987 -1.1148  0.5945
 7220TIP3   OH221623   1.157   1.814   2.660  0.1789 -0.1045 -0.0562
 7220TIP3    H121624   1.150   1.778   2.572  2.5589 -2.1247  0.4817
 7220TIP3    H221625   1.250   1.814   2.679 -0.1344  1.7821  1.9148
 7221TIP3   OH221626   6.659   0.226   4.515  0.0738 -0.1732 -0.4055
 7221TIP3    H121627   6.651   0.317   4.544 -0.4140 -0.5279  0.6312
 7221TIP3    H221628   6.598   0.219   4.442  0.7567  0.5452 -1.0679
 7222TIP3   OH221629   6.677   3.133   3.030 -0.2610  0.3317 -0.1944
 7222TIP3    H121630   6.747   3.173   2.978 -0.0525  0.9076  0.5146
 7222TIP3    H221631   6.634   3.207   3.072 -2.5445  0.2216 -2.0852
 7223TIP3   OH221632   1.982   0.354   4.805  0.1525  0.0739  0.0173
 7223TIP3    H121633   1.948   0.283   4.860  0.3985 -0.0611 -0.0067
 7223TIP3    H221634   1.905   0.387   4.759 -0.2551  0.8773  1.2138
 7224TIP3   OH221635   5.335   1.927   2.513  0.0382  0.3070 -0.3313
 7224TIP3    H121636   5.239   1.929   2.517 -0.0874 -1.7272 -1.3179
 7224TIP3    H221637   5.357   1.834   2.516  2.0717  0.7722  1.0493
 7225TIP3   OH221638   2.100   2.742   3.946 -0.2023 -0.1983 -0.0612
 7225TIP3    H121639   2.117   2.796   3.868  0.3545 -0.6322 -0.2409
 7225TIP3    H221640   2.171   2.679   3.948 -1.0062 -1.1192 -0.0043
 7226TIP3   OH221641   1.739   1.826   1.429 -0.4678 -0.2719 -0.4416
 7226TIP3    H121642   1.718   1.790   1.515 -0.6552 -1.7095 -1.0617
 7226TIP3    H221643   1.658   1.819   1.380 -0.2802  0.2582 -0.8269
 7227TIP3   OH221644   0.214   1.519   5.730  0.0158 -0.7370 -0.0380
 7227TIP3    H121645   0.258   1.436   5.749  1.7328  0.3590  0.9182
 7227TIP3    H221646   0.156   1.533   5.804  0.2466 -0.7453  0.1447
 7228TIP3   OH221647   3.944   5.640   4.933  0.2473  0.2303 -0.2419
 7228TIP3    H121648   3.887   5.632   4.857  0.6948  0.8788 -0.6615
 7228TIP3    H221649   3.961   5.734   4.941 -0.6343  0.3075  1.3053
 7229TIP3   OH221650   0.974   1.906   3.271  0.4204  0.0704  0.3053
 7229TIP3    H121651   0.932   1.871   3.350  1.1735 -0.1275  0.6312
 7229TIP3    H221652   0.924   1.985   3.250 -1.5218 -1.3398 -0.6383
 7230TIP3   OH221653   3.250   5.688   1.111  0.4649  0.1523  0.1833
 7230TIP3    H121654   3.184   5.754   1.091  1.2363  0.9742  0.2840
 7230TIP3    H221655   3.218   5.647   1.192  1.0485  1.9081  1.3532
 7231TIP3   OH221656   5.671   1.791   1.642 -0.1855  0.7084 -0.3025
 7231TIP3    H121657   5.718   1.730   1.584 -0.0969  0.9304 -0.4680
 7231TIP3    H221658   5.698   1.767   1.730 -1.3807 -0.5346 -0.2458
 7232TIP3   OH221659   3.754   3.634   2.922 -0.2232  0.7013  0.4880
 7232TIP3    H121660   3.841   3.600   2.941 -1.2384 -1.1902  2.2173
 7232TIP3    H221661   3.768   3.725   2.897  2.2217  0.4845  0.8641
 7233TIP3   OH221662   2.066   2.406   1.636  0.1377 -0.2665  0.0629
 7233TIP3    H121663   2.150   2.395   1.680  0.3032  0.2013 -0.1290
 7233TIP3    H221664   2.087   2.409   1.543  0.1615  1.8388  0.0908
 7234TIP3   OH221665   4.399   2.506   2.258  0.6046 -0.3181 -0.2266
 7234TIP3    H121666   4.399   2.581   2.198 -0.2215  2.8196  3.2958
 7234TIP3    H221667   4.485   2.510   2.300 -0.3093  0.3419  1.7248
 7235TIP3   OH221668   2.958   5.600   1.247 -0.2897 -0.4095  0.3327
 7235TIP3    H121669   2.892   5.577   1.312 -0.0039 -1.1824  0.3576
 7235TIP3    H221670   2.933   5.688   1.217  0.8853  1.0580  3.2105
 7236TIP3   OH221671   5.562   5.634   1.428 -0.3063  0.4591 -0.3448
 7236TIP3    H121672   5.618   5.664   1.357 -0.3001 -0.6414 -0.8192
 7236TIP3    H221673   5.547   5.712   1.481  1.4779  0.8335 -0.3352
 7237TIP3   OH221674   1.566   6.661   3.031  0.6338  0.4192 -0.0293
 7237TIP3    H121675   1.568   6.623   2.943  2.9355  0.1836  0.0657
 7237TIP3    H221676   1.473   6.674   3.049  0.0145 -1.0101 -1.8456
 7238TIP3   OH221677   4.411   0.463   1.076 -0.0740 -0.3790 -0.0488
 7238TIP3    H121678   4.362   0.535   1.035 -0.3892  1.0135  2.5420
 7238TIP3    H221679   4.501   0.494   1.076 -0.0293 -0.5132  0.0434
 7239TIP3   OH221680   0.957   4.621   3.494  0.7797  0.8438  0.2367
 7239TIP3    H121681   1.020   4.646   3.426  1.3007  0.7769  0.6849
 7239TIP3    H221682   0.997   4.545   3.537  0.4908  0.9265  0.6606
 7240TIP3   OH221683   0.422   5.922   1.328 -0.3130  0.1021  0.1120
 7240TIP3    H121684   0.332   5.932   1.296 -0.9508  1.1374  2.0629
 7240TIP3    H221685   0.431   5.829   1.345 -0.3847 -0.2779 -1.7800
 7241TIP3   OH221686   4.837   6.448   0.061 -0.0400  0.5096 -0.2927
 7241TIP3    H121687   4.782   6.486  -0.008  0.0675  0.0725 -0.6233
 7241TIP3    H221688   4.778   6.391   0.109 -0.6354  2.3395  1.2665
 7242TIP3   OH221689   0.291   4.656   5.598 -0.2730 -0.1203  0.4792
 7242TIP3    H121690   0.224   4.629   5.536  0.4174 -2.1888  0.5394
 7242TIP3    H221691   0.348   4.715   5.548 -0.8515 -0.1636 -0.2421
 7243TIP3   OH221692   2.003   4.702   0.806  0.3003 -0.0725  0.2318
 7243TIP3    H121693   1.972   4.616   0.776 -2.7645  0.4076  1.6432
 7243TIP3    H221694   1.928   4.760   0.792  1.6936  2.0184  0.9720
 7244TIP3   OH221695   1.721   2.286   4.689 -0.4813 -0.3262  1.2648
 7244TIP3    H121696   1.802   2.336   4.694 -0.8701  0.8966 -2.1435
 7244TIP3    H221697   1.749   2.197   4.669  0.0850  0.2087 -0.5004
 7245TIP3   OH221698   1.492   0.645   4.795 -0.4685  0.3534 -0.1336
 7245TIP3    H121699   1.452   0.598   4.721 -1.4292 -0.1157  0.6691
 7245TIP3    H221700   1.512   0.732   4.759 -0.2063 -0.1153 -1.1621
 7246TIP3   OH221701   6.227   6.485   1.313  0.3917  0.2990  0.2040
 7246TIP3    H121702   6.211   6.550   1.381 -2.8237 -0.3303  0.2157
 7246TIP3    H221703   6.284   6.420   1.355  0.9416  1.4474  1.2815
 7247TIP3   OH221704   4.347   1.818   3.364  0.8899 -0.3616  0.0272
 7247TIP3    H121705   4.270   1.844   3.414  1.3540 -0.2589  0.7034
 7247TIP3    H221706   4.315   1.752   3.302  0.2130 -0.1161  0.1136
 7248TIP3   OH221707   6.121   1.117   5.373  0.0603  0.5623  0.2640
 7248TIP3    H121708   6.127   1.182   5.303  1.1093  0.2592  0.0528
 7248TIP3    H221709   6.028   1.113   5.394 -1.1136 -2.3852 -4.0488
 7249TIP3   OH221710   0.252   1.150   2.389 -0.0360  0.2017 -0.5053
 7249TIP3    H121711   0.266   1.202   2.309 -0.9157 -0.0258 -0.8213
 7249TIP3    H221712   0.328   1.092   2.393  0.1078  0.3369 -1.0816
 7250TIP3   OH221713   1.589   6.601   2.435  0.1178  0.4278  0.3171
 7250TIP3    H121714   1.574   6.650   2.354 -1.4688  1.3575  1.1267
 7250TIP3    H221715   1.565   6.511   2.413  0.1872  0.5717 -0.3783
 7251TIP3   OH221716   3.941   3.998   2.546 -0.1692  0.1369 -0.4504
 7251TIP3    H121717   3.870   4.055   2.575 -1.2382 -1.4428  0.2181
 7251TIP3    H221718   3.931   3.993   2.451 -1.4967 -0.6843 -0.2956
 7252TIP3   OH221719   3.833   4.736   0.954  0.4059 -0.0784  0.0282
 7252TIP3    H121720   3.799   4.669   1.013  0.5996 -1.2934 -1.2006
 7252TIP3    H221721   3.914   4.699   0.920  1.8363  1.8299  1.1907
 7253TIP3   OH221722   3.279   4.510   5.841 -0.1019 -0.5811 -0.0123
 7253TIP3    H121723   3.235   4.586   5.804  0.1179  0.4604  1.7428
 7253TIP3    H221724   3.301   4.456   5.765  0.1300  1.3031 -1.3677
 7254TIP3   OH221725   5.443   2.168   2.598 -0.2887 -0.2303 -0.3442
 7254TIP3    H121726   5.499   2.154   2.674  2.8516  1.5812 -2.1420
 7254TIP3    H221727   5.426   2.080   2.564 -0.1993 -0.9437  1.3454
 7255TIP3   OH221728   1.172   1.811   1.169 -0.3451  0.0734 -0.1529
 7255TIP3    H121729   1.166   1.902   1.199 -2.2476 -0.1068  0.1569
 7255TIP3    H221730   1.169   1.816   1.074  0.3533  0.3631 -0.1652
 7256TIP3   OH221731   1.344   4.614   2.845  0.3808 -0.5663  0.1302
 7256TIP3    H121732   1.255   4.594   2.875 -0.3252  0.6758 -0.9769
 7256TIP3    H221733   1.390   4.530   2.847 -1.3854 -1.6258 -1.0583
 7257TIP3   OH221734   1.411   2.349   4.328  0.3443 -0.3571 -0.4247
 7257TIP3    H121735   1.465   2.423   4.299 -0.9603  0.1178 -1.6896
 7257TIP3    H221736   1.333   2.353   4.274 -1.6839 -0.1607  2.3082
 7258TIP3   OH221737   3.678   6.210   3.178  0.1568 -0.4585 -0.0107
 7258TIP3    H121738   3.668   6.148   3.106 -0.7078 -0.5836  0.2046
 7258TIP3    H221739   3.684   6.295   3.136 -0.3802 -0.5288 -0.2393
 7259TIP3   OH221740   6.058   0.617   2.562 -0.1158 -0.3023 -0.6711
 7259TIP3    H121741   6.128   0.551   2.561 -0.2229 -0.4454  0.6844
 7259TIP3    H221742   6.093   0.689   2.509  1.0461 -0.4025 -0.0694
 7260TIP3   OH221743   5.372   3.621   2.068 -0.2226 -0.5604  0.6243
 7260TIP3    H121744   5.459   3.584   2.079 -0.0938 -0.7963 -0.9040
 7260TIP3    H221745   5.313   3.551   2.095  0.0601 -0.8013  0.6258
 7261TIP3   OH221746   4.041   3.016   4.292  0.7464 -0.0368  0.2077
 7261TIP3    H121747   4.089   3.068   4.356  2.2303 -1.2555  0.1213
 7261TIP3    H221748   4.052   3.064   4.210  2.1910 -0.4992  0.1102
 7262TIP3   OH221749   4.161   1.728   5.339 -0.1271  0.3226  0.1289
 7262TIP3    H121750   4.168   1.768   5.252  0.7672 -0.8472 -0.3666
 7262TIP3    H221751   4.248   1.740   5.377  1.4416 -4.0987 -1.4271
 7263TIP3   OH221752   4.818   6.635   2.520  0.4468 -0.3179  0.0422
 7263TIP3    H121753   4.770   6.705   2.563 -0.3140  0.6970 -2.2576
 7263TIP3    H221754   4.757   6.600   2.456  0.8034 -3.1871  1.1620
 7264TIP3   OH221755   0.621   3.180   5.501  0.2090 -0.1853 -0.4063
 7264TIP3    H121756   0.638   3.194   5.408 -1.9026 -0.6345 -0.9155
 7264TIP3    H221757   0.604   3.086   5.509  1.5979 -0.3702  0.6775
 7265TIP3   OH221758   3.582   2.585   5.003 -0.2455  0.1094 -0.0971
 7265TIP3    H121759   3.665   2.620   4.971 -0.1285 -1.7408 -2.0305
 7265TIP3    H221760   3.556   2.519   4.938 -2.8733  0.0937  0.8148
 7266TIP3   OH221761   4.697   0.470   3.037  0.3156 -0.2961  0.5660
 7266TIP3    H121762   4.774   0.414   3.029 -0.1472 -0.7451 -1.4050
 7266TIP3    H221763   4.658   0.446   3.121  0.5989 -2.3450  0.1665
 7267TIP3   OH221764   0.684   6.607   3.832 -0.3177 -0.3849 -0.3959
 7267TIP3    H121765   0.777   6.588   3.830  0.0539  1.3344 -0.5583
 7267TIP3    H221766   0.646   6.535   3.883  1.4585  0.3279  2.0818
 7268TIP3   OH221767   0.011   0.974   0.855  0.9643  0.8440 -0.0713
 7268TIP3    H121768   0.076   0.943   0.792  0.2530 -0.1223 -0.3571
 7268TIP3    H221769   0.031   1.067   0.867  1.8788  0.7520 -0.7696
 7269TIP3   OH221770   6.541   5.217   2.522 -0.0909  0.0280 -0.5704
 7269TIP3    H121771   6.630   5.249   2.505 -0.5793  1.4198 -0.6496
 7269TIP3    H221772   6.513   5.178   2.439  0.5607 -0.6947 -0.4504
 7270TIP3   OH221773   3.217   0.142   3.748  0.5699  0.0389  1.0688
 7270TIP3    H121774   3.194   0.172   3.836  0.4636 -0.4548  1.2137
 7270TIP3    H221775   3.281   0.072   3.763  2.0052  1.2227  0.6827
 7271TIP3   OH221776   6.564   2.889   5.662 -0.7157 -0.8243  0.0884
 7271TIP3    H121777   6.575   2.801   5.696  1.0799 -0.2834  0.9988
 7271TIP3    H221778   6.575   2.880   5.567 -1.7782 -1.7255  0.0233
 7272TIP3   OH221779   0.489   1.622   1.241 -0.0892 -0.2230  0.4179
 7272TIP3    H121780   0.402   1.616   1.281 -0.9617  0.0576 -1.3611
 7272TIP3    H221781   0.505   1.535   1.205  0.0833 -0.0847  0.1617
 7273TIP3   OH221782   6.486   3.880   4.828 -0.2007  0.4426  0.2085
 7273TIP3    H121783   6.411   3.822   4.814  1.0150 -0.6830 -2.3687
 7273TIP3    H221784   6.553   3.824   4.866  0.0237  0.9285  0.5423
 7274TIP3   OH221785   5.968   2.094   4.011 -0.2766 -0.7255  0.5434
 7274TIP3    H121786   6.057   2.124   4.030 -0.7350  0.0855  1.4352
 7274TIP3    H221787   5.911   2.163   4.045 -1.2316 -0.8008 -0.8284
 7275TIP3   OH221788   0.267   0.198   2.786 -0.1678 -0.6191 -0.3222
 7275TIP3    H121789   0.304   0.117   2.750 -0.2549 -0.5770 -0.5058
 7275TIP3    H221790   0.172   0.185   2.781 -0.1790 -0.7819  0.2745
 7276TIP3   OH221791   0.248   5.098   5.288 -0.0346  1.1899 -0.4483
 7276TIP3    H121792   0.227   5.192   5.286  0.7167  1.3552 -1.4713
 7276TIP3    H221793   0.328   5.091   5.236  0.9817  0.2272  1.1766
 7277TIP3   OH221794   0.894   6.721   1.770  0.1065 -0.1031  0.0539
 7277TIP3    H121795   0.889   6.733   1.676 -0.3329 -0.4623  0.0287
 7277TIP3    H221796   0.968   6.775   1.798  1.9974 -2.1117 -0.8353
 7278TIP3   OH221797   1.964   1.487   5.397  0.4442 -0.3224 -0.5764
 7278TIP3    H121798   1.950   1.392   5.389 -0.5111 -0.1281 -1.3782
 7278TIP3    H221799   2.025   1.508   5.326  1.5955 -0.4952  0.3197
 7279TIP3   OH221800   2.087   3.505   2.172 -0.3077 -0.0081  0.0954
 7279TIP3    H121801   2.119   3.473   2.256 -0.6480  0.0062  0.2318
 7279TIP3    H221802   2.089   3.600   2.179  1.2096  0.0332 -0.5009
 7280TIP3   OH221803   2.414   2.114   3.009  0.3547  0.5569  0.4885
 7280TIP3    H121804   2.396   2.090   2.918  2.1466 -1.9822  0.6995
 7280TIP3    H221805   2.501   2.155   3.007 -0.2946  2.0440  0.9062
 7281TIP3   OH221806   1.981   5.418   4.751 -0.0494  0.1068  0.8584
 7281TIP3    H121807   1.887   5.433   4.758  0.1872  1.2739  1.7849
 7281TIP3    H221808   1.996   5.334   4.795 -0.5198  0.4650  1.7207
 7282TIP3   OH221809   1.188   3.111   4.893 -0.2655  0.1039 -0.3387
 7282TIP3    H121810   1.125   3.153   4.951  0.1376  0.3583 -0.0836
 7282TIP3    H221811   1.234   3.049   4.949  0.7914  1.0387 -0.1533
 7283TIP3   OH221812   6.511   6.488   3.033  0.2504  0.4804 -0.0968
 7283TIP3    H121813   6.587   6.460   2.981 -0.0537 -1.2207  0.2963
 7283TIP3    H221814   6.437   6.483   2.973  0.3542  1.5431 -0.3174
 7284TIP3   OH221815   2.619   4.240   1.303  0.1848 -0.4234 -0.1640
 7284TIP3    H121816   2.674   4.278   1.234  0.0440  0.1599  0.0356
 7284TIP3    H221817   2.623   4.305   1.374  1.9621 -1.9201  1.2036
 7285TIP3   OH221818   4.360   2.157   0.887  0.1102 -0.1604  0.2533
 7285TIP3    H121819   4.326   2.216   0.821 -1.2884  2.5382  3.0980
 7285TIP3    H221820   4.450   2.140   0.860  0.9613  4.1329 -0.3852
 7286TIP3   OH221821   2.289   4.290   5.704 -0.5446  0.6922 -0.0801
 7286TIP3    H121822   2.223   4.305   5.636 -1.0182  0.8085  0.3915
 7286TIP3    H221823   2.238   4.288   5.785 -0.6900 -3.7576 -0.0199
 7287TIP3   OH221824   5.712   2.146   3.915  0.0380 -0.5892  0.3873
 7287TIP3    H121825   5.684   2.081   3.979 -0.2247  0.1110  0.9907
 7287TIP3    H221826   5.774   2.099   3.859 -0.3344 -1.4236  0.6572
 7288TIP3   OH221827   4.523   2.165   0.287 -0.2383 -0.0206  0.1777
 7288TIP3    H121828   4.597   2.127   0.240 -0.3956  0.7126 -0.6874
 7288TIP3    H221829   4.469   2.205   0.219 -0.6040  0.8560  0.9517
 7289TIP3   OH221830   3.528   3.179   4.275 -0.5581 -0.2199 -0.2549
 7289TIP3    H121831   3.607   3.169   4.222 -0.1126  2.6683 -0.2858
 7289TIP3    H221832   3.458   3.192   4.212 -0.5908 -0.0588 -0.1857
 7290TIP3   OH221833   1.645   4.662   3.745 -0.2448  0.0597 -0.3292
 7290TIP3    H121834   1.725   4.678   3.795 -0.4946  0.8627 -0.1791
 7290TIP3    H221835   1.586   4.618   3.806 -0.5519  1.0438  0.0913
 7291TIP3   OH221836   3.162   0.265   4.740 -0.4247  0.2250 -0.8719
 7291TIP3    H121837   3.123   0.178   4.737  2.5935 -1.2546 -0.7884
 7291TIP3    H221838   3.092   0.321   4.775 -1.9292 -2.4588  0.8031
 7292TIP3   OH221839   2.376   0.536   0.815 -0.1013 -0.6017 -0.3354
 7292TIP3    H121840   2.353   0.594   0.888  1.7386  0.1477 -0.3099
 7292TIP3    H221841   2.461   0.499   0.840 -0.9823 -3.0020 -0.5611
 7293TIP3   OH221842   4.237   3.147   1.873 -0.3040 -0.0561 -0.2164
 7293TIP3    H121843   4.253   3.200   1.951  0.7377  0.1575 -0.5521
 7293TIP3    H221844   4.235   3.057   1.905  1.0490 -0.0468 -0.0450
 7294TIP3   OH221845   3.051   6.230   4.195 -0.0477 -0.5742 -0.0884
 7294TIP3    H121846   3.014   6.282   4.266  1.3723 -0.5930  0.6997
 7294TIP3    H221847   3.030   6.140   4.218 -1.5680 -0.4710 -0.9023
 7295TIP3   OH221848   6.853   1.330   4.816  0.1945 -0.0018 -0.1981
 7295TIP3    H121849   6.787   1.286   4.869 -0.2104  1.9927  1.0193
 7295TIP3    H221850   6.910   1.259   4.785 -0.5889 -1.4034  1.4415
 7296TIP3   OH221851   0.889   6.486   5.222  0.7336  0.3689 -0.4030
 7296TIP3    H121852   0.908   6.414   5.282 -0.9513  0.0181 -0.2227
 7296TIP3    H221853   0.968   6.495   5.169  1.2231 -1.1656  0.0139
 7297TIP3   OH221854   3.261   6.212   0.687 -0.8835  0.2939 -0.0861
 7297TIP3    H121855   3.206   6.135   0.701  0.6844 -0.8372  0.1678
 7297TIP3    H221856   3.221   6.281   0.740 -0.3504 -1.3358  2.6217
 7298TIP3   OH221857   5.890   4.891   2.717  0.1383  0.5424  0.6310
 7298TIP3    H121858   5.936   4.912   2.635 -0.3952  1.0324  0.4457
 7298TIP3    H221859   5.847   4.974   2.741 -1.0941 -0.0367  0.5017
 7299TIP3   OH221860   6.583   0.715   5.012  0.1110 -0.3701  0.0114
 7299TIP3    H121861   6.611   0.805   5.024 -2.1508  0.3202  0.4927
 7299TIP3    H221862   6.571   0.681   5.101  0.8189 -1.1512 -0.1653
 7300TIP3   OH221863   2.028   0.756   1.356 -0.3462  0.1425 -0.2587
 7300TIP3    H121864   2.018   0.774   1.449  0.1625  2.0571 -0.5380
 7300TIP3    H221865   2.061   0.666   1.352 -1.9573 -0.5694  1.3065
 7301TIP3   OH221866   4.854   1.410   0.655  0.0909  0.7393 -0.2522
 7301TIP3    H121867   4.844   1.411   0.750  0.2677 -0.4871 -0.1958
 7301TIP3    H221868   4.764   1.418   0.621 -0.1885 -0.7633  0.0693
 7302TIP3   OH221869   5.628   2.781   5.346  0.5179  0.2396  0.2241
 7302TIP3    H121870   5.678   2.846   5.396 -2.1817  0.9262  2.3044
 7302TIP3    H221871   5.541   2.819   5.337 -0.4135 -1.9574 -0.8801
 7303TIP3   OH221872   3.475   4.573   5.582 -0.3857  0.0735  0.0671
 7303TIP3    H121873   3.439   4.601   5.498 -1.2569 -0.7485  0.1408
 7303TIP3    H221874   3.453   4.480   5.588  0.1954 -0.0297  0.9380
 7304TIP3   OH221875   0.325   4.848   3.030 -0.0371  0.3731 -0.2751
 7304TIP3    H121876   0.369   4.819   3.110  1.0348  0.6271 -0.7425
 7304TIP3    H221877   0.306   4.768   2.982  0.6854  0.2903 -0.4391
 7305TIP3   OH221878   0.974   4.168   4.603 -0.3904  0.4680  0.2185
 7305TIP3    H121879   0.968   4.077   4.573  0.3021 -0.0017  1.4330
 7305TIP3    H221880   0.928   4.168   4.687 -0.5376  1.2947  0.1450
 7306TIP3   OH221881   6.547   1.955   0.787  0.3648 -0.2591  0.0520
 7306TIP3    H121882   6.544   1.897   0.863 -0.8257 -1.7628 -1.0621
 7306TIP3    H221883   6.548   1.895   0.712  1.2021  1.1756 -1.1342
 7307TIP3   OH221884   1.441   3.005   2.482  0.3274  0.2180  0.3942
 7307TIP3    H121885   1.407   3.067   2.417 -2.0808 -1.7771 -0.4033
 7307TIP3    H221886   1.486   2.939   2.430  2.1825  0.8076  1.1762
 7308TIP3   OH221887   2.367   5.712   4.195  0.2684 -0.0651 -0.4013
 7308TIP3    H121888   2.295   5.734   4.255  0.8697  0.5302  0.1219
 7308TIP3    H221889   2.405   5.633   4.231 -0.4270 -0.6754 -0.9653
 7309TIP3   OH221890   6.848   0.884   4.362  0.2288 -0.2580  0.0592
 7309TIP3    H121891   6.924   0.861   4.309  0.2517 -0.3973  0.1519
 7309TIP3    H221892   6.818   0.801   4.399 -0.0795 -0.2290 -0.1241
 7310TIP3   OH221893   2.962   1.848   0.465 -0.3246  0.4776  0.0562
 7310TIP3    H121894   3.022   1.807   0.404 -0.5329  0.9276 -0.4591
 7310TIP3    H221895   3.007   1.845   0.550  0.0607  0.0660 -0.1597
 7311TIP3   OH221896   1.174   2.910   2.992  0.5018  0.0461  0.6433
 7311TIP3    H121897   1.145   3.001   2.986  0.0317 -0.0500  1.3957
 7311TIP3    H221898   1.094   2.859   2.977  0.7931 -0.2498  0.0590
 7312TIP3   OH221899   3.521   0.277   4.009 -0.4235  0.0031 -0.8529
 7312TIP3    H121900   3.430   0.281   3.981 -0.7207 -0.7350 -0.0325
 7312TIP3    H221901   3.517   0.267   4.104  0.5270  0.4746 -0.7489
 7313TIP3   OH221902   1.864   3.240   1.962  0.1269 -0.0041  0.0645
 7313TIP3    H121903   1.814   3.171   2.005  1.6262 -0.9261  0.4104
 7313TIP3    H221904   1.910   3.196   1.891  0.2901  0.8550 -0.3815
 7314TIP3   OH221905   0.387   2.776   2.638  0.8120  0.3119 -0.8197
 7314TIP3    H121906   0.338   2.694   2.638  1.2046  0.0677 -0.1586
 7314TIP3    H221907   0.455   2.763   2.704 -0.3497  1.8813  0.7788
 7315TIP3   OH221908   1.239   0.408   1.236 -0.8892  0.4858  0.4751
 7315TIP3    H121909   1.209   0.426   1.325  0.8667 -1.0417  1.4322
 7315TIP3    H221910   1.331   0.433   1.236 -0.8765  0.5320 -0.9678
 7316TIP3   OH221911   0.398   6.233   3.895  0.2049  0.2006  0.6037
 7316TIP3    H121912   0.476   6.230   3.950  0.8184 -0.3885 -0.2727
 7316TIP3    H221913   0.415   6.303   3.832  0.1684 -0.1449  0.2073
 7317TIP3   OH221914   7.181   1.083   2.374 -0.1322 -0.2729 -0.3664
 7317TIP3    H121915   7.273   1.099   2.395 -0.3875 -0.7700  1.2929
 7317TIP3    H221916   7.181   1.061   2.281  1.5211 -0.9249 -0.2548
 7318TIP3   OH221917   4.908   3.976   3.216 -0.5378 -0.5073  0.2610
 7318TIP3    H121918   5.001   3.959   3.200  0.1975  0.6340  2.6703
 7318TIP3    H221919   4.896   4.068   3.192 -0.5838 -0.1821  1.4281
 7319TIP3   OH221920   7.216   1.921   4.309 -0.0302 -0.0310  0.1181
 7319TIP3    H121921   7.219   1.867   4.388  0.2201 -0.7405 -0.3699
 7319TIP3    H221922   7.123   1.922   4.284 -0.0134 -0.3533  0.0452
 7320TIP3   OH221923   1.834   3.922   3.382 -0.5061  0.3101 -0.0303
 7320TIP3    H121924   1.794   4.006   3.400 -1.0586  0.0924 -0.2297
 7320TIP3    H221925   1.762   3.866   3.353  0.0882  0.2224 -1.4551
 7321TIP3   OH221926   5.208   0.797   1.840  0.2046 -0.4125 -0.5082
 7321TIP3    H121927   5.187   0.884   1.875  0.0143 -0.3327 -0.8164
 7321TIP3    H221928   5.275   0.763   1.899 -1.1089 -0.8665  0.7947
 7322TIP3   OH221929   0.068   3.238   1.105 -0.1299  0.2848  1.0273
 7322TIP3    H121930   0.099   3.302   1.041  1.5400 -0.7785  0.7230
 7322TIP3    H221931   0.127   3.248   1.179 -0.6103 -0.0813  1.4620
 7323TIP3   OH221932   2.670   5.826   3.416  0.3230 -0.9339 -0.1509
 7323TIP3    H121933   2.742   5.884   3.392 -0.2531 -0.6161 -1.2061
 7323TIP3    H221934   2.693   5.742   3.376  0.1500 -0.8446 -0.4485
 7324TIP3   OH221935   3.385   4.112   0.826  0.1567  0.1486 -0.0358
 7324TIP3    H121936   3.421   4.107   0.738 -0.0273  1.6465 -0.2285
 7324TIP3    H221937   3.460   4.129   0.882  0.0187  1.5071 -0.2195
 7325TIP3   OH221938   5.361   3.460   0.745  0.4994 -0.4482 -0.2762
 7325TIP3    H121939   5.411   3.433   0.668  1.2141  1.2569 -0.4418
 7325TIP3    H221940   5.286   3.507   0.710  0.5402 -0.1375  0.0421
 7326TIP3   OH221941   6.545   1.581   5.189  0.0197 -0.0298 -0.3289
 7326TIP3    H121942   6.580   1.496   5.216 -0.8473 -0.5827 -0.8917
 7326TIP3    H221943   6.497   1.562   5.108 -1.6375  0.6647  0.4434
 7327TIP3   OH221944   1.895   2.248   2.589  0.2622  0.3546 -0.2037
 7327TIP3    H121945   1.862   2.161   2.611  0.8790  0.1080 -0.2429
 7327TIP3    H221946   1.899   2.249   2.493 -0.2603  0.6196 -0.2242
 7328TIP3   OH221947   5.639   3.879   2.904 -0.6911 -1.0099 -0.0139
 7328TIP3    H121948   5.657   3.791   2.935  0.0297 -1.5282 -1.7563
 7328TIP3    H221949   5.612   3.867   2.813  1.9993  0.6983 -1.1683
 7329TIP3   OH221950   3.188   1.479   2.067 -0.3359 -0.9264  0.3770
 7329TIP3    H121951   3.255   1.474   1.999 -0.9498  0.9012 -0.4278
 7329TIP3    H221952   3.106   1.457   2.022 -0.8178  0.7538  0.3551
 7330TIP3   OH221953   6.082   5.452   3.037 -0.2288  0.1649  0.0434
 7330TIP3    H121954   6.174   5.437   3.018 -0.1910  0.4091  0.0388
 7330TIP3    H221955   6.052   5.511   2.968 -0.5590 -0.4533 -0.3529
 7331TIP3   OH221956   3.739   3.036   0.078 -0.4413 -0.2113 -0.0926
 7331TIP3    H121957   3.691   3.116   0.099  0.0591 -0.0698  0.5637
 7331TIP3    H221958   3.672   2.974   0.051 -0.8497  0.3848 -0.4677
 7332TIP3   OH221959   4.150   6.580   3.254 -0.4024  0.3079  0.1031
 7332TIP3    H121960   4.145   6.657   3.310 -2.0526 -0.2482  0.7943
 7332TIP3    H221961   4.070   6.531   3.274  0.2359 -1.2007 -0.8697
 7333TIP3   OH221962   6.761   6.550   5.040 -0.2507 -0.5459 -0.6219
 7333TIP3    H121963   6.811   6.609   4.984 -0.8964  0.7574  0.1190
 7333TIP3    H221964   6.769   6.464   4.999 -1.5272  0.5017 -3.2685
 7334TIP3   OH221965   2.639   1.435   3.895 -0.0613 -0.0022  0.3655
 7334TIP3    H121966   2.693   1.356   3.900 -1.6744 -1.2126 -0.4563
 7334TIP3    H221967   2.553   1.407   3.928 -0.5051  1.5777  0.6073
 7335TIP3   OH221968   5.791   6.722   4.527  0.5887  0.1576 -0.2581
 7335TIP3    H121969   5.854   6.788   4.554 -1.1413  1.0095  2.0461
 7335TIP3    H221970   5.740   6.764   4.458 -0.2615  1.2077  0.9379
 7336TIP3   OH221971   6.799   2.790   3.758  0.3641 -0.0326  0.3951
 7336TIP3    H121972   6.830   2.827   3.676  1.8213 -0.6363  0.6454
 7336TIP3    H221973   6.718   2.745   3.735  0.3903  0.3990 -0.5688
 7337TIP3   OH221974   1.932   0.838   2.796 -0.2005  0.0498 -0.1572
 7337TIP3    H121975   1.863   0.902   2.812 -2.2923 -1.9736 -0.4866
 7337TIP3    H221976   1.978   0.831   2.879  1.0487  2.9318 -0.4893
 7338TIP3   OH221977   1.884   3.221   5.178  0.3167  0.0992  0.7267
 7338TIP3    H121978   1.857   3.216   5.086  1.2352  0.1870  0.4439
 7338TIP3    H221979   1.804   3.202   5.227  0.2235 -1.9101 -0.1027
 7339TIP3   OH221980   5.140   4.266   1.284 -0.0544 -0.4695 -0.2115
 7339TIP3    H121981   5.231   4.294   1.285  0.0853 -0.9186 -0.4053
 7339TIP3    H221982   5.143   4.173   1.304 -0.2320 -1.1771 -3.1469
 7340TIP3   OH221983   5.683   5.113   2.491  0.0006 -0.3252  0.1610
 7340TIP3    H121984   5.634   5.062   2.555 -0.5546 -0.1081 -0.0857
 7340TIP3    H221985   5.749   5.159   2.542  1.7627 -2.7040  0.1864
 7341TIP3   OH221986   3.966   1.215   3.623  0.0144 -0.1281  0.4524
 7341TIP3    H121987   3.914   1.155   3.569 -0.6627  0.7894  0.0591
 7341TIP3    H221988   3.971   1.171   3.708  0.4912 -1.2603 -0.1263
 7342TIP3   OH221989   2.400   4.420   4.240  0.8329 -0.5727  0.1464
 7342TIP3    H121990   2.364   4.333   4.258  2.6730 -0.9311  2.6712
 7342TIP3    H221991   2.491   4.404   4.217  1.6313  0.7031  2.1656
 7343TIP3   OH221992   0.016   5.754   0.930 -0.0463  0.6840  0.1289
 7343TIP3    H121993   0.023   5.716   1.017  0.4066  0.4070 -0.0268
 7343TIP3    H221994   0.065   5.695   0.873  0.8776  1.6088 -0.0791
 7344TIP3   OH221995   2.216   6.198   3.666 -0.1412  0.1307  0.3464
 7344TIP3    H121996   2.228   6.106   3.639 -0.4791  0.2180 -0.1145
 7344TIP3    H221997   2.129   6.201   3.704 -0.7475  0.5651 -1.0187
 7345TIP3   OH221998   0.826   3.143   4.224 -0.0925 -0.3857 -0.2066
 7345TIP3    H121999   0.756   3.160   4.287 -1.8935 -3.0601 -1.2806
 7345TIP3    H222000   0.897   3.106   4.276 -0.0651  0.8877  0.6961
 7346TIP3   OH222001   2.146   4.031   1.311 -0.3082  0.5973 -0.1489
 7346TIP3    H122002   2.209   4.081   1.260  1.9346  1.7220  3.3706
 7346TIP3    H222003   2.197   3.961   1.350 -1.5249  0.6644  1.6792
 7347TIP3   OH222004   5.857   2.477   3.791  0.2803  0.5329 -0.3379
 7347TIP3    H122005   5.923   2.530   3.746 -0.1348  0.1113 -1.4641
 7347TIP3    H222006   5.905   2.401   3.823  0.3868  0.3427 -0.9496
 7348TIP3   OH222007   3.642   0.939   4.921  0.4897  0.1914 -0.0678
 7348TIP3    H122008   3.554   0.957   4.953  0.1073 -1.5682 -0.0345
 7348TIP3    H222009   3.658   1.006   4.855 -0.8252  0.6115  0.0162
 7349TIP3   OH222010   0.372   1.529   2.508  0.0577  0.6793 -0.3729
 7349TIP3    H122011   0.418   1.537   2.592 -1.9594  0.6849  0.7749
 7349TIP3    H222012   0.318   1.451   2.518  0.2529  0.3115 -1.9369
 7350TIP3   OH222013   5.999   3.583   4.091  0.4924 -0.0814 -0.9529
 7350TIP3    H122014   6.077   3.549   4.136  0.3741  0.0294 -0.6586
 7350TIP3    H222015   5.948   3.624   4.161  0.4327  0.3284 -1.2362
 7351TIP3   OH222016   5.155   2.901   4.082 -0.6423  0.3537 -0.3928
 7351TIP3    H122017   5.167   2.988   4.119  1.2230 -0.1765  0.3994
 7351TIP3    H222018   5.188   2.907   3.993 -0.7138  0.5265 -0.4062
 7352TIP3   OH222019   5.317   0.874   3.606  0.1910 -0.0667 -0.4405
 7352TIP3    H122020   5.230   0.839   3.626  0.4803 -0.5443  0.0113
 7352TIP3    H222021   5.341   0.925   3.684  0.6675 -0.6384 -0.2033
 7353TIP3   OH222022   3.502   2.448   0.202  0.2602  0.1547  0.2562
 7353TIP3    H122023   3.575   2.387   0.194  0.9707  0.6404  2.2820
 7353TIP3    H222024   3.484   2.452   0.296 -1.3311  1.2609 -0.0437
 7354TIP3   OH222025   4.030   2.566   0.642 -0.1232 -0.3126  0.2817
 7354TIP3    H122026   4.088   2.587   0.569 -0.5723 -1.1582 -0.3392
 7354TIP3    H222027   4.087   2.521   0.705  0.1749  0.0342  0.2643
 7355TIP3   OH222028   4.990   0.471   2.797  0.3234  0.0404 -0.5071
 7355TIP3    H122029   4.936   0.395   2.774 -0.7635  0.6842 -0.1607
 7355TIP3    H222030   4.961   0.495   2.885  1.9539 -0.2460  0.1420
 7356TIP3   OH222031   0.283   6.297   4.143  0.4177  0.3301  0.3060
 7356TIP3    H122032   0.281   6.259   4.056 -0.6628  0.1330  0.3993
 7356TIP3    H222033   0.271   6.223   4.203 -1.1464  0.7173  0.5101
 7357TIP3   OH222034   0.248   3.580   2.732  0.1056 -0.3950 -0.0424
 7357TIP3    H122035   0.176   3.539   2.684  0.3312 -0.4703 -0.3170
 7357TIP3    H222036   0.205   3.630   2.801 -0.2213 -0.2457 -0.3540
 7358TIP3   OH222037   6.009   0.398   4.879 -0.2258  0.4206 -0.1950
 7358TIP3    H122038   5.982   0.309   4.856 -0.1666  0.4501 -0.3739
 7358TIP3    H222039   6.022   0.442   4.796 -0.5045  0.6751 -0.1065
 7359TIP3   OH222040   4.951   1.120   0.193  0.5627 -0.3080 -0.2899
 7359TIP3    H122041   4.919   1.174   0.121 -2.4375 -1.1169  0.2872
 7359TIP3    H222042   4.948   1.179   0.269 -0.9833 -0.7012  0.0010
 7360TIP3   OH222043   7.220   1.669   1.651  0.2402  0.0631  0.2523
 7360TIP3    H122044   7.213   1.579   1.619 -2.1815 -0.3115  1.5707
 7360TIP3    H222045   7.174   1.721   1.585 -2.2317 -0.3296  1.5539
 7361TIP3   OH222046   4.023   3.047   0.113 -0.1199 -0.0615  0.1875
 7361TIP3    H122047   3.928   3.051   0.104 -0.0668  0.8912 -0.0703
 7361TIP3    H222048   4.038   2.980   0.180 -0.9470 -0.5517 -0.1029
 7362TIP3   OH222049   6.419   0.946   1.416  0.0409  0.4004 -0.1263
 7362TIP3    H122050   6.477   1.021   1.407  0.4723  0.2270  1.0806
 7362TIP3    H222051   6.382   0.955   1.504 -0.1818 -0.6054 -0.1085
 7363TIP3   OH222052   0.605   6.183   0.104  0.2597  0.3212  0.2151
 7363TIP3    H122053   0.604   6.279   0.098 -1.3388  0.2807 -0.8162
 7363TIP3    H222054   0.513   6.158   0.096  0.7305 -1.3420 -0.3759
 7364TIP3   OH222055   1.747   4.507   1.794 -0.2583 -0.8902  0.1703
 7364TIP3    H122056   1.791   4.465   1.868  1.6552 -0.3688 -0.6268
 7364TIP3    H222057   1.691   4.573   1.835 -0.9752 -2.1003  1.2510
 7365TIP3   OH222058   2.636   0.063   2.703  0.2743  0.0888 -0.3392
 7365TIP3    H122059   2.576   0.081   2.776 -0.3546 -0.5231 -0.6864
 7365TIP3    H222060   2.668   0.149   2.677  0.6748  0.2980  0.7929
 7366TIP3   OH222061   1.382   5.783   2.095 -0.3218 -0.0106  0.1852
 7366TIP3    H122062   1.333   5.705   2.070  1.0220 -0.1443 -2.3824
 7366TIP3    H222063   1.345   5.853   2.041 -0.3820  0.7746  1.2162
 7367TIP3   OH222064   1.858   2.286   2.875  0.8253 -0.3118  0.3177
 7367TIP3    H122065   1.821   2.374   2.874 -2.1830 -1.4206  1.8126
 7367TIP3    H222066   1.839   2.251   2.788  0.2367 -0.1427  0.3749
 7368TIP3   OH222067   4.452   4.020   4.949  0.2269  0.3121 -0.1257
 7368TIP3    H122068   4.469   3.977   4.866  2.3201 -1.4490  1.1273
 7368TIP3    H222069   4.364   3.991   4.973  0.2449 -0.4673 -0.9385
 7369TIP3   OH222070   5.944   0.627   1.146 -0.5233  0.3019  0.8576
 7369TIP3    H122071   5.955   0.595   1.236 -0.3042  1.3473  1.2137
 7369TIP3    H222072   5.995   0.566   1.093 -0.6746 -0.3448  1.4272
 7370TIP3   OH222073   1.317   1.270   2.029  0.4085  0.1268  0.2747
 7370TIP3    H122074   1.270   1.353   2.015  2.1293  0.9178 -1.1133
 7370TIP3    H222075   1.293   1.216   1.954 -0.0259 -0.3444  0.7383
 7371TIP3   OH222076   1.230   1.673   0.415  0.5583 -0.6620  0.3610
 7371TIP3    H122077   1.243   1.632   0.330  0.1237  0.2804 -0.1720
 7371TIP3    H222078   1.173   1.612   0.462 -1.5955  0.1352 -1.0814
 7372TIP3   OH222079   2.724   0.712   5.820 -0.0087  0.4174  0.1144
 7372TIP3    H122080   2.770   0.680   5.742 -0.1941 -2.4444  1.0564
 7372TIP3    H222081   2.680   0.791   5.791  0.7429 -0.0053 -2.4181
 7373TIP3   OH222082   2.677   0.688   0.799 -0.0588  0.0001  0.7339
 7373TIP3    H122083   2.671   0.607   0.848  3.7053 -0.3376  0.9675
 7373TIP3    H222084   2.628   0.752   0.850 -0.5174 -1.4628  2.1813
 7374TIP3   OH222085   0.258   0.390   1.701  0.5105  0.0681 -0.1522
 7374TIP3    H122086   0.219   0.304   1.716 -0.3136  0.6270  1.0347
 7374TIP3    H222087   0.184   0.451   1.705  1.0035  0.8082 -1.4607
 7375TIP3   OH222088   5.616   0.397   1.776  0.0011  0.1424  0.0649
 7375TIP3    H122089   5.643   0.465   1.714  1.1510  0.1248  0.5126
 7375TIP3    H222090   5.529   0.371   1.747 -1.0467  2.7151  0.6641
 7376TIP3   OH222091   5.912   5.239   3.189  0.0253  0.6509 -0.6393
 7376TIP3    H122092   5.934   5.308   3.126 -0.4667  3.6736  2.2498
 7376TIP3    H222093   5.947   5.269   3.272 -1.2349 -2.0692  1.0340
 7377TIP3   OH222094   2.790   1.160   5.513 -0.4244  0.2629  0.1600
 7377TIP3    H122095   2.747   1.079   5.538  0.8082 -0.4864 -0.0736
 7377TIP3    H222096   2.877   1.133   5.482  0.4628  1.7762  1.2089
 7378TIP3   OH222097   7.092   4.669   3.912 -0.1043 -0.0843  0.1180
 7378TIP3    H122098   7.153   4.666   3.985 -0.1051 -3.4014  0.1275
 7378TIP3    H222099   7.017   4.618   3.941 -0.6195 -0.4670 -1.7236
 7379TIP3   OH222100   4.659   2.284   0.521 -0.1207 -0.0965  0.7578
 7379TIP3    H122101   4.730   2.220   0.528 -0.6624 -0.8347 -0.2007
 7379TIP3    H222102   4.603   2.250   0.452 -0.2604  1.6028 -0.0119
 7380TIP3   OH222103   2.570   4.698   5.768  0.0433  0.0047 -0.2162
 7380TIP3    H122104   2.497   4.654   5.722 -0.4179  0.5700 -0.0343
 7380TIP3    H222105   2.532   4.779   5.801  0.4585 -0.2269  0.8718
 7381TIP3   OH222106   5.115   4.340   0.953  0.4720 -0.2941 -0.3751
 7381TIP3    H122107   5.176   4.347   1.027  1.0947 -2.1624 -0.6542
 7381TIP3    H222108   5.157   4.390   0.883  0.2226  0.8984  0.2957
 7382TIP3   OH222109   0.385   4.465   5.057  1.0460  0.7714 -0.1944
 7382TIP3    H122110   0.472   4.503   5.061  1.3285  0.0632  2.3987
 7382TIP3    H222111   0.390   4.388   5.114 -1.5590  1.3564  0.9610
 7383TIP3   OH222112   1.337   0.452   2.473  0.1130  0.1743 -0.0773
 7383TIP3    H122113   1.383   0.427   2.393 -1.9277 -0.9100 -1.0127
 7383TIP3    H222114   1.266   0.388   2.480 -1.3964  1.8689  1.1024
 7384TIP3   OH222115   0.158  -0.032   2.902  0.2046  0.0669 -0.9207
 7384TIP3    H122116   0.215   0.010   2.967 -1.0564 -0.8395  0.8439
 7384TIP3    H222117   0.100   0.039   2.872 -0.0220  0.2198 -0.1252
 7385TIP3   OH222118   1.505   3.378   5.068  0.1951 -0.0888  0.0754
 7385TIP3    H122119   1.509   3.474   5.067  0.4214 -0.0779  1.1416
 7385TIP3    H222120   1.463   3.357   5.151 -0.8247 -0.8947 -0.6294
 7386TIP3   OH222121   0.073   6.100   1.479  0.3524 -0.5407  0.1114
 7386TIP3    H122122   0.091   6.088   1.572  0.9440 -1.4814 -0.1007
 7386TIP3    H222123   0.153   6.139   1.444  0.7096 -1.5284 -0.2339
 7387TIP3   OH222124   1.828   0.668   4.677  0.1653 -0.9832  0.2530
 7387TIP3    H122125   1.759   0.653   4.742 -0.3497 -0.4698 -0.1618
 7387TIP3    H222126   1.896   0.604   4.698 -0.7176 -1.9328  0.2712
 7388TIP3   OH222127   2.561   0.939   5.797 -0.3480 -0.1700  0.4472
 7388TIP3    H122128   2.625   1.002   5.832 -0.0746  0.9372 -1.8949
 7388TIP3    H222129   2.530   0.979   5.716 -1.5587 -2.2309 -0.1610
 7389TIP3   OH222130   1.834   2.450   4.005  0.1010  0.5401  0.0707
 7389TIP3    H122131   1.836   2.433   3.911  1.5258  1.9973 -0.2165
 7389TIP3    H222132   1.851   2.364   4.045  1.1028  0.1713 -1.0669
 7390TIP3   OH222133   3.239   3.717   5.700  0.4312 -0.8202  0.0282
 7390TIP3    H122134   3.149   3.712   5.731  0.4618  0.9404  0.4935
 7390TIP3    H222135   3.290   3.746   5.776  0.7900  1.7718 -1.0850
 7391TIP3   OH222136   1.353   4.705   5.001 -0.1620 -0.2176  0.3001
 7391TIP3    H122137   1.344   4.625   4.950 -1.9752  0.6689 -0.8906
 7391TIP3    H222138   1.313   4.683   5.086  0.8048 -1.0166  0.5716
 7392TIP3   OH222139   6.522   5.073   4.146  0.3437 -0.2617 -0.0478
 7392TIP3    H122140   6.442   5.113   4.179 -0.8246 -2.5293  0.0421
 7392TIP3    H222141   6.533   5.108   4.058 -1.3043 -0.6354 -0.4229
 7393TIP3   OH222142   5.999   5.372   2.132 -0.0240 -0.7555 -0.5364
 7393TIP3    H122143   6.079   5.421   2.153 -0.1697  0.0027 -1.6421
 7393TIP3    H222144   6.029   5.283   2.116  0.3065 -0.9670  1.0727
 7394TIP3   OH222145   2.728   4.737   1.494 -0.1882  0.3721 -0.0437
 7394TIP3    H122146   2.737   4.682   1.416  0.7223  0.2633  0.1181
 7394TIP3    H222147   2.648   4.787   1.480  0.3294  0.8903 -1.4024
 7395TIP3   OH222148   4.693   3.248   0.293  0.6473  0.0370  0.2585
 7395TIP3    H122149   4.771   3.193   0.284  0.2979 -0.7970  1.8775
 7395TIP3    H222150   4.666   3.236   0.384 -0.2573  1.8358  0.2797
 7396TIP3   OH222151   4.440   4.962   1.051 -0.0140 -0.5023 -0.8604
 7396TIP3    H122152   4.443   4.946   0.956 -1.6696  0.2537 -1.0743
 7396TIP3    H222153   4.347   4.965   1.072  0.1572  3.0642  0.1151
 7397TIP3   OH222154   5.171   1.878   5.624  0.4146  0.0807 -0.2528
 7397TIP3    H122155   5.083   1.900   5.653  0.5527 -0.3408  0.5103
 7397TIP3    H222156   5.226   1.893   5.701  0.9142 -0.2713 -0.5333
 7398TIP3   OH222157   0.999   3.087   0.266  0.0202 -0.4812  0.2059
 7398TIP3    H122158   1.039   3.060   0.183 -0.1151 -0.1455  0.0275
 7398TIP3    H222159   1.070   3.079   0.330  0.3538 -0.0049 -0.0860
 7399TIP3   OH222160   1.584   4.436   5.250 -0.4062  0.4668 -0.1244
 7399TIP3    H122161   1.587   4.525   5.286 -0.9234  0.5619 -0.3167
 7399TIP3    H222162   1.661   4.393   5.287 -0.7729  0.6523  0.8733
 7400TIP3   OH222163   6.601   2.715   1.172  0.2982  0.4057 -0.3967
 7400TIP3    H122164   6.516   2.688   1.136  0.1332  0.6153 -0.1671
 7400TIP3    H222165   6.634   2.779   1.109 -0.4138  1.4786  0.2593
 7401TIP3   OH222166   6.063   6.176   5.003 -0.5162  0.4241  0.2539
 7401TIP3    H122167   6.043   6.268   4.985 -0.5540  0.0523 -1.8467
 7401TIP3    H222168   6.068   6.135   4.917 -0.1437 -1.4870  1.1284
 7402TIP3   OH222169   1.641   4.968   5.352 -0.0291  0.2385 -0.2595
 7402TIP3    H122170   1.721   4.979   5.404  1.0681 -4.3891 -0.4995
 7402TIP3    H222171   1.577   4.934   5.415 -1.2409  2.0034 -0.4824
 7403TIP3   OH222172   5.664   2.507   5.306  0.3595  0.6216 -0.6418
 7403TIP3    H122173   5.703   2.497   5.219  1.0671  0.0836 -0.2660
 7403TIP3    H222174   5.637   2.598   5.310 -0.8386  0.3590 -1.9115
 7404TIP3   OH222175   2.405   4.058   1.155  0.4528 -0.1639 -0.4424
 7404TIP3    H122176   2.489   4.094   1.184 -0.0224 -1.0000  2.3521
 7404TIP3    H222177   2.423   3.966   1.136  0.2339 -0.2937 -0.0437
 7405TIP3   OH222178   1.467   4.063   4.435  0.4899 -0.3071  0.0811
 7405TIP3    H122179   1.405   3.998   4.467  1.3843 -0.7346  0.9876
 7405TIP3    H222180   1.494   4.031   4.349 -1.6221  0.6391 -0.9879
 7406TIP3   OH222181   3.870   3.726   0.803  0.0522 -0.5435  0.2683
 7406TIP3    H122182   3.878   3.735   0.708  0.5072 -1.2195  0.2345
 7406TIP3    H222183   3.924   3.798   0.839 -0.0443 -0.3461  0.0208
 7407TIP3   OH222184   5.625   6.162   1.646  0.0046 -0.0103 -0.0449
 7407TIP3    H122185   5.662   6.229   1.588  0.3519 -0.4401 -0.3332
 7407TIP3    H222186   5.550   6.128   1.597 -0.7302  0.7895  0.4947
 7408TIP3   OH222187   5.239   2.181   4.575 -0.2087 -0.5906 -0.0412
 7408TIP3    H122188   5.279   2.178   4.488 -0.0611  1.7459 -0.1289
 7408TIP3    H222189   5.291   2.246   4.623 -1.6462 -0.1696  1.0275
 7409TIP3   OH222190   6.906   1.149   0.584 -0.2151  0.3032 -0.1914
 7409TIP3    H122191   6.999   1.167   0.571 -0.1030  0.3405  0.6420
 7409TIP3    H222192   6.863   1.196   0.512  0.3078  1.4740  0.2275
 7410TIP3   OH222193   0.119   0.149   4.341  0.2202 -1.1233 -0.2757
 7410TIP3    H122194   0.055   0.217   4.363  0.8242 -0.5278 -0.3106
 7410TIP3    H222195   0.075   0.094   4.277 -0.5132 -1.1451  0.2444
 7411TIP3   OH222196   1.971   1.030   5.850  0.5289 -0.2770 -0.2685
 7411TIP3    H122197   2.036   0.966   5.879  0.7684  0.1931  0.2446
 7411TIP3    H222198   1.926   1.057   5.929 -0.3474 -0.6475 -0.6302
 7412TIP3   OH222199   7.145   5.878   4.383 -0.1650  0.3227 -0.2036
 7412TIP3    H122200   7.138   5.787   4.355  0.4882  0.4410 -0.7885
 7412TIP3    H222201   7.185   5.874   4.470 -0.5807  0.0277 -0.0276
 7413TIP3   OH222202   6.143   3.158   0.688 -0.0018 -0.3965  0.4489
 7413TIP3    H122203   6.084   3.120   0.624  1.8145 -3.1541  0.1926
 7413TIP3    H222204   6.205   3.209   0.637 -0.0629 -0.4925  0.2789
 7414TIP3   OH222205   3.490   5.282   5.781 -0.3124  0.6318 -0.3289
 7414TIP3    H122206   3.569   5.297   5.832  0.3045 -0.3096 -0.9792
 7414TIP3    H222207   3.421   5.271   5.846  0.3998 -0.2362  0.3106
 7415TIP3   OH222208   5.142   0.772   5.498  0.3021 -0.4857 -0.1404
 7415TIP3    H122209   5.198   0.803   5.426 -2.0693  1.7334 -1.1858
 7415TIP3    H222210   5.105   0.690   5.466  1.6001 -1.0927 -0.1363
 7416TIP3   OH222211   2.576   0.545   5.565  0.1344 -0.0331 -0.0515
 7416TIP3    H122212   2.518   0.617   5.589  0.4541  0.4529 -0.6936
 7416TIP3    H222213   2.568   0.482   5.636 -0.1956  0.6125  0.4908
 7417TIP3   OH222214   4.726   3.975   1.971 -0.1687 -0.2754 -0.6936
 7417TIP3    H122215   4.680   4.045   2.017 -1.5728 -1.9358  0.5352
 7417TIP3    H222216   4.818   4.001   1.973 -0.5932  1.2631  0.2098
 7418TIP3   OH222217   3.159   2.542   5.704 -0.3597 -0.1462 -0.0644
 7418TIP3    H122218   3.196   2.454   5.698 -0.0854 -0.1588  1.5972
 7418TIP3    H222219   3.066   2.528   5.720 -0.8340 -0.0979 -2.3417
 7419TIP3   OH222220   3.778   0.412   2.270  0.6034 -0.2788  0.1983
 7419TIP3    H122221   3.802   0.324   2.298  0.0216 -1.3556 -2.4646
 7419TIP3    H222222   3.848   0.438   2.210  1.4144  1.6320  1.8619
 7420TIP3   OH222223   3.810   0.846   1.669  0.4351  0.0061  0.1263
 7420TIP3    H122224   3.818   0.790   1.747 -0.2113  1.4134  1.2544
 7420TIP3    H222225   3.869   0.919   1.686  0.7523  0.0372 -1.0163
 7421TIP3   OH222226   2.138   0.858   4.858  0.0957 -0.2116 -0.2067
 7421TIP3    H122227   2.215   0.808   4.885  0.2170  0.8919  1.7187
 7421TIP3    H222228   2.072   0.838   4.925 -0.3573  0.9667 -0.2793
 7422TIP3   OH222229   7.106   1.536   0.342 -0.1158  0.0769 -0.1313
 7422TIP3    H122230   7.193   1.555   0.377 -0.7467  1.0300  0.9775
 7422TIP3    H222231   7.057   1.499   0.415 -0.6226 -0.5713 -0.7742
 7423TIP3   OH222232   4.094   5.760   0.946 -0.4427 -0.1990 -0.2017
 7423TIP3    H122233   4.103   5.846   0.905 -0.1322  0.3425  0.9901
 7423TIP3    H222234   4.004   5.757   0.977  0.4355  1.0576  2.7041
 7424TIP3   OH222235   2.523   3.350   2.667  0.0468  0.0935  0.3700
 7424TIP3    H122236   2.615   3.352   2.639 -0.2564 -0.7803 -0.7416
 7424TIP3    H222237   2.505   3.440   2.694  1.3435  0.1928  1.0116
 7425TIP3   OH222238   3.140   3.413   5.767 -0.4011 -0.1679  0.2440
 7425TIP3    H122239   3.063   3.398   5.714 -0.8138  0.1200  0.7531
 7425TIP3    H222240   3.177   3.495   5.734 -0.3172 -0.3030  0.0042
 7426TIP3   OH222241   1.915   0.557   0.593 -0.2957 -0.2986 -0.0904
 7426TIP3    H122242   1.954   0.472   0.571 -1.5659 -0.4941 -1.6984
 7426TIP3    H222243   1.963   0.585   0.671  3.2378 -0.3937 -2.0428
 7427TIP3   OH222244   0.955   3.725   4.731  0.1598  0.5963 -0.2710
 7427TIP3    H122245   0.915   3.790   4.789  1.3823  1.3402 -0.2308
 7427TIP3    H222246   0.958   3.768   4.646  1.4896  0.8368 -0.1234
 7428TIP3   OH222247   5.821   6.671   3.960 -0.3657  0.4666 -0.3071
 7428TIP3    H122248   5.835   6.765   3.955 -0.7484  0.5775  0.6464
 7428TIP3    H222249   5.728   6.660   3.977 -0.2106 -0.0599  0.2500
 7429TIP3   OH222250   4.021   0.490   5.491  0.3221 -0.3511  0.0191
 7429TIP3    H122251   3.959   0.533   5.432  0.4362 -1.3054 -0.8073
 7429TIP3    H222252   4.070   0.430   5.436  1.6714  0.0388  0.7565
 7430TIP3   OH222253   0.177   2.524   3.000 -0.2882 -0.8206 -0.1276
 7430TIP3    H122254   0.185   2.432   3.023 -0.7317 -1.1018 -1.0614
 7430TIP3    H222255   0.175   2.525   2.904 -1.5057  0.0376 -0.1151
 7431TIP3   OH222256   5.815   6.377   1.792 -0.4733  0.4180 -1.3971
 7431TIP3    H122257   5.776   6.319   1.727 -0.5346 -0.2107 -0.8185
 7431TIP3    H222258   5.769   6.460   1.781 -1.2546 -0.0025 -1.4318
 7432TIP3   OH222259   5.840   0.159   0.849 -0.2391 -0.2445 -0.0383
 7432TIP3    H122260   5.860   0.247   0.817 -1.6252  0.5147  1.0716
 7432TIP3    H222261   5.904   0.143   0.918 -0.5398  0.2461  0.3506
 7433TIP3   OH222262   4.906   2.634   3.107  0.0005 -0.1920 -0.0569
 7433TIP3    H122263   4.811   2.629   3.109 -0.0160  0.0914  2.0972
 7433TIP3    H222264   4.934   2.552   3.066 -1.1392 -0.8361  0.4077
 7434TIP3   OH222265   3.826   1.944   3.408  0.1266  0.0328  0.6962
 7434TIP3    H122266   3.880   1.898   3.472  0.7110  1.4244  1.2584
 7434TIP3    H222267   3.888   1.993   3.355 -0.4579  0.0864  0.0451
 7435TIP3   OH222268   6.707   1.029   2.229  0.3018 -0.4150  0.3211
 7435TIP3    H122269   6.688   1.007   2.138 -0.4975  0.5147  0.2444
 7435TIP3    H222270   6.779   0.971   2.254  2.2605  0.9960 -1.6988
 7436TIP3   OH222271   0.860   0.727   2.691  0.5358 -0.3478 -0.0952
 7436TIP3    H122272   0.846   0.751   2.600 -0.4150  1.1507  0.4186
 7436TIP3    H222273   0.880   0.809   2.735  0.3325 -0.9455  1.1583
 7437TIP3   OH222274   1.934   0.618   0.095 -0.0877  0.1268  0.2327
 7437TIP3    H122275   1.843   0.626   0.124  0.1633 -1.1316  1.4573
 7437TIP3    H222276   1.980   0.691   0.137 -0.2054 -0.2716  1.0730
 7438TIP3   OH222277   3.994   1.431   4.812  0.2766  0.2803 -0.2887
 7438TIP3    H122278   4.035   1.410   4.729  2.3038 -0.3601  0.7964
 7438TIP3    H222279   3.958   1.348   4.843  0.6029  0.2467  0.0101
 7439TIP3   OH222280   1.005   0.526   2.542  0.2221 -0.1239  0.4706
 7439TIP3    H122281   1.003   0.435   2.572  0.2358 -0.4596 -0.5299
 7439TIP3    H222282   0.915   0.544   2.516  0.5832 -0.4507 -1.0679
 7440TIP3   OH222283   4.631   1.897   4.889  0.4395 -0.5373  0.0776
 7440TIP3    H122284   4.705   1.887   4.949  1.0827  0.8022 -0.4467
 7440TIP3    H222285   4.622   1.991   4.877  3.0219 -0.5657 -5.0520
 7441TIP3   OH222286   4.451   6.502   2.577  0.2226 -0.4299  0.3220
 7441TIP3    H122287   4.530   6.527   2.625  0.2220 -2.2324  1.3526
 7441TIP3    H222288   4.484   6.469   2.493  0.5277 -0.6451  0.5230
 7442TIP3   OH222289   3.748   6.116   1.004 -0.2742 -0.3304 -0.3016
 7442TIP3    H122290   3.658   6.147   0.998 -0.7803 -1.9325 -1.8982
 7442TIP3    H222291   3.793   6.184   1.054 -1.9319  1.4577 -1.0889
 7443TIP3   OH222292   6.785   5.504   5.751 -0.2815 -0.7058 -0.2581
 7443TIP3    H122293   6.743   5.518   5.666  0.8988 -2.3854 -1.1837
 7443TIP3    H222294   6.766   5.412   5.773  0.7802 -0.7740  0.4888
 7444TIP3   OH222295   0.778   0.897   2.045  0.2542 -0.5633  0.4611
 7444TIP3    H122296   0.837   0.883   1.971 -0.8667 -1.9091 -0.2245
 7444TIP3    H222297   0.717   0.964   2.015  1.5889  1.1221  1.3127
 7445TIP3   OH222298   2.924   3.106   3.009  0.0798 -0.6327  0.2603
 7445TIP3    H122299   2.998   3.055   2.975  0.6369 -1.6564  2.7637
 7445TIP3    H222300   2.869   3.121   2.933  3.1951  0.8930 -1.9374
 7446TIP3   OH222301   2.590   2.741   2.341 -0.1500 -0.3159  0.1871
 7446TIP3    H122302   2.645   2.813   2.311 -2.1628  0.4917 -1.7835
 7446TIP3    H222303   2.600   2.741   2.436  0.5698  2.0068  0.1579
 7447TIP3   OH222304   1.044   5.955   2.552 -0.2131 -0.2217  0.2388
 7447TIP3    H122305   1.131   5.957   2.593 -0.1206  0.7145  0.0289
 7447TIP3    H222306   1.061   5.924   2.463 -0.1656 -0.5369  0.3567
 7448TIP3   OH222307   7.112   6.753   1.762  0.4349 -0.2680 -0.3863
 7448TIP3    H122308   7.162   6.830   1.734 -0.6391  0.3097 -0.7696
 7448TIP3    H222309   7.116   6.694   1.686 -0.7125  0.4171 -1.0040
 7449TIP3   OH222310  -0.003   3.938   4.165 -0.5109 -0.2853  0.4641
 7449TIP3    H122311  -0.024   3.995   4.091 -1.2895 -2.8609 -1.4365
 7449TIP3    H222312   0.085   3.905   4.146  0.2331  0.7534  1.9134
 7450TIP3   OH222313   3.768   3.078   3.050 -0.1251 -0.0616  0.1532
 7450TIP3    H122314   3.697   3.054   3.109  0.1283  1.2643  1.0308
 7450TIP3    H222315   3.724   3.112   2.972 -0.4501 -0.7715  0.0207
 7451TIP3   OH222316   3.577   1.873   0.537  0.1756 -0.2348  0.1796
 7451TIP3    H122317   3.491   1.909   0.560 -0.3370 -2.5659  2.4287
 7451TIP3    H222318   3.640   1.941   0.560 -0.8657  0.1730  2.0039
 7452TIP3   OH222319   0.034   1.630   2.604  0.2009 -0.4035  0.2441
 7452TIP3    H122320   0.050   1.542   2.571 -2.4426 -1.2747  1.0851
 7452TIP3    H222321   0.017   1.682   2.525 -0.2038 -1.1049 -0.1358
 7453TIP3   OH222322   6.182   4.428   1.009 -0.5233  0.3034 -0.3828
 7453TIP3    H122323   6.125   4.465   1.077  0.0730  1.0977 -0.3038
 7453TIP3    H222324   6.269   4.426   1.049 -0.7536 -2.5877  0.1512
 7454TIP3   OH222325   5.028   5.622   0.786 -0.5317  0.0913 -0.2640
 7454TIP3    H122326   5.123   5.610   0.790 -0.3820  1.3892  1.2433
 7454TIP3    H222327   4.993   5.547   0.833 -0.2736 -0.4844 -0.9731
 7455TIP3   OH222328   5.998   5.831   2.716 -0.7964 -0.0447  0.0606
 7455TIP3    H122329   5.922   5.876   2.677 -1.3584 -1.3924 -0.4858
 7455TIP3    H222330   6.053   5.901   2.749 -1.5425  1.0572 -0.9241
 7456TIP3   OH222331   4.616   1.975   5.301  0.2593 -0.3143  0.1270
 7456TIP3    H122332   4.710   1.975   5.282  0.0078  1.0347 -1.3459
 7456TIP3    H222333   4.585   1.892   5.265  1.0920 -1.5262  2.0463
 7457TIP3   OH222334   3.582   1.329   0.992  0.0567 -0.0004 -0.0777
 7457TIP3    H122335   3.589   1.234   0.982 -0.5397 -0.0642  0.0906
 7457TIP3    H222336   3.502   1.342   1.043  0.0557  0.5986 -0.2284
 7458TIP3   OH222337   2.971   5.171   0.969  0.0391 -0.1586  0.2883
 7458TIP3    H122338   2.896   5.176   1.028 -1.9512  1.2232 -2.1456
 7458TIP3    H222339   3.036   5.229   1.009 -0.8258 -0.0788  1.6525
 7459TIP3   OH222340   0.625   2.094   2.268 -0.4256  0.2357 -0.6641
 7459TIP3    H122341   0.632   2.155   2.195  0.0005 -0.4759 -1.2252
 7459TIP3    H222342   0.708   2.102   2.315 -1.5643  2.4048  1.1428
 7460TIP3   OH222343   5.214   0.516   3.331  0.1743  0.1636  0.7664
 7460TIP3    H122344   5.259   0.503   3.415 -1.2778 -0.3185  1.5137
 7460TIP3    H222345   5.150   0.585   3.349  0.8161  1.1039 -0.3740
 7461TIP3   OH222346   1.456   3.895   3.000  0.1541  0.5978 -0.0165
 7461TIP3    H122347   1.539   3.943   2.991  0.3540  0.6958  1.9529
 7461TIP3    H222348   1.460   3.827   2.933  2.5128 -0.3420  0.9879
 7462TIP3   OH222349   4.681   6.131   1.419 -0.3648 -0.1407  0.6353
 7462TIP3    H122350   4.688   6.170   1.332  0.2598 -1.2461  0.1678
 7462TIP3    H222351   4.769   6.140   1.456 -0.6444  0.3884  1.1960
 7463TIP3   OH222352   0.061   3.776   4.888  0.2047 -0.3228  0.5142
 7463TIP3    H122353   0.042   3.692   4.848 -1.2054 -0.5648  1.6220
 7463TIP3    H222354   0.140   3.807   4.843 -0.4674 -1.2399 -1.3808
 7464TIP3   OH222355   2.149   2.700   4.661 -0.4933 -0.3784 -0.0875
 7464TIP3    H122356   2.171   2.768   4.597  0.5223  0.2731  0.9161
 7464TIP3    H222357   2.054   2.702   4.666 -0.4492  2.2145  1.1831
 7465TIP3   OH222358   0.374   4.275   5.238 -0.0581 -0.3462  0.3093
 7465TIP3    H122359   0.390   4.281   5.332 -0.1096  0.7053  0.2616
 7465TIP3    H222360   0.323   4.194   5.228  0.7778 -0.9792  1.0570
 7466TIP3   OH222361   5.643   5.346   1.432  0.6509  0.3696 -0.0839
 7466TIP3    H122362   5.641   5.290   1.510  0.4154  1.0377  0.3968
 7466TIP3    H222363   5.610   5.430   1.462  1.3634  0.8810 -0.7124
 7467TIP3   OH222364   0.729   1.129   4.016  0.1730  0.3322 -0.2380
 7467TIP3    H122365   0.738   1.215   4.056  3.4923  0.5695 -1.1299
 7467TIP3    H222366   0.698   1.072   4.086 -1.2541  2.0510  0.5931
 7468TIP3   OH222367   2.984   6.108   2.166 -0.1291 -0.2336  0.1061
 7468TIP3    H122368   3.018   6.137   2.081 -3.0477  1.3857 -0.6317
 7468TIP3    H222369   2.957   6.018   2.152 -1.3430  0.2762 -0.9747
 7469TIP3   OH222370   6.582   2.964   5.388  0.0456  0.1272 -0.0261
 7469TIP3    H122371   6.513   3.030   5.386  1.3908  1.6059 -0.0673
 7469TIP3    H222372   6.654   3.003   5.338  1.5442 -0.5986  1.4461
 7470TIP3   OH222373   6.526   1.699   0.653  0.3646 -0.0342 -0.1822
 7470TIP3    H122374   6.616   1.677   0.674 -0.0570 -1.7992 -0.1049
 7470TIP3    H222375   6.487   1.617   0.623 -0.3316  1.3288 -3.4637
 7471TIP3   OH222376   4.586   1.723   3.064  0.9093 -0.2446 -0.8831
 7471TIP3    H122377   4.628   1.660   3.122 -0.1013  0.1125  0.2675
 7471TIP3    H222378   4.493   1.703   3.070  0.2234  3.0148  1.6473
 7472TIP3   OH222379   1.000   1.512   0.354  0.1571  0.4265  0.0028
 7472TIP3    H122380   1.000   1.454   0.278  2.8398  0.3987 -0.0540
 7472TIP3    H222381   0.984   1.599   0.317  0.6079  0.3036 -0.4885
 7473TIP3   OH222382   5.905   6.575   0.685 -0.0477 -0.0402  0.5128
 7473TIP3    H122383   5.936   6.612   0.602 -1.4866 -0.3172 -0.1933
 7473TIP3    H222384   5.964   6.502   0.703  0.4147  0.1656 -0.1540
 7474TIP3   OH222385   4.581   0.963   0.919 -0.5174  0.3144 -0.3690
 7474TIP3    H122386   4.568   1.042   0.971 -0.3340  0.7133 -0.9200
 7474TIP3    H222387   4.518   0.970   0.847 -1.1238 -0.4774  0.0671
 7475TIP3   OH222388   3.671   1.344   4.136 -0.1467  0.4503  0.3811
 7475TIP3    H122389   3.754   1.316   4.174 -0.2767 -2.6016 -1.2672
 7475TIP3    H222390   3.618   1.371   4.211  0.8234 -1.8316  2.0057
 7476TIP3   OH222391   2.448   5.740   2.784  0.1892  0.4625 -0.0007
 7476TIP3    H122392   2.488   5.674   2.728 -1.2061  1.6679 -2.5681
 7476TIP3    H222393   2.355   5.720   2.784  0.0509  0.9913  1.2585
 7477TIP3   OH222394   6.510   2.947   3.818 -0.0507 -0.2889 -0.6275
 7477TIP3    H122395   6.505   2.947   3.723  0.9587  0.0547 -0.6902
 7477TIP3    H222396   6.495   2.856   3.843  0.8384 -0.6042 -1.1915
 7478TIP3   OH222397   4.416   0.170   0.401 -0.0778  0.5836  0.1063
 7478TIP3    H122398   4.474   0.113   0.350  0.2070  0.9797 -0.0167
 7478TIP3    H222399   4.346   0.112   0.431  0.8114 -0.0846  0.9483
 7479TIP3   OH222400   5.611   5.683   4.042  0.4182  0.4010  0.0079
 7479TIP3    H122401   5.613   5.698   3.947  1.4974 -0.2564 -0.0907
 7479TIP3    H222402   5.696   5.714   4.073  0.6238 -0.6518  0.5452
 7480TIP3   OH222403   4.245   1.838   2.064 -0.2210  0.5380  0.4175
 7480TIP3    H122404   4.280   1.807   1.980 -0.9665 -0.5763  0.4971
 7480TIP3    H222405   4.204   1.760   2.103 -0.2681  1.1456  1.6190
 7481TIP3   OH222406   2.527   4.777   0.350 -0.4127  0.1835  0.5371
 7481TIP3    H122407   2.492   4.698   0.391 -1.0789 -0.3302 -0.9750
 7481TIP3    H222408   2.516   4.845   0.417 -2.2114 -0.4569  0.9450
 7482TIP3   OH222409   5.876   2.501   1.820  0.2670  0.0964 -0.0552
 7482TIP3    H122410   5.838   2.589   1.822 -1.6314 -0.6464 -1.0526
 7482TIP3    H222411   5.862   2.467   1.908 -0.8677  0.0873 -0.2170
 7483TIP3   OH222412   2.501   2.686   3.222 -0.1288  0.6085 -0.3879
 7483TIP3    H122413   2.418   2.641   3.241 -0.2174  0.0186 -1.9972
 7483TIP3    H222414   2.555   2.669   3.300 -1.4843  0.9745  0.6736
 7484TIP3   OH222415   6.384   1.423   3.491  0.6938  0.4989 -0.2154
 7484TIP3    H122416   6.413   1.513   3.477  0.2938  0.7058  0.2359
 7484TIP3    H222417   6.449   1.386   3.551  1.5542  0.0901 -1.3777
 7485TIP3   OH222418   2.831   5.315   0.600 -0.0847 -0.6869 -0.3127
 7485TIP3    H122419   2.752   5.288   0.552  0.4805 -4.0553  0.4159
 7485TIP3    H222420   2.799   5.376   0.666 -1.9580 -1.2901 -0.6061
 7486TIP3   OH222421   0.646   3.567   4.232  0.4097 -0.3079 -0.0665
 7486TIP3    H122422   0.686   3.630   4.172  0.3438  1.0466  1.2622
 7486TIP3    H222423   0.712   3.498   4.242  0.2111 -0.8504 -2.0651
 7487TIP3   OH222424   2.436   2.191   4.995 -0.9257  0.3918 -0.3179
 7487TIP3    H122425   2.378   2.187   5.071  0.3781  2.1501  0.8424
 7487TIP3    H222426   2.391   2.139   4.928 -2.7414 -0.1357  1.2215
 7488TIP3   OH222427   6.681   0.613   1.829  0.3424 -0.0052 -0.7598
 7488TIP3    H122428   6.636   0.571   1.756 -0.1586  2.2601 -1.8356
 7488TIP3    H222429   6.641   0.699   1.836  1.0386  0.2008  1.6133
 7489TIP3   OH222430   6.854   1.110   1.045  0.5973 -0.2727  0.3125
 7489TIP3    H122431   6.836   1.072   0.958  0.8465 -1.0783  0.6026
 7489TIP3    H222432   6.816   1.047   1.106 -0.4041  0.7504  0.7764
 7490TIP3   OH222433   6.306   0.163   4.187  0.2019 -0.1309 -0.3087
 7490TIP3    H122434   6.271   0.221   4.119 -0.5579 -0.1806  0.0312
 7490TIP3    H222435   6.301   0.076   4.148 -3.8230 -0.7296  1.0784
 7491TIP3   OH222436   2.044   1.074   1.780  0.5595 -0.1338  0.2029
 7491TIP3    H122437   2.065   1.129   1.705  1.8220  0.5837  1.0481
 7491TIP3    H222438   1.973   1.121   1.824  0.0554 -0.3773 -0.3421
 7492TIP3   OH222439   1.179   2.527   3.096 -0.0794  0.6499 -0.4082
 7492TIP3    H122440   1.216   2.439   3.082  0.7940  0.7823  0.8882
 7492TIP3    H222441   1.084   2.514   3.093 -0.0033 -0.6947  1.5733
 7493TIP3   OH222442   2.960   2.511   3.009 -0.6353  0.7097  0.4851
 7493TIP3    H122443   2.906   2.455   3.065 -1.6129 -0.9972 -1.9772
 7493TIP3    H222444   2.906   2.526   2.931  1.6972  0.5464 -1.2701
 7494TIP3   OH222445   2.891   4.475   5.830  0.3780  0.2233 -0.1048
 7494TIP3    H122446   2.947   4.398   5.839 -0.1100 -0.1789 -0.4503
 7494TIP3    H222447   2.820   4.460   5.892  0.8186  0.8923  0.5798
 7495TIP3   OH222448   1.412   4.153   0.172  0.2545  0.2798 -0.1642
 7495TIP3    H122449   1.394   4.164   0.078 -1.7600 -2.0308 -0.1581
 7495TIP3    H222450   1.434   4.241   0.202 -0.6083  1.3986 -2.5066
 7496TIP3   OH222451   5.411   0.648   2.989 -0.2661  0.5105 -0.0450
 7496TIP3    H122452   5.489   0.637   3.043 -1.1980 -0.1047  1.2281
 7496TIP3    H222453   5.444   0.646   2.899  1.0727 -0.7703  0.4298
 7497TIP3   OH222454   3.629   0.712   1.277 -0.6435 -0.3576 -0.0664
 7497TIP3    H122455   3.711   0.663   1.279  0.3518  1.2434  0.6106
 7497TIP3    H222456   3.574   0.665   1.214  0.6803 -1.6239 -0.3302
 7498TIP3   OH222457   7.004   4.809   1.682 -0.0029 -0.5720 -0.2778
 7498TIP3    H122458   7.080   4.865   1.665  0.0548 -1.0685 -1.7227
 7498TIP3    H222459   6.952   4.858   1.746  0.7056  0.5289 -0.5261
 7499TIP3   OH222460   1.886   4.769   3.857 -0.2433 -0.1529 -0.3166
 7499TIP3    H122461   1.929   4.817   3.786 -0.9264  0.3845 -0.3829
 7499TIP3    H222462   1.948   4.774   3.930 -0.3790  0.9981 -0.2671
 7500TIP3   OH222463   1.059   1.559   2.212  0.8421  0.2186 -0.5528
 7500TIP3    H122464   0.973   1.564   2.172  0.8881  0.9217 -0.5731
 7500TIP3    H222465   1.050   1.494   2.281  0.5792 -0.4863 -1.2370
 7501TIP3   OH222466   5.018   5.603   4.273 -0.3942  0.1629  0.2815
 7501TIP3    H122467   5.030   5.689   4.313  0.2617  0.7389 -1.0705
 7501TIP3    H222468   4.925   5.600   4.251 -0.4216  0.5416  0.3360
 7502TIP3   OH222469   1.563   2.805   2.302  0.0849  0.1352  0.7951
 7502TIP3    H122470   1.608   2.721   2.312 -0.8001 -0.6345 -1.0908
 7502TIP3    H222471   1.633   2.869   2.295  0.8991 -0.8598 -0.6632
 7503TIP3   OH222472   3.648   4.867   5.310  0.7830  0.2423  0.1283
 7503TIP3    H122473   3.662   4.773   5.326  0.9753 -0.1078 -1.8697
 7503TIP3    H222474   3.735   4.906   5.319  1.2250 -0.2374 -1.7296
 7504TIP3   OH222475   4.293   1.631   4.976  0.3328 -0.0748 -0.5065
 7504TIP3    H122476   4.232   1.558   4.984  0.6411 -0.1881  1.0956
 7504TIP3    H222477   4.248   1.706   5.014  1.0376 -0.0821  0.3865
 7505TIP3   OH222478   1.029   1.694   4.621 -0.0659  0.0832 -0.1837
 7505TIP3    H122479   1.031   1.599   4.624 -0.9999 -0.0302 -1.9053
 7505TIP3    H222480   1.043   1.715   4.529 -1.9921  1.5187 -0.2112
 7506TIP3   OH222481   1.148   1.255   4.950 -0.1786  0.3981  0.1809
 7506TIP3    H122482   1.239   1.260   4.980 -0.0923  1.3586 -0.2128
 7506TIP3    H222483   1.096   1.263   5.030  0.0804  0.3035  0.3600
 7507TIP3   OH222484   0.338   6.495   3.022 -0.2963 -0.3014  0.2380
 7507TIP3    H122485   0.257   6.497   3.073 -0.8563  2.0993 -0.6481
 7507TIP3    H222486   0.407   6.515   3.086 -0.6343 -0.2974  0.6090
 7508TIP3   OH222487   0.170   2.479   1.845 -0.2893  0.4262  0.4742
 7508TIP3    H122488   0.230   2.503   1.916 -0.1838  0.1927  0.4653
 7508TIP3    H222489   0.119   2.558   1.829  0.0670  0.6506  0.4336
 7509TIP3   OH222490   4.870   3.113   4.594  0.2920 -0.1353 -0.3085
 7509TIP3    H122491   4.874   3.073   4.681 -0.9121  1.9203  0.7619
 7509TIP3    H222492   4.951   3.164   4.588 -0.4809  1.2061  0.4060
 7510TIP3   OH222493   0.093   2.309   3.970  0.2164 -0.7279 -0.2783
 7510TIP3    H122494   0.187   2.313   3.950  0.0094  0.5048 -1.1677
 7510TIP3    H222495   0.081   2.371   4.042 -0.2342  0.9789 -1.7426
 7511TIP3   OH222496   0.732   4.794   3.920 -0.0271  0.1301 -0.0593
 7511TIP3    H122497   0.736   4.819   3.828  0.8912 -1.3946 -0.4773
 7511TIP3    H222498   0.805   4.841   3.961 -0.2306  0.5531 -0.1852
 7512TIP3   OH222499   3.182   4.102   5.696 -0.0489  0.5695  0.8117
 7512TIP3    H122500   3.185   4.049   5.617 -1.6273  1.4641  0.1119
 7512TIP3    H222501   3.261   4.076   5.745  1.1416  0.2180 -1.1679
 7513TIP3   OH222502   2.977   1.225   5.719 -0.0061 -0.8398 -0.0104
 7513TIP3    H122503   2.900   1.207   5.665 -0.0899 -1.1160  0.2028
 7513TIP3    H222504   3.042   1.159   5.692  0.7413  0.3592 -1.3348
 7514TIP3   OH222505   6.751   1.579   4.288  0.0045  0.6793  0.3946
 7514TIP3    H122506   6.688   1.509   4.272 -0.8335  1.1745  1.3816
 7514TIP3    H222507   6.831   1.550   4.245 -1.0150  0.2390 -1.3010
 7515TIP3   OH222508   3.470   6.708   0.105  0.2176  0.8634 -0.3151
 7515TIP3    H122509   3.550   6.672   0.066  1.0123  0.3308  1.6717
 7515TIP3    H222510   3.449   6.647   0.176 -1.9633  1.0236 -0.7528
 7516TIP3   OH222511   4.628   6.122   2.719 -0.2387 -0.1115  0.0554
 7516TIP3    H122512   4.642   6.068   2.796  0.1492 -0.6719 -0.3956
 7516TIP3    H222513   4.699   6.097   2.659 -0.4909  0.3621 -0.4527
 7517TIP3   OH222514   7.167   0.700   0.562 -0.5672 -0.3120  0.4161
 7517TIP3    H122515   7.147   0.606   0.559  0.2788 -0.4947  0.4863
 7517TIP3    H222516   7.090   0.741   0.522 -1.5379 -0.9394  1.5845
 7518TIP3   OH222517   1.534   1.248   4.979 -0.0979  0.6118  0.2241
 7518TIP3    H122518   1.564   1.337   4.996 -0.7489  0.8711  0.0590
 7518TIP3    H222519   1.443   1.247   5.011 -0.4365  0.3145 -0.6969
 7519TIP3   OH222520   0.243   0.295   0.166 -0.3587  0.0551  0.3572
 7519TIP3    H122521   0.217   0.286   0.257 -0.2972 -0.5859  0.3210
 7519TIP3    H222522   0.161   0.307   0.118 -0.3202  1.2879  0.5880
 7520TIP3   OH222523   0.518   3.472   0.162  0.0320  0.6597 -0.0098
 7520TIP3    H122524   0.579   3.519   0.105  0.8825  1.7820  1.7373
 7520TIP3    H222525   0.467   3.540   0.205 -0.5400 -0.1466  0.6233
 7521TIP3   OH222526   4.129   4.698   1.138 -0.1972 -0.0018 -0.0335
 7521TIP3    H122527   4.199   4.696   1.073 -0.3403  0.3485 -0.2055
 7521TIP3    H222528   4.055   4.654   1.095  0.1604 -1.0944  0.4490
 7522TIP3   OH222529   1.799   6.268   1.800 -0.2862  0.6316  0.4310
 7522TIP3    H122530   1.779   6.183   1.837  0.7012  0.0059 -0.4032
 7522TIP3    H222531   1.890   6.285   1.825  1.6295 -1.2915 -4.1064
 7523TIP3   OH222532   2.603   6.821   5.452  0.6210  0.2120 -0.0189
 7523TIP3    H122533   2.612   6.764   5.375  1.4957 -0.1406  0.3221
 7523TIP3    H222534   2.528   6.787   5.500  0.9963 -0.5250  0.0566
 7524TIP3   OH222535   2.089   4.524   0.529  0.4558  0.4343 -0.1819
 7524TIP3    H122536   2.162   4.478   0.572 -0.6137  0.2692  1.5653
 7524TIP3    H222537   2.126   4.608   0.503  0.9584  0.9109  1.9042
 7525TIP3   OH222538   3.777   2.114   3.806  0.5633 -0.0073  0.1632
 7525TIP3    H122539   3.846   2.086   3.866  1.6168  0.9874 -0.5345
 7525TIP3    H222540   3.776   2.210   3.814 -1.1430 -0.0173  0.5674
 7526TIP3   OH222541   6.340   0.584   4.873  0.8036 -0.1046 -0.5373
 7526TIP3    H122542   6.266   0.586   4.933  0.7399 -0.4537 -0.6017
 7526TIP3    H222543   6.386   0.667   4.888 -0.4293  0.7944 -1.5593
 7527TIP3   OH222544   3.267   4.635   0.414 -0.8161  0.0597  0.3592
 7527TIP3    H122545   3.192   4.625   0.354  0.3172  2.0345 -1.5571
 7527TIP3    H222546   3.296   4.546   0.431 -0.3993 -0.6632 -3.2493
 7528TIP3   OH222547   2.599   1.947   5.845  0.0043 -0.1532  0.2272
 7528TIP3    H122548   2.543   1.972   5.771 -0.1528  0.5510  0.5682
 7528TIP3    H222549   2.575   2.009   5.914  1.0646  0.0277  0.4488
 7529TIP3   OH222550   4.971   0.490   3.081 -0.0564 -0.0991  0.0875
 7529TIP3    H122551   5.038   0.557   3.063 -0.2253 -0.3632 -1.6610
 7529TIP3    H222552   4.987   0.465   3.172  0.9066  1.3127  0.3449
 7530TIP3   OH222553   4.729   5.054   1.630  0.3814  0.3963  0.0589
 7530TIP3    H122554   4.724   4.967   1.668  0.1029  0.7596  0.8750
 7530TIP3    H222555   4.662   5.055   1.561  0.9426 -0.2890 -0.5084
 7531TIP3   OH222556   5.059   5.141   0.350  0.0232 -0.4052 -0.1280
 7531TIP3    H122557   5.067   5.064   0.406 -2.1667 -0.0034  0.8700
 7531TIP3    H222558   5.050   5.214   0.412  0.6407  0.4806 -1.0418
 7532TIP3   OH222559   6.215   5.105   1.807  0.2028 -0.9866  0.3497
 7532TIP3    H122560   6.174   5.187   1.777  1.9008  0.2339  1.2104
 7532TIP3    H222561   6.303   5.107   1.769 -0.0314 -2.9412 -0.4312
 7533TIP3   OH222562   6.764   5.702   5.245  0.0676  0.2658  0.4787
 7533TIP3    H122563   6.847   5.710   5.292 -0.7036  2.8703  1.5252
 7533TIP3    H222564   6.703   5.758   5.292 -1.3322  1.3457 -2.3863
 7534TIP3   OH222565   6.994   1.355   1.117  0.0795 -0.3409  0.1925
 7534TIP3    H122566   6.985   1.260   1.114 -0.0447 -0.3396  0.4599
 7534TIP3    H222567   6.911   1.388   1.082  1.2593 -0.3152 -2.8400
 7535TIP3   OH222568   0.423   6.435   3.722  0.0908  0.5633  0.0044
 7535TIP3    H122569   0.383   6.506   3.772  2.0134  1.5478  0.2575
 7535TIP3    H222570   0.379   6.439   3.637 -1.3628  0.5985  0.7333
 7536TIP3   OH222571   5.128   4.608   4.052 -0.4080  0.2128 -0.2933
 7536TIP3    H122572   5.117   4.513   4.058 -1.2504  0.3094 -0.2049
 7536TIP3    H222573   5.061   4.636   3.991  0.1843  0.6979 -0.7353
 7537TIP3   OH222574   1.945   3.586   4.402 -0.4193 -0.0850  0.2911
 7537TIP3    H122575   1.918   3.495   4.415  0.0497 -0.3359 -0.4102
 7537TIP3    H222576   1.938   3.600   4.308  1.0917  0.0944  0.1908
 7538TIP3   OH222577   5.433   0.840   2.595 -0.1049 -0.4985 -0.2519
 7538TIP3    H122578   5.380   0.901   2.544  1.8249  1.8199  0.3116
 7538TIP3    H222579   5.421   0.755   2.552 -3.1959  0.1158 -0.8744
 7539TIP3   OH222580   6.456   4.706   1.589  0.6412  0.0733 -0.4602
 7539TIP3    H122581   6.397   4.733   1.519  0.2428  1.6111  0.4247
 7539TIP3    H222582   6.469   4.785   1.642  3.1308 -0.3337 -0.3476
 7540TIP3   OH222583   5.639   4.529   4.695  0.3708 -0.0451 -0.0457
 7540TIP3    H122584   5.716   4.549   4.749  0.6434 -0.1239 -0.3961
 7540TIP3    H222585   5.617   4.612   4.653 -0.0724  0.1050  0.4689
 7541TIP3   OH222586   6.732   0.721   0.955  0.2470  1.0421  0.3418
 7541TIP3    H122587   6.822   0.711   0.924  1.1681  1.8210  2.5632
 7541TIP3    H222588   6.714   0.642   1.004 -0.4054  0.7750 -0.3048
 7542TIP3   OH222589   1.145   3.956   3.293 -0.6749 -0.2191  0.0562
 7542TIP3    H122590   1.145   3.982   3.201  1.3842  0.0445  0.0864
 7542TIP3    H222591   1.182   3.867   3.292  0.1799  0.1208  0.6910
 7543TIP3   OH222592   6.713   6.102   4.404 -0.4519  0.4189 -0.0595
 7543TIP3    H122593   6.661   6.171   4.363 -1.7708 -0.7109 -0.3718
 7543TIP3    H222594   6.661   6.023   4.391  0.5929 -0.4830  1.0881
 7544TIP3   OH222595   2.403   1.359   3.995  0.5125  0.5843 -0.3078
 7544TIP3    H122596   2.376   1.386   3.907 -0.2887  0.8660  0.0175
 7544TIP3    H222597   2.354   1.278   4.011  0.3523  0.7485  0.0342
 7545TIP3   OH222598   6.450   6.632   2.578 -0.4768  0.2035 -0.0147
 7545TIP3    H122599   6.434   6.700   2.511  0.0784  0.2482 -0.1087
 7545TIP3    H222600   6.442   6.679   2.661  0.3113  0.4843 -0.0877
 7546TIP3   OH222601   4.663   5.325   1.388  0.0421 -0.0111  0.3680
 7546TIP3    H122602   4.607   5.354   1.460  0.1725 -0.3938  0.6227
 7546TIP3    H222603   4.751   5.353   1.413  0.3433 -1.5233  1.1233
 7547TIP3   OH222604   0.228   4.860   1.116  0.2565 -0.8728 -0.1951
 7547TIP3    H122605   0.198   4.949   1.099 -1.8959 -1.4719  0.0973
 7547TIP3    H222606   0.269   4.832   1.034  1.8925  0.6806  0.0360
 7548TIP3   OH222607   0.395   1.743   5.247  0.2942  0.0078 -0.3864
 7548TIP3    H122608   0.414   1.717   5.337  0.8904  0.2528 -0.4376
 7548TIP3    H222609   0.304   1.717   5.233  0.3790 -0.5713  0.0920
 7549TIP3   OH222610   5.034   4.380   3.296 -0.3867 -0.0539  0.0108
 7549TIP3    H122611   5.130   4.379   3.296 -0.3108 -0.2235  2.9446
 7549TIP3    H222612   5.011   4.471   3.312 -0.7098 -0.1145 -0.1058
 7550TIP3   OH222613   4.353   2.081   1.559 -0.0355  0.1956  0.1297
 7550TIP3    H122614   4.428   2.132   1.529  1.0999 -1.1702  0.4701
 7550TIP3    H222615   4.313   2.048   1.479  2.6284 -2.9545 -0.1542
 7551TIP3   OH222616   0.558   3.226   1.186 -0.5670  0.5586 -0.2452
 7551TIP3    H122617   0.519   3.272   1.261  0.0611  0.5153  0.1201
 7551TIP3    H222618   0.632   3.178   1.224  0.7879  1.8475 -1.1451
 7552TIP3   OH222619   3.035   0.885   2.691 -0.0988 -0.0490  0.2329
 7552TIP3    H122620   3.074   0.823   2.753  0.7492  2.1531  2.0540
 7552TIP3    H222621   3.071   0.859   2.606 -0.9782 -2.9304  0.6284
 7553TIP3   OH222622   6.909   4.659   1.112  0.5859 -0.0384 -0.7033
 7553TIP3    H122623   6.988   4.638   1.063  1.9377 -2.4878  2.1748
 7553TIP3    H222624   6.931   4.740   1.159  1.6184 -0.8784  0.3345
 7554TIP3   OH222625   3.861   4.542   5.060 -0.5852 -0.3258  0.5854
 7554TIP3    H122626   3.817   4.486   4.996 -2.2892 -0.0100  1.4284
 7554TIP3    H222627   3.791   4.571   5.118  0.4762  1.6233  0.9558
 7555TIP3   OH222628   5.891   0.409   0.761  0.2536 -0.1329  0.2952
 7555TIP3    H122629   5.949   0.421   0.686  2.1893 -0.2456  1.6902
 7555TIP3    H222630   5.851   0.495   0.775 -0.1411 -0.1110 -0.8211
 7556TIP3   OH222631   4.735   5.961   5.818  0.0683  0.3999 -0.8410
 7556TIP3    H122632   4.819   5.915   5.822  0.4741  1.1293 -0.7434
 7556TIP3    H222633   4.671   5.893   5.799  0.6980 -0.1517 -1.0248
 7557TIP3   OH222634   6.287   2.764   1.512  0.5637 -0.1228 -0.1835
 7557TIP3    H122635   6.246   2.684   1.545  2.3931 -0.3596  1.7626
 7557TIP3    H222636   6.375   2.737   1.487  0.1581  0.6715 -2.7328
 7558TIP3   OH222637   6.737   3.949   4.263 -0.0147  1.0287 -0.5565
 7558TIP3    H122638   6.801   3.889   4.224  0.5817  1.8072 -0.7845
 7558TIP3    H222639   6.735   3.925   4.356  0.4095  0.8257 -0.5981
 7559TIP3   OH222640   3.398   3.247   4.992  0.0776 -0.7812 -0.0140
 7559TIP3    H122641   3.339   3.276   5.062 -2.8560 -1.8076 -1.8739
 7559TIP3    H222642   3.419   3.326   4.943  1.8414 -0.1191  1.6847
 7560TIP3   OH222643   3.636   4.750   1.530  0.1526 -0.2049 -0.2139
 7560TIP3    H122644   3.581   4.825   1.508 -0.2867 -0.7145 -0.9413
 7560TIP3    H222645   3.578   4.690   1.577  0.1769 -0.5799 -0.6471
 7561TIP3   OH222646   6.024   4.465   2.679  0.1767 -0.7525 -0.1437
 7561TIP3    H122647   6.069   4.542   2.643  0.8968 -1.3869 -0.6138
 7561TIP3    H222648   5.932   4.490   2.680  0.5467  0.7982  1.3935
 7562TIP3   OH222649   2.781   5.639   3.264 -0.5021  0.0370  0.0831
 7562TIP3    H122650   2.787   5.565   3.203 -0.5738 -0.4006  0.5961
 7562TIP3    H222651   2.751   5.712   3.210 -0.2883 -0.2722 -0.4625
 7563TIP3   OH222652   3.478   5.929   5.708  0.4120  0.5909 -0.2260
 7563TIP3    H122653   3.403   5.949   5.763  0.9541  0.1755  0.7027
 7563TIP3    H222654   3.480   5.999   5.643 -0.2921  1.0569  0.2382
 7564TIP3   OH222655   1.431   2.984   5.303 -0.5008 -0.2609 -0.2987
 7564TIP3    H122656   1.412   2.910   5.362  0.0012 -0.7069 -0.6846
 7564TIP3    H222657   1.346   3.003   5.262 -1.5072  1.7515  2.3892
 7565TIP3   OH222658   1.853   2.902   0.841 -0.4449  0.0956  0.0771
 7565TIP3    H122659   1.887   2.832   0.897 -2.3953 -0.6220  0.4187
 7565TIP3    H222660   1.763   2.877   0.821 -1.2547  2.5142  0.2576
 7566TIP3   OH222661   4.767   4.492   1.005 -0.0222 -0.7394  0.0762
 7566TIP3    H122662   4.853   4.529   0.985 -0.1798 -0.2499  0.2970
 7566TIP3    H222663   4.742   4.533   1.088  0.2269 -2.0586  0.8291
 7567TIP3   OH222664   3.288   1.116   2.627 -0.0754 -0.6772 -0.5210
 7567TIP3    H122665   3.216   1.103   2.566 -0.0003 -0.3047 -0.6913
 7567TIP3    H222666   3.284   1.041   2.685  1.7922 -2.7929 -2.8914
 7568TIP3   OH222667   2.258   0.826   3.913  0.4061 -0.1868 -0.6857
 7568TIP3    H122668   2.258   0.788   3.825 -1.3136  2.2338 -1.8154
 7568TIP3    H222669   2.350   0.845   3.931  0.9806 -2.2354 -1.2053
 7569TIP3   OH222670   5.096   4.413   4.503  0.0589  0.2817  0.1638
 7569TIP3    H122671   5.022   4.463   4.467  0.3494  0.4576 -0.2026
 7569TIP3    H222672   5.057   4.356   4.569 -0.2901  0.9734  0.5753
 7570TIP3   OH222673   6.085   0.880   0.188 -0.1453  0.0583  0.4978
 7570TIP3    H122674   6.125   0.874   0.275  1.4203  0.3437 -0.1889
 7570TIP3    H222675   6.153   0.914   0.131 -1.4007  0.6866 -0.7016
 7571TIP3   OH222676   6.426   4.028   2.677  0.5874  0.1745  0.6438
 7571TIP3    H122677   6.483   3.952   2.677  0.8459  0.3480 -0.3008
 7571TIP3    H222678   6.372   4.017   2.598 -0.7377 -0.0255  1.5536
 7572TIP3   OH222679   2.365   3.722   2.289 -0.3788  0.0711  0.2030
 7572TIP3    H122680   2.342   3.686   2.204 -2.0381  0.9431  0.2528
 7572TIP3    H222681   2.393   3.646   2.341  2.1484 -0.3050 -1.5118
 7573TIP3   OH222682   6.336   2.866   0.310  0.1288  0.6037  0.1892
 7573TIP3    H122683   6.296   2.894   0.393  1.2137 -0.6084  1.1614
 7573TIP3    H222684   6.349   2.772   0.320  2.9525  0.8618 -0.1497
 7574TIP3   OH222685   0.510   0.681   5.623 -0.2447  0.3040 -0.9128
 7574TIP3    H122686   0.488   0.621   5.552 -0.6794 -0.0315 -0.4952
 7574TIP3    H222687   0.500   0.630   5.702 -2.9328  1.5210 -0.3512
 7575TIP3   OH222688   1.271   5.182   0.175 -0.2052 -0.9706 -0.4151
 7575TIP3    H122689   1.335   5.233   0.126 -0.4073 -0.0301  0.2768
 7575TIP3    H222690   1.312   5.169   0.261 -0.8584 -0.5067 -0.0253
 7576TIP3   OH222691   3.736   1.107   0.826 -0.0833  0.3377 -0.5391
 7576TIP3    H122692   3.762   1.016   0.834 -0.3946  0.2950  0.1068
 7576TIP3    H222693   3.777   1.151   0.901  0.1125  0.7354 -0.8780
 7577TIP3   OH222694   3.657   1.366   2.234 -0.0563  0.1812  0.8853
 7577TIP3    H122695   3.653   1.341   2.142  2.2608  2.1851  0.1421
 7577TIP3    H222696   3.565   1.371   2.261 -0.7715 -1.3769 -1.0109
 7578TIP3   OH222697   1.951   5.328   0.117 -0.0096 -0.3145 -0.4513
 7578TIP3    H122698   2.006   5.374   0.054  1.1811  0.1729  0.8928
 7578TIP3    H222699   1.960   5.378   0.199 -3.2458  0.3734 -0.3650
 7579TIP3   OH222700   1.339   5.545   3.768 -0.5645  0.1415  0.4810
 7579TIP3    H122701   1.255   5.572   3.730 -0.2406  0.0838 -0.2756
 7579TIP3    H222702   1.320   5.463   3.813 -0.2010 -1.8117 -2.6734
 7580TIP3   OH222703   3.731   3.755   3.249  0.7382 -0.3369 -0.3380
 7580TIP3    H122704   3.662   3.742   3.313  1.5038 -2.1430  0.2119
 7580TIP3    H222705   3.690   3.734   3.165  0.4484 -0.7720 -0.0908
 7581TIP3   OH222706   4.502   6.451   0.008  0.5819 -0.3556 -0.0875
 7581TIP3    H122707   4.481   6.374   0.062 -0.2452 -0.0061  0.1010
 7581TIP3    H222708   4.419   6.473  -0.035  0.7517  0.5657  0.0361
 7582TIP3   OH222709   3.299   6.646   1.708 -0.1910 -0.1064  0.1400
 7582TIP3    H122710   3.312   6.604   1.623  0.2387 -1.1993  0.7368
 7582TIP3    H222711   3.249   6.725   1.687  0.0118 -0.2860 -1.1440
 7583TIP3   OH222712   3.231   4.308   5.288 -0.1545  0.1528 -0.4220
 7583TIP3    H122713   3.163   4.248   5.257 -0.5167  0.4999 -0.3266
 7583TIP3    H222714   3.188   4.394   5.287  0.5796  0.5234 -1.2441
 7584TIP3   OH222715   2.767   5.136   3.139 -0.2361  0.2637 -0.2789
 7584TIP3    H122716   2.797   5.170   3.222 -1.7139 -0.7623  0.7380
 7584TIP3    H222717   2.741   5.046   3.158  0.3133 -0.3146 -2.0755
 7585TIP3   OH222718   3.155   4.712  -0.002 -0.5051  0.4109  0.0182
 7585TIP3    H122719   3.128   4.696   0.088 -1.7673 -0.1471 -0.4373
 7585TIP3    H222720   3.251   4.707  -0.000 -0.5651 -0.6447  1.1162
 7586TIP3   OH222721   3.529   5.503   2.959  0.1423 -0.0056  0.6018
 7586TIP3    H122722   3.484   5.577   2.919 -0.5093 -0.8654 -0.3011
 7586TIP3    H222723   3.614   5.501   2.916  0.0112 -0.0135  0.3395
 7587TIP3   OH222724   2.689   6.511   1.724  0.3145  0.6027 -0.4482
 7587TIP3    H122725   2.648   6.453   1.660  0.9321 -0.6325  0.2485
 7587TIP3    H222726   2.719   6.586   1.672  0.5205 -0.2254 -1.5624
 7588TIP3   OH222727   2.482   5.718   4.713 -0.8191  0.1648  0.3899
 7588TIP3    H122728   2.481   5.687   4.804 -0.8855  0.3330  0.4467
 7588TIP3    H222729   2.433   5.800   4.715  1.4745  1.6359  0.7391
 7589TIP3   OH222730   2.006   5.076   0.827 -0.3901 -0.6823  0.1815
 7589TIP3    H122731   2.053   5.056   0.908  1.1278 -0.8410 -0.7005
 7589TIP3    H222732   1.925   5.025   0.834 -1.9018  1.7386  3.0045
 7590TIP3   OH222733   0.015   4.698   3.091 -0.3603 -0.3287 -1.0729
 7590TIP3    H122734   0.022   4.794   3.094  2.0909 -0.3928 -2.1314
 7590TIP3    H222735  -0.010   4.673   3.180  1.7455  1.1732  0.0379
 7591TIP3   OH222736   6.950   4.082   0.788  0.0684  0.1981 -0.0740
 7591TIP3    H122737   7.039   4.047   0.786 -0.6872 -1.9009 -0.0929
 7591TIP3    H222738   6.927   4.083   0.881  0.1376  0.8503 -0.0594
 7592TIP3   OH222739   3.404   1.062   5.016  0.1683 -0.0134  0.7372
 7592TIP3    H122740   3.311   1.082   5.029 -0.1184 -1.1906  0.6979
 7592TIP3    H222741   3.433   1.030   5.101  0.5243  0.2906  0.7300
 7593TIP3   OH222742   2.555   5.252   0.477 -0.0063 -0.5686  0.1675
 7593TIP3    H122743   2.525   5.164   0.499 -1.1019  0.0961  1.5151
 7593TIP3    H222744   2.548   5.257   0.382 -0.0954 -1.8677  0.0885
 7594TIP3   OH222745   3.222   5.768   2.127 -0.1894  0.3842  0.1939
 7594TIP3    H122746   3.129   5.790   2.138 -0.2213 -0.0201  0.7538
 7594TIP3    H222747   3.238   5.780   2.033 -1.6007 -2.5418 -0.5242
 7595TIP3   OH222748   3.134   3.281   3.739 -0.0146  0.3663 -0.0646
 7595TIP3    H122749   3.157   3.190   3.724  0.0747  0.4672 -0.5453
 7595TIP3    H222750   3.098   3.311   3.656 -2.0856  0.1507  0.6968
 7596TIP3   OH222751   6.182   6.693   2.852 -0.4118  0.3762 -0.1887
 7596TIP3    H122752   6.133   6.742   2.917  1.6494  2.1814  0.1066
 7596TIP3    H222753   6.172   6.601   2.878 -1.1167  0.9302  1.6029
 7597TIP3   OH222754   2.682   6.180   0.815  0.5280 -0.8578 -0.2910
 7597TIP3    H122755   2.680   6.119   0.890  1.6962 -1.1751 -0.4863
 7597TIP3    H222756   2.736   6.135   0.750  1.2707  0.2972 -0.5123
 7598TIP3   OH222757   2.392   3.185   0.262  0.0328 -0.3081 -0.2424
 7598TIP3    H122758   2.346   3.242   0.201  1.7166 -0.1279 -1.4251
 7598TIP3    H222759   2.363   3.097   0.239 -0.7963 -0.1024  0.0007
 7599TIP3   OH222760   6.854   3.288   2.839 -0.0716  0.5008 -0.6731
 7599TIP3    H122761   6.932   3.343   2.847  0.7676 -0.6231 -0.8522
 7599TIP3    H222762   6.885   3.210   2.794 -1.8301  1.0868 -3.0962
 7600TIP3   OH222763   6.433   2.443   3.832  0.0683  0.2592 -0.6886
 7600TIP3    H122764   6.421   2.348   3.840  0.4088  0.2649  0.0445
 7600TIP3    H222765   6.349   2.476   3.799 -0.4935 -0.1601  0.2682
 7601TIP3   OH222766   4.126   4.817   1.948 -0.2739  0.0840 -0.0425
 7601TIP3    H122767   4.218   4.791   1.951 -0.0247  0.9285 -0.1182
 7601TIP3    H222768   4.102   4.809   1.855 -0.0753  0.5353 -0.1339
 7602TIP3   OH222769   1.488   6.649   1.427  0.4546  0.3268  0.0945
 7602TIP3    H122770   1.505   6.587   1.498 -1.2525 -0.4095 -0.0914
 7602TIP3    H222771   1.509   6.735   1.465  1.5461 -0.2281  0.8015
 7603TIP3   OH222772   1.553   3.961   0.313 -0.7545  0.1380  0.6506
 7603TIP3    H122773   1.512   4.041   0.279 -0.6285 -1.2600 -3.3675
 7603TIP3    H222774   1.489   3.892   0.296  0.8583 -1.2310 -0.1708
 7604TIP3   OH222775   3.679   4.537   1.981  0.0865 -0.1513 -0.4183
 7604TIP3    H122776   3.590   4.555   1.952  0.1742 -0.1921 -0.7227
 7604TIP3    H222777   3.734   4.564   1.907  0.4187  1.0236  0.2275
 7605TIP3   OH222778   5.678   0.539   1.355 -0.2880  0.1617 -0.2087
 7605TIP3    H122779   5.696   0.618   1.406  1.5030 -1.1938  1.3723
 7605TIP3    H222780   5.585   0.547   1.331 -0.6477  1.8275  1.4978
 7606TIP3   OH222781   1.330   4.396   2.294 -1.0069  0.2003  0.3826
 7606TIP3    H122782   1.325   4.302   2.311 -0.2111  0.2293  0.8449
 7606TIP3    H222783   1.331   4.437   2.380 -0.9994  0.6129  0.1922
 7607TIP3   OH222784   2.184   3.191   2.971 -0.0725  0.4138 -1.0736
 7607TIP3    H122785   2.273   3.190   2.934  0.5754 -1.5970  0.4092
 7607TIP3    H222786   2.197   3.199   3.065 -1.5718  1.6050 -0.9181
 7608TIP3   OH222787   0.843   6.663   0.245 -0.0069  0.5426  0.3441
 7608TIP3    H122788   0.869   6.582   0.199  0.6945  1.1036 -0.2674
 7608TIP3    H222789   0.783   6.633   0.313 -0.9398 -0.3462 -0.8194
 7609TIP3   OH222790   0.636   6.011   0.705  0.1573  0.3527  0.4373
 7609TIP3    H122791   0.554   6.050   0.672  0.0652  0.2236  0.5122
 7609TIP3    H222792   0.673   5.967   0.629  0.7512  1.3898  0.1016
 7610TIP3   OH222793   7.181   2.845   2.570 -0.1509  0.0127  0.3377
 7610TIP3    H122794   7.104   2.791   2.587  0.8444 -1.3035  0.8055
 7610TIP3    H222795   7.227   2.849   2.654  0.2584  0.8546  0.0858
 7611TIP3   OH222796   1.858   0.522   5.361 -0.3390 -0.2064  0.1545
 7611TIP3    H122797   1.922   0.536   5.431 -0.5230  1.8151  0.0004
 7611TIP3    H222798   1.788   0.471   5.402  0.4434 -0.7137  0.8933
 7612TIP3   OH222799   1.117   4.286   1.136 -0.0311  0.1561 -0.4198
 7612TIP3    H122800   1.092   4.374   1.164 -0.1296  0.7088 -2.1598
 7612TIP3    H222801   1.212   4.292   1.122 -0.3250  0.5558 -2.4236
 7613TIP3   OH222802   6.364   3.928   0.376 -0.5443 -0.0952  0.2556
 7613TIP3    H122803   6.371   3.896   0.286  0.3441  0.6582  0.0384
 7613TIP3    H222804   6.365   4.023   0.368 -3.6049  0.0839  0.8553
 7614TIP3   OH222805   0.067   4.299   1.151  0.3085 -0.0261  0.3355
 7614TIP3    H122806   0.035   4.228   1.094  0.7579  0.9376 -1.1925
 7614TIP3    H222807   0.159   4.276   1.168  1.0581  1.1128 -1.8067
 7615TIP3   OH222808   5.669   3.734   2.319  0.1836  0.0487 -0.2779
 7615TIP3    H122809   5.654   3.706   2.229  1.6017 -1.2241 -0.1542
 7615TIP3    H222810   5.755   3.698   2.342  0.0811  0.7749  1.4192
 7616TIP3   OH222811   1.028   0.013   2.369  0.7428  0.6525  0.2584
 7616TIP3    H122812   0.964  -0.024   2.308  0.0275 -1.0616  1.9564
 7616TIP3    H222813   0.991   0.098   2.394 -0.9838 -0.3397  1.2760
 7617TIP3   OH222814   5.285   1.168   1.679  0.2197 -0.3202 -0.6895
 7617TIP3    H122815   5.342   1.204   1.611  0.4926  0.5933 -0.0021
 7617TIP3    H222816   5.205   1.142   1.632 -0.5705  2.4909 -1.0670
 7618TIP3   OH222817   2.756   1.176   1.859 -0.0630  0.3541 -0.2829
 7618TIP3    H122818   2.718   1.223   1.785 -0.3912  0.5466  0.0043
 7618TIP3    H222819   2.682   1.133   1.900 -0.3182  2.2288  1.3962
 7619TIP3   OH222820   0.946   0.848   1.849  0.2427 -0.2972  0.0361
 7619TIP3    H122821   1.016   0.789   1.823 -0.3004 -0.9914  0.1371
 7619TIP3    H222822   0.918   0.889   1.767  1.0197  0.2759  0.0463
 7620TIP3   OH222823   3.380   0.245   4.527 -0.1779 -0.0903 -0.3786
 7620TIP3    H122824   3.393   0.305   4.601  0.1411 -0.4194 -0.1693
 7620TIP3    H222825   3.388   0.158   4.565 -0.7879 -0.2739 -0.6571
 7621TIP3   OH222826   0.835   6.363   3.594 -0.2581 -0.0290 -0.3578
 7621TIP3    H122827   0.905   6.360   3.659 -1.1700  1.5332  0.7530
 7621TIP3    H222828   0.763   6.313   3.634 -1.0563  1.4899  0.1815
 7622TIP3   OH222829   1.226   4.645   1.975  0.0643 -0.0743  0.2123
 7622TIP3    H122830   1.302   4.592   2.002  2.8458  2.8547 -1.1710
 7622TIP3    H222831   1.230   4.644   1.879  0.9102  3.2153  0.0742
 7623TIP3   OH222832   6.905   0.106   3.409  0.1019 -0.0617  0.1204
 7623TIP3    H122833   6.876   0.067   3.491  0.6508  0.1520  0.4162
 7623TIP3    H222834   6.954   0.036   3.365  0.9722  0.2437  0.5909
 7624TIP3   OH222835   6.548   2.847   3.448  0.5631 -0.5588 -0.0439
 7624TIP3    H122836   6.473   2.878   3.497  1.0044 -0.9736  0.9222
 7624TIP3    H222837   6.597   2.926   3.425  0.8236 -0.4105  0.9846
 7625TIP3   OH222838   4.518   0.964   3.335 -0.4955  0.1268  0.5117
 7625TIP3    H122839   4.509   1.055   3.305  0.2543  0.0045 -0.1208
 7625TIP3    H222840   4.528   0.971   3.430 -2.3956  0.5590  0.7219
 7626TIP3   OH222841   3.748   0.702   3.478 -0.2880  0.3338 -0.0126
 7626TIP3    H122842   3.722   0.780   3.429 -0.3299 -0.3787 -1.1758
 7626TIP3    H222843   3.839   0.718   3.501 -0.7663  1.4366  1.2345
 7627TIP3   OH222844   0.539   2.499   5.346 -0.3868  0.0329 -0.0358
 7627TIP3    H122845   0.553   2.404   5.351 -1.5524 -0.0880  1.9326
 7627TIP3    H222846   0.522   2.526   5.437 -1.4583  1.8924 -0.7263
 7628TIP3   OH222847   2.512   1.400   4.652  0.2087 -0.4117  0.5775
 7628TIP3    H122848   2.587   1.340   4.654  0.3058 -0.2971  0.3572
 7628TIP3    H222849   2.519   1.449   4.734 -0.4090 -1.3590  1.2199
 7629TIP3   OH222850   2.777   3.549   5.169 -0.0740 -0.2602 -0.1471
 7629TIP3    H122851   2.695   3.539   5.120 -0.9775 -0.2453  1.2731
 7629TIP3    H222852   2.817   3.462   5.168 -2.1171 -1.3776  2.4186
 7630TIP3   OH222853   1.815   6.582   0.367  0.2184  0.9318 -0.6068
 7630TIP3    H122854   1.877   6.653   0.381  0.1744  1.2984 -2.0931
 7630TIP3    H222855   1.852   6.532   0.294  0.2127 -0.5485  0.3604
 7631TIP3   OH222856   3.394   6.316   2.436  0.3717 -0.8864 -0.3490
 7631TIP3    H122857   3.303   6.292   2.453  0.3809 -0.8222 -0.2149
 7631TIP3    H222858   3.435   6.234   2.408  0.4279 -1.0510  0.2098
 7632TIP3   OH222859   1.498   0.511   0.799 -0.3570  0.0102  0.0079
 7632TIP3    H122860   1.501   0.416   0.812  2.2852 -0.1636 -1.2672
 7632TIP3    H222861   1.417   0.526   0.750 -0.7095 -1.6309  0.0402
 7633TIP3   OH222862   3.533   0.926   0.616  0.1176  0.1363 -0.2278
 7633TIP3    H122863   3.510   0.834   0.604 -0.6868  0.6044 -2.9911
 7633TIP3    H222864   3.610   0.939   0.561 -0.3476  1.3162 -0.6245
 7634TIP3   OH222865   6.359   4.164   2.906  0.3014  0.1132 -0.5698
 7634TIP3    H122866   6.381   4.114   2.827 -2.1883 -2.0501 -0.0139
 7634TIP3    H222867   6.298   4.231   2.876 -0.5862 -0.6618 -0.5302
 7635TIP3   OH222868   6.198   5.209   2.349  0.4376 -0.0798  0.4826
 7635TIP3    H122869   6.260   5.235   2.280  0.5938 -0.5482  0.4469
 7635TIP3    H222870   6.198   5.114   2.347 -1.0223 -0.0934 -0.1779
 7636TIP3   OH222871   0.820   3.461   2.291  0.2924 -0.0240 -0.3983
 7636TIP3    H122872   0.837   3.538   2.346  1.7498  0.6418 -1.6965
 7636TIP3    H222873   0.727   3.443   2.303  0.5684 -0.1189  2.5110
 7637TIP3   OH222874   1.562   2.121   5.599  0.0680 -0.7992  0.6430
 7637TIP3    H122875   1.643   2.158   5.632 -1.3418  1.3390  1.9294
 7637TIP3    H222876   1.502   2.123   5.673 -1.7196 -0.5564 -0.7443
 7638TIP3   OH222877   5.053   4.911   4.507  0.2215 -0.1375 -1.1254
 7638TIP3    H122878   5.005   4.972   4.562 -0.2762  0.8796 -2.6173
 7638TIP3    H222879   5.044   4.827   4.551 -1.3896  0.3630 -0.4145
 7639TIP3   OH222880   7.130   2.358   0.705  0.1627  0.6480  0.1911
 7639TIP3    H122881   7.046   2.396   0.678 -1.2481 -2.2571  0.1347
 7639TIP3    H222882   7.135   2.375   0.799  0.1545  1.9195 -0.0183
 7640TIP3   OH222883   4.936   6.116   1.088  0.0492  0.0157  0.1780
 7640TIP3    H122884   4.909   6.025   1.084  0.1287  0.0170 -2.4103
 7640TIP3    H222885   5.029   6.115   1.062 -0.2552  0.8730 -1.0601
 7641TIP3   OH222886   1.828   1.200   1.123 -0.1553 -0.8979 -0.2801
 7641TIP3    H122887   1.863   1.113   1.140 -0.5651 -0.8308  1.0371
 7641TIP3    H222888   1.901   1.248   1.084  1.6738 -0.4579  3.2967
 7642TIP3   OH222889   0.536   0.504   5.843 -0.1512  0.1372  0.3200
 7642TIP3    H122890   0.445   0.483   5.866  0.2364 -0.1914  1.6442
 7642TIP3    H222891   0.577   0.526   5.927  0.8284  0.9423 -0.3452
 7643TIP3   OH222892   1.720   3.314   0.379  0.3944 -0.0572  0.4810
 7643TIP3    H122893   1.808   3.344   0.401  0.1798  0.1886  1.0057
 7643TIP3    H222894   1.709   3.233   0.428  0.3562 -0.1254  0.3592
 7644TIP3   OH222895   3.654   3.259   5.160 -0.8958  0.2210 -0.0692
 7644TIP3    H122896   3.596   3.198   5.113 -1.4198 -0.5807  1.5500
 7644TIP3    H222897   3.617   3.264   5.248  0.9696  0.4189  0.7354
 7645TIP3   OH222898   5.029   0.041   3.466  0.2450  0.1095  0.0279
 7645TIP3    H122899   5.122   0.035   3.486  0.1767 -1.4929 -0.0212
 7645TIP3    H222900   5.024   0.099   3.390  1.5070 -1.9947 -1.7876
 7646TIP3   OH222901   5.635   1.159   1.270 -0.8151  0.2879  0.5474
 7646TIP3    H122902   5.697   1.134   1.339  0.2544  1.7519  0.1574
 7646TIP3    H222903   5.640   1.088   1.206  0.2421  0.2503  0.6663
 7647TIP3   OH222904   7.189   3.133   0.067 -0.1315  0.1396  0.6937
 7647TIP3    H122905   7.176   3.053   0.016  0.3304  0.5378 -0.0775
 7647TIP3    H222906   7.195   3.103   0.158  3.1182 -1.1234  0.2251
 7648TIP3   OH222907   4.608   2.863   0.170 -0.3950  0.1669  0.5745
 7648TIP3    H122908   4.682   2.823   0.215 -1.2786 -0.9956  1.0531
 7648TIP3    H222909   4.567   2.919   0.236  1.3969  2.7246 -0.3652
 7649TIP3   OH222910   3.415   4.458   2.336 -0.2396 -0.3762  0.1393
 7649TIP3    H122911   3.438   4.391   2.272  0.4385  0.8538 -0.9476
 7649TIP3    H222912   3.344   4.508   2.295 -1.2335 -0.8301  1.2334
 7650TIP3   OH222913   2.404   6.662   3.193  0.3012  0.0308 -0.4820
 7650TIP3    H122914   2.314   6.664   3.160 -0.7757 -0.8507  2.1571
 7650TIP3    H222915   2.421   6.751   3.223 -0.8303 -0.4151  1.6583
 7651TIP3   OH222916   1.875   2.393   3.737  0.2006 -0.4208  0.3801
 7651TIP3    H122917   1.922   2.319   3.699 -0.9426 -0.7371 -0.4551
 7651TIP3    H222918   1.919   2.470   3.702 -0.9538 -0.6926 -1.8235
 7652TIP3   OH222919   4.864   2.144   2.495 -0.5343  0.2880  0.7467
 7652TIP3    H122920   4.912   2.194   2.429  0.2066  0.8022  1.6633
 7652TIP3    H222921   4.786   2.196   2.513 -0.3383  0.5383  0.8649
 7653TIP3   OH222922   4.373   0.017   1.255  0.5346  0.0245  0.4530
 7653TIP3    H122923   4.451   0.048   1.300  1.4015 -1.2453 -0.1270
 7653TIP3    H222924   4.318  -0.019   1.325  0.5584  0.7276  0.8367
 7654TIP3   OH222925   2.429   1.399   2.999  0.5563  0.1546 -0.0641
 7654TIP3    H122926   2.494   1.328   3.002  0.6607  0.1356 -1.7896
 7654TIP3    H222927   2.345   1.354   2.993  0.3856  0.1840  1.6964
 7655TIP3   OH222928   3.524   5.190   1.813 -0.2501 -0.9501  0.2261
 7655TIP3    H122929   3.474   5.258   1.859  2.1655  0.4972  0.8811
 7655TIP3    H222930   3.535   5.121   1.879 -0.9317 -1.0679  0.2278
 7656TIP3   OH222931   2.553   0.465   2.559 -1.0790  0.0897 -0.0827
 7656TIP3    H122932   2.594   0.540   2.515 -0.4387 -0.0524  0.2550
 7656TIP3    H222933   2.551   0.489   2.651 -0.8832 -0.3035  0.0258
 7657TIP3   OH222934   1.420   5.574   0.193  0.3381 -0.5772 -0.5797
 7657TIP3    H122935   1.415   5.546   0.284 -2.2791  0.5948 -0.2902
 7657TIP3    H222936   1.410   5.493   0.142 -1.9052 -0.8752  0.2260
 7658TIP3   OH222937   1.381   5.954   4.434  0.6372  0.6004  0.0906
 7658TIP3    H122938   1.293   5.961   4.397  0.2823  0.5491  0.9051
 7658TIP3    H222939   1.414   6.044   4.432  0.5375  0.6347 -0.1291
 7659TIP3   OH222940   3.070   5.155   3.488 -0.3416  1.1070  0.5498
 7659TIP3    H122941   2.989   5.200   3.511 -0.9457  0.7062 -0.6846
 7659TIP3    H222942   3.116   5.215   3.429  0.0505  1.1479  0.8942
 7660TIP3   OH222943   1.580   5.848   3.422  0.3468  0.3615  0.2822
 7660TIP3    H122944   1.572   5.787   3.348 -0.9952  1.9802 -0.9974
 7660TIP3    H222945   1.605   5.792   3.496  0.2551 -1.5582 -1.0391
 7661TIP3   OH222946   0.542   1.572   0.591 -0.4911  0.3413 -0.3461
 7661TIP3    H122947   0.630   1.563   0.629 -1.0217  1.7368  1.3505
 7661TIP3    H222948   0.546   1.654   0.541 -1.0332  0.8592  0.4363
 7662TIP3   OH222949   0.825   2.520   2.092  0.3360 -0.5550 -0.3760
 7662TIP3    H122950   0.846   2.529   1.999 -0.0028  0.5502 -0.3476
 7662TIP3    H222951   0.870   2.593   2.134 -0.9654 -0.0170  0.0957
 7663TIP3   OH222952   3.211   2.547   3.710  0.0590  0.2896 -0.6865
 7663TIP3    H122953   3.250   2.499   3.637 -0.7855 -2.7219  0.6592
 7663TIP3    H222954   3.140   2.598   3.671 -0.4165 -1.2866 -1.9850
 7664TIP3   OH222955   1.163   5.904   3.282  0.2160  0.0452 -0.2383
 7664TIP3    H122956   1.188   5.899   3.375  1.3466 -0.0175 -0.5281
 7664TIP3    H222957   1.068   5.916   3.283  0.2233  0.1147  0.9297
 7665TIP3   OH222958   1.358   0.080   1.522  0.1435 -0.0115  0.1442
 7665TIP3    H122959   1.297   0.109   1.589 -2.1900 -1.0309 -1.3925
 7665TIP3    H222960   1.353  -0.015   1.524 -1.2066 -0.0847 -2.3859
 7666TIP3   OH222961   3.550   2.623   3.283 -0.2451 -0.5973 -0.3719
 7666TIP3    H122962   3.540   2.550   3.222 -0.0866 -0.7450 -0.2200
 7666TIP3    H222963   3.543   2.583   3.370 -2.0009 -0.1924 -0.2799
 7667TIP3   OH222964   4.826   6.311   5.846 -0.2624 -0.0888  0.0595
 7667TIP3    H122965   4.860   6.344   5.930  1.4397 -0.5345 -0.4140
 7667TIP3    H222966   4.866   6.369   5.780  0.3576 -1.2261 -0.5854
 7668TIP3   OH222967   6.813   4.632   2.699  0.5718  0.9906 -0.0035
 7668TIP3    H122968   6.821   4.621   2.794  1.9647  1.0364 -0.0927
 7668TIP3    H222969   6.861   4.713   2.680 -0.8281  1.7299 -0.6129
 7669TIP3   OH222970   4.779   4.345   4.043 -0.4221  0.0797 -0.5128
 7669TIP3    H122971   4.763   4.330   3.949 -1.0384 -0.6027 -0.3080
 7669TIP3    H222972   4.693   4.365   4.079 -0.0210  1.5075 -0.2823
 7670TIP3   OH222973   5.696   5.729   3.785 -0.4060 -0.5304  0.2964
 7670TIP3    H122974   5.782   5.689   3.799  0.2360  0.6748 -0.1027
 7670TIP3    H222975   5.671   5.701   3.697 -0.2563 -0.5773  0.2692
 7671TIP3   OH222976   0.674   4.055   2.068 -0.1698 -0.0237 -0.2273
 7671TIP3    H122977   0.641   3.967   2.086 -0.0820 -0.3962 -1.7192
 7671TIP3    H222978   0.658   4.104   2.148 -2.3048 -0.7898 -0.1112
 7672TIP3   OH222979   7.188   4.156   5.515  0.4890  0.6819  0.1591
 7672TIP3    H122980   7.191   4.182   5.422 -0.6527  0.1628 -0.0400
 7672TIP3    H222981   7.102   4.115   5.525  0.0934  1.8315  1.7414
 7673TIP3   OH222982   5.023   2.658   4.628  0.0836  0.1467 -0.0680
 7673TIP3    H122983   5.001   2.574   4.669 -2.1864  0.3245 -0.7655
 7673TIP3    H222984   5.084   2.635   4.558 -0.5814 -0.9749 -0.3062
 7674TIP3   OH222985   3.429   1.396   4.960  0.6502  0.5497  0.4684
 7674TIP3    H122986   3.404   1.388   4.868  1.3387  3.5112 -0.0936
 7674TIP3    H222987   3.389   1.320   5.003 -0.2332 -0.5711 -2.1270
 7675TIP3   OH222988   2.533   3.559   5.062 -0.4829 -0.5239  0.2517
 7675TIP3    H122989   2.560   3.567   4.971  1.0206  2.1363  0.8198
 7675TIP3    H222990   2.439   3.576   5.061 -0.3015  0.5474 -0.7251
 7676TIP3   OH222991   6.448   6.715   1.165 -0.2166  0.3252  0.3306
 7676TIP3    H122992   6.517   6.653   1.187  1.2141  1.4842 -0.6471
 7676TIP3    H222993   6.425   6.694   1.075  2.6141  3.0824 -1.2537
 7677TIP3   OH222994   6.183   6.496   0.545  0.0751  0.1465  0.2222
 7677TIP3    H122995   6.158   6.419   0.595  0.4467  0.3989  0.8014
 7677TIP3    H222996   6.225   6.553   0.608  2.0462 -0.2244 -0.6797
 7678TIP3   OH222997   5.938   0.377   3.638  0.0866 -0.2307  0.2338
 7678TIP3    H122998   5.916   0.467   3.660  2.5638  0.7841 -1.0642
 7678TIP3    H222999   5.878   0.354   3.567  0.2938  0.8932 -0.3207
 7679TIP3   OH223000   1.539   0.230   1.933  0.0493  0.2613  0.0190
 7679TIP3    H123001   1.512   0.267   1.848  1.9502  0.2988 -0.5995
 7679TIP3    H223002   1.477   0.159   1.948 -1.5568  1.4885 -0.4210
 7680TIP3   OH223003   3.052   6.178   3.170 -0.1462  0.5638 -0.2528
 7680TIP3    H123004   3.095   6.096   3.197 -1.3829  0.3962  1.3423
 7680TIP3    H223005   2.963   6.171   3.205 -0.3710  2.4563 -0.3581
 7681TIP3   OH223006   6.984   1.435   0.580 -0.1461  0.1361  0.2740
 7681TIP3    H123007   7.046   1.449   0.651  0.5597 -1.0557 -0.0811
 7681TIP3    H223008   6.905   1.403   0.623  0.3314 -0.7268  0.5255
 7682TIP3   OH223009   5.584   5.613   5.387 -0.3869 -0.5952 -0.2351
 7682TIP3    H123010   5.638   5.540   5.358  0.6830  0.1543 -0.2152
 7682TIP3    H223011   5.617   5.688   5.337 -0.5561  0.1272  0.7011
 7683TIP3   OH223012   5.891   3.564   2.364 -0.1656  0.1389  0.3413
 7683TIP3    H123013   5.904   3.495   2.430 -0.7460  0.3781  0.7117
 7683TIP3    H223014   5.931   3.529   2.285 -1.4722 -1.1205  0.2057
 7684TIP3   OH223015   3.600   5.232   1.272 -0.1938 -0.4387  0.2303
 7684TIP3    H123016   3.519   5.261   1.313 -1.7515 -2.3383 -1.2954
 7684TIP3    H223017   3.663   5.227   1.344 -0.9869  2.3226  1.2459
 7685TIP3   OH223018   5.460   0.124   5.490  0.0415  0.0476 -0.1183
 7685TIP3    H123019   5.420   0.067   5.424 -1.1205  1.8645 -1.0749
 7685TIP3    H223020   5.549   0.137   5.459  0.9712 -2.6367  1.1018
 7686TIP3   OH223021   1.617   3.763   1.529  0.0866  0.5399 -0.2127
 7686TIP3    H123022   1.570   3.845   1.516 -2.8331 -1.0316 -0.4974
 7686TIP3    H223023   1.680   3.782   1.598 -0.4119  3.0121 -0.3412
 7687TIP3   OH223024   1.517   5.270   3.732  0.2120 -0.0672  0.3999
 7687TIP3    H123025   1.467   5.351   3.736 -1.4587 -1.0913  1.8874
 7687TIP3    H223026   1.470   5.215   3.669  0.4216 -0.4404  0.5596
 7688TIP3   OH223027   3.435   4.899   1.415 -0.1037  0.0258  0.0107
 7688TIP3    H123028   3.462   4.885   1.324  0.2907  0.5900  0.0335
 7688TIP3    H223029   3.381   4.823   1.436 -0.2623 -0.0748 -0.7226
 7689TIP3   OH223030   5.033   4.197   4.315 -0.3061 -0.0151  0.1293
 7689TIP3    H123031   5.047   4.231   4.227  1.5254 -0.8135  0.0581
 7689TIP3    H223032   5.049   4.272   4.373  0.6915  0.0040 -0.1479
 7690TIP3   OH223033   2.175   5.705   2.818  0.5918 -0.1863  0.0042
 7690TIP3    H123034   2.154   5.791   2.782  0.9906  0.1022  0.4512
 7690TIP3    H223035   2.166   5.715   2.913  2.7717 -0.0148  0.2402
 7691TIP3   OH223036   0.588   4.007   4.593 -0.5415  0.3234  0.0336
 7691TIP3    H123037   0.553   4.039   4.509  0.9887 -0.1606 -0.8202
 7691TIP3    H223038   0.634   4.083   4.630 -0.1364  0.1795 -0.1747
 7692TIP3   OH223039   2.514   0.905   0.922 -0.1640 -0.2179 -0.4012
 7692TIP3    H123040   2.488   0.997   0.922  1.0230  0.1833 -2.1579
 7692TIP3    H223041   2.593   0.903   0.975 -0.3566 -0.2800 -0.1170
 7693TIP3   OH223042   3.924   5.506   4.331 -0.2877 -0.2293 -0.4780
 7693TIP3    H123043   3.925   5.506   4.235  2.2155  2.7058 -0.6009
 7693TIP3    H223044   3.853   5.566   4.354 -1.1837 -1.2729 -0.3960
 7694TIP3   OH223045   0.940   5.227   3.573  0.2488 -0.3113 -0.1025
 7694TIP3    H123046   0.974   5.169   3.504  1.4730  1.5888 -1.1695
 7694TIP3    H223047   1.017   5.254   3.622 -0.6878 -2.4257  2.7966
 7695TIP3   OH223048   0.447   0.284   2.014  0.4981 -0.2402  0.4942
 7695TIP3    H123049   0.354   0.288   2.037  0.5689 -0.8785  0.9120
 7695TIP3    H223050   0.486   0.360   2.057  0.0547  0.4021 -0.2321
 7696TIP3   OH223051   6.951   5.687   1.545 -0.6980 -0.1368  0.1487
 7696TIP3    H123052   6.862   5.676   1.578 -0.6751  0.1026  0.2934
 7696TIP3    H223053   6.976   5.775   1.573 -0.0726 -0.5529  0.9223
 7697TIP3   OH223054   3.170   1.269   5.071 -0.4630 -0.2640 -0.2400
 7697TIP3    H123055   3.166   1.317   4.988  2.5346 -0.3596 -0.5283
 7697TIP3    H223056   3.142   1.332   5.137  1.3858  1.2909 -0.8620
 7698TIP3   OH223057   1.887   4.521   3.547 -0.3243 -0.1100 -0.0946
 7698TIP3    H123058   1.815   4.580   3.526 -1.9674 -2.1169 -0.4753
 7698TIP3    H223059   1.862   4.482   3.631 -0.1438 -1.4520 -0.6295
 7699TIP3   OH223060   5.643   2.469   3.107  0.1341  0.2096  0.6364
 7699TIP3    H123061   5.730   2.447   3.139  0.5875  1.4575  0.3007
 7699TIP3    H223062   5.589   2.475   3.186  0.2556 -0.9004  0.8217
 7700TIP3   OH223063   5.150   2.435   5.430 -0.4764 -0.3219 -0.1875
 7700TIP3    H123064   5.114   2.347   5.438 -1.4154  0.1087  0.3898
 7700TIP3    H223065   5.188   2.438   5.342 -0.1835 -1.3854 -0.1036
 7701TIP3   OH223066   2.742   2.567   2.807 -0.3152  0.0318 -0.4617
 7701TIP3    H123067   2.690   2.490   2.785 -0.1784  0.2791 -1.7334
 7701TIP3    H223068   2.696   2.606   2.882 -0.7294 -0.9254 -0.2001
 7702TIP3   OH223069   3.133   3.349   2.787 -0.5828  0.0081  0.0868
 7702TIP3    H123070   3.205   3.305   2.832 -0.0515  0.0363 -0.7158
 7702TIP3    H223071   3.093   3.281   2.733  0.9287  0.6835 -2.0115
 7703TIP3   OH223072   5.886   0.768   5.293 -0.3175  0.2136 -0.6434
 7703TIP3    H123073   5.803   0.726   5.270 -0.2258  1.1945 -3.1095
 7703TIP3    H223074   5.908   0.734   5.380 -2.6980 -0.9559 -0.4371
 7704TIP3   OH223075   4.013   5.363   0.002  0.0657  0.2001 -0.3249
 7704TIP3    H123076   3.992   5.402   0.087 -0.4790  1.3331 -0.9715
 7704TIP3    H223077   4.098   5.401  -0.021  0.3276 -0.2892 -0.1922
 7705TIP3   OH223078   0.528   2.947   2.474 -0.1636  0.2041  0.4763
 7705TIP3    H123079   0.528   3.007   2.548 -0.1049  1.2327 -0.3452
 7705TIP3    H223080   0.472   2.875   2.501 -0.6906  0.9003  1.2520
 7706TIP3   OH223081   6.223   3.872   3.576 -0.1147 -0.3053  0.7001
 7706TIP3    H123082   6.151   3.934   3.569  0.2904  0.1499  0.5045
 7706TIP3    H223083   6.209   3.811   3.503 -0.0057  0.1012  0.3332
 7707TIP3   OH223084   6.860   3.795   1.767  0.0556  0.2717 -0.3663
 7707TIP3    H123085   6.917   3.741   1.712  0.5155  1.4296 -1.0634
 7707TIP3    H223086   6.918   3.861   1.804 -0.5714  0.5737  0.0893
 7708TIP3   OH223087   5.721   0.503   0.261 -0.6988 -0.2360  0.4228
 7708TIP3    H123088   5.779   0.577   0.246 -1.6551 -0.0905 -3.4278
 7708TIP3    H223089   5.637   0.542   0.285 -0.2987 -0.3068  2.0742
 7709TIP3   OH223090   5.141   1.550   0.657 -0.1766  0.2476  0.1623
 7709TIP3    H123091   5.092   1.616   0.706  0.7865  0.4489  0.8774
 7709TIP3    H223092   5.100   1.549   0.570 -0.8415  1.0636  0.4547
 7710TIP3   OH223093   1.735   0.565   4.915  0.6976  0.3592 -0.8281
 7710TIP3    H123094   1.728   0.481   4.960 -0.4015  0.3702 -0.9581
 7710TIP3    H223095   1.647   0.582   4.882  0.9866  1.4005 -1.0945
 7711TIP3   OH223096   3.156   3.523   5.441  0.1104  0.1946 -0.3245
 7711TIP3    H123097   3.230   3.470   5.470  1.4769  0.7519 -2.5591
 7711TIP3    H223098   3.190   3.612   5.435 -1.3931  0.8926  0.7348
 7712TIP3   OH223099   6.812   3.152   4.659  0.5469 -0.7088 -0.3097
 7712TIP3    H123100   6.898   3.167   4.618  0.9080 -0.5260  0.4914
 7712TIP3    H223101   6.769   3.089   4.602  0.7453  0.0868 -1.3757
 7713TIP3   OH223102   2.633   6.698   0.528  0.3271 -0.2613  0.0149
 7713TIP3    H123103   2.586   6.627   0.484 -0.3530 -0.5348  1.1264
 7713TIP3    H223104   2.570   6.732   0.592  0.8490  0.9608 -0.1047
 7714TIP3   OH223105   2.956   5.297   4.635  0.4405  0.2737  0.0044
 7714TIP3    H123106   2.958   5.392   4.632  1.2889  0.2604 -2.6440
 7714TIP3    H223107   2.885   5.276   4.696  1.0040  2.5438  1.5593
 7715TIP3   OH223108   2.247   2.152   5.573 -0.3095 -0.6295  0.2781
 7715TIP3    H123109   2.310   2.100   5.624 -1.1190 -0.6721  1.2543
 7715TIP3    H223110   2.227   2.227   5.628 -1.8135 -1.0788  0.3858
 7716TIP3   OH223111   2.532   3.078   0.573 -1.1919 -0.6135  0.8171
 7716TIP3    H123112   2.469   3.011   0.599 -0.2726 -1.4650  0.8977
 7716TIP3    H223113   2.602   3.073   0.638 -1.0236  0.3165  0.7254
 7717TIP3   OH223114   2.015   3.525   4.134  0.0935  0.4933  0.8655
 7717TIP3    H123115   2.103   3.562   4.134 -0.2014  1.2279  1.8093
 7717TIP3    H223116   1.979   3.548   4.048  1.8138 -2.3744 -0.8204
 7718TIP3   OH223117   1.384   3.057   1.646  0.3681 -0.2694 -0.5884
 7718TIP3    H123118   1.288   3.061   1.638  0.4559  0.8935 -1.3410
 7718TIP3    H223119   1.411   2.993   1.580  0.1482 -0.1334 -0.8131
 7719TIP3   OH223120   5.257   4.033   0.785 -0.1814  0.5590 -0.1014
 7719TIP3    H123121   5.167   4.057   0.807  0.0519  1.3640  0.0019
 7719TIP3    H223122   5.275   3.955   0.839 -1.3633 -0.6385 -1.3779
 7720TIP3   OH223123   1.872   5.081   5.508 -0.0110 -0.0709  0.1642
 7720TIP3    H123124   1.851   5.068   5.601  0.6862  1.5711  0.5895
 7720TIP3    H223125   1.813   5.150   5.479  0.2081 -0.1339 -0.4424
 7721TIP3   OH223126   2.372   3.394   5.830  0.4032 -0.1566  0.7071
 7721TIP3    H123127   2.314   3.458   5.788 -0.0559  0.3988  2.1311
 7721TIP3    H223128   2.321   3.362   5.905  1.4797 -0.5539  1.2796
 7722TIP3   OH223129   0.234   3.944   4.747 -0.3810  0.3663 -0.3033
 7722TIP3    H123130   0.183   3.958   4.666  0.7981  0.1973 -1.0931
 7722TIP3    H223131   0.278   4.027   4.762  0.1816  0.0825 -0.3870
 7723TIP3   OH223132   1.131   0.786   3.337  0.1032 -0.2989  0.1519
 7723TIP3    H123133   1.052   0.733   3.323 -0.8276  0.6057  1.6278
 7723TIP3    H223134   1.172   0.792   3.251 -1.3316 -0.9773 -0.6182
 7724TIP3   OH223135   1.138   1.655   4.087  0.5762  0.0755 -0.2018
 7724TIP3    H123136   1.169   1.695   4.006  0.5369 -1.8197 -1.1980
 7724TIP3    H223137   1.076   1.588   4.059  0.6465 -0.7091  1.3862
 7725TIP3   OH223138   5.148   1.355   2.844  0.0268 -0.3833  0.1595
 7725TIP3    H123139   5.065   1.388   2.878  0.5812  1.3445 -0.0924
 7725TIP3    H223140   5.213   1.421   2.869  0.7740  0.0694 -2.6139
 7726TIP3   OH223141   2.344   3.597   3.528  0.6513  0.6132 -0.1286
 7726TIP3    H123142   2.358   3.502   3.527  0.3863  0.5753 -0.3017
 7726TIP3    H223143   2.249   3.607   3.525  0.6478  0.8753  0.5589
 7727TIP3   OH223144   6.018   1.331   4.478 -0.0190 -0.2282  0.1791
 7727TIP3    H123145   5.928   1.323   4.445  0.2883 -0.1013 -0.7124
 7727TIP3    H223146   6.017   1.409   4.533 -0.5129 -0.3558  0.3519
 7728TIP3   OH223147   5.683   1.883   4.720 -0.3071 -0.0186  0.1099
 7728TIP3    H123148   5.632   1.839   4.788 -1.6592 -1.1010 -1.5168
 7728TIP3    H223149   5.617   1.913   4.657  0.9563 -0.2395 -1.3774
 7729TIP3   OH223150   1.206   2.764   0.366  0.3185  0.2697  0.4068
 7729TIP3    H123151   1.171   2.693   0.312  0.0792 -0.8382  1.9433
 7729TIP3    H223152   1.259   2.816   0.306 -0.1318 -0.7601 -0.9360
 7730TIP3   OH223153   6.118   2.486   2.345  0.1293  0.1036  0.0121
 7730TIP3    H123154   6.173   2.407   2.342  0.6178  0.4627 -0.6869
 7730TIP3    H223155   6.044   2.461   2.401  0.6420 -0.6182  0.3895
 7731TIP3   OH223156   4.755   4.594   2.327 -0.1635 -0.6802 -0.1679
 7731TIP3    H123157   4.819   4.536   2.285  0.3805 -1.3228  1.4991
 7731TIP3    H223158   4.671   4.552   2.310  0.0154 -0.7971 -0.8097
 7732TIP3   OH223159   4.614   1.688   3.623  0.8011  0.3290 -0.0566
 7732TIP3    H123160   4.681   1.658   3.561  0.5613 -1.9486  0.7034
 7732TIP3    H223161   4.651   1.670   3.709 -0.1659  0.4845  0.4062
 7733TIP3   OH223162   6.737   1.436   1.023 -0.4926 -0.3538 -0.2911
 7733TIP3    H123163   6.736   1.531   1.009  0.4843 -0.3159 -0.1849
 7733TIP3    H223164   6.751   1.400   0.935 -0.1755 -0.3660 -0.2369
 7734TIP3   OH223165   2.001   4.193   3.490 -0.2877 -0.3898 -0.2911
 7734TIP3    H123166   2.047   4.200   3.573 -0.9685  0.0526  0.0552
 7734TIP3    H223167   2.067   4.214   3.424 -0.3548  1.8192  0.2817
 7735TIP3   OH223168   5.455   0.334   0.451  0.6051 -0.1931 -0.0504
 7735TIP3    H123169   5.511   0.274   0.500  0.7081  0.1932  0.3195
 7735TIP3    H223170   5.367   0.314   0.482  0.8634  1.7817  2.3078
 7736TIP3   OH223171   4.098   3.148   3.574  0.4705  0.2468 -1.0170
 7736TIP3    H123172   4.066   3.105   3.495  0.7961  0.2028 -1.1264
 7736TIP3    H223173   4.188   3.173   3.553  0.2008  1.2334 -1.0577
 7737TIP3   OH223174   1.967   5.244   1.101  0.8878 -0.2998 -0.0902
 7737TIP3    H123175   1.985   5.267   1.192  0.0866  0.2803 -0.0734
 7737TIP3    H223176   1.891   5.187   1.105  1.2082 -0.7528 -0.3575
 7738TIP3   OH223177   0.144   5.738   3.649 -0.0822  0.1681  0.0742
 7738TIP3    H123178   0.230   5.773   3.671  0.8440  0.2268 -3.0453
 7738TIP3    H223179   0.098   5.810   3.607 -1.7617  0.1603  1.7754
 7739TIP3   OH223180   3.100   0.042   2.805  1.1327 -0.5195 -0.2024
 7739TIP3    H123181   3.046  -0.026   2.764 -1.1293 -0.2568  2.1039
 7739TIP3    H223182   3.121   0.008   2.892  1.0025  1.1874  0.5419
 7740TIP3   OH223183   6.694   6.740   3.249  0.0468 -0.2464  0.1137
 7740TIP3    H123184   6.652   6.713   3.331 -0.9339 -0.2022 -0.3589
 7740TIP3    H223185   6.623   6.779   3.198  0.5599 -0.6669 -0.9394
 7741TIP3   OH223186   0.279   4.378   0.054 -0.4217  0.4131 -0.3919
 7741TIP3    H123187   0.189   4.357   0.080  0.4290 -0.1420  2.4245
 7741TIP3    H223188   0.317   4.295   0.028 -0.0082  0.1513  0.9614
 7742TIP3   OH223189   2.911   3.464   0.870 -0.3018  0.1427  0.5101
 7742TIP3    H123190   2.975   3.535   0.878  1.7663 -1.6418  0.5324
 7742TIP3    H223191   2.869   3.460   0.956  0.7364  0.3062  1.0471
 7743TIP3   OH223192   7.223   3.297   4.782 -0.0534 -0.4838 -0.4945
 7743TIP3    H123193   7.179   3.331   4.860  2.0922  1.6872 -0.1250
 7743TIP3    H223194   7.155   3.297   4.714 -1.0119  1.3298  0.4052
 7744TIP3   OH223195   5.313   0.811   2.270 -0.0637 -0.5557  0.4358
 7744TIP3    H123196   5.318   0.764   2.188 -0.5834  0.7373 -0.3720
 7744TIP3    H223197   5.339   0.901   2.249 -0.2148 -0.1918  1.6689
 7745TIP3   OH223198   4.815   4.831   1.801 -0.1184 -0.5956  0.0266
 7745TIP3    H123199   4.875   4.819   1.728  0.5671 -0.0716  0.4849
 7745TIP3    H223200   4.809   4.744   1.841 -0.5529 -0.8986 -0.6827
 7746TIP3   OH223201   5.025   0.037   4.222 -0.1207  0.5635  0.2164
 7746TIP3    H123202   4.935   0.004   4.221 -0.0158  0.2241  1.1057
 7746TIP3    H223203   5.019   0.123   4.181 -1.0261  0.9631  1.1252
 7747TIP3   OH223204   4.492   1.068   0.154  0.5041 -0.4903  0.5332
 7747TIP3    H123205   4.455   1.144   0.109  1.7709 -0.2943 -0.2058
 7747TIP3    H223206   4.465   0.993   0.101  0.8258 -0.3814  0.2125
 7748TIP3   OH223207   6.149   5.653   5.552 -0.0815  0.4916  0.2017
 7748TIP3    H123208   6.145   5.725   5.488 -2.3904 -0.5251 -0.9052
 7748TIP3    H223209   6.071   5.665   5.606 -0.0385 -0.7022  0.5546
 7749TIP3   OH223210   0.180   6.019   5.615  0.3855 -0.3170 -0.3570
 7749TIP3    H123211   0.129   6.091   5.652  2.5829 -0.1769  2.8076
 7749TIP3    H223212   0.237   6.061   5.550 -0.1404  0.3424 -0.3965
 7750TIP3   OH223213   0.551   4.980   4.192  0.5233 -0.6177 -0.3481
 7750TIP3    H123214   0.581   4.940   4.111  0.6438  0.9842 -1.1246
 7750TIP3    H223215   0.456   4.963   4.193  0.0630  1.4354 -2.1171
 7751TIP3   OH223216   5.971   0.765   1.541  0.1537 -0.4593 -0.9579
 7751TIP3    H123217   6.025   0.688   1.557 -0.4684 -0.9931 -1.3650
 7751TIP3    H223218   5.893   0.752   1.595  0.1238 -0.0272 -0.8912
 7752TIP3   OH223219   6.446   6.359   2.593 -0.2092  0.1399  0.2445
 7752TIP3    H123220   6.373   6.317   2.548 -0.1333  1.5543 -1.2956
 7752TIP3    H223221   6.436   6.453   2.573  1.4896  0.4690  0.7922
 7753TIP3   OH223222   0.760   0.652   1.601 -0.2343  0.0844  0.2899
 7753TIP3    H123223   0.716   0.595   1.664 -0.2016 -0.4857 -0.1962
 7753TIP3    H223224   0.711   0.734   1.604 -0.8265 -0.2715  0.3401
 7754TIP3   OH223225   4.174   1.063   1.941  0.1669  0.3977 -0.3491
 7754TIP3    H123226   4.166   1.008   2.019  1.7135 -0.5949 -0.8439
 7754TIP3    H223227   4.221   1.140   1.971  0.3168  0.2471 -0.1941
 7755TIP3   OH223228   5.725   4.932   1.986 -0.5707  0.1347 -0.2374
 7755TIP3    H123229   5.685   4.846   2.005  0.7968 -1.0685 -2.4416
 7755TIP3    H223230   5.750   4.965   2.072 -0.2646 -2.1335  0.6318
 7756TIP3   OH223231   3.986   6.287   0.388  0.6832  0.2406 -0.5729
 7756TIP3    H123232   3.921   6.349   0.354  1.6633  0.3352 -2.3804
 7756TIP3    H223233   4.037   6.261   0.312  0.7173 -2.3492  0.2319
 7757TIP3   OH223234   3.168   5.147   4.897 -0.5461 -0.1801  0.0477
 7757TIP3    H123235   3.222   5.186   4.966 -1.6817  1.0803  0.2894
 7757TIP3    H223236   3.148   5.221   4.839 -0.5868 -0.9827 -0.9735
 7758TIP3   OH223237   3.542   1.836   4.269  0.0578 -0.5503 -0.0178
 7758TIP3    H123238   3.567   1.909   4.325  0.1966  0.3850 -1.2611
 7758TIP3    H223239   3.598   1.763   4.298  0.2924 -0.0275  0.8782
 7759TIP3   OH223240   6.964   4.762   3.670  0.1099  0.1650  0.2437
 7759TIP3    H123241   6.949   4.685   3.615 -0.6602  1.0347 -0.8171
 7759TIP3    H223242   7.011   4.729   3.746  0.5738 -1.1967 -0.6054
 7760TIP3   OH223243   2.906   2.929   0.373 -0.2142 -0.3787  0.1616
 7760TIP3    H123244   2.973   2.965   0.432 -1.9548  1.1957  1.2647
 7760TIP3    H223245   2.840   2.998   0.366 -1.1390 -1.3943 -1.9160
 7761TIP3   OH223246   4.596   5.433   3.800  0.0650 -0.5034  0.0584
 7761TIP3    H123247   4.667   5.492   3.773 -1.0851  0.0812 -1.8051
 7761TIP3    H223248   4.628   5.345   3.778 -0.0103 -0.1956 -1.3679
 7762TIP3   OH223249   2.783   0.913   4.244 -0.2066 -0.1507 -0.3086
 7762TIP3    H123250   2.816   0.913   4.154 -4.4993  0.7064 -2.1696
 7762TIP3    H223251   2.732   0.832   4.250 -0.0867 -0.1292  1.3544
 7763TIP3   OH223252   3.701   5.855   1.262 -0.1672 -0.4338 -0.1074
 7763TIP3    H123253   3.658   5.773   1.236 -2.1757  0.5606 -0.1444
 7763TIP3    H223254   3.659   5.922   1.208 -0.6141  0.9898  1.8940
 7764TIP3   OH223255   3.818   4.233   1.264  0.4306 -0.2360  0.4779
 7764TIP3    H123256   3.845   4.186   1.186 -0.8671  3.2146 -2.3474
 7764TIP3    H223257   3.757   4.299   1.232 -0.8154  0.9083  4.5860
 7765TIP3   OH223258   0.907   2.695   0.124 -0.5731 -0.0040 -0.6607
 7765TIP3    H123259   0.946   2.761   0.066  0.4224  0.2477  0.2730
 7765TIP3    H223260   0.865   2.746   0.193  2.0873 -0.2904  1.2990
 7766TIP3   OH223261   3.799   6.362   0.754 -0.7792 -0.0687  0.0233
 7766TIP3    H123262   3.807   6.455   0.731 -1.4044  0.1497  0.6419
 7766TIP3    H223263   3.706   6.350   0.773 -0.3566 -0.2083  2.3410
 7767TIP3   OH223264   3.274   1.174   1.746  0.1273 -0.0448  0.1473
 7767TIP3    H123265   3.283   1.098   1.689  0.0159  1.2855 -1.7278
 7767TIP3    H223266   3.205   1.227   1.706  2.3160  2.5829 -0.5299
 7768TIP3   OH223267   6.988   5.454   2.135 -0.5586  0.0883  0.9479
 7768TIP3    H123268   6.899   5.486   2.150  0.7535  4.1823  1.2253
 7768TIP3    H223269   7.013   5.412   2.217 -2.6282 -2.6992  0.3281
 7769TIP3   OH223270   5.827   2.208   4.351 -0.5038  0.1763 -0.3756
 7769TIP3    H123271   5.891   2.261   4.304  0.2040 -1.0845 -0.8896
 7769TIP3    H223272   5.747   2.261   4.351 -0.2846  0.5633 -2.2710
 7770TIP3   OH223273   6.070   5.750   3.127  0.0006  0.1042  0.2723
 7770TIP3    H123274   6.067   5.668   3.176 -1.2487 -0.2393 -0.3514
 7770TIP3    H223275   5.988   5.794   3.149 -0.5890 -0.0572 -1.4761
 7771TIP3   OH223276   4.043   6.086   1.097 -0.0517 -0.3862  0.1522
 7771TIP3    H123277   3.992   6.162   1.069 -0.1523 -0.0271  1.2475
 7771TIP3    H223278   3.986   6.011   1.081 -0.2304 -0.1585 -0.2753
 7772TIP3   OH223279   2.007   3.857   2.470  0.1822 -0.6721  0.3530
 7772TIP3    H123280   2.078   3.919   2.453  0.4017 -1.1989 -0.7597
 7772TIP3    H223281   2.010   3.797   2.396 -1.1917 -0.9291  0.4791
 7773TIP3   OH223282   1.545   5.608   1.901 -0.4710  0.2786  0.0271
 7773TIP3    H123283   1.480   5.635   1.966  0.4723 -0.2120  1.2287
 7773TIP3    H223284   1.586   5.690   1.872  0.6128  0.3962  1.7361
 7774TIP3   OH223285   5.725   5.097   5.434  0.4158  0.4691 -0.1875
 7774TIP3    H123286   5.655   5.139   5.484 -0.0710 -0.7958  0.2419
 7774TIP3    H223287   5.719   5.135   5.346  1.3845  2.8485  0.6892
 7775TIP3   OH223288   1.125   1.775   5.798 -0.4165 -0.1966 -0.1972
 7775TIP3    H123289   1.119   1.860   5.756 -0.1508 -0.3476 -0.5418
 7775TIP3    H223290   1.211   1.775   5.840  0.7332 -1.2747 -2.3784
 7776TIP3   OH223291   6.410   4.168   3.795  0.3238  0.0147  0.0173
 7776TIP3    H123292   6.454   4.241   3.837 -1.3273  0.4362  1.1264
 7776TIP3    H223293   6.348   4.136   3.861 -0.2441 -1.2498 -1.0682
 7777TIP3   OH223294   3.921   5.838   4.660  0.0205 -0.0827 -0.6186
 7777TIP3    H123295   3.837   5.801   4.688  0.5033 -0.0933  0.8899
 7777TIP3    H223296   3.952   5.887   4.736  2.0018 -1.1896 -0.6383
 7778TIP3   OH223297   2.428   6.312   5.643  0.0689  0.6439 -0.3902
 7778TIP3    H123298   2.436   6.217   5.638  0.7414  0.5763  1.4345
 7778TIP3    H223299   2.341   6.328   5.678  0.0806  0.6962 -0.3849
 7779TIP3   OH223300   4.516   4.147   3.744 -0.3032  0.0555  0.6434
 7779TIP3    H123301   4.583   4.214   3.749 -0.2861  0.2462 -1.3069
 7779TIP3    H223302   4.435   4.195   3.725 -0.0906 -0.4776 -1.9607
 7780TIP3   OH223303   2.526   1.057   4.170  0.6529 -0.3446 -0.7750
 7780TIP3    H123304   2.460   1.122   4.197  0.9472 -0.5341  0.5019
 7780TIP3    H223305   2.598   1.071   4.232  0.9700 -1.4834 -0.8734
 7781TIP3   OH223306   3.880   6.428   1.982  0.3608  0.1757  0.7203
 7781TIP3    H123307   3.848   6.498   1.926 -2.6865 -1.1260  0.6434
 7781TIP3    H223308   3.865   6.460   2.071  2.3520  1.0079  0.7977
 7782TIP3   OH223309   5.208   3.779   1.573  0.0752 -0.1611  0.1378
 7782TIP3    H123310   5.263   3.831   1.515  0.1004  0.4774  0.7291
 7782TIP3    H223311   5.122   3.780   1.531  0.3278 -0.5428 -0.4011
 7783TIP3   OH223312   4.137   1.816   0.880 -0.0943 -0.0745  0.2143
 7783TIP3    H123313   4.124   1.724   0.906 -0.9901 -0.2404 -0.7503
 7783TIP3    H223314   4.227   1.819   0.846 -0.9962 -1.3401 -2.5806
 7784TIP3   OH223315   1.175   3.601   4.113 -0.4952 -0.1139  0.0847
 7784TIP3    H123316   1.197   3.601   4.207  0.1549 -0.8907 -0.0441
 7784TIP3    H223317   1.220   3.523   4.079  0.1226  0.7106 -1.0671
 7785TIP3   OH223318   5.114   5.335   5.104  0.7692  0.7247 -0.3161
 7785TIP3    H123319   5.057   5.330   5.027 -0.6958 -0.0420  0.7590
 7785TIP3    H223320   5.163   5.416   5.093  2.1398 -0.3302 -3.0576
 7786TIP3   OH223321   5.624   2.238   3.457 -0.5714 -0.7009 -0.2707
 7786TIP3    H123322   5.617   2.185   3.537  0.7330 -0.6330 -0.0795
 7786TIP3    H223323   5.637   2.327   3.489  0.3092 -0.7237 -0.5324
 7787TIP3   OH223324   3.090   3.105   4.668 -0.3022  0.2070  0.0656
 7787TIP3    H123325   3.073   3.029   4.612 -0.8783  0.6314 -0.3367
 7787TIP3    H223326   3.054   3.080   4.753  2.8062 -1.4907  1.0620
 7788TIP3   OH223327   0.834   4.657   5.306 -0.2221 -0.4053  0.1233
 7788TIP3    H123328   0.928   4.652   5.285  0.2036  0.2516  1.7252
 7788TIP3    H223329   0.817   4.578   5.357 -0.3800 -0.2170  0.3661
 7789TIP3   OH223330   6.709   2.396   3.404  0.0975  0.3086 -0.0059
 7789TIP3    H123331   6.779   2.384   3.469 -0.2418 -0.9163  0.1471
 7789TIP3    H223332   6.754   2.435   3.328  0.7253  0.5943  0.5008
 7790TIP3   OH223333   6.575   5.220   4.461 -0.3891  0.7712 -0.1991
 7790TIP3    H123334   6.572   5.313   4.485 -1.7167  1.1802 -1.7808
 7790TIP3    H223335   6.669   5.203   4.447 -0.1306  1.8879  0.0324
 7791TIP3   OH223336   1.986   3.413   0.347  0.1822  0.3589  0.1001
 7791TIP3    H123337   2.051   3.353   0.382  1.9010  1.2912 -1.3387
 7791TIP3    H223338   1.963   3.469   0.422  1.0037 -0.0125  0.6510
 7792TIP3   OH223339   0.781   2.104   3.008  0.1312 -0.3644 -0.2999
 7792TIP3    H123340   0.806   2.025   3.056  0.2313 -1.0886 -1.4803
 7792TIP3    H223341   0.748   2.164   3.074  1.6128 -0.7560  0.8436
 7793TIP3   OH223342   4.674   4.866   5.049 -0.2746 -0.2550  0.1094
 7793TIP3    H123343   4.676   4.799   4.981  1.4827  0.5606 -0.7324
 7793TIP3    H223344   4.652   4.947   5.002 -0.6328  0.0539  0.7968
 7794TIP3   OH223345   2.150   4.200   3.739  0.1408  0.0785 -0.5730
 7794TIP3    H123346   2.122   4.291   3.748  0.0556  0.1762 -1.6952
 7794TIP3    H223347   2.200   4.182   3.819 -1.5517  0.4525  0.6145
 7795TIP3   OH223348   5.044   5.888   1.412  0.4751  0.1775  0.2187
 7795TIP3    H123349   5.115   5.852   1.359  1.1764 -0.7414  1.7101
 7795TIP3    H223350   4.972   5.825   1.401  0.9378 -0.5122  1.0713
 7796TIP3   OH223351   1.146   2.331   3.430 -0.4453 -0.0981  0.4550
 7796TIP3    H123352   1.214   2.352   3.495  0.6781  0.7265 -0.9370
 7796TIP3    H223353   1.173   2.247   3.394  1.4259  1.4323 -1.9937
 7797TIP3   OH223354   4.068   3.181   1.270 -0.1874 -0.1791 -0.5064
 7797TIP3    H123355   4.109   3.249   1.323  0.9204  2.5586 -4.4027
 7797TIP3    H223356   4.137   3.116   1.256 -0.8843 -1.6565  2.2259
 7798TIP3   OH223357   5.615   6.423   5.440 -0.3109 -0.1001  0.4508
 7798TIP3    H123358   5.523   6.422   5.413 -0.2601  0.6283  0.2250
 7798TIP3    H223359   5.663   6.443   5.360  0.3407 -3.4060 -0.1414
 7799TIP3   OH223360   5.291   5.935   2.266  0.4618  0.0758 -0.1933
 7799TIP3    H123361   5.233   5.884   2.322  0.4907  0.9820  0.6690
 7799TIP3    H223362   5.326   5.870   2.204 -1.3893 -0.4942 -0.6953
 7800TIP3   OH223363   4.336   2.840   5.285 -0.4627  0.0107  0.5150
 7800TIP3    H123364   4.353   2.822   5.192  2.4475 -1.9445  1.3092
 7800TIP3    H223365   4.416   2.881   5.317 -1.2950  0.3615  2.2495
 7801TIP3   OH223366   5.696   0.168   4.383 -0.5856  0.1848 -0.0249
 7801TIP3    H123367   5.637   0.153   4.309 -1.7968  0.9068  0.7676
 7801TIP3    H223368   5.721   0.260   4.376 -1.0867  0.3886  0.7117
 7802TIP3   OH223369   1.560   2.315   2.174  0.1173  0.1190  0.2762
 7802TIP3    H123370   1.553   2.249   2.105  0.9455  0.7000 -0.3833
 7802TIP3    H223371   1.469   2.330   2.201 -0.3759  0.8581 -1.6405
 7803TIP3   OH223372   7.102   4.595   0.146 -0.2677  0.1596  0.0447
 7803TIP3    H123373   7.109   4.542   0.066  1.9684  0.8373 -0.2884
 7803TIP3    H223374   7.058   4.538   0.209  0.9867 -1.7016 -0.6624
 7804TIP3   OH223375   3.255   5.718   2.851 -0.7977  0.1578  0.0019
 7804TIP3    H123376   3.199   5.767   2.791  0.6203  0.2114 -1.3479
 7804TIP3    H223377   3.270   5.778   2.924 -1.1514  0.7670 -0.4163
 7805TIP3   OH223378   3.540   1.968   3.792 -0.4952  0.3661 -0.0915
 7805TIP3    H123379   3.524   1.984   3.886 -0.6223  1.2274 -0.2476
 7805TIP3    H223380   3.628   2.004   3.777 -0.5456  0.3850 -0.3376
 7806TIP3   OH223381   4.705   3.518   0.338 -0.5729 -0.1716  0.2077
 7806TIP3    H123382   4.655   3.528   0.419 -0.0177  0.7790  0.4539
 7806TIP3    H223383   4.680   3.432   0.305 -0.6202 -0.7014  1.5307
 7807TIP3   OH223384   3.740   4.653   2.701 -0.1222 -0.3278  0.0570
 7807TIP3    H123385   3.647   4.638   2.684 -0.1103 -0.0522 -0.2582
 7807TIP3    H223386   3.783   4.580   2.656 -0.1716 -0.3036 -0.0320
 7808TIP3   OH223387   4.358   1.395   0.222  0.0492  0.3616  0.3170
 7808TIP3    H123388   4.430   1.409   0.160  0.3511 -1.3942  0.2272
 7808TIP3    H223389   4.285   1.365   0.167  0.2340 -0.9383  0.7451
 7809TIP3   OH223390   4.722   0.092   4.857  0.3447 -0.3172  0.3087
 7809TIP3    H123391   4.804   0.059   4.895 -0.3755 -0.2396  1.9989
 7809TIP3    H223392   4.662   0.099   4.931 -0.2858  2.5221 -0.3384
 7810TIP3   OH223393   1.800   3.408   2.150 -0.3405  0.9094  0.1216
 7810TIP3    H123394   1.816   3.389   2.058  0.7604 -1.6637  0.7540
 7810TIP3    H223395   1.886   3.432   2.185 -0.1191 -0.9533  1.0032
 7811TIP3   OH223396   2.212   4.207   2.627 -0.1449 -0.1753 -0.9260
 7811TIP3    H123397   2.177   4.134   2.679  1.8214 -1.1294 -0.8434
 7811TIP3    H223398   2.152   4.214   2.553 -1.9912  0.0345  0.5076
 7812TIP3   OH223399   4.452   1.210   0.580  0.6806 -0.2732 -0.3743
 7812TIP3    H123400   4.368   1.256   0.572 -0.2080 -1.7921 -0.2635
 7812TIP3    H223401   4.477   1.221   0.672 -0.3275 -1.3196  0.0397
 7813TIP3   OH223402   6.467   0.234   0.608  0.5476 -0.2262 -0.0241
 7813TIP3    H123403   6.514   0.317   0.597 -0.3911  0.3884  0.4309
 7813TIP3    H223404   6.521   0.169   0.563  1.8051  0.4495  0.4581
 7814TIP3   OH223405   4.444   2.200   4.173  0.8318 -0.6101 -0.0063
 7814TIP3    H123406   4.478   2.230   4.257 -0.4229 -0.8804  0.6289
 7814TIP3    H223407   4.449   2.277   4.116 -0.2679  0.2102  0.9508
 7815TIP3   OH223408   6.867   5.448   3.355  0.3360  0.1094  0.1597
 7815TIP3    H123409   6.923   5.473   3.281 -0.5014  0.1402 -0.4789
 7815TIP3    H223410   6.860   5.353   3.348 -0.5011  0.1953 -0.3788
 7816TIP3   OH223411   0.302   6.437   3.478 -0.3424 -0.2753 -0.4023
 7816TIP3    H123412   0.232   6.384   3.518 -1.4171  1.5987  0.3407
 7816TIP3    H223413   0.287   6.429   3.384 -1.3690 -0.1693 -0.2619
 7817TIP3   OH223414   2.125   0.772   3.009  0.1114 -0.0761  0.0280
 7817TIP3    H123415   2.167   0.821   3.080  0.7482 -0.6435  0.0517
 7817TIP3    H223416   2.153   0.682   3.022 -1.0407 -0.4570 -0.0321
 7818TIP3   OH223417   0.591   5.758   4.626  0.4992 -0.3891  0.3819
 7818TIP3    H123418   0.641   5.705   4.563  0.0476 -1.3905  0.8349
 7818TIP3    H223419   0.518   5.793   4.576 -0.2377 -1.7355  0.4745
 7819TIP3   OH223420   1.995   3.824   0.507  0.2095 -0.2189 -0.8076
 7819TIP3    H123421   2.022   3.863   0.590 -1.3279  3.5100 -1.8725
 7819TIP3    H223422   2.075   3.816   0.456  0.9267 -1.0715  0.3878
 7820TIP3   OH223423   4.476   1.517   1.508  0.0634 -0.2746  0.6656
 7820TIP3    H123424   4.431   1.481   1.584 -0.0204  1.1673  1.3471
 7820TIP3    H223425   4.416   1.584   1.475  1.6375  1.7357  1.6280
 7821TIP3   OH223426   5.950   3.679   1.447 -0.2030  0.1812 -0.2831
 7821TIP3    H123427   5.881   3.620   1.476  0.0395  0.3673  0.7348
 7821TIP3    H223428   5.938   3.687   1.352 -1.9763  0.7450 -0.0384
 7822TIP3   OH223429   0.983   3.984   3.511  0.7411 -0.2562  0.2037
 7822TIP3    H123430   0.952   3.895   3.528  0.9318 -0.1783  0.9806
 7822TIP3    H223431   1.043   3.975   3.437 -0.8511 -0.4573 -1.1120
 7823TIP3   OH223432   3.932   2.808   1.959  0.5499  0.8634  0.1274
 7823TIP3    H123433   3.904   2.726   1.999  0.5891 -0.4392 -2.3146
 7823TIP3    H223434   3.893   2.876   2.013 -0.4106 -0.7757  1.5844
 7824TIP3   OH223435   4.602   6.471   5.715 -0.1690  0.5561 -0.0899
 7824TIP3    H123436   4.673   6.412   5.744 -2.8014 -2.3284  1.0331
 7824TIP3    H223437   4.627   6.496   5.626  0.8989 -2.8291 -0.9087
 7825TIP3   OH223438   2.910   2.452   3.782  0.2267 -0.1193 -0.5945
 7825TIP3    H123439   2.975   2.383   3.794  0.3902  0.3695  1.7946
 7825TIP3    H223440   2.844   2.436   3.849 -1.3706  0.2991 -1.9778
 7826TIP3   OH223441   0.869   4.418   4.927 -0.3396 -0.0552 -0.7210
 7826TIP3    H123442   0.868   4.513   4.914  0.4588 -0.1829 -1.8219
 7826TIP3    H223443   0.932   4.404   4.998  1.3624  0.0869 -2.1542
 7827TIP3   OH223444   4.525   3.486   3.690  0.6194 -0.7943  0.1383
 7827TIP3    H123445   4.533   3.561   3.631 -0.4103 -0.7261  0.0607
 7827TIP3    H223446   4.497   3.414   3.634  3.9917 -1.9833 -0.2822
 7828TIP3   OH223447   5.922   1.143   1.306  0.3252 -0.0279  0.0339
 7828TIP3    H123448   5.991   1.091   1.346  0.2983 -0.8632 -0.9697
 7828TIP3    H223449   5.954   1.162   1.218  0.0269  1.0863  0.1448
 7829TIP3   OH223450   5.304   4.275   2.542 -0.3535  0.1884  0.2741
 7829TIP3    H123451   5.302   4.186   2.577  1.5282  0.6825  1.8090
 7829TIP3    H223452   5.326   4.330   2.617  0.1307  1.7532 -0.9648
 7830TIP3   OH223453   4.132   4.410   2.792 -0.1190  0.0341  0.2792
 7830TIP3    H123454   4.120   4.503   2.810 -0.3606  0.2277 -0.8164
 7830TIP3    H223455   4.226   4.401   2.772 -0.3466  0.2887 -0.9393
 7831TIP3   OH223456   1.037   3.171   0.894  0.7345  0.0842 -0.1598
 7831TIP3    H123457   0.992   3.152   0.812 -0.9753 -1.4182  1.0606
 7831TIP3    H223458   0.968   3.171   0.961  2.2097  0.1962  1.4437
 7832TIP3   OH223459   1.352   0.204   2.725  0.1576 -0.1945  0.9817
 7832TIP3    H123460   1.316   0.284   2.686  1.7736  1.6921  3.0843
 7832TIP3    H223461   1.316   0.203   2.814 -0.4350 -2.3061  0.7848
 7833TIP3   OH223462   7.142   6.651   5.266  0.1957 -0.1609 -0.1238
 7833TIP3    H123463   7.182   6.566   5.243 -1.3438 -0.8086 -0.4996
 7833TIP3    H223464   7.139   6.699   5.183 -1.7938 -0.9842 -0.5690
 7834TIP3   OH223465   1.141   6.134   2.298  0.2734 -0.3206  0.6929
 7834TIP3    H123466   1.120   6.149   2.390 -0.5432 -2.2881  0.8619
 7834TIP3    H223467   1.234   6.156   2.291  0.0335  1.2068  1.6342
 7835TIP3   OH223468   0.767   3.290   0.282  0.2470  0.7848 -0.2305
 7835TIP3    H123469   0.724   3.318   0.201  0.7741  0.8224 -0.5044
 7835TIP3    H223470   0.848   3.248   0.253 -0.0360 -0.1087  0.2292
 7836TIP3   OH223471   7.094   0.923   0.357  0.3212  0.3716 -0.2943
 7836TIP3    H123472   7.117   1.008   0.393  0.2758  0.0897  0.4200
 7836TIP3    H223473   7.000   0.914   0.373  0.4384 -0.0631  0.1694
 7837TIP3   OH223474   5.460   5.912   5.086 -0.0104  0.4122  0.4058
 7837TIP3    H123475   5.538   5.864   5.113 -1.1865 -1.7515  0.1454
 7837TIP3    H223476   5.491   5.970   5.016  1.2451 -0.8910 -0.1688
 7838TIP3   OH223477   4.155   1.051   0.148  0.0761 -0.5392  0.1177
 7838TIP3    H123478   4.087   0.993   0.114  0.6712 -1.5187  0.5421
 7838TIP3    H223479   4.190   1.095   0.071 -2.6273  1.8490  0.0918
 7839TIP3   OH223480   1.522   4.694   4.276 -0.4135 -0.0771 -0.0420
 7839TIP3    H123481   1.532   4.602   4.251  1.1215  0.6220 -2.3527
 7839TIP3    H223482   1.607   4.733   4.258 -1.5682  2.1975 -1.0408
 7840TIP3   OH223483   3.504   5.167   4.915  0.3618 -0.1969  0.2570
 7840TIP3    H123484   3.487   5.166   5.009  0.5175 -1.1508  0.2834
 7840TIP3    H223485   3.435   5.222   4.878 -0.4024 -0.7894  0.7997
 7841TIP3   OH223486   3.111   5.582   4.473 -0.3567 -0.3995 -0.0905
 7841TIP3    H123487   3.200   5.549   4.455  0.4751 -1.0701  4.0532
 7841TIP3    H223488   3.081   5.617   4.390  3.6282 -0.5365 -1.8362
 7842TIP3   OH223489   6.807   6.644   5.293 -0.8458  0.0416 -0.5799
 7842TIP3    H123490   6.825   6.738   5.290 -0.8097  0.0488 -0.2244
 7842TIP3    H223491   6.770   6.624   5.207  2.1673 -0.2498 -1.9190
 7843TIP3   OH223492   3.699   0.224   3.458 -0.6044 -0.5798 -0.4104
 7843TIP3    H123493   3.717   0.202   3.367  1.5351  2.8690 -1.0112
 7843TIP3    H223494   3.611   0.262   3.456 -1.4131 -2.3449 -0.5745
 7844TIP3   OH223495   1.234   1.413   0.746  0.3441  0.3038  0.0820
 7844TIP3    H123496   1.169   1.394   0.814  1.3387 -0.4165  0.8575
 7844TIP3    H223497   1.189   1.392   0.664 -0.3028 -0.5000  0.6236
 7845TIP3   OH223498   0.868   6.468   2.132 -0.7343  0.7779  0.3586
 7845TIP3    H123499   0.817   6.387   2.133 -0.0236  0.2938  2.9147
 7845TIP3    H223500   0.919   6.466   2.213  2.3481  1.9057 -1.3856
 7846TIP3   OH223501   5.180   0.088   5.112  0.1785  0.2956  0.2849
 7846TIP3    H123502   5.195   0.033   5.189 -1.5749 -0.3645  0.1945
 7846TIP3    H223503   5.267   0.099   5.073  0.8270 -0.8676  1.3336
 7847TIP3   OH223504   4.094   2.244   2.509  0.2176  0.6012  0.1037
 7847TIP3    H123505   4.173   2.191   2.497 -0.5554 -0.9965  1.6209
 7847TIP3    H223506   4.090   2.299   2.431  3.0757  1.1091  0.1900
 7848TIP3   OH223507   4.449   1.205   4.132  0.1302 -0.1569  0.3787
 7848TIP3    H123508   4.379   1.258   4.171 -0.1000 -1.0788  1.2541
 7848TIP3    H223509   4.496   1.168   4.206  0.8076 -0.5182 -0.2144
 7849TIP3   OH223510   3.893   6.687   2.824 -0.3654  0.5209  0.0142
 7849TIP3    H123511   3.844   6.643   2.754 -0.5293 -0.7389  0.8966
 7849TIP3    H223512   3.960   6.738   2.777  0.0967 -0.9794 -1.0512
 7850TIP3   OH223513   0.986   2.405   1.037 -0.4806  0.0643  0.4754
 7850TIP3    H123514   1.056   2.372   0.979  0.2040  0.4870  1.0411
 7850TIP3    H223515   0.910   2.351   1.016 -0.1648  0.0154 -0.6123
 7851TIP3   OH223516   3.634   5.491   4.227 -0.3291  0.1741 -0.1631
 7851TIP3    H123517   3.716   5.443   4.215 -1.0322 -1.3631  0.8892
 7851TIP3    H223518   3.576   5.458   4.159  0.5012  2.8079 -2.3148
 7852TIP3   OH223519   6.686   4.500   1.615  0.7264  0.1094 -0.7573
 7852TIP3    H123520   6.675   4.594   1.600  0.0825  0.6423  2.3748
 7852TIP3    H223521   6.770   4.492   1.661  0.5676 -0.8047 -0.5987
 7853TIP3   OH223522   6.933   5.285   5.173  0.0452 -0.7226 -0.3956
 7853TIP3    H123523   6.884   5.352   5.125 -2.4747 -1.0320  1.5174
 7853TIP3    H223524   6.941   5.321   5.261  0.2517 -2.1792  0.1912
 7854TIP3   OH223525   4.234   0.537   5.192 -0.1008  0.0737 -0.2768
 7854TIP3    H123526   4.264   0.572   5.276  0.0529 -0.8143  0.0447
 7854TIP3    H223527   4.310   0.543   5.135 -0.2066  0.6829 -0.3657
 7855TIP3   OH223528   4.343   5.385   3.455  0.6698 -0.2046  0.2008
 7855TIP3    H123529   4.268   5.444   3.468  1.5053  1.2106 -1.1120
 7855TIP3    H223530   4.330   5.350   3.367  1.4855 -0.0097 -0.0025
 7856TIP3   OH223531   5.014   4.485   1.691  0.3146  0.4156  0.0699
 7856TIP3    H123532   4.942   4.548   1.679  0.9596  0.9070 -1.4024
 7856TIP3    H223533   5.079   4.533   1.742  0.0654  0.3238  0.4853
 7857TIP3   OH223534   2.663   0.280   4.700  0.1390 -0.4157  0.7306
 7857TIP3    H123535   2.677   0.193   4.737  0.3669 -0.1467  1.2976
 7857TIP3    H223536   2.748   0.304   4.664 -0.3353 -1.1065 -0.9514
 7858TIP3   OH223537   2.532   3.857   4.885 -0.0312  0.4226  0.2141
 7858TIP3    H123538   2.564   3.843   4.796  1.5681  1.3901  0.5863
 7858TIP3    H223539   2.453   3.804   4.891 -0.1419  0.2926 -1.7531
 7859TIP3   OH223540   6.511   4.971   1.670 -0.2576 -0.0088 -0.0042
 7859TIP3    H123541   6.524   4.928   1.754  2.5615 -0.7190 -0.7134
 7859TIP3    H223542   6.598   4.977   1.632 -0.7167  4.4239 -0.9372
 7860TIP3   OH223543   1.264   2.530   5.348  0.0365  0.0235 -0.6657
 7860TIP3    H123544   1.275   2.453   5.405  0.1772  0.6385  0.1595
 7860TIP3    H223545   1.347   2.537   5.302  0.0986 -0.2010 -0.5919
 7861TIP3   OH223546   4.946   5.626   2.815 -0.1133 -0.3288  0.1925
 7861TIP3    H123547   4.857   5.651   2.794 -0.7759 -2.1754  0.6081
 7861TIP3    H223548   5.001   5.688   2.766 -1.6029  0.3565 -0.6717
 7862TIP3   OH223549   3.049   1.044   0.142  0.1515 -1.2443 -0.0578
 7862TIP3    H123550   3.021   0.978   0.205  1.6597 -1.9683 -0.0950
 7862TIP3    H223551   3.099   0.995   0.077 -0.5344 -0.3610 -1.2775
 7863TIP3   OH223552   6.155   1.550   5.219  0.6299 -0.0625 -0.5921
 7863TIP3    H123553   6.208   1.616   5.175  0.2264 -0.1969 -1.2859
 7863TIP3    H223554   6.148   1.479   5.155  0.0284 -0.2551 -0.3142
 7864TIP3   OH223555   1.874   1.577   1.019 -0.1594  0.3062 -0.4665
 7864TIP3    H123556   1.892   1.666   0.990 -0.2507  0.0551 -1.3360
 7864TIP3    H223557   1.780   1.576   1.038  0.0162  0.6323  0.4343
 7865TIP3   OH223558   3.706   2.579   4.647  0.2014 -0.2818 -1.1807
 7865TIP3    H123559   3.682   2.487   4.651  0.1886 -0.2344  0.0973
 7865TIP3    H223560   3.630   2.621   4.606 -0.3289 -0.6702 -0.6205
 7866TIP3   OH223561   1.379   0.670   1.320  0.5710  0.7069  0.0085
 7866TIP3    H123562   1.426   0.633   1.395  1.6367 -1.1234 -1.4646
 7866TIP3    H223563   1.419   0.628   1.244 -0.9854  1.9189 -1.5546
 7867TIP3   OH223564   5.286   4.114   4.651 -0.0630 -0.3623 -0.0021
 7867TIP3    H123565   5.245   4.087   4.569  0.0258  0.6691 -0.4109
 7867TIP3    H223566   5.332   4.195   4.628  2.4257 -1.5798  0.3540
 7868TIP3   OH223567   1.690   2.226   3.931 -0.1221 -0.3329  0.3213
 7868TIP3    H123568   1.737   2.144   3.944  0.8010  0.0169 -0.6209
 7868TIP3    H223569   1.674   2.229   3.836  0.0875  0.6800  0.3059
 7869TIP3   OH223570   3.597   1.766   5.363  0.3698  0.0578 -0.0097
 7869TIP3    H123571   3.615   1.801   5.450 -0.8887 -2.8436  1.5882
 7869TIP3    H223572   3.644   1.682   5.361 -2.1347 -1.4212 -0.8344
 7870TIP3   OH223573   4.599   1.418   4.481  0.8124  0.8240  0.6018
 7870TIP3    H123574   4.577   1.435   4.389 -0.2816 -0.3596  0.5992
 7870TIP3    H223575   4.566   1.494   4.528  0.8261  1.1644  0.0663
 7871TIP3   OH223576   4.505   4.902   4.633  0.7134  0.2935 -0.6200
 7871TIP3    H123577   4.459   4.954   4.567  2.7122  1.7833 -0.9107
 7871TIP3    H223578   4.453   4.822   4.640 -0.1219  0.5149 -3.2371
 7872TIP3   OH223579   3.103   4.086   3.498 -0.6139 -0.1223 -0.2538
 7872TIP3    H123580   3.060   4.101   3.414  0.5837 -0.2329 -0.9143
 7872TIP3    H223581   3.078   3.997   3.523  0.2930 -0.6959 -1.3046
 7873TIP3   OH223582   5.307   3.015   0.545  0.0027 -0.3151  0.2524
 7873TIP3    H123583   5.350   2.930   0.538  1.5786  0.4235  0.6482
 7873TIP3    H223584   5.320   3.041   0.636  0.8336  0.9921 -0.2157
 7874TIP3   OH223585   3.197   3.786   2.435 -0.1005  0.3003  0.7335
 7874TIP3    H123586   3.258   3.860   2.436  1.8148 -1.1077 -1.6163
 7874TIP3    H223587   3.250   3.710   2.456 -1.0221 -0.9757 -1.2580
 7875TIP3   OH223588   0.811   1.189   5.455  0.0152  0.5558  0.5738
 7875TIP3    H123589   0.867   1.202   5.531 -0.1782 -1.3736  1.1112
 7875TIP3    H223590   0.852   1.239   5.385  1.1958  0.9187  1.5006
 7876TIP3   OH223591   1.667   6.697   1.974  0.0149  0.0196  0.3374
 7876TIP3    H123592   1.760   6.684   1.954  0.2468 -3.0754  2.7257
 7876TIP3    H223593   1.633   6.609   1.989 -2.4828  1.2659  2.9119
 7877TIP3   OH223594   6.982   2.718   0.544  0.1905 -1.1243  0.2498
 7877TIP3    H123595   7.074   2.743   0.535  0.3719 -1.1216  1.8297
 7877TIP3    H223596   6.950   2.712   0.454  0.8682  2.0639 -0.3246
 7878TIP3   OH223597   4.918   6.519   5.675  0.2143  0.3501 -0.0305
 7878TIP3    H123598   4.940   6.519   5.582  0.7346 -0.2456  0.0825
 7878TIP3    H223599   4.920   6.611   5.701  0.6914  0.4615 -0.4644
 7879TIP3   OH223600   5.731   5.085   2.213  0.4599  0.8280 -0.2408
 7879TIP3    H123601   5.695   5.111   2.297  1.0871 -0.0578  0.3174
 7879TIP3    H223602   5.731   5.166   2.161 -0.1781  1.3262  0.5031
 7880TIP3   OH223603   4.995   5.980   3.541 -0.5637 -0.3132  0.1952
 7880TIP3    H123604   5.070   6.022   3.582  0.2433 -0.6579 -0.8811
 7880TIP3    H223605   4.922   6.039   3.559  0.3145  0.9776 -0.2853
 7881TIP3   OH223606   1.071   0.211   2.149  0.2174  0.2627 -0.4074
 7881TIP3    H123607   1.012   0.211   2.074 -1.8872 -0.2003  1.1430
 7881TIP3    H223608   1.051   0.292   2.195 -0.8151 -0.8906  1.2828
 7882TIP3   OH223609   4.811   4.967   3.413 -0.0803 -0.7061 -0.2475
 7882TIP3    H123610   4.838   5.026   3.483  0.3680 -0.9360 -0.2265
 7882TIP3    H223611   4.892   4.932   3.377 -0.2354  0.3451 -1.7101
 7883TIP3   OH223612   5.694   5.968   0.127 -0.3624  0.1230 -0.8630
 7883TIP3    H123613   5.714   5.923   0.045 -1.1986  0.1521 -1.0945
 7883TIP3    H223614   5.774   5.961   0.178 -0.0489 -0.4899 -1.4152
 7884TIP3   OH223615   5.231   2.355   0.426 -0.1655  0.4225 -0.9293
 7884TIP3    H123616   5.306   2.369   0.368  1.3645 -0.3793  0.7749
 7884TIP3    H223617   5.167   2.309   0.371  0.5241  1.1697 -2.4323
 7885TIP3   OH223618   4.562   3.248   0.576 -0.7240 -0.3041  0.4282
 7885TIP3    H123619   4.479   3.200   0.575 -1.0930  0.3336 -0.3899
 7885TIP3    H223620   4.540   3.332   0.615 -0.8767  0.5690 -1.4692
 7886TIP3   OH223621   5.211   4.673   2.580  0.1059 -0.2799  0.1143
 7886TIP3    H123622   5.238   4.732   2.510 -2.0777 -0.2166 -0.7749
 7886TIP3    H223623   5.212   4.728   2.659  1.8780 -0.1514  0.0326
 7887TIP3   OH223624   4.125   0.302   5.307  0.0517 -0.4352 -0.7533
 7887TIP3    H123625   4.179   0.364   5.259  0.4484  0.5616  0.9254
 7887TIP3    H223626   4.186   0.254   5.362 -0.5813 -0.3362  0.0618
 7888TIP3   OH223627   4.141   0.719   3.260  0.0079 -0.4594  0.4722
 7888TIP3    H123628   4.157   0.813   3.266 -0.8911 -0.3481  1.7037
 7888TIP3    H223629   4.094   0.707   3.178  1.3851 -0.0597 -0.4124
 7889TIP3   OH223630   4.345   2.798   5.026  0.0701  0.0453 -0.3851
 7889TIP3    H123631   4.252   2.774   5.020 -0.0765  0.8560 -2.2598
 7889TIP3    H223632   4.375   2.798   4.935  1.6949  0.6213  0.1209
 7890TIP3   OH223633   2.602   4.166   3.908  0.2335 -0.4307 -0.9921
 7890TIP3    H123634   2.593   4.096   3.843 -2.0788  0.4100 -1.6974
 7890TIP3    H223635   2.645   4.238   3.861 -0.5885 -0.1596 -1.3536
 7891TIP3   OH223636   4.413   1.478   1.196  0.1627  0.5183 -0.0262
 7891TIP3    H123637   4.331   1.494   1.243  0.0850  3.1369 -0.9256
 7891TIP3    H223638   4.480   1.484   1.264 -0.2835 -1.1142  0.6209
 7892TIP3   OH223639   4.732   4.667   3.728  0.0305  0.2721  0.4041
 7892TIP3    H123640   4.822   4.645   3.702  0.6941  1.9790  1.0818
 7892TIP3    H223641   4.677   4.624   3.663  1.2280 -2.0174  0.7883
 7893TIP3   OH223642   0.702   1.034   5.761 -0.1925 -0.2580 -0.0785
 7893TIP3    H123643   0.790   1.023   5.797 -0.2766 -0.4192  0.0801
 7893TIP3    H223644   0.671   1.116   5.800  0.1393  0.1494 -0.6546
 7894TIP3   OH223645   0.409   2.708   3.550 -0.2415  0.2344 -0.6227
 7894TIP3    H123646   0.353   2.634   3.571  0.6020 -0.0426  0.7473
 7894TIP3    H223647   0.399   2.720   3.455 -1.8605 -0.3926 -0.5529
 7895TIP3   OH223648   0.990   0.940   1.179 -0.3037 -0.2236  0.3125
 7895TIP3    H123649   0.948   0.917   1.262  0.2339  0.6464  0.8409
 7895TIP3    H223650   1.077   0.901   1.185 -0.3300 -0.3213  0.0695
 7896TIP3   OH223651   0.853   5.914   2.058  0.2843 -0.3203 -0.5638
 7896TIP3    H123652   0.892   5.971   2.125  2.4480 -1.2903 -0.9170
 7896TIP3    H223653   0.884   5.950   1.975  0.1768 -0.9384 -0.8762
 7897TIP3   OH223654   4.651   6.588   5.452  0.1655  0.6713  0.4619
 7897TIP3    H123655   4.557   6.606   5.453 -0.1798 -1.0242  0.9774
 7897TIP3    H223656   4.668   6.551   5.366  0.5605  1.8087  0.0280
 7898TIP3   OH223657   6.346   0.181   3.279  0.3407 -0.1944  0.0385
 7898TIP3    H123658   6.334   0.146   3.190  1.2388  0.5239 -0.3866
 7898TIP3    H223659   6.265   0.228   3.297  0.8177  1.1535 -1.1357
 7899TIP3   OH223660   1.615   0.788   0.739  0.3203  0.6505  0.4584
 7899TIP3    H123661   1.576   0.817   0.822 -0.8974  1.4589 -0.3673
 7899TIP3    H223662   1.590   0.696   0.732 -1.0941  1.0301  0.1739
 7900TIP3   OH223663   5.069   5.008   5.141 -0.0725  0.0021 -0.4293
 7900TIP3    H123664   5.020   5.058   5.076 -2.2227  1.1415  1.8899
 7900TIP3    H223665   5.138   5.067   5.171  1.0741 -0.6083 -1.7234
 7901TIP3   OH223666   6.788   2.534   0.884 -0.0730  0.4913 -0.3472
 7901TIP3    H123667   6.837   2.534   0.802 -0.7416 -0.7566 -0.7721
 7901TIP3    H223668   6.699   2.559   0.858 -0.1178  0.8439  0.1280
 7902TIP3   OH223669   2.852   1.448   0.602 -0.0634  0.5229 -0.2095
 7902TIP3    H123670   2.873   1.373   0.547 -1.4542  0.3357 -0.5427
 7902TIP3    H223671   2.926   1.457   0.662  0.0639 -1.2093 -0.0663
 7903TIP3   OH223672   6.139   5.130   3.027 -0.0675 -0.3017 -0.2551
 7903TIP3    H123673   6.118   5.211   3.074  0.2199 -0.8708  0.8592
 7903TIP3    H223674   6.096   5.142   2.942 -2.4791 -0.1697  0.8920
 7904TIP3   OH223675   2.702   5.060   3.852  0.4793  0.1824  0.3559
 7904TIP3    H123676   2.675   5.137   3.802  0.7339  1.2328  1.7762
 7904TIP3    H223677   2.794   5.046   3.828  0.4642  0.3801  0.1857
 7905TIP3   OH223678   6.686   6.252   0.854  0.1516 -0.1583 -0.4635
 7905TIP3    H123679   6.651   6.330   0.897 -0.1128 -0.7982  0.5182
 7905TIP3    H223680   6.781   6.259   0.864  0.1948  0.5431 -1.2929
 7906TIP3   OH223681   6.558   0.059   3.711 -0.0767 -0.4556 -0.5438
 7906TIP3    H123682   6.548   0.153   3.726 -0.9055 -0.9740  3.1300
 7906TIP3    H223683   6.525   0.045   3.622 -2.7767  2.3163 -0.1506
 7907TIP3   OH223684   3.148   5.598   0.320 -0.4011  0.8840 -0.0155
 7907TIP3    H123685   3.072   5.567   0.369  0.5396  1.2448  1.7528
 7907TIP3    H223686   3.155   5.691   0.342 -0.2074  1.1752 -1.2181
 7908TIP3   OH223687   1.000   2.919   3.730 -0.2422  0.2310 -0.0294
 7908TIP3    H123688   0.974   2.828   3.743 -0.9471  0.5344  0.7965
 7908TIP3    H223689   1.075   2.915   3.671 -1.0989 -0.7953 -1.0818
 7909TIP3   OH223690   1.941   0.637   0.879  0.2962 -0.5033  0.4613
 7909TIP3    H123691   1.964   0.707   0.939  0.3195 -0.2249  0.1276
 7909TIP3    H223692   1.961   0.557   0.927  0.2069 -0.2828  0.8664
 7910TIP3   OH223693   2.108   4.751   4.016  0.3926  0.1408  0.0232
 7910TIP3    H123694   2.118   4.735   4.110 -1.5159  0.9860  0.4117
 7910TIP3    H223695   2.183   4.706   3.976  0.2591 -1.7650  1.7731
 7911TIP3   OH223696   6.828   1.832   4.235 -0.5130 -0.0675 -0.1154
 7911TIP3    H123697   6.783   1.756   4.272 -0.9454  0.3941  0.3219
 7911TIP3    H223698   6.861   1.879   4.311 -0.0934  0.0977 -0.3938
 7912TIP3   OH223699   2.308   5.249   2.378  0.0782 -0.2617  0.2160
 7912TIP3    H123700   2.217   5.275   2.396 -0.2954 -2.2415  1.4397
 7912TIP3    H223701   2.331   5.298   2.298 -1.7507  0.9305  0.3531
 7913TIP3   OH223702   0.839   5.595   3.595 -0.2136 -0.1275  0.0827
 7913TIP3    H123703   0.748   5.607   3.622 -0.5551  1.9163 -1.7448
 7913TIP3    H223704   0.874   5.684   3.588  1.3145 -0.7853 -1.2518
 7914TIP3   OH223705   0.341   1.418   0.709 -0.7345 -0.1175 -0.4127
 7914TIP3    H123706   0.402   1.479   0.668 -1.5180  0.9700 -0.0407
 7914TIP3    H223707   0.352   1.336   0.662  1.1476 -0.0091 -0.2105
 7915TIP3   OH223708   5.743   0.335   0.001 -0.0297  0.6627  0.2760
 7915TIP3    H123709   5.686   0.401  -0.038 -0.8231  0.4311  1.0066
 7915TIP3    H223710   5.780   0.377   0.079  1.5183  1.1121 -0.6596
 7916TIP3   OH223711   1.533   1.382   0.727  0.0921  0.2176 -0.4443
 7916TIP3    H123712   1.523   1.288   0.711  0.8080 -0.0022  0.2860
 7916TIP3    H223713   1.445   1.413   0.744 -0.5036  0.1623 -3.0088
 7917TIP3   OH223714   5.783   6.463   5.889  0.1247  0.2606 -0.0381
 7917TIP3    H123715   5.856   6.403   5.903  0.8739  1.5360  2.0857
 7917TIP3    H223716   5.790   6.489   5.797  1.3330 -0.9131 -0.3055
 7918TIP3   OH223717   4.637   0.622   4.508  0.4031  0.2801  0.1437
 7918TIP3    H123718   4.695   0.684   4.464  1.1954  0.2978  1.1684
 7918TIP3    H223719   4.693   0.547   4.527 -0.1798 -0.1412  0.2209
 7919TIP3   OH223720   2.412   1.708   5.218 -0.3745 -0.2956  0.0578
 7919TIP3    H123721   2.362   1.719   5.137  1.6886  0.0784 -1.2400
 7919TIP3    H223722   2.408   1.793   5.261 -0.1192  0.0082 -0.5049
 7920TIP3   OH223723   3.674   4.367   1.475  0.1684 -0.7074 -0.3626
 7920TIP3    H123724   3.681   4.342   1.568 -1.2307 -1.1595 -0.3583
 7920TIP3    H223725   3.742   4.315   1.432 -1.8088 -3.6624 -0.1547
 7921TIP3   OH223726   1.290   2.051   1.791  0.4226 -0.1606 -0.8982
 7921TIP3    H123727   1.266   2.072   1.701  0.0715 -0.6814 -0.9293
 7921TIP3    H223728   1.237   1.975   1.813 -1.0682  1.1735  0.4501
 7922TIP3   OH223729   3.101   1.747   0.697 -0.2313  0.2253 -0.2160
 7922TIP3    H123730   3.174   1.692   0.725 -0.9668 -0.7697 -0.1680
 7922TIP3    H223731   3.071   1.790   0.777 -0.5730 -0.4653  0.0414
 7923TIP3   OH223732   2.748   0.295   2.629 -0.1923  0.1721 -0.6194
 7923TIP3    H123733   2.784   0.382   2.646 -1.1606  0.2925  1.0932
 7923TIP3    H223734   2.667   0.312   2.580 -0.3045  0.2480 -0.4127
 7924TIP3   OH223735   1.779   2.282   5.707  0.4662 -0.2677 -1.1348
 7924TIP3    H123736   1.755   2.364   5.751  0.3810  0.1226 -1.8792
 7924TIP3    H223737   1.806   2.310   5.619 -0.3243 -1.1111 -1.6669
 7925TIP3   OH223738   6.005   5.850   0.913  0.2477  0.2810  0.0524
 7925TIP3    H123739   6.055   5.786   0.863 -0.4229  0.0590 -0.3444
 7925TIP3    H223740   6.021   5.933   0.868  1.2324  0.4340  0.6532
 7926TIP3   OH223741   6.969   5.032   5.023  0.1960 -0.4291  0.0969
 7926TIP3    H123742   6.992   5.054   4.933 -0.3509 -1.1096 -0.2160
 7926TIP3    H223743   6.964   5.117   5.067  2.1455 -0.1651 -0.0778
 7927TIP3   OH223744   1.482   3.504   2.320  0.3465 -0.1485  0.2482
 7927TIP3    H123745   1.557   3.562   2.336 -0.4341  0.2232  3.1896
 7927TIP3    H223746   1.513   3.418   2.349  0.2024 -0.3878 -0.2976
 7928TIP3   OH223747   0.158   4.685   3.973 -0.0996  0.0534  0.4368
 7928TIP3    H123748   0.177   4.774   3.942 -0.6217  0.6409  1.7430
 7928TIP3    H223749   0.210   4.629   3.916  1.4463  1.2922  0.5358
 7929TIP3   OH223750   3.494   4.100   0.556  0.5345 -0.6295  0.0899
 7929TIP3    H123751   3.546   4.028   0.591  0.0237 -2.3329 -2.3567
 7929TIP3    H223752   3.538   4.124   0.474  0.8584  2.1376  0.9532
 7930TIP3   OH223753   5.191   4.503   0.002  0.0817 -0.0081 -0.4495
 7930TIP3    H123754   5.263   4.558  -0.029  1.3939 -0.4543  1.5979
 7930TIP3    H223755   5.160   4.547   0.081 -1.2183 -0.3899 -0.7263
 7931TIP3   OH223756   4.794   4.946   5.597  0.5009 -0.9875  0.2011
 7931TIP3    H123757   4.815   4.960   5.689  0.4204 -1.4415  0.2916
 7931TIP3    H223758   4.860   4.996   5.549 -0.1274  0.1696  0.5122
 7932TIP3   OH223759   5.349   0.409   4.407 -0.3895  0.0053  0.5735
 7932TIP3    H123760   5.321   0.388   4.496 -2.6226 -0.0775 -0.0723
 7932TIP3    H223761   5.393   0.493   4.414 -1.0051  0.2484  1.6958
 7933TIP3   OH223762   2.500   5.379   2.636  0.2702 -0.0804 -0.3523
 7933TIP3    H123763   2.537   5.432   2.566 -0.3489 -0.4596 -0.9824
 7933TIP3    H223764   2.558   5.303   2.641 -0.3444 -0.6353 -1.2829
 7934TIP3   OH223765   0.246   3.175   5.367  0.0270  0.2621  0.0321
 7934TIP3    H123766   0.164   3.172   5.415  0.7718  0.7043  1.3775
 7934TIP3    H223767   0.227   3.131   5.284 -1.2801 -0.5403  0.7331
 7935TIP3   OH223768   6.788   5.788   2.980 -0.0679  0.2549 -0.0256
 7935TIP3    H123769   6.809   5.837   2.901 -0.4852  0.5429  0.0368
 7935TIP3    H223770   6.700   5.754   2.963  0.3563 -0.7826 -0.2205
 7936TIP3   OH223771   5.453   1.712   3.561 -0.3202 -0.3173 -0.0023
 7936TIP3    H123772   5.385   1.725   3.627 -0.3777 -1.0165  0.0883
 7936TIP3    H223773   5.439   1.622   3.530  0.7165 -0.5589  0.1918
 7937TIP3   OH223774   2.681   0.560   1.146 -0.2232 -0.7817 -0.6131
 7937TIP3    H123775   2.662   0.576   1.238  2.5323  0.3362 -0.1459
 7937TIP3    H223776   2.711   0.644   1.112  3.7289 -2.1772 -1.0998
 7938TIP3   OH223777   1.877   4.022   0.049  0.0906 -0.0443 -0.0620
 7938TIP3    H123778   1.802   4.080   0.065  0.4399  0.1967  0.7374
 7938TIP3    H223779   1.902   4.041  -0.041 -1.0484 -0.4145 -0.4779
 7939TIP3   OH223780   0.785   0.762   3.842  0.3878 -0.0667 -0.1326
 7939TIP3    H123781   0.819   0.769   3.931 -0.7182 -2.1897  0.5087
 7939TIP3    H223782   0.858   0.791   3.786  1.7095 -0.3736  1.3758
 7940TIP3   OH223783   4.524   5.883   1.905 -0.7510  0.0135  0.4368
 7940TIP3    H123784   4.560   5.817   1.845 -1.5441 -0.9845  1.0135
 7940TIP3    H223785   4.539   5.966   1.862 -2.9006 -0.7499 -2.0551
 7941TIP3   OH223786   5.484   5.737   2.061 -0.8262  0.0201 -0.1673
 7941TIP3    H123787   5.575   5.763   2.051 -1.0213  0.1967 -1.6342
 7941TIP3    H223788   5.483   5.682   2.139  0.8436 -1.4720 -1.1469
 7942TIP3   OH223789   5.746   2.229   1.445  0.2262 -0.0719  0.0306
 7942TIP3    H123790   5.656   2.203   1.466  0.0233  0.9867  0.5298
 7942TIP3    H223791   5.757   2.203   1.354 -0.5145 -0.4003  0.0230
 7943TIP3   OH223792   3.390   0.579   1.110 -0.0551  0.2728 -0.0452
 7943TIP3    H123793   3.318   0.546   1.163 -0.7396  0.9595 -0.5194
 7943TIP3    H223794   3.440   0.501   1.086 -2.3616 -0.7047 -2.2592
 7944TIP3   OH223795   6.265   4.340   5.121  0.8081  0.3521  0.6655
 7944TIP3    H123796   6.260   4.248   5.092  1.5217 -0.4744  3.0096
 7944TIP3    H223797   6.302   4.386   5.045 -2.1842 -0.6911 -1.6688
 7945TIP3   OH223798   3.882   0.715   1.039 -0.2321 -0.0330  0.1327
 7945TIP3    H123799   3.951   0.683   1.098  0.4306  1.1849  0.0417
 7945TIP3    H223800   3.837   0.783   1.088 -0.3322  0.2855 -0.3893
 7946TIP3   OH223801   4.319   2.105   0.470  0.5920 -0.2023 -0.3171
 7946TIP3    H123802   4.373   2.122   0.392  2.1052  0.2290  0.7862
 7946TIP3    H223803   4.311   2.010   0.473  3.6019 -0.5369  0.9131
 7947TIP3   OH223804   4.033   1.083   3.852 -0.7150  0.0505  0.0473
 7947TIP3    H123805   4.102   1.033   3.896  0.4712  1.1535 -0.4991
 7947TIP3    H223806   3.952   1.040   3.878  0.2126 -1.6670  0.2141
 7948TIP3   OH223807   0.970   0.577   1.831 -0.2930 -0.0754  0.1787
 7948TIP3    H123808   0.912   0.506   1.859  0.7578 -0.4819  1.4298
 7948TIP3    H223809   0.931   0.656   1.868 -2.4527  0.3692 -2.6639
 7949TIP3   OH223810   6.855   2.875   2.041  0.0133  0.1690  0.0037
 7949TIP3    H123811   6.771   2.838   2.070  0.5610 -0.3528  0.9696
 7949TIP3    H223812   6.850   2.875   1.945 -0.4779 -1.3098  0.0126
 7950TIP3   OH223813   6.190   3.847   3.848  0.2567 -0.5853 -0.2593
 7950TIP3    H123814   6.254   3.787   3.887 -0.0699  0.1998  1.5914
 7950TIP3    H223815   6.197   3.832   3.754  1.7567 -1.9197  0.0267
 7951TIP3   OH223816   5.979   5.124   1.073 -0.0103 -0.0230  0.0175
 7951TIP3    H123817   5.912   5.177   1.117  1.1537 -0.6274  2.7563
 7951TIP3    H223818   6.062   5.151   1.114  1.1940 -0.7424 -1.8011
 7952TIP3   OH223819   0.907   5.082   4.557  0.2385  0.4624 -0.5677
 7952TIP3    H123820   0.869   5.125   4.480  0.8895  0.3352 -0.9661
 7952TIP3    H223821   0.998   5.067   4.533  0.1281 -0.7588 -0.2691
 7953TIP3   OH223822   0.625   5.936   3.273 -0.0177  0.2225  0.5147
 7953TIP3    H123823   0.543   5.892   3.248 -0.0732  0.8299 -0.4164
 7953TIP3    H223824   0.604   6.029   3.268  0.1135  0.4035  2.4177
 7954TIP3   OH223825   5.595   3.386   5.816 -0.5786 -0.5113  0.0856
 7954TIP3    H123826   5.641   3.320   5.868 -0.6794 -2.2589 -1.9287
 7954TIP3    H223827   5.664   3.436   5.773 -0.4667 -1.9053 -1.4470
 7955TIP3   OH223828   4.827   5.893   0.139  0.0382  1.0314 -0.2152
 7955TIP3    H123829   4.914   5.859   0.158 -0.3270 -0.7546 -1.4275
 7955TIP3    H223830   4.777   5.878   0.220  0.2667 -0.1343 -0.2693
 7956TIP3   OH223831   1.606   1.892   0.400  1.1095  0.0254  0.8359
 7956TIP3    H123832   1.611   1.890   0.305  1.0063 -0.4035  0.8363
 7956TIP3    H223833   1.696   1.908   0.428  1.1796 -0.0723  0.6707
 7957TIP3   OH223834   1.258   3.523   1.301  0.2139 -0.0729 -0.5968
 7957TIP3    H123835   1.239   3.488   1.214  1.7280 -0.9117 -0.6177
 7957TIP3    H223836   1.353   3.521   1.308  0.1249 -0.1278  1.1316
 7958TIP3   OH223837   3.629   6.056   4.658 -0.5510 -0.0832  0.1242
 7958TIP3    H123838   3.603   6.133   4.709 -3.8358 -2.0679  1.7815
 7958TIP3    H223839   3.593   6.072   4.571  0.2785  0.9400 -0.0514
 7959TIP3   OH223840   5.389   2.801   3.629 -0.7247  0.8772  0.2959
 7959TIP3    H123841   5.484   2.797   3.632 -0.6871 -0.3656 -1.2252
 7959TIP3    H223842   5.369   2.879   3.577 -0.4806  0.2813 -0.7116
 7960TIP3   OH223843   6.335   5.418   1.014  0.2959 -0.3238 -0.0445
 7960TIP3    H123844   6.387   5.487   1.054 -0.3765 -0.2820  0.7761
 7960TIP3    H223845   6.395   5.344   1.007  0.7944  0.0905 -0.2052
 7961TIP3   OH223846   2.232   2.219   1.439 -0.8202  0.0491 -0.4720
 7961TIP3    H123847   2.233   2.166   1.519 -0.0630  1.3030  0.3886
 7961TIP3    H223848   2.312   2.194   1.393 -1.1558 -0.5302 -0.7467
 7962TIP3   OH223849   5.639   6.411   4.957 -0.1994  0.3353 -0.8181
 7962TIP3    H123850   5.552   6.390   4.923 -0.6367  0.0510  0.4067
 7962TIP3    H223851   5.693   6.337   4.930 -0.8862 -0.6410  0.3345
 7963TIP3   OH223852   4.902   3.861   4.548  0.3753  0.3182 -0.4705
 7963TIP3    H123853   4.853   3.856   4.465  1.3783 -0.4486 -1.0347
 7963TIP3    H223854   4.860   3.933   4.596 -0.2282  0.7771 -1.6416
 7964TIP3   OH223855   6.519   6.186   0.511  0.2015 -0.1199  0.3051
 7964TIP3    H123856   6.467   6.116   0.471 -1.2944  1.3796 -0.4949
 7964TIP3    H223857   6.480   6.198   0.598 -0.8493  0.9770 -0.2799
 7965TIP3   OH223858   2.386   2.933   2.637  0.2571 -0.3412  0.3401
 7965TIP3    H123859   2.344   2.889   2.712  0.3579  1.9216  1.8243
 7965TIP3    H223860   2.466   2.971   2.674  0.6314  0.2914 -1.0778
 7966TIP3   OH223861   2.085   6.717   5.234  0.2802  0.3200  0.0380
 7966TIP3    H123862   2.062   6.640   5.181  0.2451 -0.4577  1.1270
 7966TIP3    H223863   2.104   6.786   5.171  1.4111 -0.8986 -1.0010
 7967TIP3   OH223864   6.460   3.236   0.748 -0.5422  0.1712  0.3805
 7967TIP3    H123865   6.452   3.273   0.660 -2.6351 -1.0887 -0.0296
 7967TIP3    H223866   6.536   3.281   0.786 -1.1939  2.7157 -1.0779
 7968TIP3   OH223867   2.002   0.102   5.591  0.0158  0.0963 -0.3445
 7968TIP3    H123868   2.010   0.078   5.683  0.9401 -0.7729 -0.6324
 7968TIP3    H223869   2.039   0.191   5.586  1.7019 -0.5652 -0.1712
 7969TIP3   OH223870   1.688   4.336   4.090 -0.3282 -0.1606 -0.1243
 7969TIP3    H123871   1.594   4.355   4.102 -0.6907  1.1906 -3.6915
 7969TIP3    H223872   1.729   4.422   4.083  0.7804 -0.7245 -0.8551
 7970TIP3   OH223873   5.175   1.781   5.089 -0.3228  0.5910  0.3133
 7970TIP3    H123874   5.189   1.872   5.063 -1.3929  0.7133  0.0765
 7970TIP3    H223875   5.181   1.732   5.007  0.9463  0.3455  0.5408
 7971TIP3   OH223876   3.795   0.029   1.740 -0.2082 -0.3280  0.2663
 7971TIP3    H123877   3.780   0.086   1.664  0.8338 -1.6004 -0.9598
 7971TIP3    H223878   3.842   0.084   1.802  2.7663 -0.3152 -1.7707
 7972TIP3   OH223879   3.156   6.681   5.896 -0.3580 -0.3300 -0.2553
 7972TIP3    H123880   3.168   6.625   5.819 -1.1562  0.4762 -0.9976
 7972TIP3    H223881   3.102   6.753   5.864  1.3764  1.3631  0.4351
 7973TIP3   OH223882   6.736   4.749   0.902  0.5410  0.5627 -0.0751
 7973TIP3    H123883   6.770   4.721   0.987 -1.1670  0.8213  0.7357
 7973TIP3    H223884   6.721   4.667   0.855  1.4898  0.4160 -0.1428
 7974TIP3   OH223885   4.091   0.397   0.579  0.3566 -0.0119  0.1556
 7974TIP3    H123886   4.086   0.309   0.617 -1.8225  0.6861  1.6524
 7974TIP3    H223887   4.070   0.384   0.487 -0.5435 -0.9985  0.4801
 7975TIP3   OH223888   2.630   5.573   2.496  0.1209  0.0372 -0.7654
 7975TIP3    H123889   2.688   5.514   2.448  3.3080  1.0849  1.4639
 7975TIP3    H223890   2.687   5.646   2.522 -2.3333  1.3556  1.2716
 7976TIP3   OH223891   5.361   1.659   5.529  0.9280  0.1620 -0.4851
 7976TIP3    H123892   5.308   1.736   5.547 -2.0499 -2.0137  0.7478
 7976TIP3    H223893   5.355   1.647   5.434  1.8901  1.6921 -0.7671
 7977TIP3   OH223894   6.954   3.179   1.675  0.8551 -0.3330 -0.4414
 7977TIP3    H123895   6.915   3.222   1.598  1.2750 -0.0729 -0.5124
 7977TIP3    H223896   7.019   3.119   1.639 -0.6038 -2.0201 -0.4237
 7978TIP3   OH223897   2.984   0.124   5.387 -0.0190  0.1133 -0.1692
 7978TIP3    H123898   2.969   0.129   5.292 -0.4648 -0.6818 -0.1459
 7978TIP3    H223899   2.903   0.156   5.426  0.6696  1.8047 -0.0378
 7979TIP3   OH223900   0.692   6.437   4.074  0.0581 -0.3096  0.2783
 7979TIP3    H123901   0.754   6.502   4.039 -2.9773  2.1982 -0.8622
 7979TIP3    H223902   0.666   6.472   4.159 -1.5001 -0.0433 -0.2781
 7980TIP3   OH223903   4.962   5.363   1.694 -0.0086 -0.2869  0.9030
 7980TIP3    H123904   4.925   5.393   1.611  1.6113 -1.9031 -0.4881
 7980TIP3    H223905   5.005   5.440   1.730 -0.8892  0.4862  0.3592
 7981TIP3   OH223906   6.438   5.592   3.825 -0.3729 -0.1886 -0.0276
 7981TIP3    H123907   6.444   5.603   3.730 -2.1425 -0.5931 -0.2272
 7981TIP3    H223908   6.529   5.588   3.854  0.2162 -0.4492 -1.7520
 7982TIP3   OH223909   4.345   3.990   3.603  0.2372 -0.6296 -0.4217
 7982TIP3    H123910   4.407   4.028   3.664 -2.9978  1.1776  2.0315
 7982TIP3    H223911   4.291   4.064   3.573 -2.2756 -2.3471 -0.4637
 7983TIP3   OH223912   2.966   3.719   1.668 -0.0865  0.4094  0.0809
 7983TIP3    H123913   2.995   3.651   1.729 -0.1627  1.3193  1.1647
 7983TIP3    H223914   2.908   3.674   1.607  0.7185 -0.7024  0.1049
 7984TIP3   OH223915   4.054   3.916   0.851  0.5832 -0.0670 -0.1124
 7984TIP3    H123916   4.085   3.971   0.779  0.8447  0.8124  0.6544
 7984TIP3    H223917   4.133   3.878   0.889  0.4366 -0.6262 -0.3574
 7985TIP3   OH223918   0.104   6.159   4.538 -0.1795 -1.3415 -0.0197
 7985TIP3    H123919   0.107   6.067   4.563  1.1218 -1.4305 -0.4282
 7985TIP3    H223920   0.196   6.185   4.532 -0.5209  0.3720  1.4471
 7986TIP3   OH223921   4.491   1.264   3.361  0.0638  0.3755 -0.1094
 7986TIP3    H123922   4.440   1.293   3.286  0.1631  2.3774  0.5328
 7986TIP3    H223923   4.451   1.309   3.436  1.1944 -0.0203  0.7617
 7987TIP3   OH223924   0.449   6.287   0.721 -0.1737 -0.1759  0.5583
 7987TIP3    H123925   0.426   6.234   0.645  1.1333  0.3802 -0.2813
 7987TIP3    H223926   0.449   6.226   0.795  1.4171 -1.3943 -0.3905
 7988TIP3   OH223927   0.175   2.235   5.864  0.0108 -0.3222  0.3495
 7988TIP3    H123928   0.107   2.300   5.878  1.2982  0.7732  1.8894
 7988TIP3    H223929   0.131   2.151   5.877 -1.3170  0.2804 -0.0459
 7989TIP3   OH223930   6.420   2.832   0.623  0.1602 -0.1731 -0.0967
 7989TIP3    H123931   6.507   2.838   0.582 -0.1659  1.0421 -0.6514
 7989TIP3    H223932   6.427   2.887   0.701 -0.1673  0.0585 -0.2322
 7990TIP3   OH223933   1.798   4.913   0.844  0.0941  0.0825  0.1846
 7990TIP3    H123934   1.723   4.867   0.808 -0.1578  0.5896  0.0532
 7990TIP3    H223935   1.803   4.885   0.935 -1.0479  1.0384  0.5579
 7991TIP3   OH223936   4.596   2.442   1.221  0.2433  0.1427  0.0385
 7991TIP3    H123937   4.531   2.509   1.243  0.4890  1.1396 -2.0926
 7991TIP3    H223938   4.549   2.379   1.167  0.2764 -0.9238  1.1947
 7992TIP3   OH223939   4.336   6.746   0.234 -0.3189 -0.1724 -0.1812
 7992TIP3    H123940   4.288   6.745   0.152 -2.8576 -0.1561  1.1966
 7992TIP3    H223941   4.354   6.654   0.253 -0.4913 -0.2397 -0.3484
 7993TIP3   OH223942   6.868   2.488   4.692  0.0240 -0.0937 -0.0393
 7993TIP3    H123943   6.787   2.484   4.642 -0.4757 -1.5996  0.8164
 7993TIP3    H223944   6.866   2.574   4.735 -1.6813 -0.5211  0.8258
 7994TIP3   OH223945   4.133   1.843   4.658  0.2555  0.0060 -0.1009
 7994TIP3    H123946   4.194   1.911   4.629  0.8533 -0.6172 -0.3048
 7994TIP3    H223947   4.087   1.883   4.732  1.4542  0.2143  0.5603
 7995TIP3   OH223948   5.521   1.744   5.742 -0.3023  0.1065 -0.1507
 7995TIP3    H123949   5.466   1.722   5.667 -0.9819  2.0872 -0.2998
 7995TIP3    H223950   5.610   1.720   5.714 -0.5491  0.7534 -1.6037
 7996TIP3   OH223951   3.662   1.752   4.782  0.2815  0.5654  0.2369
 7996TIP3    H123952   3.584   1.804   4.800 -1.4667 -1.3087 -1.3967
 7996TIP3    H223953   3.661   1.682   4.848 -1.1935 -1.1932 -1.5377
 7997TIP3   OH223954   6.752   4.111   1.792 -0.5645  0.8561  0.2704
 7997TIP3    H123955   6.703   4.156   1.723 -0.2128  0.8436  0.0118
 7997TIP3    H223956   6.721   4.021   1.789 -0.7524  0.9174  0.3190
 7998TIP3   OH223957   1.164   1.514   1.078  0.7847 -0.1488  0.4982
 7998TIP3    H123958   1.220   1.550   1.008 -0.5165  1.7097  0.3613
 7998TIP3    H223959   1.104   1.455   1.032  1.7759 -1.1853  0.4812
 7999TIP3   OH223960   3.110   5.854   4.836  0.2585  0.4466 -0.7739
 7999TIP3    H123961   3.154   5.874   4.753  0.6326 -0.6094 -0.8432
 7999TIP3    H223962   3.160   5.903   4.902  0.1961  0.9840 -1.1233
 8000TIP3   OH223963   6.793   4.318   4.439  0.1403  0.0876  0.2350
 8000TIP3    H123964   6.834   4.300   4.524  0.3371 -1.2612 -0.1084
 8000TIP3    H223965   6.699   4.311   4.457  0.1802 -0.2058  0.3524
 8001TIP3   OH223966   5.337   4.396   4.609  0.0631 -0.7331  0.3928
 8001TIP3    H123967   5.243   4.398   4.589  0.1371 -1.2841 -0.0687
 8001TIP3    H223968   5.379   4.434   4.531  0.2215 -0.4190  0.6276
 8002TIP3   OH223969   3.475   6.538   2.319  0.1561  0.1933 -0.4355
 8002TIP3    H123970   3.461   6.471   2.386  1.9459 -0.3261 -0.5405
 8002TIP3    H223971   3.442   6.499   2.239  0.8984 -0.4618 -0.4366
 8003TIP3   OH223972   4.991   5.088   1.739  0.2822  0.0527 -0.4720
 8003TIP3    H123973   4.982   5.183   1.739 -0.2003  0.0509 -2.5167
 8003TIP3    H223974   4.909   5.056   1.703  1.3268 -0.9915 -2.0717
 8004TIP3   OH223975   3.893   6.276   3.930  0.2099 -0.2903  0.2163
 8004TIP3    H123976   3.902   6.232   4.014  3.1360 -3.1282 -1.3818
 8004TIP3    H223977   3.973   6.327   3.920  0.1783 -0.4429 -1.0288
 8005TIP3   OH223978   5.939   0.455   1.653 -0.1976  0.4210 -0.0577
 8005TIP3    H123979   5.952   0.390   1.722 -2.2517 -0.2747 -0.2630
 8005TIP3    H223980   5.886   0.523   1.694  1.3353  1.6702 -0.0534
 8006TIP3   OH223981   4.976   2.677   4.132 -0.0646 -0.2972 -0.1002
 8006TIP3    H123982   5.022   2.758   4.110  0.1839 -0.6582 -0.9581
 8006TIP3    H223983   4.923   2.700   4.208  0.1570  0.6172 -0.2028
 8007TIP3   OH223984   2.742   0.218   0.074 -0.0923 -0.3192 -0.4055
 8007TIP3    H123985   2.676   0.250   0.012  0.8123 -2.0178 -2.3838
 8007TIP3    H223986   2.823   0.214   0.023  1.4245  0.9442  1.7321
 8008TIP3   OH223987   3.864   1.808   0.198  0.0748  0.4394  0.3057
 8008TIP3    H123988   3.918   1.747   0.148  0.0226  1.3485 -0.8944
 8008TIP3    H223989   3.774   1.782   0.179  0.0481  1.0510 -0.4291
 8009TIP3   OH223990   6.797   3.799   0.948  0.0770 -1.0763 -0.8317
 8009TIP3    H123991   6.716   3.776   0.903 -2.1942 -0.2071  2.4634
 8009TIP3    H223992   6.820   3.721   0.999 -1.6421  0.1120  2.0491
 8010TIP3   OH223993   4.624   0.143   2.914 -0.1214  0.2842  0.0942
 8010TIP3    H123994   4.554   0.090   2.953 -0.6949 -0.6460 -2.0522
 8010TIP3    H223995   4.586   0.178   2.834  1.5515  0.6310 -0.5880
 8011TIP3   OH223996   4.434   1.521   2.920  0.5153  0.0856  0.0558
 8011TIP3    H123997   4.510   1.500   2.865 -1.4082 -0.9237 -2.4320
 8011TIP3    H223998   4.416   1.613   2.901 -0.1265 -0.2508 -1.0919
 8012TIP3   OH223999   2.822   4.713   1.771  0.0675  0.0363 -0.4392
 8012TIP3    H124000   2.862   4.626   1.776 -1.2976 -0.5687  0.3819
 8012TIP3    H224001   2.803   4.724   1.678  1.1616 -0.1012 -0.6958
 8013TIP3   OH224002   3.175   1.472   0.124  0.0912  0.0276 -0.1879
 8013TIP3    H124003   3.093   1.425   0.136 -0.3669  0.8290 -0.1348
 8013TIP3    H224004   3.235   1.430   0.186 -0.5050 -0.0300  0.3645
 8014TIP3   OH224005   7.128   6.329   1.303 -0.0721 -0.4830 -0.3842
 8014TIP3    H124006   7.139   6.249   1.355 -0.7313  0.2862  0.9827
 8014TIP3    H224007   7.216   6.349   1.271  0.4148 -0.7586  0.7570
 8015TIP3   OH224008   1.460   6.106   2.307 -0.3340 -0.5709  0.0502
 8015TIP3    H124009   1.496   6.193   2.323 -0.9312 -0.4765  1.0026
 8015TIP3    H224010   1.425   6.078   2.392 -1.1792 -1.2569 -0.4918
 8016TIP3   OH224011   5.800   6.383   3.015 -0.2464 -0.2681  0.1369
 8016TIP3    H124012   5.754   6.425   2.942 -2.2316 -1.5713  0.5446
 8016TIP3    H224013   5.806   6.451   3.081 -2.1665 -0.1542  0.2674
 8017TIP3   OH224014   1.096   3.195   2.946  0.1073 -0.1549 -0.4829
 8017TIP3    H124015   1.176   3.221   2.991  0.0408  0.1698 -0.5530
 8017TIP3    H224016   1.027   3.203   3.012  0.1579 -0.5944 -0.3755
 8018TIP3   OH224017   7.045   4.668   3.297  0.0792 -0.4402  0.5289
 8018TIP3    H124018   6.967   4.639   3.250  0.7272  1.5532 -1.9683
 8018TIP3    H224019   7.030   4.641   3.388 -1.8602 -3.2524 -0.5184
 8019TIP3   OH224020   0.331   6.604   2.214  0.7992 -0.5881  0.0112
 8019TIP3    H124021   0.409   6.557   2.243  0.0295 -0.6060  2.2245
 8019TIP3    H224022   0.319   6.674   2.279 -0.8394 -0.4062 -0.4403
 8020TIP3   OH224023   3.334   6.237   3.199 -0.3952 -0.1022  0.5184
 8020TIP3    H124024   3.242   6.218   3.184 -0.5148 -0.9785  2.1517
 8020TIP3    H224025   3.360   6.291   3.124 -1.4790 -2.1277 -1.4192
 8021TIP3   OH224026   0.839   6.113   3.425 -0.1315  0.2540 -0.2760
 8021TIP3    H124027   0.866   6.204   3.415 -0.5700  0.3412 -0.6965
 8021TIP3    H224028   0.799   6.109   3.511 -2.9138  1.1989 -1.4099
 8022TIP3   OH224029   5.582   3.049   1.320 -0.2542  0.0674 -0.4813
 8022TIP3    H124030   5.636   3.125   1.339  0.3513  0.5559 -3.5585
 8022TIP3    H224031   5.492   3.081   1.323 -0.0161  0.8894 -1.4910
 8023TIP3   OH224032   1.500   0.589   5.632 -0.2072 -0.1439  0.5755
 8023TIP3    H124033   1.562   0.535   5.682  0.5926  0.0874 -0.1456
 8023TIP3    H224034   1.545   0.673   5.622 -0.3856 -0.1659 -0.4657
 8024TIP3   OH224035   3.118   2.485   5.200  0.3324  0.4042  0.7341
 8024TIP3    H124036   3.068   2.551   5.249 -1.8183 -0.1747 -0.5499
 8024TIP3    H224037   3.113   2.514   5.109  1.2723 -0.3687  0.4265
 8025TIP3   OH224038   6.467   2.214   1.474  0.1899  0.4484 -0.1659
 8025TIP3    H124039   6.486   2.270   1.399 -0.8053  1.2110  0.1209
 8025TIP3    H224040   6.439   2.131   1.436  0.6627  0.4936 -0.6177
 8026TIP3   OH224041   6.796   1.959   4.728  0.5084 -0.3843  0.0696
 8026TIP3    H124042   6.858   2.032   4.726  1.6714 -1.3399  0.0290
 8026TIP3    H224043   6.834   1.897   4.790 -0.5936 -0.8531  0.3004
 8027TIP3   OH224044   2.708   6.510   1.338  0.9927  0.0334  0.5417
 8027TIP3    H124045   2.783   6.562   1.368  0.0781  1.8705 -0.2171
 8027TIP3    H224046   2.673   6.469   1.417  2.4310 -0.4066  0.9844
 8028TIP3   OH224047   0.700   1.737   0.983  0.2726  0.7847  0.0613
 8028TIP3    H124048   0.729   1.711   0.895 -0.7260  1.8138 -0.6108
 8028TIP3    H224049   0.762   1.805   1.009  0.9459  0.0334  0.4247
 8029TIP3   OH224050   0.042   3.191   0.529  0.0746  0.3285  0.4358
 8029TIP3    H124051   0.089   3.251   0.471  1.0086 -0.4412  0.3573
 8029TIP3    H224052  -0.003   3.130   0.471 -0.0833  0.3744  0.5107
 8030TIP3   OH224053   5.549   2.504   1.384 -0.4643 -0.3133 -0.4784
 8030TIP3    H124054   5.533   2.579   1.326 -0.3628 -1.0742 -1.5160
 8030TIP3    H224055   5.640   2.480   1.367 -0.1714 -0.0393  0.6237
 8031TIP3   OH224056   4.754   5.015   0.943 -0.2513  0.3243  0.1389
 8031TIP3    H124057   4.793   4.933   0.971 -0.2299  0.1912 -0.2790
 8031TIP3    H224058   4.721   5.055   1.024  0.3469  0.2303  0.4384
 8032TIP3   OH224059   6.770   5.584   1.264 -0.0156  0.0637 -0.2878
 8032TIP3    H124060   6.816   5.657   1.222 -0.2110 -1.0652 -2.6654
 8032TIP3    H224061   6.807   5.506   1.223 -0.9140 -1.1109  1.0337
 8033TIP3   OH224062   6.766   2.045   0.239  0.1967 -0.1961 -0.3584
 8033TIP3    H124063   6.860   2.045   0.254 -0.0543  1.2642  1.7225
 8033TIP3    H224064   6.747   2.133   0.205 -0.4137 -0.4398 -0.6636
 8034TIP3   OH224065   4.764   0.953   5.127  0.1829 -0.4223  0.1057
 8034TIP3    H124066   4.687   0.896   5.138  0.3394 -0.4590  1.1432
 8034TIP3    H224067   4.729   1.037   5.099 -0.4664  0.1183  2.3004
 8035TIP3   OH224068   6.984   0.352   3.968 -0.1913 -0.5768 -0.2623
 8035TIP3    H124069   7.057   0.292   3.974 -0.6556 -1.0273  1.4132
 8035TIP3    H224070   6.926   0.314   3.902  2.0154  0.9147 -3.2778
 8036TIP3   OH224071   4.500   1.090   5.616 -0.0627  0.0799 -0.2286
 8036TIP3    H124072   4.491   1.177   5.654 -2.1092 -1.1222  2.2876
 8036TIP3    H224073   4.564   1.046   5.671  0.6404 -0.2037 -1.2305
 8037TIP3   OH224074   6.568   3.675   3.238 -0.3053  0.5781  0.1623
 8037TIP3    H124075   6.607   3.752   3.196  1.3794  0.7558  1.9209
 8037TIP3    H224076   6.519   3.711   3.312 -1.4373  0.0922 -0.3162
 8038TIP3   OH224077   4.189   6.113   5.018 -0.1669 -0.4081 -0.0147
 8038TIP3    H124078   4.179   6.021   5.045  0.1519  0.1169  2.0633
 8038TIP3    H224079   4.115   6.129   4.960  0.6336 -2.3962 -1.6829
 8039TIP3   OH224080   3.518   6.732   1.857 -0.5710  0.2905 -0.1170
 8039TIP3    H124081   3.527   6.821   1.823 -0.6204  0.1680 -0.4535
 8039TIP3    H224082   3.442   6.697   1.811 -0.2097 -0.1194 -0.4047
 8040TIP3   OH224083   4.068   5.028   3.520  0.6622  0.5288  0.8347
 8040TIP3    H124084   4.015   4.998   3.446  0.2098  0.7766  1.0583
 8040TIP3    H224085   4.032   5.114   3.543  1.5897  1.0048  0.5583
 8041TIP3   OH224086   0.584   1.947   0.193 -0.2578  0.5771 -0.3782
 8041TIP3    H124087   0.496   1.943   0.229 -0.4999 -1.5386 -1.0838
 8041TIP3    H224088   0.641   1.944   0.270 -0.8063 -0.0546  0.0195
 8042TIP3   OH224089   5.767   2.139   0.020 -0.1958  0.0643 -0.3256
 8042TIP3    H124090   5.839   2.096   0.066 -1.9370 -1.2695  1.3251
 8042TIP3    H224091   5.776   2.110  -0.071  0.6756 -1.0500  0.0895
 8043TIP3   OH224092   4.240   6.446   4.134  0.2709 -0.3929 -0.3955
 8043TIP3    H124093   4.192   6.374   4.175  0.2349 -1.6598 -2.5019
 8043TIP3    H224094   4.267   6.501   4.207 -2.7958 -0.5675  1.0459
 8044TIP3   OH224095   1.268   4.144   1.694 -0.2345  0.1486  0.5088
 8044TIP3    H124096   1.246   4.080   1.761  1.2011  0.1820  1.0556
 8044TIP3    H224097   1.319   4.094   1.630  0.4211  0.6103  0.6590
 8045TIP3   OH224098   1.769   5.372   5.832  0.5669 -0.6372  0.3063
 8045TIP3    H124099   1.682   5.343   5.805  1.3351 -1.0441 -1.9515
 8045TIP3    H224100   1.778   5.341   5.922 -0.4373 -3.3539 -0.4455
 8046TIP3   OH224101   3.154   2.516   0.343  0.0325  0.1127 -0.1631
 8046TIP3    H124102   3.090   2.514   0.415  2.1063 -1.2838  1.7971
 8046TIP3    H224103   3.218   2.449   0.367  1.4698  0.4305 -2.7813
 8047TIP3   OH224104   5.754   5.869   2.355  0.0507  0.2424  0.8733
 8047TIP3    H124105   5.682   5.928   2.377  1.6982  2.3212  1.0548
 8047TIP3    H224106   5.776   5.891   2.264 -0.8778 -1.9141  0.0668
 8048TIP3   OH224107   2.313   3.742   2.730 -0.5018  0.0071 -0.0775
 8048TIP3    H124108   2.218   3.733   2.731 -0.4970 -0.3738  2.1635
 8048TIP3    H224109   2.328   3.836   2.740 -0.6917 -0.0557  0.9859
 8049TIP3   OH224110   4.727   6.252   1.181 -0.0356 -0.1555  0.2750
 8049TIP3    H124111   4.807   6.200   1.171 -0.1187  0.0295 -1.7366
 8049TIP3    H224112   4.726   6.309   1.104 -3.2102 -1.7287 -1.0259
 8050TIP3   OH224113   4.146   1.067   5.550  0.5223  0.1427  0.3503
 8050TIP3    H124114   4.053   1.049   5.564  0.7104 -2.1501 -0.9270
 8050TIP3    H224115   4.156   1.073   5.455  2.1117 -2.8020  0.2057
 8051TIP3   OH224116   5.018   3.952   5.715 -0.4544 -0.0964 -0.0180
 8051TIP3    H124117   4.983   3.888   5.777 -0.9240 -0.3854 -0.5719
 8051TIP3    H224118   5.088   3.905   5.669 -1.2988 -0.4729 -0.9531
 8052TIP3   OH224119   2.940   5.574   1.824 -0.1169 -0.6213  0.0924
 8052TIP3    H124120   2.880   5.649   1.816 -2.2322 -2.0893  1.2193
 8052TIP3    H224121   2.947   5.560   1.918  1.4637 -0.9792 -0.0468
 8053TIP3   OH224122   3.835   2.256   3.311 -0.0991  0.1238 -0.6192
 8053TIP3    H124123   3.790   2.334   3.342 -1.3938 -0.9174  0.2417
 8053TIP3    H224124   3.878   2.220   3.389  1.3363  0.4951 -1.2086
 8054TIP3   OH224125   0.410   1.516   0.073 -0.4041  0.0982  0.3251
 8054TIP3    H124126   0.494   1.530   0.117 -0.9776 -0.4566  1.6460
 8054TIP3    H224127   0.428   1.535  -0.019  1.4634 -1.2027  0.3668
 8055TIP3   OH224128   1.616   4.040   1.395  0.5053 -0.1711  0.1862
 8055TIP3    H124129   1.588   4.034   1.304  0.1760 -0.0682  0.2787
 8055TIP3    H224130   1.535   4.049   1.445  0.6075 -1.3998  0.5995
 8056TIP3   OH224131   4.671   3.171   3.309  0.6286 -0.1820  0.4185
 8056TIP3    H124132   4.750   3.168   3.255  1.6872 -0.2359  1.9084
 8056TIP3    H224133   4.625   3.250   3.279  1.1971 -0.1808 -0.5081
 8057TIP3   OH224134   5.799   2.330   5.518  0.4380 -0.0045  0.0588
 8057TIP3    H124135   5.734   2.384   5.474  1.7796  1.0397 -0.7316
 8057TIP3    H224136   5.877   2.336   5.462  1.8022  0.3170  1.8819
 8058TIP3   OH224137   0.320   2.470   4.466  0.1924  0.3042 -0.3199
 8058TIP3    H124138   0.227   2.450   4.476  0.4010 -0.3281  0.4882
 8058TIP3    H224139   0.325   2.565   4.477 -0.3186  0.2961  0.0292
 8059TIP3   OH224140   5.425   5.800   2.570  0.4074 -0.1699 -0.6621
 8059TIP3    H124141   5.457   5.878   2.525 -0.3474  0.6971  0.2587
 8059TIP3    H224142   5.441   5.817   2.663 -0.7959 -0.5973 -0.3483
 8060TIP3   OH224143   0.546   1.105   5.295 -0.4006  0.2779 -0.3131
 8060TIP3    H124144   0.545   1.050   5.373 -0.2344  0.8710  0.1118
 8060TIP3    H224145   0.632   1.146   5.295 -0.0586 -0.4044 -1.3045
 8061TIP3   OH224146   4.895   5.603   1.849  0.0667 -0.2008  0.4352
 8061TIP3    H124147   4.909   5.681   1.796  3.0867 -0.8048  0.1508
 8061TIP3    H224148   4.842   5.546   1.794 -0.2636  0.7584 -0.2597
 8062TIP3   OH224149   0.060   3.265   5.556  0.3024 -0.6155  0.5418
 8062TIP3    H124150   0.108   3.347   5.549  0.8107 -0.9798 -0.4127
 8062TIP3    H224151   0.089   3.227   5.639 -0.1049  0.2584  1.1017
 8063TIP3   OH224152   0.490   5.069   1.174  0.1836  0.5241 -0.7254
 8063TIP3    H124153   0.481   5.154   1.130  1.7476  1.5533  0.8310
 8063TIP3    H224154   0.512   5.091   1.265 -0.1204 -1.5521 -0.1006
 8064TIP3   OH224155   6.295   1.682   0.337 -0.5276 -0.6484 -0.3933
 8064TIP3    H124156   6.387   1.709   0.341 -0.6428 -0.1658 -0.7811
 8064TIP3    H224157   6.274   1.654   0.426 -0.1053 -0.4203 -0.2168
 8065TIP3   OH224158   2.730   6.069   4.104  0.1054  0.0634 -0.2789
 8065TIP3    H124159   2.747   5.980   4.076 -0.3497  0.3966 -1.6842
 8065TIP3    H224160   2.665   6.060   4.174  1.1025 -0.7640  0.5764
 8066TIP3   OH224161   0.290   6.330   4.858  0.1907  0.1609 -0.8538
 8066TIP3    H124162   0.268   6.423   4.849 -1.4849 -0.2901 -1.8342
 8066TIP3    H224163   0.207   6.287   4.873  1.0719 -1.1050  0.7407
 8067TIP3   OH224164   0.992   0.570   4.736 -0.2586  0.2093 -0.0845
 8067TIP3    H124165   1.054   0.572   4.809 -1.8934  1.4198  1.3847
 8067TIP3    H224166   0.915   0.525   4.772  0.0566 -2.1769 -2.1685
 8068TIP3   OH224167   4.305   6.374   5.504 -0.7275 -0.1750  0.0846
 8068TIP3    H124168   4.300   6.379   5.599  1.6371  0.0946  0.2635
 8068TIP3    H224169   4.345   6.457   5.477  0.9367 -1.2168 -0.8526
 8069TIP3   OH224170   3.426   5.601   4.668  0.1317 -0.6084  0.1662
 8069TIP3    H124171   3.413   5.595   4.574  2.3582  3.1675 -0.5892
 8069TIP3    H224172   3.391   5.687   4.692  0.7644 -0.9299  2.5530
 8070TIP3   OH224173   5.119   2.208   2.707  0.1979 -0.6393 -0.4315
 8070TIP3    H124174   5.038   2.257   2.707  0.4823 -0.1198 -1.6810
 8070TIP3    H224175   5.094   2.119   2.733 -0.4385 -0.0525  1.0516
 8071TIP3   OH224176   7.125   3.088   2.184  0.3865  0.0962 -0.5784
 8071TIP3    H124177   7.217   3.114   2.197  0.5147 -0.4872 -0.2545
 8071TIP3    H224178   7.116   3.008   2.236 -0.2297 -0.0151 -0.8530
 8072TIP3   OH224179   1.683   6.300   4.262  0.3124  0.3029 -0.4416
 8072TIP3    H124180   1.703   6.321   4.353 -1.5824  0.1738  0.0537
 8072TIP3    H224181   1.725   6.216   4.246  0.7131  0.3583  0.2899
 8073TIP3   OH224182   3.346   3.494   2.151 -0.2350  0.1336 -0.1514
 8073TIP3    H124183   3.289   3.425   2.118 -2.8958  1.2650  1.6815
 8073TIP3    H224184   3.395   3.453   2.222 -0.2291 -0.4002 -0.4645
 8074TIP3   OH224185   3.462   3.747   3.367 -0.0058  0.1596 -0.4600
 8074TIP3    H124186   3.418   3.831   3.378  1.4204  0.7925  0.6168
 8074TIP3    H224187   3.439   3.697   3.445  1.7361  0.7774  0.4924
 8075TIP3   OH224188   6.106   1.800   5.057  0.2609 -0.1661  0.0609
 8075TIP3    H124189   6.192   1.819   5.020  0.0976 -0.9199 -0.7277
 8075TIP3    H224190   6.076   1.884   5.091  1.0200  0.2433 -0.2531
 8076TIP3   OH224191   3.805   6.647   4.708  0.0838  0.2761  0.0130
 8076TIP3    H124192   3.844   6.656   4.795 -1.4478 -2.0393  1.0661
 8076TIP3    H224193   3.879   6.630   4.649  1.0620  0.9135  1.0315
 8077TIP3   OH224194   0.233   3.380   3.685 -0.0479 -0.4836  0.1393
 8077TIP3    H124195   0.260   3.346   3.770  0.5214 -1.1153 -0.2803
 8077TIP3    H224196   0.138   3.367   3.683  0.1988 -2.6598 -0.2295
 8078TIP3   OH224197   1.522   0.859   4.617 -0.1444  0.2162  0.5302
 8078TIP3    H124198   1.522   0.806   4.538 -1.4569 -1.0162  1.3137
 8078TIP3    H224199   1.434   0.898   4.620 -0.3541 -0.2887  1.7020
 8079TIP3   OH224200   0.566   3.213   0.915  0.1799 -0.5825 -0.2089
 8079TIP3    H124201   0.569   3.221   1.010  0.2709 -3.4074  0.1285
 8079TIP3    H224202   0.648   3.252   0.884  0.5346 -0.3945  0.9458
 8080TIP3   OH224203   4.037   3.356   1.661 -0.1031 -0.0189  0.5611
 8080TIP3    H124204   3.984   3.306   1.723 -0.2746 -0.6524 -0.0932
 8080TIP3    H224205   4.008   3.447   1.673 -1.1209 -0.3137  0.4418
 8081TIP3   OH224206   2.423   0.418   0.208  0.7214 -0.1709 -0.6767
 8081TIP3    H124207   2.387   0.507   0.216  2.2974  0.3345  1.6652
 8081TIP3    H224208   2.449   0.412   0.116 -0.3850  1.3847 -1.1474
 8082TIP3   OH224209   0.872   3.980   5.745  0.3542 -0.1195 -1.0096
 8082TIP3    H124210   0.963   3.968   5.715  0.3681  0.1109 -1.0629
 8082TIP3    H224211   0.857   4.074   5.736  0.0985 -0.1626 -1.0302
 8083TIP3   OH224212   3.672   1.977   4.069 -0.1334 -0.3482  0.3913
 8083TIP3    H124213   3.608   1.929   4.121 -0.6966 -0.0077  0.0153
 8083TIP3    H224214   3.714   2.036   4.131  0.7591 -1.4924  0.9233
 8084TIP3   OH224215   1.713   5.948   5.664 -0.3037 -0.2320  1.0295
 8084TIP3    H124216   1.647   5.925   5.599 -2.0459  2.1203  1.8429
 8084TIP3    H224217   1.757   6.024   5.627  0.5591 -0.5212  1.4330
 8085TIP3   OH224218   0.500   4.401   3.396 -0.1704 -0.1344  0.0941
 8085TIP3    H124219   0.464   4.342   3.330  1.2008 -1.5541  0.5714
 8085TIP3    H224220   0.559   4.459   3.347  0.7052 -1.0666  0.0219
 8086TIP3   OH224221   4.233   6.144   1.737  0.1751 -0.6913  0.2694
 8086TIP3    H124222   4.198   6.201   1.806 -1.0170 -0.0924 -0.7789
 8086TIP3    H224223   4.289   6.201   1.684  0.6864 -1.0239  0.4466
 8087TIP3   OH224224   1.712   4.336   0.497 -0.1894 -0.0077  0.3317
 8087TIP3    H124225   1.624   4.353   0.464 -0.5354 -1.2446  0.5831
 8087TIP3    H224226   1.744   4.263   0.445  1.3308  1.4201 -0.8438
 8088TIP3   OH224227   1.015   2.256   5.449 -0.2525 -0.6813  0.0669
 8088TIP3    H124228   0.940   2.306   5.416  0.8820 -0.6767 -2.7623
 8088TIP3    H224229   1.014   2.272   5.544 -2.0800  1.7081 -0.2409
 8089TIP3   OH224230   4.036   0.746   3.552 -0.0932  0.3998 -0.1046
 8089TIP3    H124231   4.046   0.741   3.457 -1.0551 -0.6751 -0.1724
 8089TIP3    H224232   3.988   0.828   3.567  1.2459  1.2678 -0.4139
 8090TIP3   OH224233   6.614   5.582   0.515 -0.6326  0.0808 -0.5470
 8090TIP3    H124234   6.604   5.639   0.439  0.2353  1.6004  0.4250
 8090TIP3    H224235   6.676   5.628   0.572  0.4389 -2.0300  0.1233
 8091TIP3   OH224236   1.581   2.639   3.891 -0.2119 -0.1169 -0.2087
 8091TIP3    H124237   1.612   2.643   3.981 -1.6890  0.5769  0.3073
 8091TIP3    H224238   1.639   2.697   3.842  1.0966 -1.1065  0.1095
 8092TIP3   OH224239   5.347   5.049   4.619  0.4086 -0.3024 -0.4214
 8092TIP3    H124240   5.385   5.001   4.546  0.1063 -1.7001  0.2995
 8092TIP3    H224241   5.259   5.013   4.629  1.4841 -2.4925  2.5736
 8093TIP3   OH224242   1.724   3.919   5.647  0.2334 -0.0431 -0.3041
 8093TIP3    H124243   1.739   3.962   5.563  1.4945 -1.0148 -0.6071
 8093TIP3    H224244   1.679   3.986   5.700  0.2923  0.9178 -1.4137
 8094TIP3   OH224245   1.789   5.083   4.696 -1.0650  0.2018  0.5459
 8094TIP3    H124246   1.695   5.066   4.686 -1.3311  1.2012  1.1814
 8094TIP3    H224247   1.830   4.997   4.686 -2.0951 -0.3455  0.8329
 8095TIP3   OH224248   0.762   4.296   4.480 -0.0097 -0.6877 -0.3249
 8095TIP3    H124249   0.830   4.268   4.540  1.7873 -0.1098 -1.9730
 8095TIP3    H224250   0.722   4.372   4.522 -0.5851 -1.8126  1.2520
 8096TIP3   OH224251   7.065   3.314   3.924 -0.1121 -0.6230 -1.1359
 8096TIP3    H124252   7.131   3.372   3.960 -1.1064  1.0155 -1.8408
 8096TIP3    H224253   6.981   3.351   3.953 -0.8032 -1.2667 -2.1961
 8097TIP3   OH224254   6.956   4.516   3.533 -0.1148  0.2155  0.4064
 8097TIP3    H124255   7.027   4.463   3.567 -0.6872  0.2973  1.7903
 8097TIP3    H224256   6.876   4.471   3.561 -0.6303  0.3440 -0.7667
 8098TIP3   OH224257   0.634   5.184   0.902  0.1708  0.2756 -0.4972
 8098TIP3    H124258   0.562   5.126   0.877 -0.0115  0.1937  0.1946
 8098TIP3    H224259   0.704   5.163   0.840  0.1502 -0.7844 -0.1807
 8099TIP3   OH224260   1.296   2.489   1.938 -0.3472 -0.0012  0.0534
 8099TIP3    H124261   1.300   2.396   1.961  1.7414  0.0377  0.0755
 8099TIP3    H224262   1.260   2.531   2.016  1.1146 -0.5384  1.0737
 8100TIP3   OH224263   6.059   3.999   1.341  0.1433 -0.2709 -0.3560
 8100TIP3    H124264   6.022   4.084   1.365  0.8502  0.3165 -1.2531
 8100TIP3    H224265   6.043   3.992   1.247  1.6390 -0.3046 -0.6385
 8101TIP3   OH224266   2.586   0.720   1.739 -0.2596 -0.0148 -0.5546
 8101TIP3    H124267   2.529   0.741   1.813 -0.4863 -1.0746 -0.4152
 8101TIP3    H224268   2.572   0.627   1.724 -1.1773  0.4331 -2.7662
 8102TIP3   OH224269   2.421   2.484   2.991 -0.3531  0.5540 -0.0451
 8102TIP3    H124270   2.451   2.412   2.934  1.2212  1.2411 -0.1343
 8102TIP3    H224271   2.429   2.449   3.080 -0.1841  0.4135 -0.1154
 8103TIP3   OH224272   4.994   0.808   4.588 -0.3264 -0.1198 -0.0494
 8103TIP3    H124273   4.933   0.824   4.660 -0.8188 -1.3543 -0.1593
 8103TIP3    H224274   4.946   0.751   4.528  0.2478  0.5163 -1.1310
 8104TIP3   OH224275   0.070   1.078   1.544 -0.1347 -0.2588  0.3579
 8104TIP3    H124276   0.101   1.024   1.617 -0.6134  0.3870  1.0598
 8104TIP3    H224277  -0.020   1.049   1.530 -0.8726  1.2433  1.6546
 8105TIP3   OH224278   1.988   0.526   3.530  0.3154  0.1297  0.2425
 8105TIP3    H124279   2.025   0.614   3.536  0.4270  0.1310 -0.3675
 8105TIP3    H224280   1.905   0.539   3.482  0.4347 -0.1232 -0.0341
 8106TIP3   OH224281   3.488   5.151   3.806  0.2394 -0.0838 -0.4870
 8106TIP3    H124282   3.516   5.061   3.822  0.3194  0.1243  0.6003
 8106TIP3    H224283   3.557   5.188   3.752  1.0085 -0.2119  0.3895
 8107TIP3   OH224284   2.520   3.171   1.638 -0.2121 -0.2001 -0.4396
 8107TIP3    H124285   2.554   3.101   1.694  1.6335  0.9444 -0.0327
 8107TIP3    H224286   2.438   3.136   1.603 -1.2961 -1.1243  2.6511
 8108TIP3   OH224287   2.240   5.253   4.018  0.0555  0.4830 -0.2104
 8108TIP3    H124288   2.324   5.207   4.022  0.2352  0.7462 -0.9507
 8108TIP3    H224289   2.190   5.216   4.091  0.5534 -0.1789 -0.1945
 8109TIP3   OH224290   6.889   1.296   2.173  0.6118 -0.3980 -0.9392
 8109TIP3    H124291   6.805   1.329   2.140  0.9280  0.9381 -0.4973
 8109TIP3    H224292   6.928   1.372   2.217  2.5325 -0.7047 -2.0491
 8110TIP3   OH224293   2.831   3.569   4.376 -0.3890  0.4199 -0.5707
 8110TIP3    H124294   2.825   3.615   4.292 -0.4857  0.4934 -0.5235
 8110TIP3    H224295   2.826   3.639   4.442  1.0377  0.5039 -0.5258
 8111TIP3   OH224296   5.473   2.773   0.449  0.7945 -0.1442  0.0439
 8111TIP3    H124297   5.387   2.731   0.449  0.1048  1.1987  0.4035
 8111TIP3    H224298   5.535   2.701   0.446 -0.3367 -1.1168 -2.2473
 8112TIP3   OH224299   4.765   3.061   0.674  0.3264 -0.4408  0.1969
 8112TIP3    H124300   4.718   3.132   0.630  3.4502  0.6757 -1.6679
 8112TIP3    H224301   4.775   3.090   0.764 -0.7543  0.2152  0.1165
 8113TIP3   OH224302   6.428   1.439   4.644  0.0329  0.3101  0.0077
 8113TIP3    H124303   6.352   1.486   4.608 -0.8539 -0.4683  0.8076
 8113TIP3    H224304   6.445   1.370   4.580 -0.6667 -0.2202  0.3874
 8114TIP3   OH224305   6.459   0.103   1.070 -0.3665  0.6518  0.7157
 8114TIP3    H124306   6.527   0.048   1.110 -0.4969  0.8801  1.2637
 8114TIP3    H224307   6.442   0.171   1.135 -2.1484 -0.2131  1.2229
 8115TIP3   OH224308   3.772   0.105   2.764 -0.2718 -0.4149 -0.0924
 8115TIP3    H124309   3.688   0.083   2.723  0.3823 -0.9163 -1.2003
 8115TIP3    H224310   3.829   0.031   2.742  0.3874 -0.2176  0.9039
 8116TIP3   OH224311   1.898   4.881   3.154 -0.2049  0.3860  0.3902
 8116TIP3    H124312   1.940   4.845   3.076  0.1188 -1.0477  1.1896
 8116TIP3    H224313   1.942   4.837   3.227 -2.1424 -0.1296  1.3088
 8117TIP3   OH224314   0.740   2.200   1.429 -0.1960  0.3969  0.2249
 8117TIP3    H124315   0.666   2.224   1.373  0.4138 -1.0906 -1.3507
 8117TIP3    H224316   0.715   2.115   1.465  1.0464 -0.5634 -1.0514
 8118TIP3   OH224317   7.134   5.030   3.907 -0.2059  0.4782 -0.1741
 8118TIP3    H124318   7.187   4.951   3.897  0.1093  0.3484  2.0404
 8118TIP3    H224319   7.048   5.006   3.872  0.1216 -0.5587 -0.3083
 8119TIP3   OH224320   6.724   1.089  -0.005 -0.6801  0.1297 -0.0419
 8119TIP3    H124321   6.800   1.121   0.044  0.5285 -0.9882 -1.0978
 8119TIP3    H224322   6.679   1.167  -0.035 -0.4038  0.8182  1.2767
 8120TIP3   OH224323   1.235   1.520   2.009  0.9555 -0.2412 -0.1291
 8120TIP3    H124324   1.168   1.540   2.074  1.2502 -0.8465  0.3627
 8120TIP3    H224325   1.190   1.531   1.925 -0.0947 -1.7670  0.1985
 8121TIP3   OH224326   1.568   3.187   5.822 -0.4347 -0.3907  0.0459
 8121TIP3    H124327   1.644   3.213   5.769  0.2012  2.5096  2.0959
 8121TIP3    H224328   1.521   3.269   5.838 -0.8481 -1.1359  3.4498
 8122TIP3   OH224329   4.388   3.246   1.390  0.0130 -0.4119 -0.0684
 8122TIP3    H124330   4.374   3.208   1.304 -1.4529 -0.0540 -0.0035
 8122TIP3    H224331   4.386   3.341   1.375  3.0032 -0.2361 -0.1296
 8123TIP3   OH224332   1.667   4.946   3.849  0.1825 -0.0793  0.0923
 8123TIP3    H124333   1.704   4.871   3.896  0.1879  0.9635  1.8468
 8123TIP3    H224334   1.704   4.940   3.761  0.7545 -1.7096  0.4076
 8124TIP3   OH224335   6.968   5.759   5.433 -0.0617  0.6454 -0.0214
 8124TIP3    H124336   7.050   5.807   5.445  0.3306 -0.0148 -0.0163
 8124TIP3    H224337   6.909   5.793   5.500  1.0361 -0.6882  1.6988
 8125TIP3   OH224338   6.423   4.977   3.468  0.2086 -0.6982 -0.5067
 8125TIP3    H124339   6.349   4.990   3.409  0.5578  0.0088 -0.8026
 8125TIP3    H224340   6.390   5.002   3.554  0.3102  0.4019 -0.7631
 8126TIP3   OH224341   7.158   2.095   2.116 -0.2475 -0.0643  0.7808
 8126TIP3    H124342   7.181   2.003   2.102 -0.7808  0.0153 -0.7785
 8126TIP3    H224343   7.107   2.095   2.196 -0.4954 -1.1716  0.6401
 8127TIP3   OH224344   0.988   5.742   5.505  0.4481  0.1087 -0.0552
 8127TIP3    H124345   0.912   5.722   5.450  0.7425  0.4684 -0.6021
 8127TIP3    H224346   0.951   5.790   5.580  0.1013  0.0219 -0.1695
 8128TIP3   OH224347   3.758   6.414   4.241 -0.2076  0.2737  0.2698
 8128TIP3    H124348   3.811   6.470   4.297  1.2870  0.2557 -1.0464
 8128TIP3    H224349   3.688   6.471   4.209  0.7319  1.1533 -0.2866
 8129TIP3   OH224350   3.220   4.625   1.829  0.7917  0.0253 -0.5141
 8129TIP3    H124351   3.164   4.549   1.812 -0.5377  0.4659  1.5516
 8129TIP3    H224352   3.178   4.697   1.781  0.1917  0.1179  0.1350
 8130TIP3   OH224353   5.329   6.021   0.761  0.0105  0.1470  0.4682
 8130TIP3    H124354   5.421   5.996   0.749  0.0869  0.3725  0.5809
 8130TIP3    H224355   5.309   6.077   0.686 -0.2006 -0.3574  0.1433
 8131TIP3   OH224356   1.294   3.079   1.360  0.3779 -0.2371  0.8923
 8131TIP3    H124357   1.273   3.118   1.275 -0.7010  0.0097  1.2546
 8131TIP3    H224358   1.385   3.052   1.352  0.3805  0.0513 -0.2424
 8132TIP3   OH224359   3.558   0.911   1.686  0.8705 -0.0206 -0.5450
 8132TIP3    H124360   3.516   0.829   1.713 -0.7585  0.2217 -2.1589
 8132TIP3    H224361   3.651   0.898   1.705  0.1834 -0.5263  3.3827
 8133TIP3   OH224362   1.394   1.628   2.297  0.1673 -0.1094  0.7572
 8133TIP3    H124363   1.340   1.685   2.351 -0.9680  1.2075 -1.6350
 8133TIP3    H224364   1.334   1.560   2.266  0.8232 -0.9067  1.1931
 8134TIP3   OH224365   2.683   1.824   0.931 -0.0543  0.2041  0.2920
 8134TIP3    H124366   2.694   1.747   0.875 -0.4472 -0.2688  0.8576
 8134TIP3    H224367   2.670   1.897   0.869 -2.6445 -0.6249 -0.2581
 8135TIP3   OH224368   0.050   5.558   2.289 -0.0866  0.1107 -0.0878
 8135TIP3    H124369   0.045   5.584   2.197 -1.7724 -0.0145 -0.0539
 8135TIP3    H224370   0.082   5.467   2.287 -0.7396 -0.1130 -0.5998
 8136TIP3   OH224371   7.182   2.290   2.534 -0.0699 -0.1589  0.5175
 8136TIP3    H124372   7.112   2.333   2.485  1.3766  1.0588 -0.5760
 8136TIP3    H224373   7.250   2.273   2.469  1.4181  0.4060  1.8445
 8137TIP3   OH224374   0.732   1.347   5.209  0.3194 -0.1463  0.0452
 8137TIP3    H124375   0.684   1.406   5.266  0.7134 -0.5834  0.8367
 8137TIP3    H224376   0.747   1.398   5.129  0.6154  0.8088  0.7025
 8138TIP3   OH224377   3.730   6.648   3.197  0.1532 -0.0905 -0.0984
 8138TIP3    H124378   3.766   6.724   3.152  0.3150 -0.0378  0.1178
 8138TIP3    H224379   3.663   6.683   3.255  0.3553 -0.0922  0.1360
 8139TIP3   OH224380   5.193   3.329   2.917 -0.3953 -0.6240  0.3367
 8139TIP3    H124381   5.256   3.391   2.951  0.5156 -1.7301  0.7359
 8139TIP3    H224382   5.149   3.295   2.995 -0.1370 -1.2572  0.2099
 8140TIP3   OH224383   0.613   1.791   4.971  0.3466  0.4067 -0.5553
 8140TIP3    H124384   0.536   1.734   4.981  0.3936  0.2020 -1.2942
 8140TIP3    H224385   0.587   1.853   4.903  0.6096  0.7315 -0.3578
 8141TIP3   OH224386   6.750   4.804   1.579 -0.7255  0.7625 -0.2941
 8141TIP3    H124387   6.752   4.899   1.566  2.1211  0.7123 -0.9672
 8141TIP3    H224388   6.835   4.784   1.619 -1.9954 -1.3328  1.5873
 8142TIP3   OH224389   4.844   2.378   5.848  0.0714 -0.5275  0.4027
 8142TIP3    H124390   4.837   2.473   5.847  1.8383 -0.2995 -1.8753
 8142TIP3    H224391   4.905   2.359   5.776  1.2756 -3.2577  1.9890
 8143TIP3   OH224392   4.365   5.879   5.516 -0.0064 -0.2031  0.1251
 8143TIP3    H124393   4.274   5.898   5.537  0.4170  0.8177  1.1269
 8143TIP3    H224394   4.409   5.964   5.521  1.4917 -1.0308  2.2391
 8144TIP3   OH224395   2.137   3.760   5.867 -0.3443 -0.0716 -0.0294
 8144TIP3    H124396   2.122   3.751   5.961 -0.0617 -0.2319  0.0025
 8144TIP3    H224397   2.071   3.823   5.838  0.0811  0.5823  0.4139
 8145TIP3   OH224398   4.804   0.649   1.656  0.0469  0.2477 -0.4338
 8145TIP3    H124399   4.805   0.729   1.709  0.0661 -1.0746  1.6739
 8145TIP3    H224400   4.884   0.655   1.603 -0.6679  2.2444 -1.4200
 8146TIP3   OH224401   5.248   6.782   5.805 -0.4319  0.2355  0.4634
 8146TIP3    H124402   5.213   6.871   5.809  0.1430  0.4544  0.8242
 8146TIP3    H224403   5.216   6.740   5.885 -0.3461  0.2549  0.5083
 8147TIP3   OH224404   5.694   2.264   5.762 -0.2663 -0.0242  0.3190
 8147TIP3    H124405   5.600   2.282   5.766 -0.9382 -3.0362  0.6145
 8147TIP3    H224406   5.716   2.271   5.669 -1.0418 -0.3170  0.1076
 8148TIP3   OH224407   6.622   1.950   4.506 -0.1503 -0.4267 -0.4342
 8148TIP3    H124408   6.628   1.858   4.480  0.2583 -1.1172  1.8286
 8148TIP3    H224409   6.672   1.954   4.588 -0.2531  1.8023 -0.4325
 8149TIP3   OH224410   0.307   6.002   4.784 -0.2338 -0.8236  0.4206
 8149TIP3    H124411   0.318   5.945   4.860  1.0015 -0.7909  0.2875
 8149TIP3    H224412   0.261   6.078   4.818 -0.8436 -1.3726  0.8537
 8150TIP3   OH224413   7.103   0.014   1.329 -0.3395 -0.5780  0.5027
 8150TIP3    H124414   7.027  -0.005   1.275  0.9954 -0.5452 -1.4994
 8150TIP3    H224415   7.156   0.073   1.276  1.4105 -1.1425  1.5304
 8151TIP3   OH224416   4.980   0.939   4.261  0.4526 -0.2703 -0.2757
 8151TIP3    H124417   4.902   0.896   4.295  0.6018  1.0223  1.8638
 8151TIP3    H224418   4.965   1.032   4.278  2.4901 -0.0089  0.2623
 8152TIP3   OH224419   3.339   4.925   0.358 -1.0268 -0.1657  0.4510
 8152TIP3    H124420   3.382   5.008   0.379  1.2921 -0.0403 -3.6634
 8152TIP3    H224421   3.250   4.950   0.334 -0.0557  1.4834 -1.8373
 8153TIP3   OH224422   1.347   3.972   1.500 -0.0553  0.4266 -0.1265
 8153TIP3    H124423   1.314   3.883   1.492  0.2043  0.2748  0.4904
 8153TIP3    H224424   1.275   4.027   1.469  0.4749 -0.0669 -2.4951
 8154TIP3   OH224425   1.845   4.092   2.846 -0.2509 -0.4160  0.0971
 8154TIP3    H124426   1.891   4.176   2.844 -0.6840 -0.1756  0.1436
 8154TIP3    H224427   1.764   4.108   2.798 -0.5699 -0.6647  0.5431
 8155TIP3   OH224428   1.353   0.680   2.280 -0.1674  0.4116  0.1802
 8155TIP3    H124429   1.311   0.611   2.227  1.3471 -1.1077  0.8964
 8155TIP3    H224430   1.281   0.718   2.330 -1.0579 -0.6194 -0.2710
 8156TIP3   OH224431   2.250   2.305   5.837  0.2489 -0.3636 -0.3154
 8156TIP3    H124432   2.315   2.371   5.815  0.3794  0.0829  1.2863
 8156TIP3    H224433   2.195   2.346   5.904 -1.1970 -1.0162 -1.0572
 8157TIP3   OH224434   7.192   0.240   1.645 -0.0624  0.5050 -0.2100
 8157TIP3    H124435   7.122   0.273   1.701 -0.6027 -0.4266 -0.3140
 8157TIP3    H224436   7.159   0.157   1.611  0.5103  0.7522 -1.4278
 8158TIP3   OH224437   3.340   0.846   2.674  0.4248 -0.4929  0.5195
 8158TIP3    H124438   3.302   0.770   2.718  1.9640 -1.0388  0.9709
 8158TIP3    H224439   3.345   0.820   2.582 -0.1035 -0.4899  0.4876
 8159TIP3   OH224440   5.889   6.525   4.188  0.2020 -0.8285  1.0673
 8159TIP3    H124441   5.983   6.514   4.202  0.4616 -0.5762 -0.3776
 8159TIP3    H224442   5.882   6.588   4.117 -1.0333 -1.7020  0.3736
 8160TIP3   OH224443   4.613   3.689   3.504 -0.5900  0.0144  0.2024
 8160TIP3    H124444   4.643   3.685   3.413  1.1801 -1.0059  0.7861
 8160TIP3    H224445   4.683   3.734   3.551 -2.8526  3.5503  0.6355
 8161TIP3   OH224446   1.071   5.552   3.718 -0.9120  0.3900  0.2006
 8161TIP3    H124447   0.983   5.544   3.681 -2.2790  1.3005  2.9532
 8161TIP3    H224448   1.102   5.462   3.724 -0.3728  0.1979 -3.3744
 8162TIP3   OH224449   5.097   0.492   5.364  0.3557 -0.1596 -0.1408
 8162TIP3    H124450   5.147   0.492   5.283 -1.5378 -0.5364 -1.3655
 8162TIP3    H224451   5.082   0.400   5.383 -0.7815 -0.0451 -0.4072
 8163TIP3   OH224452   4.648   5.586   4.111  0.3431 -0.0593 -0.2030
 8163TIP3    H124453   4.566   5.558   4.070  0.0178  0.2819  0.2036
 8163TIP3    H224454   4.685   5.650   4.050  0.2224 -0.0867 -0.3051
 8164TIP3   OH224455   0.050   5.108   3.383  0.6763 -0.4129  0.3348
 8164TIP3    H124456  -0.006   5.086   3.308 -0.0569  0.6632  0.5409
 8164TIP3    H224457   0.047   5.030   3.438 -0.8402 -0.3066  0.4483
 8165TIP3   OH224458   1.148   1.354   1.545 -0.2821 -0.3905  0.3548
 8165TIP3    H124459   1.066   1.401   1.563 -0.2903 -0.7783  1.4273
 8165TIP3    H224460   1.135   1.316   1.458 -0.9638  0.1268  0.2169
 8166TIP3   OH224461   2.923   1.183   2.694 -0.0174 -0.3154 -0.6757
 8166TIP3    H124462   2.971   1.100   2.695 -1.5103 -1.4080  3.9258
 8166TIP3    H224463   2.951   1.228   2.773 -1.4735  2.2299 -1.4899
 8167TIP3   OH224464   2.499   0.892   1.519  0.1272 -0.4713  0.1824
 8167TIP3    H124465   2.496   0.841   1.438  1.6765  0.3455 -0.4378
 8167TIP3    H224466   2.533   0.831   1.585 -0.1029 -0.8377 -0.0358
 8168TIP3   OH224467   3.349   2.857   1.175 -0.2451  0.4651  0.9912
 8168TIP3    H124468   3.300   2.864   1.094  0.0029  1.7169  0.9171
 8168TIP3    H224469   3.440   2.845   1.147 -0.3831 -0.9813  1.1169
 8169TIP3   OH224470   0.315   3.727   0.019  0.1662  0.3286 -0.3490
 8169TIP3    H124471   0.314   3.763   0.108 -2.1682  1.5125 -0.7715
 8169TIP3    H224472   0.359   3.794  -0.034  2.7877 -0.9570  0.0261
 8170TIP3   OH224473   5.164   3.690   5.658 -0.0253 -0.2224  0.2395
 8170TIP3    H124474   5.102   3.626   5.624 -0.2487 -0.4743  1.1032
 8170TIP3    H224475   5.238   3.638   5.690 -0.0057 -0.0260  0.5249
 8171TIP3   OH224476   2.383   2.840   4.857  0.1738  0.2833  0.7367
 8171TIP3    H124477   2.301   2.806   4.892  0.4721 -0.3059  0.8853
 8171TIP3    H224478   2.357   2.913   4.801 -0.4300  0.2414  0.9565
 8172TIP3   OH224479   5.274   5.040   5.587  0.3577  0.3399  0.4614
 8172TIP3    H124480   5.357   5.072   5.554  0.3719  0.3556  0.5119
 8172TIP3    H224481   5.280   5.051   5.682  0.6702 -0.5390  0.5515
 8173TIP3   OH224482   0.930   0.210   0.609 -0.7582 -0.2305 -0.4287
 8173TIP3    H124483   0.893   0.126   0.635 -0.8766 -0.1480 -0.3341
 8173TIP3    H224484   0.915   0.215   0.515  0.2862 -0.8436 -0.6459
 8174TIP3   OH224485   5.706   0.068   3.451  0.0792  0.0172  0.2511
 8174TIP3    H124486   5.799   0.046   3.437  0.3530  0.4605  1.3031
 8174TIP3    H224487   5.708   0.155   3.492 -0.7564 -0.4421  1.2847
 8175TIP3   OH224488   7.172   2.672   1.140  0.1664  0.9717  0.6993
 8175TIP3    H124489   7.192   2.709   1.054  2.5478 -0.4614  0.5382
 8175TIP3    H224490   7.241   2.707   1.197  1.3856 -1.6171  0.9407
 8176TIP3   OH224491   1.001   1.367   2.398 -0.5580 -0.0837 -0.2478
 8176TIP3    H124492   0.998   1.280   2.438 -0.0216 -0.3909 -0.8447
 8176TIP3    H224493   1.004   1.427   2.472  1.4050 -0.6757  0.2263
 8177TIP3   OH224494   6.557   5.241   0.166  1.1158 -0.3146 -0.5092
 8177TIP3    H124495   6.519   5.196   0.242 -1.3358  1.9304 -0.2652
 8177TIP3    H224496   6.572   5.171   0.102 -1.1187 -1.7118  0.3660
 8178TIP3   OH224497   4.782   5.585   5.460  0.5497 -0.0869  1.0179
 8178TIP3    H124498   4.874   5.590   5.435  0.9723 -0.3606  2.4260
 8178TIP3    H224499   4.767   5.667   5.508  0.8344 -1.2164  3.1396
 8179TIP3   OH224500   3.571   6.033   5.280 -0.0943  0.4088  0.2790
 8179TIP3    H124501   3.551   6.022   5.187 -0.9399  0.6839  0.4166
 8179TIP3    H224502   3.551   5.948   5.319  1.9612 -0.2769 -0.0447
 8180TIP3   OH224503   6.235   6.669   3.574  0.2717 -0.9361  0.7528
 8180TIP3    H124504   6.204   6.738   3.632  2.0537 -0.3885  1.1131
 8180TIP3    H224505   6.248   6.593   3.632  1.2969 -0.6201  0.9648
 8181TIP3   OH224506   4.446   2.640   0.303  0.4215  0.5418  0.6557
 8181TIP3    H124507   4.510   2.707   0.277 -0.1303  2.0643  2.9512
 8181TIP3    H224508   4.489   2.592   0.374 -0.4463  0.7262  1.3287
 8182TIP3   OH224509   3.908   4.597   0.288 -0.0062  0.3120 -0.3466
 8182TIP3    H124510   3.900   4.579   0.194  1.8552  0.0846 -0.5093
 8182TIP3    H224511   3.890   4.691   0.296 -1.8581  0.0239 -0.6508
 8183TIP3   OH224512   0.863   1.979   5.447 -0.4216  0.3583  0.0999
 8183TIP3    H124513   0.955   2.004   5.446 -0.5366  0.8056  0.0413
 8183TIP3    H224514   0.858   1.901   5.392  0.2558 -0.9684  1.8505
 8184TIP3   OH224515   1.399   2.659   4.153  0.3322  0.2618 -0.1679
 8184TIP3    H124516   1.469   2.643   4.216  0.1299 -1.6109 -0.3390
 8184TIP3    H224517   1.439   2.712   4.084  1.1687  0.4368  0.4416
 8185TIP3   OH224518   6.343   5.344   3.398  0.8380  0.3077  0.3375
 8185TIP3    H124519   6.391   5.377   3.322  1.8840  1.1534  1.3192
 8185TIP3    H224520   6.337   5.250   3.383 -0.7973  0.6702 -1.7618
 8186TIP3   OH224521   4.518   5.686   0.611 -0.1128  0.8856  0.1471
 8186TIP3    H124522   4.433   5.704   0.572 -0.3778  0.7811  0.6649
 8186TIP3    H224523   4.500   5.623   0.681  0.6368 -0.4882 -0.8528
 8187TIP3   OH224524   1.073   1.313   0.523  0.4216 -0.1399  0.1825
 8187TIP3    H124525   1.050   1.382   0.461 -1.4620 -1.0897 -0.2581
 8187TIP3    H224526   1.058   1.232   0.474  2.3701 -0.8841  0.7548
 8188TIP3   OH224527   6.917   3.859   3.170  0.3193 -0.1419 -0.2194
 8188TIP3    H124528   7.009   3.872   3.193  0.4251 -1.9841  0.5874
 8188TIP3    H224529   6.869   3.885   3.248  0.0982  1.1646 -0.7653
 8189TIP3   OH224530   3.127   4.831   2.818  0.8615  0.2911  0.2625
 8189TIP3    H124531   3.129   4.879   2.735  1.0964 -0.3447 -0.1095
 8189TIP3    H224532   3.219   4.816   2.839  1.0217  3.4855  2.4744
 8190TIP3   OH224533   1.986   1.908   1.845 -0.1154  0.0824 -0.6516
 8190TIP3    H124534   2.052   1.850   1.808 -0.4163  0.2605 -1.4771
 8190TIP3    H224535   1.904   1.881   1.805 -0.3761  0.5909 -0.4732
 8191TIP3   OH224536   0.709   5.472   0.203 -0.0609 -0.4946 -0.1379
 8191TIP3    H124537   0.635   5.443   0.257  1.5069 -0.4546  2.1782
 8191TIP3    H224538   0.731   5.395   0.150 -2.0743 -0.3183 -1.3304
 8192TIP3   OH224539   4.443   6.767   3.666  0.1955 -0.1450 -0.7482
 8192TIP3    H124540   4.349   6.753   3.681  0.2162 -1.5111 -1.7305
 8192TIP3    H224541   4.484   6.746   3.750 -0.3281 -0.1609 -0.4930
 8193TIP3   OH224542   2.973   0.119   2.539 -0.4146 -0.2748  0.6212
 8193TIP3    H124543   2.900   0.156   2.589 -0.4696 -0.4677  0.6848
 8193TIP3    H224544   3.041   0.186   2.542 -1.0144  0.4132 -0.4363
 8194TIP3   OH224545   6.877   2.003   5.529 -0.1746 -0.2456  0.2250
 8194TIP3    H124546   6.802   2.062   5.533 -1.5706 -1.8836 -0.3039
 8194TIP3    H224547   6.902   1.989   5.620 -1.6412 -1.0186  0.5295
 8195TIP3   OH224548   0.417   2.621   1.691 -0.1209 -0.3508 -0.5085
 8195TIP3    H124549   0.360   2.695   1.714  1.0425  0.1071  1.1451
 8195TIP3    H224550   0.359   2.558   1.649 -1.6908  0.4243  0.3787
 8196TIP3   OH224551   6.769   4.902   1.918  0.2583 -0.3649  0.0368
 8196TIP3    H124552   6.846   4.854   1.948 -0.0161 -0.3727  0.7701
 8196TIP3    H224553   6.697   4.840   1.926  0.0953 -0.1997 -0.1456
 8197TIP3   OH224554   2.924   5.511   0.449  0.2185  0.4218  0.4626
 8197TIP3    H124555   2.920   5.444   0.517  1.1600  1.8476  1.9890
 8197TIP3    H224556   2.853   5.572   0.471  0.1812  0.6030 -0.1534
 8198TIP3   OH224557   3.946   0.177   4.795  0.6243  0.1737 -0.5027
 8198TIP3    H124558   3.915   0.254   4.844 -0.6906  0.0406 -1.1034
 8198TIP3    H224559   3.941   0.204   4.703 -1.8523 -1.2981 -0.8693
 8199TIP3   OH224560   1.121   0.449   5.779 -0.2227  0.0063  0.0586
 8199TIP3    H124561   1.126   0.400   5.697  0.4936 -1.1580  0.7743
 8199TIP3    H224562   1.170   0.529   5.763  0.7539 -0.6629 -0.3427
 8200TIP3   OH224563   3.201   4.946   2.180  0.1233 -0.2682  0.1005
 8200TIP3    H124564   3.264   5.017   2.191  0.4100  0.2669 -3.6751
 8200TIP3    H224565   3.254   4.866   2.184  0.6274  0.0309 -0.4410
 8201TIP3   OH224566   2.324   5.402   3.670  0.3805 -0.2987  0.3287
 8201TIP3    H124567   2.310   5.495   3.657  2.8870  0.2827  1.1082
 8201TIP3    H224568   2.269   5.379   3.745  0.5993  0.8609  0.8654
 8202TIP3   OH224569   1.762   1.780   4.693  0.2033  0.2044  0.5867
 8202TIP3    H124570   1.737   1.804   4.603 -1.8282 -0.3008  0.9505
 8202TIP3    H224571   1.817   1.702   4.683  0.4101  0.4472 -0.2382
 8203TIP3   OH224572   4.460   1.208   1.106  0.0880  0.5227  0.1244
 8203TIP3    H124573   4.434   1.296   1.136  2.3329  1.3111 -0.0447
 8203TIP3    H224574   4.504   1.170   1.182 -0.2145 -0.1766 -0.0490
 8204TIP3   OH224575   5.668   0.606   3.480 -0.1089 -0.2665  0.0373
 8204TIP3    H124576   5.704   0.665   3.414 -0.5858 -2.0100 -1.8721
 8204TIP3    H224577   5.728   0.615   3.555  0.6537  1.4947 -0.7219
 8205TIP3   OH224578   1.475   1.152   4.449  0.3942  0.0294 -0.1500
 8205TIP3    H124579   1.561   1.155   4.491  0.3573 -0.9426  0.0167
 8205TIP3    H224580   1.416   1.127   4.520 -0.4239  2.8588  0.3045
 8206TIP3   OH224581   4.203   5.097   1.651 -0.0046 -0.1124 -0.5255
 8206TIP3    H124582   4.261   5.099   1.728  1.4513 -1.2117 -1.5335
 8206TIP3    H224583   4.192   5.189   1.627 -0.5365  0.2587  1.0124
 8207TIP3   OH224584   4.738   0.417   4.692  0.3196  0.5943  0.1410
 8207TIP3    H124585   4.816   0.379   4.734  0.5237 -0.0312 -0.7828
 8207TIP3    H224586   4.679   0.342   4.678  0.1738  0.8241 -0.5077
 8208TIP3   OH224587   3.430   2.666   2.575 -0.6072 -0.4515  0.0045
 8208TIP3    H124588   3.356   2.627   2.529  0.6447  0.2853 -2.8295
 8208TIP3    H224589   3.502   2.665   2.512  1.3042  0.5519  2.0052
 8209TIP3   OH224590   5.915   0.669   5.578  0.7327 -0.0378  0.5763
 8209TIP3    H124591   5.860   0.591   5.582  0.4853 -0.0179 -1.4823
 8209TIP3    H224592   5.988   0.644   5.521  0.7469  1.1805  0.0401
 8210TIP3   OH224593   0.220   1.018   4.790  0.7498  0.0126 -0.8635
 8210TIP3    H124594   0.216   1.113   4.802 -1.3026  0.1747 -2.1962
 8210TIP3    H224595   0.311   0.995   4.810  1.0377  2.0747  0.5619
 8211TIP3   OH224596   5.404   5.891   1.824 -0.3142 -0.2392 -0.3008
 8211TIP3    H124597   5.429   5.850   1.907 -1.2116  0.7619  0.4933
 8211TIP3    H224598   5.438   5.832   1.757  1.2777 -0.5781  0.7556
 8212TIP3   OH224599   0.973   3.887   4.506 -0.4126  0.5643  0.3798
 8212TIP3    H124600   1.026   3.899   4.428 -0.1383 -1.2620  0.2440
 8212TIP3    H224601   0.913   3.816   4.483  0.9840 -1.3892  2.4468
 8213TIP3   OH224602   7.200   6.779   5.533 -0.4150 -0.3695 -1.0803
 8213TIP3    H124603   7.152   6.757   5.453 -0.8560 -2.1066 -0.3918
 8213TIP3    H224604   7.281   6.728   5.528 -0.4176 -0.4482 -0.4623
 8214TIP3   OH224605   3.664   1.016   2.156  0.4108 -1.0082  0.3716
 8214TIP3    H124606   3.614   0.994   2.077 -0.7143  1.1914  0.3809
 8214TIP3    H224607   3.612   0.983   2.228  0.4877 -1.3353  0.2809
 8215TIP3   OH224608   3.668   1.512   2.753 -0.1806  0.2414  0.0819
 8215TIP3    H124609   3.619   1.483   2.676  1.0941  1.3777 -1.2423
 8215TIP3    H224610   3.660   1.440   2.816 -2.7171  0.0138 -0.4014
 8216TIP3   OH224611   4.819   4.275   5.783 -0.3909 -0.5172 -0.2487
 8216TIP3    H124612   4.850   4.360   5.814  2.3028 -1.0273 -1.2395
 8216TIP3    H224613   4.889   4.214   5.808 -1.6104 -2.2026 -0.7783
 8217TIP3   OH224614   5.731   5.940   1.750  0.1245 -0.3004  0.0996
 8217TIP3    H124615   5.825   5.953   1.760 -0.0418 -0.0054  1.5213
 8217TIP3    H224616   5.705   6.000   1.681  1.0400 -0.7146 -0.6306
 8218TIP3   OH224617   1.602   5.542   2.364  0.2371  0.0403 -0.1255
 8218TIP3    H124618   1.697   5.534   2.375  0.3198  1.2411  0.1201
 8218TIP3    H224619   1.567   5.528   2.452  0.1435 -0.8721 -0.3000
 8219TIP3   OH224620   6.780   0.551   2.925 -0.7257  0.4668 -0.1355
 8219TIP3    H124621   6.790   0.501   3.006  1.5623  1.8265  0.5160
 8219TIP3    H224622   6.778   0.484   2.856 -1.0207 -0.6390  0.9222
 8220TIP3   OH224623   1.538   5.089   5.017 -0.4963  0.8314  0.5760
 8220TIP3    H124624   1.498   5.101   5.103  1.8366 -2.5441  2.3881
 8220TIP3    H224625   1.473   5.041   4.967 -1.1373  1.0499  1.1827
 8221TIP3   OH224626   4.843   4.235   3.184 -0.3525 -0.1312 -0.2589
 8221TIP3    H124627   4.784   4.248   3.258  0.3170 -0.2320  0.3022
 8221TIP3    H224628   4.924   4.278   3.210 -1.0667  2.7974 -2.2732
 8222TIP3   OH224629   6.999   5.525   2.726 -0.4348 -0.4662 -0.0003
 8222TIP3    H124630   7.094   5.533   2.734 -0.3251 -0.2724 -1.3499
 8222TIP3    H224631   6.972   5.604   2.679 -1.3303 -0.3179  0.7254
 8223TIP3   OH224632   4.488   0.816   4.170 -0.2868  0.4496  0.0615
 8223TIP3    H124633   4.552   0.860   4.114 -1.5653  1.7286 -0.4911
 8223TIP3    H224634   4.406   0.863   4.152 -1.3048 -0.9200  0.9666
 8224TIP3   OH224635   6.163   0.380   4.464 -0.4417  0.3214  0.4603
 8224TIP3    H124636   6.069   0.376   4.446 -0.3699  1.1299 -0.1695
 8224TIP3    H224637   6.202   0.408   4.381  0.3861 -0.2569  0.6481
 8225TIP3   OH224638   6.479   2.365   5.404  0.4230  0.0967  0.2902
 8225TIP3    H124639   6.499   2.458   5.412 -0.0289  0.7382 -3.8844
 8225TIP3    H224640   6.385   2.359   5.416  0.3988  0.2398  0.1651
 8226TIP3   OH224641   1.273   0.337   3.174 -0.1921 -0.7580  0.0048
 8226TIP3    H124642   1.250   0.394   3.247 -2.2128 -0.1696 -1.0220
 8226TIP3    H224643   1.334   0.273   3.212  0.4116  0.7339  1.6901
 8227TIP3   OH224644   3.733   2.526   2.713  0.1577  0.2529 -0.0970
 8227TIP3    H124645   3.689   2.502   2.631  0.4778  0.2373 -0.2653
 8227TIP3    H224646   3.685   2.478   2.780 -0.1396  0.3055 -0.2690
 8228TIP3   OH224647   4.057   0.576   1.255 -0.2554 -0.4607 -0.3718
 8228TIP3    H124648   4.121   0.505   1.258 -1.4738 -1.5658  0.0036
 8228TIP3    H224649   4.104   0.652   1.290  0.9096 -1.1894 -0.3076
 8229TIP3   OH224650   4.012   5.964   3.988 -0.2125  0.0338 -0.3584
 8229TIP3    H124651   4.074   6.031   4.015  0.6435 -0.8191 -0.1502
 8229TIP3    H224652   4.020   5.895   4.054  3.3242 -2.9828 -3.4525
 8230TIP3   OH224653   1.243   1.891   5.164 -0.0591 -0.0383  0.0841
 8230TIP3    H124654   1.212   1.927   5.247 -0.7277  1.5629 -0.8074
 8230TIP3    H224655   1.311   1.828   5.189 -0.2018  0.4461  1.8312
 8231TIP3   OH224656   4.086   1.601   0.134 -0.2675  0.3617  0.4244
 8231TIP3    H124657   4.177   1.575   0.119 -0.5696 -0.0551 -0.7912
 8231TIP3    H224658   4.048   1.528   0.183 -0.4065 -0.3047 -0.6446
 8232TIP3   OH224659   0.773   4.013   1.144  0.4191 -0.0770 -0.3372
 8232TIP3    H124660   0.811   4.038   1.060  0.0973  0.6917 -0.2626
 8232TIP3    H224661   0.724   3.933   1.125  0.0165  0.3081 -0.9755
 8233TIP3   OH224662   5.401   3.591   5.780 -0.1510 -0.4232 -0.1516
 8233TIP3    H124663   5.436   3.562   5.696  0.5888  1.6893 -0.6346
 8233TIP3    H224664   5.458   3.550   5.846 -0.0773 -1.2321 -0.7038
 8234TIP3   OH224665   2.214   4.174   4.223  0.2195 -0.7931 -0.3464
 8234TIP3    H124666   2.157   4.105   4.188 -0.7628 -1.1062  1.7361
 8234TIP3    H224667   2.155   4.231   4.271  1.3476  0.2770 -0.1939
 8235TIP3   OH224668   5.957   2.758   4.043  1.0229  0.0368  0.1141
 8235TIP3    H124669   5.916   2.785   3.961  0.2916 -0.2653  0.3634
 8235TIP3    H224670   6.005   2.835   4.073 -0.3898  0.8396  0.4324
 8236TIP3   OH224671   6.824   1.716   1.005  0.0478 -0.6437  0.3260
 8236TIP3    H124672   6.806   1.715   0.912 -0.3994 -1.5871  0.4070
 8236TIP3    H224673   6.872   1.798   1.020  0.9264 -0.9094 -0.8753
 8237TIP3   OH224674   5.201   6.698   5.334  0.4701  0.0210  0.1226
 8237TIP3    H124675   5.216   6.747   5.415 -1.1595 -0.1097  0.5265
 8237TIP3    H224676   5.145   6.754   5.281 -1.6009 -1.3931  0.6733
 8238TIP3   OH224677   2.116   0.210   1.961  0.0008 -0.3330 -0.1496
 8238TIP3    H124678   2.021   0.202   1.951 -0.3896  2.1872  0.6557
 8238TIP3    H224679   2.129   0.228   2.054  1.1385  0.5038 -0.4449
 8239TIP3   OH224680   2.655   2.415   3.919  0.1101 -0.0893  0.3812
 8239TIP3    H124681   2.572   2.368   3.908 -0.0092  0.1549  0.2224
 8239TIP3    H224682   2.646   2.492   3.863  0.4136 -0.0202  0.4266
 8240TIP3   OH224683   5.653   3.845   0.232  0.3378  1.1057  0.8456
 8240TIP3    H124684   5.603   3.871   0.155 -0.5095 -0.8153  0.6827
 8240TIP3    H224685   5.586   3.832   0.300  1.0233  2.2739  1.7992
 8241TIP3   OH224686   1.100   6.672   4.268 -0.6243 -0.7252  0.0180
 8241TIP3    H124687   1.152   6.594   4.247  1.2084  0.3639  0.3047
 8241TIP3    H224688   1.080   6.711   4.183  4.2264  2.0342 -0.2432
 8242TIP3   OH224689   3.781   4.961   3.698 -0.2597  0.0734 -0.4975
 8242TIP3    H124690   3.697   4.926   3.728  0.3230 -0.6266  0.3888
 8242TIP3    H224691   3.825   4.988   3.778  0.7808 -0.5339 -0.8507
 8243TIP3   OH224692   4.656   1.803   2.789 -0.0230  0.0362  0.3804
 8243TIP3    H124693   4.663   1.769   2.879  0.7974  0.1954  0.3875
 8243TIP3    H224694   4.562   1.804   2.771 -0.1376 -1.3026  0.7422
 8244TIP3   OH224695   6.988   5.265   5.824  0.8539  0.5521  0.0795
 8244TIP3    H124696   6.999   5.195   5.759  0.1507  1.0280 -0.5748
 8244TIP3    H224697   7.016   5.345   5.778 -1.3847  1.1890 -0.3237
 8245TIP3   OH224698   5.943   3.529   4.657 -0.0649 -0.4160  0.0204
 8245TIP3    H124699   5.869   3.513   4.714 -0.3731  0.2000 -0.1913
 8245TIP3    H224700   5.976   3.442   4.634 -0.0193 -0.6757  1.0118
 8246TIP3   OH224701   0.914   1.771   1.619  0.1586 -0.1027 -0.1397
 8246TIP3    H124702   0.842   1.809   1.568  1.3128  0.9114 -1.0729
 8246TIP3    H224703   0.944   1.697   1.567  1.5938  1.1668 -1.2034
 8247TIP3   OH224704   2.251   0.304   4.162  0.1657  0.0319  0.5306
 8247TIP3    H124705   2.236   0.363   4.236  0.2710  0.8335 -0.0721
 8247TIP3    H224706   2.344   0.282   4.166  0.6978  1.8713 -0.6332
 8248TIP3   OH224707   2.908   1.252   1.544 -0.2787  0.0035  0.3327
 8248TIP3    H124708   2.994   1.273   1.507 -0.8395  0.9028 -0.5151
 8248TIP3    H224709   2.892   1.162   1.517 -0.1572  0.2613 -0.6354
 8249TIP3   OH224710   6.126   0.055   5.136  0.1037  0.0596  0.1458
 8249TIP3    H124711   6.100   0.037   5.045 -2.3275  1.0195  0.5664
 8249TIP3    H224712   6.192  -0.011   5.156  0.7745 -0.1317 -2.3336
 8250TIP3   OH224713   5.280   0.829   3.962 -0.4670 -0.5118 -0.0322
 8250TIP3    H124714   5.206   0.855   4.016  1.1246  0.2463  1.9086
 8250TIP3    H224715   5.338   0.905   3.964  0.6811 -1.3334 -0.9135
 8251TIP3   OH224716   6.647   5.819   4.617  0.5038 -0.1223  0.1278
 8251TIP3    H124717   6.618   5.851   4.531  2.3888  0.0806 -0.4777
 8251TIP3    H224718   6.650   5.897   4.672 -1.8058 -0.4060  0.7870
 8252TIP3   OH224719   6.965   4.054   2.469 -0.1916  0.6097 -0.7637
 8252TIP3    H124720   6.955   4.149   2.474  0.4688  0.6505  0.0579
 8252TIP3    H224721   7.059   4.039   2.479 -0.2689 -0.1185 -1.0519
 8253TIP3   OH224722   6.901   5.034   3.669  0.0875 -0.0033 -0.0047
 8253TIP3    H124723   6.867   5.035   3.580 -1.7969 -0.1071  0.6582
 8253TIP3    H224724   6.930   4.944   3.683 -2.4835 -0.8417  0.4377
 8254TIP3   OH224725   1.221   5.337   4.684 -0.2866  0.7963  0.0464
 8254TIP3    H124726   1.235   5.245   4.660 -1.6038  0.0259  2.0159
 8254TIP3    H224727   1.142   5.362   4.636 -2.0625 -0.2931  2.2244
 8255TIP3   OH224728   5.318   5.562   4.497  0.2135 -0.2364  0.0753
 8255TIP3    H124729   5.228   5.542   4.471  0.4925 -0.2381 -0.9223
 8255TIP3    H224730   5.351   5.480   4.533  0.1207 -0.4942 -0.4298
 8256TIP3   OH224731   3.268   3.083   5.342  0.3255  0.5192 -0.2202
 8256TIP3    H124732   3.271   3.152   5.275 -0.1509  0.3576 -0.4127
 8256TIP3    H224733   3.195   3.108   5.399 -0.0470  0.0124 -0.4703
 8257TIP3   OH224734   2.051   4.379   1.869  0.6479 -0.2284  0.7868
 8257TIP3    H124735   2.035   4.462   1.825  1.3088 -0.9521 -0.8828
 8257TIP3    H224736   2.127   4.342   1.825  0.0195 -1.9875  1.0902
 8258TIP3   OH224737   1.715   1.539   4.265 -0.1676 -0.4100 -0.5514
 8258TIP3    H124738   1.772   1.615   4.279  0.1084 -0.4059 -1.5712
 8258TIP3    H224739   1.748   1.472   4.324 -0.2322  0.1713  0.1510
 8259TIP3   OH224740   4.210   4.862   0.346  0.0205  0.5060 -0.2816
 8259TIP3    H124741   4.173   4.845   0.433  0.1388 -0.7580 -0.4522
 8259TIP3    H224742   4.250   4.949   0.353  1.8873 -0.4162  1.6026
 8260TIP3   OH224743   3.589   0.571   0.768  0.1701 -0.2534 -0.7844
 8260TIP3    H124744   3.536   0.646   0.797 -1.6269 -1.0853 -1.7372
 8260TIP3    H224745   3.631   0.539   0.848 -2.4204 -0.7784  0.4681
 8261TIP3   OH224746   4.556   0.107   5.913  0.1240  0.2755  0.1781
 8261TIP3    H124747   4.549   0.012   5.899  2.2578  0.1083 -0.0137
 8261TIP3    H224748   4.512   0.146   5.837  0.6989 -0.5799 -0.6091
 8262TIP3   OH224749   6.934   2.421   0.120  0.7062  0.8771  0.3499
 8262TIP3    H124750   6.952   2.342   0.070  0.1457  0.8920  0.1268
 8262TIP3    H224751   6.921   2.489   0.054  1.1361  1.1481  0.5389
 8263TIP3   OH224752   0.486   6.244   1.209 -0.5456  0.4480 -0.8793
 8263TIP3    H124753   0.463   6.321   1.261 -1.9096 -0.5608  0.0858
 8263TIP3    H224754   0.559   6.204   1.256 -0.2818  0.7752 -1.0078
 8264TIP3   OH224755   5.346   1.117   3.754  0.1280 -0.3278 -0.1121
 8264TIP3    H124756   5.419   1.140   3.811 -1.1270  2.6412  0.4736
 8264TIP3    H224757   5.381   1.128   3.665  0.7374 -0.1684  0.1408
 8265TIP3   OH224758   0.639   6.188   0.378 -0.0364  0.0645  0.2309
 8265TIP3    H124759   0.562   6.240   0.398  0.1963 -0.0546  1.5240
 8265TIP3    H224760   0.639   6.180   0.283 -2.8748 -1.8023  0.2624
 8266TIP3   OH224761   1.458   2.341   4.633 -0.1374  0.3585 -0.6823
 8266TIP3    H124762   1.548   2.314   4.650 -0.1904 -0.1634 -1.1930
 8266TIP3    H224763   1.458   2.369   4.541 -0.4757  0.4475 -0.6590
 8267TIP3   OH224764   4.570   6.015   3.241  0.7879  0.7472  0.7662
 8267TIP3    H124765   4.639   6.070   3.280  1.6561 -0.0053  0.3422
 8267TIP3    H224766   4.596   5.926   3.264  1.7466  0.1866 -2.0975
 8268TIP3   OH224767   0.999   6.091   0.852  0.0624 -0.3638 -0.2642
 8268TIP3    H124768   0.974   5.998   0.855  0.4593 -0.4493  0.9512
 8268TIP3    H224769   0.920   6.137   0.882  0.5179 -0.4760  1.2127
 8269TIP3   OH224770   5.008   6.533   4.262 -0.3196 -0.0165 -0.1787
 8269TIP3    H124771   5.099   6.548   4.236  0.1502  1.5886  2.1147
 8269TIP3    H224772   4.982   6.454   4.214  1.7998  0.2580 -1.9650
 8270TIP3   OH224773   5.410   4.338   1.931 -0.0921 -0.1572 -0.9476
 8270TIP3    H124774   5.486   4.363   1.983 -1.5652  3.3291 -0.2145
 8270TIP3    H224775   5.444   4.332   1.842  0.9070  2.8213 -0.8911
 8271TIP3   OH224776   5.878   3.230   1.445  0.0053  0.4325  0.3766
 8271TIP3    H124777   5.870   3.249   1.351 -0.3270  0.8994  0.4951
 8271TIP3    H224778   5.966   3.259   1.467  0.8589 -1.5189 -0.1983
 8272TIP3   OH224779   0.995   3.245   2.621  0.2929 -0.5837 -0.2259
 8272TIP3    H124780   0.926   3.180   2.632 -1.6956  1.3771 -0.5276
 8272TIP3    H224781   1.030   3.258   2.709 -0.6228 -0.6858  0.1633
 8273TIP3   OH224782   5.104   6.344   3.826 -0.1292 -0.1551  0.1049
 8273TIP3    H124783   5.020   6.386   3.842  0.9450  1.5045  1.8360
 8273TIP3    H224784   5.165   6.417   3.814  1.0529 -1.3162 -1.3395
 8274TIP3   OH224785   1.566   3.106   3.758  0.4104  0.0143  0.3633
 8274TIP3    H124786   1.637   3.133   3.816  2.0360 -1.2041 -0.9522
 8274TIP3    H224787   1.575   3.161   3.680  0.9723 -1.2124 -0.4795
 8275TIP3   OH224788   0.080   0.984   0.073  0.1593  0.2730 -0.2573
 8275TIP3    H124789  -0.012   1.008   0.082 -0.1202 -0.1313 -1.7449
 8275TIP3    H224790   0.085   0.893   0.102 -0.3788 -0.4350 -2.2113
 8276TIP3   OH224791   0.357   4.076   3.448  0.3557  0.2404  0.5934
 8276TIP3    H124792   0.344   4.065   3.353  1.1790  1.9110  0.2514
 8276TIP3    H224793   0.449   4.056   3.462  0.5953  1.4210  0.7852
 8277TIP3   OH224794   2.782   4.807   3.139 -0.5210  0.5068 -0.3145
 8277TIP3    H124795   2.822   4.842   3.060  0.3879  0.1443 -0.0290
 8277TIP3    H224796   2.845   4.743   3.172 -1.0633  0.3602  0.4850
 8278TIP3   OH224797   1.292   0.568   3.370  0.1687 -0.1788  0.6841
 8278TIP3    H124798   1.361   0.607   3.317 -0.1447  0.8980  1.0461
 8278TIP3    H224799   1.240   0.642   3.401 -1.8844 -0.9753 -0.5536
 8279TIP3   OH224800   0.266   1.235   4.543  0.1661 -0.3197  0.9541
 8279TIP3    H124801   0.205   1.183   4.490  0.4853  2.0423 -1.9742
 8279TIP3    H224802   0.210   1.279   4.607 -1.2692  1.3089 -1.2625
 8280TIP3   OH224803   4.659   0.373   0.185 -0.0260 -0.2190 -0.0558
 8280TIP3    H124804   4.659   0.374   0.281 -1.2182 -1.6900 -0.0078
 8280TIP3    H224805   4.594   0.438   0.160  0.7650  0.6580  0.0829
 8281TIP3   OH224806   4.583   2.685   3.699  0.1765  0.0708  0.1954
 8281TIP3    H124807   4.606   2.660   3.609 -1.0569 -0.7803  0.0943
 8281TIP3    H224808   4.531   2.764   3.689  2.2662  1.5544  0.3764
 8282TIP3   OH224809   0.582   0.398   4.584  0.5439  0.2368  0.1200
 8282TIP3    H124810   0.581   0.468   4.650  1.7697 -0.3353  0.7915
 8282TIP3    H224811   0.497   0.355   4.593  0.9145 -0.2501  1.8307
 8283TIP3   OH224812   0.851   2.223   2.402 -0.4059 -1.1278  0.3867
 8283TIP3    H124813   0.806   2.306   2.421 -3.2422 -2.3251 -0.5708
 8283TIP3    H224814   0.910   2.243   2.329 -1.4608 -0.0614 -0.1984
 8284TIP3   OH224815   2.155   2.135   1.912  0.2707  0.4459 -0.3226
 8284TIP3    H124816   2.093   2.207   1.923  0.4977  0.4665  1.0231
 8284TIP3    H224817   2.102   2.056   1.924  0.2560  0.4283 -0.5069
 8285TIP3   OH224818   5.591   3.664   1.287  0.4511 -0.2124 -0.2660
 8285TIP3    H124819   5.652   3.643   1.217  0.8744  0.2160 -0.0299
 8285TIP3    H224820   5.634   3.636   1.367  0.7142  0.8337 -0.0188
 8286TIP3   OH224821   5.738   0.231   0.327  0.0514 -0.1226 -0.0104
 8286TIP3    H124822   5.708   0.226   0.418  1.8570  0.1725  0.6458
 8286TIP3    H224823   5.718   0.321   0.300 -0.1362 -0.0927  0.2195
 8287TIP3   OH224824   0.416   6.333   1.729 -0.3331  0.0155 -0.3873
 8287TIP3    H124825   0.386   6.266   1.790  1.1659 -0.9648 -0.6695
 8287TIP3    H224826   0.418   6.413   1.781  0.2092 -0.6534  0.6641
 8288TIP3   OH224827   1.080   2.404   0.753  0.4755  0.1114  0.5467
 8288TIP3    H124828   1.014   2.458   0.798  1.5344  0.3267  1.9269
 8288TIP3    H224829   1.042   2.387   0.667 -1.1357  0.6908  1.0879
 8289TIP3   OH224830   4.191   3.619   1.705  0.1213  0.5641 -0.2715
 8289TIP3    H124831   4.104   3.606   1.744  0.4610 -0.6809  0.1400
 8289TIP3    H224832   4.178   3.603   1.612 -0.1604  0.7626 -0.2698
 8290TIP3   OH224833   3.177   3.548   0.326  0.5235  0.3377 -0.0061
 8290TIP3    H124834   3.157   3.493   0.250  2.6235  0.1645 -0.4806
 8290TIP3    H224835   3.221   3.624   0.290 -1.4909  1.9542  0.7507
 8291TIP3   OH224836   5.612   0.107   3.914  0.2301  0.1438  0.2369
 8291TIP3    H124837   5.600   0.016   3.942  0.6281 -0.2317 -0.7593
 8291TIP3    H224838   5.530   0.151   3.939  0.1670 -0.3968  1.0287
 8292TIP3   OH224839   3.659   2.191   1.762 -0.2348 -0.1010 -0.2802
 8292TIP3    H124840   3.566   2.197   1.741 -0.2604  2.0049  0.1539
 8292TIP3    H224841   3.694   2.278   1.741  1.1205 -0.0325  1.8839
 8293TIP3   OH224842   2.173   2.007   5.337 -0.0876 -0.0056 -0.1636
 8293TIP3    H124843   2.096   1.954   5.356  0.3121 -0.7301 -0.5352
 8293TIP3    H224844   2.200   2.041   5.422 -0.4258 -0.2884  0.0608
 8294TIP3   OH224845   3.376   5.680   0.878  0.1766 -0.5922  0.0158
 8294TIP3    H124846   3.328   5.686   0.960  0.7436 -2.6383  0.5669
 8294TIP3    H224847   3.445   5.615   0.895  2.3195  1.2043 -1.1282
 8295TIP3   OH224848   4.513   0.967   2.780  0.2928 -0.4586  0.0258
 8295TIP3    H124849   4.484   0.899   2.840 -0.0805  0.4702  0.9314
 8295TIP3    H224850   4.450   1.039   2.793  0.4774 -0.0527 -1.1369
 8296TIP3   OH224851   5.892   2.671   4.902  0.2622  0.8648 -0.6029
 8296TIP3    H124852   5.928   2.757   4.923  1.5087  0.1185  0.3938
 8296TIP3    H224853   5.869   2.677   4.809  1.0804  2.0081 -0.7446
 8297TIP3   OH224854   5.906   4.585   2.049 -0.2677 -0.0306  0.6002
 8297TIP3    H124855   5.859   4.503   2.060 -0.6209  0.0357 -0.2982
 8297TIP3    H224856   5.981   4.563   1.994 -0.1111  0.1678  0.7293
 8298TIP3   OH224857   2.684   5.823   5.275 -0.0457  0.0890  0.3017
 8298TIP3    H124858   2.674   5.907   5.320  0.9041 -0.0936  0.8882
 8298TIP3    H224859   2.759   5.835   5.217 -0.2512 -0.1808 -0.0179
 8299TIP3   OH224860   2.397   4.814   5.370  0.4792 -0.1008 -0.1881
 8299TIP3    H124861   2.465   4.749   5.352 -0.0764 -0.6060 -0.5028
 8299TIP3    H224862   2.415   4.843   5.460  0.6934 -0.7424 -0.0163
 8300TIP3   OH224863   2.681   3.028   2.604 -0.0525  0.9388  0.2008
 8300TIP3    H124864   2.680   2.933   2.611 -0.6060  0.8973 -0.3217
 8300TIP3    H224865   2.763   3.049   2.559  0.2089  0.7271  0.5860
 8301TIP3   OH224866   1.880   0.337   2.900 -0.1354  0.3237  0.5490
 8301TIP3    H124867   1.913   0.401   2.836 -0.6127 -0.6317 -0.6904
 8301TIP3    H224868   1.903   0.252   2.863 -1.2990 -0.2883  1.1676
 8302TIP3   OH224869   6.235   6.467   1.056  0.0414  0.1245 -0.2236
 8302TIP3    H124870   6.300   6.398   1.045 -1.4470 -1.3882 -0.0209
 8302TIP3    H224871   6.223   6.474   1.151  1.7955  2.3086 -0.0996
 8303TIP3   OH224872   0.308   3.388   5.534 -0.3949  0.0660  0.1425
 8303TIP3    H124873   0.296   3.307   5.485 -0.4220  0.6927 -0.9320
 8303TIP3    H224874   0.359   3.363   5.611  1.0662 -0.6916 -1.0272
 8304TIP3   OH224875   2.060   0.126   4.401  0.5979 -0.1909  0.3271
 8304TIP3    H124876   2.122   0.060   4.370 -0.2618 -0.8641 -0.0108
 8304TIP3    H224877   2.006   0.147   4.324  0.9815  1.0619  0.3783
 8305TIP3   OH224878   0.249   2.012   3.460 -0.4229 -0.0456 -0.7291
 8305TIP3    H124879   0.251   2.019   3.555  1.6815 -0.7691 -0.6771
 8305TIP3    H224880   0.190   1.939   3.442  0.1627 -0.7368  0.1017
 8306TIP3   OH224881   6.127   3.880   5.624  0.4161  0.3226 -0.2616
 8306TIP3    H124882   6.120   3.826   5.703  1.3583 -1.2802 -1.2130
 8306TIP3    H224883   6.195   3.837   5.572  1.6344  2.7968 -0.8445
 8307TIP3   OH224884   7.048   3.312   1.924 -0.6737  0.0370  0.1542
 8307TIP3    H124885   6.989   3.273   1.988  0.7842 -2.6610  0.0100
 8307TIP3    H224886   7.015   3.282   1.840 -0.0597 -0.1309 -0.0318
 8308TIP3   OH224887   1.326   5.617   4.232 -0.0184  0.0892 -0.3970
 8308TIP3    H124888   1.352   5.615   4.324  0.8730  0.7132 -0.6233
 8308TIP3    H224889   1.395   5.570   4.186  0.7245  1.7306 -1.0034
 8309TIP3   OH224890   1.844   1.745   2.737  0.3941  0.3605  0.3700
 8309TIP3    H124891   1.920   1.731   2.680  0.3252 -1.4803  0.6549
 8309TIP3    H224892   1.773   1.698   2.694 -0.4524  1.5245  0.4393
 8310TIP3   OH224893   3.420   6.450   2.681  0.5077 -0.2112  0.4517
 8310TIP3    H124894   3.436   6.416   2.769 -0.1739 -1.9670 -0.0525
 8310TIP3    H224895   3.432   6.374   2.623 -1.8950  0.1566 -0.6683
 8311TIP3   OH224896   2.221   6.114   2.147  0.2439 -0.1703 -0.0744
 8311TIP3    H124897   2.227   6.209   2.149  1.4146 -0.0872 -2.6868
 8311TIP3    H224898   2.143   6.093   2.199 -1.1579  2.3379 -1.0009
 8312TIP3   OH224899   5.855   6.252   1.527 -0.0437 -0.7397  0.0543
 8312TIP3    H124900   5.925   6.232   1.464  0.4176 -2.3165  1.0018
 8312TIP3    H224901   5.819   6.335   1.498  2.5141  0.3502 -0.2204
 8313TIP3   OH224902   3.796   5.590   5.759 -0.5242  0.2482  0.0746
 8313TIP3    H124903   3.782   5.529   5.831 -1.3220  1.0453  0.6147
 8313TIP3    H224904   3.847   5.540   5.695 -2.8845 -1.6668 -0.4303
 8314TIP3   OH224905   7.235   2.544   4.494  0.0448 -0.2914  0.1343
 8314TIP3    H124906   7.234   2.545   4.589 -0.0528  0.1757  0.1281
 8314TIP3    H224907   7.143   2.535   4.469  0.1412 -1.2961  0.0888
 8315TIP3   OH224908   6.003   5.035   5.547 -0.6589 -0.0490 -0.1474
 8315TIP3    H124909   6.025   5.117   5.591 -0.8670 -0.8245  1.4581
 8315TIP3    H224910   5.925   5.056   5.495 -0.1440  0.9936 -0.5326
 8316TIP3   OH224911   5.614   6.409   1.502 -0.4144 -0.4705  0.9763
 8316TIP3    H124912   5.630   6.359   1.422  1.6009  2.2907 -0.5303
 8316TIP3    H224913   5.572   6.490   1.472  0.5394  0.7223  2.6573
 8317TIP3   OH224914   5.654   4.218   2.580  0.2435 -0.1857  0.6166
 8317TIP3    H124915   5.619   4.156   2.517  1.0661  0.2808 -0.3222
 8317TIP3    H224916   5.727   4.261   2.535 -0.4666  1.6636  1.1345
 8318TIP3   OH224917   5.883   0.606   3.126 -0.0329 -0.3350 -0.4137
 8318TIP3    H124918   5.923   0.574   3.045 -2.0225 -1.0400 -1.1824
 8318TIP3    H224919   5.925   0.556   3.196 -1.1267 -2.6865 -1.3704
 8319TIP3   OH224920   0.279   0.823   0.375 -0.3153 -0.1644 -0.0140
 8319TIP3    H124921   0.326   0.895   0.333 -0.0433 -0.2279  0.1787
 8319TIP3    H224922   0.204   0.807   0.318 -0.6594  0.6125  0.2000
 8320TIP3   OH224923   0.836   6.578   0.732 -0.2423  0.7317  0.2132
 8320TIP3    H124924   0.928   6.591   0.709 -0.3163  0.8735 -0.0037
 8320TIP3    H224925   0.807   6.506   0.676  0.0653 -0.1501  1.1482
 8321TIP3   OH224926   4.082   4.413   0.058  0.0233 -0.2575 -0.0342
 8321TIP3    H124927   4.081   4.385  -0.033 -0.4475 -0.7745  0.1207
 8321TIP3    H224928   4.033   4.496   0.058  0.3472 -0.0611 -0.3010
 8322TIP3   OH224929   0.574   3.839   2.636 -0.2356 -0.1931  0.2826
 8322TIP3    H124930   0.566   3.925   2.596 -1.4463 -0.4436 -0.0489
 8322TIP3    H224931   0.554   3.778   2.565  2.8491 -0.8919 -0.1160
 8323TIP3   OH224932   3.311   4.086   2.896 -0.4886  0.3378  0.8365
 8323TIP3    H124933   3.300   4.001   2.854  0.9989 -0.2528  1.5629
 8323TIP3    H224934   3.226   4.129   2.887 -0.5038 -0.0901 -1.9834
 8324TIP3   OH224935   6.340   2.922   3.597 -0.0951  0.9079 -0.1389
 8324TIP3    H124936   6.297   3.007   3.601 -0.5818  0.6220  0.8822
 8324TIP3    H224937   6.293   2.868   3.659  0.3100 -0.0730 -0.6686
 8325TIP3   OH224938   4.377   4.326   5.872 -0.0139 -0.4747 -0.3475
 8325TIP3    H124939   4.378   4.409   5.824  1.0634  0.7528  1.6426
 8325TIP3    H224940   4.285   4.312   5.893 -0.1994  0.2931 -0.5938
 8326TIP3   OH224941   1.566   3.961   3.250  0.4858 -0.2854  0.0438
 8326TIP3    H124942   1.509   3.890   3.218 -0.9879  1.6149 -1.8230
 8326TIP3    H224943   1.644   3.954   3.196 -0.2659  0.3604 -1.1668
 8327TIP3   OH224944   6.691   5.821   0.781  0.0843  0.3497 -0.0493
 8327TIP3    H124945   6.772   5.806   0.829 -0.7138  0.7882  1.4969
 8327TIP3    H224946   6.713   5.890   0.718  1.4089 -0.9356 -1.0867
 8328TIP3   OH224947   0.267   1.544   2.262  0.5120  0.2259  0.6020
 8328TIP3    H124948   0.279   1.548   2.357 -0.5921  0.5653  0.7396
 8328TIP3    H224949   0.323   1.614   2.228  0.7948  0.2019  1.0064
 8329TIP3   OH224950   3.907   0.879   2.040 -0.5428 -0.2448 -0.1892
 8329TIP3    H124951   3.831   0.897   2.096 -1.1156 -2.2559 -0.2362
 8329TIP3    H224952   3.983   0.893   2.096 -1.0984 -2.2721  1.2000
 8330TIP3   OH224953   1.951   6.765   2.281 -0.5102 -0.1886  0.1691
 8330TIP3    H124954   1.944   6.826   2.208  0.7423  1.1295  1.0893
 8330TIP3    H224955   1.923   6.680   2.245  0.5516  0.3024 -1.9592
 8331TIP3   OH224956   2.353   0.306   1.344  0.0853  0.1780 -1.0818
 8331TIP3    H124957   2.382   0.380   1.290 -0.6803  1.8171  0.6492
 8331TIP3    H224958   2.433   0.270   1.381  0.3090  1.9796  0.2984
 8332TIP3   OH224959   2.345   0.670   0.170  0.0946  0.7829 -0.2012
 8332TIP3    H124960   2.387   0.756   0.168 -0.3156  0.9954 -2.2193
 8332TIP3    H224961   2.251   0.689   0.171 -0.1651  0.5538 -3.9908
 8333TIP3   OH224962   0.146   4.613   3.586 -0.3605  0.1208  0.6716
 8333TIP3    H124963   0.161   4.551   3.657  1.4700  0.6472  0.8000
 8333TIP3    H224964   0.162   4.563   3.506 -1.4565 -0.2217  0.6585
 8334TIP3   OH224965   6.607   4.621   3.957  0.3867  0.3801  0.0540
 8334TIP3    H124966   6.526   4.643   4.002  1.0557 -1.3722  2.3092
 8334TIP3    H224967   6.590   4.640   3.865 -2.1396  1.1822  0.6239
 8335TIP3   OH224968   7.240   2.837   4.843  0.3244  0.7885 -0.3394
 8335TIP3    H124969   7.157   2.789   4.852  0.6434 -0.0366 -1.5104
 8335TIP3    H224970   7.236   2.905   4.911 -0.7533 -0.0226  0.4465
 8336TIP3   OH224971   0.668   5.130   4.662 -0.0776  0.3492  0.2872
 8336TIP3    H124972   0.761   5.105   4.666 -0.8068 -2.4730  3.3299
 8336TIP3    H224973   0.623   5.051   4.633 -1.6580  1.5804 -0.7875
 8337TIP3   OH224974   2.974   2.252   0.174 -0.3402  0.2419  0.3952
 8337TIP3    H124975   3.059   2.257   0.131 -0.3037  0.6958  0.5184
 8337TIP3    H224976   2.974   2.166   0.217  0.6469  0.8311  1.6268
 8338TIP3   OH224977   0.265   3.313   4.425 -0.4690  0.3191  0.1197
 8338TIP3    H124978   0.325   3.302   4.499 -0.0173 -0.5151 -0.3603
 8338TIP3    H224979   0.233   3.225   4.407 -1.0761  0.6125 -0.2727
 8339TIP3   OH224980   2.861   5.491   5.596 -0.2818 -0.1890 -0.3058
 8339TIP3    H124981   2.896   5.512   5.682 -1.0864  1.0165 -0.2547
 8339TIP3    H224982   2.926   5.525   5.535  0.1331 -0.7597 -0.1928
 8340TIP3   OH224983   0.900   4.957   4.094  0.0096  0.4804  0.5391
 8340TIP3    H124984   0.903   4.921   4.182 -1.6323  1.0025  0.8472
 8340TIP3    H224985   0.871   5.048   4.106  0.0382  0.6453 -0.5052
 8341TIP3   OH224986   3.670   3.970   0.690 -0.2518  0.3603  0.0340
 8341TIP3    H124987   3.759   3.978   0.656  0.4666 -0.7064  1.5293
 8341TIP3    H224988   3.673   4.016   0.774 -0.1380 -2.3519  1.6373
 8342TIP3   OH224989   6.795   2.343   3.069  0.5082 -0.0081 -0.1674
 8342TIP3    H124990   6.760   2.273   3.124  0.0514 -0.0027 -0.4516
 8342TIP3    H224991   6.840   2.297   2.998  2.3890 -0.0460  0.9699
 8343TIP3   OH224992   6.410   1.135   0.382 -0.3919 -1.2343 -0.3579
 8343TIP3    H124993   6.332   1.175   0.420  0.3014  0.7257 -0.8599
 8343TIP3    H224994   6.399   1.147   0.287  1.4791  1.1552 -0.3751
 8344TIP3   OH224995   3.256   4.453   2.676 -0.2225 -0.1911 -0.1115
 8344TIP3    H124996   3.309   4.491   2.606 -1.5105  0.0548 -0.9863
 8344TIP3    H224997   3.168   4.447   2.639 -0.6753 -1.2187  1.0698
 8345TIP3   OH224998   6.055   3.974   4.655  0.4733 -0.1351 -0.0560
 8345TIP3    H124999   5.981   3.952   4.599 -1.0678  1.0933  1.3673
 8345TIP3    H225000   6.048   4.069   4.667  1.8639 -0.1009  0.6979
 8346TIP3   OH225001   6.206   2.442   4.848 -0.4633  0.1724 -0.5108
 8346TIP3    H125002   6.218   2.349   4.828  2.2938  0.3420 -0.0894
 8346TIP3    H225003   6.295   2.475   4.858 -1.4290  2.2002  2.4355
 8347TIP3   OH225004   6.481   3.185   1.541  0.6275 -0.1639 -0.1270
 8347TIP3    H125005   6.516   3.260   1.589 -0.2050  0.0963  0.0896
 8347TIP3    H225006   6.422   3.223   1.476  1.1034 -0.5644 -0.7976
 8348TIP3   OH225007   2.615   3.455   4.026 -0.0111  0.1770 -0.3409
 8348TIP3    H125008   2.602   3.535   3.975  1.6164 -0.3079 -1.6371
 8348TIP3    H225009   2.694   3.473   4.077  0.3393 -0.5861 -0.6141
 8349TIP3   OH225010   2.385   5.159   3.194  0.1631  0.1891 -0.2406
 8349TIP3    H125011   2.319   5.176   3.127 -0.0299  1.5412  0.2630
 8349TIP3    H225012   2.429   5.243   3.207 -0.6482  0.3289  2.1967
 8350TIP3   OH225013   3.383   3.119   1.747  0.2744  0.6059  0.0913
 8350TIP3    H125014   3.451   3.185   1.765 -0.9135  1.4560  1.8394
 8350TIP3    H225015   3.302   3.169   1.749 -0.8471 -1.0673  3.1725
 8351TIP3   OH225016   6.543   6.574   2.183  0.0492 -0.3291 -0.5122
 8351TIP3    H125017   6.497   6.636   2.240  0.2074 -1.5255  0.9633
 8351TIP3    H225018   6.627   6.617   2.164 -0.0712  0.1549  0.0309
 8352TIP3   OH225019   0.907   4.318   2.125  0.0364  0.4728 -0.6914
 8352TIP3    H125020   0.872   4.366   2.051 -0.0256 -0.1027 -1.0369
 8352TIP3    H225021   0.998   4.299   2.100  0.3518  1.2325 -0.1544
 8353TIP3   OH225022   5.127   4.463   2.427 -0.5349  0.1459 -0.1602
 8353TIP3    H125023   5.138   4.550   2.465 -1.5136  0.5970 -0.8548
 8353TIP3    H225024   5.179   4.406   2.482  0.4714  1.2336  0.0685
 8354TIP3   OH225025   5.936   4.784   5.380  0.1453 -0.3178 -0.0778
 8354TIP3    H125026   5.900   4.770   5.468  2.0456 -2.4598  0.4634
 8354TIP3    H225027   6.005   4.849   5.392 -0.3506  0.2390 -0.2153
 8355TIP3   OH225028   5.387   0.392   5.533  0.0427 -0.1728 -0.3334
 8355TIP3    H125029   5.412   0.303   5.511  2.9428  0.1215  1.2181
 8355TIP3    H225030   5.391   0.440   5.450  2.0113 -0.8282 -0.6806
 8356TIP3   OH225031   2.076   3.909   4.936  0.8762 -0.4919  0.2093
 8356TIP3    H125032   1.986   3.920   4.908  0.8083 -1.9488 -0.2211
 8356TIP3    H225033   2.127   3.961   4.874  0.3340  0.6300  0.6704
 8357TIP3   OH225034   4.349   2.731   1.351 -0.4277 -0.2309 -0.1097
 8357TIP3    H125035   4.357   2.650   1.302 -3.2013 -1.8695  1.8297
 8357TIP3    H225036   4.438   2.753   1.377  0.6141 -1.5269 -2.2939
 8358TIP3   OH225037   5.953   4.508   4.883  0.4896 -0.0537 -0.1589
 8358TIP3    H125038   6.019   4.483   4.948  0.0345 -0.5461  0.1256
 8358TIP3    H225039   5.906   4.581   4.922 -0.3936 -0.9417  0.4872
 8359TIP3   OH225040   4.158   1.746   0.378 -0.0862  0.6121  0.1197
 8359TIP3    H125041   4.218   1.752   0.451 -0.1657  1.6295  0.1153
 8359TIP3    H225042   4.209   1.775   0.302 -0.4381  1.0608  0.0453
 8360TIP3   OH225043   4.312   4.153   1.511 -0.6118 -0.1625  0.0642
 8360TIP3    H125044   4.297   4.170   1.418 -0.5765  0.5907  0.1958
 8360TIP3    H225045   4.235   4.103   1.539 -0.0765 -1.4172 -0.6368
 8361TIP3   OH225046   4.106   5.000   1.091  0.6190 -0.4240 -0.4204
 8361TIP3    H125047   4.039   5.062   1.119  0.0925 -0.6546 -1.1263
 8361TIP3    H225048   4.074   4.915   1.121  0.2816 -0.6126 -1.2730
 8362TIP3   OH225049   2.096   5.410   2.179 -0.4625  0.0765  0.6796
 8362TIP3    H125050   2.037   5.397   2.253  0.5391 -0.4630  1.4162
 8362TIP3    H225051   2.115   5.504   2.178 -1.2899  0.2421  0.4656
 8363TIP3   OH225052   0.656   1.439   5.453  0.0474 -0.5826  0.0751
 8363TIP3    H125053   0.620   1.469   5.537 -2.5345 -0.0014 -1.1430
 8363TIP3    H225054   0.683   1.349   5.470  2.2667  0.3685  2.2158
 8364TIP3   OH225055   2.792   0.131   3.270  0.0477  0.1330  0.7082
 8364TIP3    H125056   2.781   0.084   3.188  0.1827  1.3735 -0.0503
 8364TIP3    H225057   2.711   0.180   3.281  1.5509  3.3223 -0.9679
 8365TIP3   OH225058   2.685   1.885   3.479 -0.2763 -0.0726  0.3589
 8365TIP3    H125059   2.728   1.874   3.394  0.2465 -0.8545  0.7147
 8365TIP3    H225060   2.613   1.822   3.477  0.6579 -1.2020  1.0718
 8366TIP3   OH225061   5.282   5.052   1.731  0.5265  0.1925  0.7416
 8366TIP3    H125062   5.314   4.979   1.784 -1.7660 -0.4173  1.3962
 8366TIP3    H225063   5.187   5.039   1.727  0.3299  1.7574 -1.2402
 8367TIP3   OH225064   1.396   4.404   3.739 -0.1472 -0.5203  0.1434
 8367TIP3    H125065   1.395   4.433   3.830 -1.4180 -2.0209  0.6558
 8367TIP3    H225066   1.474   4.349   3.732  0.0467 -0.2628  0.2793
 8368TIP3   OH225067   5.843   4.727   5.629  0.2535  0.7450 -0.2467
 8368TIP3    H125068   5.788   4.798   5.662  1.0944  1.8434 -1.1351
 8368TIP3    H225069   5.797   4.647   5.655 -1.4437  1.6083 -0.4290
 8369TIP3   OH225070   1.714   0.561   3.444  0.2020 -0.0689  0.4255
 8369TIP3    H125071   1.698   0.489   3.383  1.1321 -0.0768  0.1632
 8369TIP3    H225072   1.637   0.563   3.500  0.2754 -1.4455  0.6102
 8370TIP3   OH225073   2.171   2.604   2.950  0.5540  0.0349 -0.0137
 8370TIP3    H125074   2.252   2.557   2.969 -0.0672 -0.5145  1.3913
 8370TIP3    H225075   2.107   2.568   3.011 -0.1845  2.0682  0.4780
 8371TIP3   OH225076   5.276   1.902   0.916 -0.2097 -1.0621 -0.4598
 8371TIP3    H125077   5.344   1.932   0.976 -0.2861 -0.9824 -0.4124
 8371TIP3    H225078   5.274   1.968   0.847  0.1323 -1.3476 -0.7435
 8372TIP3   OH225079   4.561   6.692   3.966  0.5307 -0.3336 -0.2358
 8372TIP3    H125080   4.524   6.776   3.996  2.0890  0.5634 -0.7328
 8372TIP3    H225081   4.584   6.646   4.047  0.0973 -0.0946  0.0309
 8373TIP3   OH225082   3.782   5.012   0.964 -0.2370 -0.0992 -0.0137
 8373TIP3    H125083   3.797   4.918   0.958  0.8864 -0.0139  1.0372
 8373TIP3    H225084   3.805   5.034   1.054  2.3338  1.6447 -0.9901
 8374TIP3   OH225085   1.859   5.640   0.096  1.0049 -0.3366  0.3193
 8374TIP3    H125086   1.845   5.630   0.190  1.9782 -3.4131  0.2502
 8374TIP3    H225087   1.953   5.659   0.087  0.5244  2.2609 -0.0109
 8375TIP3   OH225088   4.585   5.495   5.285 -0.2266  0.4651 -0.4118
 8375TIP3    H125089   4.665   5.515   5.332  0.7256 -2.4542 -0.5448
 8375TIP3    H225090   4.609   5.500   5.192 -0.1331 -0.4638 -0.4526
 8376TIP3   OH225091   4.621   6.157   2.142  0.4724  0.2786 -0.2714
 8376TIP3    H125092   4.687   6.090   2.155  1.2204  1.0158 -0.2147
 8376TIP3    H225093   4.580   6.168   2.228 -1.0437 -1.5049 -0.7081
 8377TIP3   OH225094   4.170   5.424   3.880 -0.1975  0.4965  0.3679
 8377TIP3    H125095   4.216   5.374   3.813  0.1164 -0.6297  1.3955
 8377TIP3    H225096   4.098   5.467   3.833  0.4382  0.3162 -0.8049
 8378TIP3   OH225097   7.059   1.763   1.460  0.8435 -0.1140 -0.4393
 8378TIP3    H125098   7.009   1.686   1.433 -1.4315  1.4606 -1.0184
 8378TIP3    H225099   7.092   1.800   1.379  0.2740  0.5643 -0.3715
 8379TIP3   OH225100   5.297   3.781   0.883  0.4504 -0.7063 -0.3057
 8379TIP3    H125101   5.329   3.777   0.973 -3.4028  2.3888  1.5381
 8379TIP3    H225102   5.205   3.754   0.889  0.6651 -2.9057 -3.9232
 8380TIP3   OH225103   5.957   0.165   4.747  0.4808  0.2333 -0.5779
 8380TIP3    H125104   5.862   0.170   4.759  0.6259 -0.8651  1.4250
 8380TIP3    H225105   5.968   0.111   4.668 -0.5976 -2.0026  0.7041
 8381TIP3   OH225106   4.497   2.211   3.128 -0.1865  0.2720 -0.6432
 8381TIP3    H125107   4.585   2.239   3.100 -0.0326  0.1179 -0.3244
 8381TIP3    H225108   4.512   2.129   3.175 -0.5192  0.1759 -0.7041
 8382TIP3   OH225109   1.076   0.000   2.717  0.6948 -0.1296 -0.6150
 8382TIP3    H125110   1.111   0.088   2.728 -0.9696  0.3863  1.0078
 8382TIP3    H225111   0.984   0.007   2.744  0.3144 -2.1983 -1.2013
 8383TIP3   OH225112   0.285   1.004   2.060  0.2856  0.4866  0.2051
 8383TIP3    H125113   0.198   0.971   2.085  0.6964  0.9098  2.3622
 8383TIP3    H225114   0.285   1.095   2.089  1.6499  0.3246  0.7547
 8384TIP3   OH225115   2.462   2.626   0.596 -0.2968 -0.6298  0.1046
 8384TIP3    H125116   2.421   2.711   0.580  0.7320 -0.2876 -0.8420
 8384TIP3    H225117   2.403   2.562   0.556 -0.8015 -0.3228  0.3487
 8385TIP3   OH225118   5.389   2.102   4.341 -0.3970  0.0949 -0.0999
 8385TIP3    H125119   5.401   2.142   4.255 -1.6762  0.1469 -0.2673
 8385TIP3    H225120   5.322   2.034   4.327  1.1153 -1.5760  0.3463
 8386TIP3   OH225121   0.448   1.288   0.499  0.3493  0.1593  0.2076
 8386TIP3    H125122   0.513   1.219   0.485 -0.3412 -0.2757 -1.0417
 8386TIP3    H225123   0.425   1.318   0.411  0.4451  1.8255  0.7175
 8387TIP3   OH225124   5.858   3.157   4.817  0.2224  0.2085  0.3504
 8387TIP3    H125125   5.812   3.230   4.859  1.7901  0.3311  1.9893
 8387TIP3    H225126   5.944   3.193   4.796  0.9851 -1.1038  1.1012
 8388TIP3   OH225127   6.587   1.637   1.894 -0.0261 -0.0910  0.2558
 8388TIP3    H125128   6.498   1.670   1.896  0.0991  0.3494 -0.8840
 8388TIP3    H225129   6.598   1.602   1.805  0.2408 -2.1222  1.0265
 8389TIP3   OH225130   6.838   5.470   1.828 -0.0973 -0.1908  0.2305
 8389TIP3    H125131   6.814   5.409   1.898 -0.6117 -0.5030 -0.2077
 8389TIP3    H225132   6.758   5.479   1.776  0.0588  0.6297  0.1153
 8390TIP3   OH225133   1.973   5.460   5.634  0.0468 -0.1255  0.3155
 8390TIP3    H125134   1.889   5.416   5.650 -0.4528 -0.5639 -2.8375
 8390TIP3    H225135   1.949   5.549   5.610  0.4782 -0.2106 -0.4511
 8391TIP3   OH225136   0.194   5.181   4.613 -0.0123  0.2815  0.0148
 8391TIP3    H125137   0.188   5.134   4.696  0.2978  0.8847  0.3845
 8391TIP3    H225138   0.285   5.207   4.607 -0.2693  1.2272  0.0388
 8392TIP3   OH225139   6.053   5.061   2.078  0.1492  0.0668  0.0407
 8392TIP3    H125140   6.039   5.018   2.163  0.8144 -1.7565 -0.7218
 8392TIP3    H225141   6.036   4.992   2.014  0.3098  1.2410 -1.2975
 8393TIP3   OH225142   2.238   0.071   1.366  0.0725  0.4436 -0.2364
 8393TIP3    H125143   2.257   0.163   1.344  2.7037 -0.2022 -0.9764
 8393TIP3    H225144   2.208   0.033   1.283 -0.0507  0.3992 -0.1710
 8394TIP3   OH225145   2.244   2.484   1.392 -0.8507 -0.2353 -0.5219
 8394TIP3    H125146   2.221   2.391   1.395 -0.7013 -0.2567  0.9472
 8394TIP3    H225147   2.221   2.512   1.304 -0.7862 -1.6930 -1.0267
 8395TIP3   OH225148   2.567   5.108   5.789  0.0566 -0.2676 -0.3200
 8395TIP3    H125149   2.651   5.074   5.758  0.7881  1.7488 -0.6972
 8395TIP3    H225150   2.571   5.202   5.769 -2.6715 -0.2686 -1.2193
 8396TIP3   OH225151   6.698   0.498   1.108 -0.0311  0.2570 -0.6065
 8396TIP3    H125152   6.757   0.502   1.184 -0.3404 -2.1832 -0.1530
 8396TIP3    H225153   6.616   0.463   1.144 -1.1512  1.7604 -1.5907
 8397TIP3   OH225154   2.820   0.378   4.988  0.8750  0.3380  0.4311
 8397TIP3    H125155   2.911   0.356   5.009  1.3694  2.6244  0.8857
 8397TIP3    H225156   2.825   0.431   4.909 -0.1985 -0.4227 -0.1793
 8398TIP3   OH225157   2.123   6.560   5.472  0.3362 -0.0765 -0.4292
 8398TIP3    H125158   2.112   6.581   5.379 -1.5437  1.1210  0.0071
 8398TIP3    H225159   2.197   6.613   5.500  0.0440  0.6229 -0.9452
 8399TIP3   OH225160   0.439   5.616   3.470 -0.3497 -0.0505 -0.1851
 8399TIP3    H125161   0.518   5.581   3.429 -0.1046 -1.0121  1.0709
 8399TIP3    H225162   0.406   5.681   3.407  0.3869 -0.9867 -1.5755
 8400TIP3   OH225163   3.371   6.387   0.018  0.2460  0.8494 -0.1212
 8400TIP3    H125164   3.356   6.454  -0.049 -1.0725  0.7397  0.0404
 8400TIP3    H225165   3.409   6.435   0.092  0.5404  1.1854 -0.4876
 8401TIP3   OH225166   3.109   3.719   0.556  0.1210 -0.5259 -1.0278
 8401TIP3    H125167   3.137   3.650   0.497  0.9820  0.3092 -1.6288
 8401TIP3    H225168   3.031   3.684   0.600  1.3696 -2.4240 -0.2438
 8402TIP3   OH225169   0.868   5.497   2.371 -0.0858  0.5614  0.3827
 8402TIP3    H125170   0.819   5.421   2.402  1.1308  0.8989  3.5676
 8402TIP3    H225171   0.960   5.473   2.386  0.4506  1.7993 -0.7656
 8403TIP3   OH225172   3.215   1.861   3.143  0.0192  0.4784 -0.3765
 8403TIP3    H125173   3.279   1.819   3.086 -0.1738  1.5986 -1.4645
 8403TIP3    H225174   3.188   1.792   3.204 -0.0335 -0.8752 -1.8517
 8404TIP3   OH225175   5.542   4.597   1.804 -0.3290 -0.6361 -0.1489
 8404TIP3    H125176   5.573   4.686   1.786 -1.2015 -0.5403 -1.2877
 8404TIP3    H225177   5.622   4.544   1.809  0.4325  0.5537  3.0301
 8405TIP3   OH225178   2.928   1.053   1.072 -0.1833 -0.3588 -0.1802
 8405TIP3    H125179   2.997   1.118   1.059  0.1203 -0.8515 -1.1208
 8405TIP3    H225180   2.974   0.969   1.078 -0.6314 -0.5884  0.2162
 8406TIP3   OH225181   1.959   3.456   0.917 -0.3292  0.2903 -0.1438
 8406TIP3    H125182   1.864   3.459   0.904 -0.2048  0.4306 -1.0910
 8406TIP3    H225183   1.970   3.468   1.011 -1.2917 -0.7390  0.1217
 8407TIP3   OH225184   5.874   1.863   4.535  0.0940  0.5333  0.0740
 8407TIP3    H125185   5.801   1.854   4.595  1.3176  0.5584  1.6465
 8407TIP3    H225186   5.949   1.826   4.582  1.3791  1.7867 -0.8733
 8408TIP3   OH225187   6.552   5.220   1.140  0.1963  0.3128  0.6330
 8408TIP3    H125188   6.620   5.243   1.076 -0.7306  1.2148 -0.0630
 8408TIP3    H225189   6.530   5.129   1.119  1.7354 -0.2832  1.4063
 8409TIP3   OH225190   1.145   3.674   0.414 -0.6321  0.4144 -0.0762
 8409TIP3    H125191   1.191   3.753   0.384  1.9836 -0.5297  1.1563
 8409TIP3    H225192   1.199   3.602   0.381 -0.0561 -0.7306  3.0468
 8410TIP3   OH225193   0.496   3.558   3.606 -0.2113 -0.0793 -0.0314
 8410TIP3    H125194   0.528   3.562   3.697  2.1354  0.1904 -0.7975
 8410TIP3    H225195   0.485   3.649   3.581 -0.1237 -0.1241 -0.2354
 8411TIP3   OH225196   3.570   4.869   3.015 -0.1805 -0.2749 -0.4087
 8411TIP3    H125197   3.569   4.788   3.066 -0.4618  0.7383  1.2529
 8411TIP3    H225198   3.638   4.922   3.055 -1.0376  0.9194 -0.4809
 8412TIP3   OH225199   1.903   0.075   2.824  0.0893 -0.3737  0.6376
 8412TIP3    H125200   1.914  -0.019   2.814  0.2681 -0.1131 -2.4462
 8412TIP3    H225201   1.820   0.094   2.780  0.1798  0.9641  1.0075
 8413TIP3   OH225202   5.952   5.816   0.565  0.2438 -0.7156 -0.8617
 8413TIP3    H125203   6.001   5.888   0.605 -0.9960 -0.7940  0.9068
 8413TIP3    H225204   5.865   5.852   0.551 -0.4058 -1.8614  0.0848
 8414TIP3   OH225205   0.899   4.486   1.660 -0.2176 -0.2950  0.3390
 8414TIP3    H125206   0.830   4.484   1.594 -0.2672  0.1947  0.3719
 8414TIP3    H225207   0.928   4.395   1.667 -0.6142 -0.4459  0.0682
 8415TIP3   OH225208   6.141   2.458   2.976 -0.1441 -0.1908 -0.0765
 8415TIP3    H125209   6.147   2.419   2.889  0.8199  0.8360 -0.4995
 8415TIP3    H225210   6.222   2.509   2.986  0.4815 -1.4581  2.0283
 8416TIP3   OH225211   3.925   3.272   5.076 -0.1919  0.1048 -0.4673
 8416TIP3    H125212   3.937   3.363   5.103  0.4784 -0.0751 -0.1402
 8416TIP3    H225213   3.831   3.258   5.081 -0.4505  1.1694 -1.8138
 8417TIP3   OH225214   5.291   0.317   4.824  0.1105 -0.1466 -0.1061
 8417TIP3    H125215   5.273   0.410   4.829  0.4188 -0.0481 -0.7038
 8417TIP3    H225216   5.240   0.286   4.749  0.5661 -0.3115 -0.3559
 8418TIP3   OH225217   0.877   0.579   0.202 -0.1672  0.1126 -0.0405
 8418TIP3    H125218   0.967   0.600   0.228 -0.5601  1.4127  0.3456
 8418TIP3    H225219   0.886   0.534   0.118  0.7660  1.6662 -0.8084
 8419TIP3   OH225220   1.002   6.553   5.681  0.0517  0.1197 -0.0493
 8419TIP3    H125221   0.958   6.582   5.601 -0.2825 -0.7385 -0.1826
 8419TIP3    H225222   1.075   6.499   5.650 -0.0107 -0.1257  0.2270
 8420TIP3   OH225223   5.016   4.963   3.862 -0.5990  0.8929  0.4570
 8420TIP3    H125224   5.016   4.893   3.796 -1.0520 -1.1632  2.4938
 8420TIP3    H225225   5.083   4.936   3.924 -1.6803  1.6024  1.9710
 8421TIP3   OH225226   6.054   5.274   5.659  0.4736  0.0052  0.2980
 8421TIP3    H125227   6.140   5.315   5.653  0.4978 -0.1530 -0.4236
 8421TIP3    H225228   6.020   5.302   5.744  1.2538  0.0312  0.6031
 8422TIP3   OH225229   7.130   6.484   3.354 -0.3840 -0.0381 -0.3998
 8422TIP3    H125230   7.096   6.555   3.409 -0.9550 -1.3329  0.9981
 8422TIP3    H225231   7.170   6.423   3.416  2.0423  0.0476 -1.7583
 8423TIP3   OH225232   5.040   1.389   0.429  0.3081  0.3790  0.4560
 8423TIP3    H125233   4.977   1.405   0.499 -1.3621  0.1542 -0.8979
 8423TIP3    H225234   5.003   1.435   0.353  0.8541 -1.2160 -0.8400
 8424TIP3   OH225235   0.378   5.814   4.430 -0.0288 -0.0149  0.3944
 8424TIP3    H125236   0.317   5.782   4.497 -3.2447  2.2124 -1.1801
 8424TIP3    H225237   0.348   5.772   4.349  0.8128  0.8143 -0.3697
 8425TIP3   OH225238   3.884   3.362   3.512  0.1276 -0.4200  0.2086
 8425TIP3    H125239   3.938   3.347   3.590 -1.0486  0.0389  1.1446
 8425TIP3    H225240   3.880   3.277   3.469  1.7326 -0.4257 -0.0012
 8426TIP3   OH225241   5.276   1.390   4.471  0.2381 -0.0056  0.0982
 8426TIP3    H125242   5.357   1.361   4.514 -0.7590 -0.2920  1.8399
 8426TIP3    H225243   5.247   1.465   4.523  0.5975  1.6346 -1.9300
 8427TIP3   OH225244   5.616   5.255   1.700  0.1558  0.0083  0.1128
 8427TIP3    H125245   5.711   5.261   1.702  0.1654  1.1491  3.5885
 8427TIP3    H225246   5.592   5.218   1.785 -2.5312 -0.2379 -0.6356
 8428TIP3   OH225247   5.279   4.802   2.818 -0.2071  0.2750 -0.2108
 8428TIP3    H125248   5.369   4.770   2.831  0.0004  0.8638 -0.1734
 8428TIP3    H225249   5.287   4.897   2.822 -0.2975  0.5423 -3.3452
 8429TIP3   OH225250   6.014   4.040   3.473 -0.0134 -0.0669  0.3410
 8429TIP3    H125251   5.954   4.066   3.403  0.2539 -1.3449 -0.3872
 8429TIP3    H225252   6.047   4.123   3.508  0.6001  0.6014 -1.6903
 8430TIP3   OH225253   0.450   4.012   5.589 -0.3528 -0.1348 -0.3377
 8430TIP3    H125254   0.357   4.021   5.611 -0.3115 -1.0527  0.2779
 8430TIP3    H225255   0.483   3.947   5.651  0.5498 -0.3030 -0.9751
 8431TIP3   OH225256   5.078   5.869   0.242 -0.0768  0.4671  0.0989
 8431TIP3    H125257   5.134   5.869   0.319  0.3704 -0.0537 -0.2135
 8431TIP3    H225258   5.105   5.947   0.193  0.6889 -0.0072 -0.2603
 8432TIP3   OH225259   6.746   1.394   3.192  0.6131  0.3486  0.2006
 8432TIP3    H125260   6.717   1.304   3.210 -1.3738  0.7599 -0.7286
 8432TIP3    H225261   6.811   1.384   3.122  2.9653 -0.5902  2.3399
 8433TIP3   OH225262   1.259   3.473   1.028  0.4153 -0.1478  0.1845
 8433TIP3    H125263   1.256   3.454   0.934 -0.2672  0.9342 -0.0209
 8433TIP3    H225264   1.299   3.560   1.034  0.7939 -0.3587  0.9276
 8434TIP3   OH225265   1.192   5.113   4.522  0.4799 -1.1371  0.2963
 8434TIP3    H125266   1.255   5.046   4.497  0.5479 -1.3053  0.9122
 8434TIP3    H225267   1.200   5.180   4.454  2.6930 -0.2417  1.3586
 8435TIP3   OH225268   1.620   5.924   2.820  0.1224  0.0929 -0.6024
 8435TIP3    H125269   1.599   6.006   2.775 -1.2437 -1.1752 -2.4585
 8435TIP3    H225270   1.634   5.861   2.749 -0.3837 -1.6375  0.7558
 8436TIP3   OH225271   6.010   0.805   0.525  0.1725 -0.3938  0.1665
 8436TIP3    H125272   5.978   0.796   0.615  1.3412  0.5550  0.7156
 8436TIP3    H225273   6.106   0.805   0.534  0.3376 -1.7597 -1.2463
 8437TIP3   OH225274   3.773   4.775   4.670 -0.4337 -0.4446 -0.2837
 8437TIP3    H125275   3.696   4.718   4.663 -0.3305 -0.5271 -0.8212
 8437TIP3    H225276   3.738   4.862   4.684 -0.6317 -0.4503 -0.7500
 8438TIP3   OH225277   2.479   2.172   3.852 -0.1103 -0.6089 -0.2518
 8438TIP3    H125278   2.406   2.110   3.849  1.3322 -2.3807 -0.0320
 8438TIP3    H225279   2.545   2.135   3.793  1.6598 -0.4702  1.5428
 8439TIP3   OH225280   5.135   3.460   5.032 -0.3304 -0.2278 -0.1103
 8439TIP3    H125281   5.065   3.497   5.085 -1.6626  0.3004 -2.1369
 8439TIP3    H225282   5.184   3.405   5.092 -1.4480  0.7423  1.7679
 8440TIP3   OH225283   1.154   0.289   5.211 -0.0256 -0.1091 -0.2826
 8440TIP3    H125284   1.063   0.260   5.200  0.3548 -1.2417 -0.6249
 8440TIP3    H225285   1.162   0.306   5.304 -0.2353 -1.3196 -0.0195
 8441TIP3   OH225286   2.121   6.159   5.362 -0.2929 -0.2348 -0.8808
 8441TIP3    H125287   2.188   6.225   5.344 -0.5793  0.2452 -0.2270
 8441TIP3    H225288   2.101   6.122   5.277 -0.7600  1.1425 -1.4041
 8442TIP3   OH225289   2.321   4.118   2.938  0.3272 -0.1180 -0.0281
 8442TIP3    H125290   2.266   4.130   2.860  0.5006 -1.2559 -0.3433
 8442TIP3    H225291   2.291   4.035   2.976  0.3878  0.3262  1.0134
 8443TIP3   OH225292   6.275   5.410   4.928 -0.0288  0.0789 -0.6946
 8443TIP3    H125293   6.320   5.402   4.845  3.7269  1.7125  0.9557
 8443TIP3    H225294   6.274   5.504   4.946  0.7959 -0.3105  1.7750
 8444TIP3   OH225295   6.078   1.578   4.231  0.0553  0.4986  0.3680
 8444TIP3    H125296   5.993   1.577   4.275 -0.2479 -1.3550 -0.2065
 8444TIP3    H225297   6.058   1.610   4.143 -0.1020 -0.2228  0.1395
 8445TIP3   OH225298   2.242   1.248   5.719  0.2728  0.1048  0.6206
 8445TIP3    H125299   2.313   1.310   5.735  0.4036  0.4364 -1.0373
 8445TIP3    H225300   2.253   1.222   5.628 -0.2058 -1.8509  1.0681
 8446TIP3   OH225301   6.269   3.824   1.339  0.1816 -0.2611 -0.1094
 8446TIP3    H125302   6.189   3.875   1.351 -0.7245 -1.2756 -1.5330
 8446TIP3    H225303   6.300   3.807   1.428 -1.0864  0.3067  0.4689
 8447TIP3   OH225304   4.137   0.747   0.490  0.0092  0.1381  0.4142
 8447TIP3    H125305   4.114   0.713   0.404 -2.1083  1.8313  0.2210
 8447TIP3    H225306   4.143   0.842   0.478  1.2166  0.2873  1.8325
 8448TIP3   OH225307   0.450   0.443   0.131  0.2190 -0.0701 -0.3345
 8448TIP3    H125308   0.513   0.409   0.194  0.2719  0.2947 -0.1934
 8448TIP3    H225309   0.370   0.392   0.147  0.0213  0.4894  0.4811
 8449TIP3   OH225310   6.321   2.558   1.032 -0.4034  1.0046  0.5502
 8449TIP3    H125311   6.266   2.633   1.054  0.0470  1.4472  0.1726
 8449TIP3    H225312   6.385   2.592   0.970  0.6921  0.6466  1.4394
 8450TIP3   OH225313   1.747   1.158   2.699  0.2685 -0.5387  0.6793
 8450TIP3    H125314   1.825   1.209   2.720  0.6966 -1.3402  1.1066
 8450TIP3    H225315   1.741   1.094   2.770 -0.2878 -1.0347  0.1956
 8451TIP3   OH225316   3.833   2.713   4.121 -0.1407  0.3102  0.6550
 8451TIP3    H125317   3.789   2.743   4.201  0.2254 -0.4938  1.1699
 8451TIP3    H225318   3.846   2.792   4.069  0.1174  0.9284  1.6419
 8452TIP3   OH225319   0.623   3.813   3.093 -0.4677 -0.7323 -0.4110
 8452TIP3    H125320   0.635   3.896   3.048  1.4443 -1.3669 -1.1827
 8452TIP3    H225321   0.562   3.764   3.038 -1.3641  0.0237 -0.1093
 8453TIP3   OH225322   6.815   2.530   5.287  0.1067  0.4243  0.7351
 8453TIP3    H125323   6.766   2.608   5.261  0.3043  0.4511  0.4382
 8453TIP3    H225324   6.770   2.457   5.243 -0.1185  0.3605  1.0657
 8454TIP3   OH225325   6.018   3.265   0.907  0.4012 -0.5437 -0.1280
 8454TIP3    H125326   5.932   3.289   0.874  0.0415 -0.8140  0.6184
 8454TIP3    H225327   6.052   3.202   0.842 -0.4057 -1.2627  0.1377
 8455TIP3   OH225328   6.531   1.882   4.808  0.8767 -0.3491  0.2190
 8455TIP3    H125329   6.546   1.790   4.789  1.6994 -0.4295  1.1621
 8455TIP3    H225330   6.611   1.926   4.781  0.8626 -0.0485  0.6420
 8456TIP3   OH225331   3.237   1.520   1.056 -0.0973  0.0529 -0.1878
 8456TIP3    H125332   3.274   1.542   1.142 -1.3924  1.0972  0.1283
 8456TIP3    H225333   3.255   1.597   1.002 -1.6155  0.5059 -0.0766
 8457TIP3   OH225334   4.195   2.363   3.532  0.3809 -0.4023  0.0630
 8457TIP3    H125335   4.244   2.402   3.604  0.3780 -0.6193  0.1827
 8457TIP3    H225336   4.203   2.426   3.460  1.4136 -0.7550 -0.1438
 8458TIP3   OH225337   3.005   3.498   2.540  0.4668 -0.5221 -0.0708
 8458TIP3    H125338   2.967   3.577   2.579  1.6406  0.4273 -0.7582
 8458TIP3    H225339   3.069   3.468   2.604  0.7746 -0.2826 -0.2599
 8459TIP3   OH225340   4.507   2.935   0.630 -0.7470 -0.0911 -0.2517
 8459TIP3    H125341   4.591   2.972   0.655 -0.2316 -0.6444 -1.1376
 8459TIP3    H225342   4.455   2.937   0.711  0.6269 -1.1553  0.7074
 8460TIP3   OH225343   4.884   4.583   0.758  0.1747 -0.1240  0.1592
 8460TIP3    H125344   4.815   4.648   0.773  0.3038  0.6108 -2.0613
 8460TIP3    H225345   4.940   4.589   0.836  0.6019  2.9981 -0.2425
 8461TIP3   OH225346   6.902   4.033   5.262  0.3117  0.3959 -0.1468
 8461TIP3    H125347   6.892   3.976   5.338  1.2548 -0.5246 -0.6754
 8461TIP3    H225348   6.947   3.978   5.197  0.0696  1.3416 -1.1521
 8462TIP3   OH225349   0.845   0.326   5.722 -0.7061 -0.1351  0.3565
 8462TIP3    H125350   0.939   0.340   5.713 -0.4982 -1.8642 -0.6378
 8462TIP3    H225351   0.829   0.321   5.816  0.5392 -1.7140  0.5240
 8463TIP3   OH225352   7.201   4.330   3.266  0.1484 -0.3183  0.2689
 8463TIP3    H125353   7.120   4.353   3.219 -0.7843 -0.9775  1.4905
 8463TIP3    H225354   7.240   4.261   3.213 -0.3485 -0.3259 -0.0975
 8464TIP3   OH225355   4.319   2.765   3.601  0.2225  0.2913 -0.1828
 8464TIP3    H125356   4.228   2.773   3.629  1.2150 -0.8038  4.1082
 8464TIP3    H225357   4.328   2.673   3.574  0.2722  0.0893  0.5021
 8465TIP3   OH225358   5.507   2.311   3.784  0.5777  0.2353 -0.3586
 8465TIP3    H125359   5.567   2.244   3.817  0.7178  0.3602 -0.3599
 8465TIP3    H225360   5.420   2.278   3.807  0.7254  0.9449  1.3281
 8466TIP3   OH225361   0.061   1.372   5.086 -0.2609 -0.2947  0.4640
 8466TIP3    H125362   0.151   1.355   5.058  0.0479  0.6396  0.8622
 8466TIP3    H225363   0.016   1.288   5.074  0.9989 -1.1788  1.6108
 8467TIP3   OH225364   4.596   0.084   3.243 -0.2360 -0.1657  0.3501
 8467TIP3    H125365   4.546   0.047   3.317 -0.6632 -0.9196 -0.2989
 8467TIP3    H225366   4.538   0.075   3.168  0.6067 -0.4050 -0.2909
 8468TIP3   OH225367   4.870   1.183   4.252  0.2762 -0.3423 -0.3795
 8468TIP3    H125368   4.928   1.252   4.283 -0.0410 -0.6307  0.9097
 8468TIP3    H225369   4.803   1.228   4.200 -0.4087  0.4418  1.1329
 8469TIP3   OH225370   2.360   6.568   2.419 -0.5620 -0.4699  0.0820
 8469TIP3    H125371   2.283   6.522   2.387  0.0123 -0.8872 -0.7495
 8469TIP3    H225372   2.366   6.544   2.512 -1.0516 -0.9747 -0.0135
 8470TIP3   OH225373   0.221   1.178   3.148 -0.4098  0.0385  0.2348
 8470TIP3    H125374   0.288   1.135   3.095  1.5009 -1.3336  3.5029
 8470TIP3    H225375   0.230   1.271   3.127  1.5042 -0.2684 -0.4924
 8471TIP3   OH225376   5.180   6.591   0.428  0.0086  0.1716 -0.3279
 8471TIP3    H125377   5.270   6.621   0.415  0.1197  0.1275  0.3185
 8471TIP3    H225378   5.136   6.611   0.346  0.8643 -0.7422 -1.0423
 8472TIP3   OH225379   3.691   3.034   4.443 -0.9336  0.1411  0.5201
 8472TIP3    H125380   3.644   3.103   4.396  2.1358  1.1731 -1.3710
 8472TIP3    H225381   3.731   3.079   4.517 -0.4562  0.0150  0.3471
 8473TIP3   OH225382   7.106   6.258   5.379 -0.1666  0.2622  0.3759
 8473TIP3    H125383   7.025   6.296   5.344 -1.0196 -0.8312  1.0891
 8473TIP3    H225384   7.109   6.288   5.469 -0.3945 -0.6030  0.6872
 8474TIP3   OH225385   4.027   1.056   0.481 -0.5460 -0.4838  0.1407
 8474TIP3    H125386   4.046   1.046   0.574  0.4382 -1.1478 -0.1148
 8474TIP3    H225387   4.099   1.110   0.447  0.4948 -2.2476 -0.6650
 8475TIP3   OH225388   6.752   2.983   3.286  1.0167 -0.0417 -0.2021
 8475TIP3    H125389   6.714   3.035   3.215 -0.5904 -1.2733 -0.3185
 8475TIP3    H225390   6.770   2.898   3.245 -0.1680 -0.8536  0.8766
 8476TIP3   OH225391   2.288   3.608   1.756  0.5179  0.1579 -0.1281
 8476TIP3    H125392   2.207   3.639   1.797  0.0905 -0.6279 -0.3419
 8476TIP3    H225393   2.348   3.682   1.761 -0.0397  0.5793  0.5160
 8477TIP3   OH225394   4.729   0.773   3.078 -0.5698  0.3308  0.6163
 8477TIP3    H125395   4.722   0.678   3.080  1.8384  0.0595 -0.5963
 8477TIP3    H225396   4.640   0.803   3.055 -0.7652 -1.8128 -1.9209
 8478TIP3   OH225397   3.510   1.105   1.519  0.0802 -0.1530 -0.0489
 8478TIP3    H125398   3.522   1.059   1.602 -0.2419  1.1873  0.7789
 8478TIP3    H225399   3.570   1.061   1.458  1.6056 -0.0905  1.3271
 8479TIP3   OH225400   5.130   3.308   3.225  0.0306  0.8047  0.1710
 8479TIP3    H125401   5.139   3.249   3.300  0.9770 -1.3167 -1.5263
 8479TIP3    H225402   5.073   3.378   3.257 -3.2684 -2.2232  1.6387
 8480TIP3   OH225403   0.991   2.652   4.155  0.3504  0.0096 -0.2307
 8480TIP3    H125404   1.026   2.581   4.102 -0.1942  0.3155 -1.0228
 8480TIP3    H225405   0.946   2.608   4.227 -0.2987 -0.4738 -0.9142
 8481TIP3   OH225406   4.243   5.654   5.789 -0.4142  0.2456 -0.0903
 8481TIP3    H125407   4.213   5.686   5.874 -1.2598 -0.4826 -0.0985
 8481TIP3    H225408   4.196   5.572   5.776  0.6359 -0.2721 -0.7100
 8482TIP3   OH225409   5.156   3.203   0.074 -0.1885  0.0822 -0.1234
 8482TIP3    H125410   5.194   3.268   0.014 -0.8648  0.4830 -0.1347
 8482TIP3    H225411   5.162   3.243   0.160 -1.2072  0.4672 -0.2109
 8483TIP3   OH225412   3.357   1.317   2.813 -0.8079  0.1283 -0.5562
 8483TIP3    H125413   3.435   1.298   2.866  0.7936  2.2693 -1.9939
 8483TIP3    H225414   3.361   1.253   2.742  0.2033  0.8019 -1.1288
 8484TIP3   OH225415   4.667   1.207   5.015 -0.1635 -0.0135  0.5211
 8484TIP3    H125416   4.675   1.260   4.935  1.3317 -1.4972 -0.4031
 8484TIP3    H225417   4.696   1.264   5.085  0.4982  0.7001 -0.3128
 8485TIP3   OH225418   4.121   0.921   2.178  0.1042  0.1102  0.2815
 8485TIP3    H125419   4.214   0.903   2.196  0.3313  0.7018 -0.2281
 8485TIP3    H225420   4.081   0.931   2.264  0.9089  1.7127  0.5144
 8486TIP3   OH225421   6.095   0.414   0.286 -1.1469 -0.1459  0.1009
 8486TIP3    H125422   6.136   0.328   0.294  1.3944  0.9849  0.0398
 8486TIP3    H225423   6.074   0.422   0.192  0.0420 -0.1111 -0.1729
 8487TIP3   OH225424   6.825   6.548   0.258  0.6062 -0.3117  0.4144
 8487TIP3    H125425   6.787   6.473   0.211 -0.6943  0.9543 -0.6673
 8487TIP3    H225426   6.840   6.613   0.189  0.7536  0.7962  1.4731
 8488TIP3   OH225427   6.222   4.281   3.217 -0.0411  0.1766  0.6377
 8488TIP3    H125428   6.308   4.247   3.194  0.7934  1.2306  2.0181
 8488TIP3    H225429   6.165   4.256   3.144  1.3016 -1.0265 -0.0266
 8489TIP3   OH225430   6.283   5.248   2.080 -0.4237 -0.1452 -0.0226
 8489TIP3    H125431   6.238   5.166   2.060  0.1989 -0.4560 -0.1719
 8489TIP3    H225432   6.359   5.249   2.022 -0.8444  0.9213 -0.5999
 8490TIP3   OH225433   5.816   3.224   5.762 -0.1391 -0.1352  0.6264
 8490TIP3    H125434   5.879   3.250   5.828  0.8030  0.9421 -0.6393
 8490TIP3    H225435   5.809   3.300   5.704 -1.0388 -0.9789 -0.4309
 8491TIP3   OH225436   0.255   2.194   1.391 -0.9476 -0.0671 -0.0939
 8491TIP3    H125437   0.267   2.122   1.454 -0.5509  0.3264  0.2837
 8491TIP3    H225438   0.165   2.224   1.407 -0.7066  0.3092  0.5866
 8492TIP3   OH225439   6.288   0.472   2.538 -0.2110  0.6836 -0.1367
 8492TIP3    H125440   6.306   0.455   2.446  1.7846 -1.6942  0.5802
 8492TIP3    H225441   6.241   0.394   2.569  0.7901  0.5782  1.2249
 8493TIP3   OH225442   3.862   0.207   4.506  0.2050  0.3048 -0.0559
 8493TIP3    H125443   3.802   0.281   4.495 -0.3641 -0.0044  0.8047
 8493TIP3    H225444   3.915   0.207   4.427 -0.8929  0.6359 -0.8197
 8494TIP3   OH225445   2.860   0.253   3.789 -1.2995 -0.2619 -0.1865
 8494TIP3    H125446   2.905   0.336   3.805  3.3876 -2.6326  0.7961
 8494TIP3    H225447   2.865   0.241   3.694  2.3250 -1.2147 -0.0609
 8495TIP3   OH225448   4.131   1.527   1.021  0.2164 -0.1540 -0.4316
 8495TIP3    H125449   4.117   1.536   1.115  1.3531 -1.1066 -0.1376
 8495TIP3    H225450   4.182   1.446   1.013  2.0520  1.0504 -1.6734
 8496TIP3   OH225451   0.424   2.073  -0.024  0.0623  0.4112 -0.1668
 8496TIP3    H125452   0.489   2.022   0.024 -1.8557 -1.8893  0.1962
 8496TIP3    H225453   0.419   2.157   0.024  0.9036 -0.3617  1.3475
 8497TIP3   OH225454   4.946   5.039   0.583  0.2991 -0.1107  0.3071
 8497TIP3    H125455   4.892   5.100   0.634  0.4892  1.4031 -1.1948
 8497TIP3    H225456   4.883   4.975   0.550 -0.2330  0.3467  0.3998
 8498TIP3   OH225457   6.076   2.159   1.326 -0.5830  0.2759  0.5370
 8498TIP3    H125458   6.170   2.158   1.309 -0.5958 -0.2166  0.4659
 8498TIP3    H225459   6.062   2.086   1.387 -1.0876 -0.4897 -0.4558
 8499TIP3   OH225460   0.221   2.844   0.340  0.0743 -0.3792  0.2258
 8499TIP3    H125461   0.257   2.931   0.358  0.5181 -0.2414 -1.2510
 8499TIP3    H225462   0.297   2.786   0.343  0.3140 -0.2359 -1.8901
 8500TIP3   OH225463   2.326   0.424   3.347 -0.3921  0.5949 -0.3032
 8500TIP3    H125464   2.300   0.409   3.438 -2.0711 -4.0665 -1.2207
 8500TIP3    H225465   2.249   0.464   3.307 -2.3328 -3.1185 -0.7340
 8501TIP3   OH225466   2.820   2.250   5.451 -0.8919  0.2090 -0.0531
 8501TIP3    H125467   2.874   2.193   5.506 -0.6336  0.9444  0.4682
 8501TIP3    H225468   2.785   2.191   5.384 -1.5485 -0.7876  1.1141
 8502TIP3   OH225469   3.650   1.509   3.638  0.4815  0.6261 -0.0431
 8502TIP3    H125470   3.709   1.522   3.712  0.9101  2.0125 -0.5947
 8502TIP3    H225471   3.643   1.596   3.598  0.9857 -0.2507 -2.1645
 8503TIP3   OH225472   5.790   0.996   4.280  0.1983  0.1523  0.4837
 8503TIP3    H125473   5.762   1.084   4.257 -1.6740 -0.2380  1.1028
 8503TIP3    H225474   5.710   0.943   4.274  1.2001 -1.4195  0.5206
 8504TIP3   OH225475   5.685   3.020   2.618  0.4700  0.1575  0.3835
 8504TIP3    H125476   5.748   2.966   2.665  0.9472  0.5219  0.1756
 8504TIP3    H225477   5.600   2.979   2.635  0.7628 -0.3418  0.6601
 8505TIP3   OH225478   4.365   5.564   4.486  0.1687 -0.0826 -0.5237
 8505TIP3    H125479   4.329   5.580   4.574  2.4448  1.1236  0.2806
 8505TIP3    H225480   4.427   5.492   4.498  0.2353 -0.1434 -1.2201
 8506TIP3   OH225481   4.971   3.316   1.849  0.0699  0.1421 -0.5470
 8506TIP3    H125482   4.913   3.388   1.873 -0.5995 -0.7494  0.6586
 8506TIP3    H225483   5.027   3.303   1.926 -0.6191 -1.3583 -0.2623
 8507TIP3   OH225484   1.804   0.211   5.145 -0.1425 -0.0888  0.3108
 8507TIP3    H125485   1.768   0.199   5.233  1.9056  2.5173  1.6679
 8507TIP3    H225486   1.742   0.269   5.102 -0.4587 -0.2599  0.5284
 8508TIP3   OH225487   6.391   4.809   2.627  0.3061 -0.0439 -0.6097
 8508TIP3    H125488   6.398   4.887   2.682 -0.4026  1.4060 -2.4769
 8508TIP3    H225489   6.472   4.808   2.576  0.5482 -0.8491 -0.2227
 8509TIP3   OH225490   1.191   4.579   1.708  0.3657 -0.4463 -0.9105
 8509TIP3    H125491   1.097   4.570   1.724  0.6038 -1.0506  0.2440
 8509TIP3    H225492   1.230   4.503   1.750  1.3194 -0.6143 -2.0503
 8510TIP3   OH225493   5.040   4.686   4.647  0.0786 -0.2758  0.2513
 8510TIP3    H125494   5.075   4.623   4.711  0.5771 -1.3357 -1.0178
 8510TIP3    H225495   4.949   4.700   4.675  0.2521 -0.8023  1.1302
 8511TIP3   OH225496   2.487   6.017   5.119 -0.4250  0.1840  0.4245
 8511TIP3    H125497   2.457   6.078   5.051 -1.4426  1.7792  2.2255
 8511TIP3    H225498   2.445   5.934   5.096  1.5332 -0.1603 -2.4641
 8512TIP3   OH225499   6.534   3.414   1.035 -0.0891 -0.0321  0.2789
 8512TIP3    H125500   6.605   3.468   1.001  0.3376  0.0846  1.3087
 8512TIP3    H225501   6.571   3.327   1.044 -1.2893 -1.0527 -3.1230
 8513TIP3   OH225502   0.113   2.433   4.215 -0.7010  0.0397 -0.0520
 8513TIP3    H125503   0.069   2.349   4.223  0.7229 -0.5861  2.4974
 8513TIP3    H225504   0.101   2.475   4.301  1.6030  0.8160 -0.0268
 8514TIP3   OH225505   6.897   3.595   0.726  0.3155  0.1422  0.1708
 8514TIP3    H125506   6.905   3.659   0.797  2.5893  1.0803 -0.8446
 8514TIP3    H225507   6.881   3.648   0.648 -0.9602 -0.7893 -0.2170
 8515TIP3   OH225508   2.973   0.987   1.894  0.1963  0.5530 -0.6147
 8515TIP3    H125509   3.041   0.980   1.826 -0.5177 -0.4899 -1.2661
 8515TIP3    H225510   2.904   1.038   1.853 -1.0271 -1.5978 -1.4274
 8516TIP3   OH225511   4.737   5.348   3.377  0.5809  0.0547  0.0030
 8516TIP3    H125512   4.768   5.338   3.287  0.0332 -0.8810 -0.0918
 8516TIP3    H225513   4.675   5.276   3.389 -0.8661  1.3477  0.4938
 8517TIP3   OH225514   5.023   1.801   3.852 -0.5731 -0.5045 -0.0878
 8517TIP3    H125515   5.117   1.806   3.836 -0.2865 -2.3146  0.8028
 8517TIP3    H225516   4.998   1.889   3.879  0.8753 -0.0159 -0.2765
 8518TIP3   OH225517   2.806   2.238   0.969  0.3425 -0.0632 -0.1692
 8518TIP3    H125518   2.758   2.277   1.042 -0.6065 -0.6645 -0.4492
 8518TIP3    H225519   2.817   2.309   0.907 -4.0530 -0.7165 -2.0716
 8519TIP3   OH225520   2.409   2.792   5.329  0.0333  0.2537  0.0715
 8519TIP3    H125521   2.421   2.872   5.279 -0.3627  0.2808  0.0101
 8519TIP3    H225522   2.421   2.818   5.421  1.4024  0.0737 -0.0355
 8520TIP3   OH225523   0.126   2.832   1.296 -0.6103 -0.1992 -0.3623
 8520TIP3    H125524   0.158   2.901   1.238 -0.5756 -0.0864 -0.2097
 8520TIP3    H225525   0.074   2.878   1.362  0.8703 -0.1022  0.7890
 8521TIP3   OH225526   5.969   0.034   3.371 -0.1299  0.1466 -0.1670
 8521TIP3    H125527   5.995   0.122   3.345  0.3161  0.0121 -0.1862
 8521TIP3    H225528   6.042   0.002   3.424 -0.6814  0.1222  0.5966
 8522TIP3   OH225529   7.189   4.829   1.363  0.0847 -0.1721  0.3163
 8522TIP3    H125530   7.209   4.737   1.345  1.8969  0.4386 -1.1302
 8522TIP3    H225531   7.183   4.870   1.277 -0.1007  1.1846  0.9445
 8523TIP3   OH225532   0.244   0.232   1.194 -0.3131 -0.2429  0.4652
 8523TIP3    H125533   0.312   0.276   1.142 -0.1501 -1.4634 -0.4116
 8523TIP3    H225534   0.221   0.295   1.262  0.6069  0.7935 -0.1458
 8524TIP3   OH225535   7.227   3.444   2.635 -0.4127  0.4107  0.2574
 8524TIP3    H125536   7.168   3.424   2.562 -0.6378  0.2036  0.4940
 8524TIP3    H225537   7.190   3.396   2.709  2.4694 -3.4567 -0.5137
 8525TIP3   OH225538   3.812   0.336   5.023  0.6527  0.2987  0.1143
 8525TIP3    H125539   3.865   0.415   5.029  0.2655  0.4830  1.4141
 8525TIP3    H225540   3.723   0.365   5.042  0.4568 -0.3930  0.2746
 8526TIP3   OH225541   4.565   0.251   0.812 -0.5009  0.1034 -0.1505
 8526TIP3    H125542   4.612   0.213   0.887  0.7702  0.2576 -0.8339
 8526TIP3    H225543   4.484   0.201   0.807  0.2429 -1.1938  0.1815
 8527TIP3   OH225544   0.720   5.984   4.513 -0.5401  1.1315  0.1482
 8527TIP3    H125545   0.702   5.919   4.581 -1.2018  0.1771 -0.8931
 8527TIP3    H225546   0.802   6.025   4.538 -1.7074  2.2035  2.5620
 8528TIP3   OH225547   1.701   3.817   4.376 -0.6522 -0.1319  0.2888
 8528TIP3    H125548   1.709   3.723   4.388 -1.0352 -0.0922  0.8943
 8528TIP3    H225549   1.608   3.832   4.356 -1.1904  0.3551  2.7976
 8529TIP3   OH225550   1.639   1.255   2.366 -0.2423 -0.2667  0.3976
 8529TIP3    H125551   1.553   1.297   2.364 -0.2108 -0.2192 -0.9860
 8529TIP3    H225552   1.623   1.165   2.337 -0.0901 -0.8245  1.9618
 8530TIP3   OH225553   1.027   4.697   3.801 -0.4796  0.2971 -0.0278
 8530TIP3    H125554   0.971   4.629   3.838 -0.8754  1.6809  2.1305
 8530TIP3    H225555   0.966   4.756   3.757 -0.3645  0.2323 -0.2731
 8531TIP3   OH225556   6.501   5.298   2.782 -0.0115  0.4357  0.3077
 8531TIP3    H125557   6.594   5.313   2.800 -0.4670  2.6922  1.0609
 8531TIP3    H225558   6.497   5.283   2.687  1.1996 -0.7565  0.4132
 8532TIP3   OH225559   3.316   1.700   0.890  0.1648 -0.0946  0.3315
 8532TIP3    H125560   3.398   1.658   0.864  0.5841 -0.0921  1.5706
 8532TIP3    H225561   3.332   1.794   0.881 -0.1448 -0.1336 -0.6639
 8533TIP3   OH225562   5.670   1.038   2.454  0.3204  0.0385  0.3342
 8533TIP3    H125563   5.639   1.128   2.460 -1.7095 -0.6089  0.1390
 8533TIP3    H225564   5.656   1.001   2.541 -2.8865 -1.2414 -0.5674
 8534TIP3   OH225565   6.706   4.920   5.452 -0.5196  0.1437  0.6564
 8534TIP3    H125566   6.689   4.972   5.374 -2.4383  0.6006  1.3189
 8534TIP3    H225567   6.707   4.829   5.421 -1.6949  0.2905  0.1510
 8535TIP3   OH225568   6.651   3.170   1.097 -0.3433 -0.1998  0.2952
 8535TIP3    H125569   6.667   3.081   1.065 -1.8362 -0.1723 -0.6296
 8535TIP3    H225570   6.616   3.158   1.185  1.1124 -0.4176  0.8698
 8536TIP3   OH225571   7.195   6.771   2.027 -0.5120  0.1475  0.6655
 8536TIP3    H125572   7.171   6.698   2.085  0.6055 -2.0398 -1.4416
 8536TIP3    H225573   7.158   6.748   1.942 -1.5450  2.9417  0.2650
 8537TIP3   OH225574   6.345   5.800   4.671  0.3701 -0.0817 -0.3199
 8537TIP3    H125575   6.437   5.796   4.699 -0.1708 -1.0590  1.4780
 8537TIP3    H225576   6.344   5.758   4.585  1.8243  1.3322 -1.0781
 8538TIP3   OH225577   5.824   6.472   5.599 -0.4387  0.2567  0.1338
 8538TIP3    H125578   5.748   6.454   5.544 -0.3828  1.4959 -0.3679
 8538TIP3    H225579   5.878   6.393   5.591 -0.5076  0.3433 -1.4717
 8539TIP3   OH225580   6.067   0.976   4.136  0.0351 -0.2165  0.2520
 8539TIP3    H125581   6.015   0.916   4.083 -0.8402  1.6080 -1.0768
 8539TIP3    H225582   6.013   0.995   4.213 -0.1079 -0.3526  0.1840
 8540TIP3   OH225583   3.443   2.908   3.750 -0.3000  0.7076  0.0420
 8540TIP3    H125584   3.481   2.928   3.835  0.0041  0.3859 -0.0157
 8540TIP3    H225585   3.491   2.830   3.720  0.4236  1.5201 -0.9577
 8541TIP3   OH225586   2.435   2.823   5.598 -0.4989 -0.2359 -0.0612
 8541TIP3    H125587   2.445   2.738   5.642  1.3933 -0.0308 -0.0077
 8541TIP3    H225588   2.498   2.880   5.642 -2.8006  1.6880  0.9502
 8542TIP3   OH225589   4.514   3.313   4.042 -0.3141  0.4112 -0.0232
 8542TIP3    H125590   4.455   3.252   4.087 -1.8810  1.8353 -0.0351
 8542TIP3    H225591   4.573   3.257   3.992 -1.1309 -1.1070  0.6399
 8543TIP3   OH225592   3.303   3.174   2.961 -0.3415 -0.0168 -0.8950
 8543TIP3    H125593   3.371   3.203   3.021  0.2690 -1.5494 -0.7865
 8543TIP3    H225594   3.281   3.085   2.990  0.1653 -0.9376 -3.0511
 8544TIP3   OH225595   3.400   3.960   3.103  0.4993 -0.4239  0.1612
 8544TIP3    H125596   3.391   3.991   3.193 -2.2884 -2.1565  0.6106
 8544TIP3    H225597   3.367   4.031   3.049 -2.3322 -1.0557  0.9142
 8545TIP3   OH225598   5.174   4.762   2.054 -0.9468  0.7604 -0.3274
 8545TIP3    H125599   5.221   4.693   2.099  0.6075  0.9112 -1.6316
 8545TIP3    H225600   5.117   4.800   2.121 -0.1691 -0.2853  0.9734
 8546TIP3   OH225601   4.204   5.620   0.532  0.4147  0.0026 -0.0035
 8546TIP3    H125602   4.261   5.555   0.573 -0.2388 -1.4443 -1.2789
 8546TIP3    H225603   4.122   5.613   0.580 -0.2307 -1.4292 -1.2385
 8547TIP3   OH225604   6.412   5.739   2.282 -0.2149 -0.1831  0.1659
 8547TIP3    H125605   6.395   5.722   2.374 -1.0761 -0.9162 -0.1136
 8547TIP3    H225606   6.363   5.819   2.263  0.7340  0.5092  0.5585
 8548TIP3   OH225607   3.710   0.249   3.114 -0.4215 -0.0335 -0.4817
 8548TIP3    H125608   3.761   0.174   3.082  0.1665 -0.6560  1.7099
 8548TIP3    H225609   3.624   0.212   3.135 -0.6175  0.2362 -0.8052
 8549TIP3   OH225610   5.438   5.286   4.260  0.2003  0.5475 -0.3303
 8549TIP3    H125611   5.438   5.287   4.355  1.3968 -1.1315 -0.2590
 8549TIP3    H225612   5.346   5.299   4.235 -0.6626 -2.0664  1.1715
 8550TIP3   OH225613   0.632   4.306   4.978 -0.0536 -0.7025 -0.6164
 8550TIP3    H125614   0.623   4.268   5.065  0.1020 -1.5002 -0.9317
 8550TIP3    H225615   0.723   4.335   4.973  0.6418 -2.7651 -1.2875
 8551TIP3   OH225616   0.397   4.504   1.923  0.1562 -0.1903  0.5649
 8551TIP3    H125617   0.449   4.458   1.989  2.1366  1.9819  0.6431
 8551TIP3    H225618   0.370   4.435   1.862  0.4704 -1.8610  2.2148
 8552TIP3   OH225619   5.466   0.215   4.227  0.5554  0.0669  0.4786
 8552TIP3    H125620   5.408   0.271   4.279  0.9259 -0.0735  1.0511
 8552TIP3    H225621   5.437   0.227   4.137 -0.3553  0.0116  0.7565
 8553TIP3   OH225622   5.402   0.065   5.767  0.4729  0.1136 -1.2340
 8553TIP3    H125623   5.444   0.096   5.686 -0.5722 -1.4787 -2.4455
 8553TIP3    H225624   5.318   0.029   5.739 -0.1962  0.0638  0.6665
 8554TIP3   OH225625   4.148   2.071   0.150  0.6880  0.1810  0.1887
 8554TIP3    H125626   4.099   2.006   0.200 -0.8777  0.0631 -1.3729
 8554TIP3    H225627   4.122   2.155   0.189  0.9065 -0.0050  0.7348
 8555TIP3   OH225628   3.941   3.240   2.089 -0.0780  0.1767 -0.2178
 8555TIP3    H125629   3.984   3.240   2.174  0.1177 -0.4281 -0.3118
 8555TIP3    H225630   3.939   3.332   2.063  0.4447  0.2952  0.1486
 8556TIP3   OH225631   3.586   5.525   1.740  0.7835  0.0147  0.2341
 8556TIP3    H125632   3.672   5.567   1.750  0.4980  0.3275  1.5707
 8556TIP3    H225633   3.552   5.520   1.829 -0.0279 -1.3143 -0.1386
 8557TIP3   OH225634   1.157   3.560   2.934 -0.2571 -0.6813  0.0218
 8557TIP3    H125635   1.184   3.559   2.843  1.9211  0.6870  0.5988
 8557TIP3    H225636   1.069   3.598   2.933 -0.1790 -0.5115 -1.4655
 8558TIP3   OH225637   0.991   2.599   5.316  0.1435 -0.1058 -0.3553
 8558TIP3    H125638   1.081   2.566   5.325  0.5523  1.2407  0.7841
 8558TIP3    H225639   0.942   2.552   5.384  0.1361 -0.2931 -0.4873
 8559TIP3   OH225640   4.090   6.317   2.673  0.0127 -0.2817  0.1829
 8559TIP3    H125641   4.149   6.247   2.643 -1.4324 -0.8359 -1.5810
 8559TIP3    H225642   4.116   6.334   2.763  0.9491 -2.5446  0.4073
 8560TIP3   OH225643   5.670   2.225   0.376 -0.0393  0.1072  0.0827
 8560TIP3    H125644   5.689   2.318   0.370  0.5130 -0.0816 -2.3630
 8560TIP3    H225645   5.712   2.197   0.457 -1.0909  2.1374  1.4062
 8561TIP3   OH225646   2.348   5.721   5.609 -0.8436 -0.5911  0.1886
 8561TIP3    H125647   2.317   5.780   5.541 -0.9676 -0.9057 -0.0311
 8561TIP3    H225648   2.420   5.673   5.568 -0.2347 -0.0639  0.6048
 8562TIP3   OH225649   5.481   3.158   0.041  0.4413  0.4427  0.1843
 8562TIP3    H125650   5.403   3.176  -0.011  0.7297  0.8155 -0.1299
 8562TIP3    H225651   5.535   3.103  -0.016  1.0608  1.4093 -0.2006
 8563TIP3   OH225652   6.780   4.205   3.979 -0.1365 -0.4143  0.5257
 8563TIP3    H125653   6.815   4.212   4.068 -1.1694  0.2365  0.9060
 8563TIP3    H225654   6.820   4.126   3.944  0.1949 -0.7558  1.6168
 8564TIP3   OH225655   2.547   1.268   1.351  0.3320 -0.0314  0.2681
 8564TIP3    H125656   2.560   1.194   1.292 -0.7942 -0.4471  0.5080
 8564TIP3    H225657   2.484   1.325   1.306  2.2356  1.5320 -0.5492
 8565TIP3   OH225658   3.406   1.079   4.717 -0.2894  0.5827 -0.0582
 8565TIP3    H125659   3.415   1.080   4.813 -0.5095  0.1899 -0.0334
 8565TIP3    H225660   3.329   1.025   4.701 -0.2962  0.7107 -0.4577
 8566TIP3   OH225661   6.472   3.349   1.901  0.3524  0.0537 -0.1778
 8566TIP3    H125662   6.487   3.310   1.987  2.1650  1.0374 -0.0142
 8566TIP3    H225663   6.550   3.327   1.850  1.4402  3.2494 -0.1120
 8567TIP3   OH225664   3.225   4.567   1.170 -0.3619  0.0944  0.1231
 8567TIP3    H125665   3.186   4.552   1.084 -0.1821 -0.6632  0.1664
 8567TIP3    H225666   3.311   4.604   1.152 -0.2973 -0.1288 -0.0286
 8568TIP3   OH225667   5.196   1.143   5.388 -0.6172  0.1116 -0.1461
 8568TIP3    H125668   5.191   1.163   5.481  0.8816  0.9395 -0.2286
 8568TIP3    H225669   5.233   1.055   5.384 -0.8616 -0.0003  0.0355
 8569TIP3   OH225670   1.859   4.725   5.576  0.3975 -0.2372  0.2923
 8569TIP3    H125671   1.924   4.775   5.626 -1.4737  0.4630  2.1701
 8569TIP3    H225672   1.812   4.674   5.642 -0.9251 -0.7758 -1.0091
 8570TIP3   OH225673   3.479   4.566   3.957 -0.6932  1.1690 -0.5559
 8570TIP3    H125674   3.427   4.563   3.877  0.6576  2.1889 -1.5163
 8570TIP3    H225675   3.561   4.523   3.934 -0.9725 -0.2488  0.8758
 8571TIP3   OH225676   1.968   2.896   3.610 -0.0400  0.0529  0.0018
 8571TIP3    H125677   2.006   2.983   3.603 -0.1349  0.2705  1.8069
 8571TIP3    H225678   1.889   2.899   3.557  1.1001  0.3601 -1.7520
 8572TIP3   OH225679   2.795   6.652   2.520  0.6998 -0.4670 -0.0077
 8572TIP3    H125680   2.721   6.646   2.460  1.6669 -1.7064 -1.1218
 8572TIP3    H225681   2.855   6.713   2.477  2.0276 -2.4211 -1.0825
 8573TIP3   OH225682   5.321   0.258   1.403  0.6226  0.4829  0.0397
 8573TIP3    H125683   5.326   0.213   1.319 -0.7182  1.6318 -0.6912
 8573TIP3    H225684   5.331   0.350   1.382 -3.2070  1.2085  0.5770
 8574TIP3   OH225685   4.938   3.514   5.548 -0.1019 -0.3921  0.3856
 8574TIP3    H125686   4.882   3.590   5.535 -2.0698 -2.0005 -1.2791
 8574TIP3    H225687   4.882   3.450   5.592  1.1876 -1.2551  0.8312
 8575TIP3   OH225688   4.214   3.571   3.267 -0.1833  0.2109 -0.0186
 8575TIP3    H125689   4.126   3.541   3.244 -0.9542  1.9204  0.5598
 8575TIP3    H225690   4.247   3.612   3.186 -0.3384  0.5081  0.0689
 8576TIP3   OH225691   5.579   5.699   4.484 -0.4719 -0.3243  0.3881
 8576TIP3    H125692   5.487   5.676   4.495 -0.2894 -0.9005  0.8020
 8576TIP3    H225693   5.604   5.658   4.401 -0.5971 -0.1409  0.2603
 8577TIP3   OH225694   2.288   2.491   5.540  0.2787 -0.4514  0.4298
 8577TIP3    H125695   2.205   2.534   5.561 -0.7806 -2.3859  0.4052
 8577TIP3    H225696   2.342   2.504   5.618 -0.5281 -0.2938  0.9770
 8578TIP3   OH225697   3.320   5.464   5.343  0.1040  0.1315 -0.3588
 8578TIP3    H125698   3.289   5.464   5.434  0.2188  2.9491 -0.2334
 8578TIP3    H225699   3.415   5.479   5.351  0.4182 -1.3759 -0.9375
 8579TIP3   OH225700   0.235   3.949   4.460 -0.1640 -0.4625 -0.2352
 8579TIP3    H125701   0.243   4.044   4.470 -0.3875 -0.4991  0.2731
 8579TIP3    H225702   0.181   3.937   4.382 -0.3083 -0.1738 -0.1775
 8580TIP3   OH225703   4.406   2.993   3.765 -0.1920 -0.0918 -0.6614
 8580TIP3    H125704   4.404   3.004   3.670 -1.5559  0.7660 -0.5601
 8580TIP3    H225705   4.462   3.064   3.796 -1.3963  0.8987 -0.6969
 8581TIP3   OH225706   6.919   3.202   5.482 -0.4861  0.0083  0.0844
 8581TIP3    H125707   6.857   3.160   5.542 -2.1398 -1.1438 -2.2559
 8581TIP3    H225708   6.909   3.295   5.499 -0.9014 -0.2760  1.5580
 8582TIP3   OH225709   6.341   2.174   0.093 -0.3173  0.0625  0.1109
 8582TIP3    H125710   6.396   2.216   0.160 -2.0538  0.1864  1.5323
 8582TIP3    H225711   6.350   2.081   0.109  1.0001 -0.0257 -0.9618
 8583TIP3   OH225712   0.736   3.959   5.272  0.0754 -0.4034  0.0043
 8583TIP3    H125713   0.704   4.047   5.294 -3.0624 -1.9360  2.3224
 8583TIP3    H225714   0.680   3.932   5.198  0.0210 -0.9830  0.2586
 8584TIP3   OH225715   4.542   0.727   2.568 -0.2493  0.1673 -0.5646
 8584TIP3    H125716   4.497   0.647   2.542 -0.0274 -0.6049  1.2302
 8584TIP3    H225717   4.599   0.700   2.641 -0.0820  1.9312  0.0149
 8585TIP3   OH225718   3.556   2.165   0.503 -0.2480 -0.0494  0.9599
 8585TIP3    H125719   3.644   2.139   0.476 -0.3380 -1.0937  1.6169
 8585TIP3    H225720   3.503   2.153   0.423  0.2177  0.7036  0.5299
 8586TIP3   OH225721   2.903   2.130   4.861  0.2680  0.3482 -0.0632
 8586TIP3    H125722   2.875   2.208   4.814 -2.0144 -0.0215  0.5450
 8586TIP3    H225723   2.916   2.063   4.794 -3.8333 -0.4446 -0.3285
 8587TIP3   OH225724   6.232   2.958   3.273 -0.1303 -0.0195  0.9667
 8587TIP3    H125725   6.155   3.014   3.276 -0.6368 -0.5325 -1.0207
 8587TIP3    H225726   6.207   2.879   3.320 -0.6053  0.0734  0.8706
 8588TIP3   OH225727   6.185   2.333   1.929  0.4682  0.2157  0.1275
 8588TIP3    H125728   6.202   2.303   1.840 -0.0017  0.0285  0.0991
 8588TIP3    H225729   6.223   2.421   1.933  0.6952  0.1317 -0.1846
 8589TIP3   OH225730   4.407   5.052   4.176 -0.8660 -0.3805 -0.2606
 8589TIP3    H125731   4.496   5.089   4.175 -0.3348 -1.5032  1.3732
 8589TIP3    H225732   4.364   5.092   4.100  1.8291 -1.7986 -2.7508
 8590TIP3   OH225733   1.813   1.280   5.066 -0.3535  0.3694  0.2470
 8590TIP3    H125734   1.786   1.364   5.102 -0.5511 -0.4889  2.1880
 8590TIP3    H225735   1.734   1.244   5.027 -0.0457  1.4799 -1.5629
 8591TIP3   OH225736   1.779   5.292   4.416 -0.1457  0.6626  0.2214
 8591TIP3    H125737   1.785   5.207   4.373 -0.7786  0.3293  0.7659
 8591TIP3    H225738   1.868   5.308   4.449 -0.0919  0.0517  0.4004
 8592TIP3   OH225739   3.883   1.448   5.643 -0.5637  0.0559 -0.2735
 8592TIP3    H125740   3.889   1.533   5.686 -1.7722 -1.0949  2.4713
 8592TIP3    H225741   3.791   1.438   5.621 -1.1718 -1.7853  2.5660
 8593TIP3   OH225742   4.743   2.182   4.226 -0.2786 -0.4718  0.0636
 8593TIP3    H125743   4.702   2.251   4.278 -1.8621 -1.0218 -0.3843
 8593TIP3    H225744   4.836   2.203   4.227 -0.7093  1.7330 -0.1237
 8594TIP3   OH225745   4.914   1.468   2.927  0.0607  0.5599  0.2501
 8594TIP3    H125746   4.874   1.422   3.001  1.5147  1.1824  1.4728
 8594TIP3    H225747   4.952   1.547   2.966  1.2214  0.6908 -1.0794
 8595TIP3   OH225748   3.101   1.835   2.751 -0.2381 -0.4123  0.8246
 8595TIP3    H125749   3.136   1.924   2.754  0.1182 -0.5439  0.5758
 8595TIP3    H225750   3.174   1.781   2.723 -0.3802 -0.8267  1.2462
 8596TIP3   OH225751   4.183   0.683   2.636 -0.0021 -0.2423 -0.0768
 8596TIP3    H125752   4.259   0.628   2.617  0.3519  0.1740  0.1140
 8596TIP3    H225753   4.143   0.642   2.714 -1.1336 -1.6185 -1.3240
 8597TIP3   OH225754   2.171   1.066   0.104 -0.4970  0.1781  0.2401
 8597TIP3    H125755   2.240   1.041   0.166 -0.7122  0.9640  0.8170
 8597TIP3    H225756   2.109   0.993   0.106  0.7967 -1.0261 -1.0590
 8598TIP3   OH225757   4.475   0.242   4.680 -0.0669 -0.0323  0.0633
 8598TIP3    H125758   4.384   0.222   4.702 -0.6027  0.5849 -1.4492
 8598TIP3    H225759   4.487   0.205   4.593  1.1331 -0.0967  0.2498
 8599TIP3   OH225760   1.659   1.929   4.181  0.0157  0.2448 -0.2768
 8599TIP3    H125761   1.637   1.890   4.097  0.6063  1.0090 -0.8044
 8599TIP3    H225762   1.731   1.990   4.161  0.8503 -0.2971  0.9402
 8600TIP3   OH225763   7.019   6.113   0.093  0.1567  0.3149 -0.0026
 8600TIP3    H125764   7.015   6.181   0.160 -0.4842  0.5635 -0.2810
 8600TIP3    H225765   6.948   6.135   0.033 -0.0443 -0.5943 -0.1055
 8601TIP3   OH225766   6.294   1.037   3.454  0.0258 -0.3997 -0.2896
 8601TIP3    H125767   6.306   1.038   3.549  2.7564 -0.6357 -0.5553
 8601TIP3    H225768   6.251   1.121   3.435 -1.2470 -0.6652  1.1764
 8602TIP3   OH225769   2.868   3.278   1.129 -0.1702 -0.0962  0.4165
 8602TIP3    H125770   2.797   3.263   1.067  0.3323  2.1843 -0.8365
 8602TIP3    H225771   2.948   3.267   1.078  0.3591 -0.8276  1.3591
 8603TIP3   OH225772   7.032   2.403   5.616 -0.0015  0.0282 -0.3431
 8603TIP3    H125773   7.004   2.330   5.561 -0.4526 -0.4929  0.5601
 8603TIP3    H225774   6.951   2.447   5.640  0.1059 -0.2575  0.5898
 8604TIP3   OH225775   3.205   2.102   4.500  0.0766 -0.2067  0.1104
 8604TIP3    H125776   3.198   2.053   4.418  1.5349 -1.8158  0.8983
 8604TIP3    H225777   3.126   2.079   4.549 -0.8234  0.7936 -0.7976
 8605TIP3   OH225778   4.535   4.919   0.566 -0.2576  0.2442  0.2024
 8605TIP3    H125779   4.506   4.983   0.501  0.8932  1.8685  1.2134
 8605TIP3    H225780   4.573   4.848   0.515 -0.7820  0.7524 -0.9293
 8606TIP3   OH225781   4.474   2.902   5.782 -0.3174  0.1552 -0.2114
 8606TIP3    H125782   4.491   2.823   5.731  0.0472 -0.4797  0.8586
 8606TIP3    H225783   4.441   2.965   5.718 -0.2249 -0.7248 -1.1578
 8607TIP3   OH225784   1.460   2.254   5.820 -0.1319  0.5874  0.9400
 8607TIP3    H125785   1.541   2.254   5.870  0.0267 -1.7804  0.7818
 8607TIP3    H225786   1.464   2.334   5.767  2.9857 -0.3192 -0.4396
 8608TIP3   OH225787   3.270   0.566   2.687 -0.4927 -0.2710 -0.1232
 8608TIP3    H125788   3.236   0.492   2.636  1.0609 -1.6456  0.7383
 8608TIP3    H225789   3.365   0.560   2.677 -0.2817  0.8694  0.9955
 8609TIP3   OH225790   4.563   5.292   2.004  0.4239  0.3248  0.3607
 8609TIP3    H125791   4.545   5.312   1.912  0.1565 -1.8802 -0.1420
 8609TIP3    H225792   4.658   5.284   2.009  0.6004  2.3440  0.7520
 8610TIP3   OH225793   1.807   4.910   2.535  0.5789 -0.0691 -0.2366
 8610TIP3    H125794   1.780   4.927   2.445  2.8608 -0.3482 -1.0459
 8610TIP3    H225795   1.749   4.964   2.588  0.2096  1.3493 -1.9785
 8611TIP3   OH225796   6.492   4.680   3.037 -0.7105  0.2375 -0.2220
 8611TIP3    H125797   6.397   4.672   3.037 -0.8227  1.4204  0.1243
 8611TIP3    H225798   6.508   4.774   3.030  0.4060  0.2796  2.1059
 8612TIP3   OH225799   7.160   6.541   4.865 -0.4006 -0.1431 -0.6723
 8612TIP3    H125800   7.157   6.497   4.951  0.2664  0.0736 -0.5271
 8612TIP3    H225801   7.153   6.469   4.802  0.8991 -0.5136 -0.4350
 8613TIP3   OH225802   2.461   5.324   1.896 -0.2024 -0.1834  0.0667
 8613TIP3    H125803   2.546   5.288   1.871 -0.6942 -0.4152 -1.3159
 8613TIP3    H225804   2.422   5.354   1.814 -0.5592  1.9302  0.9463
 8614TIP3   OH225805   4.033   5.974   0.257  0.0113  0.0001 -0.4599
 8614TIP3    H125806   4.031   6.067   0.233  3.8194  0.4476  0.3673
 8614TIP3    H225807   4.058   5.974   0.349  0.1471 -1.8779 -0.4660
 8615TIP3   OH225808   6.717   2.453   4.292 -0.7754 -0.1513  0.1339
 8615TIP3    H125809   6.671   2.486   4.215 -0.8973  0.2750  0.3816
 8615TIP3    H225810   6.648   2.410   4.344 -0.8262  0.1519  0.3222
 8616TIP3   OH225811   4.200   3.670   0.416  0.3033  0.6731 -0.3828
 8616TIP3    H125812   4.143   3.657   0.340  0.9630  0.1019 -0.7878
 8616TIP3    H225813   4.149   3.638   0.490  1.2986 -3.1259 -1.1451
 8617TIP3   OH225814   5.926   1.464   1.067 -1.0333 -0.2341 -0.5712
 8617TIP3    H125815   5.873   1.461   0.988 -0.9716  1.4616 -0.7234
 8617TIP3    H225816   5.985   1.538   1.053  0.2302 -1.0442  0.2982
 8618TIP3   OH225817   2.211   6.222   1.556 -0.4120 -0.0222  0.2563
 8618TIP3    H125818   2.232   6.315   1.549  1.5118 -0.3891  0.6942
 8618TIP3    H225819   2.163   6.202   1.475 -1.0309  1.3753  0.2607
 8619TIP3   OH225820   0.756   3.132   2.044  0.3170 -0.0782  0.0451
 8619TIP3    H125821   0.827   3.135   2.109  0.6516  1.3723 -0.3469
 8619TIP3    H225822   0.676   3.126   2.097  0.5886  1.0271  0.6234
 8620TIP3   OH225823   4.479   2.401   5.040 -0.1530 -1.1370 -0.4182
 8620TIP3    H125824   4.392   2.430   5.066  0.6245  0.6891  0.3056
 8620TIP3    H225825   4.515   2.357   5.117  0.2826 -0.1619 -0.0583
 8621TIP3   OH225826   3.514   6.395   3.333 -0.1444  0.5555  0.5886
 8621TIP3    H125827   3.562   6.319   3.302  0.0197  0.2649  1.5138
 8621TIP3    H225828   3.517   6.388   3.429 -0.5831  1.4374  0.6799
 8622TIP3   OH225829   2.880   1.525   2.880  0.1557  0.0800  0.2598
 8622TIP3    H125830   2.862   1.560   2.793  2.1881 -0.1005 -0.2878
 8622TIP3    H225831   2.917   1.439   2.865  0.9714  0.2316  1.2629
 8623TIP3   OH225832   0.452   5.221   2.017  0.1023 -0.1289 -0.3509
 8623TIP3    H125833   0.531   5.240   2.068  0.0445  1.4438 -0.8002
 8623TIP3    H225834   0.418   5.140   2.055  1.9956 -0.9403 -0.2403
 8624TIP3   OH225835   0.850   6.111   5.075  0.3758 -0.1624  0.8770
 8624TIP3    H125836   0.875   6.029   5.117 -0.7619 -0.4228  1.0787
 8624TIP3    H225837   0.930   6.141   5.032  0.4182 -2.2496 -0.6750
 8625TIP3   OH225838   6.574   5.776   0.335  0.0738  0.1236  0.5563
 8625TIP3    H125839   6.481   5.791   0.318  0.0136  1.1107  1.5972
 8625TIP3    H225840   6.618   5.851   0.294  0.5541 -0.9303 -0.9501
 8626TIP3   OH225841   2.277   6.017   0.166 -0.5015 -0.6168 -0.2530
 8626TIP3    H125842   2.236   6.025   0.252 -1.1331  1.4757 -0.6911
 8626TIP3    H225843   2.207   6.041   0.104 -0.0304 -1.9750 -1.3697
 8627TIP3   OH225844   1.826   5.831   3.211 -0.6891  0.7535 -0.1633
 8627TIP3    H125845   1.859   5.750   3.249 -0.0337  1.2396  0.3158
 8627TIP3    H225846   1.845   5.823   3.118 -1.7213 -0.1612 -0.3219
 8628TIP3   OH225847   0.193   0.579   0.942  0.0075 -0.4164  0.0850
 8628TIP3    H125848   0.233   0.524   1.009  0.7674  0.8972  0.7626
 8628TIP3    H225849   0.264   0.593   0.878 -0.0945 -0.0387  0.0506
 8629TIP3   OH225850   2.313   5.850   5.372 -0.5164 -0.2942 -0.4963
 8629TIP3    H125851   2.225   5.858   5.335  0.1002  1.0556 -1.7560
 8629TIP3    H225852   2.349   5.938   5.367  0.7580 -0.7378  0.4389
 8630TIP3   OH225853   3.977   6.449   2.953 -0.0143  0.2142  0.4405
 8630TIP3    H125854   4.072   6.445   2.964 -0.0077  1.5642  1.0743
 8630TIP3    H225855   3.962   6.531   2.906 -0.7610 -0.8310 -1.2396
 8631TIP3   OH225856   1.676   3.475   1.558  0.1253  0.5657 -0.0727
 8631TIP3    H125857   1.609   3.416   1.524  0.9507 -0.0403 -0.6958
 8631TIP3    H225858   1.631   3.559   1.568 -0.6717  0.2270 -0.6936
 8632TIP3   OH225859   5.865   4.297   2.075  0.5077  0.4205  0.5534
 8632TIP3    H125860   5.883   4.232   2.143  0.5775  0.2173  0.3387
 8632TIP3    H225861   5.886   4.253   1.993  0.2522  0.6085  0.3868
 8633TIP3   OH225862   1.339   0.026   2.489  0.3720 -0.0942  0.2922
 8633TIP3    H125863   1.289  -0.055   2.474 -0.6512  0.4266  0.8082
 8633TIP3    H225864   1.343   0.034   2.584 -0.3513  0.9447  0.2461
 8634TIP3   OH225865   1.392   6.768   5.626  0.0559  0.2062 -0.8328
 8634TIP3    H125866   1.389   6.823   5.705 -0.1554 -1.7186  0.5828
 8634TIP3    H225867   1.470   6.797   5.580  1.8289 -0.4007  1.5520
 8635TIP3   OH225868   6.564   2.742   4.801  0.0522 -0.0777  0.3978
 8635TIP3    H125869   6.546   2.696   4.883 -2.0404  2.6277  1.6070
 8635TIP3    H225870   6.651   2.779   4.812  0.5621 -1.2611  0.5576
 8636TIP3   OH225871   2.407   5.167   5.045 -0.3212 -0.2254  0.1284
 8636TIP3    H125872   2.490   5.145   5.004 -0.6461 -1.7763  0.2699
 8636TIP3    H225873   2.430   5.231   5.112  0.3348  1.7299 -1.8171
 8637TIP3   OH225874   0.210   5.303   4.351 -0.3918  0.4299  0.8266
 8637TIP3    H125875   0.276   5.307   4.420 -0.0090 -0.8616  0.5734
 8637TIP3    H225876   0.138   5.358   4.382 -0.1967 -0.0638  2.2076
 8638TIP3   OH225877   4.291   6.725   4.249 -0.3545  0.0613  0.2082
 8638TIP3    H125878   4.288   6.659   4.318 -1.2081  0.3362  0.4394
 8638TIP3    H225879   4.211   6.711   4.198  0.2325 -0.1066 -0.7137
 8639TIP3   OH225880   6.764   2.936   1.013 -0.5183  0.1067 -0.3526
 8639TIP3    H125881   6.833   2.895   1.064 -0.8678  0.9456  0.8546
 8639TIP3    H225882   6.791   2.925   0.922 -0.1435 -1.9167 -0.0477
 8640TIP3   OH225883   2.770   1.797   4.576 -0.0940  0.4333  0.0216
 8640TIP3    H125884   2.741   1.800   4.485  1.1338  0.3782 -0.4002
 8640TIP3    H225885   2.691   1.813   4.627 -0.8751  0.0938 -1.0394
 8641TIP3   OH225886   3.227   0.164   1.991  0.1301 -0.0468  0.0646
 8641TIP3    H125887   3.311   0.156   1.946  0.3401  1.7991  0.0497
 8641TIP3    H225888   3.164   0.123   1.931  0.8643 -0.5165 -0.4054
 8642TIP3   OH225889   3.940   0.110   3.005  0.8371  0.3373  0.5980
 8642TIP3    H125890   3.949   0.015   3.014 -2.5642 -0.1572 -0.0526
 8642TIP3    H225891   3.916   0.122   2.913  0.6244  1.7716  0.8278
 8643TIP3   OH225892   4.097   5.005   5.591  0.2879  0.1112 -0.1569
 8643TIP3    H125893   4.068   4.926   5.544 -0.0531  0.1663 -0.0407
 8643TIP3    H225894   4.018   5.039   5.632  0.1846  1.2183 -1.2109
 8644TIP3   OH225895   7.053   0.197   5.280  0.0929 -0.1951  0.0276
 8644TIP3    H125896   7.147   0.178   5.285  0.7194  2.2905 -0.9133
 8644TIP3    H225897   7.034   0.245   5.361 -0.0230  0.5710 -0.4471
 8645TIP3   OH225898   0.174   4.448   0.453  0.1917 -0.0776  0.1499
 8645TIP3    H125899   0.210   4.490   0.375  0.3956 -0.6508 -0.0709
 8645TIP3    H225900   0.125   4.517   0.497  1.5406  0.7156  0.4467
 8646TIP3   OH225901   1.594   1.861   1.951 -0.4947  0.4180 -0.2935
 8646TIP3    H125902   1.600   1.950   1.916 -2.7161  0.9612  0.5666
 8646TIP3    H225903   1.574   1.806   1.875  0.9248  0.5902 -0.8339
 8647TIP3   OH225904   4.794   1.670   3.840  0.0988  0.3285  0.0984
 8647TIP3    H125905   4.840   1.587   3.851  0.5316  0.6997  1.2447
 8647TIP3    H225906   4.863   1.737   3.843 -0.5308  0.9710  2.9472
 8648TIP3   OH225907   5.107   2.815   1.067 -0.8531 -0.3630  0.1201
 8648TIP3    H125908   5.052   2.739   1.086 -0.0199 -0.6260  1.6611
 8648TIP3    H225909   5.146   2.796   0.981  0.2882 -2.3071  0.9938
 8649TIP3   OH225910   6.757   6.498   1.614  0.1397  0.4885 -0.4354
 8649TIP3    H125911   6.840   6.482   1.659  0.0698 -0.5227 -0.6556
 8649TIP3    H225912   6.781   6.507   1.522 -0.2134 -2.1144 -0.8457
 8650TIP3   OH225913   0.730   1.714   5.379  0.0491 -0.2713  0.7546
 8650TIP3    H125914   0.674   1.636   5.373  1.3358 -1.1361 -2.3172
 8650TIP3    H225915   0.809   1.683   5.424  0.3205 -0.6254  0.0536
 8651TIP3   OH225916   5.005   1.023   1.151 -0.0959 -1.0763 -0.0286
 8651TIP3    H125917   4.940   0.987   1.211 -1.7872  3.3497  1.1964
 8651TIP3    H225918   4.975   0.997   1.064 -1.6502 -1.7744  0.6913
 8652TIP3   OH225919   4.328   1.625   3.180  0.4350 -0.5584  0.5639
 8652TIP3    H125920   4.259   1.655   3.120  1.6349  0.3123 -0.4374
 8652TIP3    H225921   4.327   1.530   3.171  2.2296 -0.4243 -2.9036
 8653TIP3   OH225922   6.658   6.612   4.126 -0.0477 -0.1879 -0.3385
 8653TIP3    H125923   6.744   6.637   4.158 -0.6794 -0.9041  2.1352
 8653TIP3    H225924   6.669   6.602   4.032  1.8571  2.5251 -0.5186
 8654TIP3   OH225925   5.335   2.680   5.515  0.1796 -0.0267  0.3723
 8654TIP3    H125926   5.337   2.707   5.424  2.2309 -1.3771 -0.0496
 8654TIP3    H225927   5.271   2.609   5.518 -1.4688  1.4028  0.4713
 8655TIP3   OH225928   6.918   3.120   0.545 -0.5595 -0.2574  0.3857
 8655TIP3    H125929   6.966   3.200   0.565  0.0948 -0.7516  0.8470
 8655TIP3    H225930   6.968   3.079   0.474 -0.9402 -0.2145  0.0908
 8656TIP3   OH225931   6.504   0.850   3.291 -0.3357 -0.7387  0.2101
 8656TIP3    H125932   6.431   0.907   3.314 -1.3756 -1.5586 -0.9228
 8656TIP3    H225933   6.501   0.780   3.356 -0.5800 -0.7854  0.1493
 8657TIP3   OH225934   1.718   2.633   5.770  0.2306 -0.4554 -0.0702
 8657TIP3    H125935   1.695   2.689   5.844  1.1426  1.8938 -1.4516
 8657TIP3    H225936   1.635   2.613   5.727 -0.1473 -0.5642  0.7101
 8658TIP3   OH225937   2.236   5.478   4.999  0.0871  0.6505 -0.3408
 8658TIP3    H125938   2.298   5.455   5.069 -0.3545  1.6337  0.4034
 8658TIP3    H225939   2.247   5.409   4.934  1.2974  0.2979  0.1976
 8659TIP3   OH225940   4.148   4.760   3.605  0.4669  0.1272 -0.4031
 8659TIP3    H125941   4.118   4.768   3.515  1.1346  3.1087 -0.4905
 8659TIP3    H225942   4.238   4.728   3.598  1.0264  1.7041 -0.9794
 8660TIP3   OH225943   4.328   2.763   1.686 -0.2617  0.1727  0.1425
 8660TIP3    H125944   4.349   2.673   1.712  0.1748 -0.1283 -1.1379
 8660TIP3    H225945   4.403   2.790   1.633 -0.8179  0.9424 -0.2675
 8661TIP3   OH225946   5.770   1.056   1.520  0.4621 -0.5863 -0.1354
 8661TIP3    H125947   5.824   1.061   1.599 -0.3578 -0.9882  0.4619
 8661TIP3    H225948   5.828   1.086   1.449  1.7188 -1.7468  0.3592
 8662TIP3   OH225949   0.753   6.381   0.569 -0.2517  0.2512  0.2789
 8662TIP3    H125950   0.714   6.299   0.539 -1.3118  1.3168 -1.3917
 8662TIP3    H225951   0.691   6.449   0.543  2.1544  1.9473 -1.5171
 8663TIP3   OH225952   1.369   0.922   5.177 -0.1560 -0.4363 -0.4627
 8663TIP3    H125953   1.274   0.913   5.167 -0.2339 -0.3656  0.1683
 8663TIP3    H225954   1.380   0.987   5.246  0.3542 -0.4429 -0.5339
 8664TIP3   OH225955   1.744   3.642   5.569 -0.4156 -0.5432 -0.2157
 8664TIP3    H125956   1.725   3.716   5.627 -0.9081  0.2213 -1.3060
 8664TIP3    H225957   1.834   3.658   5.539 -0.1042 -1.0237  0.4507
 8665TIP3   OH225958   1.654   5.524   4.309 -0.7253  0.0883 -0.2075
 8665TIP3    H125959   1.679   5.579   4.383 -1.3076  1.4741 -0.9888
 8665TIP3    H225960   1.707   5.445   4.318  0.3428  0.8922  0.8190
 8666TIP3   OH225961   5.762   5.425   2.980 -0.1227  0.2868 -0.1970
 8666TIP3    H125962   5.813   5.487   2.928 -0.4084  0.2250 -0.5595
 8666TIP3    H225963   5.692   5.396   2.921 -1.6009  1.6448  0.8076
 8667TIP3   OH225964   0.191   2.988   2.658 -0.0795  0.1364  0.3062
 8667TIP3    H125965   0.235   2.904   2.664  0.3641  0.3199 -0.2575
 8667TIP3    H225966   0.196   3.011   2.565 -2.9139 -0.6607 -0.1267
 8668TIP3   OH225967   0.009   2.783   0.896 -0.3958  0.9144 -0.7016
 8668TIP3    H125968   0.023   2.736   0.813  0.7340  0.8424 -0.4824
 8668TIP3    H225969   0.093   2.825   0.915 -0.1696 -0.2423  1.1266
 8669TIP3   OH225970   3.422   0.717   0.346  0.0588 -0.9059 -0.3188
 8669TIP3    H125971   3.395   0.703   0.255  0.1693 -1.7668 -0.2255
 8669TIP3    H225972   3.500   0.771   0.339 -1.5316  1.5152 -0.6016
 8670TIP3   OH225973   6.964   3.804   4.138  0.4225 -0.1565 -0.0419
 8670TIP3    H125974   7.036   3.866   4.143  1.0652 -0.8686 -0.3956
 8670TIP3    H225975   6.999   3.722   4.172 -1.1555  0.2558  2.9392
 8671TIP3   OH225976   3.711   0.991   1.094  0.0279 -0.0714 -0.4714
 8671TIP3    H125977   3.697   0.988   1.189  2.1192 -1.0998 -0.1389
 8671TIP3    H225978   3.785   1.050   1.082 -0.8264  0.8175 -1.5803
 8672TIP3   OH225979   0.998   6.397   0.423 -0.1396  0.3264 -0.1733
 8672TIP3    H125980   0.962   6.381   0.336  0.0199 -1.3550  0.0503
 8672TIP3    H225981   0.923   6.388   0.482 -0.4512  2.3778 -0.1587
 8673TIP3   OH225982   1.489   1.791   3.254  0.3927 -0.1961 -0.0815
 8673TIP3    H125983   1.448   1.714   3.217 -1.3075  1.8033 -2.7365
 8673TIP3    H225984   1.535   1.832   3.181  1.0747  1.4075  1.1645
 8674TIP3   OH225985   0.289   5.563   1.145  0.6340 -0.0466 -0.6993
 8674TIP3    H125986   0.339   5.628   1.097 -1.6085  1.5325 -1.0432
 8674TIP3    H225987   0.259   5.501   1.078  0.2370  0.3135 -0.8623
 8675TIP3   OH225988   6.730   3.117   5.676 -0.1494  0.3311 -0.6302
 8675TIP3    H125989   6.711   3.176   5.749  1.0740 -0.6483  0.5383
 8675TIP3    H225990   6.667   3.046   5.685  0.1499  0.0931 -0.3596
 8676TIP3   OH225991   1.797   3.808   1.310 -0.1550  0.3543 -0.4691
 8676TIP3    H125992   1.740   3.799   1.386  0.9058 -0.7467  0.2507
 8676TIP3    H225993   1.805   3.719   1.275 -0.4906  0.8213 -1.7724
 8677TIP3   OH225994   3.030   3.221   3.987  0.0084  0.4680  0.4324
 8677TIP3    H125995   2.939   3.202   3.967 -0.3227  1.7252  0.6603
 8677TIP3    H225996   3.067   3.253   3.905 -0.1015  1.1551  0.6425
 8678TIP3   OH225997   4.271   3.822   2.728 -0.0220  0.0191 -0.4859
 8678TIP3    H125998   4.271   3.781   2.641  1.6694 -0.1356 -0.4394
 8678TIP3    H225999   4.268   3.916   2.709  0.8204  0.0051 -0.7534
 8679TIP3   OH226000   2.769   4.535   0.463 -0.1400 -0.3193 -0.6648
 8679TIP3    H126001   2.811   4.470   0.407  0.1919  0.6604 -1.5975
 8679TIP3    H226002   2.676   4.528   0.442 -0.7037 -3.1208  2.0601
 8680TIP3   OH226003   7.223   6.802   4.820 -0.4067 -0.2608  0.5927
 8680TIP3    H126004   7.233   6.717   4.863  2.4150  0.4999  1.6341
 8680TIP3    H226005   7.157   6.848   4.873 -0.7326 -1.1896  1.0164
 8681TIP3   OH226006   4.080   6.031   3.199 -0.5835 -0.7212  0.2065
 8681TIP3    H126007   4.014   5.977   3.242  1.5022 -4.1243 -0.4766
 8681TIP3    H226008   4.031   6.101   3.157 -3.2827 -0.8407  2.8870
 8682TIP3   OH226009   3.683   1.854   1.144  0.3779 -0.3264  0.4372
 8682TIP3    H126010   3.673   1.759   1.152 -2.0631  0.0340  4.5266
 8682TIP3    H226011   3.620   1.879   1.076  0.8050 -1.5231 -0.4411
 8683TIP3   OH226012   6.817   6.324   4.622  0.1827  0.2539 -0.5098
 8683TIP3    H126013   6.834   6.249   4.565  0.1134  0.3963 -0.7184
 8683TIP3    H226014   6.845   6.400   4.571  1.5840  0.2716  0.2386
 8684TIP3   OH226015   2.484   1.435   1.018  0.5290  0.7195  0.3254
 8684TIP3    H126016   2.576   1.420   1.039  0.8529  2.0464 -0.0193
 8684TIP3    H226017   2.441   1.439   1.104  1.4265  3.5956  0.7593
 8685TIP3   OH226018   3.882   5.870   2.127 -0.2226 -0.2357 -0.5352
 8685TIP3    H126019   3.873   5.963   2.109 -1.2008 -0.2676 -0.2539
 8685TIP3    H226020   3.918   5.865   2.215  0.9094 -0.1210 -0.9781
 8686TIP3   OH226021   6.730   3.033  -0.024 -0.0788 -0.2125  0.5566
 8686TIP3    H126022   6.679   3.011   0.054  0.0490  0.4154  0.8255
 8686TIP3    H226023   6.775   3.114  -0.000  0.5461 -0.4235  0.0939
 8687TIP3   OH226024   0.279   3.812   0.610 -0.2615 -0.0437  0.3466
 8687TIP3    H126025   0.346   3.879   0.619 -0.5779  0.0530  2.8811
 8687TIP3    H226026   0.317   3.746   0.552 -0.1151  2.4180 -2.5955
 8688TIP3   OH226027   6.140   5.467   1.216  0.1675 -0.1860 -0.4181
 8688TIP3    H126028   6.051   5.438   1.199 -0.7214  0.7152  2.1674
 8688TIP3    H226029   6.171   5.502   1.133 -2.0584 -0.1055 -1.2619
 8689TIP3   OH226030   0.732   5.699   4.344  0.0818 -0.1532  0.0168
 8689TIP3    H126031   0.783   5.767   4.388  0.0524 -0.6362  0.7979
 8689TIP3    H226032   0.721   5.733   4.255  0.6715  0.5417  0.1934
 8690TIP3   OH226033   1.078   5.209   1.439  0.1220  0.3264  0.5312
 8690TIP3    H126034   1.054   5.166   1.358 -0.7193 -0.4744  1.1805
 8690TIP3    H226035   1.132   5.284   1.412 -0.0313 -0.0008 -0.7345
 8691TIP3   OH226036   6.527   5.197   1.943 -0.4434  0.1540  0.1721
 8691TIP3    H126037   6.622   5.185   1.944 -0.4959 -0.2608  1.5307
 8691TIP3    H226038   6.493   5.109   1.925 -0.5748  0.3482 -0.5600
 8692TIP3   OH226039   3.770   3.049   5.414  0.6492 -0.0801 -0.2568
 8692TIP3    H126040   3.796   3.011   5.330 -1.4027 -0.8328 -0.5975
 8692TIP3    H226041   3.702   3.112   5.393  1.3044  0.9908  0.7008
 8693TIP3   OH226042   6.204   5.182   1.205  0.1047 -0.3650 -0.8278
 8693TIP3    H126043   6.290   5.139   1.202 -0.3411 -1.8277  2.8500
 8693TIP3    H226044   6.224   5.274   1.222  0.9298 -0.5302 -0.8515
 8694TIP3   OH226045   1.806   6.611   2.650  0.4257  0.1867  0.3786
 8694TIP3    H126046   1.774   6.692   2.609 -1.8239 -0.8224  0.0352
 8694TIP3    H226047   1.778   6.541   2.591  2.2689 -0.8947  0.7092
 8695TIP3   OH226048   2.144   0.142   5.843 -0.2336 -0.3180 -0.4326
 8695TIP3    H126049   2.172   0.058   5.880  1.7841  0.5420  0.0842
 8695TIP3    H226050   2.145   0.203   5.917 -0.7699  0.3959 -0.9917
 8696TIP3   OH226051   2.538   4.000   3.700  0.3360  0.5085 -0.0195
 8696TIP3    H126052   2.442   3.995   3.696  0.2682  0.4261  1.1667
 8696TIP3    H226053   2.563   3.923   3.750  1.0302  0.5272 -0.3374
 8697TIP3   OH226054   4.477   0.817   1.247  0.5489 -0.4434  0.2775
 8697TIP3    H126055   4.531   0.889   1.280  1.4489 -0.8683 -0.2356
 8697TIP3    H226056   4.540   0.754   1.212 -0.3186 -0.5086 -1.2502
 8698TIP3   OH226057   6.336   0.932   4.357  0.1794 -0.0429  0.1102
 8698TIP3    H126058   6.298   1.019   4.369  1.0402  0.4733 -0.7585
 8698TIP3    H226059   6.340   0.920   4.262  1.5031 -0.3648  0.1897
 8699TIP3   OH226060   4.563   4.478   4.174 -0.5132 -0.3556  0.2694
 8699TIP3    H126061   4.510   4.550   4.143 -0.2731 -0.2820  0.0234
 8699TIP3    H226062   4.577   4.496   4.267 -0.4275 -0.0688  0.2014
 8700TIP3   OH226063   5.016   1.636   3.096  0.5479  0.1443  0.1279
 8700TIP3    H126064   5.061   1.720   3.099  0.8889 -0.0499  1.0361
 8700TIP3    H226065   5.040   1.594   3.179 -0.3124 -0.4827  0.0688
 8701TIP3   OH226066   2.517   4.116   0.361  0.0625 -0.3063 -0.0304
 8701TIP3    H126067   2.468   4.050   0.311 -1.4854 -0.2237  1.2856
 8701TIP3    H226068   2.609   4.090   0.352 -0.3633 -1.5663 -1.0429
 8702TIP3   OH226069   6.659   5.215   5.238 -0.6166  0.1482 -0.4548
 8702TIP3    H126070   6.733   5.224   5.177  0.3993 -1.0458  0.5463
 8702TIP3    H226071   6.588   5.264   5.196  0.5336  0.7778 -1.7746
 8703TIP3   OH226072   0.610   3.400   1.864 -0.7825 -0.3300 -0.3050
 8703TIP3    H126073   0.603   3.344   1.788  0.5239  0.3106 -0.9291
 8703TIP3    H226074   0.678   3.360   1.918 -0.7354 -0.0471 -0.1478
 8704TIP3   OH226075   5.444   4.974   4.295  0.0469  0.1795 -0.3023
 8704TIP3    H126076   5.401   4.895   4.326 -0.0692 -0.0489 -1.0412
 8704TIP3    H226077   5.378   5.019   4.242 -0.0292  0.9881  0.4499
 8705TIP3   OH226078   2.571   1.308   1.642 -0.0396  0.3798 -0.0475
 8705TIP3    H126079   2.568   1.260   1.559  2.6364 -3.0755  1.6058
 8705TIP3    H226080   2.509   1.263   1.699  1.3644 -0.2150  1.0780
 8706TIP3   OH226081   0.556   4.017   0.083  0.0665  0.2400 -0.0392
 8706TIP3    H126082   0.462   4.034   0.076  0.1510  0.2507 -1.3820
 8706TIP3    H226083   0.595   4.104   0.096  0.1692  0.7718 -3.1566
 8707TIP3   OH226084   0.221   5.458   4.054 -0.9843  0.3219  0.2857
 8707TIP3    H126085   0.223   5.481   3.961 -0.0790  2.3231  0.7593
 8707TIP3    H226086   0.174   5.375   4.057  1.2976 -1.2067 -2.2490
 8708TIP3   OH226087   5.653   1.976   2.295 -0.0363 -0.1235 -0.6462
 8708TIP3    H126088   5.740   1.937   2.289 -0.3459 -1.5562  2.3121
 8708TIP3    H226089   5.595   1.913   2.252  0.1200 -0.3441 -0.5346
 8709TIP3   OH226090   1.170   0.314   0.982  0.2451  0.5161  0.2234
 8709TIP3    H126091   1.250   0.303   0.931 -1.1118 -2.1125 -1.5719
 8709TIP3    H226092   1.199   0.358   1.062  3.0297  1.8037 -1.3530
 8710TIP3   OH226093   0.914   1.976   4.025 -0.3718 -0.0781 -0.0817
 8710TIP3    H126094   0.978   1.993   4.093  0.2611  0.4388 -0.7859
 8710TIP3    H226095   0.963   1.985   3.943 -1.0418 -0.9887 -0.5997
 8711TIP3   OH226096   1.842   6.315   0.218 -0.1000  0.6481 -0.6715
 8711TIP3    H126097   1.809   6.225   0.220  0.2659  0.5009 -1.0944
 8711TIP3    H226098   1.771   6.365   0.178 -1.6697  1.1589  2.4462
 8712TIP3   OH226099   6.152   3.360   2.243  0.3925  0.3570 -0.5256
 8712TIP3    H126100   6.174   3.325   2.329  0.7151 -1.2133 -1.2211
 8712TIP3    H226101   6.179   3.452   2.247  0.4996  0.2828  1.0003
 8713TIP3   OH226102   6.929   6.306   2.110  0.0767  0.5325  0.3935
 8713TIP3    H126103   6.938   6.258   2.027 -0.7114 -0.4277  0.8436
 8713TIP3    H226104   6.876   6.382   2.088  2.2334  1.8610 -0.5598
 8714TIP3   OH226105   0.820   4.915   5.256  0.1980 -0.1367 -0.6002
 8714TIP3    H126106   0.889   4.962   5.303 -1.0221  0.1339  0.9967
 8714TIP3    H226107   0.828   4.824   5.286  0.2763 -0.2346 -0.9174
 8715TIP3   OH226108   1.079   5.798   2.918  0.4703 -0.2546  0.0576
 8715TIP3    H126109   1.113   5.777   3.006  1.3645 -0.0792 -0.2407
 8715TIP3    H226110   1.018   5.870   2.933 -1.4735 -1.9367  0.8993
 8716TIP3   OH226111   1.206   4.748   1.465 -0.5382 -0.3346  0.1296
 8716TIP3    H126112   1.173   4.710   1.546 -2.1702 -1.0331 -0.8045
 8716TIP3    H226113   1.301   4.748   1.476 -0.7266 -0.0024  2.1838
 8717TIP3   OH226114   0.902   2.671   1.868  0.1619 -0.4175 -0.3341
 8717TIP3    H126115   0.806   2.670   1.874  0.0069  2.5710 -0.9977
 8717TIP3    H226116   0.922   2.609   1.798 -1.3304 -0.5325 -0.6905
 8718TIP3   OH226117   0.708   1.380   0.699  0.5253 -0.0617 -0.3642
 8718TIP3    H126118   0.615   1.376   0.678  0.2281  0.6936  0.6906
 8718TIP3    H226119   0.724   1.302   0.751 -0.4891  1.6766  2.8214
 8719TIP3   OH226120   2.307   0.618   5.849 -0.1769 -0.1886 -0.1122
 8719TIP3    H126121   2.365   0.632   5.924 -0.2095  2.4949 -0.4913
 8719TIP3    H226122   2.273   0.530   5.861  0.6845 -0.2476  2.4206
 8720TIP3   OH226123   5.910   1.334   2.236  0.0791 -0.3306  0.0835
 8720TIP3    H126124   5.841   1.290   2.186 -0.8168 -0.1998  1.1619
 8720TIP3    H226125   5.878   1.423   2.248  0.1365 -0.4313  1.1029
 8721TIP3   OH226126   6.702   6.002   5.335 -0.0102 -0.0658 -0.2543
 8721TIP3    H126127   6.731   6.065   5.401 -1.3366 -0.1534  0.4509
 8721TIP3    H226128   6.610   6.024   5.320 -1.0081 -2.8229  1.2106
 8722TIP3   OH226129   1.820   0.311   1.332 -0.7986 -0.1420  0.2397
 8722TIP3    H126130   1.896   0.253   1.326  0.6072  1.6867 -0.8108
 8722TIP3    H226131   1.820   0.340   1.424 -0.3545 -0.3447  0.3079
 8723TIP3   OH226132   2.889   3.335   5.038 -0.3351  0.2599 -0.0957
 8723TIP3    H126133   2.905   3.254   4.990  0.8972 -0.0208  0.7313
 8723TIP3    H226134   2.891   3.309   5.130 -2.5267  0.8066  0.1558
 8724TIP3   OH226135   5.757   5.435   2.008 -0.0238 -0.0108 -0.2900
 8724TIP3    H126136   5.765   5.459   1.916 -0.9325  0.6754 -0.2042
 8724TIP3    H226137   5.845   5.406   2.033  1.1176  2.8775 -0.5222
 8725TIP3   OH226138   6.517   5.968   5.852  0.1404 -0.2841 -0.3552
 8725TIP3    H126139   6.532   5.873   5.848 -0.2215 -0.3541 -0.0783
 8725TIP3    H226140   6.529   5.991   5.944 -2.2271 -0.4917  0.0824
 8726TIP3   OH226141   4.126   3.971   2.010  0.4784  0.9598  0.2692
 8726TIP3    H126142   4.196   4.036   2.017  1.1696  0.4244 -1.3210
 8726TIP3    H226143   4.171   3.888   1.997 -0.4460  0.6020 -0.7750
 8727TIP3   OH226144   1.035   2.354   0.485 -0.1672  0.0532 -0.3689
 8727TIP3    H126145   1.042   2.272   0.437  2.4741 -0.0276  0.0142
 8727TIP3    H226146   1.007   2.418   0.420 -3.1878 -1.2114 -0.4949
 8728TIP3   OH226147   0.663   0.258   4.987  0.1602  0.0902  0.1429
 8728TIP3    H126148   0.754   0.231   4.997  0.3552  0.6110 -0.1964
 8728TIP3    H226149   0.633   0.275   5.076  0.5480  0.3842  0.2217
 8729TIP3   OH226150   3.117   1.719   0.291 -0.3501  0.6723 -0.9350
 8729TIP3    H126151   3.207   1.692   0.311  0.4140  2.3518 -1.9162
 8729TIP3    H226152   3.087   1.654   0.228 -1.2541 -2.1275  2.1131
 8730TIP3   OH226153   5.704   0.338   3.429 -0.1305 -0.1420 -0.2704
 8730TIP3    H126154   5.686   0.429   3.452 -2.6882 -0.8304  0.8284
 8730TIP3    H226155   5.744   0.343   3.342 -1.1432  1.9960 -0.7024
 8731TIP3   OH226156   3.879   4.815   5.806  0.2064 -0.0271 -0.6461
 8731TIP3    H126157   3.816   4.743   5.798 -0.0971  0.3649 -1.9546
 8731TIP3    H226158   3.842   4.886   5.754  1.2430  0.5616 -0.6095
 8732TIP3   OH226159   2.900   3.761   3.718 -0.2552 -0.1912  0.3823
 8732TIP3    H126160   2.850   3.807   3.785  2.4635 -2.2146  4.1736
 8732TIP3    H226161   2.874   3.670   3.727  1.9187 -0.8610  0.4471
 8733TIP3   OH226162   1.418   5.563   4.508 -0.6561  0.1925 -0.3600
 8733TIP3    H126163   1.497   5.616   4.519 -1.1390  0.7094  0.7651
 8733TIP3    H226164   1.447   5.474   4.526 -0.6464  0.5733  1.8505
 8734TIP3   OH226165   5.567   1.514   4.115  0.1888 -0.5472 -0.2098
 8734TIP3    H126166   5.488   1.462   4.100 -0.1635 -0.2067  0.4087
 8734TIP3    H226167   5.590   1.550   4.030  0.2990 -1.5145 -0.5996
 8735TIP3   OH226168   4.125   2.832   5.635  0.0220 -0.0629 -0.4613
 8735TIP3    H126169   4.036   2.840   5.671 -0.4948 -1.1179 -1.4237
 8735TIP3    H226170   4.167   2.766   5.690 -0.5616 -1.2187 -1.3608
 8736TIP3   OH226171   2.410   4.681   4.112  0.1687 -0.1822  0.0574
 8736TIP3    H126172   2.476   4.750   4.100 -0.3720  0.4027  0.3401
 8736TIP3    H226173   2.397   4.645   4.024  0.3801  0.1601 -0.1178
 8737TIP3   OH226174   7.080   2.987   4.222  0.4152 -0.2084  0.6102
 8737TIP3    H126175   7.125   2.906   4.248  2.1063  0.3096 -0.5679
 8737TIP3    H226176   7.096   2.995   4.128 -1.0272  0.7252  0.4143
 8738TIP3   OH226177   0.308   3.488   0.724 -0.3638 -0.2141 -0.1431
 8738TIP3    H126178   0.304   3.584   0.721 -1.9278 -0.2372  0.6112
 8738TIP3    H226179   0.373   3.465   0.657  0.9664  1.4153  0.5080
 8739TIP3   OH226180   0.408   2.087   3.723  0.3071 -0.4024  0.1120
 8739TIP3    H126181   0.385   2.101   3.815 -1.8289 -1.8232 -0.1425
 8739TIP3    H226182   0.501   2.063   3.726 -0.0936 -2.0106  2.1179
 8740TIP3   OH226183   2.760   2.990   1.639 -0.5748  0.2049 -0.3585
 8740TIP3    H126184   2.741   3.050   1.711 -0.6940 -0.3975  0.1167
 8740TIP3    H226185   2.849   3.012   1.613  0.0480 -0.6162  1.0083
 8741TIP3   OH226186   6.291   6.164   3.819  0.4051  0.2066  0.3628
 8741TIP3    H126187   6.202   6.162   3.853  0.7129 -0.7761  1.1521
 8741TIP3    H226188   6.342   6.112   3.881  1.0622 -1.3630 -1.3987
 8742TIP3   OH226189   1.855   5.701   4.321 -0.0450 -0.1475 -0.3032
 8742TIP3    H126190   1.884   5.772   4.378  1.9298 -0.7508 -0.4683
 8742TIP3    H226191   1.935   5.651   4.303 -1.1172 -1.5609 -1.3734
 8743TIP3   OH226192   0.277   4.095   0.069 -0.1343 -0.9119  0.0653
 8743TIP3    H126193   0.222   4.070   0.144  0.2731  0.2964  0.8062
 8743TIP3    H226194   0.229   4.063  -0.007 -2.1077  0.4303  0.6511
 8744TIP3   OH226195   2.636   0.751   4.779 -0.1227  0.8800 -0.4711
 8744TIP3    H126196   2.636   0.709   4.693  0.9068  0.8384 -0.4619
 8744TIP3    H226197   2.545   0.746   4.808  0.1532 -2.7629  0.2067
 8745TIP3   OH226198   5.300   3.940   1.825  0.0072 -0.1461  0.5324
 8745TIP3    H126199   5.291   3.886   1.746  0.2918 -0.6404  0.8339
 8745TIP3    H226200   5.395   3.949   1.837  0.0193  2.2272 -0.7308
 8746TIP3   OH226201   1.186   4.034   1.085  0.5786  0.1379  0.3985
 8746TIP3    H126202   1.150   4.120   1.106  0.3591 -0.2344  1.6347
 8746TIP3    H226203   1.182   3.985   1.168 -0.5808 -1.5196 -0.5752
 8747TIP3   OH226204   6.310   2.890  -0.006 -0.0087 -0.0571 -0.4360
 8747TIP3    H126205   6.266   2.898   0.079 -0.6210  0.1476 -0.7645
 8747TIP3    H226206   6.266   2.954  -0.062  0.3493 -0.2343 -0.9285
 8748TIP3   OH226207   3.967   3.030   5.868 -0.3731  0.3135  0.2878
 8748TIP3    H126208   3.906   2.997   5.802  0.0118 -0.3993  0.2815
 8748TIP3    H226209   3.910   3.072   5.933 -0.8644 -0.1747  0.1868
 8749TIP3   OH226210   5.484   6.106   2.737  0.5313  0.0994  0.8562
 8749TIP3    H126211   5.490   6.078   2.646  0.4626 -0.1554  0.9291
 8749TIP3    H226212   5.459   6.027   2.785  1.8958 -0.0954  1.2853
 8750TIP3   OH226213   2.131   0.154   3.898 -0.2867 -0.0253  0.2636
 8750TIP3    H126214   2.214   0.113   3.922 -0.1328  0.2791  0.2572
 8750TIP3    H226215   2.129   0.236   3.947 -0.4906  0.0655  0.1065
 8751TIP3   OH226216   4.976   3.761   4.277 -0.8181  0.2486  0.3545
 8751TIP3    H126217   4.939   3.684   4.320  0.6655 -1.3845 -1.1319
 8751TIP3    H226218   4.905   3.793   4.220 -1.3757 -0.1262  0.8233
 8752TIP3   OH226219   4.847   0.903   0.888  0.4937  0.1900 -0.0034
 8752TIP3    H126220   4.767   0.948   0.913  0.2785 -0.0363 -0.2793
 8752TIP3    H226221   4.820   0.843   0.818  1.0012  0.4913 -0.4621
 8753TIP3   OH226222   4.442   2.398   4.000  0.2574 -0.0589 -0.0719
 8753TIP3    H126223   4.418   2.489   4.021 -2.2626 -1.1852  2.6449
 8753TIP3    H226224   4.523   2.406   3.950  0.0228  3.6872 -0.1503
 8754TIP3   OH226225   6.729   2.819   3.070  0.1146  0.2393 -0.2203
 8754TIP3    H126226   6.666   2.890   3.057 -1.0041 -0.8077 -0.7464
 8754TIP3    H226227   6.675   2.744   3.092  1.3776 -0.0903  2.0240
 8755TIP3   OH226228   6.208   1.823   3.837  0.6114  0.5350 -0.3867
 8755TIP3    H126229   6.300   1.810   3.861  0.2619  0.8337  1.2123
 8755TIP3    H226230   6.160   1.818   3.920 -0.9330 -0.4501 -1.2869
 8756TIP3   OH226231   1.478   3.904   5.142  0.8709  0.7951 -0.1493
 8756TIP3    H126232   1.509   3.949   5.221  3.2599  0.6731 -0.9555
 8756TIP3    H226233   1.556   3.865   5.104 -0.5635 -0.9927 -1.4553
 8757TIP3   OH226234   4.767   6.336   2.525  0.1272 -0.0764  0.4969
 8757TIP3    H126235   4.843   6.384   2.558  0.3329  0.2571 -0.4282
 8757TIP3    H226236   4.801   6.249   2.503  0.6466  0.5808 -1.4762
 8758TIP3   OH226237   2.971   1.627   4.663 -0.1025  0.5582  0.7243
 8758TIP3    H126238   2.893   1.681   4.649 -1.9297 -1.4095  2.5498
 8758TIP3    H226239   3.005   1.655   4.748  1.8419  2.0373 -0.4495
 8759TIP3   OH226240   5.815   1.678   2.204  0.0584  0.1884 -0.2589
 8759TIP3    H126241   5.908   1.656   2.201  0.4809  1.4956  1.7934
 8759TIP3    H226242   5.798   1.721   2.120  1.2467 -0.1867 -0.7100
 8760TIP3   OH226243   3.836   0.214   1.517 -0.1512 -0.3617 -0.1955
 8760TIP3    H126244   3.882   0.296   1.537  0.5433 -1.2631  2.3336
 8760TIP3    H226245   3.877   0.183   1.436  0.0221  1.4491 -0.8396
 8761TIP3   OH226246   4.941   6.161   1.412  0.0494  0.0377  0.0288
 8761TIP3    H126247   4.967   6.170   1.320  2.8498  2.6235  0.9396
 8761TIP3    H226248   4.966   6.071   1.435 -0.6557 -0.6357 -1.6460
 8762TIP3   OH226249   5.109   6.124   0.166 -0.2103  0.3989 -0.0866
 8762TIP3    H126250   5.155   6.207   0.155 -1.3724  0.8565 -2.0870
 8762TIP3    H226251   5.045   6.140   0.234  0.0619  0.9086  0.0558
 8763TIP3   OH226252   6.107   1.904   0.486  0.1344 -0.3845  0.1995
 8763TIP3    H126253   6.121   1.814   0.454  0.6725 -0.2793  0.1315
 8763TIP3    H226254   6.189   1.949   0.466  0.8069 -0.5082  2.4265
 8764TIP3   OH226255   4.912   6.251   3.341 -0.4728 -1.0008  0.2457
 8764TIP3    H126256   4.848   6.229   3.409 -0.3398 -0.3903  0.5834
 8764TIP3    H226257   4.859   6.292   3.272 -0.3527  0.4522  0.9646
 8765TIP3   OH226258   6.186   0.584   1.490 -0.4978  0.2495  0.0415
 8765TIP3    H126259   6.231   0.628   1.417  0.3996 -0.4385  0.1537
 8765TIP3    H226260   6.117   0.533   1.448  0.4567 -0.6982 -0.4224
 8766TIP3   OH226261   6.355   4.329   2.590  0.1804 -0.1088  0.1487
 8766TIP3    H126262   6.332   4.254   2.646 -1.2462  0.6152  0.6067
 8766TIP3    H226263   6.353   4.404   2.650  0.5103  0.4340 -0.5146
 8767TIP3   OH226264   2.793   5.018   5.678  0.9534  0.1185 -0.2869
 8767TIP3    H126265   2.875   4.976   5.651  0.9295  0.2695 -0.5981
 8767TIP3    H226266   2.776   5.083   5.610  0.9299  0.5577  0.1333
 8768TIP3   OH226267   1.528   0.985   3.768  0.4655 -0.4945  0.4321
 8768TIP3    H126268   1.465   1.022   3.829  1.0130 -0.7585  1.1712
 8768TIP3    H226269   1.590   0.937   3.823  1.3211 -0.2337 -0.2768
 8769TIP3   OH226270   2.770   6.288   0.501  0.3430  0.2974  0.6428
 8769TIP3    H126271   2.767   6.335   0.418 -0.7000 -1.5214 -0.4082
 8769TIP3    H226272   2.747   6.354   0.567  0.6410  1.6401 -0.5629
 8770TIP3   OH226273   4.608   0.682   0.982 -0.0963  0.0570 -0.6848
 8770TIP3    H126274   4.570   0.769   0.975 -0.2503  0.0899  0.4275
 8770TIP3    H226275   4.576   0.635   0.905 -0.0322  0.9665 -1.2749
 8771TIP3   OH226276   3.245   4.824   4.887 -0.0081 -0.8562 -0.2587
 8771TIP3    H126277   3.212   4.861   4.805 -1.0842 -1.7255 -0.2335
 8771TIP3    H226278   3.221   4.732   4.884  1.2112 -1.2107  0.4036
 8772TIP3   OH226279   3.787   6.659   1.862 -0.2014 -0.0957 -0.4344
 8772TIP3    H126280   3.819   6.745   1.836  0.5174  0.2670  1.4666
 8772TIP3    H226281   3.692   6.669   1.866 -0.1600  0.4487 -0.7779
 8773TIP3   OH226282   1.470   6.001   4.044  0.1428  0.2394  0.3335
 8773TIP3    H126283   1.543   5.975   4.100  1.1735  1.4578 -0.3828
 8773TIP3    H226284   1.408   5.928   4.049  1.3971 -0.8149  0.9862
 8774TIP3   OH226285   0.222   3.443   3.218 -0.5529  0.0227 -0.1162
 8774TIP3    H126286   0.275   3.441   3.298  2.0902  0.8308 -1.7136
 8774TIP3    H226287   0.192   3.353   3.206 -2.4024  0.1681  2.5587
 8775TIP3   OH226288   1.290   0.433   2.079  0.0896 -0.0483 -0.1522
 8775TIP3    H126289   1.358   0.370   2.104  1.1313  0.7150 -1.0039
 8775TIP3    H226290   1.213   0.406   2.130  0.5148 -1.9767 -0.4511
 8776TIP3   OH226291   4.355   6.642   5.464 -0.2949  0.1468  0.1250
 8776TIP3    H126292   4.367   6.719   5.407  1.3476 -1.3769 -1.7477
 8776TIP3    H226293   4.366   6.676   5.553  4.0522  1.6174 -0.7163
 8777TIP3   OH226294   0.064   0.366   3.045  0.2144 -0.2689  0.1650
 8777TIP3    H126295   0.084   0.301   3.113 -1.3196 -0.3664  0.5641
 8777TIP3    H226296   0.144   0.416   3.035  1.5654 -2.3743 -0.3480
 8778TIP3   OH226297   3.488   2.354   1.589  0.1978 -0.0447  0.5050
 8778TIP3    H126298   3.401   2.325   1.561 -0.2291 -0.0527  1.7682
 8778TIP3    H226299   3.530   2.384   1.509 -0.7460 -0.6094 -0.2245
 8779TIP3   OH226300   6.769   2.842   2.591  0.2222  0.3622  0.1256
 8779TIP3    H126301   6.841   2.783   2.612  0.0384  0.6091  1.6088
 8779TIP3    H226302   6.777   2.858   2.498  2.3707  0.7663  0.3319
 8780TIP3   OH226303   5.412   0.736   2.008 -0.3625 -0.0121 -0.0135
 8780TIP3    H126304   5.457   0.652   2.017  0.8016  0.6402  0.5274
 8780TIP3    H226305   5.480   0.797   1.979 -1.0165  0.8921  0.2979
 8781TIP3   OH226306   4.957   5.137   3.064  0.0290  0.1638  0.0363
 8781TIP3    H126307   5.029   5.189   3.029  0.1320 -0.3186 -0.4762
 8781TIP3    H226308   4.880   5.193   3.053  0.0245 -0.0480 -1.1553
 8782TIP3   OH226309   2.783   0.813   2.650 -0.0438  0.2045  0.0530
 8782TIP3    H126310   2.728   0.823   2.728  0.2049  0.6359  0.1782
 8782TIP3    H226311   2.872   0.822   2.683  0.0756  0.0595 -0.2332
 8783TIP3   OH226312   5.973   4.648   1.036  0.1069 -0.4270  0.1356
 8783TIP3    H126313   5.926   4.668   0.954 -1.3932 -2.3401  0.4430
 8783TIP3    H226314   6.050   4.705   1.034 -1.9729  2.6152 -0.6186
 8784TIP3   OH226315   5.139   0.707   3.083  0.5857 -0.1407 -0.2404
 8784TIP3    H126316   5.133   0.697   3.178 -0.4960  0.1294 -0.2673
 8784TIP3    H226317   5.229   0.683   3.062  0.8996  0.0094  0.8777
 8785TIP3   OH226318   4.380   5.558   0.804  0.2812  0.1362  0.4523
 8785TIP3    H126319   4.391   5.529   0.895  0.9249 -1.1364 -0.0140
 8785TIP3    H226320   4.286   5.566   0.792  0.2106  1.6620  1.6165
 8786TIP3   OH226321   2.910   2.810   0.822  0.5742 -0.1827 -0.0830
 8786TIP3    H126322   2.963   2.739   0.858 -0.5764 -1.0189  0.0362
 8786TIP3    H226323   2.863   2.846   0.897  0.0459 -0.2789 -0.3614
 8787TIP3   OH226324   5.220   4.726   3.467 -0.5722  0.0226  0.4265
 8787TIP3    H126325   5.134   4.688   3.452 -0.6023  0.3782 -0.3271
 8787TIP3    H226326   5.204   4.807   3.514 -0.5128 -0.8175  1.9727
 8788TIP3   OH226327   2.908   3.803   2.077  0.5991 -0.4012 -0.5121
 8788TIP3    H126328   2.990   3.763   2.048  0.4919  0.4911 -2.1687
 8788TIP3    H226329   2.907   3.789   2.172  2.6855 -0.3742 -0.4388
 8789TIP3   OH226330   1.558   3.862   0.863  0.3566 -0.0522 -0.2383
 8789TIP3    H126331   1.651   3.876   0.878 -0.0141  2.4184  0.2456
 8789TIP3    H226332   1.554   3.785   0.807  2.8198  0.9256 -1.9257
 8790TIP3   OH226333   3.429   0.238   3.147 -0.0708  0.1389  0.5544
 8790TIP3    H126334   3.422   0.308   3.083 -2.4110  0.1331  0.7066
 8790TIP3    H226335   3.430   0.158   3.094  1.5050  0.2102  0.4290
 8791TIP3   OH226336   0.038   4.518   1.308 -0.2619 -0.1258  0.5889
 8791TIP3    H126337   0.020   4.475   1.392  2.1716  0.3180  1.4327
 8791TIP3    H226338   0.049   4.447   1.246 -2.1147 -0.4623  0.6091
 8792TIP3   OH226339   5.417   0.609   3.573  0.1398 -0.8095  0.4716
 8792TIP3    H126340   5.396   0.702   3.575  1.7044 -0.4340  0.7303
 8792TIP3    H226341   5.507   0.606   3.540  1.5591 -1.9283  3.9777
 8793TIP3   OH226342   1.931   5.865   3.967  0.0333 -0.0087  0.0154
 8793TIP3    H126343   1.875   5.790   3.984 -0.3252  0.1775 -0.3329
 8793TIP3    H226344   1.988   5.870   4.044  1.0608 -1.5062 -0.6104
 8794TIP3   OH226345   4.969   1.495   1.675  0.2922  0.3245  0.6589
 8794TIP3    H126346   5.024   1.532   1.744  0.5226  1.8921 -0.3008
 8794TIP3    H226347   5.013   1.520   1.594 -1.0180  0.2737 -0.0924
 8795TIP3   OH226348   1.246   2.211   5.192  0.0087  0.0524  0.1399
 8795TIP3    H126349   1.294   2.130   5.211  0.0011  0.3136  1.3440
 8795TIP3    H226350   1.195   2.228   5.271 -0.8532  0.6439 -0.5245
 8796TIP3   OH226351   2.985   4.272   2.331  0.2168  0.1687 -0.3491
 8796TIP3    H126352   3.002   4.181   2.306  0.5489  0.3969 -0.9933
 8796TIP3    H226353   2.890   4.277   2.340  0.0853  0.0437 -1.5197
 8797TIP3   OH226354   6.395   3.011   4.486 -0.1022 -0.0602  0.7976
 8797TIP3    H126355   6.422   3.010   4.578  2.6317  0.9536  0.0985
 8797TIP3    H226356   6.476   3.026   4.437 -1.3918 -0.9946 -1.8395
 8798TIP3   OH226357   1.718   3.448   1.861  0.0672 -0.4815  0.2092
 8798TIP3    H126358   1.790   3.391   1.889  0.2117 -0.6702 -0.5175
 8798TIP3    H226359   1.670   3.396   1.797 -0.9069 -0.4726  0.9065
 8799TIP3   OH226360   0.397   4.527   2.553  0.8325 -0.3006 -0.3710
 8799TIP3    H126361   0.321   4.482   2.516  1.0037  1.0047 -2.5405
 8799TIP3    H226362   0.459   4.457   2.575  0.6373 -1.2330 -2.5199
 8800TIP3   OH226363   3.384   2.039   3.464 -0.4698 -0.3019 -0.4400
 8800TIP3    H126364   3.375   2.047   3.369  0.4836 -0.8728 -0.5972
 8800TIP3    H226365   3.479   2.043   3.479 -0.6782  1.4492  0.6670
 8801TIP3   OH226366   5.533   3.125   3.870 -0.0754  0.2058  0.5876
 8801TIP3    H126367   5.442   3.104   3.848  0.0212 -0.4930  0.8371
 8801TIP3    H226368   5.548   3.082   3.954  0.3936  0.5882  0.7038
 8802TIP3   OH226369   5.058   0.095   0.331  0.4474  0.1270 -0.0375
 8802TIP3    H126370   5.020   0.028   0.389 -1.8247  1.0671 -0.3183
 8802TIP3    H226371   5.127   0.135   0.384 -0.1886 -0.4180  1.2774
 8803TIP3   OH226372   3.490   6.241   2.051  0.6434  0.4197 -0.1946
 8803TIP3    H126373   3.425   6.173   2.066  0.6052  0.8390  1.7183
 8803TIP3    H226374   3.441   6.323   2.050  0.4995  0.4673 -3.7241
 8804TIP3   OH226375   6.581   4.632   1.853  0.3413  0.1084  0.5399
 8804TIP3    H126376   6.508   4.602   1.907 -0.3513 -0.8662 -0.8580
 8804TIP3    H226377   6.567   4.589   1.768  0.7467  2.4012 -0.7831
 8805TIP3   OH226378   0.647   1.925   1.574  0.2517  0.2903 -0.2462
 8805TIP3    H126379   0.616   1.844   1.615 -1.9173  1.1101 -0.0894
 8805TIP3    H226380   0.607   1.925   1.487  0.8614  0.8310 -0.5309
 8806TIP3   OH226381   6.416   6.751   0.499  0.1239  0.2677  0.0348
 8806TIP3    H126382   6.358   6.819   0.533 -0.0348 -0.7155  1.8311
 8806TIP3    H226383   6.422   6.686   0.569  2.9205  0.0251 -0.2905
 8807TIP3   OH226384   5.593   3.885   4.336  0.1092 -0.3535  0.3202
 8807TIP3    H126385   5.603   3.948   4.408  0.0572 -0.0373  0.0559
 8807TIP3    H226386   5.514   3.837   4.357 -0.5071  0.4702 -0.0657
 8808TIP3   OH226387   2.011   0.660   5.180  0.2472 -0.6832  0.8058
 8808TIP3    H126388   1.969   0.620   5.256  1.7253  0.6736  2.4323
 8808TIP3    H226389   1.949   0.727   5.150  0.3423 -0.0717  1.9155
 8809TIP3   OH226390   2.431   3.262   4.098 -0.1992 -0.4107  0.2397
 8809TIP3    H126391   2.474   3.211   4.166  1.1597 -0.9412 -0.9641
 8809TIP3    H226392   2.487   3.339   4.088  0.8663 -1.3782 -1.7381
 8810TIP3   OH226393   2.909   0.278   4.411 -0.1606 -0.0070  0.0385
 8810TIP3    H126394   2.928   0.192   4.373 -0.5649  0.4689 -1.2925
 8810TIP3    H226395   2.993   0.307   4.446  0.3303 -0.3200 -0.8355
 8811TIP3   OH226396   3.019   4.623   0.572 -0.3824 -0.6929  0.4629
 8811TIP3    H126397   2.931   4.599   0.542 -0.2996  0.5937 -0.9343
 8811TIP3    H226398   3.007   4.709   0.614 -0.1462 -1.5509  2.3997
 8812TIP3   OH226399   5.112   2.864   2.665 -0.5068  0.0458  0.1627
 8812TIP3    H126400   5.178   2.824   2.608 -1.5169  1.2118 -1.9422
 8812TIP3    H226401   5.028   2.836   2.628 -1.2027  0.7981  1.1325
 8813TIP3   OH226402   5.142   6.105   3.717  0.0692 -0.5612 -0.1832
 8813TIP3    H126403   5.130   6.055   3.798 -0.7812 -0.0721  0.0118
 8813TIP3    H226404   5.171   6.192   3.747  2.2321 -1.0979 -0.5526
 8814TIP3   OH226405   6.933   3.698   4.757  0.2838  0.5698  0.1187
 8814TIP3    H126406   7.018   3.654   4.747  0.6920  1.0743  1.2524
 8814TIP3    H226407   6.869   3.628   4.745  0.8451  0.1503 -0.5929
 8815TIP3   OH226408   6.793   1.424   3.634  0.0078  0.0094 -0.0912
 8815TIP3    H126409   6.883   1.407   3.662  0.2972 -1.4573 -1.7021
 8815TIP3    H226410   6.789   1.519   3.622  1.7944 -0.0078 -1.2730
 8816TIP3   OH226411   0.027   3.553   3.464  0.3835 -0.4200 -0.0010
 8816TIP3    H126412   0.049   3.469   3.504  0.4124 -0.5000 -0.1851
 8816TIP3    H226413   0.055   3.619   3.528 -0.0457 -0.5637  0.3402
 8817TIP3   OH226414   0.389   5.725   1.782  0.3279  0.2038  0.0230
 8817TIP3    H126415   0.427   5.785   1.719  0.3726  1.2707  1.0278
 8817TIP3    H226416   0.430   5.749   1.865 -2.2416  1.2106  1.1102
 8818TIP3   OH226417   1.168   0.848   0.299  0.0262  0.1808 -0.3253
 8818TIP3    H126418   1.163   0.765   0.253 -0.2401  1.2981 -2.4760
 8818TIP3    H226419   1.230   0.833   0.370  1.6330 -1.2887 -1.9394
 8819TIP3   OH226420   6.828   4.327   1.949  0.1695  0.2071 -0.0027
 8819TIP3    H126421   6.776   4.248   1.930 -0.8466  0.7752  0.3402
 8819TIP3    H226422   6.883   4.338   1.872  0.6094 -1.0520  0.1013
 8820TIP3   OH226423   2.524   1.586  -0.031  0.1281 -0.3726 -1.3023
 8820TIP3    H126424   2.515   1.552   0.058  1.5448 -2.4942 -1.8894
 8820TIP3    H226425   2.508   1.680  -0.023 -0.8466 -0.6713  0.9911
 8821TIP3   OH226426   6.646   4.853   4.268 -0.3408 -0.1006  0.6627
 8821TIP3    H126427   6.592   4.927   4.239 -0.1307  0.6779  2.1923
 8821TIP3    H226428   6.583   4.783   4.285 -0.6733  0.1499  0.4855
 8822TIP3   OH226429   6.750   5.461   3.616  0.4460 -0.2698  0.3025
 8822TIP3    H126430   6.679   5.400   3.638  0.8420 -0.2542  1.7410
 8822TIP3    H226431   6.778   5.434   3.529 -0.9999 -0.5743 -0.1035
 8823TIP3   OH226432   0.654   2.272   2.077 -0.1191 -0.2759 -0.4741
 8823TIP3    H126433   0.560   2.270   2.060 -1.1191  0.3170  3.9287
 8823TIP3    H226434   0.678   2.364   2.072 -0.4353 -0.0902  1.1529
 8824TIP3   OH226435   6.289   4.229   1.565  0.1281  0.0344  0.2815
 8824TIP3    H126436   6.231   4.304   1.558 -0.6673 -0.5706  0.2573
 8824TIP3    H226437   6.253   4.177   1.637  1.6208  0.4797  1.3982
 8825TIP3   OH226438   4.197   5.788   2.215  0.0459 -0.3452  0.2400
 8825TIP3    H126439   4.291   5.794   2.197  0.5387 -0.7976  2.4234
 8825TIP3    H226440   4.178   5.864   2.269 -0.8159 -0.3997  0.0287
 8826TIP3   OH226441   7.016   5.116   3.040  0.5295 -0.7364  0.2774
 8826TIP3    H126442   6.969   5.131   3.122  1.4210 -3.7588  1.4701
 8826TIP3    H226443   6.950   5.083   2.979 -0.4256  2.7531 -0.8342
 8827TIP3   OH226444   1.456   0.004   4.401 -0.8345 -0.6391 -0.1418
 8827TIP3    H126445   1.440   0.071   4.334 -0.4320 -0.5091 -0.1110
 8827TIP3    H226446   1.411   0.037   4.479  1.9777  1.2451  0.8482
 8828TIP3   OH226447   2.003   3.711   2.692 -0.4187 -0.1962 -0.0756
 8828TIP3    H126448   2.012   3.766   2.614  1.3875 -0.0446  0.2029
 8828TIP3    H226449   1.989   3.623   2.657  1.3754 -0.2954 -0.6345
 8829TIP3   OH226450   7.172   0.281   0.161 -0.7236  0.9894 -0.3992
 8829TIP3    H126451   7.102   0.251   0.103 -1.9804  0.5897  1.2601
 8829TIP3    H226452   7.161   0.230   0.241  1.2766  1.1686  0.0303
 8830TIP3   OH226453   6.819   4.186   3.300  0.4892  0.0095  0.0030
 8830TIP3    H126454   6.841   4.101   3.339  1.7107 -0.8718 -2.3875
 8830TIP3    H226455   6.725   4.180   3.282 -0.4348  0.9424  3.6976
 8831TIP3   OH226456   6.400   2.274   0.444  0.3138  0.5981  0.5280
 8831TIP3    H126457   6.453   2.312   0.375 -0.2171 -0.8789 -0.7470
 8831TIP3    H226458   6.316   2.320   0.437 -0.2655 -0.6010 -0.8859
 8832TIP3   OH226459   3.029   6.205   0.403  0.1358 -0.0342  0.1296
 8832TIP3    H126460   2.997   6.115   0.404 -0.2299  0.0774 -0.5379
 8832TIP3    H226461   2.953   6.257   0.431  0.2879  0.0854  0.3245
 8833TIP3   OH226462   2.995   0.982   3.481  0.1020 -0.5548 -0.2321
 8833TIP3    H126463   2.908   0.973   3.441 -0.0459 -1.3336  0.2438
 8833TIP3    H226464   2.997   1.071   3.514 -0.0493 -0.1298 -1.3303
 8834TIP3   OH226465   0.222   6.653   5.056 -0.4853 -0.1107 -0.2175
 8834TIP3    H126466   0.259   6.740   5.069  0.9436 -0.2491 -2.8294
 8834TIP3    H226467   0.253   6.625   4.970 -1.4082 -2.9647  0.2507
 8835TIP3   OH226468   6.155   2.913   0.847  0.6046  0.5626  0.3295
 8835TIP3    H126469   6.251   2.912   0.846  0.6398  0.4985  1.6734
 8835TIP3    H226470   6.131   2.987   0.791  1.3579 -0.6628 -1.7033
 8836TIP3   OH226471   2.105   0.981   5.165  0.1827  0.0908  0.2972
 8836TIP3    H126472   2.137   1.046   5.103  0.5035 -0.6447 -0.3105
 8836TIP3    H226473   2.032   0.939   5.120 -0.7637  0.7992  1.1326
 8837TIP3   OH226474   5.908   2.022   5.078 -0.5241  0.0799  0.6887
 8837TIP3    H126475   5.856   1.943   5.063  2.2103 -1.6633 -0.2347
 8837TIP3    H226476   5.905   2.068   4.995  0.0764 -0.4482  0.3700
 8838TIP3   OH226477   3.036   0.650   0.922 -0.1194 -0.4597  0.4810
 8838TIP3    H126478   3.121   0.678   0.957  0.8718 -2.2039 -0.3988
 8838TIP3    H226479   3.017   0.714   0.854  1.0025 -0.5923  0.0089
 8839TIP3   OH226480   3.569   3.460   4.067  0.2488  0.6570 -0.3320
 8839TIP3    H126481   3.566   3.509   4.150 -2.1007 -1.0605  0.7214
 8839TIP3    H226482   3.477   3.445   4.045  0.8537 -0.9693 -2.0143
 8840TIP3   OH226483   6.002   1.788   5.367 -0.4250 -0.3290  0.2261
 8840TIP3    H126484   6.035   1.833   5.445  0.5054  0.4111 -0.5594
 8840TIP3    H226485   6.081   1.767   5.316 -0.9991 -0.9489 -0.4266
 8841TIP3   OH226486   2.631   1.021   4.476 -0.2823  0.1113  0.1224
 8841TIP3    H126487   2.670   1.031   4.563  0.6786  1.9512 -0.4764
 8841TIP3    H226488   2.686   0.956   4.432 -1.2026 -1.3900  1.0646
 8842TIP3   OH226489   4.406   1.218   5.382 -0.1210 -0.2504  0.1418
 8842TIP3    H126490   4.340   1.284   5.406 -1.4132 -1.2794 -0.4597
 8842TIP3    H226491   4.420   1.168   5.462  0.7273  0.6108  0.5505
 8843TIP3   OH226492   4.274   1.337   4.305 -0.9522 -0.1784 -0.2932
 8843TIP3    H126493   4.199   1.395   4.289 -1.1365 -0.0102  1.0881
 8843TIP3    H226494   4.330   1.386   4.365  0.5720 -0.0757 -1.7364
 8844TIP3   OH226495   4.554   4.531   1.318 -0.0978  0.2040  0.2526
 8844TIP3    H126496   4.524   4.453   1.272 -1.2281 -0.1693  1.5592
 8844TIP3    H226497   4.549   4.601   1.253  0.8035 -0.7725 -0.8988
 8845TIP3   OH226498   1.459   0.335   1.676  0.0402 -0.3855  0.4873
 8845TIP3    H126499   1.434   0.360   1.587  0.2478  0.9673  0.7902
 8845TIP3    H226500   1.401   0.385   1.733 -0.0773 -1.2276  1.1213
 8846TIP3   OH226501   4.350   0.470   4.813  0.4311 -0.6810 -0.3199
 8846TIP3    H126502   4.282   0.471   4.745 -0.2574 -0.3993  0.3601
 8846TIP3    H226503   4.422   0.420   4.775 -0.0630 -0.7715 -1.1449
 8847TIP3   OH226504   5.220   4.362   3.594  0.2839  0.2669 -0.3196
 8847TIP3    H126505   5.287   4.353   3.662  0.3915  0.7901 -0.3513
 8847TIP3    H226506   5.269   4.359   3.511  0.0911 -0.9845 -0.4079
 8848TIP3   OH226507   2.172   3.245   0.453 -0.3469  0.5459  0.1109
 8848TIP3    H126508   2.233   3.227   0.382 -0.8338  3.1263 -1.0829
 8848TIP3    H226509   2.223   3.233   0.533  0.4452 -1.6237 -0.6629
 8849TIP3   OH226510   4.161   2.086   2.128  0.0269  0.0176  0.3320
 8849TIP3    H126511   4.192   1.998   2.110  1.1922  0.5029 -0.1093
 8849TIP3    H226512   4.238   2.142   2.118 -0.7948  1.1503  0.1121
 8850TIP3   OH226513   3.929   1.003   3.140  0.1243  0.4456 -0.0071
 8850TIP3    H126514   3.969   1.071   3.085 -0.7082 -0.2623 -1.5785
 8850TIP3    H226515   3.970   0.922   3.109 -2.3742 -0.2969 -1.6592
 8851TIP3   OH226516   5.939   2.261   4.633 -0.9445 -0.0825  0.2045
 8851TIP3    H126517   5.934   2.191   4.568 -0.7528  0.6160 -0.5780
 8851TIP3    H226518   6.024   2.248   4.676 -0.5139  0.1721 -0.5408
 8852TIP3   OH226519   2.420   1.340   4.402  0.0244  0.5860 -0.0998
 8852TIP3    H126520   2.369   1.269   4.438 -0.3073  0.5416 -0.6402
 8852TIP3    H226521   2.455   1.387   4.478  3.2616 -2.2147  0.3646
 8853TIP3   OH226522   0.578   5.188   1.762  0.3448 -0.4012  0.1147
 8853TIP3    H126523   0.531   5.194   1.679  1.3059 -0.9503 -0.4939
 8853TIP3    H226524   0.514   5.213   1.828 -0.5426 -0.3070 -0.7594
 8854TIP3   OH226525   0.168   1.844   5.758 -0.1976  0.4385  0.4461
 8854TIP3    H126526   0.260   1.859   5.782 -0.5676  2.1863  0.8994
 8854TIP3    H226527   0.172   1.804   5.672  0.9897  0.5560  0.4273
 8855TIP3   OH226528   5.086   5.531   3.041 -0.7617 -0.9016 -0.3101
 8855TIP3    H126529   5.027   5.529   3.116 -0.7489  0.9555 -0.1926
 8855TIP3    H226530   5.041   5.584   2.976  0.4157 -0.1116 -0.5209
 8856TIP3   OH226531   4.024   1.706   3.513 -0.3137  0.1798  0.2544
 8856TIP3    H126532   4.019   1.647   3.588  1.8699 -2.5373 -1.5310
 8856TIP3    H226533   4.049   1.790   3.550  3.3985 -1.6499  2.5395
 8857TIP3   OH226534   3.547   5.465   2.001  0.0319 -0.5617 -0.0025
 8857TIP3    H126535   3.538   5.442   2.093  0.8907 -2.5013 -0.3503
 8857TIP3    H226536   3.636   5.499   1.993  0.0307 -0.5947 -0.1692
 8858TIP3   OH226537   6.734   1.215   0.354 -0.0378 -0.6646 -0.0153
 8858TIP3    H126538   6.681   1.142   0.386 -0.4981  0.0133  0.8116
 8858TIP3    H226539   6.671   1.282   0.329  0.3954 -0.3367 -0.2486
 8859TIP3   OH226540   6.606   0.932   5.607  0.4265 -0.3694  0.0010
 8859TIP3    H126541   6.541   0.959   5.543  0.6311 -1.1326 -0.5447
 8859TIP3    H226542   6.650   1.014   5.633 -1.3136  0.2786  1.0524
 8860TIP3   OH226543   6.278   0.493   3.428 -0.2386  0.1133  0.1483
 8860TIP3    H126544   6.321   0.567   3.470  0.1213  0.6999 -1.2073
 8860TIP3    H226545   6.345   0.456   3.369 -1.2945  0.5174 -1.3599
 8861TIP3   OH226546   0.732   0.706   2.440  0.0731  0.2977  0.1551
 8861TIP3    H126547   0.712   0.747   2.355  2.6139  0.5186 -0.4165
 8861TIP3    H226548   0.648   0.705   2.486 -0.8809  2.5828 -1.3293
 8862TIP3   OH226549   2.429   6.242   2.526 -0.0700  0.4343 -0.2555
 8862TIP3    H126550   2.522   6.249   2.544 -0.2831  0.8337  0.8067
 8862TIP3    H226551   2.421   6.171   2.463  0.8435 -0.4488  0.5917
 8863TIP3   OH226552   3.825   4.391   2.898 -0.1704  0.2630  0.1665
 8863TIP3    H126553   3.756   4.368   2.960  1.9241 -0.3280  2.4831
 8863TIP3    H226554   3.902   4.344   2.931  1.3061  0.7275 -2.3810
 8864TIP3   OH226555   3.207   2.280   5.667 -0.4136 -0.0913 -0.5387
 8864TIP3    H126556   3.218   2.191   5.699  1.1697 -0.4333 -1.9060
 8864TIP3    H226557   3.163   2.270   5.582  2.2746  0.1146 -2.0647
 8865TIP3   OH226558   6.731   3.244   1.852 -0.3642  0.6497  0.2327
 8865TIP3    H126559   6.783   3.282   1.923  0.4590 -2.6566  1.5858
 8865TIP3    H226560   6.797   3.207   1.792 -1.0901 -0.4395  0.0776
 8866TIP3   OH226561   7.138   1.546   5.878  0.2012 -0.5821 -0.6258
 8866TIP3    H126562   7.067   1.609   5.892 -0.4896 -1.5351  0.4102
 8866TIP3    H226563   7.121   1.510   5.791 -0.2655 -0.3878 -0.6176
 8867TIP3   OH226564   3.186   0.260   0.451  0.3563 -0.0420  0.2689
 8867TIP3    H126565   3.151   0.269   0.362  2.2216  0.6697 -0.4468
 8867TIP3    H226566   3.248   0.187   0.444  0.1231 -0.3268  1.1272
 8868TIP3   OH226567   5.545   4.702   4.090  0.2273 -0.5564 -0.4050
 8868TIP3    H126568   5.549   4.774   4.026 -0.0025 -0.2931 -0.1273
 8868TIP3    H226569   5.637   4.688   4.115  0.1231  1.2028  1.2402
 8869TIP3   OH226570   0.731   4.649   2.440  0.4175 -0.0259 -0.2425
 8869TIP3    H126571   0.746   4.651   2.535  1.5805  3.4149 -0.3740
 8869TIP3    H226572   0.815   4.620   2.404  0.7515  0.9160 -0.2582
 8870TIP3   OH226573   6.224   2.208   2.751 -0.2594  0.2137  0.3374
 8870TIP3    H126574   6.152   2.197   2.689  0.4173 -1.2901 -0.2309
 8870TIP3    H226575   6.207   2.144   2.820  0.6174 -0.2943  0.0938
 8871TIP3   OH226576   5.828   5.010   1.591  0.2679  0.4401  0.0867
 8871TIP3    H126577   5.876   4.929   1.609 -0.6099  0.2049  1.4714
 8871TIP3    H226578   5.870   5.045   1.512  1.8333 -0.4248  0.4935
 8872TIP3   OH226579   0.876   6.068   1.548  0.3804 -0.1485  0.0394
 8872TIP3    H126580   0.941   6.132   1.518  0.9683 -1.0103 -0.5693
 8872TIP3    H226581   0.798   6.087   1.496  0.4056  0.3440  0.1723
 8873TIP3   OH226582   1.996   3.223   2.654 -0.0058 -0.2616 -0.0122
 8873TIP3    H126583   2.087   3.195   2.643 -0.0368 -1.6730  2.5534
 8873TIP3    H226584   1.962   3.226   2.565  2.9319  1.9917 -1.2662
 8874TIP3   OH226585   3.172   2.927   3.989 -0.3627  0.0453 -0.6978
 8874TIP3    H126586   3.163   2.959   3.899  0.4780  4.5930  0.5643
 8874TIP3    H226587   3.085   2.938   4.027 -0.5713 -1.3005 -0.7427
 8875TIP3   OH226588   6.839   4.301   5.559 -0.4874  0.2924 -0.0525
 8875TIP3    H126589   6.820   4.290   5.466  1.2119 -0.5799 -0.3417
 8875TIP3    H226590   6.900   4.375   5.563 -2.2283  1.7633  0.6344
 8876TIP3   OH226591   0.822   5.929   2.982  0.5310  0.3992 -0.5780
 8876TIP3    H126592   0.806   5.944   2.889 -0.6249  0.0425 -0.4451
 8876TIP3    H226593   0.792   6.009   3.024  0.2642  0.2221 -0.4337
 8877TIP3   OH226594   1.214   5.597   2.492 -0.4467  0.1987 -0.3229
 8877TIP3    H126595   1.276   5.650   2.541  1.1237 -1.6451 -0.1759
 8877TIP3    H226596   1.169   5.659   2.435  1.4858  1.6536 -0.3693
 8878TIP3   OH226597   5.137   0.191   4.651 -1.0069 -0.2482  0.1879
 8878TIP3    H126598   5.216   0.141   4.671  0.1476  1.6375  0.5877
 8878TIP3    H226599   5.071   0.125   4.629  0.4262 -1.9091  0.7081
 8879TIP3   OH226600   0.105   2.693   4.100  0.6716 -0.5549  0.1677
 8879TIP3    H126601   0.110   2.755   4.172  1.4556 -0.1902 -0.1800
 8879TIP3    H226602   0.156   2.617   4.130 -0.6182 -1.2149  0.7509
 8880TIP3   OH226603   6.090   2.780   4.505 -0.2050  0.2039  0.1479
 8880TIP3    H126604   6.168   2.726   4.496  0.7705  1.4652  0.6606
 8880TIP3    H226605   6.028   2.726   4.553  0.3679 -0.7998 -0.2204
 8881TIP3   OH226606   5.445   6.425   3.732  0.4164 -0.2114 -0.6157
 8881TIP3    H126607   5.436   6.402   3.639  0.7531  0.2129 -0.7522
 8881TIP3    H226608   5.373   6.485   3.749  0.3672 -0.2727 -0.6052
 8882TIP3   OH226609   1.178   4.866   0.825  0.1296  0.4641  0.3118
 8882TIP3    H126610   1.199   4.943   0.877  0.3188 -1.1467  2.8065
 8882TIP3    H226611   1.127   4.810   0.884  0.7539 -1.7135 -1.0704
 8883TIP3   OH226612   4.020   1.832   1.370 -0.2749 -0.5280  0.1030
 8883TIP3    H126613   3.966   1.758   1.343  1.8492 -1.8597 -0.8169
 8883TIP3    H226614   4.009   1.837   1.465 -1.5553 -1.1091 -0.0027
 8884TIP3   OH226615   2.764   4.929   5.121 -0.5379  0.5210  0.1567
 8884TIP3    H126616   2.742   4.979   5.042 -0.4651  0.0690 -0.1553
 8884TIP3    H226617   2.713   4.970   5.191 -1.5878  0.1329 -0.3609
 8885TIP3   OH226618   4.538   1.967   3.228 -0.5428 -0.4263 -0.0972
 8885TIP3    H126619   4.599   1.901   3.194  0.6387 -0.2597  1.5547
 8885TIP3    H226620   4.475   1.916   3.279 -1.6592 -0.5674 -1.5582
 8886TIP3   OH226621   2.371   2.467   1.982 -0.1105  0.1175  0.4151
 8886TIP3    H126622   2.442   2.512   2.027 -0.2086 -0.9847  1.7356
 8886TIP3    H226623   2.298   2.469   2.044 -0.2070 -1.5711  0.4056
 8887TIP3   OH226624   1.913   0.448   2.109  0.0648 -0.3597  0.4755
 8887TIP3    H126625   1.967   0.460   2.186  1.6586  0.5571 -0.7142
 8887TIP3    H226626   1.823   0.456   2.141  0.6931  2.9788  1.8421
 8888TIP3   OH226627   6.243   4.247   0.605 -0.0019 -0.1451  0.0561
 8888TIP3    H126628   6.312   4.278   0.664 -0.8869 -0.5022  1.3153
 8888TIP3    H226629   6.190   4.325   0.588 -0.9084 -0.4542  1.3803
 8889TIP3   OH226630   4.443   1.866   2.311  0.2819 -0.1804  0.4808
 8889TIP3    H126631   4.501   1.827   2.245  0.4360 -1.2440  1.2309
 8889TIP3    H226632   4.360   1.822   2.299 -0.1052  0.6324  0.0782
 8890TIP3   OH226633   2.295   4.315   0.231 -0.4213 -0.2482 -0.0046
 8890TIP3    H126634   2.214   4.270   0.208  0.1615 -0.8407 -0.9542
 8890TIP3    H226635   2.336   4.259   0.298 -1.4023  0.7284  1.4943
 8891TIP3   OH226636   2.090   1.291   3.205  0.4361  0.2048 -0.2306
 8891TIP3    H126637   2.040   1.330   3.133  0.3610 -1.8095 -1.3279
 8891TIP3    H226638   2.025   1.272   3.273  0.4740  1.8793  0.3338
 8892TIP3   OH226639   1.445   0.278   0.930 -0.0498  0.2952 -0.0838
 8892TIP3    H126640   1.405   0.196   0.961  0.5123 -0.2354 -0.7324
 8892TIP3    H226641   1.527   0.284   0.980  0.6697 -0.3609 -1.1377
 8893TIP3   OH226642   4.816   2.631   0.181  0.2155  0.2135  0.3523
 8893TIP3    H126643   4.771   2.615   0.098  2.1278 -0.7829 -0.5629
 8893TIP3    H226644   4.875   2.556   0.192 -0.3354  0.0566  2.9080
 8894TIP3   OH226645   0.901   6.658   5.439  0.4477  0.1702  0.0139
 8894TIP3    H126646   0.864   6.744   5.420  0.3467  0.2032  0.3657
 8894TIP3    H226647   0.845   6.596   5.391  0.0649  0.2360  0.3781
 8895TIP3   OH226648   1.714   1.716   5.883 -0.7571 -0.1277 -0.1993
 8895TIP3    H126649   1.717   1.700   5.789 -0.8540  1.9553 -0.5994
 8895TIP3    H226650   1.693   1.809   5.891  2.2359  0.5082  1.8259
 8896TIP3   OH226651   3.393   0.537   2.302 -0.1851  0.2107  0.5946
 8896TIP3    H126652   3.478   0.518   2.263 -0.6053  0.5020 -0.4964
 8896TIP3    H226653   3.343   0.457   2.289 -0.5980  0.5925 -0.2428
 8897TIP3   OH226654   3.350   0.730   3.893 -0.3274 -0.1693 -0.1931
 8897TIP3    H126655   3.312   0.678   3.964 -1.8212 -1.1962 -1.6538
 8897TIP3    H226656   3.304   0.699   3.815  1.4092  0.7607 -1.6410
 8898TIP3   OH226657   5.507   2.561   5.718 -0.7410  0.5254 -0.5446
 8898TIP3    H126658   5.495   2.621   5.645 -1.8790 -1.4130 -2.0449
 8898TIP3    H226659   5.418   2.534   5.742 -0.2875 -0.1683  0.4357
 8899TIP3   OH226660   4.514   1.931   5.561  0.7196  0.5652  0.0576
 8899TIP3    H126661   4.552   1.951   5.476  0.2771 -0.3934 -0.3819
 8899TIP3    H226662   4.552   1.996   5.620  2.5863  0.0414 -0.4772
 8900TIP3   OH226663   5.063   3.292   2.169 -0.4200  0.5165 -0.1013
 8900TIP3    H126664   5.129   3.251   2.225 -0.4962  0.2149 -0.2317
 8900TIP3    H226665   4.980   3.257   2.202 -0.4979  0.6968 -0.1046
 8901TIP3   OH226666   3.538   1.200   2.616 -0.0570 -0.1419 -0.1251
 8901TIP3    H126667   3.455   1.155   2.598  0.8677 -1.3196 -1.6722
 8901TIP3    H226668   3.589   1.189   2.536  1.0636  1.8361  0.2540
 8902TIP3   OH226669   5.608   5.701   4.828  0.1863 -0.4461 -0.4361
 8902TIP3    H126670   5.537   5.752   4.790 -0.1022  0.0787  0.7496
 8902TIP3    H226671   5.685   5.726   4.779 -0.2755 -0.2417 -1.0658
 8903TIP3   OH226672   4.665   5.778   2.357 -0.5725 -0.0855  0.0195
 8903TIP3    H126673   4.734   5.746   2.299  1.1251  2.3901  0.5110
 8903TIP3    H226674   4.708   5.845   2.411 -2.7871 -0.1857  2.0951
 8904TIP3   OH226675   6.055   6.186   3.967 -1.0002 -0.6894  0.1157
 8904TIP3    H126676   5.977   6.168   4.019 -1.4061 -0.2612 -0.3398
 8904TIP3    H226677   6.051   6.280   3.949 -0.1238 -0.5705  0.4994
 8905TIP3   OH226678   7.185   0.028   5.498  0.4944  0.5849  0.1274
 8905TIP3    H126679   7.237   0.024   5.418 -0.6327  1.5204 -0.6934
 8905TIP3    H226680   7.129  -0.050   5.494  0.7050  0.4282  0.2091
 8906TIP3   OH226681   4.599   6.470   3.455  0.1810 -1.0793  0.7470
 8906TIP3    H126682   4.515   6.425   3.466 -1.1467  1.2123  0.7871
 8906TIP3    H226683   4.613   6.513   3.540 -0.1416  0.9107 -0.1568
 8907TIP3   OH226684   0.215   5.631   5.756 -0.5064 -0.1056 -0.2223
 8907TIP3    H126685   0.194   5.565   5.823  1.1752 -0.2467  0.2103
 8907TIP3    H226686   0.308   5.618   5.738  0.2391  2.9388  0.8140
 8908TIP3   OH226687   2.791   3.127   3.359  0.0914 -0.1982  0.5871
 8908TIP3    H126688   2.706   3.146   3.319  0.9953  1.5918 -0.6538
 8908TIP3    H226689   2.798   3.031   3.355 -1.3273 -0.3054 -0.4514
 8909TIP3   OH226690   4.771   0.710   0.685 -0.4247  0.4127  0.1427
 8909TIP3    H126691   4.792   0.617   0.680  0.7764  0.7066 -0.6635
 8909TIP3    H226692   4.722   0.728   0.604  0.2663  0.6953 -0.2170
 8910TIP3   OH226693   2.052   6.056   3.252 -0.0798  0.7778 -0.2959
 8910TIP3    H126694   2.122   6.024   3.310 -0.6273 -1.0884 -0.5891
 8910TIP3    H226695   1.973   6.048   3.305 -0.4151  0.2688 -0.8673
 8911TIP3   OH226696   4.723   6.630   1.729  0.5611  0.0089  0.2747
 8911TIP3    H126697   4.817   6.613   1.731  0.1128 -2.9030  1.6457
 8911TIP3    H226698   4.701   6.659   1.817 -0.0846 -1.3462  0.5874
 8912TIP3   OH226699   2.601   2.380   4.917 -0.3184  0.4430  0.0666
 8912TIP3    H126700   2.550   2.302   4.936  0.4687  0.4491  2.4436
 8912TIP3    H226701   2.545   2.453   4.942 -0.2573  0.5672 -0.1478
 8913TIP3   OH226702   6.515   0.550   3.266  0.8458 -0.0277 -0.0641
 8913TIP3    H126703   6.566   0.482   3.222  1.2852  0.3707 -0.1791
 8913TIP3    H226704   6.474   0.598   3.194 -0.6517 -1.0572  0.0508
 8914TIP3   OH226705   4.982   5.121   1.214  0.3325 -0.0670  0.3392
 8914TIP3    H126706   5.005   5.135   1.305 -0.1367 -1.0715  0.6236
 8914TIP3    H226707   4.904   5.175   1.200  0.1499 -0.2535  0.6493
 8915TIP3   OH226708   1.300   3.213   0.788 -0.1478 -0.2967 -0.1497
 8915TIP3    H126709   1.225   3.222   0.846  0.7691  1.4705  0.8333
 8915TIP3    H226710   1.275   3.260   0.709 -1.2612 -2.4102 -1.1305
 8916TIP3   OH226711   5.331  -0.007   1.929 -0.0592  0.0660  0.2267
 8916TIP3    H126712   5.273   0.058   1.889  2.0197  2.6501  1.1057
 8916TIP3    H226713   5.387   0.044   1.987  2.2116 -2.4419  0.4081
 8917TIP3   OH226714   4.404   0.499   5.576 -0.3329  0.3827  0.7442
 8917TIP3    H126715   4.474   0.474   5.516  2.1936  1.9242  2.8201
 8917TIP3    H226716   4.361   0.573   5.533 -0.8376 -0.6760 -0.6238
 8918TIP3   OH226717   2.118   3.972   2.768 -0.4685  0.0841 -0.0058
 8918TIP3    H126718   2.027   3.949   2.750  0.0199 -0.8396 -1.5227
 8918TIP3    H226719   2.132   3.945   2.859 -1.7522  0.4086  0.2998
 8919TIP3   OH226720   6.767   4.639   5.458 -0.0002  0.3341 -0.0044
 8919TIP3    H126721   6.751   4.616   5.549  0.0878  1.7125  0.3845
 8919TIP3    H226722   6.843   4.587   5.432  1.8253  1.9888  1.6339
 8920TIP3   OH226723   0.352   5.626   0.476  0.4446 -0.2937 -0.6676
 8920TIP3    H126724   0.379   5.629   0.384  1.9355  1.4482 -0.2308
 8920TIP3    H226725   0.424   5.668   0.523 -0.2095 -1.2984  1.3380
 8921TIP3   OH226726   4.838   5.863   1.075  0.2938 -0.2569 -0.0813
 8921TIP3    H126727   4.776   5.801   1.038  1.2741 -1.2050 -0.1647
 8921TIP3    H226728   4.911   5.810   1.105  1.1588  0.8503 -0.1506
 8922TIP3   OH226729   2.807   5.692   5.051  0.1221  0.1678  0.2545
 8922TIP3    H126730   2.861   5.763   5.085  2.0664 -0.7503 -0.7608
 8922TIP3    H226731   2.784   5.719   4.962 -2.1556  1.0596  1.0241
 8923TIP3   OH226732   2.135   5.288   5.288 -0.0731  0.3588  0.0050
 8923TIP3    H126733   2.158   5.316   5.376 -1.5321  0.1100  0.5069
 8923TIP3    H226734   2.127   5.192   5.295 -0.7664  0.3941 -0.2368
 8924TIP3   OH226735   0.340   0.042   1.356  0.0967  0.1152  0.1688
 8924TIP3    H126736   0.315   0.114   1.298  1.3492  0.4311  0.0133
 8924TIP3    H226737   0.372   0.084   1.435 -1.3911 -0.3182  1.0411
 8925TIP3   OH226738   6.246   0.070   3.764 -0.4209 -0.4339 -0.1949
 8925TIP3    H126739   6.182   0.016   3.718 -2.7377  0.8567  1.3325
 8925TIP3    H226740   6.246   0.153   3.718 -1.3306  0.2226  0.9436
 8926TIP3   OH226741   5.971   0.881   3.079  0.3316  0.3627 -0.2332
 8926TIP3    H126742   5.935   0.796   3.103 -1.4768  1.5998  1.7895
 8926TIP3    H226743   6.016   0.866   2.996 -1.8844 -2.0709 -1.1166
 8927TIP3   OH226744   1.702   1.665   3.027  0.0009  0.0957  0.0735
 8927TIP3    H126745   1.634   1.601   3.003 -0.2650  1.3436 -2.9720
 8927TIP3    H226746   1.657   1.749   3.025  0.9646  0.6666  1.2538
 8928TIP3   OH226747   0.021   2.166   3.732  0.2055  0.4768  0.5161
 8928TIP3    H126748   0.068   2.088   3.760 -1.5803 -1.2004 -0.9028
 8928TIP3    H226749   0.029   2.227   3.805  1.6179 -1.0286  1.6823
 8929TIP3   OH226750   3.474   5.159   1.540  0.0129 -0.9448  0.6723
 8929TIP3    H126751   3.510   5.078   1.506  1.7145 -0.0681  0.2482
 8929TIP3    H226752   3.457   5.141   1.633  1.8980 -1.3306  0.9778
 8930TIP3   OH226753   3.813   6.016   5.825 -0.5371  0.4423 -0.2091
 8930TIP3    H126754   3.767   5.986   5.747 -2.5148 -0.8974  1.4022
 8930TIP3    H226755   3.884   6.072   5.791 -0.7344 -0.8600 -2.9705
 8931TIP3   OH226756   4.063   1.650   4.473  0.3333  0.8555  0.2782
 8931TIP3    H126757   4.050   1.727   4.527  0.4817  1.4114 -0.4522
 8931TIP3    H226758   4.001   1.585   4.506  1.2104  0.7827  1.8336
 8932TIP3   OH226759   6.420   3.708   3.935 -0.1812 -0.4762 -0.2622
 8932TIP3    H126760   6.459   3.697   4.022 -0.2496 -0.2045 -0.1968
 8932TIP3    H226761   6.467   3.782   3.897 -0.6286 -0.1494 -0.1854
 8933TIP3   OH226762   2.510   0.248   3.257  0.3044  0.6580 -0.0229
 8933TIP3    H126763   2.458   0.170   3.238  0.5710  0.4418  0.1290
 8933TIP3    H226764   2.446   0.317   3.272 -0.0046 -0.0528  2.1595
 8934TIP3   OH226765   2.821   6.636   5.694  0.0049  0.2838  0.8878
 8934TIP3    H126766   2.852   6.599   5.777  0.3350  0.6371  0.9237
 8934TIP3    H226767   2.729   6.659   5.712 -0.1246 -0.2500  0.9495
 8935TIP3   OH226768   6.314   6.056   4.342 -0.2782  0.4520 -0.7885
 8935TIP3    H126769   6.267   5.982   4.382  0.6687  0.4835  0.4156
 8935TIP3    H226770   6.246   6.121   4.326 -0.7628  0.2501  0.3512
 8936TIP3   OH226771   2.167   4.443   3.557  0.2882  0.2448  0.1888
 8936TIP3    H126772   2.076   4.474   3.555  1.1513  3.1755 -1.8844
 8936TIP3    H226773   2.179   4.399   3.473  0.5665 -1.0607  0.8871
 8937TIP3   OH226774   5.678   1.641   3.162  0.7339  0.4692  0.4464
 8937TIP3    H126775   5.658   1.734   3.172 -0.1506  0.0530  3.2236
 8937TIP3    H226776   5.642   1.618   3.076 -1.6281  2.0777  0.9136
 8938TIP3   OH226777   1.875   1.922   0.450 -0.1003  0.4764  0.3874
 8938TIP3    H126778   1.944   1.942   0.386  1.7445 -0.2776  2.0539
 8938TIP3    H226779   1.864   2.003   0.499 -0.2664  0.5252  0.2732
 8939TIP3   OH226780   1.277   5.914   3.521  0.2858  0.2963  0.2728
 8939TIP3    H126781   1.266   5.882   3.610 -4.0363 -1.5185 -0.6648
 8939TIP3    H226782   1.360   5.877   3.492  0.4463 -1.3859  2.6211
 8940TIP3   OH226783   7.196   4.276   2.623  0.1053  0.5030 -0.1615
 8940TIP3    H126784   7.133   4.345   2.603  0.2531  0.2630 -1.5272
 8940TIP3    H226785   7.144   4.207   2.663 -0.2766  0.8321 -0.0827
 8941TIP3   OH226786   5.935   1.983   1.559  0.0742  0.0193  0.1592
 8941TIP3    H126787   5.948   2.063   1.610 -0.2800  0.1069  0.1178
 8941TIP3    H226788   5.841   1.983   1.539 -0.0820 -0.7863  0.8086
 8942TIP3   OH226789   6.447   0.183   0.117 -0.4410  0.4131 -0.1365
 8942TIP3    H126790   6.406   0.184   0.031 -0.9890 -0.2531  0.1102
 8942TIP3    H226791   6.486   0.096   0.123 -2.3079 -0.3814  1.1612
 8943TIP3   OH226792   5.423   4.206   4.382 -0.4599  0.3308  0.1486
 8943TIP3    H126793   5.446   4.299   4.383 -0.2607  0.2819  1.1467
 8943TIP3    H226794   5.328   4.205   4.382 -0.5152  0.5729  2.1282
 8944TIP3   OH226795   1.178   3.937   0.346 -0.2162 -0.3931 -0.6750
 8944TIP3    H126796   1.244   3.958   0.280  0.8390 -0.4688  0.3285
 8944TIP3    H226797   1.184   4.009   0.410  2.8935 -3.0279  2.4033
 8945TIP3   OH226798   2.539   3.615   2.647 -0.0007  0.0776 -0.2088
 8945TIP3    H126799   2.608   3.680   2.661 -0.2390  0.5196 -1.0364
 8945TIP3    H226800   2.460   3.666   2.633 -0.2919 -0.4090 -0.3670
 8946TIP3   OH226801   3.333   1.445   4.699  0.9744  0.2136  0.5737
 8946TIP3    H126802   3.339   1.397   4.617 -4.4493 -0.3059  0.1447
 8946TIP3    H226803   3.346   1.537   4.674  0.6357 -0.0505 -0.6275
 8947TIP3   OH226804   6.606   1.789   2.120  1.0182  0.3207 -0.3491
 8947TIP3    H126805   6.598   1.740   2.038 -0.5561  1.6074 -1.0019
 8947TIP3    H226806   6.621   1.879   2.093 -0.0412  0.8555  0.7722
 8948TIP3   OH226807   0.175   5.931   1.210  0.1209 -0.4480 -0.0678
 8948TIP3    H126808   0.114   5.857   1.215  0.7051 -0.9601 -0.2563
 8948TIP3    H226809   0.119   6.008   1.208 -0.6073 -0.9612 -1.9009
 8949TIP3   OH226810   6.294   3.890   3.118  0.3238  0.1450  0.1480
 8949TIP3    H126811   6.360   3.925   3.059 -0.3026  1.1698  0.0333
 8949TIP3    H226812   6.221   3.951   3.111 -1.1099 -1.5786 -0.6075
 8950TIP3   OH226813   1.764   4.815   1.115  0.6244 -0.0326 -0.1388
 8950TIP3    H126814   1.687   4.761   1.098  2.3946 -2.2470 -1.7066
 8950TIP3    H226815   1.782   4.802   1.208 -0.2457 -0.3946 -0.0161
 8951TIP3   OH226816   6.839   0.881   0.332  0.0694 -0.1504 -0.3933
 8951TIP3    H126817   6.749   0.909   0.316 -0.4205 -1.7703 -0.6742
 8951TIP3    H226818   6.843   0.792   0.296  0.7327 -1.5764  2.8804
 8952TIP3   OH226819   5.645   4.547   1.048  0.0479  0.2119 -0.0467
 8952TIP3    H126820   5.557   4.509   1.037  0.3690 -0.6788  0.3488
 8952TIP3    H226821   5.646   4.623   0.990 -0.1024 -1.2454 -2.0826
 8953TIP3   OH226822   6.230   0.772   4.563  0.1868  0.2099 -0.0894
 8953TIP3    H126823   6.242   0.829   4.486  0.6954  0.2051 -0.0190
 8953TIP3    H226824   6.319   0.749   4.590  0.0144  0.2926  0.5675
 8954TIP3   OH226825   2.776   1.578   4.104 -0.3180  0.3912 -0.1747
 8954TIP3    H126826   2.783   1.507   4.169 -0.8738  0.9297  0.4840
 8954TIP3    H226827   2.716   1.544   4.038 -0.9315  0.4052  0.3666
 8955TIP3   OH226828   3.191   5.371   1.741 -0.0674  0.1576 -0.1356
 8955TIP3    H126829   3.217   5.407   1.826 -3.0349 -1.6625  1.7513
 8955TIP3    H226830   3.139   5.440   1.700  0.2490  0.5654  0.1425
 8956TIP3   OH226831   3.155   6.248   0.114  0.8575 -0.4858  0.6780
 8956TIP3    H126832   3.233   6.295   0.083  1.3961 -2.2238 -0.7646
 8956TIP3    H226833   3.142   6.280   0.203  4.8292 -1.9813  2.0046
 8957TIP3   OH226834   3.957   5.980   0.812 -0.2110 -0.2569 -0.1298
 8957TIP3    H126835   3.872   5.984   0.856 -0.2101  0.4997 -0.1914
 8957TIP3    H226836   3.959   6.056   0.754 -0.1004 -1.0970 -1.2570
 8958TIP3   OH226837   1.899   3.514   2.469 -0.0916 -0.2907  0.0284
 8958TIP3    H126838   1.991   3.487   2.474 -0.1061 -0.2546  0.6141
 8958TIP3    H226839   1.850   3.438   2.502 -0.2900 -0.4118 -0.5399
 8959TIP3   OH226840   0.976   4.618   1.024 -0.0360  0.1467  0.2665
 8959TIP3    H126841   0.910   4.686   1.007  0.3710  0.7056  0.9028
 8959TIP3    H226842   0.928   4.550   1.071 -0.1607  0.5640  0.7527
 8960TIP3   OH226843   6.032   4.661   4.021 -0.2076 -0.0680 -0.0095
 8960TIP3    H126844   5.938   4.642   4.014 -0.9432  2.7510  1.0263
 8960TIP3    H226845   6.046   4.680   4.114  1.4745 -0.6134 -0.1078
 8961TIP3   OH226846   4.663   2.296   2.656  0.2292 -0.0905 -0.1725
 8961TIP3    H126847   4.593   2.358   2.676  1.3077  0.6571  1.4742
 8961TIP3    H226848   4.637   2.215   2.700  0.6962  0.3888  1.0260
 8962TIP3   OH226849   3.772   3.178   4.674 -0.0225 -0.3943 -0.1408
 8962TIP3    H126850   3.816   3.225   4.603  0.5930 -0.3305  0.2678
 8962TIP3    H226851   3.719   3.245   4.717  2.6461  0.5945  1.9026
 8963TIP3   OH226852   6.493   2.902   3.170 -0.4026  0.4471 -0.3330
 8963TIP3    H126853   6.530   2.883   3.257  0.5360  1.1097 -0.5633
 8963TIP3    H226854   6.399   2.898   3.182 -0.2796  0.3086  0.6759
 8964TIP3   OH226855   6.942   4.405   3.154 -0.1516 -0.0277 -0.0211
 8964TIP3    H126856   6.879   4.477   3.159  0.1248  0.1145  1.9692
 8964TIP3    H226857   6.906   4.337   3.211  0.4958 -0.7644 -0.4697
 8965TIP3   OH226858   6.886   5.109   4.726 -0.1515 -0.2153 -0.0990
 8965TIP3    H126859   6.947   5.126   4.655 -0.3709 -1.3562 -0.5919
 8965TIP3    H226860   6.823   5.047   4.689 -1.5241  0.8118  0.4447
 8966TIP3   OH226861   3.831   5.653   3.985 -0.0329 -0.2141  0.0703
 8966TIP3    H126862   3.798   5.725   4.038 -2.6760 -2.1116  1.2147
 8966TIP3    H226863   3.832   5.578   4.044  1.5109 -1.4163 -1.3766
 8967TIP3   OH226864   4.618   3.033   5.022 -0.0640 -0.0990  0.3860
 8967TIP3    H126865   4.619   2.952   5.074  1.3612  0.4757  1.3081
 8967TIP3    H226866   4.550   3.018   4.956 -0.7276 -1.5282  1.3455
 8968TIP3   OH226867   5.999   4.803   0.304 -0.1583  0.4346  0.6574
 8968TIP3    H126868   6.022   4.711   0.312 -2.3820 -0.3247 -1.0445
 8968TIP3    H226869   5.925   4.815   0.363  0.9123  1.5158  1.8687
 8969TIP3   OH226870   5.350   4.646   0.458  0.2429  0.8994  0.2002
 8969TIP3    H126871   5.392   4.651   0.543  0.0445  1.1766  0.2829
 8969TIP3    H226872   5.409   4.691   0.398 -0.7105  2.7868  0.6198
 8970TIP3   OH226873   4.572   5.213   1.101  0.3994 -0.5960  0.1545
 8970TIP3    H126874   4.520   5.294   1.095  1.5243  0.0927 -0.8987
 8970TIP3    H226875   4.510   5.143   1.078 -1.0498 -0.2899  2.7607
 8971TIP3   OH226876   3.853   1.626   5.327  0.2585  0.5158 -0.1586
 8971TIP3    H126877   3.934   1.632   5.378  0.0889  1.4288  0.0142
 8971TIP3    H226878   3.850   1.707   5.277 -0.0228  0.0125 -0.9643
 8972TIP3   OH226879   6.911   3.294   1.422 -0.7652  0.4261 -0.0319
 8972TIP3    H126880   6.984   3.275   1.362  0.0407  0.5902  0.8702
 8972TIP3    H226881   6.892   3.386   1.407  0.2906  0.8051  0.8500
 8973TIP3   OH226882   3.399   6.803   2.378  0.1709  1.1078 -0.2850
 8973TIP3    H126883   3.467   6.848   2.327 -0.0836  0.3790 -1.2876
 8973TIP3    H226884   3.422   6.710   2.372  0.2584  1.0103  1.1318
 8974TIP3   OH226885   2.561   4.387   0.915  0.1480  0.0022 -0.0851
 8974TIP3    H126886   2.521   4.396   1.001 -0.7318  0.1660 -0.4920
 8974TIP3    H226887   2.562   4.475   0.879  0.0457 -0.1306 -0.4266
 8975TIP3   OH226888   1.785   1.038   4.238  0.0005 -0.2284  0.0054
 8975TIP3    H126889   1.863   0.983   4.248 -0.4164 -0.8216  0.0675
 8975TIP3    H226890   1.762   1.063   4.328  1.3710  1.7687 -0.1385
 8976TIP3   OH226891   0.248   1.186   3.629  0.4330 -0.4917  0.0191
 8976TIP3    H126892   0.203   1.269   3.615  0.7596 -0.2045  0.6475
 8976TIP3    H226893   0.326   1.209   3.681  1.0327 -1.0502 -0.6132
 8977TIP3   OH226894   2.955   6.339   3.948  0.2105  0.0545 -0.6763
 8977TIP3    H126895   3.048   6.348   3.929  0.4882  1.9173  1.1940
 8977TIP3    H226896   2.951   6.281   4.023 -0.1156  0.1434 -0.6230
 8978TIP3   OH226897   0.476   3.610   0.525  0.3023 -0.3799 -0.5064
 8978TIP3    H126898   0.552   3.620   0.583  0.6729  0.4659 -1.1138
 8978TIP3    H226899   0.510   3.561   0.450 -0.4009 -2.2982  0.3718
 8979TIP3   OH226900   2.329   1.248   1.774 -0.6374 -1.0064 -0.3128
 8979TIP3    H126901   2.290   1.172   1.817  0.5191  0.3577  3.6088
 8979TIP3    H226902   2.282   1.323   1.810  1.8766  0.3551  0.4336
 8980TIP3   OH226903   1.519   4.545   0.811  0.0181 -0.2525  0.0680
 8980TIP3    H126904   1.503   4.467   0.759  0.1846  0.1359 -0.5682
 8980TIP3    H226905   1.462   4.535   0.888 -0.9134 -0.3799 -0.6300
 8981TIP3   OH226906   6.576   6.442   0.997 -0.0648  0.0574 -0.5348
 8981TIP3    H126907   6.538   6.527   0.974  1.6019  1.3544  1.1410
 8981TIP3    H226908   6.633   6.461   1.071  2.2639 -2.0979 -1.6328
 8982TIP3   OH226909   5.348   1.757   4.439 -0.3673  0.1647  0.1517
 8982TIP3    H126910   5.266   1.782   4.396 -1.0210 -2.7112 -0.4814
 8982TIP3    H226911   5.417   1.790   4.381 -1.1463  0.3302 -0.7023
 8983TIP3   OH226912   5.261   5.085   3.304  1.0325  0.2054 -0.3021
 8983TIP3    H126913   5.203   5.048   3.371  0.3154 -0.4790 -1.2638
 8983TIP3    H226914   5.248   5.179   3.310  1.3786  0.1875  0.8634
 8984TIP3   OH226915   0.977   4.437   1.372 -0.0025 -0.1975 -0.1172
 8984TIP3    H126916   0.937   4.519   1.344 -0.8600 -1.0244 -1.4060
 8984TIP3    H226917   0.985   4.445   1.467  3.2111  2.8262 -0.4395
 8985TIP3   OH226918   3.393   1.723   0.344  0.2288 -0.0812  0.3553
 8985TIP3    H126919   3.435   1.786   0.402  1.2356 -1.7166  1.4924
 8985TIP3    H226920   3.458   1.707   0.275 -0.9016  1.7372 -1.2151
 8986TIP3   OH226921   3.232   4.256   2.440  0.1328  0.1595 -0.2173
 8986TIP3    H126922   3.303   4.312   2.409  0.0011 -0.4475 -1.6936
 8986TIP3    H226923   3.152   4.302   2.415  0.0250 -0.4051 -0.9391
 8987TIP3   OH226924   2.654   2.053   2.396  0.3969  0.1390 -0.2019
 8987TIP3    H126925   2.707   2.105   2.335 -0.2659 -0.2867 -1.1634
 8987TIP3    H226926   2.569   2.096   2.397  0.5884  0.5358  0.9642
 8988TIP3   OH226927   5.406   2.186   5.649  0.2572  0.0545  0.4671
 8988TIP3    H126928   5.408   2.257   5.585 -1.8150  0.0644  0.3332
 8988TIP3    H226929   5.331   2.132   5.622  0.7158 -1.2047  1.5824
 8989TIP3   OH226930   5.788   5.793   4.641  0.0627  0.4761  0.0105
 8989TIP3    H126931   5.739   5.724   4.596 -1.6420  0.3847  1.8542
 8989TIP3    H226932   5.854   5.820   4.578 -1.7947 -0.0291 -2.3227
 8990TIP3   OH226933   6.444   0.530   2.769  0.1919  0.4602  0.3336
 8990TIP3    H126934   6.374   0.532   2.703  0.8335  0.3370 -0.3650
 8990TIP3    H226935   6.524   0.520   2.718  0.6908  0.2228  1.1519
 8991TIP3   OH226936   5.160   1.757   0.077 -0.2714  0.2878 -0.0479
 8991TIP3    H126937   5.162   1.724  -0.013  1.3540 -0.4662  0.2379
 8991TIP3    H226938   5.093   1.703   0.120  0.6754 -1.0503 -0.1974
 8992TIP3   OH226939   3.581   5.794   0.001  0.6996 -0.7587  0.7622
 8992TIP3    H126940   3.558   5.878   0.039  1.4126  0.0348 -0.5020
 8992TIP3    H226941   3.669   5.806  -0.035  0.0679 -1.4198 -1.1744
 8993TIP3   OH226942   6.264   1.952   5.902  0.0855  0.6334  0.0052
 8993TIP3    H126943   6.346   1.905   5.917 -0.1972 -0.4877 -1.7000
 8993TIP3    H226944   6.279   2.002   5.822 -0.8315  0.5479 -0.2335
 8994TIP3   OH226945   2.270   6.653   3.900  0.0343 -0.2302  0.2915
 8994TIP3    H126946   2.357   6.636   3.937  0.1147  0.7433  0.5780
 8994TIP3    H226947   2.226   6.567   3.901  0.6284 -0.5356  1.1055
 8995TIP3   OH226948   1.255   3.337   4.080  0.2126 -0.2042 -0.1099
 8995TIP3    H126949   1.255   3.251   4.037  0.0052 -0.0783 -0.3692
 8995TIP3    H226950   1.201   3.324   4.158 -0.2199 -0.1941 -0.3991
 8996TIP3   OH226951   6.701   0.087   1.197  0.1020  0.5687  0.2210
 8996TIP3    H126952   6.767   0.120   1.136 -0.3361  0.4893 -0.3081
 8996TIP3    H226953   6.702   0.148   1.270 -1.4936  2.4602 -1.2428
 8997TIP3   OH226954   1.240   3.180   1.114 -0.7464  0.5163  0.7558
 8997TIP3    H126955   1.155   3.225   1.110 -1.3173 -0.6099 -0.6651
 8997TIP3    H226956   1.227   3.099   1.065  2.1378  1.9557 -2.9226
 8998TIP3   OH226957   6.804   6.744   4.596  0.1016 -0.1783 -0.0812
 8998TIP3    H126958   6.820   6.814   4.533  1.1582  0.1518  0.5170
 8998TIP3    H226959   6.717   6.761   4.630  0.2518  0.7105 -0.1240
 8999TIP3   OH226960   4.203   2.470   5.070  0.0344  0.1393 -0.1440
 8999TIP3    H126961   4.126   2.441   5.119  1.6163 -2.5740  0.9726
 8999TIP3    H226962   4.176   2.552   5.028 -2.4580  0.8912  2.6170
 9000TIP3   OH226963   7.032   1.059   3.810 -0.1705  0.1064 -0.4937
 9000TIP3    H126964   7.066   1.068   3.721 -0.1336 -0.2564 -0.5196
 9000TIP3    H226965   7.088   1.115   3.863  1.6320 -1.7830 -0.2466
 9001TIP3   OH226966   5.086   2.069   0.498 -0.3613 -0.1730 -0.2977
 9001TIP3    H126967   5.149   2.020   0.446 -1.5028 -1.1397 -0.8149
 9001TIP3    H226968   5.134   2.094   0.577  0.1548 -2.5046  0.1928
 9002TIP3   OH226969   0.091   5.874   4.608 -0.3878  0.2351 -0.0988
 9002TIP3    H126970   0.035   5.871   4.685 -0.1306  1.8324  0.1814
 9002TIP3    H226971   0.178   5.849   4.640 -0.7599 -1.5394 -0.3926
 9003TIP3   OH226972   1.019   5.746   4.302 -0.1217  0.6876  0.3072
 9003TIP3    H126973   0.935   5.782   4.272  0.7055  0.9945 -1.8447
 9003TIP3    H226974   1.081   5.818   4.291  0.7101  0.0028  0.3915
 9004TIP3   OH226975   3.534   5.270   0.990 -0.0542 -0.3747 -0.1210
 9004TIP3    H126976   3.445   5.239   0.970  0.6885 -2.4621 -0.4656
 9004TIP3    H226977   3.557   5.227   1.072  0.6355  0.1899 -0.0050
 9005TIP3   OH226978   7.213   6.293   3.507  0.1928  0.1656  0.2722
 9005TIP3    H126979   7.193   6.291   3.600 -0.4667 -1.3362  0.1237
 9005TIP3    H226980   7.195   6.204   3.476  2.1174  0.1140 -0.9288
 9006TIP3   OH226981   4.579   0.019   0.266 -0.0082 -0.4070 -0.4342
 9006TIP3    H126982   4.620  -0.066   0.255 -1.5919 -0.9931 -2.3102
 9006TIP3    H226983   4.617   0.073   0.197  0.5920  0.2948  0.4113
 9007TIP3   OH226984   1.905   3.190   1.164  0.1616  0.0177 -0.8967
 9007TIP3    H126985   1.980   3.131   1.172 -0.0216 -0.3259 -1.6067
 9007TIP3    H226986   1.921   3.259   1.228  0.8863 -0.2621 -0.7740
 9008TIP3   OH226987   4.931   6.210   0.339  0.1477  0.1142 -0.1862
 9008TIP3    H126988   4.889   6.162   0.410  0.2815  0.0955 -0.1201
 9008TIP3    H226989   4.905   6.301   0.352  0.1844  0.1126 -0.1063
 9009TIP3   OH226990   6.431   4.363   4.441 -0.3210  0.3131 -0.2462
 9009TIP3    H126991   6.397   4.275   4.459 -0.8452  0.9370  2.2437
 9009TIP3    H226992   6.394   4.386   4.355 -0.7843 -1.5766 -0.5955
 9010TIP3   OH226993   1.056   5.278   2.352  0.4256  0.1643 -0.5871
 9010TIP3    H126994   1.151   5.270   2.343  0.5160  0.2626  0.2764
 9010TIP3    H226995   1.038   5.260   2.444 -0.5172 -0.9560 -0.9571
 9011TIP3   OH226996   5.194   5.701   4.042 -0.9576 -0.0039 -0.2629
 9011TIP3    H126997   5.182   5.632   3.976 -1.6246  0.0635 -0.2279
 9011TIP3    H226998   5.140   5.672   4.116 -1.8236  0.8861 -0.5154
 9012TIP3   OH226999   3.565   5.311   0.681  0.0640  0.0981 -0.4168
 9012TIP3    H127000   3.552   5.292   0.774 -0.4044 -1.5791 -0.7854
 9012TIP3    H227001   3.558   5.407   0.675 -1.3065  0.1432  1.0630
 9013TIP3   OH227002   4.407   6.206   1.982 -0.0517  0.8832  0.3152
 9013TIP3    H127003   4.479   6.193   2.044  0.8224 -1.5294 -1.0933
 9013TIP3    H227004   4.371   6.119   1.969 -0.6384  1.4272 -2.0664
 9014TIP3   OH227005   7.220   3.552   1.910 -0.0507  0.4014 -0.1324
 9014TIP3    H127006   7.165   3.483   1.872 -1.2151  2.0015 -1.5346
 9014TIP3    H227007   7.232   3.615   1.838  1.3931  1.4103  0.9447
 9015TIP3   OH227008   3.585   5.564   0.666  0.2908 -0.6910 -0.5815
 9015TIP3    H127009   3.679   5.546   0.669  0.4704  0.1978 -0.6881
 9015TIP3    H227010   3.575   5.629   0.597 -0.3052 -0.2246 -0.0704
 9016TIP3   OH227011   3.617   3.183   2.829 -0.5774  0.4819 -0.1015
 9016TIP3    H127012   3.535   3.136   2.816 -0.5489 -0.0692  1.4314
 9016TIP3    H227013   3.591   3.269   2.862 -0.5749  0.8056 -0.9428
 9017TIP3   OH227014   2.328   6.232   3.156  0.0026 -0.4445 -0.7132
 9017TIP3    H127015   2.362   6.154   3.200 -1.3675 -0.3624  0.5880
 9017TIP3    H227016   2.386   6.303   3.183  0.9788 -0.9133 -1.5272
 9018TIP3   OH227017   3.279   4.667   1.446 -0.1633 -0.4405  0.3745
 9018TIP3    H127018   3.203   4.655   1.503 -0.8810  0.1919 -0.4098
 9018TIP3    H227019   3.250   4.633   1.361  0.0161  0.8257 -0.2194
 9019TIP3   OH227020   2.631   2.309   2.928  0.3072  0.0746 -0.0184
 9019TIP3    H127021   2.661   2.338   3.014  1.7889  2.1144 -1.1522
 9019TIP3    H227022   2.690   2.237   2.905  3.0151  2.4594 -1.1654
 9020TIP3   OH227023   0.264   1.658   4.389 -0.3136 -0.1567 -0.0065
 9020TIP3    H127024   0.271   1.599   4.314 -1.0753  0.5427 -0.6556
 9020TIP3    H227025   0.353   1.693   4.401 -0.0423 -0.7956 -0.1417
 9021TIP3   OH227026   7.130   6.642   1.513 -0.2770 -0.6135 -0.6497
 9021TIP3    H127027   7.100   6.718   1.461  1.0990  0.7952  0.5145
 9021TIP3    H227028   7.211   6.615   1.470  0.8954  0.5917  0.7050
 9022TIP3   OH227029   4.726   2.375   2.110 -0.4328 -0.3639  0.1679
 9022TIP3    H127030   4.773   2.329   2.179 -1.2586  0.2155  1.1666
 9022TIP3    H227031   4.753   2.467   2.119 -1.0290 -0.1782  0.1562
 9023TIP3   OH227032   4.468   6.131   5.496 -0.2248  0.0198 -0.2781
 9023TIP3    H127033   4.427   6.215   5.479 -1.7146 -0.4716  0.6512
 9023TIP3    H227034   4.536   6.150   5.561 -2.4472  0.1698  2.1775
 9024TIP3   OH227035   7.144   6.285   4.041 -0.3696  0.3880  0.3643
 9024TIP3    H127036   7.064   6.239   4.067  0.4348 -0.2206  1.8632
 9024TIP3    H227037   7.151   6.358   4.103 -0.2873  1.0410 -0.3979
 9025TIP3   OH227038   1.791   5.683   4.940  0.3181 -0.1811 -0.4959
 9025TIP3    H127039   1.717   5.727   4.981 -0.4179 -0.5935 -1.3482
 9025TIP3    H227040   1.767   5.591   4.939  0.9986 -0.3645 -0.4740
 9026TIP3   OH227041   3.635   6.368   5.259 -0.3107 -0.2320 -0.3702
 9026TIP3    H127042   3.576   6.308   5.213 -0.9396  1.8594 -2.4791
 9026TIP3    H227043   3.700   6.393   5.194  2.0449 -1.2229  1.4574
 9027TIP3   OH227044   5.757   5.246   3.533  0.0336 -0.7537  0.1553
 9027TIP3    H127045   5.690   5.285   3.588  1.5169  1.8095  0.3121
 9027TIP3    H227046   5.741   5.282   3.446 -0.2240 -2.0706 -0.3755
 9028TIP3   OH227047   1.774   5.400   1.284  0.5678 -0.4027  0.8083
 9028TIP3    H127048   1.821   5.482   1.301  1.1376 -0.5971  0.2040
 9028TIP3    H227049   1.815   5.336   1.343  0.7994 -0.4805  0.5646
 9029TIP3   OH227050   1.482   0.822   3.514 -0.0601  0.3602  0.1303
 9029TIP3    H127051   1.495   0.834   3.608 -1.9481  1.2564  0.3093
 9029TIP3    H227052   1.420   0.890   3.489 -0.1964 -0.3565 -1.6222
 9030TIP3   OH227053   6.501   1.044   1.088  0.0605  0.4019  0.1345
 9030TIP3    H127054   6.470   1.107   1.153  0.5597 -1.9020  2.7951
 9030TIP3    H227055   6.434   0.976   1.087  1.2321 -0.7793  0.0425
 9031TIP3   OH227056   6.374   3.484   3.389  0.2806  0.7608 -0.4237
 9031TIP3    H127057   6.405   3.504   3.477 -1.5987  1.6366  0.0668
 9031TIP3    H227058   6.379   3.388   3.384  0.0203  0.6684  0.7792
 9032TIP3   OH227059   3.112   4.841   1.673  0.0274  0.4242 -0.2511
 9032TIP3    H127060   3.177   4.908   1.694  1.1308 -0.6456 -0.1396
 9032TIP3    H227061   3.028   4.884   1.687  0.7078  1.4410  0.9223
 9033TIP3   OH227062   3.965   2.106   4.978 -0.2501  0.7067  0.0662
 9033TIP3    H127063   3.874   2.126   5.002 -1.0258 -0.6166 -1.5800
 9033TIP3    H227064   3.959   2.027   4.925  2.0938 -0.5254  1.4968
 9034TIP3   OH227065   6.316   3.727   2.557  0.0225  0.3332 -0.2067
 9034TIP3    H127066   6.264   3.805   2.540 -0.2228  0.6475  1.8244
 9034TIP3    H227067   6.394   3.759   2.603 -0.4631 -0.6745  1.3773
 9035TIP3   OH227068   1.054   5.850   2.275 -0.1307 -0.4245  0.2336
 9035TIP3    H127069   1.088   5.801   2.201 -1.2430  0.3286 -0.8116
 9035TIP3    H227070   1.102   5.933   2.273  0.3302 -0.6689  0.7923
 9036TIP3   OH227071   5.128   3.833   2.667 -0.2771  0.2181 -0.0458
 9036TIP3    H127072   5.093   3.809   2.582 -2.0335  1.6543  0.2264
 9036TIP3    H227073   5.158   3.751   2.705 -0.8812 -0.6566 -1.4135
 9037TIP3   OH227074   3.244   1.381   3.350 -0.4939 -0.5292 -0.3970
 9037TIP3    H127075   3.273   1.470   3.331  2.2898 -1.5950 -1.8008
 9037TIP3    H227076   3.154   1.390   3.381 -0.8227  2.5994 -1.9298
 9038TIP3   OH227077   3.336   6.005   3.552  0.6687 -0.0957  0.4048
 9038TIP3    H127078   3.351   5.914   3.578 -0.3237 -0.3359  0.1743
 9038TIP3    H227079   3.243   6.020   3.570  0.6298  0.6082 -0.3351
 9039TIP3   OH227080   7.025   4.904   4.316  0.0795  0.4540  0.7774
 9039TIP3    H127081   7.106   4.942   4.349 -0.0201 -0.1807  1.8186
 9039TIP3    H227082   7.048   4.815   4.291  0.5057  1.3435 -2.4461
 9040TIP3   OH227083   0.100   3.837   0.829  0.0574 -0.5119  0.5198
 9040TIP3    H127084   0.045   3.913   0.813 -0.3799 -0.9802 -0.2819
 9040TIP3    H227085   0.157   3.832   0.752  0.3603 -0.7597  0.7589
 9041TIP3   OH227086   2.590   0.803   2.877 -0.3046 -0.0992 -0.2149
 9041TIP3    H127087   2.522   0.783   2.941 -0.2426 -0.0870 -0.1456
 9041TIP3    H227088   2.577   0.896   2.856 -0.1953 -0.0500 -0.0663
 9042TIP3   OH227089   5.179   4.013   3.169 -0.6044 -0.3786  0.1407
 9042TIP3    H127090   5.189   4.108   3.178 -2.0397 -0.0608 -1.1801
 9042TIP3    H227091   5.269   3.980   3.172  0.2503  1.3603 -2.4823
 9043TIP3   OH227092   1.136   4.122   1.424 -0.7662 -0.1029  0.1718
 9043TIP3    H127093   1.050   4.087   1.449 -0.2304 -1.9506 -0.4605
 9043TIP3    H227094   1.115   4.198   1.370 -2.0969 -1.5223 -1.4496
 9044TIP3   OH227095   1.327   3.300   4.444  0.2929 -0.1579 -0.0339
 9044TIP3    H127096   1.276   3.259   4.514  0.6454 -0.1369  0.2388
 9044TIP3    H227097   1.279   3.279   4.364 -0.0725 -0.2466  0.2061
 9045TIP3   OH227098   5.178   3.540   4.784  0.3098  0.3143  0.1389
 9045TIP3    H127099   5.171   3.502   4.871  0.6277  0.4516  0.2243
 9045TIP3    H227100   5.147   3.630   4.794  0.7768  0.4689  0.2068
 9046TIP3   OH227101   1.039   1.935   3.774 -0.3387  0.1558 -0.7010
 9046TIP3    H127102   1.031   1.842   3.794 -0.9895  0.1785 -0.8395
 9046TIP3    H227103   1.109   1.940   3.708  2.0806  0.1024  1.6503
 9047TIP3   OH227104   1.604   1.229   4.711 -0.4913  0.1950 -0.0066
 9047TIP3    H127105   1.598   1.325   4.713  0.2089  0.2352  1.6551
 9047TIP3    H227106   1.575   1.201   4.797  0.3520 -1.0189 -0.0941
 9048TIP3   OH227107   1.771   2.309   1.340 -0.4045 -0.6102  0.2389
 9048TIP3    H127108   1.861   2.278   1.332  0.6785  2.5539 -1.5764
 9048TIP3    H227109   1.739   2.315   1.250 -1.7392  0.1917  0.7331
 9049TIP3   OH227110   5.323   5.278   3.742 -0.0124  0.1295  0.6067
 9049TIP3    H127111   5.317   5.205   3.680  2.5653 -2.0490  2.6721
 9049TIP3    H227112   5.406   5.321   3.719  1.1684 -0.9252  2.5759
 9050TIP3   OH227113   1.313   2.319   2.279 -0.6323  0.0565 -0.5360
 9050TIP3    H127114   1.218   2.326   2.269 -0.7843 -1.1330 -0.0564
 9050TIP3    H227115   1.326   2.285   2.367  0.2055 -0.3048 -0.7824
 9051TIP3   OH227116   5.321   1.628   5.249 -0.2778 -0.0624 -0.4550
 9051TIP3    H127117   5.356   1.569   5.181 -0.6326  0.5689 -1.2047
 9051TIP3    H227118   5.249   1.674   5.206  0.2561  1.2209 -0.0228
 9052TIP3   OH227119   7.120   1.611   1.106  0.0222  0.2630  0.0272
 9052TIP3    H127120   7.212   1.596   1.131  0.2197 -2.0793 -1.7160
 9052TIP3    H227121   7.076   1.529   1.127 -1.3238  0.7792 -0.6565
 9053TIP3   OH227122   5.664   3.854   3.489  0.2603  0.5026 -0.4137
 9053TIP3    H127123   5.676   3.891   3.576  1.4487 -1.2443  0.2174
 9053TIP3    H227124   5.748   3.813   3.468 -1.4663 -3.6893 -0.0895
 9054TIP3   OH227125   0.633   0.485   0.584 -0.5385 -0.1756  0.0452
 9054TIP3    H127126   0.704   0.447   0.636 -0.4988  0.4099  0.4289
 9054TIP3    H227127   0.559   0.490   0.645 -0.3952  0.8245  0.1440
 9055TIP3   OH227128   2.337   3.818   1.407  0.1546  0.1730 -0.5678
 9055TIP3    H127129   2.357   3.725   1.417  0.4817  0.4332  1.6966
 9055TIP3    H227130   2.422   3.862   1.416 -0.3178  0.8147  1.1757
 9056TIP3   OH227131   1.892   5.378   4.055 -0.0236 -0.3058  0.2993
 9056TIP3    H127132   1.834   5.318   4.009  0.0082  0.3872 -0.6806
 9056TIP3    H227133   1.847   5.463   4.052  0.8329  0.1479 -0.1074
 9057TIP3   OH227134   4.956   2.477   0.549 -0.2907 -0.2115 -0.2085
 9057TIP3    H127135   4.987   2.559   0.511 -1.1874 -0.0993 -0.7295
 9057TIP3    H227136   4.960   2.414   0.477 -1.5616 -0.1116 -0.3815
 9058TIP3   OH227137   1.835   3.866   0.900 -0.6178  0.2648 -0.1969
 9058TIP3    H127138   1.910   3.833   0.849 -0.7974 -1.4346  0.5638
 9058TIP3    H227139   1.867   3.869   0.990 -1.1868  0.4214 -0.0017
 9059TIP3   OH227140   5.527   0.376   3.733 -0.5723  0.1684 -0.4404
 9059TIP3    H127141   5.483   0.445   3.682  0.5521  1.9022  0.8044
 9059TIP3    H227142   5.579   0.424   3.798  0.7056 -1.8781  0.1367
 9060TIP3   OH227143   3.575   4.824   1.923 -0.0013 -0.8324  0.2028
 9060TIP3    H127144   3.552   4.786   1.838 -0.8559  0.3972 -0.1337
 9060TIP3    H227145   3.671   4.828   1.922  0.0245 -1.3720 -0.4584
 9061TIP3   OH227146   6.653   3.641   4.603  0.2723 -0.8786  0.1093
 9061TIP3    H127147   6.615   3.719   4.562  1.9481 -0.3546 -0.5100
 9061TIP3    H227148   6.617   3.641   4.692  2.3634  2.2274  1.1040
 9062TIP3   OH227149   3.156   5.790   3.949  0.3005 -0.6585  0.4516
 9062TIP3    H127150   3.197   5.869   3.985  1.7374 -0.7337 -0.9273
 9062TIP3    H227151   3.079   5.821   3.903  0.9650 -0.0225 -0.2494
 9063TIP3   OH227152   5.726   2.078   1.934  0.0201 -0.6034  0.0856
 9063TIP3    H127153   5.686   2.152   1.980  0.1325 -2.0452  2.6448
 9063TIP3    H227154   5.807   2.113   1.897 -0.0859  0.6200  0.9692
 9064TIP3   OH227155   3.122   1.683   1.489 -0.4658  0.0249 -0.0066
 9064TIP3    H127156   3.152   1.764   1.449  2.1351 -0.1558  1.3513
 9064TIP3    H227157   3.052   1.710   1.547  0.6832  1.4492  0.8044
 9065TIP3   OH227158   3.665   2.162   2.523  0.9410 -0.3926  0.8146
 9065TIP3    H127159   3.715   2.190   2.599  0.3510  0.3575  0.9401
 9065TIP3    H227160   3.651   2.242   2.473  1.7938 -0.9547 -0.3783
 9066TIP3   OH227161   6.425   0.719   1.031 -0.3836 -0.6080  0.0849
 9066TIP3    H127162   6.392   0.633   1.004  0.3863 -0.3668 -1.7817
 9066TIP3    H227163   6.516   0.721   1.001  0.5507 -0.2210  2.7096
 9067TIP3   OH227164   5.578   5.101   0.313  0.2374 -0.2158  0.0006
 9067TIP3    H127165   5.546   5.138   0.230  0.0600 -0.8502 -0.2216
 9067TIP3    H227166   5.498   5.072   0.358  0.4572 -1.6346 -0.4712
 9068TIP3   OH227167   6.708   3.567   1.417  0.3514 -0.2639  0.3536
 9068TIP3    H127168   6.631   3.525   1.380  1.4877  0.0979 -2.7881
 9068TIP3    H227169   6.677   3.651   1.450 -0.7207 -0.4009 -0.2674
 9069TIP3   OH227170   3.291   2.717   0.886 -0.5654  0.0256  0.3583
 9069TIP3    H127171   3.266   2.809   0.883  0.3052  0.3899  2.3637
 9069TIP3    H227172   3.258   2.680   0.804  2.2587  2.8872 -2.3829
 9070TIP3   OH227173   4.968   5.289   5.338 -0.7246 -0.1928  0.9190
 9070TIP3    H127174   4.974   5.371   5.387  1.0929 -0.6568  1.5536
 9070TIP3    H227175   5.031   5.299   5.266 -2.0695 -0.2147 -0.2969
 9071TIP3   OH227176   0.407   6.120   4.547  0.3156  0.1622 -0.2836
 9071TIP3    H127177   0.367   6.115   4.633 -2.1492  0.3055 -1.3288
 9071TIP3    H227178   0.460   6.041   4.540 -1.8655 -1.4654  0.2834
 9072TIP3   OH227179   0.415   4.114   4.890  0.4677 -0.3077  0.1163
 9072TIP3    H127180   0.391   4.151   4.805 -0.2724  1.0479  0.8899
 9072TIP3    H227181   0.484   4.172   4.923  0.2800 -0.4400  0.7434
 9073TIP3   OH227182   6.219   3.378   1.242  0.4153  0.6236  0.1119
 9073TIP3    H127183   6.157   3.311   1.215  0.4546  0.5033  0.3219
 9073TIP3    H227184   6.193   3.456   1.192 -0.7149  0.9467  1.1378
 9074TIP3   OH227185   6.817   0.367   3.430 -0.3137  0.1633 -0.1517
 9074TIP3    H127186   6.890   0.409   3.475  0.6225 -0.6152 -0.9257
 9074TIP3    H227187   6.853   0.286   3.395 -1.4736 -0.0914 -0.8001
 9075TIP3   OH227188   3.560   5.046   2.085  0.2820 -0.1892  0.3118
 9075TIP3    H127189   3.601   5.015   2.165  1.8785  0.5210 -0.1848
 9075TIP3    H227190   3.578   4.978   2.020 -1.0227 -0.7732  0.5475
 9076TIP3   OH227191   1.347   4.670   5.298 -0.3788 -0.4915 -0.1211
 9076TIP3    H127192   1.347   4.592   5.353 -2.1404  0.4772  1.3680
 9076TIP3    H227193   1.426   4.718   5.324 -0.0918 -1.0495  0.0483
 9077TIP3   OH227194   0.446   3.049   0.029  0.6337 -0.0846 -0.0387
 9077TIP3    H127195   0.505   2.983   0.065  1.6957 -0.1130 -1.7326
 9077TIP3    H227196   0.384   2.999  -0.024  0.9282  0.1957 -0.6544
 9078TIP3   OH227197   3.984   6.242   4.805  0.1472 -0.2172  0.0979
 9078TIP3    H127198   3.938   6.296   4.870  0.2109 -1.2115  0.9967
 9078TIP3    H227199   4.076   6.266   4.814  0.1885 -0.5432  0.5712
 9079TIP3   OH227200   1.197   2.077   3.372  0.2473 -0.2595  0.3400
 9079TIP3    H127201   1.241   2.053   3.454  0.8476 -0.0041  0.1020
 9079TIP3    H227202   1.138   2.004   3.354  1.1292 -0.9806  0.2824
 9080TIP3   OH227203   7.174   0.373   1.932 -0.7302 -0.2418 -0.1184
 9080TIP3    H127204   7.212   0.446   1.885  0.3833  0.9495  2.4889
 9080TIP3    H227205   7.082   0.397   1.943 -0.6236  0.2314 -0.2526
 9081TIP3   OH227206   0.971   5.732   3.905  0.3391  0.1330 -0.0335
 9081TIP3    H127207   1.032   5.660   3.890 -0.3557 -0.2165 -1.4280
 9081TIP3    H227208   0.961   5.772   3.819 -1.2725  0.2586  0.1865
 9082TIP3   OH227209   0.033   2.765   2.839  0.4810 -0.1889 -0.0223
 9082TIP3    H127210   0.086   2.769   2.919 -2.0920  0.5223  1.7909
 9082TIP3    H227211   0.007   2.673   2.832  0.1004 -0.1184  0.4174
 9083TIP3   OH227212   5.437   1.137   0.580  0.0358  0.1672 -0.2751
 9083TIP3    H127213   5.375   1.096   0.519  0.3424  0.5929 -0.8861
 9083TIP3    H227214   5.382   1.191   0.637 -0.3858 -1.1456  0.6108
 9084TIP3   OH227215   2.590   6.206   3.375 -0.8693  0.4126  0.3596
 9084TIP3    H127216   2.669   6.237   3.418 -2.1725  1.5663  2.0817
 9084TIP3    H227217   2.584   6.258   3.295  1.8180 -2.0660 -1.6490
 9085TIP3   OH227218   7.147   0.616   5.503 -0.3757 -1.0647 -0.5101
 9085TIP3    H127219   7.185   0.528   5.505  0.0266 -0.8959 -0.6866
 9085TIP3    H227220   7.198   0.665   5.567 -2.0280 -1.5178  1.2807
 9086TIP3   OH227221   0.176   2.530   0.143 -0.1945 -0.1006  0.1301
 9086TIP3    H127222   0.127   2.475   0.082  0.0961 -1.1065  0.7743
 9086TIP3    H227223   0.173   2.618   0.104  0.2203 -0.7559 -1.4756
 9087TIP3   OH227224   2.204   3.575   0.560  0.2672  0.0339 -0.2897
 9087TIP3    H127225   2.237   3.488   0.582 -2.0948 -0.9163 -0.1899
 9087TIP3    H227226   2.265   3.635   0.603  1.8041 -1.5554 -0.1331
 9088TIP3   OH227227   4.464   4.976   2.046 -0.2620 -0.1169  0.2710
 9088TIP3    H127228   4.432   5.046   2.103 -0.8968  0.5621 -0.8721
 9088TIP3    H227229   4.552   4.957   2.078 -0.5898  0.2682  1.4400
 9089TIP3   OH227230   6.571   4.823   3.719 -0.6856 -0.1437 -0.0197
 9089TIP3    H127231   6.637   4.890   3.700  0.1753 -1.3985 -1.7327
 9089TIP3    H227232   6.490   4.872   3.728 -0.1362  1.1410 -1.5467
 9090TIP3   OH227233   6.205   4.848   4.200  0.1397 -0.6043 -0.0390
 9090TIP3    H127234   6.213   4.936   4.161 -0.1484  0.3689  1.9960
 9090TIP3    H227235   6.268   4.795   4.151  0.2881  0.7127 -1.3538
 9091TIP3   OH227236   3.757   0.468   4.344 -0.2953  0.1006  0.7901
 9091TIP3    H127237   3.846   0.436   4.329 -0.4499  0.4898 -1.2180
 9091TIP3    H227238   3.740   0.528   4.271 -2.0626  0.3340  1.3430
 9092TIP3   OH227239   6.940   2.817   0.817 -0.2598  0.1252  0.0071
 9092TIP3    H127240   6.953   2.823   0.723  0.6548 -1.2314  0.0173
 9092TIP3    H227241   7.029   2.813   0.853 -0.6094  0.0179  0.8771
 9093TIP3   OH227242   3.839   4.578   1.163  0.3717  0.0354 -0.5060
 9093TIP3    H127243   3.755   4.568   1.209  0.4111 -0.0998 -0.4629
 9093TIP3    H227244   3.904   4.541   1.224  0.5974  1.0853 -0.0868
 9094TIP3   OH227245   3.409   1.194   1.206 -0.2702 -0.1455 -0.3427
 9094TIP3    H127246   3.495   1.220   1.238  0.4047  0.0327 -2.1902
 9094TIP3    H227247   3.408   1.099   1.216 -0.8997  0.0524  2.0373
 9095TIP3   OH227248   4.135   5.637   2.649 -0.4335  0.8360  0.2284
 9095TIP3    H127249   4.099   5.563   2.600 -0.8410  0.4788  1.0428
 9095TIP3    H227250   4.214   5.602   2.690 -1.3346  0.4211  1.7095
 9096TIP3   OH227251   5.283   3.453   3.812 -0.0073  0.0310  0.0598
 9096TIP3    H127252   5.221   3.381   3.823  0.2946 -0.0795  1.1696
 9096TIP3    H227253   5.327   3.460   3.896  2.0256 -0.3806 -0.9015
 9097TIP3   OH227254   3.973   5.852   3.717 -0.0125 -0.1232 -0.1064
 9097TIP3    H127255   3.951   5.868   3.809 -0.8603 -0.0306 -0.3181
 9097TIP3    H227256   4.062   5.816   3.720  0.2986  0.6706  0.6874
 9098TIP3   OH227257   3.010   2.578   1.182 -1.3534  0.0548 -0.9056
 9098TIP3    H127258   3.036   2.662   1.143 -0.0721  0.3712  0.5183
 9098TIP3    H227259   3.074   2.564   1.252 -2.6004 -1.2747  0.0144
 9099TIP3   OH227260   4.893   4.279   0.802 -0.1115 -0.5825 -0.4392
 9099TIP3    H127261   4.974   4.278   0.854  1.3071 -0.6056 -2.5048
 9099TIP3    H227262   4.873   4.371   0.789 -0.0794 -0.5705 -0.4003
 9100TIP3   OH227263   6.133   2.025   3.647 -0.4005  0.2483 -0.4968
 9100TIP3    H127264   6.135   1.949   3.705 -3.7120 -1.2550 -2.0580
 9100TIP3    H227265   6.177   1.995   3.567 -2.0412 -0.2708 -1.2530
 9101TIP3   OH227266   1.826   1.356   4.442  0.3810 -0.0661  0.0005
 9101TIP3    H127267   1.906   1.407   4.455 -0.5518  1.1814  1.1700
 9101TIP3    H227268   1.776   1.368   4.523  0.0446 -2.7982  0.2970
 9102TIP3   OH227269   5.579   1.622   3.842  0.6423  0.2635 -0.7573
 9102TIP3    H127270   5.662   1.669   3.843  0.1971  1.0505 -0.4611
 9102TIP3    H227271   5.592   1.552   3.777  1.7546 -0.0342 -0.2456
 9103TIP3   OH227272   1.938   2.392   2.336  0.0552 -1.0726 -0.0694
 9103TIP3    H127273   1.939   2.483   2.365  1.1814 -1.1912  0.3369
 9103TIP3    H227274   1.894   2.394   2.252 -0.1881 -0.1952  0.0666
 9104TIP3   OH227275   4.813   1.382   3.862  0.3430 -0.1197 -0.6801
 9104TIP3    H127276   4.735   1.332   3.840  1.4390 -2.4405  0.3313
 9104TIP3    H227277   4.820   1.376   3.958  2.3380 -0.9874 -0.8209
 9105TIP3   OH227278   5.924   2.955   5.880  0.7859  0.6086  0.5272
 9105TIP3    H127279   6.004   2.903   5.891  1.5088  1.5171 -0.2387
 9105TIP3    H227280   5.953   3.046   5.891 -0.1527  0.9472  0.2687
 9106TIP3   OH227281   2.881   3.587   5.429 -0.1900  0.9907 -0.8749
 9106TIP3    H127282   2.862   3.581   5.335 -0.8952 -1.9687 -0.6618
 9106TIP3    H227283   2.971   3.555   5.437 -0.0707  1.4072 -0.5613
 9107TIP3   OH227284   3.547   3.449   1.525 -0.4698  0.8548  0.2552
 9107TIP3    H127285   3.516   3.517   1.585 -1.1837  2.1855 -1.5279
 9107TIP3    H227286   3.476   3.384   1.524  0.4412 -0.2524  2.3672
 9108TIP3   OH227287   3.733   4.256   0.052 -0.3089  0.3385 -0.1261
 9108TIP3    H127288   3.811   4.246   0.107  0.4832 -0.1954 -1.2936
 9108TIP3    H227289   3.749   4.336   0.002 -1.0530  0.8544  0.4244
 9109TIP3   OH227290   5.106   2.519   2.522 -0.2384 -0.3108 -0.0453
 9109TIP3    H127291   5.124   2.447   2.462 -0.2781 -0.1178 -0.2886
 9109TIP3    H227292   5.146   2.491   2.604  0.8801 -0.0427 -0.4846
 9110TIP3   OH227293   5.220   2.730   1.838  0.2729  0.1895  0.0417
 9110TIP3    H127294   5.216   2.825   1.836 -0.2896  0.1549 -1.1967
 9110TIP3    H227295   5.146   2.704   1.894  2.4293  0.5207  3.3623
 9111TIP3   OH227296   6.606   2.508   2.069 -0.4251 -0.0615  0.4763
 9111TIP3    H127297   6.684   2.484   2.019  0.0225  0.9350  0.6850
 9111TIP3    H227298   6.537   2.516   2.003 -0.5712 -1.7579  0.3820
 9112TIP3   OH227299   5.137   1.598   4.611  0.0107 -0.4512 -0.4825
 9112TIP3    H127300   5.108   1.683   4.578  0.1171 -1.0321 -2.1782
 9112TIP3    H227301   5.059   1.542   4.607 -0.3970 -0.1731  1.8167
 9113TIP3   OH227302   0.635   1.679   2.425 -0.3624 -0.2702 -0.0753
 9113TIP3    H127303   0.591   1.661   2.509  0.3560  0.7413  0.5341
 9113TIP3    H227304   0.594   1.618   2.364 -1.7666 -0.1952  0.7406
 9114TIP3   OH227305   6.474   1.476   4.929  0.0511 -0.5270 -0.4067
 9114TIP3    H127306   6.517   1.393   4.948 -1.2021 -1.2841 -0.7509
 9114TIP3    H227307   6.442   1.466   4.839 -0.0840  0.3503 -0.4675
 9115TIP3   OH227308   4.992   4.277   2.893 -0.3530 -0.5537  0.1021
 9115TIP3    H127309   4.993   4.285   2.988 -1.0952 -0.6526  0.1195
 9115TIP3    H227310   4.994   4.183   2.877 -0.1251 -0.5349  0.0156
 9116TIP3   OH227311   3.358   5.632   1.377 -0.1213 -0.7462 -1.0330
 9116TIP3    H127312   3.406   5.706   1.413 -2.3991  0.7952 -0.9617
 9116TIP3    H227313   3.397   5.555   1.419  1.3309  0.5084  0.0108
 9117TIP3   OH227314   5.630   3.311   3.051 -0.1087 -0.0227 -0.2647
 9117TIP3    H127315   5.587   3.243   2.998 -2.1105  1.2211 -0.3112
 9117TIP3    H227316   5.560   3.349   3.104  1.0793  1.5690  0.2427
 9118TIP3   OH227317   0.616   1.071   2.562  0.1222  1.0276  0.8211
 9118TIP3    H127318   0.595   1.157   2.598 -1.5687  0.0807  2.2667
 9118TIP3    H227319   0.534   1.022   2.567  1.7445 -1.8663  3.6212
 9119TIP3   OH227320   4.748   3.806   2.893  0.4059 -0.5489  0.5950
 9119TIP3    H127321   4.830   3.759   2.912  0.2772 -1.0401 -0.0644
 9119TIP3    H227322   4.765   3.851   2.810 -0.0745 -0.8466  0.3346
 9120TIP3   OH227323   4.365   5.019   3.563  0.1703  0.0098  0.2677
 9120TIP3    H127324   4.343   5.076   3.637 -1.4207  0.9460 -0.8737
 9120TIP3    H227325   4.283   4.974   3.542  0.7348 -0.6524 -0.5875
 9121TIP3   OH227326   4.183   3.478   4.070  0.4267  0.3429 -0.0521
 9121TIP3    H127327   4.245   3.498   4.000  0.2026 -0.3029 -0.4460
 9121TIP3    H227328   4.162   3.563   4.108 -1.3125  1.0684 -2.3801
 9122TIP3   OH227329   6.022   5.549   3.290  0.4875 -0.8861  0.4693
 9122TIP3    H127330   6.027   5.497   3.210  1.4348 -1.2574  0.7513
 9122TIP3    H227331   6.060   5.493   3.357 -0.0850 -0.4881  1.1350
 9123TIP3   OH227332   0.650   0.294   2.468 -0.8246  0.4620 -0.2141
 9123TIP3    H127333   0.565   0.336   2.456 -1.4744 -0.7926 -0.1448
 9123TIP3    H227334   0.642   0.209   2.424  0.7888  0.7852 -1.2324
 9124TIP3   OH227335   3.661   6.288   0.363  0.4942 -0.1480 -0.0799
 9124TIP3    H127336   3.593   6.292   0.430 -0.7042  0.0291 -1.2755
 9124TIP3    H227337   3.717   6.215   0.390  0.0579 -0.0683  1.1086
 9125TIP3   OH227338   1.323   5.147   0.439 -0.2440 -0.7925  0.0445
 9125TIP3    H127339   1.331   5.063   0.483 -0.4031 -0.9953 -0.3145
 9125TIP3    H227340   1.263   5.197   0.494  0.3716 -0.6673  0.6252
 9126TIP3   OH227341   5.906   3.667   1.166 -0.0075  0.4340 -0.2260
 9126TIP3    H127342   5.886   3.743   1.112 -0.1816  0.3725 -0.2494
 9126TIP3    H227343   5.999   3.649   1.151  0.2159  1.0819  0.3320
 9127TIP3   OH227344   6.019   2.622   1.295 -0.3905  0.5419  0.3190
 9127TIP3    H127345   6.012   2.579   1.210 -0.8844  0.4101  0.4262
 9127TIP3    H227346   6.050   2.710   1.274  2.4667 -0.3868  0.2333
 9128TIP3   OH227347   6.014   0.527   3.364  0.3232 -0.5109 -0.1940
 9128TIP3    H127348   6.107   0.509   3.368  0.2832 -0.5397  0.7378
 9128TIP3    H227349   6.005   0.617   3.395 -0.2278 -1.4696  2.7571
 9129TIP3   OH227350   2.618   3.560   4.795  0.3777 -0.2005  0.4910
 9129TIP3    H127351   2.606   3.632   4.733  1.3174  1.0553  1.6843
 9129TIP3    H227352   2.593   3.482   4.747  1.3594  0.6741 -1.5579
 9130TIP3   OH227353   6.259   5.793   2.893  0.2081 -0.4245 -0.5810
 9130TIP3    H127354   6.228   5.872   2.849  1.1708 -0.2644 -1.0101
 9130TIP3    H227355   6.189   5.770   2.954 -0.2469  0.5444 -0.7193
 9131TIP3   OH227356   0.970   2.022   1.491 -0.1252  0.0154 -0.2860
 9131TIP3    H127357   0.883   2.062   1.490 -0.1660  0.0135  1.3152
 9131TIP3    H227358   0.954   1.931   1.465 -0.4310  0.2738 -1.0527
 9132TIP3   OH227359   1.951   6.479   2.134 -0.3850 -0.7591 -0.4586
 9132TIP3    H127360   1.940   6.389   2.103 -0.6641  0.2382 -3.5191
 9132TIP3    H227361   1.933   6.534   2.058  1.7638  1.8695  0.7487
 9133TIP3   OH227362   7.102   6.522   0.660 -0.0801  0.0438 -0.1335
 9133TIP3    H127363   7.185   6.569   0.666  0.0506 -0.3221  1.7872
 9133TIP3    H227364   7.123   6.441   0.613  0.1300  0.9372 -1.6424
 9134TIP3   OH227365   5.550   3.149   4.539 -0.1554 -0.1038  0.2575
 9134TIP3    H127366   5.527   3.230   4.493  1.4952  1.0059  1.2875
 9134TIP3    H227367   5.599   3.098   4.476 -0.4782  0.0702 -0.1376
 9135TIP3   OH227368   4.589   1.775   4.060 -0.1437  0.3360 -0.2033
 9135TIP3    H127369   4.648   1.755   3.987 -2.1012 -1.2852 -1.4453
 9135TIP3    H227370   4.570   1.868   4.050 -0.7075  0.0730 -2.1056
 9136TIP3   OH227371   6.617   6.230   4.016 -0.4573  0.3375  0.1098
 9136TIP3    H127372   6.553   6.171   4.056 -0.2921  0.1842  0.1504
 9136TIP3    H227373   6.576   6.316   4.020 -1.0517  0.1055 -0.6786
 9137TIP3   OH227374   2.540   3.168   2.408  0.0809  0.0676 -0.2929
 9137TIP3    H127375   2.564   3.105   2.477  0.4462 -0.6905 -1.0875
 9137TIP3    H227376   2.542   3.253   2.451  2.0572 -0.1978  0.2150
 9138TIP3   OH227377   5.164   2.109   1.685 -0.4594 -0.7697  0.2821
 9138TIP3    H127378   5.205   2.029   1.716  0.6871 -0.1884  0.3271
 9138TIP3    H227379   5.210   2.179   1.731 -0.7225 -0.0368 -0.5350
 9139TIP3   OH227380   4.716   1.621   5.512  0.1654  0.2440  0.1192
 9139TIP3    H127381   4.740   1.599   5.602  0.7817  2.4046  0.5645
 9139TIP3    H227382   4.792   1.596   5.459 -0.5971 -1.9728 -0.0044
 9140TIP3   OH227383   1.125   1.912   4.745 -0.3883  0.2431  0.1941
 9140TIP3    H127384   1.218   1.890   4.754 -0.6780 -0.3055  2.8928
 9140TIP3    H227385   1.081   1.828   4.735 -0.7132  0.3237  0.8390
 9141TIP3   OH227386   6.574   3.603   4.867 -0.1500  0.2497 -0.2996
 9141TIP3    H127387   6.497   3.551   4.892 -1.1746  0.9986 -1.7515
 9141TIP3    H227388   6.649   3.546   4.886 -0.8721  0.1184  2.7804
 9142TIP3   OH227389   4.939   4.954   2.024  0.1454  0.0944  0.4819
 9142TIP3    H127390   4.912   4.905   1.946  2.1061  0.2132 -0.3167
 9142TIP3    H227391   4.939   4.888   2.094 -1.6885  0.0015  0.4386
 9143TIP3   OH227392   3.749   2.568   1.958 -0.3010  0.5605 -0.3882
 9143TIP3    H127393   3.678   2.565   1.895 -0.5686  2.0278 -0.2008
 9143TIP3    H227394   3.807   2.496   1.933 -1.9693 -0.8353 -0.3684
 9144TIP3   OH227395   5.360   4.233   0.613  0.4769  0.1685 -0.1477
 9144TIP3    H127396   5.428   4.273   0.668  0.5860  0.2364 -0.3317
 9144TIP3    H227397   5.322   4.165   0.669  0.7842  0.0406 -0.0873
 9145TIP3   OH227398   2.513   2.620   3.787  0.4824 -0.1244 -0.3190
 9145TIP3    H127399   2.434   2.653   3.831  0.4964  0.8501 -0.9835
 9145TIP3    H227400   2.485   2.538   3.746  0.4534 -1.0210  1.4075
 9146TIP3   OH227401   3.844   4.937   2.375 -0.0455 -0.3856  0.4789
 9146TIP3    H127402   3.778   4.909   2.311  0.6358 -0.5973 -0.1522
 9146TIP3    H227403   3.795   4.954   2.455 -0.9715  0.2296 -0.1964
 9147TIP3   OH227404   2.752   0.998   1.466 -0.0075  0.1149  0.0048
 9147TIP3    H127405   2.780   0.985   1.557  0.2011 -0.8671 -0.1853
 9147TIP3    H227406   2.658   0.979   1.467  0.2120 -1.0370 -0.1879
 9148TIP3   OH227407   3.851   3.774   0.379 -0.2401  0.3349  0.3253
 9148TIP3    H127408   3.830   3.695   0.428  0.5084  0.6161  1.1092
 9148TIP3    H227409   3.907   3.825   0.437  0.3704  0.8411 -0.6849
 9149TIP3   OH227410   1.095   6.715   1.494 -0.0106 -0.4646 -0.3026
 9149TIP3    H127411   1.134   6.802   1.500 -1.3631  0.0957  1.1546
 9149TIP3    H227412   1.029   6.723   1.426 -0.4920 -0.1766  0.1868
 9150TIP3   OH227413   6.512   0.618   0.159  0.8950  0.6072 -0.6195
 9150TIP3    H127414   6.422   0.632   0.130  0.7526  0.8599 -0.0652
 9150TIP3    H227415   6.545   0.706   0.180  0.9512  0.4152  0.1060
 9151TIP3   OH227416   1.972  -0.008   1.193  0.9387  0.0447  0.6097
 9151TIP3    H127417   1.911  -0.036   1.262  1.4566 -0.5219  0.8464
 9151TIP3    H227418   1.936   0.075   1.161  1.1067  0.7300  2.1036
 9152TIP3   OH227419   0.943   6.303   4.681 -0.0259  0.1513 -0.7615
 9152TIP3    H127420   0.930   6.213   4.652 -2.8265  0.6889 -1.4534
 9152TIP3    H227421   0.877   6.353   4.635 -0.6516  2.0590  1.9445
 9153TIP3   OH227422   2.734   6.346   2.423 -0.1750  0.1047  0.3089
 9153TIP3    H127423   2.711   6.284   2.354  1.4298  0.7121 -0.8343
 9153TIP3    H227424   2.661   6.408   2.426 -0.5838 -0.3410 -0.3640
 9154TIP3   OH227425   2.954   0.499   2.641 -0.3289 -0.3590 -0.1213
 9154TIP3    H127426   2.934   0.587   2.609  0.9710  0.0686  0.2112
 9154TIP3    H227427   2.911   0.494   2.726 -0.9677 -0.3068 -0.4294
 9155TIP3   OH227428   0.190   5.007   4.184 -0.5234 -0.1936  0.1514
 9155TIP3    H127429   0.247   5.071   4.227 -0.6820  0.6500 -0.8292
 9155TIP3    H227430   0.232   4.923   4.199  1.0421  0.4157 -0.6235
 9156TIP3   OH227431   2.302   0.308   4.920 -0.3902  0.4087 -0.3061
 9156TIP3    H127432   2.389   0.307   4.880 -0.8687  1.3240 -1.4160
 9156TIP3    H227433   2.242   0.292   4.847 -1.1655 -0.3201  0.4631
 9157TIP3   OH227434   1.621   4.660   4.866 -0.1954 -0.8740  0.1883
 9157TIP3    H127435   1.539   4.655   4.916  0.6285 -2.0562  1.5018
 9157TIP3    H227436   1.645   4.752   4.869 -1.2471 -0.5780  0.1427
 9158TIP3   OH227437   1.586   1.336   3.776 -0.3034  0.4155 -0.2708
 9158TIP3    H127438   1.643   1.350   3.700  0.1865  0.1944  0.0454
 9158TIP3    H227439   1.608   1.408   3.835  2.2636 -1.5344  1.3787
 9159TIP3   OH227440   1.394   1.018   2.168 -0.2626  0.1444  0.1458
 9159TIP3    H127441   1.312   1.066   2.156 -0.7747 -0.2506  1.8441
 9159TIP3    H227442   1.377   0.931   2.131 -0.3136  0.3342 -0.2792
 9160TIP3   OH227443   2.466   4.528   0.466 -0.5749  0.4596 -0.5613
 9160TIP3    H127444   2.432   4.485   0.545 -1.2614  0.5049 -0.8236
 9160TIP3    H227445   2.424   4.481   0.394  0.1554  0.3278 -0.9069
 9161TIP3   OH227446   2.895   0.508   1.736  0.1467 -0.0410  0.5234
 9161TIP3    H127447   2.899   0.556   1.653 -1.5888 -0.6166  0.0655
 9161TIP3    H227448   2.902   0.576   1.803  0.0925  0.5983 -0.1075
 9162TIP3   OH227449   0.525   2.897   1.277 -0.5276 -0.0873 -0.0800
 9162TIP3    H127450   0.510   2.826   1.340 -0.9714  0.0755  0.0011
 9162TIP3    H227451   0.576   2.961   1.327 -1.7416  0.4988  0.4390
 9163TIP3   OH227452   3.671   2.408   1.317 -0.0497  0.0672 -0.3288
 9163TIP3    H127453   3.756   2.366   1.326  0.2598  0.7322 -0.0598
 9163TIP3    H227454   3.676   2.457   1.235 -0.7285 -1.1273 -1.1048
 9164TIP3   OH227455   0.953   3.033   2.313 -0.2760 -0.5467 -0.0304
 9164TIP3    H127456   1.003   2.993   2.384 -0.0066 -1.0384 -0.4893
 9164TIP3    H227457   0.864   3.000   2.326 -0.2173 -0.6757  0.0472
 9165TIP3   OH227458   3.397   2.734   0.261 -0.0293 -0.0402  0.2149
 9165TIP3    H127459   3.318   2.750   0.209 -2.1611 -1.4231  2.7720
 9165TIP3    H227460   3.417   2.642   0.245 -0.3103 -0.2966  1.2713
 9166TIP3   OH227461   1.411   3.615   3.338 -0.6146 -0.3868 -0.1390
 9166TIP3    H127462   1.345   3.636   3.271 -0.4790 -0.0217 -0.1606
 9166TIP3    H227463   1.445   3.529   3.312 -0.4987 -0.2067 -0.5943
 9167TIP3   OH227464   0.241   5.211   1.727  0.0419 -0.3012  0.8763
 9167TIP3    H127465   0.204   5.208   1.815 -0.0969 -0.6115  0.8070
 9167TIP3    H227466   0.277   5.123   1.713  0.0781 -0.2472  0.6302
 9168TIP3   OH227467   5.575   1.325   4.516  0.5441  0.1129 -0.3672
 9168TIP3    H127468   5.641   1.327   4.585  0.6052 -0.1396 -0.4179
 9168TIP3    H227469   5.571   1.416   4.485  0.1534  0.3325  0.3048
 9169TIP3   OH227470   4.155   4.865   3.837 -0.0619  0.5557 -0.1801
 9169TIP3    H127471   4.155   4.849   3.743  0.3754  0.7333 -0.2080
 9169TIP3    H227472   4.112   4.787   3.874 -1.7338  1.2250 -0.6411
 9170TIP3   OH227473   4.291   6.617   1.316  0.1733  0.1376  0.3160
 9170TIP3    H127474   4.295   6.705   1.279  2.6886  0.3180  0.8256
 9170TIP3    H227475   4.282   6.630   1.410  1.6180 -0.0801  0.5056
 9171TIP3   OH227476   6.489   3.771   4.398  0.0792 -0.1198 -1.1078
 9171TIP3    H127477   6.400   3.744   4.420 -0.1556  1.7153  0.4361
 9171TIP3    H227478   6.478   3.846   4.340  0.5686  0.8419  0.0106
 9172TIP3   OH227479   6.413   6.045   4.046  0.0465  0.0791 -0.1834
 9172TIP3    H127480   6.409   5.949   4.044  0.2151  0.0273  1.1373
 9172TIP3    H227481   6.372   6.069   4.130  0.3456  1.1439 -0.3289
 9173TIP3   OH227482   3.437   5.985   2.550  0.3754 -0.1416 -0.3034
 9173TIP3    H127483   3.456   6.010   2.640  0.1306 -0.1150 -0.2593
 9173TIP3    H227484   3.489   6.045   2.497  0.0411  0.2494 -0.1902
 9174TIP3   OH227485   4.937   3.870   1.579  0.0249  0.1396 -0.0733
 9174TIP3    H127486   4.932   3.778   1.603  3.0473 -0.5618 -1.6111
 9174TIP3    H227487   4.866   3.912   1.628 -1.1897 -2.9004  0.9740
 9175TIP3   OH227488   1.527   0.729   3.274  0.3644  0.4540  0.4421
 9175TIP3    H127489   1.591   0.790   3.237  1.5957 -0.5601  0.8111
 9175TIP3    H227490   1.529   0.747   3.368  2.1570 -1.3340  0.8305
 9176TIP3   OH227491   5.717   3.743   5.255  0.6177 -0.1099 -0.1531
 9176TIP3    H127492   5.658   3.745   5.330  1.4379 -0.3240  0.5082
 9176TIP3    H227493   5.780   3.674   5.276  3.3679  2.5127  0.9099
 9177TIP3   OH227494   6.059   5.000   2.521  0.3115  0.4214 -0.1748
 9177TIP3    H127495   6.031   5.086   2.491 -1.0814  0.2830  0.6533
 9177TIP3    H227496   6.104   4.961   2.446  0.7489  1.7676 -0.6258
 9178TIP3   OH227497   6.350   0.458   3.024 -0.2284 -0.1339 -0.4230
 9178TIP3    H127498   6.396   0.484   2.944  0.7591 -0.1569  0.1312
 9178TIP3    H227499   6.312   0.372   3.002 -0.1117 -0.0668 -0.9162
 9179TIP3   OH227500   1.344   6.384   2.749 -0.1077  0.0797 -0.3325
 9179TIP3    H127501   1.431   6.345   2.741  0.3398  1.0430 -0.2197
 9179TIP3    H227502   1.328   6.389   2.843  1.5800  3.8600 -0.0866
 9180TIP3   OH227503   3.524   4.344   1.757  0.3477  0.1914  0.0228
 9180TIP3    H127504   3.498   4.282   1.689  1.6667 -2.1595  1.5531
 9180TIP3    H227505   3.463   4.328   1.829  1.5594 -0.4060  0.9630
 9181TIP3   OH227506   4.359   5.212   2.434  0.3436 -0.4962  0.2329
 9181TIP3    H127507   4.350   5.203   2.339 -0.8414 -2.4065  0.4740
 9181TIP3    H227508   4.283   5.265   2.460  0.6935  0.0660  0.1235
 9182TIP3   OH227509   6.222   1.831   0.782  0.2241  1.0488  0.0718
 9182TIP3    H127510   6.269   1.894   0.835  0.0997  0.4253  0.9365
 9182TIP3    H227511   6.218   1.871   0.695  2.1266  1.2109  0.0306
 9183TIP3   OH227512   6.298   0.801   0.564  0.2193  0.3572  0.3423
 9183TIP3    H127513   6.387   0.822   0.536 -0.3720  2.2886 -0.2417
 9183TIP3    H227514   6.298   0.816   0.658  0.5843  0.0291  0.3969
 9184TIP3   OH227515   1.722   3.395   4.806  0.5760  0.8365  0.1321
 9184TIP3    H127516   1.758   3.399   4.717 -0.3160  0.8374 -0.2317
 9184TIP3    H227517   1.629   3.412   4.795  0.3817  0.3724  1.0225
 9185TIP3   OH227518   0.125   6.111   1.752 -0.1133  0.6541 -0.3159
 9185TIP3    H127519   0.114   6.016   1.754  0.3434  0.6078  1.4208
 9185TIP3    H227520   0.189   6.129   1.821 -0.4313  2.2515 -0.4094
 9186TIP3   OH227521   3.838   1.589   1.674  0.1004 -0.8361 -0.0982
 9186TIP3    H127522   3.750   1.619   1.650  0.4571 -2.1442 -3.5078
 9186TIP3    H227523   3.896   1.657   1.641  0.4656 -0.3018  1.5587
 9187TIP3   OH227524   4.894   6.599   5.066 -0.1750 -0.3614  0.4328
 9187TIP3    H127525   4.899   6.685   5.108 -0.8565  1.0360 -2.1480
 9187TIP3    H227526   4.810   6.564   5.096 -1.1956  1.0990 -0.5592
 9188TIP3   OH227527   6.408   4.825   0.550  0.9985 -0.8920 -0.4259
 9188TIP3    H127528   6.452   4.886   0.609  0.0752 -1.1603  0.5799
 9188TIP3    H227529   6.323   4.865   0.532  0.3843 -1.8206  0.2351
 9189TIP3   OH227530   3.341   2.251   1.854  0.1618 -0.1528 -0.3079
 9189TIP3    H127531   3.262   2.304   1.849  0.9534  0.9663 -2.4382
 9189TIP3    H227532   3.313   2.163   1.830 -0.5384  0.1174 -0.4961
 9190TIP3   OH227533   1.828   5.950   5.313  0.6163 -0.0949  0.3087
 9190TIP3    H127534   1.802   5.863   5.342 -0.4742  0.3966  0.8540
 9190TIP3    H227535   1.815   6.006   5.390  1.2337  0.5701 -0.0509
 9191TIP3   OH227536   5.898   5.623   5.108 -0.2921  0.4246  0.7686
 9191TIP3    H127537   5.921   5.586   5.023 -0.2606  0.6701  0.6703
 9191TIP3    H227538   5.904   5.549   5.169 -0.3627  0.2393  0.5506
 9192TIP3   OH227539   4.365   5.510   4.778  0.1278 -0.1853  0.3708
 9192TIP3    H127540   4.356   5.437   4.839 -1.2913 -0.5585 -0.2370
 9192TIP3    H227541   4.322   5.583   4.821 -1.1047 -0.5153 -0.2383
 9193TIP3   OH227542   5.193   2.105   0.764 -0.0381  0.1146 -0.1197
 9193TIP3    H127543   5.147   2.148   0.836 -0.6261 -0.3759 -0.1918
 9193TIP3    H227544   5.247   2.174   0.726  0.7909  0.2294  1.1916
 9194TIP3   OH227545   4.273   0.217   5.526  0.0138 -0.0895  0.0896
 9194TIP3    H127546   4.344   0.155   5.513 -0.8654 -1.3717  1.1040
 9194TIP3    H227547   4.292   0.258   5.610 -0.0956  0.0457  0.0494
 9195TIP3   OH227548   7.202   2.207   4.384  0.3895  0.0282  0.0582
 9195TIP3    H127549   7.108   2.211   4.403  0.5342 -0.0830  0.8470
 9195TIP3    H227550   7.212   2.131   4.327  0.0467 -0.1624  0.2474
 9196TIP3   OH227551   2.889   6.051   2.440  0.2172  0.2799  0.1085
 9196TIP3    H127552   2.821   6.065   2.507  1.2652 -0.1140  1.2763
 9196TIP3    H227553   2.869   6.117   2.373 -0.7417  0.8295  0.8988
 9197TIP3   OH227554   0.481   3.367   2.576  0.1536 -0.7060 -0.1016
 9197TIP3    H127555   0.475   3.275   2.601 -0.6025 -0.2239  1.6676
 9197TIP3    H227556   0.396   3.387   2.536  0.7881 -1.0701 -1.7093
 9198TIP3   OH227557   1.458   1.537   2.914  0.0049 -0.1975 -0.4448
 9198TIP3    H127558   1.461   1.466   2.850 -3.7485 -0.6558 -0.3409
 9198TIP3    H227559   1.453   1.617   2.861 -1.4245 -0.4589 -0.7375
 9199TIP3   OH227560   4.018   0.740   3.018 -1.0311  0.4482 -0.1107
 9199TIP3    H127561   3.926   0.744   2.992 -0.8552 -0.2400 -0.8922
 9199TIP3    H227562   4.050   0.656   2.983  0.6449  1.9511 -2.5442
 9200TIP3   OH227563   1.111   1.559   1.773 -0.1845 -1.0109  0.1125
 9200TIP3    H127564   1.038   1.517   1.727 -0.5470  0.1033 -0.3635
 9200TIP3    H227565   1.177   1.576   1.705  0.1389 -1.2089  0.3757
 9201TIP3   OH227566   1.203   4.642   1.190  0.4850  0.0789  0.1654
 9201TIP3    H127567   1.196   4.678   1.278  2.0586  2.8297 -0.6959
 9201TIP3    H227568   1.118   4.659   1.150  1.0795  2.8850 -0.1193
 9202TIP3   OH227569   0.352   5.036   4.863 -0.0328 -0.2136  0.2626
 9202TIP3    H127570   0.270   5.004   4.825  0.5943  0.7770 -2.1262
 9202TIP3    H227571   0.408   4.959   4.866 -0.5945 -0.6179  0.6578
 9203TIP3   OH227572   5.611   4.250   1.759 -0.1213 -0.2688 -0.2255
 9203TIP3    H127573   5.653   4.175   1.802  2.6221  0.3430 -1.6122
 9203TIP3    H227574   5.652   4.253   1.672 -0.5538  2.4881 -0.3974
 9204TIP3   OH227575   5.160   3.153   3.454 -0.3725  0.0632 -0.3306
 9204TIP3    H127576   5.091   3.214   3.478  0.2294  0.1751  1.2485
 9204TIP3    H227577   5.123   3.066   3.472 -0.1826  0.1169  0.3590
 9205TIP3   OH227578   5.619   0.356   1.113 -0.1296 -0.4659 -0.7293
 9205TIP3    H127579   5.650   0.414   1.183 -0.8706 -0.8781 -0.0463
 9205TIP3    H227580   5.590   0.416   1.044 -0.4737 -0.0263 -0.2094
 9206TIP3   OH227581   0.702   1.047   1.414 -0.2972  0.6219 -0.0032
 9206TIP3    H127582   0.656   0.975   1.458  1.4214 -1.3174 -1.2044
 9206TIP3    H227583   0.649   1.124   1.433 -4.1514 -1.4072 -1.3716
 9207TIP3   OH227584   6.211   2.391   5.381  0.0774 -0.2447  0.2911
 9207TIP3    H127585   6.181   2.441   5.306 -1.1740  1.0682  1.6200
 9207TIP3    H227586   6.149   2.318   5.387 -0.1401 -0.0545  0.3655
 9208TIP3   OH227587   3.094   2.682   2.588  0.0763 -0.7907  0.0565
 9208TIP3    H127588   3.145   2.619   2.639  0.1900  0.3729  1.4399
 9208TIP3    H227589   3.059   2.743   2.653  2.5277  2.4696 -1.3762
 9209TIP3   OH227590   2.598   5.384   4.937  0.4221 -0.3401 -0.1668
 9209TIP3    H127591   2.587   5.472   4.973 -1.1629 -0.5016 -0.1812
 9209TIP3    H227592   2.514   5.365   4.896  1.4150 -1.0602 -1.9824
 9210TIP3   OH227593   5.260   2.763   0.821 -0.3102  0.2131 -0.4631
 9210TIP3    H127594   5.340   2.814   0.835  0.4102 -0.9341 -0.2498
 9210TIP3    H227595   5.285   2.695   0.759 -0.9322 -0.5581  0.0970
 9211TIP3   OH227596   3.083   5.136   3.048 -0.2576 -0.1218  0.9642
 9211TIP3    H127597   3.025   5.211   3.029  0.9581  1.0219  1.5984
 9211TIP3    H227598   3.160   5.176   3.088  0.3195 -1.7681  1.5451
 9212TIP3   OH227599   6.726   1.486   5.445  0.2712 -0.1189  0.0647
 9212TIP3    H127600   6.731   1.557   5.381  0.3192  0.0890  0.2977
 9212TIP3    H227601   6.717   1.407   5.392 -0.2675  0.1070 -0.1827
 9213TIP3   OH227602   5.818   5.811   4.160  0.2410  0.5575  0.2667
 9213TIP3    H127603   5.865   5.810   4.243 -0.2721  2.1119  0.6073
 9213TIP3    H227604   5.747   5.873   4.173 -2.5836 -2.3698  0.1090
 9214TIP3   OH227605   6.222   3.865   1.839  0.4400  0.2347 -0.1159
 9214TIP3    H127606   6.193   3.953   1.814  0.3832 -0.0033 -0.9319
 9214TIP3    H227607   6.203   3.811   1.762  1.4434 -0.2814 -0.0159
 9215TIP3   OH227608   3.405   4.034   0.053 -0.4179  0.4273  0.3228
 9215TIP3    H127609   3.427   3.956   0.002 -0.2004  0.1895  0.7797
 9215TIP3    H227610   3.328   4.070   0.009  0.2791  0.7146 -0.6995
 9216TIP3   OH227611   6.888   6.205   4.033  0.1668 -0.1021 -0.2004
 9216TIP3    H127612   6.875   6.149   4.110  0.3679 -1.0227 -0.8201
 9216TIP3    H227613   6.802   6.211   3.993  0.1963 -0.1910 -0.2781
 9217TIP3   OH227614   6.976   5.892   0.260 -0.0941  0.0430 -0.0772
 9217TIP3    H127615   6.952   5.951   0.331 -2.4756 -0.9988  0.0642
 9217TIP3    H227616   7.006   5.950   0.190  1.0666  1.1529  1.2955
 9218TIP3   OH227617   1.293   0.478   1.823 -0.5215 -0.1919 -0.2208
 9218TIP3    H127618   1.263   0.476   1.914 -0.3281 -0.2108 -0.1562
 9218TIP3    H227619   1.325   0.568   1.810  2.4945 -0.9842  0.7465
 9219TIP3   OH227620   1.011   5.224   2.607  0.1948  0.1182 -0.0553
 9219TIP3    H127621   0.951   5.288   2.646 -1.8676 -1.1071 -1.0794
 9219TIP3    H227622   1.086   5.223   2.667 -1.3755  0.7072  2.0599
 9220TIP3   OH227623   5.932   5.691   3.501  0.5854  0.4346  0.2986
 9220TIP3    H127624   5.973   5.651   3.424  0.1908 -1.6647  1.1099
 9220TIP3    H227625   5.987   5.664   3.575 -0.2842  0.5044  0.9912
 9221TIP3   OH227626   7.015   0.270   2.366 -0.1395  0.2522 -0.0393
 9221TIP3    H127627   6.935   0.221   2.386 -0.9854  1.9764  1.0357
 9221TIP3    H227628   6.995   0.360   2.392  1.5487  1.0835 -1.4314
 9222TIP3   OH227629   1.735   0.900   3.229  0.1087  0.2996 -0.5781
 9222TIP3    H127630   1.718   0.982   3.184 -0.1189  1.9323  2.2684
 9222TIP3    H227631   1.831   0.895   3.237  0.0930  0.6823 -0.1161
 9223TIP3   OH227632   4.439   2.052   2.088  0.6612  0.0462  0.2344
 9223TIP3    H127633   4.451   1.976   2.145  1.8803 -0.0732 -0.1517
 9223TIP3    H227634   4.435   2.016   1.999 -0.2238  0.3147  0.1563
 9224TIP3   OH227635   3.375   1.370   2.287 -0.8768  0.0473  0.4947
 9224TIP3    H127636   3.296   1.404   2.245  0.4524  1.6238 -0.8528
 9224TIP3    H227637   3.359   1.276   2.296 -2.2513  0.0791 -1.2119
 9225TIP3   OH227638   0.419   0.553   3.833  0.3443  0.4069 -0.3703
 9225TIP3    H127639   0.443   0.471   3.877  1.2139  1.2650  0.7930
 9225TIP3    H227640   0.500   0.583   3.792  0.1917  1.0345 -0.2146
 9226TIP3   OH227641   2.029   3.755   3.352 -0.2308 -0.3803  0.1633
 9226TIP3    H127642   2.016   3.715   3.265 -0.8648 -0.6166  0.3583
 9226TIP3    H227643   1.964   3.825   3.356  0.1022 -0.0759  0.2766
 9227TIP3   OH227644   5.240   0.191   0.508 -0.2719  0.8514 -0.5012
 9227TIP3    H127645   5.309   0.130   0.536 -0.4557  0.1339 -1.5296
 9227TIP3    H227646   5.193   0.213   0.588  0.6035  0.6615  0.0848
 9228TIP3   OH227647   6.043   2.741   3.395  0.0921 -0.0525  0.0937
 9228TIP3    H127648   6.017   2.661   3.441  0.5325  1.1187  2.5131
 9228TIP3    H227649   5.975   2.804   3.417  1.7904  1.3622  1.6278
 9229TIP3   OH227650   0.245   3.555   3.976 -0.2095 -0.5291  0.2042
 9229TIP3    H127651   0.152   3.532   3.981 -0.4103  0.1795 -0.1881
 9229TIP3    H227652   0.273   3.559   4.068 -0.9330  0.6845  0.3957
 9230TIP3   OH227653   0.542   6.688   1.672 -0.6924  0.4644  0.1679
 9230TIP3    H127654   0.572   6.760   1.726  1.1526  0.3645 -0.6508
 9230TIP3    H227655   0.447   6.697   1.670 -0.5775  2.2096  0.9659
 9231TIP3   OH227656   4.131   6.355   1.895  0.4742 -0.2476 -0.2411
 9231TIP3    H127657   4.044   6.380   1.926  0.1701  0.7920 -1.7773
 9231TIP3    H227658   4.186   6.432   1.911  0.6205 -0.1776 -1.0014
 9232TIP3   OH227659  -0.020   1.110   5.551  0.0772 -0.3041  0.3459
 9232TIP3    H127660   0.066   1.141   5.522 -0.0092  1.0366  1.3918
 9232TIP3    H227661  -0.001   1.048   5.621  0.2149 -1.5947 -0.7915
 9233TIP3   OH227662   6.246   4.070   4.006 -0.0677 -0.2385 -0.0126
 9233TIP3    H127663   6.223   4.005   3.939 -2.2631  0.2044  0.2204
 9233TIP3    H227664   6.241   4.022   4.089  0.1227 -0.1953  0.0245
 9234TIP3   OH227665   3.998   2.221   4.446 -0.2465 -0.3153  0.9247
 9234TIP3    H127666   3.973   2.186   4.360  0.2064  1.3721  0.0647
 9234TIP3    H227667   4.092   2.204   4.453  0.7775  3.3933 -0.9867
 9235TIP3   OH227668   0.801   4.857   0.976 -0.5147 -0.1366  0.3997
 9235TIP3    H127669   0.705   4.853   0.983 -0.4322 -1.3192  1.1061
 9235TIP3    H227670   0.829   4.904   1.054 -0.4552 -1.0668  0.9631
 9236TIP3   OH227671   2.283   4.474   4.719 -0.3783 -0.4345 -0.0153
 9236TIP3    H127672   2.239   4.392   4.743 -0.2916 -0.8951 -1.3216
 9236TIP3    H227673   2.270   4.531   4.795  1.2138 -2.2787  1.7647
 9237TIP3   OH227674   5.816   3.786   4.952  0.1720 -0.1716 -0.4209
 9237TIP3    H127675   5.904   3.814   4.928  0.3952  0.3190  0.8951
 9237TIP3    H227676   5.828   3.721   5.021 -0.4720 -1.0775 -1.1306
 9238TIP3   OH227677   1.880   2.520   4.374  0.3893 -0.1557  0.8448
 9238TIP3    H127678   1.880   2.449   4.438  2.1749 -1.0938 -0.1063
 9238TIP3    H227679   1.973   2.537   4.357 -0.0099  0.1412 -1.3616
 9239TIP3   OH227680   6.779   3.834   4.960 -0.2250  0.5831  0.8165
 9239TIP3    H127681   6.864   3.880   4.963 -0.4867  1.6382 -2.6844
 9239TIP3    H227682   6.798   3.754   4.912 -0.9382  0.0562  1.4087
 9240TIP3   OH227683  -0.009   5.100   0.456  0.2231 -0.3665 -0.5033
 9240TIP3    H127684  -0.039   5.189   0.478  1.2952  0.3723 -1.8509
 9240TIP3    H227685   0.060   5.082   0.520  0.6425  0.1641 -0.7986
 9241TIP3   OH227686   0.320   3.132   1.919  0.5502  0.4371  0.4550
 9241TIP3    H127687   0.328   3.071   1.992 -2.4759 -2.0460 -1.0808
 9241TIP3    H227688   0.281   3.211   1.957  0.0501 -0.3914  1.6885
 9242TIP3   OH227689   1.502   3.634   1.277  0.4432  0.4504  0.1919
 9242TIP3    H127690   1.516   3.697   1.347  0.7962 -0.2122  0.7353
 9242TIP3    H227691   1.588   3.596   1.261 -0.1114 -1.4204  1.3671
 9243TIP3   OH227692   3.514   3.354   2.315 -0.6731  0.2465  0.6161
 9243TIP3    H127693   3.479   3.285   2.372 -0.2152  0.6022  1.3536
 9243TIP3    H227694   3.609   3.341   2.318 -0.6920 -0.8834 -1.5748
 9244TIP3   OH227695   6.832   3.203   2.088  0.2550 -0.1954 -0.0893
 9244TIP3    H127696   6.894   3.150   2.137 -0.2127 -1.1350 -0.4752
 9244TIP3    H227697   6.752   3.150   2.086 -0.0569  0.2817 -0.9601
 9245TIP3   OH227698   5.728   1.847   0.286 -0.5419  0.8028 -0.0776
 9245TIP3    H127699   5.757   1.830   0.376  0.0408  0.3421 -0.3443
 9245TIP3    H227700   5.633   1.839   0.289 -0.5181  0.6993  0.4790
 9246TIP3   OH227701   6.239   2.985   2.065 -0.0686  0.0486 -0.4899
 9246TIP3    H127702   6.199   3.068   2.041 -1.0575 -0.8785 -2.2575
 9246TIP3    H227703   6.317   2.978   2.010  0.2741 -0.0077 -0.0129
 9247TIP3   OH227704   4.690   5.777   4.806 -0.6501  0.4951  0.2265
 9247TIP3    H127705   4.703   5.691   4.767 -3.0507 -0.2532  0.8797
 9247TIP3    H227706   4.772   5.796   4.850 -0.1169 -1.5803  0.2433
 9248TIP3   OH227707   1.446   6.207   2.038 -0.3850  0.1402  0.0333
 9248TIP3    H127708   1.460   6.157   2.119 -1.9595  2.7545  2.1002
 9248TIP3    H227709   1.458   6.143   1.968  2.5106 -1.9635  2.2015
 9249TIP3   OH227710   5.065   4.129   0.485  0.6349  0.2193  0.1740
 9249TIP3    H127711   5.043   4.037   0.498 -1.0340  0.7118  1.1287
 9249TIP3    H227712   5.151   4.140   0.525  1.4775 -1.1843 -1.1540
 9250TIP3   OH227713   5.830   4.878   4.912 -0.2004 -0.5926 -0.4305
 9250TIP3    H127714   5.849   4.922   4.996 -2.9658  0.8218 -0.4213
 9250TIP3    H227715   5.798   4.791   4.937  0.4442 -0.7442 -0.1183
 9251TIP3   OH227716   0.536   2.938   0.838 -0.1252 -0.0156  0.9681
 9251TIP3    H127717   0.604   2.920   0.903 -0.2848  2.1228  1.8080
 9251TIP3    H227718   0.532   3.034   0.833 -2.3274 -0.0948  0.1420
 9252TIP3   OH227719   6.965   1.166   0.129 -0.8777  0.2898 -0.1873
 9252TIP3    H127720   6.939   1.144   0.218  0.9019  0.4055  0.4118
 9252TIP3    H227721   6.938   1.257   0.117  0.1119  0.7245  0.7670
 9253TIP3   OH227722   7.168   2.943   1.934  0.4086  0.2042  0.0183
 9253TIP3    H127723   7.140   3.001   2.005  3.2938 -0.7842  2.1483
 9253TIP3    H227724   7.098   2.878   1.928 -1.2576  1.9064 -0.1013
 9254TIP3   OH227725   6.062   4.014   0.328 -0.4143  0.0661  0.2474
 9254TIP3    H127726   6.149   3.974   0.327  0.5469  2.0829  0.3382
 9254TIP3    H227727   6.038   4.017   0.421 -0.2327  0.2472  0.2885
 9255TIP3   OH227728   0.480   4.728   2.398  0.3653  0.1405 -0.1266
 9255TIP3    H127729   0.574   4.718   2.407  0.3071  0.1401  0.5056
 9255TIP3    H227730   0.442   4.658   2.451  0.0066 -0.0690 -0.6453
 9256TIP3   OH227731   7.175   2.278   5.272  0.1920 -0.5964 -0.6432
 9256TIP3    H127732   7.221   2.210   5.321  0.4277  1.8889  3.0750
 9256TIP3    H227733   7.083   2.266   5.293 -0.3570 -2.0918 -3.3961
 9257TIP3   OH227734   5.331   3.752   4.370 -0.0470 -0.0527 -0.5578
 9257TIP3    H127735   5.282   3.822   4.413  1.0581 -0.8398  2.2331
 9257TIP3    H227736   5.297   3.671   4.408  1.4634 -0.7629 -0.6191
 9258TIP3   OH227737   3.287   4.634   3.126 -0.4415  0.3623  0.6268
 9258TIP3    H127738   3.270   4.723   3.158  0.8222  0.4622  1.1061
 9258TIP3    H227739   3.290   4.642   3.031  0.6866  1.0479  0.7086
 9259TIP3   OH227740   2.728   1.847   1.203  0.2697  0.1912  0.0661
 9259TIP3    H127741   2.724   1.843   1.107  0.2117  0.5208  0.0533
 9259TIP3    H227742   2.648   1.802   1.232  0.8022 -0.8519 -0.0119
 9260TIP3   OH227743   6.209   3.039   4.791 -0.0257 -0.2522 -0.5060
 9260TIP3    H127744   6.181   2.966   4.846 -1.5494  0.0204 -0.8638
 9260TIP3    H227745   6.304   3.030   4.784  0.4675  0.5397  3.3671
 9261TIP3   OH227746   6.768   5.534   0.948  0.0938 -0.5622 -0.2525
 9261TIP3    H127747   6.837   5.596   0.927  0.0940 -0.5415 -0.1899
 9261TIP3    H227748   6.687   5.583   0.933  0.0916 -0.6032 -0.3791
 9262TIP3   OH227749   4.660   0.162   0.556  0.5270  0.1498 -0.0125
 9262TIP3    H127750   4.615   0.213   0.488  2.2487  1.1451 -0.4578
 9262TIP3    H227751   4.612   0.183   0.636 -1.0734 -0.4510 -0.7742
 9263TIP3   OH227752   5.002   1.551   1.050  0.9200  0.4144  0.8550
 9263TIP3    H127753   5.078   1.508   1.011  1.1021  0.4252  1.1900
 9263TIP3    H227754   5.038   1.632   1.088  0.7170  0.4843  0.8989
 9264TIP3   OH227755   5.851   0.472   2.474 -0.4431 -0.2525 -0.3481
 9264TIP3    H127756   5.918   0.534   2.501 -0.0578 -0.6862 -0.3024
 9264TIP3    H227757   5.856   0.401   2.538 -0.1349 -0.8586 -1.0231
 9265TIP3   OH227758   4.670   2.661   3.351  0.2173 -0.0334  0.2033
 9265TIP3    H127759   4.643   2.571   3.369 -2.3632  0.8889  1.5311
 9265TIP3    H227760   4.659   2.671   3.257 -0.4184 -0.8629  0.1746
 9266TIP3   OH227761   3.629   6.101   1.414  0.2245  0.4908  0.0684
 9266TIP3    H127762   3.611   6.084   1.506  2.0255 -1.3423  0.1383
 9266TIP3    H227763   3.688   6.031   1.387 -0.1260  1.0611 -2.4613
 9267TIP3   OH227764   7.132   2.441   1.690  0.4210 -0.0144  0.1074
 9267TIP3    H127765   7.036   2.444   1.695  0.4350  0.1537  0.2853
 9267TIP3    H227766   7.155   2.352   1.718  0.4025  0.4154  1.5607
 9268TIP3   OH227767   2.087   6.430   0.922  0.2972 -0.4369  0.6213
 9268TIP3    H127768   2.156   6.490   0.950  0.2094  0.1652 -0.4208
 9268TIP3    H227769   2.006   6.473   0.949  0.0849  1.1557 -2.2487
 9269TIP3   OH227770   3.892   5.397   5.556 -0.6260 -0.3336 -0.2452
 9269TIP3    H127771   3.956   5.368   5.490  0.3001 -1.6713  1.1477
 9269TIP3    H227772   3.807   5.386   5.514  0.0125  0.7108 -1.8721
 9270TIP3   OH227773   4.053   3.547   4.609 -0.5485  0.0058 -0.0976
 9270TIP3    H127774   4.079   3.487   4.679  0.4138 -0.0258 -0.4700
 9270TIP3    H227775   3.976   3.592   4.643  1.9285  2.6747  2.5487
 9271TIP3   OH227776   5.484   4.195   1.084  0.0161 -0.4541 -0.1057
 9271TIP3    H127777   5.415   4.130   1.076  1.1662 -1.5375 -1.9146
 9271TIP3    H227778   5.455   4.252   1.155 -2.1507 -1.5387 -0.0395
 9272TIP3   OH227779   2.358   0.652   4.905 -0.0912 -0.1177 -0.0989
 9272TIP3    H127780   2.407   0.620   4.981 -2.4364  1.3926  2.2210
 9272TIP3    H227781   2.364   0.581   4.842  1.3048 -1.8265  1.8060
 9273TIP3   OH227782   6.546   5.725   2.037 -0.1857  0.8314 -0.3375
 9273TIP3    H127783   6.518   5.704   2.126  1.6267 -0.5236 -0.0393
 9273TIP3    H227784   6.485   5.793   2.008 -1.3333  0.6988  1.6119
 9274TIP3   OH227785   0.480   0.544   3.309  0.2429  0.0487  0.2894
 9274TIP3    H127786   0.385   0.553   3.308  0.3307  1.3559 -1.7119
 9274TIP3    H227787   0.509   0.585   3.228  2.6457  0.9560  1.5117
 9275TIP3   OH227788   1.735   5.034   4.350  0.4712 -0.8621 -0.1633
 9275TIP3    H127789   1.723   4.981   4.428  2.4111 -0.9365  0.1284
 9275TIP3    H227790   1.820   5.007   4.314  1.1428  1.3885 -0.4751
 9276TIP3   OH227791   1.254   1.557   4.866 -0.2969  0.6039 -0.5400
 9276TIP3    H127792   1.215   1.484   4.818 -0.2215 -0.3447  0.7858
 9276TIP3    H227793   1.180   1.597   4.912  0.0347 -0.2067  0.7166
 9277TIP3   OH227794   3.094   0.959   3.749  0.1899 -0.3610 -0.1665
 9277TIP3    H127795   3.097   1.048   3.783  1.2942 -0.5259  0.2288
 9277TIP3    H227796   3.080   0.969   3.655  1.3280  0.2867 -0.2847
 9278TIP3   OH227797   0.170   3.171   3.179 -0.4818  0.9901  0.1554
 9278TIP3    H127798   0.189   3.128   3.096  0.6225  0.8351  0.4694
 9278TIP3    H227799   0.200   3.109   3.246  0.1870  1.8048  0.6267
 9279TIP3   OH227800   4.190   6.606   4.762 -0.1870  0.4053 -0.0339
 9279TIP3    H127801   4.189   6.631   4.670  2.6739 -1.4815 -0.7330
 9279TIP3    H227802   4.180   6.688   4.810 -0.7205  1.5565 -2.0084
 9280TIP3   OH227803   1.793   3.536   2.838  0.7667 -0.2657 -0.1214
 9280TIP3    H127804   1.742   3.480   2.780 -2.8282 -0.2942  2.6727
 9280TIP3    H227805   1.848   3.476   2.887  1.7574 -0.5423 -1.5429
 9281TIP3   OH227806   4.301   2.003   4.065 -0.6604  0.2104  0.4593
 9281TIP3    H127807   4.344   2.087   4.084 -2.0373  1.5228 -1.7255
 9281TIP3    H227808   4.231   1.997   4.130  0.9498 -0.5361  2.2064
 9282TIP3   OH227809   1.021   2.788   4.772  0.1062 -0.8073  0.5134
 9282TIP3    H127810   0.942   2.771   4.823  0.3164 -1.8598  0.5093
 9282TIP3    H227811   1.091   2.748   4.823  0.6853  0.3589  0.6583
 9283TIP3   OH227812   2.808   3.954   0.602  0.3192  0.1066  0.1248
 9283TIP3    H127813   2.890   3.996   0.628 -0.7622  1.6812  1.1731
 9283TIP3    H227814   2.781   4.002   0.523 -0.0719  0.2542  0.3453
 9284TIP3   OH227815   3.607   0.139   5.258 -0.4133 -0.1851 -0.2993
 9284TIP3    H127816   3.675   0.201   5.232 -2.0998  1.6382 -0.5904
 9284TIP3    H227817   3.558   0.123   5.178 -1.4599  0.0394  0.2854
 9285TIP3   OH227818   2.140   2.882   3.254 -0.5171  0.6621  0.7788
 9285TIP3    H127819   2.148   2.972   3.285 -0.3349  1.4217 -1.3076
 9285TIP3    H227820   2.146   2.889   3.159  0.4236 -1.6624  0.5945
 9286TIP3   OH227821   5.152   3.967   4.445  0.8497  0.3579 -0.0618
 9286TIP3    H127822   5.126   4.052   4.410  1.0865 -0.4172 -2.2595
 9286TIP3    H227823   5.078   3.909   4.425  1.7125 -0.4941 -0.8984
 9287TIP3   OH227824   0.597   4.684   3.213 -0.3040  0.1701 -0.1320
 9287TIP3    H127825   0.678   4.730   3.234  0.7726 -0.8365 -1.9072
 9287TIP3    H227826   0.540   4.702   3.288  0.7737  2.6623  0.1945
 9288TIP3   OH227827   5.047   1.893   5.370  0.5212 -0.0375  0.3441
 9288TIP3    H127828   5.099   1.860   5.443  0.5406 -0.1197  0.2927
 9288TIP3    H227829   5.064   1.832   5.298  0.7337  0.2117  0.1839
 9289TIP3   OH227830   5.512   1.511   0.594  0.3575 -0.5367  0.0159
 9289TIP3    H127831   5.510   1.601   0.563  0.4201 -0.4289  0.3156
 9289TIP3    H227832   5.518   1.519   0.690  0.1213 -0.8558  0.0608
 9290TIP3   OH227833   6.661   0.887   4.131  0.2634 -0.5546  0.0365
 9290TIP3    H127834   6.679   0.868   4.039 -1.0643 -0.8135 -0.1860
 9290TIP3    H227835   6.729   0.840   4.179 -0.1888 -2.0263 -0.7271
 9291TIP3   OH227836   1.113   3.862   2.657 -0.2976  0.4167 -0.7510
 9291TIP3    H127837   1.021   3.889   2.655 -0.2741  0.4293 -2.4361
 9291TIP3    H227838   1.143   3.871   2.567  0.8462 -1.3387 -0.5946
 9292TIP3   OH227839   6.759   0.136   2.401 -0.1362  0.5304 -0.0877
 9292TIP3    H127840   6.673   0.175   2.386 -0.4993 -0.7571 -1.6919
 9292TIP3    H227841   6.746   0.077   2.476 -0.3193  1.2705  0.4694
 9293TIP3   OH227842   5.084   4.152   4.853  0.5025 -0.0767 -0.1734
 9293TIP3    H127843   5.168   4.148   4.806  0.6190  1.3796 -0.1162
 9293TIP3    H227844   5.022   4.183   4.788 -0.2322 -2.0282 -0.4759
 9294TIP3   OH227845   0.335   3.903   1.650  0.0516 -0.3939 -0.3663
 9294TIP3    H127846   0.331   3.877   1.742  1.0557 -0.0586 -0.2142
 9294TIP3    H227847   0.246   3.931   1.629 -0.4691 -1.6044  0.1581
 9295TIP3   OH227848   7.045   0.744   1.771  0.5765 -0.2371 -0.3313
 9295TIP3    H127849   7.035   0.827   1.724  0.9130  0.5550  0.9432
 9295TIP3    H227850   6.955   0.713   1.782  0.4893 -0.3985 -1.4106
 9296TIP3   OH227851   5.064   0.717   2.713 -0.0081  0.1583  0.0083
 9296TIP3    H127852   5.081   0.636   2.761 -0.5905 -0.4946 -0.8490
 9296TIP3    H227853   4.980   0.749   2.747 -1.6308 -1.5408 -2.0740
 9297TIP3   OH227854   6.657   3.427   3.183 -0.0040  0.0714 -0.6343
 9297TIP3    H127855   6.635   3.511   3.222 -1.5241 -0.4831 -0.2301
 9297TIP3    H227856   6.588   3.412   3.118 -1.7322 -2.3028  1.5366
 9298TIP3   OH227857   4.474   1.818   4.419 -0.8123 -0.0163 -0.4947
 9298TIP3    H127858   4.567   1.808   4.439 -1.2861 -0.5332  1.7081
 9298TIP3    H227859   4.469   1.808   4.324  1.4190  0.4679 -0.7297
 9299TIP3   OH227860   0.696   5.784   1.415  0.4100 -0.1262 -0.2555
 9299TIP3    H127861   0.791   5.782   1.401  0.7366 -0.1016  1.6489
 9299TIP3    H227862   0.687   5.818   1.504 -1.3199 -1.8058  0.2534
 9300TIP3   OH227863   0.528   4.879   0.986 -0.5766 -0.4413 -0.0792
 9300TIP3    H127864   0.517   4.936   1.062 -0.7374 -0.6168  0.0285
 9300TIP3    H227865   0.476   4.921   0.917 -1.5621 -1.0063  0.2904
 9301TIP3   OH227866   4.236   1.200   0.377 -0.2619 -0.3069 -0.1675
 9301TIP3    H127867   4.221   1.152   0.296 -1.9534  0.8409 -0.5868
 9301TIP3    H227868   4.314   1.253   0.360  0.2580 -1.1649 -0.4994
 9302TIP3   OH227869   2.991   4.231   5.838  0.0504  0.8282 -0.1751
 9302TIP3    H127870   3.042   4.175   5.780 -0.5765  2.0434 -1.9887
 9302TIP3    H227871   2.969   4.175   5.913  2.5799 -0.2050 -0.1194
 9303TIP3   OH227872   0.633   6.251   2.077  0.2673  0.0683 -0.0870
 9303TIP3    H127873   0.630   6.222   1.986  1.7581  0.9733 -0.4505
 9303TIP3    H227874   0.664   6.175   2.126 -1.4421 -0.7218 -0.1642
 9304TIP3   OH227875   2.327   5.969   4.062 -0.1140  0.1979 -0.4901
 9304TIP3    H127876   2.318   5.881   4.098 -0.0200  0.2318 -0.3803
 9304TIP3    H227877   2.301   6.027   4.133  1.6228  0.3258  0.1022
 9305TIP3   OH227878   5.114   3.265   3.885 -0.1185  0.3415 -0.1860
 9305TIP3    H127879   5.063   3.195   3.846  0.0560  0.8053 -1.2740
 9305TIP3    H227880   5.149   3.227   3.966  0.5791 -1.0777 -1.1116
 9306TIP3   OH227881   4.663   4.316   5.337 -0.3656  0.5846  0.4069
 9306TIP3    H127882   4.643   4.400   5.295 -0.4846  0.6561  0.6053
 9306TIP3    H227883   4.582   4.290   5.379 -1.3056 -1.2197 -2.2979
 9307TIP3   OH227884   3.917   5.357   0.896  0.1126  0.1491  0.0879
 9307TIP3    H127885   3.841   5.393   0.942 -1.7618 -2.1691 -0.9923
 9307TIP3    H227886   3.890   5.269   0.870  3.4761 -1.0744  0.2916
 9308TIP3   OH227887   2.443   3.861   3.438  0.4173  0.0816  0.2121
 9308TIP3    H127888   2.415   3.783   3.486 -0.0428  0.1516  0.0585
 9308TIP3    H227889   2.442   3.931   3.504 -1.1663  0.3824 -0.1101
 9309TIP3   OH227890   4.608   1.155   4.368  0.6723 -0.1831  0.0636
 9309TIP3    H127891   4.611   1.238   4.416  1.1300  0.4190 -0.9711
 9309TIP3    H227892   4.699   1.136   4.347  0.4268  0.0806 -1.3867
 9310TIP3   OH227893   5.571   6.106   1.935 -0.2003  0.2752 -0.4280
 9310TIP3    H127894   5.595   6.100   1.843 -0.8915  0.6200 -0.6316
 9310TIP3    H227895   5.481   6.073   1.939  0.4310 -1.4687  0.4051
 9311TIP3   OH227896   2.759   3.356   2.541 -0.2733  0.1172  0.1327
 9311TIP3    H127897   2.836   3.303   2.564 -0.4965 -0.5269 -0.5546
 9311TIP3    H227898   2.796   3.430   2.492  0.0311  0.5767  1.0275
 9312TIP3   OH227899   1.899   5.822   1.787  0.2505 -0.1714  0.0977
 9312TIP3    H127900   1.968   5.887   1.799  2.4243 -2.3585  0.3139
 9312TIP3    H227901   1.892   5.779   1.873 -0.6527 -0.6648 -0.2084
 9313TIP3   OH227902   6.971   5.628   0.628  0.1597  0.6250  0.1771
 9313TIP3    H127903   6.988   5.721   0.612 -1.5894  1.0143  0.4087
 9313TIP3    H227904   6.927   5.597   0.549 -0.8078  0.4331  0.7728
 9314TIP3   OH227905   2.661   1.206   5.279 -0.4970 -0.3809 -0.0064
 9314TIP3    H127906   2.584   1.151   5.264  0.3848 -1.0473 -2.6331
 9314TIP3    H227907   2.685   1.188   5.370 -1.8092 -2.3116  0.0350
 9315TIP3   OH227908   6.338   5.409   3.001 -0.0564 -0.2565 -0.1647
 9315TIP3    H127909   6.382   5.384   2.919 -0.0651 -1.3108  0.1358
 9315TIP3    H227910   6.404   5.459   3.049  0.8453 -1.7658  0.2511
 9316TIP3   OH227911   2.483   4.090   5.582  0.4712 -0.2768 -0.4552
 9316TIP3    H127912   2.450   4.166   5.630 -1.8343 -0.2997 -1.8531
 9316TIP3    H227913   2.483   4.019   5.647 -0.4661  0.1962  0.0828
 9317TIP3   OH227914   7.060   3.923   5.008  0.3700  0.0628  0.3410
 9317TIP3    H127915   7.115   3.999   5.025 -0.5258  1.7523 -3.4175
 9317TIP3    H227916   7.106   3.876   4.938  0.2306 -2.2157  1.6801
 9318TIP3   OH227917   4.530   5.537   1.283 -0.1390  0.6822 -0.5324
 9318TIP3    H127918   4.589   5.496   1.347 -2.7122 -0.1763  1.4353
 9318TIP3    H227919   4.563   5.627   1.275  1.3336  0.2917  0.5929
 9319TIP3   OH227920   6.482   2.506   4.971  0.5407 -0.1947 -0.0903
 9319TIP3    H127921   6.525   2.524   5.055  1.1027 -0.6837 -0.2687
 9319TIP3    H227922   6.443   2.419   4.984  0.7807 -0.3478 -0.3939
 9320TIP3   OH227923   5.239   4.504   0.736  0.3743 -0.3167  0.0174
 9320TIP3    H127924   5.221   4.481   0.645  1.3742 -1.0366 -0.0184
 9320TIP3    H227925   5.199   4.590   0.748 -0.6072 -0.6495 -0.8165
 9321TIP3   OH227926   0.104   3.546   5.731  0.4021 -0.8701 -0.0104
 9321TIP3    H127927   0.157   3.547   5.811 -0.1945 -0.4836  0.3872
 9321TIP3    H227928   0.164   3.572   5.661  0.2648  1.7221  0.7379
 9322TIP3   OH227929   5.200   4.911   4.833 -0.7348 -0.2068  0.0410
 9322TIP3    H127930   5.166   4.838   4.884 -1.7656  0.0074 -0.3189
 9322TIP3    H227931   5.292   4.889   4.818 -1.2228 -1.8584 -0.8017
 9323TIP3   OH227932   4.552   0.804   5.179  0.0193  0.1863  0.5097
 9323TIP3    H127933   4.472   0.857   5.175 -0.1002 -0.0248  0.0551
 9323TIP3    H227934   4.556   0.774   5.270 -1.7869 -1.8712 -0.0063
 9324TIP3   OH227935   4.708   6.591   3.070  0.0714 -0.6366  0.3576
 9324TIP3    H127936   4.667   6.594   2.984 -0.6082 -1.5094  0.6389
 9324TIP3    H227937   4.767   6.515   3.067  0.9653  0.0369  0.2790
 9325TIP3   OH227938   1.777   2.367   5.448  0.0111  0.1442  0.3606
 9325TIP3    H127939   1.825   2.318   5.381 -0.0993  0.4469  0.0557
 9325TIP3    H227940   1.685   2.348   5.430  0.0162 -0.6594  1.1187
 9326TIP3   OH227941   3.874   4.695   2.943  0.4978 -0.0588 -1.0039
 9326TIP3    H127942   3.839   4.689   2.853 -0.8827  0.4264 -0.5356
 9326TIP3    H227943   3.796   4.696   2.998  1.2737  1.0242  0.1291
 9327TIP3   OH227944   5.146   0.484   0.297  0.1816 -0.4214 -0.1638
 9327TIP3    H127945   5.061   0.440   0.298  1.1920 -2.5012  0.4302
 9327TIP3    H227946   5.186   0.457   0.380  1.0743  1.2708 -0.0198
 9328TIP3   OH227947   4.878   1.865   3.304 -0.1924  0.3737 -0.1103
 9328TIP3    H127948   4.942   1.927   3.270 -1.4223  1.4715 -0.4847
 9328TIP3    H227949   4.873   1.884   3.398  0.6241 -0.2910  0.0830
 9329TIP3   OH227950   6.551   0.386   1.707  0.1910 -0.2258 -0.2142
 9329TIP3    H127951   6.458   0.405   1.720  0.0029 -1.2452 -0.0009
 9329TIP3    H227952   6.590   0.394   1.794 -0.0112 -1.3840  0.0053
 9330TIP3   OH227953   4.253   0.415   1.677  0.2622  0.1469 -0.2500
 9330TIP3    H127954   4.205   0.481   1.628 -0.3978 -0.5253 -0.5295
 9330TIP3    H227955   4.316   0.379   1.614  2.6112  2.3980  0.6246
 9331TIP3   OH227956   1.349   4.972   3.819  0.1365  0.3419 -0.1306
 9331TIP3    H127957   1.327   5.002   3.731 -0.3764  0.0540 -0.1025
 9331TIP3    H227958   1.430   5.018   3.840  0.1987  0.5036 -0.7061
 9332TIP3   OH227959   3.427   2.705   0.631 -0.4289  0.0307  0.3623
 9332TIP3    H127960   3.439   2.773   0.565  0.3641 -1.7115 -1.3888
 9332TIP3    H227961   3.335   2.680   0.622 -0.5898  0.5002  0.6565
 9333TIP3   OH227962   2.781   3.633   2.965 -0.2205 -0.2023  0.2042
 9333TIP3    H127963   2.708   3.633   3.027 -0.2191 -0.8771  0.2065
 9333TIP3    H227964   2.791   3.542   2.939 -0.9665  0.1981 -1.6716
 9334TIP3   OH227965   5.332   0.182   3.995  0.4706 -0.0275  0.1847
 9334TIP3    H127966   5.308   0.124   3.923 -0.3866  2.1725 -1.4422
 9334TIP3    H227967   5.257   0.241   4.004  1.5713  1.2920  1.1930
 9335TIP3   OH227968   6.491   1.089   5.229 -0.0557  0.8638 -0.4715
 9335TIP3    H127969   6.560   1.032   5.195 -0.6839  0.2694 -0.7868
 9335TIP3    H227970   6.414   1.064   5.178 -1.1333 -0.3154  1.6338
 9336TIP3   OH227971   3.104   3.938   0.216  0.1220 -0.0761 -0.5639
 9336TIP3    H127972   3.018   3.976   0.231 -0.2970 -0.4769 -1.8104
 9336TIP3    H227973   3.152   3.952   0.298 -0.6068  1.5290 -0.3741
 9337TIP3   OH227974   5.241   5.108   5.855 -0.1541 -0.1341  0.0891
 9337TIP3    H127975   5.283   5.044   5.913  0.8831 -0.1321 -0.6379
 9337TIP3    H227976   5.147   5.095   5.870  0.0797 -0.0763  1.8168
 9338TIP3   OH227977   1.031   1.985   5.012 -0.5409 -0.2545 -0.2864
 9338TIP3    H127978   0.965   1.930   5.055  0.0673 -1.7373 -1.1582
 9338TIP3    H227979   1.106   1.981   5.071 -0.4515 -0.4860 -0.4132
 9339TIP3   OH227980   4.136   2.550   4.750 -0.4992 -0.2107  0.0075
 9339TIP3    H127981   4.117   2.553   4.656 -1.3268  2.1810  0.1899
 9339TIP3    H227982   4.065   2.496   4.786 -0.7303 -0.3304 -0.6092
 9340TIP3   OH227983   2.585   1.473   2.444  0.5391 -0.2853 -0.2940
 9340TIP3    H127984   2.647   1.507   2.379 -0.1632  0.2180 -0.7115
 9340TIP3    H227985   2.629   1.395   2.480  0.5609 -1.1437 -2.0432
 9341TIP3   OH227986   1.258   5.002   5.287  0.2783 -0.2214 -0.1937
 9341TIP3    H127987   1.271   5.066   5.358 -0.4497 -0.7363  0.4268
 9341TIP3    H227988   1.333   4.943   5.294 -0.2534 -0.8321  0.7981
 9342TIP3   OH227989   2.542   5.549   4.374  0.1668 -0.0160 -0.2649
 9342TIP3    H127990   2.595   5.492   4.318  0.8165  0.7927 -0.4945
 9342TIP3    H227991   2.558   5.517   4.463  1.5881  0.6065 -0.2633
 9343TIP3   OH227992   0.100   1.947   3.903 -0.2396 -0.2017  0.1830
 9343TIP3    H127993   0.023   1.927   3.957 -0.5296  0.2353 -0.0593
 9343TIP3    H227994   0.148   2.014   3.952 -1.4333  1.5183 -0.8812
 9344TIP3   OH227995   6.953   1.465   4.129 -0.2059  0.0468 -0.7744
 9344TIP3    H127996   6.926   1.375   4.108  0.0644  0.2269 -1.9612
 9344TIP3    H227997   6.942   1.513   4.047 -0.1382  1.0580 -0.2095
 9345TIP3   OH227998   5.605   2.062   1.644  0.1080  0.2269  0.1990
 9345TIP3    H127999   5.598   1.967   1.648 -0.2264  0.2043 -0.6442
 9345TIP3    H228000   5.648   2.087   1.726 -2.0100 -0.4346  1.6009
 9346TIP3   OH228001   6.678   0.402   5.325  0.2913  0.3102  0.0828
 9346TIP3    H128002   6.655   0.339   5.393 -1.5245 -0.4447 -1.1660
 9346TIP3    H228003   6.764   0.436   5.352  0.6824 -1.6573  1.5117
 9347TIP3   OH228004   5.508   4.817   3.547  0.0501 -0.0564  0.4954
 9347TIP3    H128005   5.564   4.801   3.471 -1.7446  1.6686 -1.3235
 9347TIP3    H228006   5.437   4.753   3.538  0.3736 -0.5498  1.3447
 9348TIP3   OH228007   1.012   5.456   5.633 -0.8381  0.3753  0.2826
 9348TIP3    H128008   1.048   5.370   5.657  0.8483  1.0137  0.2028
 9348TIP3    H228009   1.076   5.492   5.571 -1.8730  1.4058 -0.2163
 9349TIP3   OH228010   4.206   3.911   4.305 -0.1500 -0.2071  0.1310
 9349TIP3    H128011   4.281   3.948   4.353 -1.2076  0.6668  1.1484
 9349TIP3    H228012   4.187   3.976   4.237  0.0068 -0.4321 -0.1306
 9350TIP3   OH228013   4.186   1.251   1.039  0.2004 -0.5007  0.3590
 9350TIP3    H128014   4.279   1.229   1.043  0.2444 -0.2637  0.6980
 9350TIP3    H228015   4.156   1.215   0.956  0.8910  0.5402 -0.3693
 9351TIP3   OH228016   2.962   4.822   5.291  0.1588 -0.0390 -0.8636
 9351TIP3    H128017   2.972   4.856   5.202 -0.7701  1.7529 -0.3308
 9351TIP3    H228018   2.868   4.829   5.309  0.5014  0.9946  0.7344
 9352TIP3   OH228019   3.800   3.613   3.631  0.7715  0.1196 -0.1528
 9352TIP3    H128020   3.708   3.590   3.643  1.3225 -2.2980 -0.0618
 9352TIP3    H228021   3.843   3.530   3.610  2.6866  1.4235 -1.7968
 9353TIP3   OH228022   4.220   6.254   0.780  0.4843 -0.1712  0.2159
 9353TIP3    H128023   4.129   6.239   0.754  0.8521 -2.3356  0.0145
 9353TIP3    H228024   4.219   6.342   0.819 -1.8223 -0.4138  0.8731
 9354TIP3   OH228025   4.443   4.537   3.871 -0.1426 -0.8991 -0.1556
 9354TIP3    H128026   4.352   4.565   3.877 -0.7603 -2.4026 -1.7220
 9354TIP3    H228027   4.488   4.609   3.828 -0.8038 -0.5842 -0.3338
 9355TIP3   OH228028   1.748   4.325   5.417  0.2775  0.7362  0.3893
 9355TIP3    H128029   1.743   4.346   5.510  0.1753  2.5017  0.0250
 9355TIP3    H228030   1.840   4.307   5.400  0.3256  0.6166  0.7890
 9356TIP3   OH228031   5.918   5.643  -0.004 -0.0585  0.2004 -0.6991
 9356TIP3    H128032   6.002   5.606   0.025 -0.0195  0.9289  0.1573
 9356TIP3    H228033   5.855   5.608   0.059 -0.2655  0.3418 -0.8310
 9357TIP3   OH228034   2.938   0.254   5.815  0.2087 -0.0594  0.3598
 9357TIP3    H128035   2.864   0.316   5.816  1.4085  1.4867  2.3193
 9357TIP3    H228036   2.914   0.188   5.880  0.3164  0.1810  0.6495
 9358TIP3   OH228037   5.689   0.974   3.737 -0.1759  0.0434  0.1540
 9358TIP3    H128038   5.704   0.893   3.688  0.8976  0.7280 -0.6866
 9358TIP3    H228039   5.764   0.981   3.797  0.5077  1.1110 -0.7776
 9359TIP3   OH228040   4.061   2.589   5.776 -0.6723 -0.8697  0.3807
 9359TIP3    H128041   3.970   2.614   5.758 -0.4832 -0.2613  0.2573
 9359TIP3    H228042   4.076   2.615   5.867 -0.6524 -1.0649  0.4334
 9360TIP3   OH228043   1.119   0.820   4.378  0.3451  0.2746  0.3287
 9360TIP3    H128044   1.152   0.735   4.349 -0.7133  0.1234 -0.4856
 9360TIP3    H228045   1.079   0.802   4.463  1.0803  0.1831  0.6617
 9361TIP3   OH228046   0.388   2.826   5.166  0.3912  0.4160 -0.0465
 9361TIP3    H128047   0.324   2.809   5.235 -0.7820 -0.1768 -1.2208
 9361TIP3    H228048   0.355   2.904   5.121  1.2465  0.9123  0.1529
 9362TIP3   OH228049   0.899   0.200   5.146 -0.8357 -0.8331  0.3517
 9362TIP3    H128050   0.922   0.114   5.182 -2.8556 -1.0602  1.2466
 9362TIP3    H228051   0.835   0.236   5.208  0.5221  1.7028  0.4357
 9363TIP3   OH228052   0.899   3.648   3.199 -0.1268  0.1106  0.0963
 9363TIP3    H128053   0.909   3.649   3.104  2.2686  0.6822  0.3048
 9363TIP3    H228054   0.849   3.728   3.218  3.2095  2.5149 -0.4242
 9364TIP3   OH228055   6.474   5.957   2.654 -0.1579  0.6703  0.5870
 9364TIP3    H128056   6.406   5.973   2.588  0.0737  0.5013  0.3048
 9364TIP3    H228057   6.556   5.961   2.605  0.0558  1.1031  0.9653
 9365TIP3   OH228058   1.631   1.496   5.045 -0.2461 -0.4135 -0.2218
 9365TIP3    H128059   1.636   1.526   5.136  0.2967 -0.8677 -0.0921
 9365TIP3    H228060   1.596   1.570   4.997  1.5555  0.6511 -0.0089
 9366TIP3   OH228061   1.226   4.121   3.034  0.3515 -0.0519 -0.4808
 9366TIP3    H128062   1.291   4.155   3.096 -0.2166  1.2820 -0.5845
 9366TIP3    H228063   1.278   4.076   2.967  1.1780  0.9622 -0.5444
 9367TIP3   OH228064   3.064   2.056   3.243  0.1717 -0.2102  0.0342
 9367TIP3    H128065   3.133   1.993   3.222 -0.7805 -1.1072 -0.4742
 9367TIP3    H228066   3.051   2.105   3.162 -0.1581 -0.4153 -0.0392
 9368TIP3   OH228067   2.661   1.240   0.269 -0.3247 -0.3108 -0.3235
 9368TIP3    H128068   2.743   1.269   0.230 -0.1311 -0.9180 -0.3759
 9368TIP3    H228069   2.686   1.212   0.358 -0.5883  0.1089 -0.1117
 9369TIP3   OH228070   5.132   0.909   4.809 -0.3973 -0.0431  0.6001
 9369TIP3    H128071   5.129   0.882   4.717  0.9861 -1.2212  0.8618
 9369TIP3    H228072   5.050   0.877   4.846 -0.3832 -0.7239  0.0675
 9370TIP3   OH228073   5.388   0.102   0.709  0.2197  0.3440  0.0839
 9370TIP3    H128074   5.388   0.010   0.685 -1.9146 -0.0097  1.1952
 9370TIP3    H228075   5.453   0.109   0.779  1.8137  0.1229 -1.3198
 9371TIP3   OH228076   6.916   6.593   3.912  0.9203 -0.1639 -0.1573
 9371TIP3    H128077   6.994   6.597   3.856  0.5310 -0.7620 -0.7749
 9371TIP3    H228078   6.845   6.573   3.851  0.4436 -0.6044  0.5296
 9372TIP3   OH228079   1.711   3.030   2.039 -0.1550  0.7601 -0.3562
 9372TIP3    H128080   1.677   3.014   1.951 -1.7227  1.8376 -0.0021
 9372TIP3    H228081   1.640   3.004   2.097  0.7284  0.3969  0.5803
 9373TIP3   OH228082   2.240   0.901   5.773 -0.0552 -0.0724 -0.4993
 9373TIP3    H128083   2.252   0.978   5.828 -0.9758  0.4375 -0.9840
 9373TIP3    H228084   2.296   0.834   5.812  1.2145  1.0064 -0.4099
 9374TIP3   OH228085   4.568   6.235   1.752 -0.5616 -0.2163 -0.6611
 9374TIP3    H128086   4.514   6.254   1.829 -2.1657 -2.1186 -1.2384
 9374TIP3    H228087   4.518   6.269   1.678  0.9105  1.4815 -0.9246
 9375TIP3   OH228088   2.102   3.163   2.138 -0.1668 -0.3403  0.3657
 9375TIP3    H128089   2.072   3.077   2.106  0.6983 -0.4498 -0.1794
 9375TIP3    H228090   2.054   3.226   2.084 -0.9684 -0.4722  0.9147
 9376TIP3   OH228091   4.397   5.281   3.001 -0.3687  0.1784 -0.6514
 9376TIP3    H128092   4.401   5.237   3.086 -1.6591  1.7014  0.2663
 9376TIP3    H228093   4.472   5.248   2.952 -0.0766 -1.3567  0.7755
 9377TIP3   OH228094   1.399   5.092   2.278  0.0413 -0.6028 -0.5065
 9377TIP3    H128095   1.342   5.020   2.307 -0.0656 -1.4026 -2.4927
 9377TIP3    H228096   1.487   5.054   2.278  0.7247  0.6515  2.6278
 9378TIP3   OH228097   1.754   1.489   0.609 -0.3038  0.5557  0.2766
 9378TIP3    H128098   1.796   1.417   0.656  0.0761  1.7171  1.8170
 9378TIP3    H228099   1.661   1.471   0.615 -0.1752 -0.9287 -1.3112
 9379TIP3   OH228100   3.885   0.418   3.499  0.4315  0.4066  0.1994
 9379TIP3    H128101   3.903   0.442   3.408 -1.5766  1.3855 -0.0019
 9379TIP3    H228102   3.840   0.334   3.493 -0.4601  0.8709  0.1923
 9380TIP3   OH228103   2.789   2.970   3.967  0.2695 -0.1119  0.1358
 9380TIP3    H128104   2.822   2.894   3.919 -0.6817 -1.0390  0.9005
 9380TIP3    H228105   2.844   2.973   4.046 -1.3368 -1.6551  1.4085
 9381TIP3   OH228106   1.760   3.785   5.041  0.1706 -0.3709  0.3903
 9381TIP3    H128107   1.815   3.707   5.036 -2.1660 -2.1988  1.1812
 9381TIP3    H228108   1.766   3.824   4.954  0.1100 -2.4007 -0.5737
 9382TIP3   OH228109   1.102  -0.007   3.205  0.1442 -0.6328 -0.1745
 9382TIP3    H128110   1.091   0.065   3.268 -0.3071 -0.4605 -0.4431
 9382TIP3    H228111   1.182  -0.051   3.233 -0.6702 -1.2888  1.2338
 9383TIP3   OH228112   5.456   6.170   5.191  0.1501 -0.2685 -0.0865
 9383TIP3    H128113   5.523   6.155   5.257 -0.6588 -2.6898  0.2903
 9383TIP3    H228114   5.456   6.090   5.138 -3.6296 -1.2862  1.1107
 9384TIP3   OH228115   0.816   4.177   4.226 -0.9049 -0.1251  0.1002
 9384TIP3    H128116   0.822   4.210   4.316  2.5153 -1.0344  0.3484
 9384TIP3    H228117   0.809   4.255   4.172  2.6507  0.9309  0.9320
 9385TIP3   OH228118   0.988   5.939   0.303 -0.0920 -0.4422 -0.0962
 9385TIP3    H128119   1.044   6.010   0.332  0.0591 -0.9115  0.7752
 9385TIP3    H228120   0.918   5.983   0.255 -0.5708  0.3997  1.3076
 9386TIP3   OH228121   0.929   2.993   4.599  0.5422  0.6235 -0.0391
 9386TIP3    H128122   0.945   2.922   4.660  0.6649  0.8613  0.2066
 9386TIP3    H228123   0.841   3.023   4.619  0.4292  0.4420 -0.2483
 9387TIP3   OH228124   1.023   2.976   5.414 -0.0167 -0.3028  0.0351
 9387TIP3    H128125   0.955   2.919   5.379 -0.7839  1.1741 -1.0005
 9387TIP3    H228126   0.986   3.064   5.408  0.4730  0.2121  3.0970
 9388TIP3   OH228127   6.778   5.000   4.481 -0.0736  0.1578  0.4928
 9388TIP3    H128128   6.723   5.012   4.404 -0.1754  1.7794  0.7856
 9388TIP3    H228129   6.865   4.978   4.446 -0.5169 -0.8416 -0.0098
 9389TIP3   OH228130   2.462   6.122   5.368  0.5834  0.5618 -0.0324
 9389TIP3    H128131   2.461   6.090   5.277  1.3714  0.3014  0.0466
 9389TIP3    H228132   2.406   6.200   5.366 -2.1991 -1.3209 -0.0190
 9390TIP3   OH228133   2.067   5.793   0.310  0.3303  0.1758  0.2892
 9390TIP3    H128134   1.982   5.777   0.352 -0.6553  1.2922 -1.2001
 9390TIP3    H228135   2.080   5.887   0.319  1.3741  0.0354  0.3736
 9391TIP3   OH228136   4.936   3.607   1.680 -0.3140  0.0893  0.2467
 9391TIP3    H128137   4.957   3.637   1.768  0.2464 -1.0058  0.5160
 9391TIP3    H228138   5.008   3.547   1.658 -1.9714 -2.0631  0.2973
 9392TIP3   OH228139   4.559   3.765   2.021  0.4720  0.1700  0.5147
 9392TIP3    H128140   4.613   3.833   1.982 -1.3573  0.9542 -0.7910
 9392TIP3    H228141   4.554   3.788   2.114 -0.6170  2.2043 -0.0100
 9393TIP3   OH228142   1.355   2.763   5.855  0.3928  0.2176 -0.0794
 9393TIP3    H128143   1.274   2.733   5.814  0.7909 -0.7226 -0.2073
 9393TIP3    H228144   1.397   2.818   5.789 -1.2768  2.7478  0.8580
 9394TIP3   OH228145   5.285   1.312   0.695 -0.3904  0.2669 -0.3056
 9394TIP3    H128146   5.271   1.400   0.660 -0.4927  0.4427  0.1646
 9394TIP3    H228147   5.197   1.276   0.706 -0.3634  0.2377 -0.1794
 9395TIP3   OH228148   5.212   5.366   0.617 -0.5093 -0.6915 -0.0407
 9395TIP3    H128149   5.242   5.276   0.628 -0.1133 -0.8080 -1.9217
 9395TIP3    H228150   5.116   5.358   0.611 -0.6748 -0.7229  1.9467
 9396TIP3   OH228151   1.795   5.133   3.200 -1.0743 -0.1594  0.1731
 9396TIP3    H128152   1.822   5.158   3.288  0.7766  0.2883 -0.4744
 9396TIP3    H228153   1.812   5.038   3.195  2.6887  0.4100 -0.8758
 9397TIP3   OH228154   2.564   2.992   4.157 -0.0615  0.4925 -0.9280
 9397TIP3    H128155   2.481   2.970   4.114 -0.8831  0.3010  0.6542
 9397TIP3    H228156   2.625   3.009   4.086 -1.0031 -1.0569 -2.1609
 9398TIP3   OH228157   6.132   0.860   2.234 -0.2411  0.6404 -0.0426
 9398TIP3    H128158   6.043   0.892   2.252 -0.6299 -0.3913 -0.0848
 9398TIP3    H228159   6.172   0.850   2.320 -0.9593 -1.0829  0.1199
 9399TIP3   OH228160   1.856   1.007   5.603 -0.3830  0.1425 -0.2314
 9399TIP3    H128161   1.908   1.026   5.681 -0.0288 -0.5228 -0.2962
 9399TIP3    H228162   1.915   0.957   5.547 -1.0168 -0.4255 -0.4081
 9400TIP3   OH228163   3.894   4.276   5.391  0.0967 -0.3018 -0.3043
 9400TIP3    H128164   3.832   4.207   5.367 -0.1152 -1.0379  2.1284
 9400TIP3    H228165   3.844   4.333   5.450  0.3405  1.8724 -2.0653
 9401TIP3   OH228166   5.841   6.536   3.240  0.3376 -0.2236 -0.2346
 9401TIP3    H128167   5.833   6.548   3.335 -1.6054 -1.0878 -0.2446
 9401TIP3    H228168   5.866   6.622   3.207 -0.6192  0.5225  0.9163
 9402TIP3   OH228169   6.280   4.776   4.454 -0.2248  0.1900 -0.1390
 9402TIP3    H128170   6.300   4.869   4.448 -0.5200  0.1686 -2.2500
 9402TIP3    H228171   6.223   4.759   4.379 -1.8945 -1.2920  1.3663
 9403TIP3   OH228172   2.108   4.375   3.258 -0.6927  0.1161  0.2244
 9403TIP3    H128173   2.141   4.318   3.190 -1.8535  0.9206 -1.0857
 9403TIP3    H228174   2.013   4.376   3.245 -0.7963  1.5779  0.7874
 9404TIP3   OH228175   6.309   1.954   4.947  0.0605  0.0926 -1.3015
 9404TIP3    H128176   6.330   2.045   4.966  0.2330 -0.4272  1.5414
 9404TIP3    H228177   6.388   1.919   4.905  1.4382  0.4469  0.8179
 9405TIP3   OH228178   5.120   3.210   4.433  0.6498 -0.2347  0.7703
 9405TIP3    H128179   5.163   3.294   4.443  0.8939 -0.2375 -0.1279
 9405TIP3    H228180   5.177   3.147   4.478  0.3669  0.0980  1.6094
 9406TIP3   OH228181   0.699   3.686   0.109 -0.0547 -0.2800  0.3387
 9406TIP3    H128182   0.744   3.702   0.192 -0.0933  1.5304  0.0411
 9406TIP3    H228183   0.728   3.756   0.051 -0.9641 -0.8124 -0.8088
 9407TIP3   OH228184   1.781   6.008   2.476 -0.1232  0.2955 -0.2763
 9407TIP3    H128185   1.715   6.060   2.521 -1.0616  0.0011 -1.2578
 9407TIP3    H228186   1.755   5.917   2.492 -0.6702  0.1799 -1.6171
 9408TIP3   OH228187   0.984   2.262   5.748  0.5125 -0.0617  0.4500
 9408TIP3    H128188   1.027   2.327   5.804 -0.9763  2.0097 -0.6618
 9408TIP3    H228189   0.891   2.275   5.763  0.0196  0.7883 -2.5910
 9409TIP3   OH228190   3.091   5.876   3.275  0.2313  0.4988 -0.0226
 9409TIP3    H128191   3.075   5.788   3.309  0.7614  1.0340  1.7822
 9409TIP3    H228192   3.016   5.927   3.306  1.8160  1.5122  2.5669
 9410TIP3   OH228193   1.618   0.548   1.477 -0.2835 -0.0860 -0.0441
 9410TIP3    H128194   1.613   0.614   1.546 -0.4937  1.8285 -1.7808
 9410TIP3    H228195   1.703   0.506   1.489  0.8155  1.9726 -0.0809
 9411TIP3   OH228196   4.363   5.733   5.245  0.1344  0.2553 -0.2415
 9411TIP3    H128197   4.415   5.782   5.309 -0.4900  0.3056  0.2285
 9411TIP3    H228198   4.337   5.654   5.290  1.1923 -0.5752 -1.0250
 9412TIP3   OH228199   3.866   6.152   3.660 -0.1585  0.1624  0.1937
 9412TIP3    H128200   3.876   6.203   3.741  0.4992  0.9458 -0.3698
 9412TIP3    H228201   3.933   6.084   3.667 -1.1927 -0.8075  1.0565
 9413TIP3   OH228202   1.482   6.682   2.688 -0.1691 -0.2072  0.2530
 9413TIP3    H128203   1.531   6.673   2.606 -0.2781 -0.2862  0.1968
 9413TIP3    H228204   1.449   6.594   2.707  1.7534 -0.7013  1.5807
 9414TIP3   OH228205   1.983   4.815   0.246 -0.6948 -0.0648 -0.7223
 9414TIP3    H128206   2.029   4.796   0.328 -0.7604 -0.7538 -0.8376
 9414TIP3    H228207   2.033   4.769   0.179  0.0798  1.5013 -1.2699
 9415TIP3   OH228208   4.500   3.455   0.748  0.0762 -0.3192 -0.0882
 9415TIP3    H128209   4.533   3.440   0.836  1.3581  0.8895 -0.3231
 9415TIP3    H228210   4.407   3.475   0.760  0.4998  1.0815  1.1321
 9416TIP3   OH228211   3.443   0.990   4.462  0.2161 -0.0385 -0.5576
 9416TIP3    H128212   3.441   1.037   4.545 -0.1253  1.1097 -1.1856
 9416TIP3    H228213   3.534   0.995   4.433  0.4198 -0.7972 -0.0684
 9417TIP3   OH228214   1.033   5.651   1.782  0.3504  0.3703 -0.0256
 9417TIP3    H128215   0.970   5.648   1.854  0.1095 -1.3099 -0.2553
 9417TIP3    H228216   1.008   5.728   1.731 -3.5977 -1.8234 -1.8605
 9418TIP3   OH228217   3.990   3.316   0.201 -0.5346  0.0071  0.4559
 9418TIP3    H128218   3.908   3.342   0.157  0.8045  2.2055 -0.9275
 9418TIP3    H228219   4.014   3.234   0.158 -0.8958  0.4807 -0.7143
 9419TIP3   OH228220   3.636   1.469   5.608  0.1308  0.4271 -0.0268
 9419TIP3    H128221   3.568   1.464   5.541  0.8651 -0.3615 -0.7415
 9419TIP3    H228222   3.601   1.529   5.673 -2.1005 -1.3710  0.5790
 9420TIP3   OH228223   6.712   6.549   3.721  0.0452  0.1611 -0.3257
 9420TIP3    H128224   6.639   6.583   3.773 -0.7384 -1.0712 -0.5818
 9420TIP3    H228225   6.679   6.549   3.631  0.4744 -0.1327 -0.4811
 9421TIP3   OH228226   5.451   4.798   4.814 -0.0390 -0.1993 -0.3717
 9421TIP3    H128227   5.512   4.872   4.816 -1.0113  0.6128  0.9446
 9421TIP3    H228228   5.466   4.757   4.728  1.1305  0.9957 -0.7788
 9422TIP3   OH228229   1.894   6.628   2.894 -0.1511 -0.3692  0.1256
 9422TIP3    H128230   1.854   6.547   2.926 -0.3194  0.2563  1.6305
 9422TIP3    H228231   1.864   6.636   2.804 -1.7456 -1.0044  0.5587
 9423TIP3   OH228232   1.442   3.829   4.269 -0.5713 -0.3766  0.0660
 9423TIP3    H128233   1.417   3.741   4.295  0.4521 -0.6372  0.2323
 9423TIP3    H228234   1.395   3.845   4.188 -0.1348 -1.4011 -0.4087
 9424TIP3   OH228235   1.583   5.672   3.181 -0.3178  0.7321 -0.0261
 9424TIP3    H128236   1.651   5.674   3.114  1.1256  0.5749  1.3823
 9424TIP3    H228237   1.614   5.608   3.245 -2.0991  0.1997  0.3700
 9425TIP3   OH228238   6.498   6.010   1.190  0.0252  0.1803  0.4157
 9425TIP3    H128239   6.581   5.999   1.143  0.2458  1.1272  0.5503
 9425TIP3    H228240   6.522   6.001   1.282 -0.0063  0.4800  0.4561
 9426TIP3   OH228241   6.168   0.418   3.944 -0.1509 -0.6148 -0.1763
 9426TIP3    H128242   6.093   0.408   3.885 -0.0830  1.2957 -0.6442
 9426TIP3    H228243   6.232   0.467   3.893 -0.3600  1.7444  1.6621
 9427TIP3   OH228244   5.292   4.990   1.165 -0.6651  0.2568  0.4796
 9427TIP3    H128245   5.303   5.068   1.220  1.5598 -1.6023  2.8950
 9427TIP3    H228246   5.251   4.926   1.222  0.6026 -1.3825 -0.3612
 9428TIP3   OH228247   0.022   3.490   0.710  0.5405  0.1375  0.1137
 9428TIP3    H128248   0.111   3.460   0.693 -0.3780 -2.0029 -1.3586
 9428TIP3    H228249   0.014   3.570   0.658  1.6395  0.5156  0.4777
 9429TIP3   OH228250   1.579   1.327   1.491  0.4948  0.1902 -0.6107
 9429TIP3    H128251   1.532   1.347   1.410  1.0149 -0.9540 -1.2174
 9429TIP3    H228252   1.671   1.328   1.465  0.6920  0.2275  0.0754
 9430TIP3   OH228253   5.933   5.561   1.008  0.2379 -0.4475 -0.1135
 9430TIP3    H128254   5.954   5.649   1.039 -0.7883 -0.6494  1.2839
 9430TIP3    H228255   5.970   5.557   0.920  0.2533  1.4003 -0.2404
 9431TIP3   OH228256   6.445   1.183   2.042 -0.4039  0.2352 -0.1817
 9431TIP3    H128257   6.449   1.232   2.124 -1.3777  0.1440 -0.0670
 9431TIP3    H228258   6.509   1.225   1.986 -0.0246  0.5667  0.4853
 9432TIP3   OH228259   5.013   3.906   4.984  0.0857  0.2334  0.2194
 9432TIP3    H128260   5.000   3.975   4.919 -1.1613  0.0611  0.2626
 9432TIP3    H228261   5.090   3.934   5.033 -1.6256  2.7759  1.6911
 9433TIP3   OH228262   1.145   3.160   4.617 -0.1666  0.2913  0.4819
 9433TIP3    H128263   1.181   3.160   4.705  0.9749 -2.7843  0.1321
 9433TIP3    H228264   1.061   3.115   4.626  0.8848 -1.9850 -0.1848
 9434TIP3   OH228265   4.469   2.568   4.516  0.2333  0.1574  0.1268
 9434TIP3    H128266   4.403   2.635   4.501 -0.3647 -0.7536 -1.5989
 9434TIP3    H228267   4.444   2.527   4.599 -0.1016  1.2217  0.5675
 9435TIP3   OH228268   0.910   4.710   1.424 -0.3848 -0.1187  0.1012
 9435TIP3    H128269   0.933   4.744   1.511 -1.1383  0.8920 -0.0772
 9435TIP3    H228270   0.928   4.782   1.364 -0.2940 -0.6590 -0.5352
 9436TIP3   OH228271   5.059   2.395   1.750  0.2006  0.0860 -0.1901
 9436TIP3    H128272   5.139   2.379   1.800  0.5948 -0.1796 -0.8866
 9436TIP3    H228273   5.011   2.312   1.754 -0.1994  0.3480  0.5035
 9437TIP3   OH228274   4.108   2.474   1.398  0.0490 -0.0863  0.3082
 9437TIP3    H128275   4.082   2.390   1.361  0.7986  0.2560 -1.0908
 9437TIP3    H228276   4.121   2.530   1.321 -1.4892  1.6446  1.2159
 9438TIP3   OH228277   2.226   5.680   3.339  0.3653 -0.7932 -0.2890
 9438TIP3    H128278   2.178   5.710   3.416 -0.1320 -2.7251  0.2235
 9438TIP3    H228279   2.318   5.698   3.360  0.1041  0.2805 -0.0086
 9439TIP3   OH228280   2.176   4.987   1.784 -0.0801  0.3711 -0.3268
 9439TIP3    H128281   2.171   4.916   1.849  1.1521  0.8637  0.3394
 9439TIP3    H228282   2.266   4.984   1.752 -0.0878  1.4483 -0.4957
 9440TIP3   OH228283   5.806   4.901   0.994  0.6954 -0.3434  0.6813
 9440TIP3    H128284   5.861   4.974   1.023 -1.2613  1.5424 -0.0691
 9440TIP3    H228285   5.733   4.901   1.056  0.6167 -1.6435  0.6079
 9441TIP3   OH228286   3.726   2.065   5.073  0.1301 -0.6152  0.2194
 9441TIP3    H128287   3.674   2.132   5.118 -0.0572  0.6173 -1.7011
 9441TIP3    H228288   3.661   1.999   5.046  0.1067 -0.8841  0.9316
 9442TIP3   OH228289   1.709   4.038   4.560  0.7162  0.3857 -0.5708
 9442TIP3    H128290   1.707   3.973   4.490  0.4017  1.1839 -1.3232
 9442TIP3    H228291   1.625   4.083   4.554  1.9746  2.7837 -1.9706
 9443TIP3   OH228292   5.602   3.114   0.285  0.4424 -0.6499  0.5440
 9443TIP3    H128293   5.636   3.086   0.200  2.2670 -2.1869  1.7065
 9443TIP3    H228294   5.672   3.167   0.323 -0.2824 -0.1178  1.1642
 9444TIP3   OH228295   0.136   3.990   3.573 -0.3229 -0.0817 -0.7256
 9444TIP3    H128296   0.072   4.038   3.521 -0.3606  0.7413  0.0619
 9444TIP3    H228297   0.220   4.008   3.530 -0.3051  0.9073 -0.3061
 9445TIP3   OH228298   4.034   3.509   0.587 -0.3468  0.0992  0.3299
 9445TIP3    H128299   3.940   3.524   0.593 -0.2640  0.7295  0.1705
 9445TIP3    H228300   4.042   3.426   0.541 -0.8123  0.6110 -0.6977
 9446TIP3   OH228301   3.701   0.847   2.686  0.6695 -0.1543 -0.0435
 9446TIP3    H128302   3.793   0.868   2.672  0.4240 -0.0967 -1.8857
 9446TIP3    H228303   3.658   0.876   2.606 -1.1427  0.8182  1.2241
 9447TIP3   OH228304   5.082   1.144   0.795 -0.1896  0.3141 -0.5482
 9447TIP3    H128305   4.995   1.183   0.805 -0.7061 -1.1106  0.7430
 9447TIP3    H228306   5.071   1.078   0.726 -0.4195 -0.6063  0.3477
 9448TIP3   OH228307   1.182   3.084   5.196 -0.1402  0.8951  0.6450
 9448TIP3    H128308   1.120   3.153   5.172 -0.2226  0.6116  0.0324
 9448TIP3    H228309   1.147   3.047   5.277  0.7760  2.6580  1.9154
 9449TIP3   OH228310   1.254   0.165   2.981  0.7186  0.0401 -0.3606
 9449TIP3    H128311   1.271   0.189   3.071  0.6576 -2.5762  0.4442
 9449TIP3    H228312   1.161   0.182   2.968  0.9545  1.4669 -0.3364
 9450TIP3   OH228313   6.865   4.539   4.032  0.6598 -0.9300  0.1181
 9450TIP3    H128314   6.882   4.572   4.121  1.8167 -1.9530  0.3004
 9450TIP3    H228315   6.774   4.564   4.015  0.6797  0.0347  1.2528
 9451TIP3   OH228316   5.853   1.134   3.324 -0.1127  0.5102 -0.2614
 9451TIP3    H128317   5.893   1.165   3.405  1.2526 -1.2326 -0.2081
 9451TIP3    H228318   5.761   1.159   3.331  0.2645  1.6492  1.1577
 9452TIP3   OH228319   4.651   3.290   0.015 -0.1740 -0.4986 -0.2106
 9452TIP3    H128320   4.675   3.261   0.103  0.3518  0.4356 -0.0314
 9452TIP3    H228321   4.732   3.326  -0.022 -0.5378 -0.2970 -0.8371
 9453TIP3   OH228322   3.196   3.009   3.723  0.5961 -0.5008  0.2329
 9453TIP3    H128323   3.286   2.984   3.745  0.8190 -0.0363 -0.1481
 9453TIP3    H228324   3.188   2.991   3.629  1.0730  1.7677 -0.2821
 9454TIP3   OH228325   5.593   3.027   4.789 -0.4847  0.2403 -0.3756
 9454TIP3    H128326   5.581   3.066   4.702  1.0245 -1.6061 -1.4726
 9454TIP3    H228327   5.686   3.008   4.795 -0.6660 -0.2699  1.3997
 9455TIP3   OH228328   6.774   2.471   0.345 -1.2011 -0.8328  0.2045
 9455TIP3    H128329   6.789   2.564   0.357 -0.5422 -1.1456  2.0492
 9455TIP3    H228330   6.832   2.446   0.273  0.7705 -0.3543  1.5708
 9456TIP3   OH228331   2.367   2.111   4.538 -0.6031  0.0813  0.0212
 9456TIP3    H128332   2.286   2.117   4.488 -0.2462 -1.2219 -0.7499
 9456TIP3    H228333   2.436   2.115   4.473 -0.0075  1.3962  0.6869
 9457TIP3   OH228334   5.967   0.276   5.188 -0.0880 -0.0400 -0.0058
 9457TIP3    H128335   6.029   0.348   5.196  1.4670 -1.3321  0.1549
 9457TIP3    H228336   6.020   0.201   5.162 -1.9232 -0.7309 -2.0766
 9458TIP3   OH228337   6.274   6.300   2.385  0.0707 -0.0039 -0.9375
 9458TIP3    H128338   6.184   6.331   2.374 -0.1787 -0.1134  0.5799
 9458TIP3    H228339   6.325   6.353   2.324 -0.6979  1.7240 -0.1648
 9459TIP3   OH228340   5.830   5.410   5.550 -0.2716  0.1836 -0.0805
 9459TIP3    H128341   5.902   5.350   5.574  0.2098  0.3351 -1.1097
 9459TIP3    H228342   5.831   5.476   5.619 -0.4797 -0.6996  0.7987
 9460TIP3   OH228343   3.549   3.574   0.081 -0.1452 -0.0528 -0.6554
 9460TIP3    H128344   3.526   3.597   0.170  1.9939 -0.7343  0.1473
 9460TIP3    H228345   3.547   3.656   0.033  1.3288  0.8242  0.6923
 9461TIP3   OH228346   1.325   1.118   2.937 -0.5173  0.6560  0.1598
 9461TIP3    H128347   1.336   1.132   3.031  0.1240  1.0626  0.0270
 9461TIP3    H228348   1.247   1.169   2.914 -0.6648  0.5703  0.4641
 9462TIP3   OH228349   5.217   1.463   0.135 -0.9102 -0.2403 -0.4131
 9462TIP3    H128350   5.278   1.509   0.078 -1.5967  0.0409 -0.9370
 9462TIP3    H228351   5.272   1.425   0.204 -0.2709  0.9471 -0.2333
 9463TIP3   OH228352   5.052   0.364   0.677  0.2256 -0.1173  1.0462
 9463TIP3    H128353   5.118   0.430   0.656 -0.0833  0.3015  1.3878
 9463TIP3    H228354   4.973   0.393   0.632  0.0450 -0.1647  1.3268
 9464TIP3   OH228355   0.164   1.732   3.292  0.0597  0.1489 -0.1619
 9464TIP3    H128356   0.218   1.748   3.215 -1.2927 -0.8394 -1.3833
 9464TIP3    H228357   0.202   1.655   3.334 -0.1625 -0.3049 -0.7890
 9465TIP3   OH228358   4.968   3.958   1.190  0.2262  0.1021 -0.2464
 9465TIP3    H128359   4.954   4.052   1.180  2.1785  0.5171  0.4647
 9465TIP3    H228360   4.888   3.926   1.231 -0.7293  1.3145 -1.0815
 9466TIP3   OH228361   0.858   3.163   5.679 -0.4332  0.0222  0.0301
 9466TIP3    H128362   0.864   3.258   5.683 -0.2130  0.0496 -0.8795
 9466TIP3    H228363   0.778   3.146   5.629  0.0751 -0.2561 -0.7001
 9467TIP3   OH228364   0.268   2.193   5.470  1.1164  0.1114 -0.5697
 9467TIP3    H128365   0.201   2.125   5.472 -0.9268  1.9878  0.1844
 9467TIP3    H228366   0.300   2.193   5.380  2.0584 -2.5495 -0.3115
 9468TIP3   OH228367   3.955   3.235   0.497 -0.2635  0.1507  0.1389
 9468TIP3    H128368   3.865   3.238   0.530  0.4238  0.6827  2.1311
 9468TIP3    H228369   3.949   3.266   0.406 -2.0564  0.3611  0.3046
 9469TIP3   OH228370   7.060   5.498   5.661  0.0617  0.4122  0.8115
 9469TIP3    H128371   6.980   5.536   5.699 -0.0440  0.2732  0.7331
 9469TIP3    H228372   7.117   5.572   5.643 -0.5168  0.6234 -0.2249
 9470TIP3   OH228373   5.561   2.245   2.345  0.3126  0.5155 -0.0102
 9470TIP3    H128374   5.522   2.224   2.429 -0.3315  0.9630 -0.1863
 9470TIP3    H228375   5.600   2.163   2.315  0.4268  0.3214  0.6560
 9471TIP3   OH228376   6.972   6.650   1.089 -0.1245  0.0294  0.0719
 9471TIP3    H128377   6.959   6.573   1.145 -0.1049  0.2330  0.3566
 9471TIP3    H228378   6.908   6.714   1.121 -1.8713 -0.6869 -1.7090
 9472TIP3   OH228379   3.851   0.862   0.812  0.4129  0.1962 -0.1219
 9472TIP3    H128380   3.885   0.800   0.876 -0.4691  1.0200  1.2003
 9472TIP3    H228381   3.925   0.920   0.792  0.7558 -0.2067 -0.0244
 9473TIP3   OH228382   1.516   5.338   0.683 -0.3827  0.0670 -0.5062
 9473TIP3    H128383   1.551   5.256   0.721 -0.5352  0.5245  0.6820
 9473TIP3    H228384   1.432   5.350   0.726 -1.1965 -0.0684 -2.0106
 9474TIP3   OH228385   1.831   3.962   4.128  0.2359  0.1823 -0.5801
 9474TIP3    H128386   1.796   3.890   4.180 -0.1073  1.4024  0.9718
 9474TIP3    H228387   1.813   4.040   4.181  2.5484  1.1855 -1.1312
 9475TIP3   OH228388   4.811   1.218   5.250 -0.3641  0.3394  0.2504
 9475TIP3    H128389   4.840   1.161   5.320  0.8741  0.8312  0.1719
 9475TIP3    H228390   4.754   1.282   5.292  0.6417  0.8379  0.8949
 9476TIP3   OH228391   1.407   1.546   5.438 -0.2904  0.1188 -0.6105
 9476TIP3    H128392   1.370   1.475   5.492 -1.7410  3.1478  2.8741
 9476TIP3    H228393   1.342   1.559   5.369 -0.3565 -1.4299 -0.8788
 9477TIP3   OH228394   0.079   5.409   4.591  0.2714 -0.1500 -0.1176
 9477TIP3    H128395   0.126   5.329   4.611  0.4104  0.1185  0.6920
 9477TIP3    H228396   0.007   5.411   4.655  0.7662  0.7758  0.4336
 9478TIP3   OH228397   4.256   2.388   3.789  0.5647  0.7295  0.4089
 9478TIP3    H128398   4.190   2.340   3.838  0.3862 -0.0828 -0.5771
 9478TIP3    H228399   4.325   2.407   3.852  0.6087 -0.7949  0.8498
 9479TIP3   OH228400   0.136   3.704   0.311  0.1299  0.2813 -0.1699
 9479TIP3    H128401   0.231   3.716   0.311  0.3410 -0.6925  2.6737
 9479TIP3    H228402   0.119   3.648   0.236  1.9202 -0.2213 -0.2462
 9480TIP3   OH228403   6.795   6.491   2.341 -0.2239 -0.3706  0.2160
 9480TIP3    H128404   6.756   6.550   2.406  1.6355  0.4236  0.6503
 9480TIP3    H228405   6.800   6.544   2.261 -1.0986 -0.8672 -0.1913
 9481TIP3   OH228406   1.111   3.336   1.453  0.2962 -0.2824 -1.0604
 9481TIP3    H128407   1.170   3.402   1.415 -0.1899  1.9411  1.7309
 9481TIP3    H228408   1.034   3.337   1.396  0.6142  1.0127 -1.5055
 9482TIP3   OH228409   0.646   2.436   2.722  0.1349 -0.3574 -0.0705
 9482TIP3    H128410   0.688   2.419   2.807 -0.0700  0.2376  0.1487
 9482TIP3    H228411   0.586   2.363   2.711  0.3752 -0.5950  0.1594
 9483TIP3   OH228412   6.764   0.854   3.196 -0.6155  0.2464 -0.6458
 9483TIP3    H128413   6.785   0.761   3.193 -0.8193  0.1609  0.3159
 9483TIP3    H228414   6.680   0.859   3.240 -0.0180  0.9636  0.4735
 9484TIP3   OH228415   4.538   6.257   4.421  0.0323  0.1018  0.1488
 9484TIP3    H128416   4.519   6.179   4.369  1.6504 -0.9204  0.9940
 9484TIP3    H228417   4.587   6.224   4.497  0.1887  1.8667  0.8770
 9485TIP3   OH228418   1.330   4.865   4.470  0.1538  0.0827 -0.0626
 9485TIP3    H128419   1.259   4.802   4.470  1.2070 -1.1403 -0.4342
 9485TIP3    H228420   1.344   4.885   4.377  0.0492  0.6227  0.0330
 9486TIP3   OH228421   0.736   0.398   1.858  0.1887 -0.2805  0.2133
 9486TIP3    H128422   0.658   0.382   1.806 -0.1204  0.0251  0.5723
 9486TIP3    H228423   0.731   0.334   1.929 -1.9798  2.3756  2.6729
 9487TIP3   OH228424   3.644   1.858   3.166  0.0736 -0.1792  0.0609
 9487TIP3    H128425   3.707   1.891   3.230  0.0136 -1.8080  1.0403
 9487TIP3    H228426   3.696   1.806   3.105 -0.0111  0.5033 -0.6028
 9488TIP3   OH228427   1.589   2.715   5.503  0.6193 -0.6656 -0.0660
 9488TIP3    H128428   1.649   2.683   5.435  1.4659  0.4215  0.1406
 9488TIP3    H228429   1.557   2.799   5.469 -0.0927 -0.8055  0.2409
 9489TIP3   OH228430   6.838   3.965   2.919 -0.0659 -0.1848 -0.1324
 9489TIP3    H128431   6.768   4.029   2.931 -0.6212 -0.7769 -0.1479
 9489TIP3    H228432   6.860   3.936   3.007  1.0542  0.9163 -0.0190
 9490TIP3   OH228433   6.431   1.708   3.533 -0.1110  0.2951  0.1706
 9490TIP3    H128434   6.361   1.745   3.480 -1.3239  0.6668  1.9342
 9490TIP3    H228435   6.472   1.784   3.575  0.5157 -0.0150  0.1278
 9491TIP3   OH228436   3.027   4.026   2.193  0.4684  0.2770 -0.0859
 9491TIP3    H128437   3.045   4.030   2.099  0.8911  0.7948  0.0167
 9491TIP3    H228438   2.940   3.985   2.199  0.9566 -0.8927 -0.6419
 9492TIP3   OH228439   0.335   1.769   3.881 -0.1685  0.3033 -0.3187
 9492TIP3    H128440   0.283   1.848   3.868  0.7495  1.1135  0.6687
 9492TIP3    H228441   0.388   1.788   3.959  1.5619 -0.4897 -1.2393
 9493TIP3   OH228442   3.150   1.363   0.661  0.4452 -0.5058 -0.1940
 9493TIP3    H128443   3.230   1.321   0.629  1.8899  1.5298  0.5599
 9493TIP3    H228444   3.179   1.447   0.696 -2.2059  0.8012 -0.9044
 9494TIP3   OH228445   1.478   5.206   5.285  0.2204 -0.2170  0.3630
 9494TIP3    H128446   1.528   5.145   5.339  0.0620  0.1069  0.8793
 9494TIP3    H228447   1.416   5.247   5.346 -1.9609 -1.9274 -0.5482
 9495TIP3   OH228448   1.735   5.431   2.076 -0.0361  0.2595 -0.1269
 9495TIP3    H128449   1.804   5.389   2.025 -0.8373 -1.3236  0.0418
 9495TIP3    H228450   1.658   5.429   2.019 -0.9180 -1.4369  1.0526
 9496TIP3   OH228451   6.090   3.032   2.275  0.1560  0.4713 -0.2493
 9496TIP3    H128452   6.079   3.126   2.287 -0.4977  0.3268  0.3231
 9496TIP3    H228453   6.146   3.024   2.198  0.8650  1.3382  0.1674
 9497TIP3   OH228454   1.448   4.523   2.070  0.4551 -0.3646 -0.2952
 9497TIP3    H128455   1.475   4.447   2.020  2.9667 -1.8339  2.9729
 9497TIP3    H228456   1.406   4.487   2.148  0.8568  1.5842  0.8939
 9498TIP3   OH228457   0.602   2.452   0.571 -0.0057  0.0163  0.2393
 9498TIP3    H128458   0.617   2.546   0.574 -0.2290  0.1036 -0.8422
 9498TIP3    H228459   0.549   2.433   0.648  0.3483  0.7114  0.6595
 9499TIP3   OH228460   6.215   1.688   1.198 -0.1736 -0.2928 -0.4320
 9499TIP3    H128461   6.135   1.676   1.249 -0.1283  0.9023 -0.0429
 9499TIP3    H228462   6.265   1.607   1.210 -1.8834 -1.6151 -1.7469
 9500TIP3   OH228463   6.292   3.699   5.501  0.1425  0.7168  0.1177
 9500TIP3    H128464   6.381   3.681   5.531  0.3761 -0.2852 -1.1297
 9500TIP3    H228465   6.303   3.758   5.427 -0.2033  0.2992 -0.2720
 9501TIP3   OH228466   1.553   5.137   2.039  0.5835 -0.7638 -1.0045
 9501TIP3    H128467   1.485   5.111   2.102  1.4669  0.0641  0.3400
 9501TIP3    H228468   1.506   5.147   1.956 -1.4665  2.1302  0.3357
 9502TIP3   OH228469   1.074   3.971   5.040 -0.5456 -0.5018  0.0141
 9502TIP3    H128470   1.108   3.924   4.964 -1.6355  1.5941 -1.9160
 9502TIP3    H228471   1.140   4.038   5.058 -0.6689 -0.4861  0.4141
 9503TIP3   OH228472   6.012   2.116   1.937  0.0699  0.1857  0.0452
 9503TIP3    H128473   6.098   2.152   1.956 -0.0188  1.0435 -1.0970
 9503TIP3    H228474   5.956   2.192   1.921 -0.7643 -0.3772  0.1674
 9504TIP3   OH228475   2.397   3.647   5.311 -0.4123 -0.1024  0.7225
 9504TIP3    H128476   2.413   3.673   5.221  0.5507  2.0508  1.4488
 9504TIP3    H228477   2.394   3.729   5.360 -1.6609 -1.1625  2.5574
 9505TIP3   OH228478   5.320   4.695   4.249 -0.0374 -0.3479 -0.0947
 9505TIP3    H128479   5.249   4.642   4.214  0.0084 -1.9928  2.0404
 9505TIP3    H228480   5.384   4.701   4.178 -0.6886 -1.9809 -0.8623
 9506TIP3   OH228481   4.662   0.369   3.503  0.0929  0.1644 -0.3558
 9506TIP3    H128482   4.744   0.373   3.453  0.3175  2.3257  0.1080
 9506TIP3    H228483   4.663   0.448   3.557 -1.0744 -1.0938  1.6428
 9507TIP3   OH228484   4.655   0.262   1.199  0.0212 -0.3977 -0.4396
 9507TIP3    H128485   4.630   0.199   1.266  1.5237 -1.1347 -0.5406
 9507TIP3    H228486   4.656   0.211   1.117  2.0545 -0.4938 -0.3990
 9508TIP3   OH228487   6.132   3.667   1.642  0.2213  0.3966 -0.1527
 9508TIP3    H128488   6.065   3.691   1.577  0.5502  0.7504 -0.3629
 9508TIP3    H228489   6.195   3.614   1.593 -0.0227 -0.1277  0.0997
 9509TIP3   OH228490   0.265   0.768   3.505  0.3392  0.0609  0.2203
 9509TIP3    H128491   0.338   0.784   3.566  1.7614 -1.0495 -1.1098
 9509TIP3    H228492   0.269   0.841   3.443  0.6679 -0.2619 -0.1477
 9510TIP3   OH228493   1.261   3.621   4.380  0.4368  0.6122 -0.1903
 9510TIP3    H128494   1.267   3.686   4.451 -0.5743  0.1651  0.3334
 9510TIP3    H228495   1.282   3.538   4.422  1.1834  0.5174 -0.7362
 9511TIP3   OH228496   1.585   0.284   2.599 -0.5940  0.4534  0.2397
 9511TIP3    H128497   1.512   0.230   2.626  0.0243  0.2757  1.6410
 9511TIP3    H228498   1.553   0.374   2.608 -0.2114  0.4282  2.2892
 9512TIP3   OH228499   2.601   0.412   0.915  0.1741  0.3917  0.4719
 9512TIP3    H128500   2.636   0.380   0.998 -1.0143  0.2023  0.9180
 9512TIP3    H228501   2.639   0.353   0.849 -1.4364 -1.6053  1.2139
 9513TIP3   OH228502   0.792   2.808   1.356  0.6965  0.5981  0.3300
 9513TIP3    H128503   0.733   2.734   1.370  3.3849 -1.8208 -0.2023
 9513TIP3    H228504   0.830   2.825   1.442 -1.1434  2.6096  0.8191
 9514TIP3   OH228505   3.470   5.169   4.407 -0.0371  0.2813 -0.0959
 9514TIP3    H128506   3.470   5.087   4.457  0.1420  0.8996  0.9416
 9514TIP3    H228507   3.378   5.196   4.406 -0.1895 -0.2412 -0.9748
 9515TIP3   OH228508   2.197   2.581   0.844 -0.4854  0.0046 -0.5757
 9515TIP3    H128509   2.261   2.643   0.879 -0.2137 -2.6136  4.3690
 9515TIP3    H228510   2.246   2.530   0.779  1.6830 -0.1245  1.0726
 9516TIP3   OH228511   1.523   6.550   5.723  0.0703  0.8243  0.1882
 9516TIP3    H128512   1.457   6.587   5.665  0.1555  0.1322 -0.3721
 9516TIP3    H228513   1.545   6.621   5.784  1.2907  2.1811 -1.7317
 9517TIP3   OH228514   6.217   4.207   2.182 -0.2923 -0.4910  0.2178
 9517TIP3    H128515   6.171   4.291   2.170  1.4401  0.1645 -2.6753
 9517TIP3    H228516   6.298   4.231   2.227 -0.5301 -0.8864  0.8609
 9518TIP3   OH228517   7.142   3.200   4.365  0.0839 -0.4686 -0.1942
 9518TIP3    H128518   7.229   3.219   4.330 -0.3965 -0.0776 -1.2118
 9518TIP3    H228519   7.125   3.110   4.337  0.4861 -0.8416  0.7166
 9519TIP3   OH228520   4.398   2.937   0.881  0.0147  0.2517 -0.1121
 9519TIP3    H128521   4.463   2.883   0.927  0.3572  1.8938  1.4278
 9519TIP3    H228522   4.319   2.883   0.881  0.8250 -1.0082 -0.3334
 9520TIP3   OH228523   4.150   1.967   2.686 -0.1949 -0.4623  0.6185
 9520TIP3    H128524   4.140   1.891   2.630  0.4532 -1.1225  1.3800
 9520TIP3    H228525   4.214   2.022   2.642  0.9123 -1.3546  1.0903
 9521TIP3   OH228526   1.865   4.058   1.207  0.2250 -0.0994  0.0895
 9521TIP3    H128527   1.947   4.015   1.230  0.3023 -0.8456 -1.5113
 9521TIP3    H228528   1.796   4.001   1.242  0.3580 -0.4599 -0.2421
 9522TIP3   OH228529   2.929   1.985   0.213  0.5656  0.3074  0.1399
 9522TIP3    H128530   2.928   1.954   0.303 -1.6167 -0.4664 -0.0752
 9522TIP3    H228531   2.971   1.915   0.163  1.2556  0.4835  0.4685
 9523TIP3   OH228532   2.385   6.094   4.566  0.6623  0.4333 -0.1306
 9523TIP3    H128533   2.394   6.171   4.622  1.1263  1.6032 -1.7560
 9523TIP3    H228534   2.323   6.038   4.613 -0.9977  2.5249  0.3269
 9524TIP3   OH228535   0.167   4.106   3.806  0.4732  0.2718  0.1668
 9524TIP3    H128536   0.258   4.082   3.823  0.5151  0.7210  0.5814
 9524TIP3    H228537   0.143   4.055   3.729  1.6085  1.4108 -0.9893
 9525TIP3   OH228538   0.580   2.835   3.182 -0.0678  0.1233 -0.1297
 9525TIP3    H128539   0.519   2.764   3.159  0.4939 -0.8371  1.1980
 9525TIP3    H228540   0.639   2.841   3.107  0.3611 -1.3854  0.0467
 9526TIP3   OH228541   3.441   0.920   1.198 -0.1969 -0.0983 -0.3712
 9526TIP3    H128542   3.448   0.884   1.109 -1.8640 -1.8810  0.1541
 9526TIP3    H228543   3.506   0.871   1.249 -0.5385 -0.4158 -0.2350
 9527TIP3   OH228544   0.051   4.313   1.862  0.1030  0.1308  0.0527
 9527TIP3    H128545   0.080   4.330   1.951 -1.8135  0.5567  0.6607
 9527TIP3    H228546   0.055   4.398   1.818  1.4038 -0.1484 -0.4150
 9528TIP3   OH228547   5.078   5.101   1.474 -0.4134  0.6586 -0.1726
 9528TIP3    H128548   5.042   5.046   1.544 -0.6872  1.0667  0.0093
 9528TIP3    H228549   5.091   5.186   1.516 -1.3379  1.1341 -0.8401
 9529TIP3   OH228550   5.902   1.208   0.264  0.3180  0.3203 -0.0574
 9529TIP3    H128551   5.842   1.278   0.289  1.0374  0.1992  2.3063
 9529TIP3    H228552   5.887   1.139   0.329  0.9166 -0.9611 -1.2202
 9530TIP3   OH228553   2.461   5.720   0.420  0.3470  0.1770  0.0564
 9530TIP3    H128554   2.385   5.778   0.415 -0.7187 -1.2349 -0.7167
 9530TIP3    H228555   2.429   5.642   0.465  1.7941  0.2083  1.2336
 9531TIP3   OH228556   4.453   6.693   3.030  0.5049  0.0338 -0.2647
 9531TIP3    H128557   4.525   6.719   3.087  1.1863 -0.1671 -1.0029
 9531TIP3    H228558   4.422   6.610   3.066  0.6791  0.0982  0.0307
 9532TIP3   OH228559   0.358   2.925   5.714  0.0167  1.0304 -0.3784
 9532TIP3    H128560   0.380   2.866   5.642 -1.1143 -0.0581  0.1322
 9532TIP3    H228561   0.427   2.991   5.713  0.7181  0.3129 -1.6486
 9533TIP3   OH228562   1.617   1.956   1.111 -0.4433 -0.0630  0.0037
 9533TIP3    H128563   1.580   1.887   1.167 -1.9141  0.8250  0.1927
 9533TIP3    H228564   1.580   1.938   1.024  0.0654 -0.1532 -0.1956
 9534TIP3   OH228565   1.133   0.858   2.087  0.2684  0.3166 -0.0512
 9534TIP3    H128566   1.046   0.882   2.056 -0.3622  0.4063  1.7033
 9534TIP3    H228567   1.118   0.814   2.170  1.9393  0.7487  0.5166
 9535TIP3   OH228568   5.914   2.540   3.500 -0.4027  0.2619  0.1961
 9535TIP3    H128569   5.959   2.455   3.509 -0.0512  0.3113 -1.0051
 9535TIP3    H228570   5.834   2.529   3.551 -0.5217 -0.9090 -0.2084
 9536TIP3   OH228571   5.697   4.056   4.798 -0.2430  0.1311 -0.3277
 9536TIP3    H128572   5.724   4.010   4.719  0.3880  1.0597 -0.6678
 9536TIP3    H228573   5.753   4.022   4.867  0.1725  0.3349 -0.5631
 9537TIP3   OH228574   5.816   1.737   2.862  0.0413  0.5808  0.3438
 9537TIP3    H128575   5.862   1.654   2.860 -1.8548 -0.5189 -0.7645
 9537TIP3    H228576   5.837   1.779   2.778 -0.3836  0.4091  0.1496
 9538TIP3   OH228577   5.899   4.912   3.865 -0.4817 -0.4246 -0.5528
 9538TIP3    H128578   5.979   4.886   3.910 -0.2119 -1.0561 -1.3821
 9538TIP3    H228579   5.831   4.903   3.932 -0.0906 -1.3634 -0.2601
 9539TIP3   OH228580   2.758   2.719   1.566  0.0872 -0.4983  0.1851
 9539TIP3    H128581   2.755   2.807   1.605  0.3225 -0.1161 -0.6370
 9539TIP3    H228582   2.701   2.666   1.622 -1.5800  0.6206 -0.3907
 9540TIP3   OH228583   5.621   6.280   1.262  0.2795 -0.2949 -0.0050
 9540TIP3    H128584   5.534   6.267   1.225  0.3688 -0.5823 -0.1209
 9540TIP3    H228585   5.671   6.203   1.234  1.0933  0.7273 -1.4909
 9541TIP3   OH228586   3.082   5.049   2.607  0.0601  0.2266 -0.5120
 9541TIP3    H128587   3.076   5.142   2.629 -2.8994 -0.0969  0.4879
 9541TIP3    H228588   3.054   5.045   2.516  0.4019  0.3206 -0.6237
 9542TIP3   OH228589   2.978   6.697   0.520  0.0903 -0.8093 -0.2767
 9542TIP3    H128590   2.906   6.634   0.514  0.0497 -0.7905  0.0157
 9542TIP3    H228591   2.979   6.740   0.435 -2.0740  1.1952  0.6122
 9543TIP3   OH228592   1.775   4.180   4.287 -0.0753 -0.4736 -0.6017
 9543TIP3    H128593   1.757   4.240   4.216 -0.6705  0.6852  0.4934
 9543TIP3    H228594   1.726   4.214   4.362  0.5781 -1.5990  0.3954
 9544TIP3   OH228595   4.367   6.311   1.564 -0.0043 -0.2197 -0.3012
 9544TIP3    H128596   4.370   6.260   1.484  0.0867 -1.0805  0.2392
 9544TIP3    H228597   4.440   6.372   1.556 -0.8797  0.7162 -1.5201
 9545TIP3   OH228598   1.559   1.392   0.405  0.6501  0.0295 -0.4885
 9545TIP3    H128599   1.578   1.483   0.427 -1.0560  0.6892 -1.5213
 9545TIP3    H228600   1.510   1.359   0.480 -0.3813  0.5868 -0.8869
 9546TIP3   OH228601   6.181   6.070   5.229  0.0384 -0.1375  0.6550
 9546TIP3    H128602   6.231   6.149   5.211  1.7647 -1.3659 -0.2687
 9546TIP3    H228603   6.108   6.073   5.166  0.6403  0.2517 -0.0466
 9547TIP3   OH228604   5.513   6.661   2.399 -0.8141 -0.2122  0.0882
 9547TIP3    H128605   5.446   6.728   2.381  1.5789  3.1276  2.3688
 9547TIP3    H228606   5.572   6.666   2.323 -2.1281 -1.9920 -1.1381
 9548TIP3   OH228607   0.405   1.421   2.860 -0.1311  0.1066 -0.5337
 9548TIP3    H128608   0.420   1.347   2.918  1.1856  2.1692  1.9532
 9548TIP3    H228609   0.376   1.492   2.917  0.6840  2.1160 -2.4617
 9549TIP3   OH228610   1.393   3.649   5.373 -0.4776 -0.8892  0.2179
 9549TIP3    H128611   1.345   3.711   5.318  0.1421  0.5963  1.3036
 9549TIP3    H228612   1.485   3.667   5.356 -0.1954  0.8359  2.9172
 9550TIP3   OH228613   7.078   4.517   2.560 -0.3453  0.4059  0.0211
 9550TIP3    H128614   7.141   4.538   2.491 -0.1195 -0.7849 -0.1394
 9550TIP3    H228615   7.062   4.601   2.604  1.4643  0.7119  0.1572
 9551TIP3   OH228616   3.229   5.103   3.916 -0.3078  0.5033 -0.0326
 9551TIP3    H128617   3.242   5.117   4.010  0.7212 -3.9403  0.6885
 9551TIP3    H228618   3.315   5.125   3.878  0.0413 -0.0321  0.4282
 9552TIP3   OH228619   1.931   5.220   3.418  0.6468 -0.3591 -0.6922
 9552TIP3    H128620   1.940   5.310   3.449  0.7890 -1.0534  1.3958
 9552TIP3    H228621   2.019   5.183   3.425  0.1069 -1.4187  1.0544
 9553TIP3   OH228622   6.748   2.176   4.949  0.1216  0.3578  0.4259
 9553TIP3    H128623   6.711   2.099   4.992 -1.1971  0.2088 -0.8894
 9553TIP3    H228624   6.834   2.148   4.920  0.5409  0.0831  1.8376
 9554TIP3   OH228625   6.942   3.219   0.952 -0.2354 -0.5531 -0.4630
 9554TIP3    H128626   6.884   3.142   0.953 -0.0133 -0.7176 -0.1571
 9554TIP3    H228627   7.026   3.185   0.921 -0.4829 -0.1782 -1.6066
 9555TIP3   OH228628   4.433   3.721   1.143 -0.1449  0.2012 -0.2268
 9555TIP3    H128629   4.449   3.815   1.153  0.4727 -0.0716  1.7203
 9555TIP3    H228630   4.487   3.680   1.211 -0.6096 -1.5476 -0.8677
 9556TIP3   OH228631   1.519   0.803   0.001  0.4680  0.3607 -0.4155
 9556TIP3    H128632   1.546   0.799   0.092 -1.1121  2.4289  0.2276
 9556TIP3    H228633   1.496   0.895  -0.013 -0.9583 -0.2293 -2.4185
 9557TIP3   OH228634   1.749   5.018   2.945 -0.1647  0.1137 -0.1372
 9557TIP3    H128635   1.829   4.983   2.907 -0.1123 -1.6778  1.5038
 9557TIP3    H228636   1.779   5.078   3.013 -0.2272 -0.0324  0.0188
 9558TIP3   OH228637   1.034   6.658   4.832 -0.1817 -0.6688 -0.2907
 9558TIP3    H128638   1.117   6.674   4.877 -0.7817  0.7436  0.3583
 9558TIP3    H228639   1.038   6.714   4.755 -1.0360  0.3572  0.3929
 9559TIP3   OH228640   6.285   4.497   0.212 -0.0455  0.7271 -0.4867
 9559TIP3    H128641   6.268   4.511   0.305 -0.2514  1.0808 -0.5759
 9559TIP3    H228642   6.287   4.585   0.174 -0.2651  0.5706 -0.8693
 9560TIP3   OH228643   4.843   6.464   0.397  0.1015  0.2208  0.2981
 9560TIP3    H128644   4.902   6.531   0.361  0.2654 -0.3613 -0.5674
 9560TIP3    H228645   4.759   6.508   0.405 -0.2704  0.0895 -2.0200
 9561TIP3   OH228646   6.503   1.783   3.861 -0.5057  0.2645  0.3181
 9561TIP3    H128647   6.522   1.822   3.776  0.6467 -1.6557 -0.3726
 9561TIP3    H228648   6.544   1.842   3.924  1.3297  0.1441 -0.6874
 9562TIP3   OH228649   4.828   1.317   2.151 -0.2054 -0.0377  0.3878
 9562TIP3    H128650   4.868   1.350   2.231  0.5488 -0.8423  0.3539
 9562TIP3    H228651   4.821   1.223   2.164  1.3572 -0.4036 -1.0820
 9563TIP3   OH228652   4.622   0.734   0.216 -0.2279  0.1748 -0.0027
 9563TIP3    H128653   4.608   0.683   0.137 -1.2301  1.0824 -0.4356
 9563TIP3    H228654   4.575   0.816   0.201  3.4730  2.4367 -0.4602
 9564TIP3   OH228655   4.893   1.660   4.353  0.3842  1.4336 -0.2858
 9564TIP3    H128656   4.961   1.675   4.288  0.2524  2.1149 -0.2697
 9564TIP3    H228657   4.867   1.748   4.383  0.4349  1.1392  0.6708
 9565TIP3   OH228658   0.825   0.078   1.570 -0.1439 -0.0788  0.5692
 9565TIP3    H128659   0.856   0.050   1.483 -1.4747  1.3795 -0.4364
 9565TIP3    H228660   0.730   0.071   1.564 -0.2507 -0.0338  1.9605
 9566TIP3   OH228661   4.543   0.067   1.694  0.4438  0.4322  0.2649
 9566TIP3    H128662   4.578   0.020   1.770 -0.4151  1.6258  1.4708
 9566TIP3    H228663   4.451   0.082   1.716  0.5020  1.9505 -0.4121
 9567TIP3   OH228664   5.814   3.383   1.225  0.2443  0.3618 -0.4574
 9567TIP3    H128665   5.766   3.395   1.143  2.0604  1.2410 -1.4566
 9567TIP3    H228666   5.861   3.466   1.238  1.3009 -0.3553  0.5748
 9568TIP3   OH228667   3.376   4.386   1.993  0.0344 -0.6099 -0.9038
 9568TIP3    H128668   3.381   4.319   2.062  0.2885  0.6356  0.3393
 9568TIP3    H228669   3.283   4.388   1.969 -0.4830  0.3583  0.9310
 9569TIP3   OH228670   4.087   5.425   5.727  0.4769 -0.2202 -0.3655
 9569TIP3    H128671   4.019   5.411   5.660 -1.2438 -2.0481  1.6146
 9569TIP3    H228672   4.160   5.370   5.698  0.1796 -0.1696 -1.2512
 9570TIP3   OH228673   4.235   6.796   2.653 -0.3324 -0.0763 -0.5984
 9570TIP3    H128674   4.223   6.708   2.616  1.0745  0.5971 -2.8498
 9570TIP3    H228675   4.146   6.828   2.668 -0.9516 -0.9267 -2.1955
 9571TIP3   OH228676   5.509   0.478   5.780  0.1602 -0.3529 -0.0979
 9571TIP3    H128677   5.461   0.533   5.841 -0.2368 -1.2196  0.3933
 9571TIP3    H228678   5.450   0.465   5.706  0.5192  0.4346 -0.5317
 9572TIP3   OH228679   0.395   4.255   2.910  0.2240 -0.4119 -0.1357
 9572TIP3    H128680   0.323   4.309   2.878  2.3236  1.0923 -2.6437
 9572TIP3    H228681   0.362   4.165   2.902 -1.7346  0.2506 -0.1662
 9573TIP3   OH228682   1.241   2.574   0.162 -0.3057  0.1681  0.6456
 9573TIP3    H128683   1.298   2.594   0.089 -0.8780  0.8668  0.3683
 9573TIP3    H228684   1.207   2.487   0.144 -0.2927  0.2596  0.1723
 9574TIP3   OH228685   0.523   2.908   4.338  0.1419 -0.5821 -0.0091
 9574TIP3    H128686   0.529   2.995   4.378 -1.8605  1.0105 -2.8153
 9574TIP3    H228687   0.613   2.888   4.311  0.5343  0.9377  0.0620
 9575TIP3   OH228688   6.009   6.464   3.564 -0.5143  0.1460 -0.2455
 9575TIP3    H128689   5.946   6.529   3.534 -0.8546 -0.0228  0.1009
 9575TIP3    H228690   5.974   6.433   3.647 -0.3350 -0.4561 -0.3903
 9576TIP3   OH228691   6.722   5.508   1.533 -0.1845  0.1277  0.2358
 9576TIP3    H128692   6.782   5.435   1.551 -1.3403 -0.5816  1.3880
 9576TIP3    H228693   6.747   5.538   1.446  0.9739 -1.0061  0.1393
 9577TIP3   OH228694   6.374   5.029   2.801 -0.2603  0.4204  0.1604
 9577TIP3    H128695   6.430   5.106   2.795 -0.1650  0.3730  0.4314
 9577TIP3    H228696   6.371   5.009   2.895 -0.9929  0.6190  0.1836
 9578TIP3   OH228697   1.853   6.717   4.658  0.0144  0.4056 -0.2458
 9578TIP3    H128698   1.811   6.646   4.610  0.3348  0.3813 -0.4941
 9578TIP3    H228699   1.946   6.711   4.634  0.2293  0.2083  0.6057
 9579TIP3   OH228700   7.121   1.798   3.282  0.2487  0.1011 -0.2764
 9579TIP3    H128701   7.215   1.780   3.274  0.3791  0.7581 -0.2982
 9579TIP3    H228702   7.100   1.779   3.373  0.2115 -0.8738 -0.4723
 9580TIP3   OH228703   0.068   4.993   4.801  0.1445  0.2017  0.5250
 9580TIP3    H128704   0.037   4.985   4.891 -0.3634 -0.3225  0.3154
 9580TIP3    H228705   0.012   4.933   4.752  0.6821  0.1832 -0.0740
 9581TIP3   OH228706   0.544   3.402   2.308 -0.5303 -0.5861 -0.1515
 9581TIP3    H128707   0.520   3.410   2.400 -1.1135 -0.8587 -0.2744
 9581TIP3    H228708   0.529   3.309   2.288 -1.5801 -0.2869 -0.8345
 9582TIP3   OH228709   4.650   4.707   3.188 -0.3293  0.1788  0.4119
 9582TIP3    H128710   4.584   4.734   3.124  0.8454  2.2256 -0.0066
 9582TIP3    H228711   4.706   4.646   3.141 -0.0420  0.9335 -0.2434
 9583TIP3   OH228712   5.193   2.443   5.752  0.0071 -0.4301 -0.0059
 9583TIP3    H128713   5.208   2.369   5.694  0.6393 -0.6195  0.3891
 9583TIP3    H228714   5.109   2.479   5.723 -0.0053 -0.9160 -0.6045
 9584TIP3   OH228715   3.361   5.804   1.861 -0.0016 -0.0792  0.0515
 9584TIP3    H128716   3.456   5.801   1.864 -0.0424 -0.7446  0.8231
 9584TIP3    H228717   3.337   5.751   1.785  0.2667  0.8915 -0.7351
 9585TIP3   OH228718   6.484   2.210   4.486 -0.3221 -0.3295  0.4441
 9585TIP3    H128719   6.558   2.239   4.540  1.1480 -0.1361 -1.5890
 9585TIP3    H228720   6.510   2.124   4.454  0.5575  1.0159 -2.8373
 9586TIP3   OH228721   4.623   1.791   2.104 -0.2439  0.2526 -0.2214
 9586TIP3    H128722   4.683   1.723   2.134 -0.3004 -0.4610 -1.6352
 9586TIP3    H228723   4.680   1.858   2.065 -0.1887  1.0474  1.1577
 9587TIP3   OH228724   2.133   2.488   1.148  0.0169  0.6596  0.1227
 9587TIP3    H128725   2.210   2.479   1.092 -0.4113  2.4274 -0.8306
 9587TIP3    H228726   2.079   2.412   1.127 -0.6751  1.8330 -2.8414
 9588TIP3   OH228727   3.669   1.618   4.375 -0.1728 -0.0456  0.1186
 9588TIP3    H128728   3.731   1.568   4.427 -0.5961  0.5331  1.2100
 9588TIP3    H228729   3.592   1.562   4.369  0.3992 -0.7286 -1.1644
 9589TIP3   OH228730   0.084   0.841   3.077 -0.4671  0.1499  0.1378
 9589TIP3    H128731   0.028   0.778   3.033  0.8642 -0.2520 -1.0479
 9589TIP3    H228732   0.039   0.861   3.159 -1.2327 -1.8524  0.2439
 9590TIP3   OH228733   5.791   0.708   5.832 -0.6181 -0.0011  0.2880
 9590TIP3    H128734   5.761   0.694   5.921 -0.4629  0.0930  0.3548
 9590TIP3    H228735   5.785   0.622   5.790 -0.0002 -0.1951  0.5941
 9591TIP3   OH228736   6.061   5.296   3.422 -0.2692 -0.0575  0.3164
 9591TIP3    H128737   6.015   5.240   3.486  1.2830  0.1098  1.6520
 9591TIP3    H228738   6.149   5.305   3.457  0.2152  1.2933 -1.1168
 9592TIP3   OH228739   2.704   5.919   1.996  0.0035  0.2263 -0.0487
 9592TIP3    H128740   2.623   5.905   2.046  0.6823  0.1970  1.0882
 9592TIP3    H228741   2.679   5.980   1.927 -0.9942  0.2183  0.2787
 9593TIP3   OH228742   5.046   2.172   4.771 -0.1456  0.7448  0.5898
 9593TIP3    H128743   5.106   2.191   4.699 -1.3196 -0.5994 -0.8100
 9593TIP3    H228744   5.092   2.107   4.825 -0.5681 -0.8312 -0.8753
 9594TIP3   OH228745   1.908   2.925   2.765 -0.2027 -0.5860  0.4574
 9594TIP3    H128746   1.859   2.891   2.690 -0.6202 -1.0127  0.9173
 9594TIP3    H228747   1.893   3.020   2.762 -0.9629 -0.6937  0.5162
 9595TIP3   OH228748   6.643   4.742   2.491 -0.2778 -0.9453 -0.4299
 9595TIP3    H128749   6.630   4.686   2.414 -0.8605 -0.5891 -0.6014
 9595TIP3    H228750   6.700   4.691   2.548 -0.9896 -1.8256 -0.4731
 9596TIP3   OH228751   2.893   6.306   1.006  0.2132 -0.0103 -0.0474
 9596TIP3    H128752   2.884   6.290   1.100 -0.7256 -1.4971 -0.3500
 9596TIP3    H228753   2.803   6.311   0.973  0.5257  0.4700 -0.8773
 9597TIP3   OH228754   0.434   3.035   3.784 -0.3078  0.1594  0.1418
 9597TIP3    H128755   0.427   3.118   3.832 -1.0547 -0.2626  0.7873
 9597TIP3    H228756   0.501   2.985   3.831  0.2626  0.4492 -0.3460
 9598TIP3   OH228757   3.555   0.691   4.995  0.1602 -0.1968 -0.1758
 9598TIP3    H128758   3.486   0.670   4.932  0.8788 -0.7337 -0.7909
 9598TIP3    H228759   3.601   0.766   4.957  0.4726 -0.3974 -0.1917
 9599TIP3   OH228760   1.769   4.706   2.163  0.0836 -0.7685 -0.3829
 9599TIP3    H128761   1.731   4.677   2.081  0.4639 -1.7119 -0.2311
 9599TIP3    H228762   1.858   4.672   2.162  0.3951 -0.0065  0.0160
 9600TIP3   OH228763   5.504   0.504   0.927 -0.2905 -0.5410 -0.0908
 9600TIP3    H128764   5.529   0.501   0.834 -0.3257 -0.5739 -0.0995
 9600TIP3    H228765   5.493   0.597   0.946 -0.7654 -0.5603 -0.2509
 9601TIP3   OH228766   5.039   3.294   4.732 -0.3406  0.6047  0.3419
 9601TIP3    H128767   4.981   3.278   4.806 -0.8966 -1.0199 -0.3858
 9601TIP3    H228768   5.065   3.385   4.740 -3.0670  1.4504  0.6604
 9602TIP3   OH228769   0.310   0.380   4.198  0.3922  0.5738  0.4608
 9602TIP3    H128770   0.325   0.288   4.217 -1.8109  0.1985  0.5178
 9602TIP3    H228771   0.292   0.420   4.283 -1.1259  0.5460  0.1718
 9603TIP3   OH228772   3.740   0.784   4.507 -0.2188  0.2940 -0.5751
 9603TIP3    H128773   3.803   0.733   4.558 -0.4595  1.2715  0.7663
 9603TIP3    H228774   3.668   0.724   4.489 -0.0273 -0.1362  0.0748
 9604TIP3   OH228775   4.588   5.783   1.206  0.3405 -0.2357  0.1704
 9604TIP3    H128776   4.514   5.785   1.144  0.2910 -0.0774  0.2339
 9604TIP3    H228777   4.651   5.846   1.170 -0.0100  0.4206  0.6779
 9605TIP3   OH228778   1.016   6.248   5.365 -0.1114  0.1932 -0.6721
 9605TIP3    H128779   1.035   6.156   5.349  0.1357  0.4608 -2.0358
 9605TIP3    H228780   1.086   6.277   5.424  0.0988 -0.3681 -0.6375
 9606TIP3   OH228781   2.435   4.034   4.303 -0.0669 -0.1755 -0.1456
 9606TIP3    H128782   2.361   4.094   4.304  2.4588  3.3784  2.2085
 9606TIP3    H228783   2.412   3.966   4.366 -2.2546 -0.6639 -1.3900
 9607TIP3   OH228784   3.948   3.657   1.201 -0.4778  0.6396  0.0628
 9607TIP3    H128785   3.893   3.589   1.240  1.6678  0.2039  2.7046
 9607TIP3    H228786   3.990   3.614   1.126  1.3648 -1.3617  2.0774
 9608TIP3   OH228787   4.170   4.180   3.554  0.2031 -0.2320 -0.4714
 9608TIP3    H128788   4.083   4.140   3.546 -0.5901  1.3439 -0.1467
 9608TIP3    H228789   4.152   4.271   3.576  1.9708  0.0050  0.1149
 9609TIP3   OH228790   4.736   4.152   1.356  0.0564  0.0147 -0.6619
 9609TIP3    H128791   4.804   4.184   1.414 -0.8704 -0.5043  0.7724
 9609TIP3    H228792   4.766   4.175   1.268  1.2909  1.2027  0.0410
 9610TIP3   OH228793   1.593   1.605   1.050 -0.4529 -0.0597 -0.0909
 9610TIP3    H128794   1.579   1.521   1.007 -0.9191 -0.7546  1.3425
 9610TIP3    H228795   1.561   1.670   0.988  0.3039 -0.8994 -1.3998
 9611TIP3   OH228796   6.843   2.233   2.812  0.5965  0.2596  0.4772
 9611TIP3    H128797   6.763   2.181   2.814  0.2474  0.8140  1.7125
 9611TIP3    H228798   6.844   2.271   2.724  0.8384 -1.7430 -0.4351
 9612TIP3   OH228799   1.033   3.983   2.162  0.2554  0.3414 -0.3477
 9612TIP3    H128800   1.085   3.916   2.118  0.4534  0.6472 -0.5831
 9612TIP3    H228801   1.034   3.958   2.255  3.1579  1.8289  0.1366
 9613TIP3   OH228802   4.804   2.534   1.450  0.2767 -0.1273  0.3997
 9613TIP3    H128803   4.895   2.564   1.463  0.0697  1.0230 -0.6535
 9613TIP3    H228804   4.811   2.440   1.439  1.2261 -0.1960  1.3637
 9614TIP3   OH228805   5.902   4.663   0.763  0.4157 -0.1237 -0.1965
 9614TIP3    H128806   5.866   4.618   0.687 -0.7467 -0.5418  0.5654
 9614TIP3    H228807   5.919   4.752   0.733 -0.2775 -0.2120 -0.8713
 9615TIP3   OH228808   4.613   0.131   5.104  0.0331  0.1514  0.8587
 9615TIP3    H128809   4.540   0.189   5.080 -0.2909 -0.0426  1.3621
 9615TIP3    H228810   4.662   0.181   5.168  0.1458  0.1389  0.7823
 9616TIP3   OH228811   2.385   3.762   0.028 -0.2172 -0.3938  0.4886
 9616TIP3    H128812   2.428   3.713  -0.043 -1.3397 -0.1437 -0.4068
 9616TIP3    H228813   2.402   3.711   0.107 -0.9700 -2.0332 -0.3470
 9617TIP3   OH228814   2.372   3.088   3.479  0.0196 -0.4389 -0.2875
 9617TIP3    H128815   2.390   2.995   3.466 -1.3303 -0.6406 -0.8898
 9617TIP3    H228816   2.337   3.094   3.568 -0.3550 -0.6024 -0.4180
 9618TIP3   OH228817   1.867   4.823   4.682  0.2592 -0.0276  0.0030
 9618TIP3    H128818   1.890   4.730   4.686  4.2627  0.7526 -0.9785
 9618TIP3    H228819   1.835   4.843   4.770  2.0931 -1.7633  1.1444
 9619TIP3   OH228820   1.177   3.298   5.469 -0.4250  0.2263  0.9276
 9619TIP3    H128821   1.144   3.387   5.465 -1.5488 -0.1802  0.5488
 9619TIP3    H228822   1.121   3.249   5.408  0.9239 -0.5104  0.2140
 9620TIP3   OH228823   2.278   3.903   0.459  0.4667  0.0285  0.3834
 9620TIP3    H128824   2.310   3.940   0.377 -0.5067  0.2413  0.0899
 9620TIP3    H228825   2.268   3.978   0.518  0.6497 -0.0541  0.5202
 9621TIP3   OH228826   0.315   1.918   3.105 -0.4229 -0.4089 -0.9349
 9621TIP3    H128827   0.352   1.912   3.017 -0.2911  1.3907 -1.0406
 9621TIP3    H228828   0.348   2.001   3.139 -1.1045 -0.7087  0.5169
 9622TIP3   OH228829   3.305   6.741   0.731  0.1345 -0.1154 -0.7768
 9622TIP3    H128830   3.360   6.805   0.775  0.6918 -1.2269  0.1870
 9622TIP3    H228831   3.326   6.751   0.638 -0.0585  1.3285 -0.6935
 9623TIP3   OH228832   6.022   0.307   2.971  0.9507 -0.0692 -0.5212
 9623TIP3    H128833   6.017   0.391   2.923  0.0127 -0.6586 -1.5147
 9623TIP3    H228834   6.052   0.244   2.906 -0.4096 -0.9052 -0.3944
 9624TIP3   OH228835   2.143   5.641   5.775  0.2863  0.0361 -0.5284
 9624TIP3    H128836   2.193   5.686   5.706  1.7217 -0.5787  0.0894
 9624TIP3    H228837   2.119   5.557   5.736  0.6111 -0.0797 -0.4827
 9625TIP3   OH228838   1.968   1.965   1.497 -0.1681  0.2667 -0.2681
 9625TIP3    H128839   1.933   2.053   1.513  0.0008  0.4093 -0.6757
 9625TIP3    H228840   1.891   1.910   1.489 -0.2713  0.3328  0.2349
 9626TIP3   OH228841   3.477   1.705   3.339  0.1741  0.4461 -0.8181
 9626TIP3    H128842   3.513   1.756   3.266  2.0411 -0.5845 -0.6609
 9626TIP3    H228843   3.538   1.719   3.411 -0.5740 -0.1378 -0.0497
 9627TIP3   OH228844   2.372   3.843   5.694 -0.1913 -0.6614  0.1240
 9627TIP3    H128845   2.351   3.785   5.621  2.5041 -1.6067  0.0062
 9627TIP3    H228846   2.303   3.826   5.758 -2.7258  0.2981 -2.1504
 9628TIP3   OH228847   5.151   4.967   3.568  0.3252  0.7602 -0.2093
 9628TIP3    H128848   5.079   5.030   3.561 -1.4655 -0.9020  1.8834
 9628TIP3    H228849   5.199   4.994   3.646  1.3158  1.1795 -0.9451
 9629TIP3   OH228850   3.910   0.368   2.649 -0.3083 -0.1165 -0.6374
 9629TIP3    H128851   3.865   0.443   2.609 -0.4145  0.7066  0.9088
 9629TIP3    H228852   3.839   0.317   2.690 -0.0958 -0.2192 -0.3933
 9630TIP3   OH228853   0.528   3.544   5.404 -0.0968  0.0178  0.2552
 9630TIP3    H128854   0.463   3.507   5.464 -0.9029  0.5358 -0.2842
 9630TIP3    H228855   0.565   3.619   5.451  1.0486 -1.0104  1.0738
 9631TIP3   OH228856   5.744   6.418   4.410 -0.3713  0.0848  0.3256
 9631TIP3    H128857   5.775   6.467   4.334 -0.4272  2.4521  1.7251
 9631TIP3    H228858   5.767   6.473   4.486 -2.5741 -0.9200  1.8403
 9632TIP3   OH228859   0.991   6.781   3.632  0.8270  0.2651  0.1125
 9632TIP3    H128860   0.995   6.867   3.590 -0.1667 -0.7120 -2.1824
 9632TIP3    H228861   1.081   6.751   3.633  1.2306  1.4081  1.2051
 9633TIP3   OH228862   2.624   6.433   5.025  0.1451  0.7700 -0.1333
 9633TIP3    H128863   2.646   6.503   5.087  1.0980  0.6533 -0.3252
 9633TIP3    H228864   2.655   6.353   5.067 -4.1287 -0.1613  1.7920
 9634TIP3   OH228865   0.692   0.256   3.685  0.1793 -0.5915  0.3705
 9634TIP3    H128866   0.689   0.327   3.749 -0.6850  1.0042 -1.3159
 9634TIP3    H228867   0.765   0.278   3.627 -1.4671  0.2426 -1.5084
 9635TIP3   OH228868   6.934   6.661   4.197  0.0213 -0.2642  0.0510
 9635TIP3    H128869   7.006   6.712   4.235 -0.8031  1.0334 -0.0843
 9635TIP3    H228870   6.958   6.651   4.105  1.1394 -1.8659  0.4691
 9636TIP3   OH228871   4.600   5.174   2.824 -0.2316 -0.0204  0.3270
 9636TIP3    H128872   4.654   5.229   2.767 -2.1511  2.2526  0.5143
 9636TIP3    H228873   4.588   5.093   2.775  2.8934 -0.4651  0.1154
 9637TIP3   OH228874   0.789   2.396   4.875 -0.3712 -0.0180 -0.0164
 9637TIP3    H128875   0.727   2.322   4.877 -0.4785 -0.0184 -1.6440
 9637TIP3    H228876   0.874   2.355   4.862  0.2464 -0.1056  3.4042
 9638TIP3   OH228877   6.907   0.234   1.704  0.0513  0.6638 -0.1411
 9638TIP3    H128878   6.848   0.187   1.763 -1.9697  2.7007 -0.4176
 9638TIP3    H228879   6.907   0.183   1.623 -2.2705  1.1309 -0.5135
 9639TIP3   OH228880   1.371   4.401   0.565 -0.0299  0.0465  0.3482
 9639TIP3    H128881   1.320   4.478   0.539  1.9786  1.1730 -0.4796
 9639TIP3    H228882   1.342   4.331   0.507 -2.9684 -0.3217  2.0872
 9640TIP3   OH228883   3.123   6.182   1.905 -0.2489 -0.3990 -0.0136
 9640TIP3    H128884   3.041   6.157   1.862  0.6205 -0.3037 -1.8118
 9640TIP3    H228885   3.155   6.256   1.854  0.3303  0.3929  1.4609
 9641TIP3   OH228886   7.202   0.390   0.864  0.1107  0.0531  0.3562
 9641TIP3    H128887   7.114   0.420   0.840  0.2896  0.0209 -0.3873
 9641TIP3    H228888   7.252   0.470   0.878  0.9691  0.2751 -3.0223
 9642TIP3   OH228889   5.143   1.748   2.695  0.3497 -0.2522 -0.5088
 9642TIP3    H128890   5.229   1.705   2.695  0.6099  0.2120 -2.0029
 9642TIP3    H228891   5.087   1.689   2.645 -0.0160 -0.2029 -0.1589
 9643TIP3   OH228892   4.609   3.620   1.669 -0.0633 -0.3005  0.2588
 9643TIP3    H128893   4.642   3.710   1.674 -1.7087  0.3478  0.1316
 9643TIP3    H228894   4.601   3.593   1.761  1.0588 -0.5860  0.2902
 9644TIP3   OH228895   1.611   5.684   5.724  0.2222  0.2839 -0.2613
 9644TIP3    H128896   1.612   5.651   5.814  0.5852  2.1754  0.4841
 9644TIP3    H228897   1.650   5.771   5.731 -0.9747  1.0050 -2.0420
 9645TIP3   OH228898   6.654   6.065   0.268 -0.1380  0.7328  0.0617
 9645TIP3    H128899   6.592   6.122   0.221 -0.7062  1.0988  1.2173
 9645TIP3    H228900   6.619   6.060   0.357  1.7225  1.2974  0.8757
 9646TIP3   OH228901   0.712   3.327   4.834 -0.7761 -0.5827 -0.4774
 9646TIP3    H128902   0.670   3.257   4.882 -0.7519  0.2083  0.7395
 9646TIP3    H228903   0.714   3.401   4.895 -1.1513  0.6052 -1.8266
 9647TIP3   OH228904   4.475   5.269   5.386  0.2400 -0.1243 -0.3764
 9647TIP3    H128905   4.470   5.318   5.468  1.1296 -0.6372 -0.0029
 9647TIP3    H228906   4.512   5.331   5.323 -0.3226  0.2297 -0.3657
 9648TIP3   OH228907   4.540   0.429   3.259  0.1407  0.0728  0.2379
 9648TIP3    H128908   4.452   0.454   3.287  0.4495 -0.5574  1.9379
 9648TIP3    H228909   4.585   0.404   3.341  2.2214  1.3332 -0.4327
 9649TIP3   OH228910   4.553   2.256   1.526 -0.6053 -0.1763 -0.4173
 9649TIP3    H128911   4.582   2.341   1.491  0.5014 -0.6793 -0.7356
 9649TIP3    H228912   4.592   2.251   1.613  0.2645 -0.8553 -0.8452
 9650TIP3   OH228913   0.119   4.486   0.955  0.0315  0.0912  0.0488
 9650TIP3    H128914   0.103   4.430   1.031  0.9809 -1.4710 -0.8544
 9650TIP3    H228915   0.065   4.447   0.885 -1.7136  2.1596  0.1474
 9651TIP3   OH228916   6.599   1.190   3.831 -0.2182  0.0112 -0.0589
 9651TIP3    H128917   6.651   1.180   3.751 -0.3599  0.2443 -0.1831
 9651TIP3    H228918   6.542   1.264   3.812 -1.5575 -1.0804 -0.4402
 9652TIP3   OH228919   5.029   0.509   0.968 -0.4085  0.4781 -0.0875
 9652TIP3    H128920   5.053   0.437   0.910 -0.5509  0.9594 -0.7617
 9652TIP3    H228921   4.986   0.572   0.910 -0.2865  1.0996  0.4931
 9653TIP3   OH228922   3.494   4.725   0.599 -0.0762 -0.1560 -0.1136
 9653TIP3    H128923   3.584   4.693   0.605 -0.5036 -1.1875  0.9899
 9653TIP3    H228924   3.445   4.675   0.664 -1.3501  0.7750 -0.3033
 9654TIP3   OH228925   5.524   5.106   1.923  0.0331 -0.2145 -0.5364
 9654TIP3    H128926   5.452   5.043   1.923 -0.4226  0.1439  2.7239
 9654TIP3    H228927   5.603   5.053   1.935 -0.0035 -0.3724 -0.9729
 9655TIP3   OH228928   1.504   6.703   4.890 -0.2099  0.1591 -0.3698
 9655TIP3    H128929   1.457   6.714   4.972 -0.1063 -0.1043 -0.2760
 9655TIP3    H228930   1.528   6.792   4.865  0.7510  0.1578  0.4699
 9656TIP3   OH228931   2.104   5.905   2.666  0.2108 -0.2476 -0.5190
 9656TIP3    H128932   2.129   5.990   2.630  0.1902  0.2524  0.5878
 9656TIP3    H228933   2.025   5.924   2.717 -1.1026 -1.3611 -2.0584
 9657TIP3   OH228934   2.024   0.050   3.669  0.4504  0.4406  0.1747
 9657TIP3    H128935   2.057   0.079   3.754  0.1820  0.2379  0.3495
 9657TIP3    H228936   1.939   0.010   3.689 -0.0385  1.2045 -0.2925
 9658TIP3   OH228937   3.938   6.215   3.055 -0.0359 -0.7087 -0.7123
 9658TIP3    H128938   3.869   6.223   3.121 -0.9901 -1.1805 -1.6240
 9658TIP3    H228939   3.949   6.304   3.021  1.8436 -0.0468  1.3774
 9659TIP3   OH228940   1.956   1.659   3.555 -0.1046  0.4933 -0.4973
 9659TIP3    H128941   2.044   1.659   3.517  0.2226  0.3360  0.2440
 9659TIP3    H228942   1.958   1.728   3.621 -1.0703  1.6488 -1.6351
 9660TIP3   OH228943   1.894   6.036   2.777 -0.1104  0.2280 -0.3600
 9660TIP3    H128944   1.805   6.050   2.809 -0.6321 -1.7358 -0.8528
 9660TIP3    H228945   1.887   6.049   2.682  0.2722  0.6368 -0.3370
 9661TIP3   OH228946   6.417   5.685   5.562 -0.3943 -0.8360 -0.4490
 9661TIP3    H128947   6.325   5.657   5.566 -0.4107 -0.8349 -0.7512
 9661TIP3    H228948   6.425   5.726   5.476 -0.8722  1.8522  0.6851
 9662TIP3   OH228949   1.481   1.867   1.631 -0.1410  0.3561  0.6942
 9662TIP3    H128950   1.414   1.932   1.608 -0.9569 -0.1743  1.4961
 9662TIP3    H228951   1.542   1.914   1.688  0.6305  1.0561 -0.6617
 9663TIP3   OH228952   2.499   4.001   2.677 -0.2213  0.1778  0.0174
 9663TIP3    H128953   2.577   3.985   2.624  0.2793  0.1370  0.7540
 9663TIP3    H228954   2.501   4.095   2.696 -1.5469  0.6419 -1.7831
 9664TIP3   OH228955   2.243   0.433   3.612  0.0877  0.0566  0.2469
 9664TIP3    H128956   2.246   0.389   3.697 -0.8847 -0.3328  0.0868
 9664TIP3    H228957   2.152   0.459   3.601  0.1617 -0.0812 -0.7627
 9665TIP3   OH228958   5.683   2.243   5.034 -0.0219 -0.0479 -0.1995
 9665TIP3    H128959   5.729   2.195   4.965  0.2835  0.5589 -0.4255
 9665TIP3    H228960   5.738   2.319   5.052 -0.4550  0.1783  0.2159
 9666TIP3   OH228961   6.954   2.752   1.285  0.0189  0.4850 -0.1767
 9666TIP3    H128962   7.027   2.726   1.229  0.4369  2.2183 -0.4896
 9666TIP3    H228963   6.888   2.683   1.272  1.1783 -0.5588 -0.6819
 9667TIP3   OH228964   1.282   2.392   4.855  0.6692  0.9698  0.0319
 9667TIP3    H128965   1.327   2.375   4.773 -0.1396  0.7792 -0.3787
 9667TIP3    H228966   1.300   2.484   4.874 -1.9156  2.0780 -2.1672
 9668TIP3   OH228967   3.563   0.864   0.906 -0.1150  0.4282  0.4988
 9668TIP3    H128968   3.594   0.891   0.819 -1.4358 -0.6521 -0.3410
 9668TIP3    H228969   3.628   0.900   0.966  0.5662  1.6403 -0.8884
 9669TIP3   OH228970   4.844   0.825   2.848 -0.4079 -0.3134 -0.1461
 9669TIP3    H128971   4.779   0.776   2.798 -0.3652  1.2192 -1.8200
 9669TIP3    H228972   4.815   0.819   2.939 -0.8519 -2.6765 -0.3921
 9670TIP3   OH228973   5.377   6.629   4.383 -0.4596 -0.3969  0.5147
 9670TIP3    H128974   5.296   6.679   4.391  0.2076  0.7714  0.2203
 9670TIP3    H228975   5.434   6.684   4.329  0.9981 -0.5805  1.7819
 9671TIP3   OH228976   4.788   2.029   2.745 -0.2550  0.1061 -0.3387
 9671TIP3    H128977   4.739   1.949   2.764  0.8473 -0.5234 -0.0276
 9671TIP3    H228978   4.814   2.019   2.653 -0.8533  0.5237 -0.5569
 9672TIP3   OH228979   4.468   0.336   1.462 -0.1972 -0.2042 -0.2315
 9672TIP3    H128980   4.529   0.409   1.466 -0.0373 -0.3584  0.3192
 9672TIP3    H228981   4.520   0.262   1.432 -0.0203 -0.4223  0.5962
 9673TIP3   OH228982   2.956   2.345   4.041  0.5680 -0.6304  0.0358
 9673TIP3    H128983   3.040   2.344   3.996  0.4607  1.7112 -0.3067
 9673TIP3    H228984   2.978   2.331   4.133  1.6161  1.8282  0.2418
 9674TIP3   OH228985   3.829   3.088   3.408  0.3215 -0.0406 -0.6421
 9674TIP3    H128986   3.749   3.097   3.356 -0.2864 -0.0703  0.2736
 9674TIP3    H228987   3.822   3.001   3.448 -0.0140  0.6261  0.7880
 9675TIP3   OH228988   4.545   6.653   1.146 -0.5536 -0.2520 -0.0326
 9675TIP3    H128989   4.531   6.629   1.055 -0.5755  1.3891 -0.5047
 9675TIP3    H228990   4.491   6.591   1.196  1.2990 -2.7243 -0.9166
 9676TIP3   OH228991   3.104   5.911   2.695 -0.2283  0.4709 -0.5617
 9676TIP3    H128992   3.118   5.923   2.601  1.3901  1.3288 -0.2566
 9676TIP3    H228993   3.112   6.000   2.731  1.8945 -0.1560  0.6662
 9677TIP3   OH228994   1.766   4.347   3.798 -0.9255 -0.1774  0.1054
 9677TIP3    H128995   1.729   4.316   3.880  2.7312 -2.6581  1.0608
 9677TIP3    H228996   1.747   4.277   3.735  0.9663 -0.9723  0.3459
 9678TIP3   OH228997   6.555   5.468   4.276  0.2279 -0.2982 -0.7774
 9678TIP3    H128998   6.518   5.430   4.196  0.9247 -0.8107 -0.8663
 9678TIP3    H228999   6.645   5.433   4.280 -0.2582 -1.4984  1.0191
 9679TIP3   OH229000   1.814   2.778   5.112  0.1079  0.1612 -0.1122
 9679TIP3    H129001   1.792   2.833   5.037  1.6647 -1.3004 -1.7656
 9679TIP3    H229002   1.798   2.833   5.189 -0.1845  2.2294 -1.5791
 9680TIP3   OH229003   4.165   6.830   0.454  0.0255  0.3681  0.1307
 9680TIP3    H129004   4.137   6.740   0.470 -0.3647  0.2346 -1.1678
 9680TIP3    H229005   4.207   6.827   0.367  1.1497  1.1996  0.6220
 9681TIP3   OH229006   1.900   1.356   2.494  0.3775  0.1417  0.1175
 9681TIP3    H129007   1.970   1.306   2.452 -0.8642 -0.8469 -0.8680
 9681TIP3    H229008   1.820   1.328   2.449 -0.6628  1.2227  1.2078
 9682TIP3   OH229009   4.313   4.484   0.605 -0.0893 -0.5124 -0.1305
 9682TIP3    H129010   4.251   4.472   0.677  0.7370  2.0233  1.1148
 9682TIP3    H229011   4.263   4.460   0.526 -1.8315 -0.9233  1.0321
 9683TIP3   OH229012   5.213   5.881   0.484  0.3085  0.2017 -0.7012
 9683TIP3    H129013   5.248   5.795   0.508  1.7943  1.1405  0.7269
 9683TIP3    H229014   5.146   5.898   0.550  1.8294  1.1956  0.6770
 9684TIP3   OH229015   2.892   6.545   3.440 -0.0579 -0.1012 -0.0193
 9684TIP3    H129016   2.866   6.591   3.361  0.3784  0.0542 -0.0733
 9684TIP3    H229017   2.987   6.535   3.433  0.0110  0.0803  0.5702
 9685TIP3   OH229018   4.894   4.862   4.831 -0.0411 -0.0079 -0.7567
 9685TIP3    H129019   4.964   4.825   4.885  0.4605  1.0375 -0.6586
 9685TIP3    H229020   4.893   4.955   4.854 -0.9012  0.1497 -1.3858
 9686TIP3   OH229021   1.399   2.435   2.722 -0.5286  0.2306 -0.7863
 9686TIP3    H129022   1.450   2.404   2.797  0.1923  3.1779  0.0754
 9686TIP3    H229023   1.308   2.433   2.753 -0.3970  0.0046 -0.3989
 9687TIP3   OH229024   3.361   3.201   4.060  0.3407 -0.4913  0.5451
 9687TIP3    H129025   3.325   3.288   4.042 -0.0008 -0.3082  2.0522
 9687TIP3    H229026   3.298   3.141   4.022  0.3031 -0.1089 -0.0239
 9688TIP3   OH229027   3.918   3.615   1.684 -0.1017 -0.0459  0.0159
 9688TIP3    H129028   3.900   3.682   1.618  0.7555 -1.2556 -1.5175
 9688TIP3    H229029   3.875   3.648   1.764  0.3907  2.3647 -0.6161
 9689TIP3   OH229030   1.729   4.774   5.163  0.4757  0.0754  0.3797
 9689TIP3    H129031   1.687   4.857   5.184 -0.7752  0.2167 -2.2290
 9689TIP3    H229032   1.701   4.715   5.233  0.2742  1.4928  1.5470
 9690TIP3   OH229033   4.044   6.648   4.113 -0.1283  0.2412  0.2692
 9690TIP3    H129034   4.105   6.575   4.121  0.7631  0.9906  0.6234
 9690TIP3    H229035   4.023   6.652   4.019  1.3015  0.6720 -0.0606
 9691TIP3   OH229036   0.834   3.088   1.790 -0.2207  0.5480 -0.4274
 9691TIP3    H129037   0.787   3.106   1.872  0.2149  0.5472 -0.1750
 9691TIP3    H229038   0.907   3.032   1.816 -0.0439  0.6002 -0.8058
 9692TIP3   OH229039   6.772   3.299   5.194 -0.0274 -0.4756  0.4567
 9692TIP3    H129040   6.695   3.351   5.174  0.1770 -0.3552 -0.0416
 9692TIP3    H229041   6.777   3.298   5.289  0.1561  0.7011  0.4678
 9693TIP3   OH229042   0.312   0.226   5.800  0.4923 -0.1248 -0.1853
 9693TIP3    H129043   0.311   0.321   5.808 -0.1273 -0.2941  3.4325
 9693TIP3    H229044   0.221   0.200   5.813  0.7347 -1.2543 -0.6389
 9694TIP3   OH229045   1.612   0.398   5.392  0.0095 -0.2905 -0.0215
 9694TIP3    H129046   1.524   0.427   5.369  0.0435 -0.6895 -0.6753
 9694TIP3    H229047   1.599   0.310   5.427  0.2159 -0.6294 -0.7755
 9695TIP3   OH229048   6.133   5.558   3.630 -0.1727  0.4872  0.2707
 9695TIP3    H129049   6.142   5.463   3.635  1.3731  0.6351  0.8877
 9695TIP3    H229050   6.223   5.591   3.628 -0.6643  1.9741  0.8235
 9696TIP3   OH229051   6.611   5.241   1.399 -0.0191  0.0836 -0.7346
 9696TIP3    H129052   6.601   5.227   1.305  1.4638  0.5569 -0.9886
 9696TIP3    H229053   6.582   5.331   1.413 -1.2113 -0.3035 -0.5390
 9697TIP3   OH229054   1.195   6.104   0.343 -0.4142 -0.4614 -0.3096
 9697TIP3    H129055   1.284   6.098   0.308 -0.4182  0.9373 -0.6082
 9697TIP3    H229056   1.197   6.180   0.401 -1.4391 -0.3745 -0.3735
 9698TIP3   OH229057   6.949   6.155   1.590  0.4072  0.0116  0.0663
 9698TIP3    H129058   6.973   6.248   1.594 -1.6836  0.6711 -0.9047
 9698TIP3    H229059   6.941   6.129   1.682  0.3744  0.9903  0.3574
 9699TIP3   OH229060   0.558   2.330   1.779 -0.4788 -0.1079  0.3121
 9699TIP3    H129061   0.546   2.350   1.872  3.0015 -0.1837  0.8913
 9699TIP3    H229062   0.562   2.416   1.736 -0.1507 -0.0180  0.5253
 9700TIP3   OH229063   5.924   0.159   4.197  0.2294 -0.4492 -0.0542
 9700TIP3    H129064   5.873   0.172   4.277  1.3548  0.0733  0.5965
 9700TIP3    H229065   5.892   0.226   4.137  1.8346  1.5534  1.2144
 9701TIP3   OH229066   5.415   2.911   5.618  0.4314 -0.3285 -0.1672
 9701TIP3    H129067   5.357   2.980   5.583  0.1195  0.0328  1.0326
 9701TIP3    H229068   5.369   2.829   5.598  0.8233 -0.2185 -1.6472
 9702TIP3   OH229069   4.243   1.483   2.579 -0.8569 -0.2992 -0.2923
 9702TIP3    H129070   4.209   1.492   2.668  0.3546 -0.2583  0.1871
 9702TIP3    H229071   4.174   1.437   2.531 -0.5104 -2.7294  1.3420
 9703TIP3   OH229072   4.611   6.054   3.862 -0.0192 -0.3707 -0.0705
 9703TIP3    H129073   4.562   6.086   3.786 -0.1037  1.5128  0.7061
 9703TIP3    H229074   4.631   5.963   3.842 -0.8594 -0.1878 -1.9186
 9704TIP3   OH229075   1.212   3.782   2.072 -0.1191 -0.6372 -0.2200
 9704TIP3    H129076   1.210   3.709   2.134 -0.0911  0.5001  1.1799
 9704TIP3    H229077   1.304   3.808   2.067 -0.5035  1.6214  2.2297
 9705TIP3   OH229078   5.032   3.488   2.748  0.3007  0.3596  0.1782
 9705TIP3    H129079   5.011   3.509   2.838  0.5588 -0.6179  0.4759
 9705TIP3    H229080   5.107   3.428   2.754  1.3613  1.5286 -0.7333
 9706TIP3   OH229081   3.036   1.152   5.376 -0.3887  0.2145 -0.5865
 9706TIP3    H129082   3.012   1.093   5.305  1.0552 -0.0519 -0.8967
 9706TIP3    H229083   3.131   1.139   5.387 -0.2351  1.6624  0.0940
 9707TIP3   OH229084   0.639   2.733   1.823 -0.6406  0.4709  0.0946
 9707TIP3    H129085   0.564   2.704   1.771 -0.8561  1.5722 -0.2316
 9707TIP3    H229086   0.601   2.760   1.906 -0.6200  1.0651 -0.0843
 9708TIP3   OH229087   3.468   2.816   4.093 -0.4296  0.3460  0.3063
 9708TIP3    H129088   3.512   2.880   4.038 -1.4467 -0.8795 -2.0904
 9708TIP3    H229089   3.524   2.807   4.170  1.7128  1.2867 -1.0631
 9709TIP3   OH229090   1.611   2.644   4.763  0.4295  0.2108  0.3174
 9709TIP3    H129091   1.519   2.627   4.742  0.0955  1.0832  1.0065
 9709TIP3    H229092   1.612   2.660   4.857  1.5902 -1.6310  0.6756
 9710TIP3   OH229093   0.387   6.519   2.564  0.1588 -0.3595 -0.0995
 9710TIP3    H129094   0.357   6.580   2.496  0.0704 -0.8129 -0.4708
 9710TIP3    H229095   0.309   6.467   2.585  0.6477 -1.5223 -1.0480
 9711TIP3   OH229096   4.642   5.709   1.724  0.1415  0.2414 -0.1215
 9711TIP3    H129097   4.564   5.658   1.700 -0.9248  1.1390  1.2540
 9711TIP3    H229098   4.672   5.746   1.641 -0.2855 -0.9265 -0.8320
 9712TIP3   OH229099   1.591   2.925   3.022  0.2392  0.4906 -0.1332
 9712TIP3    H129100   1.528   2.919   2.950  0.6337 -0.8232 -0.4001
 9712TIP3    H229101   1.558   2.996   3.077 -1.3964 -0.0633 -0.3431
 9713TIP3   OH229102   0.218   0.567   4.023  0.3188  0.0267 -0.0761
 9713TIP3    H129103   0.283   0.573   3.953  0.6969  1.3829  0.3684
 9713TIP3    H229104   0.267   0.532   4.098  0.3649  0.3665  0.0525
 9714TIP3   OH229105   1.336   3.749   1.038  0.0401 -0.2649  0.0818
 9714TIP3    H129106   1.397   3.720   1.106  0.7188  0.6043 -0.1471
 9714TIP3    H229107   1.352   3.843   1.030  0.1552 -0.3904 -1.4588
 9715TIP3   OH229108   3.346   6.226   1.471  0.6689 -0.5742 -0.6811
 9715TIP3    H129109   3.303   6.142   1.488  0.5643 -0.1324  1.4893
 9715TIP3    H229110   3.424   6.204   1.421 -1.3040 -1.5306 -3.5936
 9716TIP3   OH229111   1.172   0.746   5.399  0.3581 -0.0167 -0.4298
 9716TIP3    H129112   1.250   0.744   5.343 -0.0463 -2.1504 -0.9826
 9716TIP3    H229113   1.104   0.702   5.348 -0.4396 -0.7292  1.1780
 9717TIP3   OH229114   1.475   4.803   1.410 -0.7287  0.5122 -0.5511
 9717TIP3    H129115   1.487   4.770   1.321  1.0720  1.3320 -0.6562
 9717TIP3    H229116   1.469   4.898   1.400 -0.0078  0.6533  0.2172
 9718TIP3   OH229117   1.043   1.236   5.627 -0.2577  0.2611  0.5187
 9718TIP3    H129118   1.106   1.165   5.619  0.3868  0.9659 -1.1163
 9718TIP3    H229119   1.031   1.247   5.721  2.1275  0.1507  0.8992
 9719TIP3   OH229120   2.860   6.384   2.681 -0.4750 -0.5667  0.0169
 9719TIP3    H129121   2.832   6.373   2.591 -0.4929  1.6533 -0.2929
 9719TIP3    H229122   2.895   6.473   2.685 -0.3493 -0.6554  2.1674
 9720TIP3   OH229123   3.814   3.232   1.755 -0.2918 -0.0551  0.3156
 9720TIP3    H129124   3.763   3.218   1.676  0.1554  0.8158 -0.1360
 9720TIP3    H229125   3.811   3.147   1.801 -1.6077 -0.1875  0.0078
 9721TIP3   OH229126   1.250   6.221   0.619 -0.5237 -0.2009  0.6058
 9721TIP3    H129127   1.200   6.176   0.687  1.8136  0.1459  2.6924
 9721TIP3    H229128   1.315   6.158   0.591  0.3693  0.5979  0.8235
 9722TIP3   OH229129   6.543   4.820   0.239 -0.3110 -0.1242 -0.2490
 9722TIP3    H129130   6.460   4.805   0.192 -0.9829 -1.9622  1.4031
 9722TIP3    H229131   6.600   4.749   0.209  0.6521  1.0027 -1.2042
 9723TIP3   OH229132   4.473   3.856   0.445  0.2216 -0.9598 -0.2103
 9723TIP3    H129133   4.392   3.891   0.409  0.5525  0.6931  0.5350
 9723TIP3    H229134   4.539   3.923   0.425  0.9404 -1.2459  1.0854
 9724TIP3   OH229135   1.194   6.705   0.057 -0.2924  0.5650  0.7080
 9724TIP3    H129136   1.208   6.648   0.133 -0.4757  0.1424  0.4292
 9724TIP3    H229137   1.251   6.780   0.072  1.7462 -0.7609 -0.0408
 9725TIP3   OH229138   0.200   2.240   3.020  0.0636 -0.1216 -0.1725
 9725TIP3    H129139   0.116   2.237   2.974 -0.9407  1.6181  1.4315
 9725TIP3    H229140   0.187   2.184   3.097 -0.2948  1.5924  1.0530
 9726TIP3   OH229141   5.358   0.028   2.398 -0.0789 -0.6874 -0.1603
 9726TIP3    H129142   5.410   0.106   2.418 -0.6676 -0.3253 -0.0098
 9726TIP3    H229143   5.420  -0.033   2.358  0.3243 -0.0276 -0.5586
 9727TIP3   OH229144   6.207   4.576   4.265  0.6401 -0.5207  0.2172
 9727TIP3    H129145   6.222   4.503   4.205  0.0454 -1.7315  1.4939
 9727TIP3    H229146   6.175   4.535   4.345 -4.3208  1.2938 -0.4510
 9728TIP3   OH229147   2.514   1.983   5.608 -0.5865  0.5431 -0.4275
 9728TIP3    H129148   2.514   2.011   5.517 -2.5489 -2.4425 -1.5092
 9728TIP3    H229149   2.506   1.887   5.604 -1.9712  0.3766  2.8576
 9729TIP3   OH229150   5.776   2.672   2.944  0.5412  0.9397  0.2375
 9729TIP3    H129151   5.719   2.605   2.982  1.6640 -0.2684 -0.1279
 9729TIP3    H229152   5.842   2.688   3.010 -1.0393  3.5205  1.3241
 9730TIP3   OH229153   0.953   1.604   1.270 -0.2640  0.4700  0.0075
 9730TIP3    H129154   0.893   1.678   1.267 -1.5971 -0.6042 -1.2246
 9730TIP3    H229155   0.903   1.531   1.233  1.2065 -0.9046  0.6144
 9731TIP3   OH229156   5.860   0.205   2.180 -0.3051 -0.8068  0.0381
 9731TIP3    H129157   5.859   0.299   2.198 -1.6311 -1.1812  2.2598
 9731TIP3    H229158   5.819   0.196   2.094  0.0716  0.6398 -0.3153
 9732TIP3   OH229159   0.436   6.533   4.098 -0.0029 -0.0894 -0.1938
 9732TIP3    H129160   0.403   6.445   4.116  0.3021 -0.2392 -0.3598
 9732TIP3    H229161   0.412   6.549   4.006 -1.3175  0.5652  0.2471
 9733TIP3   OH229162   1.069   4.634   3.233 -0.8189 -0.3202  0.0861
 9733TIP3    H129163   1.081   4.728   3.215 -1.2606 -0.3322 -0.2661
 9733TIP3    H229164   1.155   4.596   3.215 -0.8041 -0.0781 -0.3807
 9734TIP3   OH229165   1.248   2.175   0.303 -0.1098  0.1042 -0.3216
 9734TIP3    H129166   1.217   2.220   0.225  1.0306 -0.0336 -0.8872
 9734TIP3    H229167   1.199   2.092   0.305 -0.6107  0.3959 -0.5147
 9735TIP3   OH229168   1.435   2.771   2.069  0.0721  0.5942  1.1792
 9735TIP3    H129169   1.478   2.789   2.153  0.7247 -0.4500  1.0765
 9735TIP3    H229170   1.351   2.731   2.094  1.4910 -2.5285  1.3739
 9736TIP3   OH229171   0.528   1.917   1.334 -0.1684 -0.0227 -0.1413
 9736TIP3    H129172   0.482   1.845   1.290 -2.5759  0.8559  0.7434
 9736TIP3    H229173   0.474   1.994   1.317  2.2195  1.6108 -0.8699
 9737TIP3   OH229174   5.935   0.428   1.353 -0.5026  0.1342 -0.0388
 9737TIP3    H129175   5.932   0.425   1.448  0.0368 -1.5037 -0.0287
 9737TIP3    H229176   5.844   0.435   1.326 -0.5436  2.6500  0.5858
 9738TIP3   OH229177   1.425   4.192   3.214  0.1678  0.5173  0.5531
 9738TIP3    H129178   1.477   4.119   3.247 -0.8859 -1.0339 -1.0302
 9738TIP3    H229179   1.384   4.230   3.292  3.4874  1.7687  1.8402
 9739TIP3   OH229180   2.443   6.353   4.307  0.0803  0.0174 -0.4271
 9739TIP3    H129181   2.525   6.351   4.259  0.1530 -0.1200 -0.2983
 9739TIP3    H229182   2.467   6.328   4.397  0.1818  1.5610  0.0140
 9740TIP3   OH229183   0.926   6.019   1.832  0.8171 -0.2890  0.4259
 9740TIP3    H129184   0.869   6.050   1.763  0.1525 -0.1686  1.0157
 9740TIP3    H229185   0.992   6.088   1.842 -0.5940  0.9526  1.6632
 9741TIP3   OH229186   6.154   2.514   1.698 -0.1397  0.5338  0.2376
 9741TIP3    H129187   6.168   2.479   1.610 -0.3208  0.2275  0.3289
 9741TIP3    H229188   6.060   2.503   1.714 -0.1078  0.5814  0.4724
 9742TIP3   OH229189   3.500   3.739   4.206 -0.1306 -0.1301 -0.0638
 9742TIP3    H129190   3.411   3.726   4.240  0.5307 -0.1047  1.8037
 9742TIP3    H229191   3.496   3.823   4.161 -1.0697 -0.1432 -0.0299
 9743TIP3   OH229192   4.122   6.017   5.580  0.1262 -0.2614  0.2293
 9743TIP3    H129193   4.114   6.074   5.504  1.5135 -0.5883 -0.2046
 9743TIP3    H229194   4.175   6.067   5.643  0.1193 -0.5020  0.4308
 9744TIP3   OH229195   1.550   4.394   2.667  0.2734  0.0589 -0.1698
 9744TIP3    H129196   1.613   4.398   2.739 -0.0056 -1.3049  0.1746
 9744TIP3    H229197   1.469   4.365   2.707 -0.3461  0.9244 -0.7726
 9745TIP3   OH229198   2.481   1.108   5.602  0.2439  0.0932  0.3585
 9745TIP3    H129199   2.521   1.195   5.595  0.8298 -0.2079 -0.2905
 9745TIP3    H229200   2.396   1.117   5.559  0.3051  0.3520  0.2893
 9746TIP3   OH229201   4.064   2.725   5.089 -0.3932  0.4576 -0.9736
 9746TIP3    H129202   3.978   2.724   5.047 -0.7491 -0.3159 -0.2622
 9746TIP3    H229203   4.049   2.767   5.174 -0.5880 -1.7260  0.1368
 9747TIP3   OH229204   5.709   2.719   1.772  0.5124  0.0771 -0.0537
 9747TIP3    H129205   5.649   2.757   1.836  1.0482 -0.4482  0.7768
 9747TIP3    H229206   5.694   2.770   1.692 -0.2272  0.6875  0.4602
 9748TIP3   OH229207   1.861   2.047   4.760 -0.5324  0.4874 -0.5336
 9748TIP3    H129208   1.803   1.973   4.778  0.5242 -0.0868  0.6401
 9748TIP3    H229209   1.912   2.020   4.683 -1.4289  0.7930 -1.2620
 9749TIP3   OH229210   5.040   0.085   1.701  0.4945 -0.4145  0.1866
 9749TIP3    H129211   5.041   0.181   1.703 -1.2262 -0.2936 -1.5498
 9749TIP3    H229212   5.132   0.060   1.689  1.2229  0.8884  2.4664
   7.21238   6.79990   5.88887   0.00000   0.00000  -2.40413   0.00000  -2.40413  -3.39995
