* SET NIONTYPES = 1
* SET NPOSTOT = 44
* SET NNEGTOT = 42
* SET NIONTOT = 86
*  DATE:     6/17/26     23:44: 4      CREATED BY USER: charmm-gui
*
        86  EXT
         1         1  LIT       LIT            17.6289785119       -5.3341978474       16.4443501485  IONS      1               1.0000000000
         2         2  LIT       LIT             4.9292527115       32.2215957029      -15.9315309692  IONS      2               1.0000000000
         3         3  LIT       LIT            34.9063194075        7.4408641128        0.0943597337  IONS      3               1.0000000000
         4         4  LIT       LIT           -15.1914243380       17.7388874320       19.5989985138  IONS      4               1.0000000000
         5         5  LIT       LIT            17.2898624089      -31.2435792046       21.3057953721  IONS      5               1.0000000000
         6         6  LIT       LIT            27.5052797264       17.1518349935      -20.2819987449  IONS      6               1.0000000000
         7         7  LIT       LIT            21.3013930198        4.2560722398       40.4882938377  IONS      7               1.0000000000
         8         8  LIT       LIT           -24.1848122988      -32.0152131386       13.1252283764  IONS      8               1.0000000000
         9         9  LIT       LIT            11.4638462716      -16.4158441997      -39.5155066635  IONS      9               1.0000000000
        10        10  LIT       LIT            23.1083297960       29.1163558167      -16.7016863218  IONS      10              1.0000000000
        11        11  LIT       LIT           -24.6962411300       24.2947674629       -1.7592029191  IONS      11              1.0000000000
        12        12  LIT       LIT             7.0150097077       36.1638739348        6.6130731683  IONS      12              1.0000000000
        13        13  LIT       LIT           -16.9876773233       30.8519435121      -40.8843493245  IONS      13              1.0000000000
        14        14  LIT       LIT             7.3258003741       14.9382443179      -11.0249646945  IONS      14              1.0000000000
        15        15  LIT       LIT           -26.7670533390      -16.9462140857       14.5765280014  IONS      15              1.0000000000
        16        16  LIT       LIT           -25.8100048692      -33.3838845911        1.6062410529  IONS      16              1.0000000000
        17        17  LIT       LIT           -16.8552477967      -33.8155159337      -18.0752222845  IONS      17              1.0000000000
        18        18  LIT       LIT           -26.7213776616      -26.1118881739       -0.8355835521  IONS      18              1.0000000000
        19        19  LIT       LIT            -6.5502558829       33.9089612763        9.6995125164  IONS      19              1.0000000000
        20        20  LIT       LIT           -33.3947326813       25.2425182568       14.0789035775  IONS      20              1.0000000000
        21        21  LIT       LIT            24.3273709258       19.3970497720       -5.2154413849  IONS      21              1.0000000000
        22        22  LIT       LIT           -13.4265487988        4.2842735602        9.5678780779  IONS      22              1.0000000000
        23        23  LIT       LIT            10.7734597711       26.7017511118      -11.8662959928  IONS      23              1.0000000000
        24        24  LIT       LIT           -17.2159620933       34.0564965081       18.6300761133  IONS      24              1.0000000000
        25        25  LIT       LIT            38.9776519936       28.5735618944       -6.6581194675  IONS      25              1.0000000000
        26        26  LIT       LIT            24.9946906777       -0.1382618192       -2.8467242773  IONS      26              1.0000000000
        27        27  LIT       LIT            12.9462394680      -24.0577208588      -30.6584989218  IONS      27              1.0000000000
        28        28  LIT       LIT            -1.1930574301      -21.0200100986      -20.8944873528  IONS      28              1.0000000000
        29        29  LIT       LIT            19.0432511014       -2.2755714633      -37.3203438608  IONS      29              1.0000000000
        30        30  LIT       LIT            -2.6052552440       33.4088913723       27.4294677043  IONS      30              1.0000000000
        31        31  LIT       LIT           -16.3620119827       25.9156255082       -3.9905822214  IONS      31              1.0000000000
        32        32  LIT       LIT            -8.1362770780        9.3642002617       29.0027347142  IONS      32              1.0000000000
        33        33  LIT       LIT             7.4714084279       19.2602530598       13.9669313828  IONS      33              1.0000000000
        34        34  LIT       LIT            18.2230349809       -5.3185379311       -5.1885071953  IONS      34              1.0000000000
        35        35  LIT       LIT           -29.5608542196        5.6587647533        0.4114854292  IONS      35              1.0000000000
        36        36  LIT       LIT           -30.7283718940        6.6041783481      -19.8361195856  IONS      36              1.0000000000
        37        37  LIT       LIT           -43.3662041343      -20.7586055315        6.5159922273  IONS      37              1.0000000000
        38        38  LIT       LIT           -32.6668301559        3.2956623538      -27.5042929808  IONS      38              1.0000000000
        39        39  LIT       LIT            25.7786856976       11.2867753466       32.7516744928  IONS      39              1.0000000000
        40        40  LIT       LIT           -16.5573178890        4.7440809887      -39.8864658668  IONS      40              1.0000000000
        41        41  LIT       LIT            -9.2876828528        3.1689440890       -6.4739387411  IONS      41              1.0000000000
        42        42  LIT       LIT            -5.8763062399      -14.6501036727       17.6868462570  IONS      42              1.0000000000
        43        43  LIT       LIT            24.2418643782        3.0820983379       35.4178076168  IONS      43              1.0000000000
        44        44  LIT       LIT            27.6174098372       30.3030515759       13.6822355909  IONS      44              1.0000000000
        45        45  CLA       CLA           -14.2756036688      -39.2395980291       -9.6204122993  IONS      45             -1.0000000000
        46        46  CLA       CLA             4.7216849058      -10.9217007872      -38.6957416273  IONS      46             -1.0000000000
        47        47  CLA       CLA            -5.1210179870       22.8609583821       -3.4015296969  IONS      47             -1.0000000000
        48        48  CLA       CLA           -26.9567487064      -25.7118509422       12.6290764801  IONS      48             -1.0000000000
        49        49  CLA       CLA            24.3649238762       -4.3613886088       21.3365630692  IONS      49             -1.0000000000
        50        50  CLA       CLA            -4.1352301714      -28.1348329938      -40.2814573004  IONS      50             -1.0000000000
        51        51  CLA       CLA           -18.3778705904       16.5369819138      -12.3051015845  IONS      51             -1.0000000000
        52        52  CLA       CLA            -7.6056839958       17.3084241373       18.0850177609  IONS      52             -1.0000000000
        53        53  CLA       CLA             3.0613664156       18.4228133128       11.7742688254  IONS      53             -1.0000000000
        54        54  CLA       CLA            41.8475938841        6.5848600578        2.9655430489  IONS      54             -1.0000000000
        55        55  CLA       CLA             5.6347814098      -45.0444758886      -10.8431995625  IONS      55             -1.0000000000
        56        56  CLA       CLA            -0.4534436340       29.4788566598       24.2386725231  IONS      56             -1.0000000000
        57        57  CLA       CLA           -35.1529462569        0.4321065078      -27.7235415229  IONS      57             -1.0000000000
        58        58  CLA       CLA           -27.1641001541        5.2038043937      -14.7668799909  IONS      58             -1.0000000000
        59        59  CLA       CLA            11.1360553523       25.0725148202      -28.9744362659  IONS      59             -1.0000000000
        60        60  CLA       CLA             9.0538887209       23.9174403312       -6.1287934810  IONS      60             -1.0000000000
        61        61  CLA       CLA           -19.2281651068       -1.8585080332      -24.3507918839  IONS      61             -1.0000000000
        62        62  CLA       CLA           -23.0455178696      -37.4425057222        1.7279538596  IONS      62             -1.0000000000
        63        63  CLA       CLA            -9.7319775702       32.0421673989       12.9516911229  IONS      63             -1.0000000000
        64        64  CLA       CLA            24.4591082041      -36.4053980660       11.8183248639  IONS      64             -1.0000000000
        65        65  CLA       CLA             9.0747330505       18.2058626421       18.1767686813  IONS      65             -1.0000000000
        66        66  CLA       CLA             5.1877603839      -22.9869835643      -35.4276247888  IONS      66             -1.0000000000
        67        67  CLA       CLA           -20.0980689312      -31.3632841197        2.9401850170  IONS      67             -1.0000000000
        68        68  CLA       CLA            20.1859180907       25.1398110706      -13.3250670608  IONS      68             -1.0000000000
        69        69  CLA       CLA            -4.6168244701      -23.6947437970       15.0192560710  IONS      69             -1.0000000000
        70        70  CLA       CLA           -11.2061022191       15.7480460661       33.0268546078  IONS      70             -1.0000000000
        71        71  CLA       CLA           -15.9479261115      -16.7149533108      -15.7719578131  IONS      71             -1.0000000000
        72        72  CLA       CLA           -36.5527728072       -1.7539282423        1.6036569360  IONS      72             -1.0000000000
        73        73  CLA       CLA            26.7425699680        5.1556977563       -9.2094638844  IONS      73             -1.0000000000
        74        74  CLA       CLA           -28.2189641503      -12.2173403152       13.2763945308  IONS      74             -1.0000000000
        75        75  CLA       CLA           -33.9874468988       -3.9994136148       19.5883143241  IONS      75             -1.0000000000
        76        76  CLA       CLA           -10.5993558790       -8.8829765291       26.3976000120  IONS      76             -1.0000000000
        77        77  CLA       CLA           -14.9804653325       40.9066114918       23.1766289587  IONS      77             -1.0000000000
        78        78  CLA       CLA            -7.1762797078      -11.0852518442       -3.2523677078  IONS      78             -1.0000000000
        79        79  CLA       CLA             7.6840993538       40.9211352163       11.2679710778  IONS      79             -1.0000000000
        80        80  CLA       CLA            -9.4634770332       13.0472881994        0.9319865031  IONS      80             -1.0000000000
        81        81  CLA       CLA           -40.8967899150      -18.7976699802       11.4788879149  IONS      81             -1.0000000000
        82        82  CLA       CLA             6.6514952132       -7.7431410189       -1.9573870608  IONS      82             -1.0000000000
        83        83  CLA       CLA            20.9949074476       12.6299139907       36.1560236740  IONS      83             -1.0000000000
        84        84  CLA       CLA           -24.9572237136       16.5863959879      -24.5830814589  IONS      84             -1.0000000000
        85        85  CLA       CLA           -14.8296719471       10.2153097736      -42.2405568171  IONS      85             -1.0000000000
        86        86  CLA       CLA            27.2546010830        1.3701756952       37.4691189581  IONS      86             -1.0000000000
