Title
29212
    1ASP      N    1   2.268   3.157   2.780  0.3436  0.7928  0.4710
    1ASP    HT1    2   2.345   3.137   2.713  3.0728 -1.0687  3.8272
    1ASP    HT2    3   2.182   3.111   2.744  1.3572  0.1983 -1.3600
    1ASP    HT3    4   2.295   3.097   2.861 -3.0929 -1.3996  0.2030
    1ASP     CA    5   2.248   3.291   2.825 -0.0018 -0.3020  0.1982
    1ASP     HA    6   2.255   3.355   2.738  4.7550  1.3966  1.4985
    1ASP     CB    7   2.115   3.316   2.890  0.1214  0.3338 -0.3408
    1ASP    HB1    8   2.113   3.421   2.928  0.6836  0.6944 -1.2872
    1ASP    HB2    9   2.079   3.242   2.965  0.9360  1.5721  1.3463
    1ASP     CG   10   1.999   3.310   2.784 -0.7184  1.0435 -0.3606
    1ASP    OD1   11   1.884   3.287   2.816  0.1439  0.2171 -0.4358
    1ASP    OD2   12   2.024   3.337   2.664 -0.7840  0.7427  0.3187
    1ASP      C   13   2.367   3.323   2.918  0.2749 -0.8326  0.5598
    1ASP      O   14   2.479   3.280   2.882 -0.1658  0.0899 -0.1570
    2GLY      N   15   2.350   3.394   3.033  1.3003 -0.1391 -0.0095
    2GLY     HN   16   2.260   3.435   3.048  0.4998 -1.6279 -0.5342
    2GLY     CA   17   2.447   3.424   3.136 -0.2829  0.1890 -0.6702
    2GLY    HA1   18   2.401   3.498   3.201  0.3323  0.2773 -0.3263
    2GLY    HA2   19   2.538   3.457   3.089 -1.4772  0.7980 -2.6983
    2GLY      C   20   2.482   3.304   3.217  0.8132  0.0073 -1.1046
    2GLY      O   21   2.417   3.197   3.200 -0.0607 -0.3225 -0.0300
    3ASP      N   22   2.576   3.322   3.314 -0.1330  0.1561  0.1737
    3ASP     HN   23   2.629   3.404   3.334  1.4130  0.6686 -4.7338
    3ASP     CA   24   2.612   3.216   3.405  0.1468 -0.7153 -0.0377
    3ASP     HA   25   2.638   3.129   3.346  0.2810 -2.5246  2.5665
    3ASP     CB   26   2.745   3.247   3.488  0.2868 -0.1249  0.9937
    3ASP    HB1   27   2.825   3.255   3.411 -1.1103 -1.8158 -0.7400
    3ASP    HB2   28   2.769   3.152   3.541  0.2874 -1.3081 -1.0073
    3ASP     CG   29   2.727   3.361   3.577 -0.3900 -0.8474 -0.2525
    3ASP    OD1   30   2.701   3.480   3.543 -0.6538 -0.5771 -0.2045
    3ASP    OD2   31   2.741   3.343   3.707  0.1554  0.2978  0.0815
    3ASP      C   32   2.503   3.178   3.503 -0.0977  0.2594 -0.2493
    3ASP      O   33   2.415   3.257   3.524  0.1507  0.2754 -0.3554
    4GLY      N   34   2.510   3.061   3.573  0.4958  0.1006 -0.4467
    4GLY     HN   35   2.578   2.991   3.553 -1.3201 -1.3603 -1.9407
    4GLY     CA   36   2.408   3.005   3.662  0.2743 -0.0716  0.0348
    4GLY    HA1   37   2.444   2.908   3.694 -1.3187 -0.3492  1.1205
    4GLY    HA2   38   2.313   3.001   3.612 -0.8319  0.0206  2.0111
    4GLY      C   39   2.384   3.088   3.787 -0.0468  0.0556  0.0964
    4GLY      O   40   2.434   3.196   3.801  0.4099 -0.8210  0.1756
    5PRO      N   41   2.304   3.035   3.882 -0.4340  0.6053 -0.6736
    5PRO     CD   42   2.225   2.913   3.870  0.2727  0.1702 -0.8393
    5PRO    HD1   43   2.286   2.819   3.872 -0.5124 -0.3828 -1.8199
    5PRO    HD2   44   2.170   2.913   3.774 -1.3734 -1.9587  0.0108
    5PRO     CA   45   2.269   3.101   4.016  0.0848 -0.1741  0.9392
    5PRO     HA   46   2.203   3.186   3.999 -2.6232 -2.3990 -0.5633
    5PRO     CB   47   2.207   2.992   4.100 -0.3414 -0.6915  0.0757
    5PRO    HB1   48   2.137   3.037   4.173 -1.1335  0.0911 -1.1163
    5PRO    HB2   49   2.272   2.921   4.155  0.1118  0.3871  0.9669
    5PRO     CG   50   2.137   2.907   3.995  0.2300  0.3354 -0.3252
    5PRO    HG1   51   2.125   2.803   4.030  0.1138 -0.1285 -1.6722
    5PRO    HG2   52   2.046   2.959   3.958  0.3059  0.9104  0.2746
    5PRO      C   53   2.388   3.153   4.086  0.3261 -0.1586  1.3264
    5PRO      O   54   2.490   3.094   4.074  0.1475 -0.0344  0.5047
    6GLY      N   55   2.380   3.264   4.149  0.2664 -0.0330  0.4959
    6GLY     HN   56   2.292   3.307   4.162 -0.1553 -1.1171  1.3550
    6GLY     CA   57   2.484   3.306   4.241 -0.4717 -0.5566 -0.1191
    6GLY    HA1   58   2.446   3.404   4.269  1.3526 -0.0589  0.7784
    6GLY    HA2   59   2.580   3.306   4.191  0.1794  0.4635  1.0521
    6GLY      C   60   2.485   3.227   4.380 -0.3707  0.4940  0.9744
    6GLY      O   61   2.418   3.124   4.395  0.1925  0.1611 -0.2271
    7ASP      N   62   2.558   3.273   4.478  0.3645 -0.4215  0.0198
    7ASP     HN   63   2.611   3.355   4.457  1.8934 -1.7919 -1.9309
    7ASP     CA   64   2.577   3.224   4.609  0.2047  0.5426  0.1151
    7ASP     HA   65   2.652   3.148   4.592 -1.6497 -1.4905  0.5174
    7ASP     CB   66   2.625   3.340   4.702  0.8474  0.7934 -0.4042
    7ASP    HB1   67   2.666   3.299   4.797 -1.4563  0.1778  0.3987
    7ASP    HB2   68   2.533   3.398   4.723 -0.0635 -1.1804  1.4742
    7ASP     CG   69   2.724   3.436   4.638  0.4371 -0.3157  0.3806
    7ASP    OD1   70   2.712   3.481   4.517 -1.1859  0.0421 -0.0435
    7ASP    OD2   71   2.808   3.487   4.716 -0.4409 -0.3119 -0.5572
    7ASP      C   72   2.464   3.146   4.676  0.1903 -0.1312  0.8977
    7ASP      O   73   2.349   3.195   4.675 -0.0426 -0.0754 -0.2746
    8PRO      N   74   2.482   3.026   4.740  0.3600  0.0857  0.2837
    8PRO     CD   75   2.618   2.965   4.769  0.1205 -0.5828  0.2214
    8PRO    HD1   76   2.668   2.990   4.865  1.5643 -1.9112 -0.1522
    8PRO    HD2   77   2.697   2.968   4.691 -0.0606  1.7655  0.0363
    8PRO     CA   78   2.382   2.951   4.821  0.5387 -0.4697  0.5556
    8PRO     HA   79   2.314   2.916   4.744 -0.0117  0.4248  0.6205
    8PRO     CB   80   2.469   2.840   4.887 -0.8293  1.0435 -0.3554
    8PRO    HB1   81   2.409   2.747   4.901 -0.7364  1.2141  1.3430
    8PRO    HB2   82   2.514   2.866   4.984  1.1043 -1.5285 -0.4576
    8PRO     CG   83   2.589   2.823   4.796  0.9312  0.4827  0.4657
    8PRO    HG1   84   2.672   2.770   4.846  0.6992  0.3654  0.7304
    8PRO    HG2   85   2.557   2.761   4.709 -1.2347 -0.5841  1.9159
    8PRO      C   86   2.290   3.031   4.917  0.5978  0.7862 -0.2097
    8PRO      O   87   2.336   3.138   4.967  0.2527 -0.0472  0.3763
    9GLY      N   88   2.172   2.978   4.942 -0.1287  0.3096  0.0490
    9GLY     HN   89   2.139   2.895   4.900  0.3397  1.1388 -2.0665
    9GLY     CA   90   2.069   3.058   5.014  0.7777 -0.6016  0.1096
    9GLY    HA1   91   1.982   2.993   5.012 -0.2067  0.6770 -0.0512
    9GLY    HA2   92   2.063   3.155   4.967  1.0165 -0.1287  1.0454
    9GLY      C   93   2.075   3.088   5.165 -0.2190  0.1079  0.0189
    9GLY      O   94   2.150   3.021   5.238  0.0772  0.4629  0.5439
   10ASP      N   95   1.997   3.188   5.214  0.1382  0.0966  0.2383
   10ASP     HN   96   1.948   3.252   5.155  1.8789 -0.1173 -1.5664
   10ASP     CA   97   2.009   3.238   5.347 -0.4788  0.5707 -0.0933
   10ASP     HA   98   2.113   3.245   5.376 -0.1814  0.4191 -1.1174
   10ASP     CB   99   1.937   3.368   5.364 -0.6585  0.2160  0.3799
   10ASP    HB1  100   1.937   3.402   5.470 -0.3285  0.6262  0.2551
   10ASP    HB2  101   1.837   3.373   5.316  0.7563  0.9987 -2.7605
   10ASP     CG  102   2.012   3.471   5.288 -0.1174 -0.8811 -0.2894
   10ASP    OD1  103   1.951   3.568   5.244 -0.1517  0.2762  0.2274
   10ASP    OD2  104   2.138   3.472   5.290 -0.2591  0.9282 -0.4115
   10ASP      C  105   1.925   3.143   5.432 -0.3710  0.5414  0.0373
   10ASP      O  106   1.944   3.135   5.553 -0.0289  0.0854  0.0703
   11GLY      N  107   1.844   3.051   5.375 -0.5227  0.3689  0.1966
   11GLY     HN  108   1.829   3.047   5.276 -0.3686 -0.5696  0.1996
   11GLY     CA  109   1.769   2.954   5.446 -0.2522  0.5025  0.0541
   11GLY    HA1  110   1.800   2.948   5.549  1.6560 -0.5156 -0.5346
   11GLY    HA2  111   1.789   2.855   5.408  0.1937  1.0354 -1.1506
   11GLY      C  112   1.619   2.978   5.426  0.0171 -0.1008 -0.0607
   11GLY    OT1  113   1.562   2.967   5.320 -0.2522  0.0394  0.5288
   11GLY    OT2  114   1.550   2.999   5.534  0.1444 -0.2179  0.3077
   12LIT    LIT  115   2.545   5.979   2.689  0.4906  1.0375  0.5801
   13LIT    LIT  116   3.697   5.991   3.835 -0.4189 -0.0869 -0.9256
   14LIT    LIT  117   1.759   3.293   2.950  0.3212 -0.1455 -0.3404
   15LIT    LIT  118   5.280   3.181   0.726  0.3152  0.4790 -0.3543
   16LIT    LIT  119   1.394   3.006   5.440 -0.4442  0.8583 -0.5793
   17LIT    LIT  120   1.985   3.315   3.619  0.1577  0.3545  0.8907
   18LIT    LIT  121   5.722   4.567   0.385  0.1829  0.1142 -0.8780
   19LIT    LIT  122   1.596   1.340   4.671 -0.7742  0.2924 -0.9113
   20LIT    LIT  123   3.080   6.625   3.015 -0.3007 -0.1862 -0.9459
   21LIT    LIT  124   3.200   2.953   4.001 -0.4010 -0.9156  0.1877
   22LIT    LIT  125   1.226   2.250   1.598 -1.6915 -1.0485 -0.7969
   23LIT    LIT  126   4.393   6.384   5.694  0.3446  1.4318 -0.4071
   24LIT    LIT  127   0.071   2.087   0.229 -0.5992 -0.7453 -0.9489
   25LIT    LIT  128   2.830   3.682   4.737  0.5541  0.6781  0.6772
   26LIT    LIT  129   2.134   3.638   5.187  0.3954  0.0558  0.6087
   27LIT    LIT  130   4.735   3.722   4.013 -0.2137  0.4906  1.0637
   28LIT    LIT  131   1.340   3.639   5.429  1.1131  1.2068  0.2520
   29LIT    LIT  132   2.379   3.897   4.145  0.2091 -1.1654  0.5001
   30LIT    LIT  133   0.329   0.509   2.240  0.5700  0.3455  0.2274
   31LIT    LIT  134   4.337   5.018   1.153 -0.3109  0.3688 -0.5453
   32LIT    LIT  135   5.189   4.193   2.935  0.5558  0.2096  0.0849
   33LIT    LIT  136   2.834   3.234   3.830 -0.2144  0.1367 -0.6103
   34LIT    LIT  137   4.660   6.146   3.519  0.2955  0.3942  0.0374
   35LIT    LIT  138   4.459   5.167   4.732 -0.1592  0.1528  0.3011
   36LIT    LIT  139   6.696   3.887   4.661 -0.6188  0.1825 -0.1981
   37LIT    LIT  140   4.793   1.099   5.011 -0.2576 -0.6842  0.1526
   38LIT    LIT  141   5.858   4.351   4.298  0.1882 -0.4363 -0.3226
   39LIT    LIT  142   1.840   3.322   2.623 -0.1997  0.5233 -0.0837
   40LIT    LIT  143   2.269   5.066   2.171  0.3628  0.5447  0.8750
   41LIT    LIT  144   2.306   2.501   0.023 -0.3393 -0.0820 -0.3823
   42LIT    LIT  145   2.660   3.530   3.725 -0.6055  0.6650 -0.3334
   43CLA    CLA  146   3.301   4.668   0.704 -0.2551  0.5020  0.2759
   44CLA    CLA  147   1.256   4.127   1.801  0.4634  0.2327  0.1309
   45CLA    CLA  148   1.023   2.966   5.012 -0.0749  0.2780 -0.0727
   46CLA    CLA  149   6.550   4.450   1.574  0.5237  0.0621 -0.2285
   47CLA    CLA  150   5.300   0.675   3.538 -0.1644 -0.3512  0.3652
   48CLA    CLA  151   0.558   1.444   4.017 -0.0513  0.2412 -0.3514
   49CLA    CLA  152   3.223   3.685   4.541 -0.0096  0.0733 -0.3892
   50CLA    CLA  153   2.922   2.843   0.478  0.2813  0.0981  0.2466
   51CLA    CLA  154   1.961   3.531   3.528  0.1412  0.1006 -0.3003
   52CLA    CLA  155   5.741   1.588   1.526 -0.0961  0.5625 -0.3816
   53CLA    CLA  156   1.514   0.518   2.965 -0.0642 -0.5711 -0.4160
   54CLA    CLA  157   0.969   2.682   1.563  0.1311  0.2439  0.2631
   55CLA    CLA  158   1.943   3.680   2.317  0.3594  0.0473 -0.1597
   56CLA    CLA  159   6.830   1.453   1.160 -0.0582 -0.1358 -0.2693
   57CLA    CLA  160   4.211   2.635   4.382 -0.4553 -0.0848 -0.3924
   58CLA    CLA  161   4.982   2.251   4.670 -0.0128 -0.1167  0.0438
   59CLA    CLA  162   1.594   5.900   4.925  0.3453  0.4695 -0.4636
   60CLA    CLA  163   1.378   2.067   1.624  0.2304  0.0058  0.1408
   61CLA    CLA  164   4.925   6.624   2.767  0.4228  0.3479 -0.0409
   62CLA    CLA  165   1.295   5.475   2.818 -0.3520 -0.2311 -0.0405
   63CLA    CLA  166   6.091   6.361   1.156 -0.1171  0.3363 -0.3524
   64CLA    CLA  167   5.284   5.857   4.398  0.3743  0.0793 -0.6692
   65CLA    CLA  168   0.364   1.779   0.027 -0.2838 -0.1696  0.0678
   66CLA    CLA  169   2.165   4.067   4.940 -0.2515  0.2668 -0.1836
   67CLA    CLA  170   3.698   5.804   3.694 -0.4584  0.2650  0.0293
   68CLA    CLA  171   2.654   0.207   0.885 -0.2833 -0.0220 -0.1752
   69CLA    CLA  172   2.928   6.228   3.062  0.1654  0.6159  0.1130
   70TIP3   OH2  173   3.519   4.448   2.855 -0.0706  0.2789 -0.1810
   70TIP3    H1  174   3.475   4.458   2.939 -0.0830  0.7152 -0.2374
   70TIP3    H2  175   3.610   4.430   2.878 -0.3860 -1.3581 -0.0477
   71TIP3   OH2  176   7.153   4.724   2.900 -0.1986 -0.7519  0.1714
   71TIP3    H1  177   7.098   4.774   2.960  0.9625  0.8460 -0.0490
   71TIP3    H2  178   7.174   4.644   2.949 -1.2712 -0.6129  0.9086
   72TIP3   OH2  179   4.469   6.760   3.111  0.2871  0.2703  0.3296
   72TIP3    H1  180   4.417   6.792   3.184 -0.3211 -0.0329  0.0397
   72TIP3    H2  181   4.560   6.769   3.140  0.1179  1.6601  0.4999
   73TIP3   OH2  182   4.126   3.531   0.474 -0.1056 -0.3620 -0.1752
   73TIP3    H1  183   4.159   3.600   0.415 -0.4299  0.8090  0.9539
   73TIP3    H2  184   4.039   3.562   0.499 -0.4511 -1.4461 -0.0235
   74TIP3   OH2  185   1.600   6.170   2.035  0.3227 -0.4709  0.5765
   74TIP3    H1  186   1.651   6.183   2.115  0.1249  1.5369  0.4302
   74TIP3    H2  187   1.575   6.078   2.037  1.1528 -0.6946  2.3264
   75TIP3   OH2  188   0.372   2.242   1.945  0.7644  0.4930  0.1777
   75TIP3    H1  189   0.411   2.180   1.884 -1.8528 -1.0570 -0.0708
   75TIP3    H2  190   0.278   2.227   1.938  0.2422  1.7218  3.0589
   76TIP3   OH2  191   0.600   3.976   0.805  0.0836  0.2474  0.3438
   76TIP3    H1  192   0.540   3.949   0.873 -2.0498  1.7548 -0.8188
   76TIP3    H2  193   0.584   4.070   0.794  0.5417  0.1322 -1.9957
   77TIP3   OH2  194   1.150   1.579   3.959  0.3976 -0.6034 -0.1769
   77TIP3    H1  195   1.140   1.608   4.049 -1.0152  0.7432 -0.7309
   77TIP3    H2  196   1.218   1.511   3.963  1.1803  0.2248  1.7081
   78TIP3   OH2  197   3.058   0.170   3.633 -0.4112  0.0653  0.0746
   78TIP3    H1  198   3.018   0.252   3.661  1.0633  0.2032  1.9776
   78TIP3    H2  199   3.130   0.197   3.576 -1.5707 -0.0873 -1.5376
   79TIP3   OH2  200   6.365   5.967   3.759 -0.5628  0.0583 -0.0917
   79TIP3    H1  201   6.275   5.942   3.779 -0.3351 -0.1842  0.6410
   79TIP3    H2  202   6.401   5.998   3.842 -0.1093  0.6071 -0.4800
   80TIP3   OH2  203   4.009   3.059   1.422  0.7178  0.0170 -0.3486
   80TIP3    H1  204   4.079   3.106   1.378  0.0595  0.4055 -1.0142
   80TIP3    H2  205   3.937   3.122   1.426  0.5679 -0.1958  0.7845
   81TIP3   OH2  206   1.223   5.289   0.218 -0.2290 -0.6636 -0.1535
   81TIP3    H1  207   1.274   5.229   0.164  1.2183  0.7173 -0.4086
   81TIP3    H2  208   1.271   5.294   0.301 -0.0945  0.4068 -0.2788
   82TIP3   OH2  209   6.058   3.885   0.563  0.3358 -0.2566 -0.1268
   82TIP3    H1  210   6.011   3.963   0.534 -0.6984 -0.7724  0.1294
   82TIP3    H2  211   5.993   3.815   0.561  1.1367 -1.0287  0.0724
   83TIP3   OH2  212   6.648   0.181   2.496 -0.2735  0.1658  0.0836
   83TIP3    H1  213   6.632   0.271   2.468 -1.9142 -0.3611 -0.8329
   83TIP3    H2  214   6.629   0.181   2.589  1.0349  1.0268  0.3738
   84TIP3   OH2  215   6.758   6.157   2.566 -0.2541 -0.1154  0.0934
   84TIP3    H1  216   6.783   6.249   2.560 -1.2886  0.1241 -0.8678
   84TIP3    H2  217   6.702   6.153   2.643  0.3316 -0.0852  0.5295
   85TIP3   OH2  218   0.124   3.705   5.092  0.0365  0.3880 -0.2153
   85TIP3    H1  219   0.172   3.787   5.079  1.2504 -0.4027 -0.9900
   85TIP3    H2  220   0.147   3.677   5.181  1.2206 -0.0658 -0.6327
   86TIP3   OH2  221   6.491   0.492   2.071 -0.5218 -0.0181 -0.0931
   86TIP3    H1  222   6.435   0.430   2.024 -1.0991  0.5267 -0.1332
   86TIP3    H2  223   6.483   0.574   2.023  0.5582 -0.0034 -0.2750
   87TIP3   OH2  224   0.518   2.542   4.556 -0.3543 -0.3021 -0.3086
   87TIP3    H1  225   0.532   2.579   4.468  1.5536 -0.6531 -0.1816
   87TIP3    H2  226   0.604   2.543   4.597 -1.2683  0.2172  1.7483
   88TIP3   OH2  227   6.227   4.978   2.302 -0.1996  0.2835  0.0017
   88TIP3    H1  228   6.319   4.969   2.326  0.5284  2.2278 -1.7547
   88TIP3    H2  229   6.222   4.940   2.214 -0.5873  1.9856 -0.7435
   89TIP3   OH2  230   4.104   1.252   4.300 -0.4125 -0.6312  0.1104
   89TIP3    H1  231   4.142   1.339   4.314  0.2716 -0.9127  0.0342
   89TIP3    H2  232   4.100   1.213   4.387  3.7787 -2.3547 -0.2588
   90TIP3   OH2  233   1.165   2.377   0.601 -0.2178 -0.2280 -0.2124
   90TIP3    H1  234   1.150   2.283   0.599 -1.2713 -0.0812 -0.0887
   90TIP3    H2  235   1.245   2.389   0.652  0.7598 -1.1357 -1.4680
   91TIP3   OH2  236   0.809   1.308   2.795 -0.1698  0.5858 -0.3576
   91TIP3    H1  237   0.715   1.287   2.799 -0.3504  1.4949  0.5931
   91TIP3    H2  238   0.851   1.225   2.773 -0.9636 -0.5610  2.0144
   92TIP3   OH2  239   4.519   1.783   1.825  0.2700 -0.1734 -0.1897
   92TIP3    H1  240   4.492   1.718   1.760 -0.8920 -1.1639  1.2073
   92TIP3    H2  241   4.443   1.841   1.834 -0.1623 -0.8968  1.2486
   93TIP3   OH2  242   3.623   5.921   3.369 -0.5249  0.4337  0.1173
   93TIP3    H1  243   3.603   5.847   3.312 -3.2778  0.7252  0.5866
   93TIP3    H2  244   3.612   5.886   3.458 -0.6587  1.0958  0.3644
   94TIP3   OH2  245   3.216   2.720   1.089 -0.0957 -0.1439 -0.1309
   94TIP3    H1  246   3.285   2.655   1.077 -0.8003 -1.0802  0.6922
   94TIP3    H2  247   3.147   2.673   1.135 -1.0021  0.9593 -0.3202
   95TIP3   OH2  248   0.293   2.906   3.538  0.1873  0.3062  0.7239
   95TIP3    H1  249   0.360   2.917   3.605  0.6417  2.4004  0.0263
   95TIP3    H2  250   0.337   2.932   3.457 -1.1925  0.7735  0.1008
   96TIP3   OH2  251   0.303   6.455   1.838  0.4457  0.9055 -0.5277
   96TIP3    H1  252   0.265   6.376   1.878  0.7009  1.8826  1.8407
   96TIP3    H2  253   0.389   6.427   1.807  0.2301  0.0609 -0.3890
   97TIP3   OH2  254   5.147   5.131   1.331  0.0190  0.1684 -0.7938
   97TIP3    H1  255   5.188   5.210   1.365  1.2186 -0.3938 -0.8801
   97TIP3    H2  256   5.066   5.161   1.289 -0.7428  1.0423  1.2144
   98TIP3   OH2  257   0.480   1.231   5.495 -0.0080  0.5855 -0.5297
   98TIP3    H1  258   0.446   1.216   5.583 -0.0534  0.4073 -0.5785
   98TIP3    H2  259   0.437   1.312   5.466 -0.4170  0.3416 -0.6064
   99TIP3   OH2  260   5.381   2.214   1.677 -0.3439 -0.0670 -0.3392
   99TIP3    H1  261   5.347   2.283   1.734 -0.0940 -0.3164  0.1105
   99TIP3    H2  262   5.342   2.234   1.591 -2.2035 -0.7413  0.2931
  100TIP3   OH2  263   0.376   3.107   4.842 -0.8269  0.1162  0.2684
  100TIP3    H1  264   0.405   3.198   4.838 -0.2942 -0.0196  0.7757
  100TIP3    H2  265   0.308   3.100   4.776  1.3262  0.0794 -2.0858
  101TIP3   OH2  266   2.274   6.229   1.760 -0.0721 -0.3679 -0.3347
  101TIP3    H1  267   2.281   6.220   1.855 -1.7566  3.4601  0.3643
  101TIP3    H2  268   2.192   6.185   1.737 -0.5231  0.1190  0.3038
  102TIP3   OH2  269   1.485   2.126   2.986 -0.1084 -0.0490 -0.3335
  102TIP3    H1  270   1.509   2.197   2.926  0.9249 -0.1801 -0.0831
  102TIP3    H2  271   1.401   2.154   3.023  0.0449  0.8082 -0.6050
  103TIP3   OH2  272   6.545   4.840   2.614  0.3977 -0.6599  0.0346
  103TIP3    H1  273   6.597   4.848   2.694 -3.0934  0.3771  2.4877
  103TIP3    H2  274   6.454   4.842   2.645 -1.3119  2.5423 -4.1215
  104TIP3   OH2  275   3.280   6.032   1.464 -0.1912  0.2514  0.0536
  104TIP3    H1  276   3.190   6.065   1.458  0.2694  1.6382  0.4487
  104TIP3    H2  277   3.274   5.942   1.433 -1.3874  0.8967 -1.7537
  105TIP3   OH2  278   2.593   0.532   3.853 -0.1799  0.2264  0.0690
  105TIP3    H1  279   2.503   0.498   3.852  0.0204 -0.3046 -0.5055
  105TIP3    H2  280   2.638   0.482   3.920  0.8356 -2.6531 -2.5151
  106TIP3   OH2  281   0.145   2.046   5.064  0.5526 -0.1150  0.1470
  106TIP3    H1  282   0.104   1.983   5.006  1.8390 -3.2294  2.3228
  106TIP3    H2  283   0.075   2.108   5.085 -0.8307 -0.8274 -2.0175
  107TIP3   OH2  284   6.922   1.774   2.604  0.2558 -0.1324  0.1691
  107TIP3    H1  285   6.849   1.767   2.665  0.3457 -0.4793  0.2422
  107TIP3    H2  286   6.882   1.801   2.522  0.2802  1.4491  0.6607
  108TIP3   OH2  287   2.254   1.090   0.070 -0.1277  0.0635 -0.2213
  108TIP3    H1  288   2.280   1.132  -0.011 -0.1690 -2.6425 -1.7517
  108TIP3    H2  289   2.164   1.121   0.086  0.7448  2.5727  0.2722
  109TIP3   OH2  290   4.550   1.451   4.614 -0.0959  0.3212  1.2398
  109TIP3    H1  291   4.579   1.443   4.705  0.1079  0.6022  1.1996
  109TIP3    H2  292   4.504   1.535   4.610 -1.3402 -0.3270  1.4141
  110TIP3   OH2  293   6.679   5.715   5.068 -0.6197 -0.5596 -0.0237
  110TIP3    H1  294   6.611   5.689   5.005  0.5918 -0.1409 -1.5530
  110TIP3    H2  295   6.691   5.637   5.123 -1.8182 -0.8726 -0.1649
  111TIP3   OH2  296   0.396   0.062   2.473  0.5767 -0.4321  0.6808
  111TIP3    H1  297   0.335   0.071   2.547 -0.5008 -2.9237  0.1918
  111TIP3    H2  298   0.388  -0.029   2.446  2.7666 -0.2113 -0.9901
  112TIP3   OH2  299   6.100   3.912   0.834  0.2585  0.3835 -0.2917
  112TIP3    H1  300   6.062   3.831   0.867 -0.1923  1.0019  0.7552
  112TIP3    H2  301   6.114   3.896   0.741 -0.3309 -0.6977 -0.2068
  113TIP3   OH2  302   6.222   0.642   1.250  0.3110 -0.3208  0.1981
  113TIP3    H1  303   6.291   0.637   1.185 -0.2940  0.0561 -0.4854
  113TIP3    H2  304   6.143   0.662   1.200 -0.4981 -1.7517  0.8184
  114TIP3   OH2  305   2.719   2.841   2.617 -0.3952  0.1129  0.6337
  114TIP3    H1  306   2.779   2.842   2.691 -1.5341 -0.1324  1.5993
  114TIP3    H2  307   2.707   2.748   2.596  1.3329  0.2181 -1.0973
  115TIP3   OH2  308   6.658   2.838   5.753 -0.4877  0.8682  0.2947
  115TIP3    H1  309   6.669   2.858   5.660 -0.5498  0.9481  0.3046
  115TIP3    H2  310   6.587   2.896   5.781 -0.9709  0.3193  0.2189
  116TIP3   OH2  311   1.916   1.138   4.960 -0.0013  0.7275 -0.2563
  116TIP3    H1  312   1.920   1.223   4.917 -0.4777  1.1225  0.4602
  116TIP3    H2  313   1.825   1.130   4.990  0.3953  0.6260  0.9924
  117TIP3   OH2  314   2.146   0.732   4.869 -0.0175 -0.1054  0.6675
  117TIP3    H1  315   2.198   0.659   4.903  0.2657  0.8462  2.3925
  117TIP3    H2  316   2.071   0.738   4.927 -1.2240 -0.3920 -0.8009
  118TIP3   OH2  317   5.609   2.861   3.099  0.0111 -0.2645 -0.4489
  118TIP3    H1  318   5.567   2.776   3.087 -1.7538  0.6320 -0.9583
  118TIP3    H2  319   5.592   2.908   3.017  0.2588  0.8611  0.1200
  119TIP3   OH2  320   0.791   4.784   0.911  0.6223  0.0764  0.6898
  119TIP3    H1  321   0.704   4.794   0.951  0.5904 -0.9097  0.9028
  119TIP3    H2  322   0.851   4.827   0.972  0.4545 -0.5870  1.3449
  120TIP3   OH2  323   0.150   3.746   4.485  0.0387 -0.5573 -0.1111
  120TIP3    H1  324   0.230   3.784   4.450  0.2750 -0.7912  0.1673
  120TIP3    H2  325   0.117   3.810   4.548  0.9902 -1.2414  1.1242
  121TIP3   OH2  326   2.840   0.383   2.672  0.0677  1.0755  0.3342
  121TIP3    H1  327   2.837   0.287   2.674 -0.9609  1.0877  0.1332
  121TIP3    H2  328   2.883   0.403   2.589 -1.3461  0.7635 -0.5278
  122TIP3   OH2  329   0.361   4.383   4.604  0.3034  0.0573  0.8180
  122TIP3    H1  330   0.340   4.384   4.511 -1.2565 -1.1920  1.1046
  122TIP3    H2  331   0.320   4.462   4.639 -0.2303 -0.1462  0.6561
  123TIP3   OH2  332   1.517   6.515   0.440  0.7604  0.4148 -0.3930
  123TIP3    H1  333   1.545   6.432   0.480  1.0223  0.6906  0.0062
  123TIP3    H2  334   1.446   6.490   0.381 -2.1450  0.3586  2.7914
  124TIP3   OH2  335   2.986   4.632   1.619 -0.2970  0.1965 -0.0190
  124TIP3    H1  336   3.052   4.564   1.607 -0.0245  0.6870 -1.5081
  124TIP3    H2  337   2.905   4.592   1.587 -0.6137 -0.1695  1.1768
  125TIP3   OH2  338   3.574   1.805   5.141  0.1927  0.2488 -0.4506
  125TIP3    H1  339   3.482   1.801   5.168  0.4844  0.0231  0.5211
  125TIP3    H2  340   3.579   1.883   5.086 -0.6526  0.0786 -0.7927
  126TIP3   OH2  341   1.029   3.497   5.063  0.4956 -0.3291  0.4510
  126TIP3    H1  342   0.971   3.421   5.068 -1.0552  0.8808  1.7684
  126TIP3    H2  343   0.973   3.568   5.034  1.4830  0.7318  1.0720
  127TIP3   OH2  344   4.040   3.058   5.272 -1.1849 -0.3553  0.2130
  127TIP3    H1  345   4.115   3.017   5.314 -1.7619 -0.4612  1.1908
  127TIP3    H2  346   4.014   3.128   5.332 -0.7554  0.8785 -1.0095
  128TIP3   OH2  347   1.663   0.597   3.508 -0.1291  0.4477  0.1331
  128TIP3    H1  348   1.689   0.646   3.430 -1.2754  1.7349  0.5072
  128TIP3    H2  349   1.670   0.505   3.482  1.1366  0.8019 -0.9230
  129TIP3   OH2  350   6.756   6.527   5.229 -0.1943 -0.4107 -0.2226
  129TIP3    H1  351   6.734   6.585   5.157  0.8100 -0.0543 -0.2608
  129TIP3    H2  352   6.735   6.578   5.308  0.6294  0.0074 -0.2560
  130TIP3   OH2  353   3.639   3.290   0.352 -0.8022 -0.2797 -0.1645
  130TIP3    H1  354   3.712   3.351   0.361 -0.2016 -0.7330 -1.7106
  130TIP3    H2  355   3.673   3.207   0.385 -0.7089 -0.4146 -0.5911
  131TIP3   OH2  356   1.753   0.463   1.000  0.3706  0.2765  0.1332
  131TIP3    H1  357   1.787   0.537   1.051  2.1168 -0.3719 -0.0234
  131TIP3    H2  358   1.659   0.463   1.018  0.8081  0.4569  2.8746
  132TIP3   OH2  359   4.898   1.459   5.409  0.4587 -0.4654 -0.4746
  132TIP3    H1  360   4.908   1.450   5.314  1.6186  0.0710 -0.4191
  132TIP3    H2  361   4.983   1.433   5.445  0.2521 -0.0160  0.3721
  133TIP3   OH2  362   0.968   4.996   5.248  0.9048 -0.5783  0.5424
  133TIP3    H1  363   1.030   4.985   5.320 -1.0102 -1.7307  2.1178
  133TIP3    H2  364   0.907   5.064   5.278  0.9692  0.0499 -0.6782
  134TIP3   OH2  365   2.716   6.125   5.804  0.7891  0.1279  0.2470
  134TIP3    H1  366   2.793   6.070   5.820  0.9447  0.3356  0.2181
  134TIP3    H2  367   2.729   6.161   5.716  1.4092  1.3558  0.8067
  135TIP3   OH2  368   1.652   1.177   5.733  0.1049 -0.3935 -0.1978
  135TIP3    H1  369   1.561   1.150   5.745 -0.3706  1.3881  0.5211
  135TIP3    H2  370   1.650   1.234   5.656  0.6388 -0.3661 -0.1994
  136TIP3   OH2  371   5.000   0.462   1.006  0.5378 -0.1166 -0.4806
  136TIP3    H1  372   5.004   0.501   0.919  0.3393  0.6881 -0.1429
  136TIP3    H2  373   5.010   0.536   1.066  2.5909 -0.8764  0.1873
  137TIP3   OH2  374   4.571   1.712   3.156 -0.4694  0.1666  0.1160
  137TIP3    H1  375   4.541   1.629   3.119  1.5145 -1.0131  0.9492
  137TIP3    H2  376   4.659   1.724   3.120  0.9050 -0.2313  3.0675
  138TIP3   OH2  377   2.844   5.324   2.056 -0.2702 -0.4545  0.0111
  138TIP3    H1  378   2.844   5.401   2.000 -0.9837  0.3652  1.0999
  138TIP3    H2  379   2.760   5.328   2.103 -0.5632 -2.1921 -0.3042
  139TIP3   OH2  380   6.801   3.265   0.414 -0.8788  0.2188 -0.8044
  139TIP3    H1  381   6.739   3.321   0.459 -1.7356 -0.3741 -1.2170
  139TIP3    H2  382   6.769   3.176   0.429 -0.2846 -0.0841 -1.2477
  140TIP3   OH2  383   4.643   3.151   2.465  0.3253 -0.2643 -0.1021
  140TIP3    H1  384   4.636   3.056   2.460  1.4673 -0.4565  1.2138
  140TIP3    H2  385   4.632   3.171   2.559  3.0484  0.5630  0.1305
  141TIP3   OH2  386   0.916   3.814   3.006 -0.0043 -0.2655 -0.1387
  141TIP3    H1  387   0.882   3.727   2.984 -0.0787 -0.7723  1.8225
  141TIP3    H2  388   0.874   3.872   2.944 -1.6977 -1.3507 -0.0790
  142TIP3   OH2  389   5.332   2.071   2.157 -0.5704  0.6324 -0.5414
  142TIP3    H1  390   5.424   2.086   2.136  0.2743 -1.3614  1.4192
  142TIP3    H2  391   5.287   2.077   2.073  1.4434  0.8864 -1.6540
  143TIP3   OH2  392   4.653   4.393   5.370  0.5447 -0.5058  0.3062
  143TIP3    H1  393   4.572   4.405   5.421 -1.4557 -1.9342 -2.2694
  143TIP3    H2  394   4.699   4.322   5.414 -0.4948 -0.8627  0.8436
  144TIP3   OH2  395   6.344   0.340   4.897 -0.5022  0.1283 -0.1868
  144TIP3    H1  396   6.421   0.394   4.912 -1.4013  1.2521  0.6021
  144TIP3    H2  397   6.303   0.379   4.819 -0.8414  0.2407  0.0428
  145TIP3   OH2  398   1.367   1.494   1.190  0.2483 -0.2646  0.2936
  145TIP3    H1  399   1.361   1.590   1.198  3.0714 -0.0671  1.3184
  145TIP3    H2  400   1.316   1.461   1.264  0.3950  0.5250  0.7719
  146TIP3   OH2  401   6.880   1.876   4.306 -0.2900 -0.1058  0.1385
  146TIP3    H1  402   6.935   1.797   4.303  1.4716  1.0180  1.0212
  146TIP3    H2  403   6.881   1.902   4.398 -0.7436  1.0132 -0.1562
  147TIP3   OH2  404   1.924   6.143   2.982  0.2126 -0.2220  0.1316
  147TIP3    H1  405   2.007   6.184   3.006  0.0983 -0.8892  1.7831
  147TIP3    H2  406   1.857   6.205   3.013  0.0602 -1.1653  1.8115
  148TIP3   OH2  407   3.488   1.336   2.398  0.2435  0.6932  0.4546
  148TIP3    H1  408   3.475   1.295   2.484  0.9443 -0.2107  0.1441
  148TIP3    H2  409   3.460   1.427   2.411 -0.2275  0.4249  1.4746
  149TIP3   OH2  410   2.399   0.756   5.752  0.0166 -0.7398  0.8307
  149TIP3    H1  411   2.459   0.790   5.819  1.8377 -1.4387 -0.3574
  149TIP3    H2  412   2.374   0.833   5.701 -0.8122 -0.3112  1.8527
  150TIP3   OH2  413   2.138   6.505   3.649  0.3694  0.1814  0.3933
  150TIP3    H1  414   2.135   6.423   3.599  0.8352  0.3641  0.0598
  150TIP3    H2  415   2.108   6.572   3.587  1.3973  0.4796  0.2035
  151TIP3   OH2  416   1.744   0.753   5.147  0.4247 -0.0388  0.2434
  151TIP3    H1  417   1.716   0.678   5.200  2.0457  0.5452  2.0754
  151TIP3    H2  418   1.679   0.821   5.166  0.4422 -0.1483  0.7189
  152TIP3   OH2  419   3.871   1.533   1.375 -0.1425  0.0233  0.2501
  152TIP3    H1  420   3.825   1.452   1.351  0.9464 -0.2925 -0.8821
  152TIP3    H2  421   3.962   1.505   1.390  0.4147  1.1178 -0.8832
  153TIP3   OH2  422   1.270   5.331   1.394  0.6975 -0.4497  0.0538
  153TIP3    H1  423   1.273   5.401   1.459 -1.2944  0.3627 -0.6514
  153TIP3    H2  424   1.245   5.253   1.444 -1.0579  0.2128  0.3019
  154TIP3   OH2  425   4.316   4.050   2.851  0.4808  0.3922  0.5089
  154TIP3    H1  426   4.247   3.983   2.853  0.7549  0.1245  1.6924
  154TIP3    H2  427   4.395   4.002   2.826  0.6440  0.2915  1.1972
  155TIP3   OH2  428   3.892   6.447   4.986 -0.6763  0.0611  0.3481
  155TIP3    H1  429   3.893   6.523   5.045  0.6134  1.0254 -0.8290
  155TIP3    H2  430   3.799   6.434   4.966 -1.0590  0.2934  1.8335
  156TIP3   OH2  431   1.006   6.101   0.965  0.1658 -0.2745  0.2668
  156TIP3    H1  432   0.957   6.171   0.923 -1.4173 -0.4729  1.7075
  156TIP3    H2  433   1.062   6.146   1.029  0.6656 -0.1858 -0.2224
  157TIP3   OH2  434   0.697   5.677   5.124 -0.5142  0.1286 -0.0070
  157TIP3    H1  435   0.744   5.746   5.076 -1.9681  1.1522 -0.0059
  157TIP3    H2  436   0.613   5.716   5.146 -2.3943 -2.3943 -2.0685
  158TIP3   OH2  437   7.206   0.667   5.392 -0.7639  0.1458 -0.4521
  158TIP3    H1  438   7.194   0.736   5.457 -0.7389 -1.5314  1.4326
  158TIP3    H2  439   7.134   0.679   5.330 -3.2754 -0.5383  2.1130
  159TIP3   OH2  440   4.046   2.214   2.511 -0.9494  0.0037  0.2168
  159TIP3    H1  441   4.120   2.156   2.494 -0.4307  0.4745  0.7929
  159TIP3    H2  442   4.044   2.223   2.607 -2.3446 -0.7557  0.2914
  160TIP3   OH2  443   3.769   2.330   0.237  0.1610  0.0862  0.2529
  160TIP3    H1  444   3.768   2.281   0.319  0.1573 -2.3149 -1.0793
  160TIP3    H2  445   3.814   2.411   0.258 -0.0154 -0.3684  2.6614
  161TIP3   OH2  446   3.181   2.485   4.467  0.3210 -0.0780  0.4834
  161TIP3    H1  447   3.170   2.442   4.382  1.4904 -0.2543  0.4091
  161TIP3    H2  448   3.103   2.539   4.476 -0.5422 -1.1881 -0.0262
  162TIP3   OH2  449   0.933   3.055   0.789  0.0813 -0.0061 -0.3489
  162TIP3    H1  450   0.996   3.004   0.840 -0.5654 -1.5427 -1.0060
  162TIP3    H2  451   0.879   2.989   0.745 -0.2997  1.2616 -1.8936
  163TIP3   OH2  452   6.520   6.616   3.094  0.4216 -0.2431  0.0987
  163TIP3    H1  453   6.597   6.568   3.064  0.2082 -0.7585  0.3580
  163TIP3    H2  454   6.512   6.594   3.186  1.6391  2.0942  0.8317
  164TIP3   OH2  455   6.481   5.995   1.993 -0.2492 -0.5298  0.7381
  164TIP3    H1  456   6.465   5.998   2.087  0.0421  0.7700  0.7631
  164TIP3    H2  457   6.395   5.978   1.954 -0.3583 -1.1323  1.2368
  165TIP3   OH2  458   3.165   1.501   1.823  0.6285  0.5116  0.0812
  165TIP3    H1  459   3.218   1.575   1.794 -0.3322  0.8447 -0.9064
  165TIP3    H2  460   3.075   1.527   1.802  0.3293 -1.2217 -0.9458
  166TIP3   OH2  461   5.281   5.526   0.152 -0.2566 -0.1293  0.0793
  166TIP3    H1  462   5.202   5.504   0.104 -0.9647  0.5252  0.8995
  166TIP3    H2  463   5.295   5.619   0.134  1.5676 -0.6769 -1.7662
  167TIP3   OH2  464   1.174   3.949   5.560  0.1247 -0.0359  0.4323
  167TIP3    H1  465   1.209   4.037   5.545 -0.2878  0.4058  1.8518
  167TIP3    H2  466   1.102   3.940   5.497  0.2370  0.5991  0.2069
  168TIP3   OH2  467   3.329   2.120   4.433  0.1516 -0.4074 -0.0846
  168TIP3    H1  468   3.348   2.027   4.423  0.1463 -0.3372 -0.7736
  168TIP3    H2  469   3.357   2.141   4.522  0.0123 -1.1009  0.1192
  169TIP3   OH2  470   2.990   4.679   0.786 -0.2166 -0.2153 -0.1494
  169TIP3    H1  471   2.945   4.627   0.720 -0.0677 -0.2003 -0.2639
  169TIP3    H2  472   3.082   4.678   0.758 -0.2719  0.4184 -0.3556
  170TIP3   OH2  473   2.251   5.809   2.291  0.0005  0.2945 -0.4280
  170TIP3    H1  474   2.343   5.789   2.271  0.3593  0.3012  1.0338
  170TIP3    H2  475   2.200   5.748   2.239  0.8964 -0.6660 -0.2069
  171TIP3   OH2  476   3.665   6.335   4.842 -0.3939  0.2352 -0.0034
  171TIP3    H1  477   3.601   6.406   4.848  2.4191  3.1064 -1.0343
  171TIP3    H2  478   3.677   6.321   4.748 -1.1147 -1.9357  0.1748
  172TIP3   OH2  479   6.851   0.776   1.075 -0.3257 -0.0769  0.0908
  172TIP3    H1  480   6.812   0.859   1.049 -1.8955 -0.6742  0.4164
  172TIP3    H2  481   6.945   0.789   1.063 -0.7058  0.8142 -2.5224
  173TIP3   OH2  482   4.369   5.944   2.312 -0.8668 -0.1012  0.0963
  173TIP3    H1  483   4.335   5.975   2.396 -1.1340  0.0405 -0.0598
  173TIP3    H2  484   4.308   5.875   2.286 -0.3645 -0.6570  0.3657
  174TIP3   OH2  485   6.908   6.637   2.838  0.3514  0.2441 -0.4252
  174TIP3    H1  486   6.983   6.686   2.874 -0.4447  0.7932  0.5421
  174TIP3    H2  487   6.913   6.653   2.743  2.9164 -1.8320 -0.7689
  175TIP3   OH2  488   0.772   3.176   5.386  0.3107 -0.6068 -0.3944
  175TIP3    H1  489   0.736   3.198   5.472 -0.2586 -1.1762 -0.4770
  175TIP3    H2  490   0.715   3.106   5.354  0.1040  0.0542 -1.5203
  176TIP3   OH2  491   2.304  -0.004   5.836 -0.4436 -0.3471 -0.4166
  176TIP3    H1  492   2.222   0.035   5.866  1.0131  1.8172  1.0354
  176TIP3    H2  493   2.333   0.054   5.766  1.5393  1.1247  1.4812
  177TIP3   OH2  494   0.677   5.652   2.836 -0.6452 -0.2987 -0.0778
  177TIP3    H1  495   0.635   5.585   2.890 -0.1355  0.9183  1.9446
  177TIP3    H2  496   0.729   5.703   2.898  0.8278  0.5464 -1.9125
  178TIP3   OH2  497   6.778   6.739   3.467  0.0319  0.1392  0.4477
  178TIP3    H1  498   6.869   6.719   3.444  0.2692  0.3998  1.1413
  178TIP3    H2  499   6.735   6.754   3.382 -0.1059 -2.9825 -0.1435
  179TIP3   OH2  500   1.386   4.840   2.037  0.7869  0.3253  0.2028
  179TIP3    H1  501   1.356   4.888   2.114  1.3919  0.1209  0.5723
  179TIP3    H2  502   1.478   4.864   2.028  1.7290 -2.3026  1.6433
  180TIP3   OH2  503   0.476   2.967   5.847 -0.3603  0.2900  0.2568
  180TIP3    H1  504   0.484   2.946   5.940 -1.0352  1.5288  0.6194
  180TIP3    H2  505   0.486   2.883   5.802  1.3386 -0.1294  1.3412
  181TIP3   OH2  506   0.489   2.145   0.982  0.0668 -0.7978 -0.2840
  181TIP3    H1  507   0.501   2.087   1.057 -0.5996 -0.7538 -0.1358
  181TIP3    H2  508   0.477   2.086   0.908 -1.0075 -0.8673 -0.0704
  182TIP3   OH2  509   2.116   4.400   2.238  0.4125  0.2202 -0.0327
  182TIP3    H1  510   2.093   4.449   2.317  3.5890 -0.4631  1.4770
  182TIP3    H2  511   2.050   4.332   2.231  0.5495 -0.2621  2.6189
  183TIP3   OH2  512   0.131   6.516   4.948 -0.2499 -0.2842  0.4136
  183TIP3    H1  513   0.177   6.505   5.031 -0.9454 -1.5581  0.6679
  183TIP3    H2  514   0.193   6.488   4.881 -0.1170 -0.4957  0.6237
  184TIP3   OH2  515   3.242   5.369   3.453  0.2583 -0.5735  0.5570
  184TIP3    H1  516   3.191   5.428   3.510  1.5189  0.2489  0.8749
  184TIP3    H2  517   3.176   5.321   3.403 -0.8350  0.3253  1.0922
  185TIP3   OH2  518   0.551   5.670   4.559  0.0296  0.2237  0.6137
  185TIP3    H1  519   0.588   5.743   4.609  0.4128  0.4908 -0.0442
  185TIP3    H2  520   0.599   5.671   4.476 -0.3061 -0.4702  0.4005
  186TIP3   OH2  521   0.949   2.386   1.957  0.4144  0.1048  0.1230
  186TIP3    H1  522   0.892   2.461   1.939  0.3054  0.5264  1.9964
  186TIP3    H2  523   1.032   2.425   1.984  0.8424 -0.4759 -0.3356
  187TIP3   OH2  524   5.212   5.300   2.477  0.0610 -0.7168  0.6657
  187TIP3    H1  525   5.203   5.205   2.481 -2.8605 -0.8133 -3.0033
  187TIP3    H2  526   5.256   5.316   2.394 -0.3624  1.1894  0.7790
  188TIP3   OH2  527   5.008   2.421   2.794 -0.3768 -0.4956 -0.2550
  188TIP3    H1  528   4.975   2.502   2.754 -0.9274 -1.1843 -1.2427
  188TIP3    H2  529   5.102   2.422   2.778 -0.2228  0.4141  0.6150
  189TIP3   OH2  530   3.785   1.402   4.976 -0.0319 -0.0193 -0.0608
  189TIP3    H1  531   3.821   1.468   5.035 -1.9879  2.4704 -1.4770
  189TIP3    H2  532   3.770   1.326   5.032  4.2530 -0.1627  1.2109
  190TIP3   OH2  533   4.597   3.104   2.770 -0.9784 -0.1375 -0.0211
  190TIP3    H1  534   4.597   3.051   2.850 -1.2357  0.3597  0.3159
  190TIP3    H2  535   4.618   3.192   2.800 -0.8426  0.0114 -0.5388
  191TIP3   OH2  536   4.812   4.509   3.940 -0.2917 -0.3776 -0.0620
  191TIP3    H1  537   4.782   4.506   3.849  0.5175 -0.4157 -0.3366
  191TIP3    H2  538   4.854   4.424   3.954  0.2180 -0.1070  0.1112
  192TIP3   OH2  539   3.009   3.327   2.512  0.8269 -0.4924 -0.0345
  192TIP3    H1  540   3.042   3.390   2.576  0.6019 -0.1095 -0.2905
  192TIP3    H2  541   2.986   3.250   2.563  2.0734 -0.7554  0.1626
  193TIP3   OH2  542   5.806   6.177   5.506  0.5256 -0.2514  0.5520
  193TIP3    H1  543   5.888   6.139   5.538 -0.0342 -1.0105  1.1443
  193TIP3    H2  544   5.754   6.191   5.585 -0.2391 -0.5932  0.1229
  194TIP3   OH2  545   4.555   0.864   3.370 -0.0974 -0.1627  0.4312
  194TIP3    H1  546   4.570   0.769   3.375 -0.5343 -0.2428  0.3068
  194TIP3    H2  547   4.494   0.882   3.441 -1.3413 -0.2634 -0.5705
  195TIP3   OH2  548   1.163   2.150   1.994  0.5490 -0.0368  0.0011
  195TIP3    H1  549   1.248   2.111   1.974  0.0376 -1.0124 -0.3268
  195TIP3    H2  550   1.119   2.155   1.910 -0.3783 -1.1574  0.4006
  196TIP3   OH2  551   1.704   3.860   5.113 -0.6294 -0.3284  0.0967
  196TIP3    H1  552   1.686   3.770   5.140 -1.0999 -0.3972 -0.4265
  196TIP3    H2  553   1.713   3.909   5.195 -0.6707 -0.7939  0.3800
  197TIP3   OH2  554   5.274   3.099   1.443 -0.6874  0.2775 -0.3055
  197TIP3    H1  555   5.303   3.009   1.430 -3.4726 -0.5445 -1.3088
  197TIP3    H2  556   5.341   3.137   1.500 -0.3811 -2.9540  1.7365
  198TIP3   OH2  557   3.519   3.232   0.106 -0.0532 -0.1019 -0.2460
  198TIP3    H1  558   3.534   3.256   0.197 -0.1090 -0.7138 -0.0737
  198TIP3    H2  559   3.474   3.147   0.110  0.0875 -0.2108 -0.8426
  199TIP3   OH2  560   2.582   3.458   1.759  0.7502 -0.2242  0.1700
  199TIP3    H1  561   2.492   3.473   1.789  0.3348 -0.4675 -0.9097
  199TIP3    H2  562   2.636   3.477   1.836 -0.0889  1.6542  0.3588
  200TIP3   OH2  563   0.907   1.764   5.222  0.1157 -0.1624 -0.0467
  200TIP3    H1  564   0.925   1.682   5.176 -2.0264 -0.8696  0.2909
  200TIP3    H2  565   0.970   1.764   5.294 -0.9110 -2.3753  0.9498
  201TIP3   OH2  566   3.108   0.934   1.957 -0.3237 -0.0360 -0.4117
  201TIP3    H1  567   3.100   0.913   1.864 -2.1007 -0.0045 -0.3128
  201TIP3    H2  568   3.104   0.849   2.001 -0.2073 -0.0060 -0.3445
  202TIP3   OH2  569   1.845   2.513   5.835  0.1064 -0.3856  0.3934
  202TIP3    H1  570   1.874   2.589   5.885  2.6458 -0.0905 -1.3023
  202TIP3    H2  571   1.921   2.455   5.834 -0.6792 -1.4636 -1.0384
  203TIP3   OH2  572   3.096   1.631   2.943  0.1162  0.0108  0.0294
  203TIP3    H1  573   3.007   1.626   2.979  0.1887  0.3158  0.2591
  203TIP3    H2  574   3.092   1.584   2.860 -0.4624  0.7458 -0.3629
  204TIP3   OH2  575   0.018   2.515   0.558 -0.1602 -0.1136 -0.3682
  204TIP3    H1  576   0.092   2.471   0.600 -1.2767 -1.6528  0.0729
  204TIP3    H2  577  -0.004   2.587   0.617 -0.2897 -0.8916  0.5574
  205TIP3   OH2  578   1.134   1.722   1.970  0.0430 -0.0168  0.4079
  205TIP3    H1  579   1.165   1.738   1.881 -0.2135  0.8776  0.4653
  205TIP3    H2  580   1.198   1.766   2.026  0.3962 -0.8714  0.6953
  206TIP3   OH2  581   5.456   6.016   1.040 -0.1558  0.1324  0.4980
  206TIP3    H1  582   5.540   6.003   0.996 -0.2172  1.5183 -0.0622
  206TIP3    H2  583   5.425   6.101   1.010 -1.9002 -0.4566  0.4904
  207TIP3   OH2  584   2.871   1.022   2.971  0.2979 -0.1487  0.1316
  207TIP3    H1  585   2.788   0.981   2.946 -0.4663  1.1993  0.3312
  207TIP3    H2  586   2.924   1.019   2.892  0.9285 -2.9500  0.5664
  208TIP3   OH2  587   5.888   4.476   0.320 -0.3028  0.0933  0.0327
  208TIP3    H1  588   5.935   4.392   0.318  0.0951  0.3211 -1.5418
  208TIP3    H2  589   5.956   4.541   0.306 -0.7948  0.5870 -0.0836
  209TIP3   OH2  590   6.552   1.359   4.011 -0.3446  0.1662  0.2109
  209TIP3    H1  591   6.476   1.417   4.011 -0.4901 -0.0249  0.2815
  209TIP3    H2  592   6.544   1.308   4.092  0.2445  0.6554  0.5930
  210TIP3   OH2  593   1.882   2.654   4.044  0.2477  0.0567  0.7581
  210TIP3    H1  594   1.927   2.700   4.115  1.1966  0.2750  0.0415
  210TIP3    H2  595   1.951   2.606   3.999  0.0216  1.3586 -1.1196
  211TIP3   OH2  596   5.876   1.375   5.623 -0.0213  0.1128  0.2508
  211TIP3    H1  597   5.821   1.411   5.553 -0.4099  0.0075  0.4934
  211TIP3    H2  598   5.815   1.364   5.696 -0.3269 -2.5599 -0.2893
  212TIP3   OH2  599   3.710   6.043   2.238 -0.2672  0.3296  0.3305
  212TIP3    H1  600   3.678   5.959   2.273  2.3985 -1.9052 -2.1048
  212TIP3    H2  601   3.671   6.049   2.151 -0.8302  1.9422  0.6697
  213TIP3   OH2  602   5.848   3.693   0.432 -0.5330 -0.0962 -0.0796
  213TIP3    H1  603   5.877   3.625   0.492  1.4576  1.6333  1.0786
  213TIP3    H2  604   5.753   3.689   0.435 -0.4830 -3.0641 -0.4136
  214TIP3   OH2  605   0.309   5.208   0.917 -0.3298  0.3321 -0.1996
  214TIP3    H1  606   0.215   5.193   0.921 -0.5175  1.2367 -0.9940
  214TIP3    H2  607   0.319   5.303   0.916  0.5401  0.2425 -1.1696
  215TIP3   OH2  608   5.224   2.568   4.369 -0.2824  0.3099 -0.0878
  215TIP3    H1  609   5.266   2.645   4.331  0.0166  0.2190  0.0607
  215TIP3    H2  610   5.169   2.534   4.298  1.0060 -0.4247 -0.7687
  216TIP3   OH2  611   4.561   5.189   4.052  0.1006 -0.6538 -0.6753
  216TIP3    H1  612   4.610   5.248   3.995  1.3079 -0.6666  0.2946
  216TIP3    H2  613   4.519   5.248   4.116 -0.0511 -0.7319 -0.7035
  217TIP3   OH2  614   5.776   5.884   3.495  0.1080 -0.2873  0.2317
  217TIP3    H1  615   5.794   5.931   3.413  0.8045  1.4214  1.2955
  217TIP3    H2  616   5.770   5.792   3.470 -1.4800  0.3421 -2.0011
  218TIP3   OH2  617   2.712   2.177   0.936 -0.2852 -0.4356  0.3179
  218TIP3    H1  618   2.719   2.171   0.841  0.7651 -2.4772  0.4696
  218TIP3    H2  619   2.625   2.214   0.952 -0.8313 -0.9105 -1.4253
  219TIP3   OH2  620   4.838   0.966   2.748 -0.1932  0.3305 -0.2884
  219TIP3    H1  621   4.770   0.907   2.718  1.0668 -1.5004  0.2798
  219TIP3    H2  622   4.856   0.938   2.838  0.0966  1.9321  0.1868
  220TIP3   OH2  623   1.887   0.678   3.054  0.6489  0.1411 -0.3929
  220TIP3    H1  624   1.982   0.663   3.060  1.0512  2.6005  0.6291
  220TIP3    H2  625   1.879   0.758   3.003 -0.5646  2.1846  2.7205
  221TIP3   OH2  626   6.173   2.766   0.215  0.8920  0.0755  0.1432
  221TIP3    H1  627   6.204   2.846   0.174 -1.1422 -0.7228 -3.3973
  221TIP3    H2  628   6.122   2.795   0.290  1.2800  1.9790 -0.2813
  222TIP3   OH2  629   3.668   4.884   4.706  0.3615 -0.1492 -0.2762
  222TIP3    H1  630   3.665   4.866   4.800 -1.0492  0.6006 -0.1367
  222TIP3    H2  631   3.612   4.817   4.667 -0.9019  0.8731 -0.2974
  223TIP3   OH2  632   2.350   2.097   1.946  0.0126 -0.0175  0.3800
  223TIP3    H1  633   2.417   2.108   2.014  1.0741 -0.0226 -0.6388
  223TIP3    H2  634   2.340   2.184   1.907  0.2489 -0.2583 -0.2226
  224TIP3   OH2  635   2.064   2.737   2.552 -0.1443 -0.6443 -0.0461
  224TIP3    H1  636   2.053   2.653   2.508  1.5125 -0.5394 -0.7005
  224TIP3    H2  637   2.138   2.778   2.508  0.8282 -0.0311  2.0464
  225TIP3   OH2  638   2.898   3.315   3.130 -0.2108  0.4975 -0.0687
  225TIP3    H1  639   2.844   3.238   3.116  0.4805 -0.1065  0.5468
  225TIP3    H2  640   2.976   3.301   3.076  0.3342  0.3304  0.7447
  226TIP3   OH2  641   1.029   2.443   5.512  0.4163 -0.3174  0.2483
  226TIP3    H1  642   0.989   2.462   5.597  0.2845  0.1065  0.0961
  226TIP3    H2  643   1.097   2.378   5.531  2.8689  2.3449  1.2659
  227TIP3   OH2  644   2.597   5.514   3.131 -0.0462 -0.1604 -0.1156
  227TIP3    H1  645   2.509   5.504   3.093  0.0310 -1.1074 -0.0545
  227TIP3    H2  646   2.583   5.501   3.225  0.3754 -1.7879 -0.2572
  228TIP3   OH2  647   1.962   3.438   2.120 -0.0133 -0.2374 -0.2729
  228TIP3    H1  648   2.051   3.416   2.150 -0.4149 -1.8086 -0.1453
  228TIP3    H2  649   1.929   3.499   2.186  0.4307 -0.8387  0.5303
  229TIP3   OH2  650   2.907   2.532   0.534 -0.6915  0.4267  0.2022
  229TIP3    H1  651   2.982   2.509   0.588 -0.4665 -1.3096 -0.7624
  229TIP3    H2  652   2.913   2.626   0.523  1.0308  0.3898  0.6111
  230TIP3   OH2  653   0.336   4.886   4.276  0.0345 -0.0092  0.0511
  230TIP3    H1  654   0.394   4.822   4.318  0.7517 -0.0115 -0.9082
  230TIP3    H2  655   0.270   4.905   4.343 -0.0448 -1.5454  0.4561
  231TIP3   OH2  656   3.167   1.146   3.137 -1.0911 -0.1207  0.3644
  231TIP3    H1  657   3.229   1.121   3.205  0.5349  0.3466 -0.8950
  231TIP3    H2  658   3.086   1.101   3.161 -0.5555 -0.0230  2.5499
  232TIP3   OH2  659   1.671   5.627   0.375 -0.1688 -0.1371  0.1091
  232TIP3    H1  660   1.645   5.686   0.446 -2.9605 -0.9699 -0.1045
  232TIP3    H2  661   1.744   5.672   0.333 -0.4890  1.8984  1.5498
  233TIP3   OH2  662   1.995   2.263   1.706 -0.4708  0.0788  0.3045
  233TIP3    H1  663   2.003   2.232   1.615 -0.8629 -0.1131  0.3349
  233TIP3    H2  664   1.988   2.358   1.698 -0.4984  0.0631  0.1345
  234TIP3   OH2  665   6.071   2.306   4.382  0.0768  0.3382 -0.3081
  234TIP3    H1  666   6.124   2.310   4.303 -0.9655 -2.2754 -1.2636
  234TIP3    H2  667   6.126   2.346   4.450  2.9399 -1.3816 -1.4111
  235TIP3   OH2  668   6.718   2.486   4.991 -0.3544 -0.1106  0.6254
  235TIP3    H1  669   6.774   2.434   5.048  0.5143  0.7322  0.5686
  235TIP3    H2  670   6.677   2.550   5.049 -1.2123 -0.6678  0.6524
  236TIP3   OH2  671   6.550   1.793   4.890  0.3118  0.3256  0.6309
  236TIP3    H1  672   6.458   1.809   4.909  0.5574  2.2269  0.3581
  236TIP3    H2  673   6.587   1.763   4.973 -0.7455 -1.5499  0.4718
  237TIP3   OH2  674   0.460   1.130   0.133  0.4595 -0.5596  0.4572
  237TIP3    H1  675   0.543   1.153   0.175  0.2769 -0.0433  0.5430
  237TIP3    H2  676   0.484   1.068   0.065  1.1755  0.9101 -0.6965
  238TIP3   OH2  677   2.093   5.952   1.447 -0.0491 -0.5212 -0.5594
  238TIP3    H1  678   2.136   5.893   1.384  0.3174 -0.4633 -0.3636
  238TIP3    H2  679   2.133   6.037   1.431  0.7897 -0.7097  0.4465
  239TIP3   OH2  680   3.366   2.626   4.188 -0.2845  0.6196 -0.2985
  239TIP3    H1  681   3.307   2.616   4.263  1.3540 -0.5554  0.9213
  239TIP3    H2  682   3.422   2.549   4.192  1.7067  1.9613 -1.0548
  240TIP3   OH2  683   1.504   2.725   4.608  0.5568 -0.3813 -0.4944
  240TIP3    H1  684   1.441   2.656   4.589  0.4536 -0.0892 -1.2641
  240TIP3    H2  685   1.588   2.689   4.579  0.7643 -0.7846  0.5633
  241TIP3   OH2  686   7.170   6.038   2.405 -0.5010 -0.2908 -0.0400
  241TIP3    H1  687   7.148   6.119   2.451 -0.9818 -0.0523 -0.6664
  241TIP3    H2  688   7.119   5.971   2.449  0.4526 -0.3850  0.9473
  242TIP3   OH2  689   1.535   4.871   3.398 -0.1828  0.1906 -0.1464
  242TIP3    H1  690   1.545   4.883   3.492  1.4134  2.2040 -0.5060
  242TIP3    H2  691   1.465   4.932   3.373  0.6891  1.0506 -0.5174
  243TIP3   OH2  692   3.040   5.356   0.342  0.2460  0.2686 -0.0991
  243TIP3    H1  693   2.956   5.309   0.341  0.0903  0.5477 -0.6517
  243TIP3    H2  694   3.022   5.437   0.293  0.6996  0.5749  0.2354
  244TIP3   OH2  695   6.523   6.634   0.742  0.0633 -0.3952  0.0209
  244TIP3    H1  696   6.576   6.711   0.723  0.2080 -0.7636 -1.1008
  244TIP3    H2  697   6.578   6.581   0.800  0.4566 -0.2241 -0.1926
  245TIP3   OH2  698   5.152   5.400   0.779  0.0606 -0.3865  0.1759
  245TIP3    H1  699   5.170   5.424   0.688  1.8786 -1.9502  0.0716
  245TIP3    H2  700   5.182   5.476   0.829  1.4637 -0.5383 -0.3992
  246TIP3   OH2  701   5.737   2.216   1.178  0.2498 -0.3782 -0.1289
  246TIP3    H1  702   5.796   2.172   1.117  0.4200 -0.7370  0.2868
  246TIP3    H2  703   5.778   2.203   1.264  0.5448  0.9704 -0.0295
  247TIP3   OH2  704   4.590   2.951   2.185  0.1331  0.2768  0.5592
  247TIP3    H1  705   4.670   2.995   2.212  0.1650  2.0911 -2.1245
  247TIP3    H2  706   4.618   2.889   2.117 -0.5501 -0.1882  0.6873
  248TIP3   OH2  707   1.401   1.428   3.165  0.0632 -0.0310 -0.6728
  248TIP3    H1  708   1.337   1.388   3.223 -0.1693 -3.4865 -3.0063
  248TIP3    H2  709   1.349   1.471   3.096  0.2600 -0.5410 -1.1466
  249TIP3   OH2  710   3.294   6.631   4.190  0.3161 -0.4510 -0.6180
  249TIP3    H1  711   3.376   6.679   4.201 -1.3800  2.3246  1.1372
  249TIP3    H2  712   3.237   6.691   4.141 -1.1801 -1.6761 -0.4647
  250TIP3   OH2  713   1.556   4.645   3.695 -0.0301  0.1929 -0.2937
  250TIP3    H1  714   1.529   4.737   3.693  0.2234  0.3289  1.0978
  250TIP3    H2  715   1.649   4.649   3.719 -0.4812 -0.4510  1.7885
  251TIP3   OH2  716   3.355   0.336   4.631 -0.2084 -0.2823 -0.8245
  251TIP3    H1  717   3.392   0.423   4.648  0.6670 -0.9526  0.9525
  251TIP3    H2  718   3.260   0.349   4.635 -0.2147 -0.0170  3.7887
  252TIP3   OH2  719   1.015   4.550   0.213 -0.6449 -0.3177 -0.1903
  252TIP3    H1  720   0.947   4.616   0.195 -0.3494 -0.1663 -0.7854
  252TIP3    H2  721   0.967   4.469   0.229 -1.0304  0.1128  0.8851
  253TIP3   OH2  722   5.459   2.959   4.869  0.3854 -0.0200  0.3391
  253TIP3    H1  723   5.528   3.003   4.819  0.8986 -0.1210  0.9354
  253TIP3    H2  724   5.493   2.957   4.959 -0.9353  1.0688  0.9060
  254TIP3   OH2  725   5.456   6.509   1.522 -0.0198  0.1020 -0.3330
  254TIP3    H1  726   5.402   6.443   1.565  1.4028 -2.5359 -2.2927
  254TIP3    H2  727   5.392   6.566   1.478 -1.2842 -0.3563  0.8151
  255TIP3   OH2  728   1.483   2.514   1.883 -0.0397 -0.3854  0.3171
  255TIP3    H1  729   1.513   2.580   1.820  2.4417 -2.5982 -1.0366
  255TIP3    H2  730   1.539   2.527   1.959 -1.0220  0.3750  0.9398
  256TIP3   OH2  731   5.384   4.960   4.292  0.1657 -0.1713  0.4462
  256TIP3    H1  732   5.376   5.014   4.213 -0.6895 -0.3027  0.4338
  256TIP3    H2  733   5.294   4.946   4.320  0.3613 -1.7516  0.3442
  257TIP3   OH2  734   3.891   2.050   4.875  0.4572 -0.0753 -0.6674
  257TIP3    H1  735   3.943   2.127   4.898  2.2129 -1.1475 -0.8840
  257TIP3    H2  736   3.937   2.011   4.801 -0.7050 -1.0568 -0.9021
  258TIP3   OH2  737   4.260   0.275   4.808 -0.5334  0.3991 -0.6259
  258TIP3    H1  738   4.295   0.213   4.872 -0.7592  1.9725  1.1053
  258TIP3    H2  739   4.328   0.282   4.741 -0.3596 -1.4035 -0.6655
  259TIP3   OH2  740   6.746   0.622   1.302 -0.1754  0.1922 -0.0940
  259TIP3    H1  741   6.746   0.675   1.222  0.8802 -0.2812 -0.4276
  259TIP3    H2  742   6.832   0.639   1.341  0.2986 -1.4639 -0.3480
  260TIP3   OH2  743   3.854   3.145   4.405 -0.6177 -0.1929 -0.0204
  260TIP3    H1  744   3.895   3.229   4.425 -2.6382  0.7906  0.2549
  260TIP3    H2  745   3.779   3.141   4.464 -1.0792 -1.7710 -0.6839
  261TIP3   OH2  746   6.230   6.426   4.600 -0.2318 -0.5394  0.0119
  261TIP3    H1  747   6.213   6.354   4.540  1.6550  0.6806 -2.1278
  261TIP3    H2  748   6.322   6.416   4.625  0.0117  0.9920 -0.1736
  262TIP3   OH2  749   5.253   0.702   5.671 -0.0900 -0.4080  0.3271
  262TIP3    H1  750   5.164   0.704   5.707 -0.2115  1.2912  0.0202
  262TIP3    H2  751   5.274   0.794   5.654  2.1362 -0.6778  1.3495
  263TIP3   OH2  752   4.613   6.620   2.375  0.6350 -0.4402  0.0013
  263TIP3    H1  753   4.570   6.686   2.429  0.0127 -0.4475 -0.4789
  263TIP3    H2  754   4.677   6.669   2.323 -0.1144 -0.1433 -0.6564
  264TIP3   OH2  755   4.236   4.499   3.737 -0.0242  0.2627  0.5387
  264TIP3    H1  756   4.316   4.547   3.760 -0.2413  1.3763 -0.8599
  264TIP3    H2  757   4.252   4.410   3.768  0.8448  0.9490  2.2586
  265TIP3   OH2  758   2.475   6.133   2.791 -0.2305  0.0775 -0.2168
  265TIP3    H1  759   2.534   6.151   2.864  0.9663  1.1292 -1.3653
  265TIP3    H2  760   2.429   6.216   2.777 -0.7130 -0.2219 -0.4322
  266TIP3   OH2  761   3.650   5.350   3.613 -0.6208 -0.5365 -0.2823
  266TIP3    H1  762   3.592   5.403   3.668 -1.2127 -0.7930 -0.6485
  266TIP3    H2  763   3.651   5.394   3.529 -1.5629 -1.3828 -0.7625
  267TIP3   OH2  764   6.250   5.514   1.356 -0.1014  0.4520 -0.1981
  267TIP3    H1  765   6.310   5.539   1.426  1.3850 -2.0947 -0.4277
  267TIP3    H2  766   6.303   5.520   1.276 -0.3558 -1.0973 -0.5038
  268TIP3   OH2  767   5.304   4.731   3.834 -0.3366 -0.1755 -0.5070
  268TIP3    H1  768   5.320   4.637   3.837  0.5160 -0.0282  1.3134
  268TIP3    H2  769   5.389   4.769   3.811 -0.4635  0.1906 -0.3796
  269TIP3   OH2  770   6.673   4.849   4.268  0.0827  0.3220  0.1496
  269TIP3    H1  771   6.631   4.776   4.315  0.5005 -0.0257 -0.0141
  269TIP3    H2  772   6.756   4.863   4.314  0.2295  0.3645 -0.1259
  270TIP3   OH2  773   6.322   0.928   0.071  0.2178  0.8591 -0.0339
  270TIP3    H1  774   6.272   0.851   0.044  0.3903  0.1598  1.5743
  270TIP3    H2  775   6.413   0.902   0.065  0.2570  0.6810  1.2264
  271TIP3   OH2  776   4.237   1.094   1.151  0.4611 -0.8457  0.2414
  271TIP3    H1  777   4.224   1.182   1.115 -1.4131 -1.5356 -0.9249
  271TIP3    H2  778   4.325   1.096   1.190  0.7617  1.2930 -0.4415
  272TIP3   OH2  779   0.129   0.127   4.822 -0.0207  0.0772 -0.4890
  272TIP3    H1  780   0.047   0.078   4.834 -1.0647  0.9726 -3.2746
  272TIP3    H2  781   0.101   0.217   4.805  1.5471  0.4520 -1.2678
  273TIP3   OH2  782   1.211   0.869   2.513  0.1482 -0.3726  0.1100
  273TIP3    H1  783   1.228   0.779   2.542 -0.0013  0.3251  2.5520
  273TIP3    H2  784   1.298   0.903   2.490  0.3598 -0.7582  0.3333
  274TIP3   OH2  785   1.517   0.649   5.267  0.1617  0.2274  0.0433
  274TIP3    H1  786   1.468   0.702   5.329  1.2002  0.1061  1.0085
  274TIP3    H2  787   1.451   0.596   5.223 -0.8350  1.9234 -0.5766
  275TIP3   OH2  788   5.116   4.027   3.999 -0.3605 -0.4336 -0.5459
  275TIP3    H1  789   5.184   3.961   4.012 -0.5030 -0.1258  2.3595
  275TIP3    H2  790   5.067   3.996   3.922  1.5690 -1.9141 -1.2573
  276TIP3   OH2  791   2.107   6.000   4.564 -0.3652  0.3480  0.2425
  276TIP3    H1  792   2.030   6.034   4.519  0.4972  0.0361 -1.5327
  276TIP3    H2  793   2.145   6.077   4.607 -0.6140  0.8803 -0.4667
  277TIP3   OH2  794   5.777   3.713   4.723  0.1043 -0.8322  0.3142
  277TIP3    H1  795   5.791   3.795   4.674  2.0752  0.1916  2.4287
  277TIP3    H2  796   5.689   3.685   4.696  0.6468  0.1654 -2.9729
  278TIP3   OH2  797   6.298   2.510   5.820 -0.1621 -0.2824  0.1660
  278TIP3    H1  798   6.203   2.499   5.814 -0.3645 -1.0105  3.1267
  278TIP3    H2  799   6.312   2.603   5.806 -1.1111 -0.3946 -1.8092
  279TIP3   OH2  800   0.528   3.391   0.931 -0.1606  0.2351  0.3812
  279TIP3    H1  801   0.535   3.310   0.981  0.3097  0.0781  0.0719
  279TIP3    H2  802   0.592   3.450   0.971  2.0967 -0.7091 -1.5268
  280TIP3   OH2  803   2.564   4.476   2.464  0.2639 -0.0011 -0.4798
  280TIP3    H1  804   2.520   4.442   2.542  0.8169 -2.3056 -1.0979
  280TIP3    H2  805   2.494   4.483   2.398  0.1718 -0.0988 -0.3926
  281TIP3   OH2  806   3.482   4.019   0.380  0.1045  0.5953  0.1922
  281TIP3    H1  807   3.516   4.087   0.438  0.0233  0.3994  0.4726
  281TIP3    H2  808   3.560   3.981   0.340  0.1322  1.0933 -0.2443
  282TIP3   OH2  809   0.502   0.405   1.292 -0.3953  0.2404  0.3412
  282TIP3    H1  810   0.438   0.456   1.342 -0.3799 -1.2547  1.9619
  282TIP3    H2  811   0.582   0.458   1.293 -1.5680  2.2707 -1.9554
  283TIP3   OH2  812   3.940   5.919   1.447  0.1349 -0.3362  0.0357
  283TIP3    H1  813   3.889   5.876   1.378  1.2190  1.0181 -1.6880
  283TIP3    H2  814   3.895   6.002   1.461  0.5139 -0.1566  0.1988
  284TIP3   OH2  815   4.374   4.512   5.060  0.0372 -0.7280 -0.0993
  284TIP3    H1  816   4.384   4.487   4.969 -0.1110 -0.1461 -0.2755
  284TIP3    H2  817   4.280   4.502   5.078  0.2423 -2.0560  0.3513
  285TIP3   OH2  818   1.157   5.502   5.062  0.1099  0.0250  0.0133
  285TIP3    H1  819   1.212   5.542   5.130 -1.5722  2.3154  0.1647
  285TIP3    H2  820   1.219   5.463   5.001  1.7630 -0.0529  1.6511
  286TIP3   OH2  821   6.237   1.183   3.616 -0.0504  0.2963 -0.1429
  286TIP3    H1  822   6.228   1.099   3.659 -1.4134  0.7290  0.4641
  286TIP3    H2  823   6.270   1.162   3.528 -3.0260 -1.1628 -1.0201
  287TIP3   OH2  824   6.241   1.985   3.301  0.4986  0.7949  0.0126
  287TIP3    H1  825   6.196   1.908   3.336  2.1517 -0.6896 -0.9709
  287TIP3    H2  826   6.207   1.993   3.212 -0.1990  1.6697  0.3457
  288TIP3   OH2  827   2.207   5.822   0.479 -0.2588  0.4592  0.1011
  288TIP3    H1  828   2.193   5.861   0.393  2.5495  2.8145  0.5452
  288TIP3    H2  829   2.221   5.729   0.461  0.6402  0.9418 -2.0622
  289TIP3   OH2  830   2.004   2.922   0.413  0.3383  0.1650 -0.1044
  289TIP3    H1  831   2.023   2.875   0.494 -0.3237  0.8021  0.4361
  289TIP3    H2  832   2.062   2.883   0.348  1.1003 -0.1524  0.7435
  290TIP3   OH2  833   1.321   6.429   3.445  0.3720 -0.0185 -0.1359
  290TIP3    H1  834   1.332   6.426   3.540  2.1567 -1.0375 -0.3397
  290TIP3    H2  835   1.355   6.345   3.414  0.3809  0.5435 -1.7283
  291TIP3   OH2  836   2.611   2.121   2.090 -0.7096  0.5342 -0.0032
  291TIP3    H1  837   2.657   2.163   2.017  1.1250 -1.6465 -0.2243
  291TIP3    H2  838   2.665   2.045   2.112 -3.3388 -1.2148  0.9499
  292TIP3   OH2  839   2.938   2.611   3.983 -0.0200  0.3607 -0.2423
  292TIP3    H1  840   2.904   2.626   3.894  0.3567  3.2370  0.0085
  292TIP3    H2  841   2.870   2.559   4.025 -0.2187 -1.0694 -2.1654
  293TIP3   OH2  842   0.655   6.596   3.895  0.8279 -0.1618 -0.0537
  293TIP3    H1  843   0.636   6.657   3.823 -1.1345  0.8433  1.2006
  293TIP3    H2  844   0.743   6.620   3.924  0.6597  1.1337 -0.5228
  294TIP3   OH2  845   0.304   0.619   2.088 -0.1032  0.4639  0.3754
  294TIP3    H1  846   0.322   0.708   2.120  1.9964  0.2757 -0.1332
  294TIP3    H2  847   0.293   0.631   1.993  0.1183  0.1853  0.3164
  295TIP3   OH2  848   6.637   1.751   0.738 -0.9805 -0.3019 -0.0843
  295TIP3    H1  849   6.582   1.829   0.741 -1.5413 -0.6729 -0.4981
  295TIP3    H2  850   6.651   1.727   0.830 -0.0338  0.8109  0.0768
  296TIP3   OH2  851   5.619   2.430   0.749 -0.1307  0.1121 -0.2612
  296TIP3    H1  852   5.657   2.470   0.827  0.1187  1.9366 -1.2803
  296TIP3    H2  853   5.545   2.486   0.726 -2.0569 -2.0286  0.2753
  297TIP3   OH2  854   7.058   1.847   1.756 -0.2470  0.4767  0.3233
  297TIP3    H1  855   7.144   1.886   1.740 -0.1474  0.4425  0.7703
  297TIP3    H2  856   7.035   1.873   1.845 -1.4239  1.8223 -0.3289
  298TIP3   OH2  857   0.435   4.027   3.729 -0.3024  0.4143  0.0328
  298TIP3    H1  858   0.432   4.048   3.636 -0.8413  0.7549  0.1205
  298TIP3    H2  859   0.446   4.112   3.772  0.0129  0.2521  0.2776
  299TIP3   OH2  860   5.998   3.494   5.080  0.0426 -0.2786 -0.6008
  299TIP3    H1  861   6.054   3.423   5.112 -0.4777 -0.9545 -1.1760
  299TIP3    H2  862   6.057   3.569   5.073  0.7551 -0.8338 -0.6569
  300TIP3   OH2  863   7.181   3.723   2.763 -0.0743  0.3616  0.4346
  300TIP3    H1  864   7.234   3.760   2.693  0.7854  0.5191  1.1481
  300TIP3    H2  865   7.132   3.652   2.721  1.1906 -0.2303 -0.1275
  301TIP3   OH2  866   2.925   3.732   4.892 -0.3909 -0.6467 -0.4286
  301TIP3    H1  867   3.016   3.749   4.916 -0.6627  0.1179  0.0882
  301TIP3    H2  868   2.874   3.758   4.968 -1.2045  1.0563 -1.4976
  302TIP3   OH2  869   1.601   2.160   0.381 -0.5367  1.0893 -0.3623
  302TIP3    H1  870   1.535   2.185   0.445 -0.8772 -1.7357  0.5247
  302TIP3    H2  871   1.570   2.077   0.345  2.4341 -0.3344  0.0416
  303TIP3   OH2  872   1.511   4.440   1.254  0.0245  0.5207  0.0306
  303TIP3    H1  873   1.597   4.482   1.256  0.2307  0.1564 -0.9822
  303TIP3    H2  874   1.467   4.478   1.178 -1.3325  1.8798  1.4040
  304TIP3   OH2  875   1.329   4.874   5.660 -0.4082 -0.1191 -0.4804
  304TIP3    H1  876   1.383   4.903   5.733 -1.6676  0.6366  0.1950
  304TIP3    H2  877   1.267   4.813   5.699 -1.2586  0.4816 -0.8553
  305TIP3   OH2  878   6.966   2.326   5.426 -0.2941  0.0509  0.4411
  305TIP3    H1  879   6.897   2.333   5.361  0.2701 -1.4339 -0.3627
  305TIP3    H2  880   7.041   2.371   5.386  0.2780 -1.5010 -0.3061
  306TIP3   OH2  881   0.250   5.027   0.680 -0.4573  0.1151  0.3854
  306TIP3    H1  882   0.216   5.083   0.750  0.1388  1.6861 -0.5198
  306TIP3    H2  883   0.340   5.007   0.707 -1.3962 -2.5248  1.8925
  307TIP3   OH2  884   3.587   1.479   3.881 -0.1983 -0.3043  0.3671
  307TIP3    H1  885   3.498   1.480   3.844 -0.1532 -0.6275  0.2484
  307TIP3    H2  886   3.634   1.546   3.831 -0.8786  1.2600  1.7015
  308TIP3   OH2  887   1.458   2.906   4.367  0.3306  0.2983  0.6698
  308TIP3    H1  888   1.546   2.874   4.349  0.5558  1.2171  0.0703
  308TIP3    H2  889   1.446   2.892   4.461  0.7556 -0.6782  0.5925
  309TIP3   OH2  890   5.027   2.366   0.893 -0.2158  0.4341  0.1673
  309TIP3    H1  891   4.997   2.454   0.912  0.5045  0.8038 -0.3205
  309TIP3    H2  892   4.970   2.336   0.822 -1.8721 -0.3448  1.7813
  310TIP3   OH2  893   3.618   4.234   2.509 -0.1418  0.2636 -0.0579
  310TIP3    H1  894   3.647   4.166   2.449  2.7553 -0.0647  1.5207
  310TIP3    H2  895   3.649   4.316   2.470 -0.5666  0.3203 -0.2768
  311TIP3   OH2  896   3.898   0.448   3.527  0.3321 -0.3345  0.2977
  311TIP3    H1  897   3.857   0.382   3.583 -1.0913 -0.1595 -0.4730
  311TIP3    H2  898   3.834   0.463   3.457  1.5724  0.2760 -0.7496
  312TIP3   OH2  899   2.051   3.960   1.368  0.2774  0.2823  0.4317
  312TIP3    H1  900   2.051   3.880   1.314 -0.4261  1.0736 -0.7902
  312TIP3    H2  901   1.963   3.964   1.405  0.1731  0.7117  0.1421
  313TIP3   OH2  902   5.330   4.227   3.987  0.1095  0.7706  0.0348
  313TIP3    H1  903   5.410   4.219   4.039 -0.4286  0.2882  0.8140
  313TIP3    H2  904   5.305   4.136   3.969 -1.7840  0.7726  2.2231
  314TIP3   OH2  905   1.905   3.705   2.656 -0.4890 -0.0479 -0.3705
  314TIP3    H1  906   1.909   3.622   2.610 -0.7925 -0.9420  1.1268
  314TIP3    H2  907   1.881   3.769   2.589 -1.1975 -1.3228 -1.3863
  315TIP3   OH2  908   4.462   0.625   1.006 -0.5256 -0.0441 -0.4334
  315TIP3    H1  909   4.478   0.659   0.918 -1.9316  0.6354 -0.4381
  315TIP3    H2  910   4.524   0.552   1.015  0.8192  0.9371 -1.3377
  316TIP3   OH2  911   1.014   5.673   3.493  0.2507  0.3036 -0.2273
  316TIP3    H1  912   1.081   5.614   3.460  0.1355  0.5537 -0.9288
  316TIP3    H2  913   1.060   5.733   3.552  0.3755 -0.4476  0.4549
  317TIP3   OH2  914   5.887   6.370   0.925 -0.3671  0.1504  0.7053
  317TIP3    H1  915   5.827   6.299   0.946 -0.9887  1.0068  1.9613
  317TIP3    H2  916   5.965   6.352   0.977  0.1821 -0.5473 -0.3360
  318TIP3   OH2  917   3.276   6.187   5.467  0.0074  0.1046  0.0415
  318TIP3    H1  918   3.345   6.210   5.529  1.1134  1.7311 -1.6716
  318TIP3    H2  919   3.285   6.093   5.455  1.7150  0.2272  0.1448
  319TIP3   OH2  920   6.555   0.456   2.513  0.2963 -0.5604  0.3254
  319TIP3    H1  921   6.583   0.535   2.468  1.6116 -1.1203  0.1200
  319TIP3    H2  922   6.589   0.466   2.602  0.0975 -0.6989  0.4171
  320TIP3   OH2  923   6.637   0.983   0.989  0.1731  0.4422 -0.4149
  320TIP3    H1  924   6.686   1.057   0.953 -0.6191  1.1720  0.0008
  320TIP3    H2  925   6.591   0.946   0.913  0.2383  0.6289 -0.5472
  321TIP3   OH2  926   1.068   1.043   0.360 -0.3843  0.7121  0.2850
  321TIP3    H1  927   1.028   0.979   0.419  0.2415  0.9571  0.9954
  321TIP3    H2  928   1.162   1.021   0.361 -0.4385  0.2774 -1.1792
  322TIP3   OH2  929   1.506   0.819   3.984 -0.2745  0.5075 -0.0642
  322TIP3    H1  930   1.522   0.912   4.001 -1.0906  0.4760  0.9733
  322TIP3    H2  931   1.463   0.818   3.899  0.4196  1.0154 -0.4298
  323TIP3   OH2  932   0.323   3.903   5.044 -0.6682 -0.2953  0.1686
  323TIP3    H1  933   0.363   3.952   5.116 -0.2207 -0.7354  0.2239
  323TIP3    H2  934   0.262   3.965   5.004  0.7577  0.7051 -0.5288
  324TIP3   OH2  935   5.617  -0.009   1.736  0.1053  0.2245 -0.0343
  324TIP3    H1  936   5.549   0.056   1.749 -2.1706 -2.2368  1.2323
  324TIP3    H2  937   5.688   0.019   1.795 -0.5062  1.8554 -0.0100
  325TIP3   OH2  938   3.371   3.865   3.760 -0.6154  0.4306 -0.4041
  325TIP3    H1  939   3.363   3.959   3.745 -0.0467  0.6914  0.8245
  325TIP3    H2  940   3.465   3.849   3.766 -0.7423 -0.0186  0.5301
  326TIP3   OH2  941   0.901   2.140   4.889 -0.2586 -0.1188 -0.0096
  326TIP3    H1  942   0.901   2.090   4.970  0.1560 -1.0781 -0.5776
  326TIP3    H2  943   0.822   2.112   4.843 -0.6732  0.6741  0.2051
  327TIP3   OH2  944   3.977   3.407   4.507 -0.1736 -0.1636  0.1261
  327TIP3    H1  945   4.070   3.420   4.490  0.0343 -1.2817  0.3278
  327TIP3    H2  946   3.974   3.370   4.595 -0.8371  0.1978  0.2599
  328TIP3   OH2  947   0.563   0.289   2.432  0.5429 -0.0955  0.3634
  328TIP3    H1  948   0.516   0.206   2.420  0.0717  0.1591  0.4139
  328TIP3    H2  949   0.654   0.269   2.412  0.6033 -0.8604  1.3295
  329TIP3   OH2  950   6.281   0.725   4.766 -0.1359 -0.0396  1.1379
  329TIP3    H1  951   6.277   0.629   4.757  1.1937  0.0052 -0.2370
  329TIP3    H2  952   6.360   0.740   4.818 -1.1647  0.2957  2.6971
  330TIP3   OH2  953   6.017   4.700   2.131 -0.0697  0.0232 -0.1264
  330TIP3    H1  954   6.009   4.795   2.136  0.5448  0.0614  0.2086
  330TIP3    H2  955   6.110   4.683   2.144  0.1104 -0.5161 -1.8248
  331TIP3   OH2  956   6.925   0.287   2.631  0.4738  0.0395 -0.3064
  331TIP3    H1  957   6.955   0.196   2.627  0.9828  0.1941 -0.1478
  331TIP3    H2  958   6.915   0.314   2.540 -0.9160 -0.5629 -0.3584
  332TIP3   OH2  959   5.300   4.010   1.411  0.0730 -0.2904 -0.7363
  332TIP3    H1  960   5.245   4.008   1.489 -0.6706  1.7934 -1.1514
  332TIP3    H2  961   5.354   4.088   1.421  2.0898 -1.5866 -0.9680
  333TIP3   OH2  962   0.838   4.095   4.093 -0.2461  0.4871 -0.1463
  333TIP3    H1  963   0.926   4.074   4.061 -0.7371 -0.7069 -0.7596
  333TIP3    H2  964   0.815   4.176   4.049 -0.4147 -0.4755 -1.9177
  334TIP3   OH2  965   6.176   5.857   5.495 -0.2518 -0.6509  0.1596
  334TIP3    H1  966   6.262   5.862   5.536  1.0077 -0.8154 -2.2482
  334TIP3    H2  967   6.120   5.911   5.550  1.3570 -0.5836  1.8364
  335TIP3   OH2  968   2.811   5.353   1.591 -0.3449  0.3017 -0.4110
  335TIP3    H1  969   2.730   5.393   1.622  0.8805  1.6052  1.3536
  335TIP3    H2  970   2.785   5.267   1.559 -2.7228  1.4984 -1.9883
  336TIP3   OH2  971   3.331   3.306   5.567 -0.2327 -0.3116  0.3912
  336TIP3    H1  972   3.367   3.379   5.617 -0.0858 -0.9232  1.1999
  336TIP3    H2  973   3.278   3.347   5.499 -0.6013  0.5372  1.1708
  337TIP3   OH2  974   3.734   4.806   2.937 -0.7696  0.3185  0.5858
  337TIP3    H1  975   3.759   4.824   3.028 -1.4268  0.3504  0.7676
  337TIP3    H2  976   3.638   4.798   2.940 -0.7701  0.0334 -0.0543
  338TIP3   OH2  977   5.465   3.967   0.740 -0.2427  0.1273 -0.0935
  338TIP3    H1  978   5.393   3.941   0.682 -1.0064  1.9410 -0.0553
  338TIP3    H2  979   5.519   4.025   0.686 -0.0069  0.4711  0.5014
  339TIP3   OH2  980   4.828   3.690   1.229 -0.1506  0.4508  0.4964
  339TIP3    H1  981   4.741   3.729   1.235 -0.1976  0.5628 -0.7182
  339TIP3    H2  982   4.811   3.597   1.214 -0.0690  0.6072 -0.5788
  340TIP3   OH2  983   4.591   2.702   0.443  0.1414 -0.3031 -0.2262
  340TIP3    H1  984   4.575   2.783   0.493 -1.0638 -0.6104 -0.0798
  340TIP3    H2  985   4.505   2.661   0.436  0.9211 -2.2508  0.8194
  341TIP3   OH2  986   0.623   4.340   2.217  0.1443 -0.2470  0.1718
  341TIP3    H1  987   0.547   4.364   2.269 -1.2262 -0.3136 -1.6723
  341TIP3    H2  988   0.671   4.421   2.205 -1.5569  0.5873 -1.5282
  342TIP3   OH2  989   1.892   0.838   1.662  0.1964  0.1659 -0.4429
  342TIP3    H1  990   1.967   0.794   1.703 -0.9862 -2.8155 -1.2046
  342TIP3    H2  991   1.825   0.839   1.729  0.1474  0.6630 -0.4967
  343TIP3   OH2  992   0.002   5.151   1.240 -0.0548  0.3906 -0.5532
  343TIP3    H1  993   0.059   5.216   1.200  0.5245 -0.1808 -0.6745
  343TIP3    H2  994   0.054   5.113   1.310 -0.8026  0.8594  0.2777
  344TIP3   OH2  995   3.474   4.199   5.604 -0.1904 -0.2255 -0.0125
  344TIP3    H1  996   3.513   4.182   5.518 -0.0801 -0.5356  0.0981
  344TIP3    H2  997   3.380   4.187   5.590 -0.0463 -2.1870  0.3282
  345TIP3   OH2  998   5.360   4.421   3.616  0.3555  0.0773  0.1135
  345TIP3    H1  999   5.443   4.407   3.571  0.4434  1.2386 -0.1339
  345TIP3    H2 1000   5.326   4.502   3.578 -1.9925 -1.5076 -1.4149
  346TIP3   OH2 1001   1.871   4.331   4.229  0.0526  0.3734  0.7780
  346TIP3    H1 1002   1.853   4.328   4.323 -1.1900 -2.8795  0.5522
  346TIP3    H2 1003   1.785   4.341   4.189  0.5801  1.7932 -0.0541
  347TIP3   OH2 1004   3.008   5.942   4.747 -0.1273  0.5117  0.0869
  347TIP3    H1 1005   2.995   5.863   4.694 -0.9391  0.0919  0.8758
  347TIP3    H2 1006   2.920   5.967   4.774  0.2267  1.0407  0.7721
  348TIP3   OH2 1007   4.760   0.566   2.376 -0.2587 -0.4504  0.4763
  348TIP3    H1 1008   4.803   0.556   2.291  0.8220 -0.2434  0.9831
  348TIP3    H2 1009   4.667   0.576   2.355  0.1397  0.9349 -0.7648
  349TIP3   OH2 1010   3.212   2.043   1.139  0.8246  0.0278 -0.3872
  349TIP3    H1 1011   3.161   2.115   1.103  0.0890 -0.7939 -1.0249
  349TIP3    H2 1012   3.266   2.084   1.208 -0.0728  1.0525 -0.2644
  350TIP3   OH2 1013   3.058   5.124   0.025 -0.0782  0.2740 -0.1704
  350TIP3    H1 1014   3.154   5.130   0.018 -0.1571  0.4232 -1.2090
  350TIP3    H2 1015   3.029   5.214   0.034  0.0064  0.1299  2.5091
  351TIP3   OH2 1016   7.074   6.752   2.235 -0.3456  0.1605 -0.2552
  351TIP3    H1 1017   7.137   6.681   2.223  0.4722  1.0504 -1.3501
  351TIP3    H2 1018   7.068   6.794   2.150  0.6731  2.6558  0.8188
  352TIP3   OH2 1019   4.169   6.670   3.686 -0.2115 -0.4031  0.0852
  352TIP3    H1 1020   4.220   6.589   3.696  0.9994  0.3468  0.0958
  352TIP3    H2 1021   4.159   6.679   3.591 -2.7464 -1.9916  0.1032
  353TIP3   OH2 1022   4.767   6.187   0.837 -0.3825  0.1567 -0.3954
  353TIP3    H1 1023   4.696   6.161   0.895 -0.3619  0.2021 -0.3495
  353TIP3    H2 1024   4.847   6.171   0.889 -0.4361  2.0655  0.3523
  354TIP3   OH2 1025   4.189   5.167   2.771  0.0497  0.4759 -0.0185
  354TIP3    H1 1026   4.161   5.254   2.743 -0.0754  0.2509 -0.6088
  354TIP3    H2 1027   4.108   5.123   2.797  0.2304  0.8947  1.3452
  355TIP3   OH2 1028   4.985   1.250   3.855 -0.2031 -0.4094 -0.7370
  355TIP3    H1 1029   4.922   1.181   3.876 -0.8266  0.2844 -0.2776
  355TIP3    H2 1030   5.015   1.282   3.939 -1.3527  1.1537 -0.8682
  356TIP3   OH2 1031   2.716   3.911   5.594  0.4922 -0.2265 -0.4750
  356TIP3    H1 1032   2.745   3.982   5.537  0.7779 -0.2544 -0.3692
  356TIP3    H2 1033   2.715   3.834   5.537  2.5223 -0.6270 -0.0635
  357TIP3   OH2 1034   2.916   3.079   5.212  0.0593  0.2019 -0.2371
  357TIP3    H1 1035   2.866   3.084   5.293  0.4740 -2.6514  0.2930
  357TIP3    H2 1036   2.860   3.028   5.153 -0.0176  1.8007 -1.6019
  358TIP3   OH2 1037   6.335   1.793   1.925 -0.0086 -0.0214 -0.4713
  358TIP3    H1 1038   6.315   1.826   1.837  0.2512  1.5068  0.0116
  358TIP3    H2 1039   6.423   1.825   1.944 -0.3685  0.3692  0.6528
  359TIP3   OH2 1040   4.981   2.194   4.331  0.6166  0.0182  0.3600
  359TIP3    H1 1041   4.928   2.272   4.349  1.8642  0.9087  0.3187
  359TIP3    H2 1042   4.975   2.183   4.236  0.4575  0.0768  0.3624
  360TIP3   OH2 1043   4.146   6.371   4.145  0.4314 -0.0576 -0.2538
  360TIP3    H1 1044   4.133   6.402   4.235 -0.2683 -1.8746  0.3310
  360TIP3    H2 1045   4.193   6.288   4.156  0.7658 -0.0651 -1.6101
  361TIP3   OH2 1046   5.276   5.387   1.376 -0.1401  0.2289  0.0065
  361TIP3    H1 1047   5.266   5.480   1.392  0.3914  0.5185 -1.2525
  361TIP3    H2 1048   5.317   5.381   1.290  0.9247 -1.1447  0.5715
  362TIP3   OH2 1049   4.460   2.877   3.873  0.4070 -0.1753 -0.0218
  362TIP3    H1 1050   4.430   2.858   3.962  0.9127  0.9142  0.4002
  362TIP3    H2 1051   4.543   2.829   3.865 -0.9168 -2.4588 -0.8786
  363TIP3   OH2 1052   6.518   1.587   1.226 -0.3208 -0.0645 -0.4954
  363TIP3    H1 1053   6.502   1.560   1.136 -1.5923  2.0079 -0.9774
  363TIP3    H2 1054   6.610   1.565   1.242 -0.5675 -2.1551 -1.6175
  364TIP3   OH2 1055   2.287   1.482   1.833 -0.0467 -0.5094  0.5540
  364TIP3    H1 1056   2.245   1.568   1.839 -1.2053 -1.1333  1.8731
  364TIP3    H2 1057   2.380   1.501   1.844 -0.0559  0.7707 -1.1869
  365TIP3   OH2 1058   6.657   2.290   1.722 -0.0821 -0.2163 -0.0963
  365TIP3    H1 1059   6.724   2.318   1.660  0.3044  0.6704  0.6937
  365TIP3    H2 1060   6.685   2.203   1.749  0.3706 -0.1356 -0.2946
  366TIP3   OH2 1061   6.193   2.412   0.378  0.3805  0.5765 -0.5603
  366TIP3    H1 1062   6.259   2.457   0.326  1.1536  1.3225  0.9830
  366TIP3    H2 1063   6.163   2.478   0.441 -0.4263 -0.3037  0.0134
  367TIP3   OH2 1064   5.929   2.135   5.070  0.1966 -0.0365  0.2091
  367TIP3    H1 1065   5.993   2.080   5.115 -1.6904 -2.3178  0.2968
  367TIP3    H2 1066   5.944   2.118   4.977 -0.8156 -1.3381  0.2475
  368TIP3   OH2 1067   3.943   5.525   1.620 -0.1934  0.3578 -0.5507
  368TIP3    H1 1068   3.884   5.582   1.669  0.8008  0.0920  0.9858
  368TIP3    H2 1069   4.009   5.498   1.683  2.5915  1.9575 -2.5911
  369TIP3   OH2 1070   0.269   3.693   2.072  0.4561  0.4795  0.4427
  369TIP3    H1 1071   0.304   3.638   2.141 -0.3499 -2.0625 -1.0302
  369TIP3    H2 1072   0.338   3.693   2.004  0.0619  0.4856  0.0379
  370TIP3   OH2 1073   4.659   5.966   0.135  0.0687  0.3729 -0.7648
  370TIP3    H1 1074   4.686   5.979   0.044  3.2202  2.6334  0.3302
  370TIP3    H2 1075   4.602   6.041   0.154  0.0303  0.3149 -0.6520
  371TIP3   OH2 1076   5.200   2.174   0.248  0.3153 -0.3735  0.1857
  371TIP3    H1 1077   5.132   2.116   0.214 -1.3140  0.6962  1.4590
  371TIP3    H2 1078   5.238   2.126   0.321 -2.3058  0.7408  2.4546
  372TIP3   OH2 1079   6.051   1.920   5.311  0.0361 -0.1193  0.1582
  372TIP3    H1 1080   6.048   1.880   5.224 -1.2641 -0.7081  0.4523
  372TIP3    H2 1081   5.961   1.947   5.329  0.4149  0.6197  1.0487
  373TIP3   OH2 1082   3.603   0.112   1.099 -0.0252  1.0109 -0.3258
  373TIP3    H1 1083   3.515   0.119   1.136 -0.7922  2.7667 -2.3009
  373TIP3    H2 1084   3.642   0.198   1.112  1.6966  0.0868  1.0772
  374TIP3   OH2 1085   5.346   1.420   3.861  0.3898 -0.1159 -0.2278
  374TIP3    H1 1086   5.376   1.407   3.951 -0.0440 -0.5904 -0.1488
  374TIP3    H2 1087   5.255   1.446   3.869  1.0004  2.2995 -0.4245
  375TIP3   OH2 1088   0.114   2.213   5.693 -0.5623 -0.3528  0.6210
  375TIP3    H1 1089   0.161   2.282   5.646 -0.2550 -0.6933  0.4259
  375TIP3    H2 1090   0.098   2.146   5.627  1.1256 -1.4754  1.2868
  376TIP3   OH2 1091   4.117   1.750   1.344 -0.9015 -0.1088  0.1653
  376TIP3    H1 1092   4.093   1.826   1.290  0.2393 -0.1163 -0.3771
  376TIP3    H2 1093   4.094   1.777   1.433  0.7123  1.4597  0.1805
  377TIP3   OH2 1094   5.646   5.977   4.356  0.3487 -0.2929  0.7398
  377TIP3    H1 1095   5.605   5.890   4.353  0.2386 -0.2223 -1.0610
  377TIP3    H2 1096   5.572   6.038   4.348  0.6033 -0.1322 -0.7893
  378TIP3   OH2 1097   0.790   4.351   3.870 -0.3041 -0.1317  0.2323
  378TIP3    H1 1098   0.844   4.358   3.791  0.3157 -0.5487  0.6113
  378TIP3    H2 1099   0.834   4.407   3.934 -0.7716  0.1608  0.3055
  379TIP3   OH2 1100   5.801   5.366   3.460 -0.0583  0.6570  0.1534
  379TIP3    H1 1101   5.712   5.333   3.468 -0.0310  0.1043 -1.4872
  379TIP3    H2 1102   5.856   5.287   3.453  0.5028  0.9986  0.5810
  380TIP3   OH2 1103   1.996   5.015   2.988  0.3749  0.0465 -0.3326
  380TIP3    H1 1104   1.954   4.929   2.989  0.3544  0.0436  0.9877
  380TIP3    H2 1105   1.925   5.076   3.006  0.6727  0.1720  0.4637
  381TIP3   OH2 1106   4.811   4.417   4.571  0.3600 -0.4692 -0.3015
  381TIP3    H1 1107   4.873   4.489   4.561 -0.3567  0.0642 -1.0943
  381TIP3    H2 1108   4.792   4.415   4.665  0.9045 -0.0764 -0.1720
  382TIP3   OH2 1109   6.991   6.445   4.422  0.6074 -0.6648  0.5246
  382TIP3    H1 1110   7.045   6.509   4.375 -0.6664 -0.3005 -0.5381
  382TIP3    H2 1111   7.016   6.361   4.385  0.0090 -0.4319 -0.4856
  383TIP3   OH2 1112   6.715   3.944   3.943 -0.2507 -0.3428  0.4277
  383TIP3    H1 1113   6.723   4.039   3.936 -1.3677 -0.2360  0.4396
  383TIP3    H2 1114   6.804   3.914   3.965  1.0495  0.3228 -3.1246
  384TIP3   OH2 1115   4.682   1.116   3.531  0.1589  0.4283  0.5570
  384TIP3    H1 1116   4.651   1.058   3.462  1.3839 -1.5098  1.5438
  384TIP3    H2 1117   4.741   1.062   3.583 -0.4246  1.9171  2.9129
  385TIP3   OH2 1118   6.076   5.629   3.324  0.2762  0.5656 -0.3402
  385TIP3    H1 1119   6.108   5.704   3.273  2.1478  0.8589  1.1724
  385TIP3    H2 1120   6.132   5.626   3.401 -0.8784 -1.3700  0.5062
  386TIP3   OH2 1121   1.230   2.593   3.072  0.0959  0.0288  0.5920
  386TIP3    H1 1122   1.152   2.640   3.042  1.0900  1.0356 -0.5326
  386TIP3    H2 1123   1.288   2.590   2.996  0.7173 -1.6961  1.0772
  387TIP3   OH2 1124   7.081   0.646   1.793 -0.1731  0.1180 -0.4851
  387TIP3    H1 1125   7.068   0.584   1.721 -1.0651  0.0198 -0.2511
  387TIP3    H2 1126   7.065   0.595   1.872  0.9926  0.1759 -0.1906
  388TIP3   OH2 1127   4.032   5.903   3.225  0.4596  0.2635  0.2450
  388TIP3    H1 1128   3.993   5.891   3.311 -0.9174 -2.0235 -0.6049
  388TIP3    H2 1129   3.971   5.861   3.165  1.0706  2.2930 -1.9608
  389TIP3   OH2 1130   7.115   5.811   5.240 -0.5860 -0.4411 -0.0795
  389TIP3    H1 1131   7.060   5.737   5.212 -1.3286 -0.4444  1.3235
  389TIP3    H2 1132   7.056   5.886   5.237 -0.2061 -0.1457 -0.1605
  390TIP3   OH2 1133   0.337   4.867   1.883 -0.0972  0.0508  0.4778
  390TIP3    H1 1134   0.347   4.898   1.973 -1.7658 -1.2825  1.1760
  390TIP3    H2 1135   0.245   4.842   1.876 -0.3168  1.2144 -1.9872
  391TIP3   OH2 1136   6.704   2.091   2.839  0.1931  0.1190  0.2811
  391TIP3    H1 1137   6.739   2.002   2.846  3.4009  1.3233  0.9443
  391TIP3    H2 1138   6.658   2.106   2.921 -2.0237 -1.4587 -0.5597
  392TIP3   OH2 1139   4.564   0.426   4.069  0.1860  0.0603  0.2809
  392TIP3    H1 1140   4.495   0.424   4.003  0.2810 -0.7697  0.1924
  392TIP3    H2 1141   4.598   0.515   4.066  2.0175 -0.6201 -2.7205
  393TIP3   OH2 1142   6.470   5.649   2.280  0.4407 -0.1962  0.7640
  393TIP3    H1 1143   6.499   5.646   2.371 -1.0789 -1.9753  1.2355
  393TIP3    H2 1144   6.414   5.572   2.269  1.2849 -0.5497 -1.9367
  394TIP3   OH2 1145   0.927   6.347   1.419  0.4108  0.2172  0.4177
  394TIP3    H1 1146   0.929   6.293   1.498  0.4371  1.7910  1.5472
  394TIP3    H2 1147   0.837   6.378   1.414 -0.0705 -1.2340 -1.2055
  395TIP3   OH2 1148   1.831   3.959   2.033  0.4337 -0.4091 -0.1990
  395TIP3    H1 1149   1.888   3.966   2.110 -0.7479  0.4779  0.6384
  395TIP3    H2 1150   1.803   3.867   2.033 -0.0289 -0.2884  0.8122
  396TIP3   OH2 1151   7.163   5.970   3.329  0.2407  0.3803  0.2962
  396TIP3    H1 1152   7.083   5.964   3.381  0.6660 -0.0918  0.9058
  396TIP3    H2 1153   7.148   6.044   3.270 -0.2848  0.8853  1.0395
  397TIP3   OH2 1154   6.033   1.361   1.120 -1.0481 -0.0063 -0.5063
  397TIP3    H1 1155   6.030   1.441   1.173 -0.6214 -0.6921  0.5824
  397TIP3    H2 1156   6.120   1.324   1.138 -1.4345 -0.9747 -0.6015
  398TIP3   OH2 1157   6.283   5.871   1.458 -0.4465 -0.1815  0.1419
  398TIP3    H1 1158   6.221   5.854   1.529  0.4363  1.9938  1.5184
  398TIP3    H2 1159   6.270   5.963   1.434  0.8449 -0.2323 -0.9457
  399TIP3   OH2 1160   4.888   2.804   1.804 -0.1836  0.3684  0.2012
  399TIP3    H1 1161   4.884   2.854   1.886 -1.4151  0.9940 -0.2138
  399TIP3    H2 1162   4.832   2.728   1.820 -0.6483  0.6337 -0.1454
  400TIP3   OH2 1163   6.769   0.526   5.216 -0.1471  0.0100 -0.2437
  400TIP3    H1 1164   6.815   0.446   5.242 -2.9949 -1.4063  0.9548
  400TIP3    H2 1165   6.738   0.507   5.127  0.9269  0.6917 -0.7879
  401TIP3   OH2 1166   0.036   1.761   3.942  0.1522 -0.1231 -0.2668
  401TIP3    H1 1167  -0.050   1.772   3.982  0.6326 -0.5754  0.9485
  401TIP3    H2 1168   0.094   1.743   4.016  1.6160  1.8471 -0.8531
  402TIP3   OH2 1169   4.133   0.176   1.649  0.7433  0.5140 -0.0154
  402TIP3    H1 1170   4.132   0.261   1.603  4.1025  1.8037  1.9569
  402TIP3    H2 1171   4.099   0.196   1.736 -1.7918 -1.0539 -0.5563
  403TIP3   OH2 1172   1.478   0.458   1.041  0.1646  0.3936  0.3215
  403TIP3    H1 1173   1.469   0.456   1.136 -1.0536  1.2023  0.2598
  403TIP3    H2 1174   1.389   0.443   1.009  0.5746  0.0653 -0.6859
  404TIP3   OH2 1175   5.479   2.446   4.445 -0.0593 -0.4636 -0.1962
  404TIP3    H1 1176   5.389   2.442   4.475  0.1161  1.1019  0.6042
  404TIP3    H2 1177   5.489   2.534   4.409  1.3614 -0.3253  0.4533
  405TIP3   OH2 1178   5.446   1.853   0.143 -0.1169  0.1155 -0.3514
  405TIP3    H1 1179   5.444   1.914   0.070 -0.1942 -0.5836 -0.9548
  405TIP3    H2 1180   5.445   1.766   0.101 -1.8074 -0.3112  0.4981
  406TIP3   OH2 1181   5.114   6.501   3.713 -0.0080 -0.2727 -0.0559
  406TIP3    H1 1182   5.134   6.431   3.775 -0.4580  1.4394  2.1462
  406TIP3    H2 1183   5.199   6.534   3.685  0.2003 -1.2346 -0.6021
  407TIP3   OH2 1184   5.154   3.737   0.795  0.5310 -0.3531  0.7570
  407TIP3    H1 1185   5.246   3.720   0.778  0.2573 -0.5484 -0.6340
  407TIP3    H2 1186   5.140   3.828   0.767  0.0697 -0.6816 -0.1208
  408TIP3   OH2 1187   4.488   5.586   0.630  0.0430  1.1393  0.0194
  408TIP3    H1 1188   4.426   5.570   0.560  1.7017  0.6110 -1.3978
  408TIP3    H2 1189   4.434   5.611   0.705 -1.7604  2.1267 -1.5274
  409TIP3   OH2 1190   4.481   0.604   0.398  0.4440 -1.1928  0.0475
  409TIP3    H1 1191   4.510   0.559   0.319  0.9406  0.3044 -0.6580
  409TIP3    H2 1192   4.557   0.653   0.428 -0.4140  0.2525 -0.0039
  410TIP3   OH2 1193   2.156   3.171   2.453  0.6335  0.1078  0.2808
  410TIP3    H1 1194   2.113   3.222   2.521  2.2581  0.5532  1.0236
  410TIP3    H2 1195   2.092   3.167   2.382 -0.5353  0.8983  1.2471
  411TIP3   OH2 1196   6.729   2.810   1.984  0.2915 -0.1603 -0.1987
  411TIP3    H1 1197   6.772   2.834   1.902  0.1834  0.6890 -0.0168
  411TIP3    H2 1198   6.796   2.764   2.034  0.8764  0.7829 -0.0923
  412TIP3   OH2 1199   6.102   1.730   5.819 -0.2276  0.0033  0.2046
  412TIP3    H1 1200   6.162   1.660   5.794  0.9161  1.4070 -1.2091
  412TIP3    H2 1201   6.090   1.781   5.739 -1.1126  1.3530  1.1481
  413TIP3   OH2 1202   0.136   5.696   4.989 -0.2439 -0.8412 -0.4703
  413TIP3    H1 1203   0.118   5.731   5.076  0.5204 -1.1655 -0.1708
  413TIP3    H2 1204   0.093   5.757   4.929 -2.1085 -1.4402  0.1688
  414TIP3   OH2 1205   6.720   0.585   2.999 -0.0503  0.1392 -0.3606
  414TIP3    H1 1206   6.738   0.541   2.916  3.3163 -0.0577  0.3245
  414TIP3    H2 1207   6.642   0.541   3.033  0.6592 -2.3938 -1.7321
  415TIP3   OH2 1208   4.419   4.777   5.755 -0.4871  0.2155 -0.0504
  415TIP3    H1 1209   4.326   4.798   5.743 -0.7608 -0.7769  0.2727
  415TIP3    H2 1210   4.454   4.851   5.804 -1.0437  0.7302 -0.4136
  416TIP3   OH2 1211   3.913   5.318   4.768  0.8087 -0.2948  0.0557
  416TIP3    H1 1212   3.973   5.275   4.707  0.9962 -0.3784  0.2944
  416TIP3    H2 1213   3.844   5.254   4.782  1.2964 -0.6916  0.7255
  417TIP3   OH2 1214   4.402   6.490   3.938  0.0202  0.2466 -0.5468
  417TIP3    H1 1215   4.385   6.399   3.963 -1.0484  0.5861  0.0098
  417TIP3    H2 1216   4.421   6.534   4.021  0.3521  0.5828 -0.7944
  418TIP3   OH2 1217   1.202   6.445   3.726  0.5637  0.2553  0.1525
  418TIP3    H1 1218   1.210   6.350   3.716  0.2610  0.3443 -1.2490
  418TIP3    H2 1219   1.108   6.460   3.735  0.5367  0.4635 -0.4103
  419TIP3   OH2 1220   0.489   4.014   2.575 -0.2470 -0.5248 -0.2052
  419TIP3    H1 1221   0.462   3.934   2.530 -0.4108  0.8407 -2.7365
  419TIP3    H2 1222   0.575   4.034   2.538 -0.3899  0.6819  0.0761
  420TIP3   OH2 1223   7.037   0.813   1.429 -0.2984 -0.0706  0.0681
  420TIP3    H1 1224   7.021   0.727   1.465  0.8493 -0.8813 -1.2189
  420TIP3    H2 1225   6.952   0.856   1.427 -1.1215 -1.6600 -0.4330
  421TIP3   OH2 1226   5.954   6.505   2.196 -0.6951 -0.0253  0.4049
  421TIP3    H1 1227   5.913   6.539   2.117 -0.5559 -0.8845 -0.0461
  421TIP3    H2 1228   5.886   6.452   2.238 -1.2654  1.6364  1.6771
  422TIP3   OH2 1229   0.724   4.895   2.799 -0.2510 -0.1517  0.2063
  422TIP3    H1 1230   0.640   4.853   2.783 -0.5983  1.0279 -1.2134
  422TIP3    H2 1231   0.702   4.983   2.829  0.3958  0.9536 -2.3025
  423TIP3   OH2 1232   5.424   4.245   5.541  0.2061 -0.0899 -0.2473
  423TIP3    H1 1233   5.416   4.304   5.616  0.5345 -0.4453  0.0727
  423TIP3    H2 1234   5.365   4.172   5.562 -0.2174  0.1323 -0.6513
  424TIP3   OH2 1235   5.587   5.834  -0.012 -0.2040  0.0954 -0.0523
  424TIP3    H1 1236   5.632   5.784   0.056 -1.7125 -0.5633  0.5080
  424TIP3    H2 1237   5.494   5.816   0.003 -0.7203  2.0294 -0.6521
  425TIP3   OH2 1238   4.817   5.174   1.551 -0.5193  0.7147 -0.0396
  425TIP3    H1 1239   4.865   5.244   1.509  0.2578  0.9446  1.1901
  425TIP3    H2 1240   4.762   5.218   1.616  1.0130  0.1287  1.7276
  426TIP3   OH2 1241   0.104   4.545   2.425 -0.4146  0.3683  0.0171
  426TIP3    H1 1242   0.031   4.515   2.371 -0.1227 -1.0223  0.3570
  426TIP3    H2 1243   0.063   4.573   2.507 -0.7873  1.8456 -0.6484
  427TIP3   OH2 1244   5.185   1.103   3.286 -0.0728  0.0616 -0.3289
  427TIP3    H1 1245   5.091   1.099   3.269 -0.0100 -2.8123 -0.5028
  427TIP3    H2 1246   5.192   1.129   3.378 -1.2172 -2.2351  0.4843
  428TIP3   OH2 1247   3.104   2.843   2.151  0.6423 -0.2584 -0.1894
  428TIP3    H1 1248   3.110   2.899   2.228 -0.4361  0.2560 -0.4600
  428TIP3    H2 1249   3.125   2.901   2.078 -1.3964  0.0764 -0.5648
  429TIP3   OH2 1250   6.347   0.355   2.917 -0.6817 -0.4246 -0.0324
  429TIP3    H1 1251   6.391   0.439   2.908  0.7841 -0.6285  3.4006
  429TIP3    H2 1252   6.293   0.365   2.996  0.6322 -3.0421  1.3132
  430TIP3   OH2 1253   1.951   1.315   3.962  0.0549  0.5554 -0.7983
  430TIP3    H1 1254   1.953   1.348   3.872  1.2919 -0.9614 -1.3667
  430TIP3    H2 1255   2.021   1.250   3.965 -0.3156  0.1960  1.1274
  431TIP3   OH2 1256   1.534   1.012   3.303 -0.0129 -0.3939 -0.2585
  431TIP3    H1 1257   1.481   1.019   3.223 -0.5382  0.8823  0.1813
  431TIP3    H2 1258   1.509   0.928   3.340 -2.7310  0.6872  0.5883
  432TIP3   OH2 1259   3.098   0.845   1.703  0.1742 -0.3035  0.1296
  432TIP3    H1 1260   3.024   0.882   1.655 -1.4713  0.4184  2.9637
  432TIP3    H2 1261   3.172   0.900   1.679 -0.0524 -1.2050 -2.9892
  433TIP3   OH2 1262   0.479   0.473   5.276  0.1694 -0.1418  0.3130
  433TIP3    H1 1263   0.533   0.396   5.296 -0.8210 -0.8474  0.3210
  433TIP3    H2 1264   0.409   0.440   5.221  0.7156  1.0961 -1.1918
  434TIP3   OH2 1265   4.917   5.132   1.876  0.1031 -0.5100  0.2847
  434TIP3    H1 1266   4.864   5.111   1.953 -0.8266 -0.5695 -0.3633
  434TIP3    H2 1267   5.000   5.087   1.891  0.0980 -0.1579  1.4599
  435TIP3   OH2 1268   6.715   1.482   0.673  0.5570 -0.1488  0.6476
  435TIP3    H1 1269   6.686   1.408   0.619  0.8985 -0.6573  1.1575
  435TIP3    H2 1270   6.636   1.535   0.685  0.4500 -0.0873 -0.2551
  436TIP3   OH2 1271   1.363   4.556   2.632 -0.0285  0.4427 -0.1892
  436TIP3    H1 1272   1.400   4.549   2.720  0.4499  1.3833 -0.2952
  436TIP3    H2 1273   1.337   4.467   2.609  1.5909 -0.1556  0.1441
  437TIP3   OH2 1274   2.628   3.587   4.080 -0.5047  0.6183  0.0490
  437TIP3    H1 1275   2.722   3.594   4.095 -0.5013 -0.7080  0.7959
  437TIP3    H2 1276   2.621   3.550   3.992 -0.3058  0.0560  0.2671
  438TIP3   OH2 1277   1.725   1.501   3.516  0.0702 -0.0896 -0.5040
  438TIP3    H1 1278   1.639   1.543   3.521 -0.5063 -0.9723 -2.3650
  438TIP3    H2 1279   1.771   1.548   3.447  0.7715 -0.2031 -0.1239
  439TIP3   OH2 1280   1.727   3.033   3.414 -0.2815  0.2538  0.0564
  439TIP3    H1 1281   1.634   3.038   3.435 -0.5428  0.9316 -1.1784
  439TIP3    H2 1282   1.738   2.945   3.377  0.1001 -0.7857  2.4695
  440TIP3   OH2 1283   5.971   0.792   5.683 -0.1688  0.5560 -0.1857
  440TIP3    H1 1284   5.880   0.807   5.657 -0.5062 -2.0039 -0.7247
  440TIP3    H2 1285   5.970   0.705   5.723  1.9241  0.8395  0.5942
  441TIP3   OH2 1286   4.392   5.537   3.900 -0.5217  0.4628  0.6277
  441TIP3    H1 1287   4.321   5.601   3.906  0.7292  1.8254  1.4631
  441TIP3    H2 1288   4.412   5.514   3.990  0.7110  0.8126  0.4606
  442TIP3   OH2 1289   3.101   0.431   3.480  0.4018  0.0788 -0.4203
  442TIP3    H1 1290   3.040   0.481   3.534 -0.5340 -2.0773  0.6484
  442TIP3    H2 1291   3.159   0.497   3.441 -1.3099  2.0268  0.1583
  443TIP3   OH2 1292   2.044   2.988   2.734  0.2209 -0.0531 -0.2349
  443TIP3    H1 1293   1.963   2.970   2.782 -0.1495  2.0067  0.0259
  443TIP3    H2 1294   2.048   2.920   2.667 -2.4778  0.5405 -1.1425
  444TIP3   OH2 1295   0.103   4.151   5.221 -0.4109  0.5316  0.3464
  444TIP3    H1 1296   0.055   4.123   5.142 -1.6222  1.1934  0.8186
  444TIP3    H2 1297   0.130   4.070   5.263  0.2972  0.1629 -0.7578
  445TIP3   OH2 1298   4.866   0.202   2.444  0.0745 -0.3494  0.3962
  445TIP3    H1 1299   4.948   0.185   2.398  0.5782 -1.8012  1.7744
  445TIP3    H2 1300   4.890   0.260   2.516 -0.0131 -1.1336  1.0672
  446TIP3   OH2 1301   3.001   6.031   2.625 -0.3494 -0.2444 -0.1665
  446TIP3    H1 1302   3.014   5.953   2.680 -0.7356  0.3861  0.8342
  446TIP3    H2 1303   3.057   6.015   2.549 -0.4152 -1.4984  0.0156
  447TIP3   OH2 1304   2.484   3.550   2.228 -0.2712 -0.0536 -0.5496
  447TIP3    H1 1305   2.524   3.631   2.260 -0.9011  0.5783 -1.3183
  447TIP3    H2 1306   2.396   3.576   2.201 -1.0499 -1.3081  0.6312
  448TIP3   OH2 1307   1.659   6.032   3.564 -0.1344 -0.0881  0.5773
  448TIP3    H1 1308   1.643   6.033   3.658  2.3493  0.8101  1.0650
  448TIP3    H2 1309   1.614   6.111   3.532  0.9636  0.9044  1.4214
  449TIP3   OH2 1310   5.390   5.281   1.105 -0.2663 -0.0844 -0.7399
  449TIP3    H1 1311   5.434   5.342   1.046 -0.7949  0.6856 -0.3587
  449TIP3    H2 1312   5.457   5.257   1.169  0.0269 -0.1494 -1.0676
  450TIP3   OH2 1313   1.500   0.634   4.907 -0.2794 -0.4094  0.3658
  450TIP3    H1 1314   1.448   0.656   4.984 -2.5521 -0.8761 -0.9483
  450TIP3    H2 1315   1.540   0.549   4.928 -1.2832 -0.7743  0.8595
  451TIP3   OH2 1316   0.682   5.856   2.103 -0.3394  0.0614 -0.2366
  451TIP3    H1 1317   0.655   5.783   2.047  0.1236  1.4133 -2.3377
  451TIP3    H2 1318   0.774   5.840   2.120 -0.2767  0.0594 -0.5634
  452TIP3   OH2 1319   1.552   1.625   0.494 -0.2337  0.2354  0.1491
  452TIP3    H1 1320   1.637   1.581   0.497 -0.9092 -1.2515 -0.9164
  452TIP3    H2 1321   1.562   1.701   0.551  1.7516  0.0149  0.1625
  453TIP3   OH2 1322   3.670   6.356   1.361 -0.2191  0.0232  0.2539
  453TIP3    H1 1323   3.588   6.390   1.326  0.1664  0.4006 -0.2893
  453TIP3    H2 1324   3.728   6.351   1.286  0.8550  1.5179  0.9379
  454TIP3   OH2 1325   2.967   6.518   1.942 -0.4315  0.1801  0.1921
  454TIP3    H1 1326   2.981   6.613   1.937  1.0648  0.1206  2.0969
  454TIP3    H2 1327   3.014   6.483   1.867 -1.4020  0.9475 -0.8093
  455TIP3   OH2 1328   0.221   0.502   4.744  0.5863  0.1646  0.0326
  455TIP3    H1 1329   0.203   0.476   4.654 -1.4678  0.8788  0.1817
  455TIP3    H2 1330   0.165   0.578   4.759  1.3032  0.4136  1.7505
  456TIP3   OH2 1331   7.145   5.410   4.107  0.0200 -0.6450 -0.0479
  456TIP3    H1 1332   7.238   5.421   4.126  0.1880 -1.4332 -0.3991
  456TIP3    H2 1333   7.107   5.497   4.121  0.8743 -0.2326 -0.2640
  457TIP3   OH2 1334   3.328   5.329   4.207 -0.2112 -0.1901 -0.3190
  457TIP3    H1 1335   3.399   5.325   4.271 -0.6530  2.8759  0.5099
  457TIP3    H2 1336   3.268   5.259   4.235  1.9373 -2.2318 -0.4958
  458TIP3   OH2 1337   6.913   2.190   3.897 -0.0084 -0.2656  0.0727
  458TIP3    H1 1338   6.956   2.270   3.865 -0.3228 -0.0206  0.2620
  458TIP3    H2 1339   6.822   2.216   3.912 -0.7994 -1.2677 -2.3361
  459TIP3   OH2 1340   2.878   4.788   5.287 -0.0895  0.0094 -0.2882
  459TIP3    H1 1341   2.896   4.737   5.366 -1.4059  0.2188  0.1586
  459TIP3    H2 1342   2.872   4.878   5.318 -0.5060  0.1027 -0.6403
  460TIP3   OH2 1343   1.782   2.888   0.112 -0.0241 -0.0751 -0.5360
  460TIP3    H1 1344   1.711   2.830   0.086 -0.1254  0.2011 -0.8827
  460TIP3    H2 1345   1.740   2.959   0.159  0.0525 -0.0624 -0.4861
  461TIP3   OH2 1346   1.103   2.621   5.090  0.1966 -0.2401 -0.2427
  461TIP3    H1 1347   1.021   2.573   5.096  0.6854 -0.9988  0.6976
  461TIP3    H2 1348   1.077   2.711   5.069 -0.7959 -0.6686 -0.9405
  462TIP3   OH2 1349   5.346   2.341   0.094 -0.3348 -0.3365  0.1683
  462TIP3    H1 1350   5.299   2.271   0.139 -3.2901  0.8040 -0.9134
  462TIP3    H2 1351   5.352   2.411   0.158 -0.4125 -0.3669  0.2090
  463TIP3   OH2 1352   6.480   0.313   5.858 -0.4699  0.2249 -1.0897
  463TIP3    H1 1353   6.440   0.235   5.820 -2.0224 -0.6407  1.9181
  463TIP3    H2 1354   6.423   0.385   5.830 -1.5884 -0.3796 -0.4479
  464TIP3   OH2 1355   1.780   5.181   0.932 -0.3699 -0.0494 -0.3826
  464TIP3    H1 1356   1.728   5.171   1.011 -0.1853  1.1632 -0.0852
  464TIP3    H2 1357   1.767   5.272   0.906  2.8135  0.8467  0.6402
  465TIP3   OH2 1358   4.894   1.974   3.694 -0.3070 -0.0499 -0.4150
  465TIP3    H1 1359   4.931   2.061   3.710 -0.9710  0.6054 -2.2407
  465TIP3    H2 1360   4.803   1.991   3.669 -0.3520 -1.2554 -1.1442
  466TIP3   OH2 1361   3.804   1.337   1.104  0.0652 -0.0738  0.1937
  466TIP3    H1 1362   3.824   1.300   1.190  2.2983  0.6550  0.0678
  466TIP3    H2 1363   3.725   1.389   1.118  0.9339  0.8332  2.0851
  467TIP3   OH2 1364   0.324   5.174   5.101 -0.9180 -0.5167  0.2841
  467TIP3    H1 1365   0.395   5.122   5.138 -0.9660 -0.9297 -0.2002
  467TIP3    H2 1366   0.361   5.211   5.020 -0.7483  0.5384  0.8186
  468TIP3   OH2 1367   0.160   6.578   4.019 -0.5023  0.2915 -0.2815
  468TIP3    H1 1368   0.132   6.576   4.111 -3.1419 -0.2593 -1.0146
  468TIP3    H2 1369   0.240   6.630   4.020  0.9318 -1.6770  2.6386
  469TIP3   OH2 1370   3.567   3.000   5.266  0.2750 -0.3090  0.5561
  469TIP3    H1 1371   3.539   2.981   5.355 -0.5092 -1.9739 -0.0166
  469TIP3    H2 1372   3.662   2.988   5.268  0.2359 -0.5758  1.1141
  470TIP3   OH2 1373   6.743   0.114   2.180 -0.0132 -0.2748  0.1898
  470TIP3    H1 1374   6.681   0.087   2.247  1.1698 -1.3853  0.8683
  470TIP3    H2 1375   6.749   0.040   2.121 -4.1312  1.9922 -3.7129
  471TIP3   OH2 1376   4.168   4.978   1.791  0.3961 -0.6614 -0.0741
  471TIP3    H1 1377   4.094   5.027   1.828 -0.3982  0.1206 -2.5059
  471TIP3    H2 1378   4.233   4.976   1.862 -0.7452  1.2847  1.1317
  472TIP3   OH2 1379   0.771   3.671   5.524  0.6661 -0.8775  0.0129
  472TIP3    H1 1380   0.849   3.637   5.480  0.2234 -2.8871  0.6521
  472TIP3    H2 1381   0.726   3.723   5.457  2.3708  0.0764 -0.4520
  473TIP3   OH2 1382   6.764   1.833   1.788 -0.2857  0.3936 -0.3392
  473TIP3    H1 1383   6.842   1.868   1.744 -0.4158  0.0872 -0.8173
  473TIP3    H2 1384   6.728   1.769   1.726  0.5309 -1.3841  0.9330
  474TIP3   OH2 1385   0.547   3.210   1.501  0.2062 -0.1266 -0.1072
  474TIP3    H1 1386   0.502   3.125   1.500  1.6815 -0.9888  0.9448
  474TIP3    H2 1387   0.572   3.222   1.593  3.2150 -0.3869 -0.7823
  475TIP3   OH2 1388   5.083   6.108   2.077  0.6266  0.5227 -0.1421
  475TIP3    H1 1389   5.004   6.131   2.126  0.3572  0.7597 -0.6755
  475TIP3    H2 1390   5.052   6.045   2.011  0.3591  2.5393 -2.0379
  476TIP3   OH2 1391   4.347   6.050   2.039  0.2381  0.0799  0.1478
  476TIP3    H1 1392   4.270   6.103   2.020  1.5621  1.2362 -2.6096
  476TIP3    H2 1393   4.354   6.050   2.134 -1.8106  1.9175  0.3662
  477TIP3   OH2 1394   0.714   6.043   3.585 -0.3034  0.0165 -0.2745
  477TIP3    H1 1395   0.706   5.975   3.652  2.1185 -1.8437 -1.7317
  477TIP3    H2 1396   0.668   6.008   3.509 -1.8080  1.5004 -0.1284
  478TIP3   OH2 1397   5.076   0.560   0.735  0.5609  0.1382  0.3858
  478TIP3    H1 1398   5.142   0.619   0.769  1.7182  0.3510 -1.9893
  478TIP3    H2 1399   5.041   0.605   0.658 -0.3320 -1.1802 -0.0201
  479TIP3   OH2 1400   0.087   4.912   0.448  1.3697  0.3329  0.0749
  479TIP3    H1 1401   0.141   4.912   0.527  2.1226  0.4019 -0.4268
  479TIP3    H2 1402  -0.003   4.908   0.480  1.6801 -0.0119  0.9228
  480TIP3   OH2 1403   1.489   2.733   2.154 -0.1134 -0.3435  0.7342
  480TIP3    H1 1404   1.524   2.744   2.066  0.6070 -0.1137  1.0399
  480TIP3    H2 1405   1.453   2.644   2.154  0.8646 -0.7516  0.5308
  481TIP3   OH2 1406   6.967   1.564   0.740  0.0848  0.0264  0.2842
  481TIP3    H1 1407   6.876   1.533   0.743 -0.1172  0.7046  1.8207
  481TIP3    H2 1408   7.015   1.503   0.795  0.6356 -0.4860 -0.7355
  482TIP3   OH2 1409   5.651   2.382   5.333  0.2802  0.4754  0.4985
  482TIP3    H1 1410   5.741   2.350   5.332  0.4422  0.9139 -0.3516
  482TIP3    H2 1411   5.620   2.364   5.421  1.2329  0.4145  0.8338
  483TIP3   OH2 1412   6.677   4.692   1.175  0.3423 -0.3286  0.6148
  483TIP3    H1 1413   6.726   4.610   1.168  3.0588  1.2184 -0.0306
  483TIP3    H2 1414   6.664   4.704   1.269 -0.7598 -1.7998  0.6907
  484TIP3   OH2 1415   1.145   5.120   3.804 -0.0634 -0.4031  0.5440
  484TIP3    H1 1416   1.062   5.112   3.851 -0.2500 -0.9142  0.1431
  484TIP3    H2 1417   1.181   5.204   3.832 -0.6979 -0.1943  0.7497
  485TIP3   OH2 1418   1.619   5.439   1.047 -0.4338 -0.0909  0.5084
  485TIP3    H1 1419   1.584   5.455   0.959 -1.4119  1.5839  1.1442
  485TIP3    H2 1420   1.701   5.488   1.049  0.7527 -1.9473 -0.1501
  486TIP3   OH2 1421   7.019   6.104   4.634 -0.2659  0.2505  0.1085
  486TIP3    H1 1422   7.032   6.135   4.545  0.1996 -0.0135  0.0800
  486TIP3    H2 1423   7.098   6.133   4.681  0.1114 -0.7426  0.1123
  487TIP3   OH2 1424   4.942   4.926   1.566  0.6242  0.1604 -0.0735
  487TIP3    H1 1425   5.002   4.934   1.640  0.2271  0.7696  0.1990
  487TIP3    H2 1426   4.895   5.010   1.564 -1.5659 -0.9549  0.9197
  488TIP3   OH2 1427   4.724   6.022   2.542  0.0111 -0.0642 -0.1065
  488TIP3    H1 1428   4.796   6.082   2.523 -0.0828  0.6452  1.6073
  488TIP3    H2 1429   4.768   5.943   2.576  0.0141  0.2574  0.6589
  489TIP3   OH2 1430   3.540   5.643   0.612  0.2497 -0.1184 -0.4510
  489TIP3    H1 1431   3.567   5.664   0.701  2.0920 -1.9674 -0.5009
  489TIP3    H2 1432   3.451   5.611   0.621  0.6192 -0.8737  0.8434
  490TIP3   OH2 1433   1.146   3.566   3.756  0.1164 -0.2454  0.6384
  490TIP3    H1 1434   1.179   3.477   3.758  2.3004  0.4281 -0.9941
  490TIP3    H2 1435   1.063   3.561   3.710  0.0314 -1.4677  0.9080
  491TIP3   OH2 1436   2.522   1.058   3.710  0.7566 -0.0371  0.4764
  491TIP3    H1 1437   2.495   0.982   3.762  0.5992  0.5081  1.2055
  491TIP3    H2 1438   2.554   1.020   3.628 -0.6311 -0.8201  0.2499
  492TIP3   OH2 1439   5.970   5.406   0.471 -0.0418  0.7750  0.4076
  492TIP3    H1 1440   5.892   5.354   0.452  0.5718 -0.4193  1.0408
  492TIP3    H2 1441   6.027   5.346   0.519  0.9502  1.8628  0.6159
  493TIP3   OH2 1442   4.964   2.520   2.072 -0.3856 -0.1739  0.1157
  493TIP3    H1 1443   5.014   2.579   2.128 -1.0389 -0.6426  1.2285
  493TIP3    H2 1444   5.022   2.445   2.057  0.3278  0.5871 -1.0420
  494TIP3   OH2 1445   4.100   1.627   0.560 -0.0495  0.6726  0.2853
  494TIP3    H1 1446   4.187   1.624   0.520 -1.0306  1.0978 -2.0433
  494TIP3    H2 1447   4.098   1.553   0.620  0.9545 -1.1069 -1.7494
  495TIP3   OH2 1448   0.303   1.324   4.390  0.1802 -0.6000 -0.1193
  495TIP3    H1 1449   0.272   1.256   4.331 -2.3574  1.0548 -0.8402
  495TIP3    H2 1450   0.382   1.358   4.347  1.6034 -3.1036  0.3524
  496TIP3   OH2 1451   5.710   2.078   1.880  0.0815 -0.2474  0.0673
  496TIP3    H1 1452   5.791   2.052   1.923  0.0480 -1.1212 -0.3817
  496TIP3    H2 1453   5.648   2.007   1.899 -0.8490  0.8039  1.1222
  497TIP3   OH2 1454   2.373   6.527   3.950  0.7542  0.0628 -0.2118
  497TIP3    H1 1455   2.305   6.546   4.015 -0.8155  1.7072 -2.2139
  497TIP3    H2 1456   2.357   6.436   3.925  0.7841 -0.2887  0.9657
  498TIP3   OH2 1457   2.696   5.062   0.325 -0.5335  0.2699 -0.1502
  498TIP3    H1 1458   2.650   4.987   0.361 -1.3731  0.8659  0.0288
  498TIP3    H2 1459   2.747   5.026   0.252 -1.3949 -0.3741 -0.4440
  499TIP3   OH2 1460   2.205   6.246   4.745 -0.0677  0.5149  0.5092
  499TIP3    H1 1461   2.245   6.262   4.659 -0.4186  0.6621  0.3668
  499TIP3    H2 1462   2.113   6.268   4.732 -0.4944 -1.1615  0.4470
  500TIP3   OH2 1463   6.515   1.002   5.389  0.0479  0.3837 -0.4421
  500TIP3    H1 1464   6.532   0.911   5.411 -1.5918  0.2448  0.3764
  500TIP3    H2 1465   6.596   1.048   5.413  0.3972 -0.6504  0.4421
  501TIP3   OH2 1466   0.539   3.071   1.868  0.4960 -0.6260  0.0641
  501TIP3    H1 1467   0.497   3.134   1.809  2.5730  1.5551  0.7765
  501TIP3    H2 1468   0.478   3.062   1.941  1.4861  3.2617  1.5824
  502TIP3   OH2 1469   6.937   2.609   0.815 -0.1413 -0.6967 -0.0486
  502TIP3    H1 1470   6.973   2.664   0.745  0.8504 -1.2440  0.0257
  502TIP3    H2 1471   6.907   2.671   0.881  2.0165 -0.2259  0.5661
  503TIP3   OH2 1472   4.171   1.196   1.639  0.5243  0.0451 -0.6699
  503TIP3    H1 1473   4.207   1.215   1.553  1.5138 -0.4653 -0.3887
  503TIP3    H2 1474   4.209   1.262   1.697  1.3384 -0.7306 -0.2998
  504TIP3   OH2 1475   0.653   3.403   1.769  0.2176 -0.4060  0.0414
  504TIP3    H1 1476   0.698   3.341   1.827  1.7666  0.9106  0.3490
  504TIP3    H2 1477   0.720   3.429   1.705 -1.0499 -0.7435 -1.4792
  505TIP3   OH2 1478   2.301   4.009   0.872 -0.3003  0.4916 -0.1601
  505TIP3    H1 1479   2.287   3.922   0.909  0.0535  0.3888 -0.2666
  505TIP3    H2 1480   2.220   4.056   0.891 -0.3336  0.2714  0.2649
  506TIP3   OH2 1481   2.329   4.161   3.490 -0.0299  0.1847  0.4628
  506TIP3    H1 1482   2.388   4.228   3.454  1.1884 -1.2890 -0.3823
  506TIP3    H2 1483   2.244   4.206   3.495  0.0328  0.9977 -2.9197
  507TIP3   OH2 1484   4.401   3.319   0.250  0.5676  0.0510 -0.3992
  507TIP3    H1 1485   4.418   3.409   0.278 -1.0288  0.5964 -1.0281
  507TIP3    H2 1486   4.419   3.266   0.327 -0.0609  1.1070  0.5091
  508TIP3   OH2 1487   4.903   4.608   2.974  0.2696  0.1272  0.3374
  508TIP3    H1 1488   4.898   4.541   2.906  1.0928 -0.9901  1.3482
  508TIP3    H2 1489   4.910   4.690   2.925 -3.8078 -0.0867 -1.0446
  509TIP3   OH2 1490   6.551   2.459   4.020 -0.0579 -0.0261  0.0262
  509TIP3    H1 1491   6.512   2.491   4.102 -0.9281 -1.0348  0.0362
  509TIP3    H2 1492   6.612   2.528   3.994 -0.1642  0.5634  1.2377
  510TIP3   OH2 1493   5.462   1.697   2.483 -0.3523 -0.1543 -0.2182
  510TIP3    H1 1494   5.482   1.702   2.577  0.5513  3.0095 -0.4624
  510TIP3    H2 1495   5.368   1.715   2.478 -0.1605  1.0025  0.0467
  511TIP3   OH2 1496   4.057   1.204   5.467 -0.0192 -0.0390 -0.1646
  511TIP3    H1 1497   4.022   1.119   5.494 -1.9715  0.1720 -1.8090
  511TIP3    H2 1498   3.981   1.262   5.466  0.9684  1.3142 -0.7293
  512TIP3   OH2 1499   0.268   6.297   3.944 -0.0757 -0.3476  0.3360
  512TIP3    H1 1500   0.232   6.385   3.931 -0.0589 -0.4829 -0.6977
  512TIP3    H2 1501   0.360   6.304   3.917  0.0486 -0.5774  0.6863
  513TIP3   OH2 1502   6.906   0.696   5.535  0.1239  0.1645 -0.5419
  513TIP3    H1 1503   6.974   0.748   5.577  1.0066 -1.5594  0.2412
  513TIP3    H2 1504   6.839   0.686   5.602 -0.7952  1.5576 -1.1982
  514TIP3   OH2 1505   2.186   2.040   3.929  0.4151  0.1828 -0.2615
  514TIP3    H1 1506   2.117   2.047   3.863  1.1187  3.2758 -0.7986
  514TIP3    H2 1507   2.267   2.040   3.880  0.9045  0.6794  0.5237
  515TIP3   OH2 1508   1.628   5.365   1.397 -0.1859 -0.2886 -0.3022
  515TIP3    H1 1509   1.608   5.273   1.412  1.6035 -0.4452  1.4452
  515TIP3    H2 1510   1.554   5.412   1.435 -0.3798 -0.9798  0.1906
  516TIP3   OH2 1511   6.167   1.601   2.050  0.4173 -0.3923  0.3128
  516TIP3    H1 1512   6.257   1.631   2.055  0.2964 -0.1417  1.3584
  516TIP3    H2 1513   6.116   1.681   2.035  0.1873 -0.1675  2.0472
  517TIP3   OH2 1514   6.811   2.071   0.956  0.0278  0.4980  0.2513
  517TIP3    H1 1515   6.732   2.122   0.941 -0.5256 -0.7271 -1.3249
  517TIP3    H2 1516   6.820   2.066   1.051 -2.5841 -0.5091  0.5055
  518TIP3   OH2 1517   3.590   2.475   1.630 -0.1082 -0.0670 -0.2410
  518TIP3    H1 1518   3.575   2.502   1.539 -1.1942  0.4916  0.0935
  518TIP3    H2 1519   3.503   2.462   1.666  0.2857  0.4339  0.9331
  519TIP3   OH2 1520   6.613   1.635   5.151 -0.2792  0.5416 -0.0792
  519TIP3    H1 1521   6.658   1.550   5.153  2.0665  1.6734 -0.6213
  519TIP3    H2 1522   6.520   1.613   5.161 -0.2122 -2.3681 -3.6237
  520TIP3   OH2 1523   2.395   6.477   2.941  0.1699 -0.3280  0.0600
  520TIP3    H1 1524   2.485   6.509   2.932  0.1673 -0.5660 -0.8200
  520TIP3    H2 1525   2.397   6.422   3.020  1.0228 -1.1268 -0.4998
  521TIP3   OH2 1526   4.865   3.882   0.347 -0.1864  0.1068  0.4553
  521TIP3    H1 1527   4.857   3.977   0.359 -0.4756 -0.0388  1.5746
  521TIP3    H2 1528   4.843   3.845   0.433  2.1162 -0.8689  0.7095
  522TIP3   OH2 1529   3.409   5.036   4.402  0.0607 -0.2887 -0.2216
  522TIP3    H1 1530   3.357   4.979   4.459 -0.1319 -1.2879 -1.3507
  522TIP3    H2 1531   3.456   4.975   4.344  1.6974  0.6261  0.0701
  523TIP3   OH2 1532   1.876   5.078   2.353 -0.2733  0.2207  0.3696
  523TIP3    H1 1533   1.782   5.090   2.340 -0.4537  1.1247  2.1637
  523TIP3    H2 1534   1.883   5.034   2.438  0.9199  0.6597  0.5189
  524TIP3   OH2 1535   6.413   5.082   5.159  0.0194 -0.4430 -0.4994
  524TIP3    H1 1536   6.464   5.148   5.112  0.2845 -0.6452 -0.4954
  524TIP3    H2 1537   6.331   5.127   5.182  0.8733  0.4228  0.9851
  525TIP3   OH2 1538   3.363   6.261   3.126 -0.3623 -0.5936  0.8278
  525TIP3    H1 1539   3.450   6.286   3.097 -0.5236 -1.1700 -0.2001
  525TIP3    H2 1540   3.305   6.327   3.089 -0.4447 -0.6454  0.8621
  526TIP3   OH2 1541   6.359   3.062   0.574  0.0735 -0.3499 -0.0871
  526TIP3    H1 1542   6.305   2.985   0.593 -0.1488  0.1948  1.6082
  526TIP3    H2 1543   6.299   3.124   0.534 -0.1328 -0.4217  0.1094
  527TIP3   OH2 1544   1.636   4.760   4.573 -0.3596  0.0249 -0.0101
  527TIP3    H1 1545   1.609   4.668   4.574  0.2548 -0.1776 -0.7758
  527TIP3    H2 1546   1.600   4.796   4.654  0.1500 -1.1071  0.7583
  528TIP3   OH2 1547   2.456   5.821   5.031  0.1078  0.3271  0.1583
  528TIP3    H1 1548   2.472   5.912   5.058  0.5820  0.0202  0.9684
  528TIP3    H2 1549   2.492   5.769   5.103  0.5849 -0.5280 -0.6761
  529TIP3   OH2 1550   1.466   1.751   5.254  0.6043 -0.5775  0.3935
  529TIP3    H1 1551   1.382   1.788   5.282  0.6552 -0.8242  0.8774
  529TIP3    H2 1552   1.479   1.787   5.166 -0.1937 -0.8412  0.1524
  530TIP3   OH2 1553   2.531   4.636   3.188  0.2081  0.8287 -0.7143
  530TIP3    H1 1554   2.470   4.696   3.230 -0.7507 -0.9840  0.6357
  530TIP3    H2 1555   2.481   4.596   3.117  0.3582  0.5564 -0.6681
  531TIP3   OH2 1556   1.081   4.437   0.698  0.3335  0.3757 -0.1399
  531TIP3    H1 1557   1.127   4.467   0.776 -2.6505  1.8089  1.2392
  531TIP3    H2 1558   1.102   4.502   0.631  2.8452 -0.8188 -0.6461
  532TIP3   OH2 1559   2.815   1.843   2.753  0.3863 -0.5393 -0.3217
  532TIP3    H1 1560   2.795   1.932   2.783  2.7099 -0.6600  2.0036
  532TIP3    H2 1561   2.736   1.793   2.771  0.0586  0.4639  1.2902
  533TIP3   OH2 1562   4.212   2.764   3.612 -0.0771 -0.1811  0.1526
  533TIP3    H1 1563   4.126   2.740   3.648  0.6238 -1.2621  1.1849
  533TIP3    H2 1564   4.201   2.854   3.583 -2.1259 -0.9161 -1.6015
  534TIP3   OH2 1565   3.309   2.851   2.558  0.5109 -0.4634 -0.0037
  534TIP3    H1 1566   3.214   2.845   2.567 -0.0613  1.6465 -3.1493
  534TIP3    H2 1567   3.332   2.780   2.498  0.9841 -0.9851  0.7697
  535TIP3   OH2 1568   2.690   1.525   4.047  0.6289 -0.2562 -0.4014
  535TIP3    H1 1569   2.632   1.470   3.995 -0.9114  0.6678  0.2665
  535TIP3    H2 1570   2.707   1.601   3.991 -0.4212  0.3855  0.1171
  536TIP3   OH2 1571   3.763   1.982   4.264 -0.2915  0.1176 -0.2118
  536TIP3    H1 1572   3.797   1.905   4.219  0.2489  1.1629 -1.6721
  536TIP3    H2 1573   3.774   1.962   4.357  3.1755 -0.1773 -0.5351
  537TIP3   OH2 1574   1.593   2.022   2.601 -0.2565  1.0300 -0.5010
  537TIP3    H1 1575   1.503   1.990   2.610  0.0445  0.1907 -0.4859
  537TIP3    H2 1576   1.628   2.022   2.691  0.0044  0.6447 -0.6034
  538TIP3   OH2 1577   4.139   5.812   2.816 -0.8001  0.4469  0.2134
  538TIP3    H1 1578   4.084   5.876   2.862  0.9338  0.7576  2.0096
  538TIP3    H2 1579   4.142   5.844   2.726  0.4454  3.3439  1.1463
  539TIP3   OH2 1580   3.053   6.495   4.687  0.2410 -0.7339 -0.8192
  539TIP3    H1 1581   3.119   6.427   4.669  0.7073  0.0056 -2.0274
  539TIP3    H2 1582   2.972   6.446   4.699  0.9461 -1.6563  0.4717
  540TIP3   OH2 1583   0.379   1.210   5.773 -0.3631  0.0642 -0.0193
  540TIP3    H1 1584   0.284   1.219   5.784 -0.4353 -0.7550  0.0751
  540TIP3    H2 1585   0.411   1.186   5.860  0.0536  1.1718  0.1533
  541TIP3   OH2 1586   3.235   1.252   0.423  0.3772  0.0269 -0.1372
  541TIP3    H1 1587   3.222   1.162   0.393  0.2057  0.3851 -1.1577
  541TIP3    H2 1588   3.272   1.298   0.348 -2.6366  1.6035 -0.8118
  542TIP3   OH2 1589   0.891   6.362   2.834 -0.6391  0.5262  0.3369
  542TIP3    H1 1590   0.981   6.375   2.806  0.2831 -0.9780  2.3651
  542TIP3    H2 1591   0.885   6.407   2.917 -1.8124  0.7202  0.1633
  543TIP3   OH2 1592   0.988   4.893   2.950  0.2029 -0.5222  0.5713
  543TIP3    H1 1593   0.980   4.960   2.882  0.6452 -0.0288  0.9954
  543TIP3    H2 1594   0.897   4.871   2.973  0.0405  0.4904  0.9624
  544TIP3   OH2 1595   0.062   1.718   2.864  0.2653  0.4961  0.6790
  544TIP3    H1 1596   0.119   1.644   2.884  2.6932  1.6612 -1.3894
  544TIP3    H2 1597   0.116   1.796   2.882  0.2055  1.6324 -3.2613
  545TIP3   OH2 1598   5.820   2.633   2.441 -0.0689  0.1935  0.4884
  545TIP3    H1 1599   5.734   2.613   2.477  0.2033  0.7485  1.4878
  545TIP3    H2 1600   5.804   2.696   2.371 -0.3675  1.4249  1.6316
  546TIP3   OH2 1601   2.231   4.671   4.766  0.0551  0.1502  0.0211
  546TIP3    H1 1602   2.189   4.601   4.816 -1.3284  1.9231  1.4959
  546TIP3    H2 1603   2.165   4.740   4.761  1.1376  1.1304 -1.9289
  547TIP3   OH2 1604   5.865   2.190   5.642  0.1324  0.2597  0.4050
  547TIP3    H1 1605   5.942   2.179   5.587 -1.6060  1.4847 -2.5376
  547TIP3    H2 1606   5.871   2.279   5.676  0.4371  0.0448  0.9210
  548TIP3   OH2 1607   1.111   5.724   2.539  0.7353 -0.0234  0.5763
  548TIP3    H1 1608   1.111   5.723   2.635  0.3015  0.9499  0.6025
  548TIP3    H2 1609   1.021   5.749   2.516  1.3353  1.7781 -0.0188
  549TIP3   OH2 1610   5.430   3.872   4.789  0.1963  0.2568 -0.6418
  549TIP3    H1 1611   5.517   3.908   4.772  0.0763 -0.2724 -2.7335
  549TIP3    H2 1612   5.394   3.858   4.702 -1.0284 -1.8375  0.1475
  550TIP3   OH2 1613   0.425   3.597   3.437  0.1300 -0.2973 -0.8063
  550TIP3    H1 1614   0.505   3.645   3.459  0.2164 -0.4726 -0.7402
  550TIP3    H2 1615   0.384   3.650   3.369  0.3803 -0.2883 -0.9512
  551TIP3   OH2 1616   0.702   3.185   3.362  0.2797 -0.0956  0.4189
  551TIP3    H1 1617   0.778   3.224   3.318  0.0657  0.8138  0.8323
  551TIP3    H2 1618   0.719   3.091   3.362  0.3047 -0.1368 -1.6026
  552TIP3   OH2 1619   6.813   5.946   3.087  0.2037  0.4515 -0.0005
  552TIP3    H1 1620   6.895   5.899   3.097  1.3336  2.3264  0.1829
  552TIP3    H2 1621   6.824   6.000   3.008 -1.0162  0.4296 -0.2184
  553TIP3   OH2 1622   2.288   6.395   0.607 -0.1147  0.3224  0.4177
  553TIP3    H1 1623   2.298   6.400   0.702 -2.2576  1.3906  0.6661
  553TIP3    H2 1624   2.206   6.347   0.595  0.9208 -1.1392 -0.9636
  554TIP3   OH2 1625   1.061   1.849   3.868  0.4201  0.3930 -0.0235
  554TIP3    H1 1626   1.053   1.759   3.902 -1.9263 -0.5054 -2.6377
  554TIP3    H2 1627   0.986   1.895   3.905 -1.4773 -0.2789 -2.7836
  555TIP3   OH2 1628   0.155   6.170   3.570  0.6132  0.0027 -0.2019
  555TIP3    H1 1629   0.245   6.140   3.569  1.8633  2.9439  2.7198
  555TIP3    H2 1630   0.111   6.114   3.634  1.4913  0.8421  1.2105
  556TIP3   OH2 1631   6.675   2.410   4.736  0.2946  0.0258 -0.1631
  556TIP3    H1 1632   6.663   2.446   4.824  0.2086 -1.0876  0.3016
  556TIP3    H2 1633   6.755   2.358   4.742  0.7076  0.5465 -0.9590
  557TIP3   OH2 1634   2.646   1.448   1.586 -0.2488  0.1247  0.0756
  557TIP3    H1 1635   2.593   1.522   1.555  0.9279  1.1336  0.3879
  557TIP3    H2 1636   2.716   1.441   1.521 -0.5034 -0.9102 -0.0949
  558TIP3   OH2 1637   3.723   6.656   1.408 -0.4027  0.6791 -0.5137
  558TIP3    H1 1638   3.632   6.680   1.394 -0.2480  1.9582  0.4712
  558TIP3    H2 1639   3.721   6.604   1.489 -0.2300  0.9469 -0.3365
  559TIP3   OH2 1640   7.016   5.086   2.939  0.3087 -0.0689  0.3589
  559TIP3    H1 1641   7.109   5.109   2.950  0.2490 -0.2080  1.2657
  559TIP3    H2 1642   6.973   5.169   2.919  0.3392  0.3753  1.9698
  560TIP3   OH2 1643   5.793   0.897   1.650 -0.1866  0.2223 -0.3158
  560TIP3    H1 1644   5.865   0.858   1.699  0.2621  1.2197 -0.1508
  560TIP3    H2 1645   5.813   0.991   1.649 -0.3247  0.2722 -2.1656
  561TIP3   OH2 1646   3.469   1.888   4.323  0.0051 -0.1374 -0.0400
  561TIP3    H1 1647   3.510   1.804   4.306 -0.1306 -0.2046 -0.0403
  561TIP3    H2 1648   3.533   1.953   4.294  1.1497 -0.1743  2.2143
  562TIP3   OH2 1649   1.453   2.968   4.731 -0.4947  0.0250 -0.3839
  562TIP3    H1 1650   1.468   2.893   4.674 -0.9395  0.9024 -1.7235
  562TIP3    H2 1651   1.540   2.991   4.764 -0.2458 -0.5912 -0.6078
  563TIP3   OH2 1652   6.998   5.246   5.366 -0.4238 -0.6317 -0.2246
  563TIP3    H1 1653   6.964   5.157   5.373  0.5964 -0.9133  1.7960
  563TIP3    H2 1654   7.091   5.235   5.346 -0.1544 -0.0614  0.6529
  564TIP3   OH2 1655   5.598   4.783   1.297 -0.0864 -0.3848  0.1922
  564TIP3    H1 1656   5.523   4.836   1.270 -0.1552  0.0230  1.1147
  564TIP3    H2 1657   5.670   4.814   1.242 -0.0313  0.9915  0.9681
  565TIP3   OH2 1658   5.446   5.005   5.821  0.4373  0.0695  0.2641
  565TIP3    H1 1659   5.413   5.084   5.864 -0.9136 -0.6184  0.5320
  565TIP3    H2 1660   5.375   4.941   5.829  0.4881 -0.3846 -2.2215
  566TIP3   OH2 1661   0.296   4.079   1.611 -0.0366  0.1361  0.1556
  566TIP3    H1 1662   0.266   4.086   1.702 -1.6157  1.6132 -0.4176
  566TIP3    H2 1663   0.356   4.153   1.601  0.9368 -0.6202  0.2448
  567TIP3   OH2 1664   0.137   5.223   3.451 -0.3693 -0.2029 -0.7436
  567TIP3    H1 1665   0.092   5.166   3.389 -1.3749  0.8283 -0.9899
  567TIP3    H2 1666   0.168   5.296   3.397 -0.8755  0.4921 -0.1054
  568TIP3   OH2 1667   4.810   1.290   1.338  0.2870 -0.7170 -0.6817
  568TIP3    H1 1668   4.863   1.298   1.418  1.2645 -1.0761 -1.2808
  568TIP3    H2 1669   4.776   1.201   1.342 -1.3988 -0.0642  0.3695
  569TIP3   OH2 1670   2.303   6.193   4.490 -0.3891  0.1088 -0.3767
  569TIP3    H1 1671   2.269   6.211   4.403  1.2950  2.3711 -0.6382
  569TIP3    H2 1672   2.391   6.230   4.490  0.5918 -1.9937  1.5284
  570TIP3   OH2 1673   3.994   2.930   5.016 -0.1625  0.1332 -0.1042
  570TIP3    H1 1674   4.029   2.967   5.097  0.5684 -1.6690  0.4503
  570TIP3    H2 1675   4.069   2.925   4.958  0.4442 -2.9359  0.7869
  571TIP3   OH2 1676   2.318   5.535   0.422 -0.4863 -0.1682 -0.5808
  571TIP3    H1 1677   2.274   5.467   0.372  0.7811 -2.0281  0.7034
  571TIP3    H2 1678   2.300   5.514   0.513 -2.0442  2.6603 -0.1233
  572TIP3   OH2 1679   6.735   0.267   4.718 -0.1132  0.9342  0.5640
  572TIP3    H1 1680   6.666   0.202   4.732  0.9634 -0.0549  1.4401
  572TIP3    H2 1681   6.689   0.351   4.720 -1.6197  0.2266 -1.1481
  573TIP3   OH2 1682   1.342   5.676   1.038  0.1446 -0.5262 -0.2457
  573TIP3    H1 1683   1.390   5.725   1.105  0.4412 -2.3241  0.9493
  573TIP3    H2 1684   1.404   5.668   0.965  0.8743 -0.9220  0.3962
  574TIP3   OH2 1685   3.015   2.285   1.406 -0.3208 -0.2393 -0.0562
  574TIP3    H1 1686   3.078   2.336   1.457 -0.4850 -0.8125  0.7369
  574TIP3    H2 1687   2.939   2.342   1.398 -0.5050 -0.3506  0.8211
  575TIP3   OH2 1688   2.711   3.475   2.002 -0.5973 -0.8289 -0.2606
  575TIP3    H1 1689   2.785   3.519   2.044 -0.2458 -1.4588 -0.2105
  575TIP3    H2 1690   2.639   3.483   2.065 -1.3273  1.9042 -1.2851
  576TIP3   OH2 1691   5.092   1.153   4.326  0.0038 -0.0040 -0.3296
  576TIP3    H1 1692   5.147   1.081   4.294 -0.7701 -0.3559 -0.8995
  576TIP3    H2 1693   5.060   1.123   4.411  0.7192  0.2218  0.0261
  577TIP3   OH2 1694   6.152   2.462   4.883 -0.5970  0.5481  0.2535
  577TIP3    H1 1695   6.090   2.390   4.887  0.0658  0.0054  1.5368
  577TIP3    H2 1696   6.098   2.540   4.870 -1.5742  0.1133  1.4962
  578TIP3   OH2 1697   0.913   4.521   4.900  0.5862 -0.6654 -0.4759
  578TIP3    H1 1698   0.889   4.561   4.984 -1.1739  1.2100 -1.7872
  578TIP3    H2 1699   1.005   4.546   4.887  0.0254  1.6538 -0.4538
  579TIP3   OH2 1700   6.515   0.200   4.343  0.4034  0.2939  0.6340
  579TIP3    H1 1701   6.475   0.269   4.290  1.8905 -0.6981 -1.9308
  579TIP3    H2 1702   6.604   0.230   4.358 -0.0618  0.6925  2.9697
  580TIP3   OH2 1703   2.750   6.485   1.450  0.3237  0.1454 -0.0684
  580TIP3    H1 1704   2.827   6.540   1.436  1.2183 -0.9286  0.4435
  580TIP3    H2 1705   2.758   6.415   1.386 -0.3824  0.1760 -0.1962
  581TIP3   OH2 1706   6.655   3.381   4.588 -0.4814 -0.3472  0.3715
  581TIP3    H1 1707   6.620   3.401   4.501  1.4029 -2.3172 -0.9817
  581TIP3    H2 1708   6.589   3.412   4.649 -2.8323 -0.6340 -1.8375
  582TIP3   OH2 1709   1.979   6.602   4.962  0.3283 -0.3239  0.0907
  582TIP3    H1 1710   2.053   6.544   4.982  2.6325  2.3408 -0.1333
  582TIP3    H2 1711   1.923   6.596   5.038  0.8590 -2.2348  0.3910
  583TIP3   OH2 1712   6.278   2.879   2.675  0.2301 -0.0620  0.3187
  583TIP3    H1 1713   6.333   2.809   2.709  0.9200  0.6745  0.7665
  583TIP3    H2 1714   6.222   2.837   2.610  2.1843 -0.6140 -1.0902
  584TIP3   OH2 1715   5.175   3.177   0.564 -0.2606  0.2610  0.4452
  584TIP3    H1 1716   5.149   3.232   0.490 -1.0031 -0.9772 -0.2442
  584TIP3    H2 1717   5.105   3.112   0.572  1.1221 -1.2721  0.5284
  585TIP3   OH2 1718   2.377   1.648   4.646  0.3418 -0.3338  0.2226
  585TIP3    H1 1719   2.393   1.731   4.602  1.1396 -1.1423 -1.0972
  585TIP3    H2 1720   2.334   1.593   4.580  0.8073 -1.3127  0.7084
  586TIP3   OH2 1721   0.962   3.266   4.371 -0.0814 -0.1574  0.2590
  586TIP3    H1 1722   0.951   3.199   4.438  0.1367  1.4925  2.0506
  586TIP3    H2 1723   0.898   3.244   4.303 -1.7526 -0.7868  1.9529
  587TIP3   OH2 1724   2.567   5.044   3.648 -0.1671  0.2989  0.5953
  587TIP3    H1 1725   2.544   5.020   3.738  0.5892  2.3256  1.3946
  587TIP3    H2 1726   2.591   5.137   3.654  0.6118  0.2846 -1.5701
  588TIP3   OH2 1727   5.010   0.939   2.528 -0.2028 -0.3134  0.1879
  588TIP3    H1 1728   5.097   0.939   2.568 -0.1632 -1.6739  0.1570
  588TIP3    H2 1729   4.953   0.976   2.595  0.3344  0.2181  0.3583
  589TIP3   OH2 1730   2.392   1.155   4.788 -0.2133  1.0818 -0.4225
  589TIP3    H1 1731   2.304   1.120   4.798  0.8327 -1.9086 -0.7482
  589TIP3    H2 1732   2.424   1.117   4.706  1.9433  0.7497  0.5162
  590TIP3   OH2 1733   1.080   3.146   1.102 -0.0904  0.2818 -0.0045
  590TIP3    H1 1734   1.126   3.216   1.056  0.7004 -0.6292 -0.6609
  590TIP3    H2 1735   1.124   3.141   1.187  0.9985 -0.5179 -0.5922
  591TIP3   OH2 1736   3.056   2.113   2.787  0.2341 -0.3653  0.3004
  591TIP3    H1 1737   3.117   2.040   2.793 -0.8876 -1.2683  1.1660
  591TIP3    H2 1738   3.077   2.156   2.704  1.4955 -1.1317  0.2071
  592TIP3   OH2 1739   2.774   1.237   2.184  0.5762 -0.5550  0.5080
  592TIP3    H1 1740   2.785   1.143   2.172 -0.5206 -0.8675  1.6926
  592TIP3    H2 1741   2.796   1.275   2.099 -0.9276 -2.0556 -0.6229
  593TIP3   OH2 1742   1.318   0.084   4.987  0.5133 -0.1413 -0.3505
  593TIP3    H1 1743   1.265   0.161   4.966  0.8842  0.0168 -0.7159
  593TIP3    H2 1744   1.267   0.010   4.955 -0.5736 -0.2006  1.3564
  594TIP3   OH2 1745   4.242   0.622   3.130 -0.1555 -0.0121  0.2276
  594TIP3    H1 1746   4.329   0.583   3.118 -0.2205 -0.1809  0.2974
  594TIP3    H2 1747   4.199   0.565   3.195  0.3286  1.0920  1.5813
  595TIP3   OH2 1748   0.555   0.762   0.059  0.0255 -0.4732 -0.2815
  595TIP3    H1 1749   0.637   0.781   0.103 -0.0346 -0.8587  0.0013
  595TIP3    H2 1750   0.549   0.828  -0.010  0.2111  0.0157  0.1646
  596TIP3   OH2 1751   4.468   3.590   1.054  0.4729 -0.3072  0.5646
  596TIP3    H1 1752   4.400   3.648   1.088 -0.9749 -0.2086 -2.1780
  596TIP3    H2 1753   4.420   3.516   1.018  2.1898 -2.6397  2.6692
  597TIP3   OH2 1754   5.597   4.490   1.005 -0.3236  0.1968  0.1603
  597TIP3    H1 1755   5.584   4.566   0.948 -2.0542 -0.5638 -0.5176
  597TIP3    H2 1756   5.543   4.509   1.082 -1.2146 -0.5525 -0.2560
  598TIP3   OH2 1757   1.975   4.974   4.247 -0.2183  0.6020  0.1393
  598TIP3    H1 1758   1.900   4.958   4.303 -0.4833 -0.3838 -0.4785
  598TIP3    H2 1759   2.002   4.888   4.217 -0.4838  1.1337 -1.7690
  599TIP3   OH2 1760   1.470   2.711   2.443 -0.5547  0.1647 -0.0643
  599TIP3    H1 1761   1.499   2.690   2.354 -0.9925 -2.4250  0.3256
  599TIP3    H2 1762   1.381   2.675   2.448 -0.8006  0.8873  1.2235
  600TIP3   OH2 1763   6.773   3.675   4.127  0.5690 -0.0369 -0.1835
  600TIP3    H1 1764   6.854   3.677   4.076  0.4511  0.7952 -0.3498
  600TIP3    H2 1765   6.705   3.703   4.066  0.3454  0.4499  0.2771
  601TIP3   OH2 1766   5.623   0.635   5.094  0.3327  0.5139  0.3215
  601TIP3    H1 1767   5.549   0.575   5.083  1.6331 -1.2133  0.5236
  601TIP3    H2 1768   5.675   0.624   5.014  2.0566 -0.8248  1.5443
  602TIP3   OH2 1769   5.351   5.079   3.002 -0.3436  0.9946  0.1719
  602TIP3    H1 1770   5.382   4.999   3.045  1.2033  1.6927  0.4501
  602TIP3    H2 1771   5.264   5.094   3.037 -0.0239  0.2833  1.3207
  603TIP3   OH2 1772   0.066   0.489   1.659 -0.2810  0.1235 -0.2484
  603TIP3    H1 1773   0.091   0.403   1.693 -1.0566  0.1565  0.4488
  603TIP3    H2 1774   0.047   0.474   1.567  3.4494  0.3358 -1.2046
  604TIP3   OH2 1775   3.669   5.364   3.305 -0.8979 -0.2141  0.1143
  604TIP3    H1 1776   3.595   5.373   3.245 -0.4655  0.0925 -0.3822
  604TIP3    H2 1777   3.702   5.453   3.317 -0.2597 -0.4163 -0.1212
  605TIP3   OH2 1778   5.030   6.121   4.916  0.7116  0.0740 -0.0895
  605TIP3    H1 1779   5.021   6.062   4.841  0.8468 -2.5888  1.8314
  605TIP3    H2 1780   5.124   6.124   4.933  0.5944 -0.3707  0.6952
  606TIP3   OH2 1781   2.777   2.880   1.601 -0.2186 -0.1591  0.2464
  606TIP3    H1 1782   2.763   2.953   1.662  0.9824 -1.1653  1.8196
  606TIP3    H2 1783   2.757   2.802   1.653 -1.0931 -0.9945 -1.2825
  607TIP3   OH2 1784   4.275   2.716   2.828  0.1244  0.1509  0.3515
  607TIP3    H1 1785   4.310   2.801   2.798 -0.3749  1.5389  3.3458
  607TIP3    H2 1786   4.295   2.656   2.756  3.4204  2.0783 -0.5892
  608TIP3   OH2 1787   0.061   6.476   2.772  0.6088 -0.0802  0.0019
  608TIP3    H1 1788   0.147   6.438   2.788  1.3921  1.2642 -0.8195
  608TIP3    H2 1789   0.080   6.563   2.736 -1.0745 -0.4050 -1.7983
  609TIP3   OH2 1790   0.187   1.300   2.265 -0.0152 -0.3581  0.4866
  609TIP3    H1 1791   0.271   1.343   2.250 -0.4153 -0.2728 -1.7968
  609TIP3    H2 1792   0.172   1.310   2.359  2.0030  0.5549  0.7738
  610TIP3   OH2 1793   0.230   1.026   3.954 -0.1786 -0.3290  0.0547
  610TIP3    H1 1794   0.308   1.071   3.985 -0.1686 -1.3988  1.7457
  610TIP3    H2 1795   0.221   1.052   3.862  0.3918  2.2180  0.6594
  611TIP3   OH2 1796   6.205   5.784   2.702  0.0708 -0.1768 -0.0454
  611TIP3    H1 1797   6.257   5.814   2.777 -0.4682 -0.6363  0.5219
  611TIP3    H2 1798   6.200   5.860   2.644 -0.6106  0.6033  1.0061
  612TIP3   OH2 1799   1.570   0.566   1.709 -0.0721 -0.0255  0.2289
  612TIP3    H1 1800   1.629   0.624   1.757 -2.2270  1.3276  1.4284
  612TIP3    H2 1801   1.495   0.555   1.767 -2.3473  0.7889 -2.3526
  613TIP3   OH2 1802   0.517   6.752   3.713 -0.0580 -0.6112 -0.0671
  613TIP3    H1 1803   0.441   6.740   3.656  0.5775 -2.8388 -0.5394
  613TIP3    H2 1804   0.553   6.837   3.686  0.5630 -1.7921 -3.5364
  614TIP3   OH2 1805   6.962   0.440   0.985  0.0738 -0.0797 -0.2337
  614TIP3    H1 1806   6.975   0.391   0.904  1.1576  1.4756 -1.0661
  614TIP3    H2 1807   7.040   0.495   0.992 -0.5350  0.6532  1.2698
  615TIP3   OH2 1808   2.264   5.042   4.051 -0.0991  0.1062 -0.2747
  615TIP3    H1 1809   2.187   5.071   4.002 -1.6861 -0.5859  1.6906
  615TIP3    H2 1810   2.258   4.947   4.051  0.8318  0.0417 -0.1779
  616TIP3   OH2 1811   4.102   6.702   3.391  0.4787  0.0493 -0.1266
  616TIP3    H1 1812   4.136   6.626   3.343 -0.4769 -0.3424 -0.2054
  616TIP3    H2 1813   4.007   6.697   3.378  0.2900  0.4438  1.0636
  617TIP3   OH2 1814   2.879   5.109   1.236  0.2859 -0.2411 -0.3374
  617TIP3    H1 1815   2.944   5.090   1.169 -0.2599 -0.4791 -0.8139
  617TIP3    H2 1816   2.849   5.197   1.217 -0.2279 -0.4934 -0.7177
  618TIP3   OH2 1817   6.008   3.638   5.654  0.4510 -0.0705 -0.2909
  618TIP3    H1 1818   5.965   3.635   5.568 -1.1018 -0.9447  0.4787
  618TIP3    H2 1819   5.940   3.665   5.715  1.3769 -0.0630  0.7763
  619TIP3   OH2 1820   0.944   1.459   4.514 -0.1686  0.1897  0.1475
  619TIP3    H1 1821   0.878   1.397   4.545  0.1600 -1.6558 -2.5179
  619TIP3    H2 1822   0.900   1.509   4.446  0.1131  1.6788  1.0193
  620TIP3   OH2 1823   5.582   0.275   1.160  0.2696  0.1464  0.1738
  620TIP3    H1 1824   5.530   0.199   1.188  0.9435  0.0439  1.1748
  620TIP3    H2 1825   5.670   0.241   1.149  0.5599  0.7693  0.5381
  621TIP3   OH2 1826   7.151   3.332   4.228 -0.3688  0.1828  0.0791
  621TIP3    H1 1827   7.202   3.411   4.250  0.6310 -0.8401  1.6393
  621TIP3    H2 1828   7.070   3.342   4.277 -0.1643  0.1520  0.4263
  622TIP3   OH2 1829   4.236   4.975   0.449 -0.1537  0.0675 -0.1352
  622TIP3    H1 1830   4.281   5.045   0.402 -0.7977  0.8028  0.3127
  622TIP3    H2 1831   4.270   4.894   0.411  2.2489  0.5534  0.7920
  623TIP3   OH2 1832   0.884   0.016   0.625 -0.2035  0.4788  0.6721
  623TIP3    H1 1833   0.944  -0.010   0.556  0.5474  1.7835  0.8091
  623TIP3    H2 1834   0.940   0.035   0.700 -0.8464  0.9338  1.0507
  624TIP3   OH2 1835   3.763   5.846   3.031  0.0361 -0.0137 -0.0406
  624TIP3    H1 1836   3.731   5.844   2.941  0.8755  0.4894 -0.3663
  624TIP3    H2 1837   3.697   5.895   3.079  0.2803  1.0042 -0.6964
  625TIP3   OH2 1838   1.989   2.737   1.459  0.3663  0.6702  0.4000
  625TIP3    H1 1839   2.044   2.739   1.381  1.5203  0.0960  1.1744
  625TIP3    H2 1840   1.977   2.829   1.483  0.4006  0.8241 -0.1779
  626TIP3   OH2 1841   1.916   6.178   4.420  0.0393  0.3117 -0.0130
  626TIP3    H1 1842   1.832   6.136   4.406  0.5791 -1.0606  0.6902
  626TIP3    H2 1843   1.947   6.200   4.332  0.1983 -1.7200 -0.5087
  627TIP3   OH2 1844   5.950   4.266   2.583  0.1373  0.5253 -0.1302
  627TIP3    H1 1845   5.962   4.190   2.526  2.4815  0.1546  0.7407
  627TIP3    H2 1846   6.001   4.335   2.542  1.2265  0.4682  1.0428
  628TIP3   OH2 1847   4.686   2.602   1.757  0.4677  0.2273 -0.2228
  628TIP3    H1 1848   4.683   2.597   1.662 -0.1833  0.0007 -0.1947
  628TIP3    H2 1849   4.714   2.515   1.785 -0.0433  0.0788 -0.1772
  629TIP3   OH2 1850   4.429   0.110   3.578  0.5926  0.2537  0.3805
  629TIP3    H1 1851   4.497   0.144   3.636  0.7932  3.5840 -1.5553
  629TIP3    H2 1852   4.349   0.155   3.607  0.7620  2.2773 -1.9235
  630TIP3   OH2 1853   2.585   3.277   0.279  0.1944 -0.1014  0.4990
  630TIP3    H1 1854   2.629   3.197   0.308  0.0125  0.1664  1.5502
  630TIP3    H2 1855   2.628   3.347   0.328  1.2847  0.6294 -1.4021
  631TIP3   OH2 1856   1.077   5.815   5.796  0.0077  0.0809 -0.0080
  631TIP3    H1 1857   1.158   5.797   5.748  0.8987  1.2120  1.0208
  631TIP3    H2 1858   1.106   5.845   5.882 -1.4710  1.9280 -0.0920
  632TIP3   OH2 1859   4.839   5.137   5.300  0.1529 -0.4380  0.2356
  632TIP3    H1 1860   4.831   5.178   5.214 -0.3369  1.4173  1.1255
  632TIP3    H2 1861   4.920   5.173   5.336  0.6137 -1.5788  0.3884
  633TIP3   OH2 1862   1.975   0.473   2.356 -0.3412  0.6986  0.0389
  633TIP3    H1 1863   1.891   0.514   2.377 -0.4738  0.7387 -0.5595
  633TIP3    H2 1864   2.033   0.546   2.339  0.0125  0.6978  1.1243
  634TIP3   OH2 1865   0.994   6.688   2.819 -0.2319  0.2204 -0.0983
  634TIP3    H1 1866   0.966   6.776   2.845 -1.4402  0.1830 -1.1530
  634TIP3    H2 1867   1.046   6.656   2.893 -1.3397  1.1101  1.1095
  635TIP3   OH2 1868   5.257   0.295   5.302  0.2432 -0.3157 -0.3207
  635TIP3    H1 1869   5.213   0.213   5.325  1.5753 -1.1736 -0.6499
  635TIP3    H2 1870   5.281   0.334   5.385 -0.5130 -0.1905 -0.1571
  636TIP3   OH2 1871   5.925   2.072   2.055 -0.4206  0.2961 -0.0829
  636TIP3    H1 1872   5.956   2.093   2.143  0.7262 -1.8478  0.0821
  636TIP3    H2 1873   5.997   2.095   1.997 -0.0292 -0.9905 -0.1304
  637TIP3   OH2 1874   5.720   6.410   2.442 -0.2486 -0.3359  0.6241
  637TIP3    H1 1875   5.638   6.422   2.490  0.1192  0.6574  1.0337
  637TIP3    H2 1876   5.768   6.344   2.492 -0.5767 -0.5371  0.6753
  638TIP3   OH2 1877   4.341   1.073   0.628  0.1454  0.5394  0.0919
  638TIP3    H1 1878   4.314   1.084   0.537 -0.8635  0.6888  0.3969
  638TIP3    H2 1879   4.296   0.993   0.657  2.4645 -0.9801 -0.2627
  639TIP3   OH2 1880   3.173   5.137   3.873 -0.2070  0.0334 -0.1008
  639TIP3    H1 1881   3.190   5.134   3.779  0.4454 -0.6264  0.0239
  639TIP3    H2 1882   3.244   5.191   3.908  0.1658 -0.5817  0.1216
  640TIP3   OH2 1883   5.957   2.505   2.054  0.1223  0.5524  0.1747
  640TIP3    H1 1884   5.956   2.580   1.995 -0.6124  1.4372  1.2790
  640TIP3    H2 1885   6.047   2.472   2.050  0.2360  0.9776 -0.9506
  641TIP3   OH2 1886   5.087   2.764   1.108 -0.1790 -0.2484  0.1744
  641TIP3    H1 1887   5.090   2.669   1.097 -2.9158 -0.3874 -0.0264
  641TIP3    H2 1888   5.149   2.798   1.043 -1.2766 -1.8158 -1.8083
  642TIP3   OH2 1889   1.427   6.223   4.558  0.3633 -0.1627 -0.1923
  642TIP3    H1 1890   1.505   6.208   4.504 -0.4911 -1.5469 -1.1239
  642TIP3    H2 1891   1.418   6.142   4.609 -0.4329  0.0107 -0.0507
  643TIP3   OH2 1892   0.821   4.367   0.731  0.1853  0.7556 -0.0777
  643TIP3    H1 1893   0.915   4.384   0.729 -0.2338  3.4869 -1.8953
  643TIP3    H2 1894   0.802   4.346   0.823  2.6820 -1.1142  0.1144
  644TIP3   OH2 1895   3.149   3.158   3.210  0.4766  0.2258 -0.2366
  644TIP3    H1 1896   3.128   3.159   3.116  3.1338 -0.8324 -0.9479
  644TIP3    H2 1897   3.227   3.213   3.216 -0.6174  1.6848  1.7145
  645TIP3   OH2 1898   5.576   5.965   0.784  0.0197  0.0820 -0.0104
  645TIP3    H1 1899   5.527   5.883   0.779 -0.6405  0.4616  0.1130
  645TIP3    H2 1900   5.667   5.940   0.769 -0.2664 -0.5783 -0.7108
  646TIP3   OH2 1901   3.944   0.645   4.132 -0.3450  0.4636  0.1833
  646TIP3    H1 1902   3.979   0.668   4.218  2.0788  0.2987 -0.6990
  646TIP3    H2 1903   3.851   0.627   4.149 -0.2915  1.9165  2.4674
  647TIP3   OH2 1904   0.686   5.775   0.811 -0.2093 -0.6708 -0.1527
  647TIP3    H1 1905   0.625   5.824   0.756 -0.2695 -1.4048 -0.7442
  647TIP3    H2 1906   0.725   5.710   0.753  0.6992 -0.6034  0.3624
  648TIP3   OH2 1907   5.301   3.886   3.665  0.3090  0.4111  0.5016
  648TIP3    H1 1908   5.345   3.970   3.648 -0.0515  0.2306 -1.5535
  648TIP3    H2 1909   5.318   3.834   3.587  1.7956 -2.0573  2.3243
  649TIP3   OH2 1910   3.678   1.790   1.892  0.3281  0.3220  0.2743
  649TIP3    H1 1911   3.740   1.718   1.898  0.6296  0.4965 -0.6008
  649TIP3    H2 1912   3.718   1.851   1.830  0.2165  1.3851  1.2306
  650TIP3   OH2 1913   6.070   0.413   5.308  0.1249  0.1710 -0.1855
  650TIP3    H1 1914   6.004   0.365   5.259 -0.3685  1.6627 -1.0497
  650TIP3    H2 1915   6.021   0.461   5.375  0.5643 -0.2282  0.4325
  651TIP3   OH2 1916   4.926   0.617   2.156  0.1722  0.5200  0.0834
  651TIP3    H1 1917   4.904   0.627   2.063 -0.4767 -0.2828  0.1387
  651TIP3    H2 1918   4.888   0.694   2.198 -0.6773  0.2345 -0.1391
  652TIP3   OH2 1919   3.478   2.249   0.480  0.2539 -0.2930 -0.1076
  652TIP3    H1 1920   3.428   2.317   0.525  0.3284  0.1220 -0.6469
  652TIP3    H2 1921   3.418   2.175   0.474 -0.4705  0.3521 -1.1525
  653TIP3   OH2 1922   2.837   3.361   1.370  0.0415  0.6414  0.4253
  653TIP3    H1 1923   2.748   3.387   1.391 -0.7060  0.1041 -1.8513
  653TIP3    H2 1924   2.889   3.393   1.444 -1.8917  1.7133  1.3973
  654TIP3   OH2 1925   3.829   2.387   4.003 -0.8100 -0.4895  0.0497
  654TIP3    H1 1926   3.881   2.307   3.999  0.4609  0.2740  0.8062
  654TIP3    H2 1927   3.881   2.448   4.055 -1.4488  1.0580 -1.0356
  655TIP3   OH2 1928   6.683   2.416   0.714 -0.1001 -0.2823  0.0789
  655TIP3    H1 1929   6.733   2.334   0.707  1.0394  0.1226  2.4773
  655TIP3    H2 1930   6.679   2.449   0.624 -0.9398 -3.1125 -1.0390
  656TIP3   OH2 1931   2.863   2.836   0.806  0.6402 -0.0540  0.1722
  656TIP3    H1 1932   2.871   2.828   0.711 -1.4908  0.6173 -0.1109
  656TIP3    H2 1933   2.934   2.782   0.840  0.4762 -1.6159 -1.7699
  657TIP3   OH2 1934   3.065   4.498   1.137  0.2057  0.2003  0.4952
  657TIP3    H1 1935   3.065   4.450   1.054 -2.5186 -0.8190  0.9828
  657TIP3    H2 1936   2.997   4.565   1.125 -0.3582 -0.0831  1.9484
  658TIP3   OH2 1937   0.716   0.739   4.606 -0.8415  0.6334 -0.2835
  658TIP3    H1 1938   0.652   0.668   4.605 -0.7343  0.5399 -0.7019
  658TIP3    H2 1939   0.801   0.695   4.604 -0.7548  0.7554 -2.6893
  659TIP3   OH2 1940   0.053   4.317   3.745  0.5860 -0.7150  0.0146
  659TIP3    H1 1941   0.068   4.252   3.677 -0.3513 -1.8658  0.8559
  659TIP3    H2 1942   0.115   4.294   3.815  0.0420 -0.9105  0.4416
  660TIP3   OH2 1943   3.363   1.073   2.916 -0.1543 -0.4587 -0.3825
  660TIP3    H1 1944   3.274   1.084   2.949  0.1699  1.1474  0.0504
  660TIP3    H2 1945   3.393   1.162   2.900  0.6120 -1.0451 -2.6345
  661TIP3   OH2 1946   1.689   3.959   0.721 -0.7275  0.1825 -0.2507
  661TIP3    H1 1947   1.713   3.959   0.813 -1.4291 -1.4840 -0.0275
  661TIP3    H2 1948   1.773   3.958   0.674 -0.3707  0.4053  0.3732
  662TIP3   OH2 1949   1.126   4.233   2.472 -0.5002  0.1354  0.7673
  662TIP3    H1 1950   1.219   4.250   2.482 -0.1415 -0.9291 -0.4905
  662TIP3    H2 1951   1.086   4.319   2.463  0.7948  0.5369 -2.0080
  663TIP3   OH2 1952   3.947   2.056   0.294 -0.5493  0.4863  0.4744
  663TIP3    H1 1953   3.969   2.145   0.320  0.8559  0.2006  0.3070
  663TIP3    H2 1954   3.856   2.045   0.323 -0.1119  1.2897  2.2889
  664TIP3   OH2 1955   3.277   0.405   0.681  0.1465 -0.2805 -0.0992
  664TIP3    H1 1956   3.181   0.405   0.690  0.2408 -0.2035  1.0721
  664TIP3    H2 1957   3.303   0.494   0.703  0.5865 -0.6505  0.9354
  665TIP3   OH2 1958   1.701   2.526   5.144  0.0350 -0.0586  0.1507
  665TIP3    H1 1959   1.674   2.526   5.236 -1.3602 -1.4337 -0.2097
  665TIP3    H2 1960   1.676   2.613   5.112 -2.3906 -0.6003  0.3398
  666TIP3   OH2 1961   6.557   6.485   2.657  0.0414  0.3315  0.5512
  666TIP3    H1 1962   6.536   6.568   2.700 -1.1599  1.3616 -1.8456
  666TIP3    H2 1963   6.645   6.498   2.621 -0.2845  0.7089 -0.1178
  667TIP3   OH2 1964   6.651   0.103   3.867  0.2195 -0.4955  0.2371
  667TIP3    H1 1965   6.701   0.063   3.938 -0.3474 -1.0205  0.3461
  667TIP3    H2 1966   6.619   0.029   3.815  0.6838 -0.1192 -0.6180
  668TIP3   OH2 1967   6.608   4.029   2.292  0.8100  0.4882  0.2819
  668TIP3    H1 1968   6.537   4.075   2.337 -1.3362 -2.0274 -0.2495
  668TIP3    H2 1969   6.587   4.039   2.199  0.1292 -1.6857  0.1638
  669TIP3   OH2 1970   0.761   1.397   2.292 -0.0902 -0.0200 -0.4291
  669TIP3    H1 1971   0.714   1.469   2.249 -0.0566  1.6201  2.0706
  669TIP3    H2 1972   0.777   1.333   2.222 -1.1377  1.8745 -2.5185
  670TIP3   OH2 1973   0.758   2.609   4.700  0.1074  0.5317 -0.3524
  670TIP3    H1 1974   0.785   2.698   4.722  0.3050  0.3411  0.1851
  670TIP3    H2 1975   0.763   2.561   4.783 -1.6442  0.4193 -0.2788
  671TIP3   OH2 1976   3.755   0.259   0.603 -0.2725  0.0956  0.8439
  671TIP3    H1 1977   3.711   0.343   0.592 -2.4546 -0.8982  1.3296
  671TIP3    H2 1978   3.721   0.204   0.533 -1.2532 -1.2290  2.2676
  672TIP3   OH2 1979   2.973   0.135   2.859 -0.7477  0.1890  0.2093
  672TIP3    H1 1980   2.985   0.216   2.910  0.0951 -0.6547  1.4037
  672TIP3    H2 1981   3.042   0.137   2.793 -0.2891  0.1391  0.6767
  673TIP3   OH2 1982   0.365   1.059   0.659 -0.2111 -0.1265  0.4558
  673TIP3    H1 1983   0.409   1.038   0.576  0.6497 -0.3054  0.9427
  673TIP3    H2 1984   0.437   1.079   0.719 -0.8826  1.5779  0.7469
  674TIP3   OH2 1985   6.458   6.257   1.573  0.1204  0.0777  0.0808
  674TIP3    H1 1986   6.493   6.174   1.606 -0.2433 -0.3838 -0.6635
  674TIP3    H2 1987   6.534   6.303   1.539  0.2665 -0.1261  0.1276
  675TIP3   OH2 1988   1.525   0.033   4.666  0.5560 -0.1973 -0.1472
  675TIP3    H1 1989   1.564   0.075   4.590 -0.2024  2.0404  0.6099
  675TIP3    H2 1990   1.582   0.058   4.739  0.9563 -1.8267  0.1279
  676TIP3   OH2 1991   4.258   5.973   5.596 -0.0581 -0.1558  0.1221
  676TIP3    H1 1992   4.259   5.878   5.605  0.9664 -0.1955 -0.2820
  676TIP3    H2 1993   4.275   5.989   5.504  0.2067  0.4248  0.2660
  677TIP3   OH2 1994   4.975   1.301   5.738  0.5492  0.0145 -1.1479
  677TIP3    H1 1995   5.026   1.277   5.816 -0.2688  0.5296 -0.4296
  677TIP3    H2 1996   5.032   1.361   5.690 -0.1693  2.4923  0.8483
  678TIP3   OH2 1997   5.444   0.709   3.258  0.0548  0.4007 -0.3769
  678TIP3    H1 1998   5.413   0.703   3.349 -0.5474 -0.8473 -0.6362
  678TIP3    H2 1999   5.460   0.618   3.233  1.2076  0.8146 -1.1992
  679TIP3   OH2 2000   4.907   2.195   0.277 -0.4388 -0.2619  0.8389
  679TIP3    H1 2001   4.980   2.229   0.330  0.0782 -1.0919  0.6751
  679TIP3    H2 2002   4.945   2.121   0.229 -1.1912 -0.2091  0.1500
  680TIP3   OH2 2003   1.392   4.635   4.996  0.0069  0.5133  0.7419
  680TIP3    H1 2004   1.324   4.698   4.975  0.1941 -0.2351 -2.8108
  680TIP3    H2 2005   1.348   4.550   4.995  0.8166  0.0739 -1.0182
  681TIP3   OH2 2006   2.418   6.081   4.817  0.2213 -0.1722  0.5620
  681TIP3    H1 2007   2.346   6.138   4.790 -2.2964 -2.0725  2.7168
  681TIP3    H2 2008   2.482   6.088   4.746 -1.4126  2.6903 -0.8117
  682TIP3   OH2 2009   4.041   0.348   0.558 -0.1489  0.2466 -0.0906
  682TIP3    H1 2010   4.110   0.289   0.530 -0.6120 -0.0427 -0.6309
  682TIP3    H2 2011   3.969   0.291   0.586 -0.2812  0.5437  0.1937
  683TIP3   OH2 2012   5.811   4.480   4.735  0.1794 -0.3429 -0.3563
  683TIP3    H1 2013   5.847   4.446   4.817  0.9473  1.0284 -0.1073
  683TIP3    H2 2014   5.864   4.556   4.715  1.0245 -1.5107 -2.9701
  684TIP3   OH2 2015   7.058   4.912   3.924 -0.2742  0.0837  1.0873
  684TIP3    H1 2016   7.049   4.939   4.016  1.1264  0.4765  1.1234
  684TIP3    H2 2017   7.149   4.886   3.915 -0.8018 -1.6525  0.2276
  685TIP3   OH2 2018   3.020   4.315   4.683 -0.0755 -0.0929  0.4069
  685TIP3    H1 2019   2.966   4.250   4.640 -0.6564 -0.5821  1.7974
  685TIP3    H2 2020   3.013   4.393   4.628 -0.7370 -0.6909 -0.3844
  686TIP3   OH2 2021   6.856   3.717   5.577  0.0041 -0.1171 -0.4211
  686TIP3    H1 2022   6.916   3.652   5.613 -0.3359  0.8375  2.1244
  686TIP3    H2 2023   6.890   3.801   5.609 -2.2942  0.4958  0.6016
  687TIP3   OH2 2024   0.683   5.658   1.478  0.0336  0.2434 -0.3547
  687TIP3    H1 2025   0.647   5.746   1.468 -1.0072 -0.1903 -0.4605
  687TIP3    H2 2026   0.607   5.601   1.486  0.6588 -0.7962 -1.4389
  688TIP3   OH2 2027   3.449   5.929   0.118 -0.2501  0.2057  0.4708
  688TIP3    H1 2028   3.434   5.959   0.207 -0.2380  1.5406  0.0397
  688TIP3    H2 2029   3.365   5.939   0.074 -0.5075 -1.3360  0.5488
  689TIP3   OH2 2030   1.257   3.776   0.155  0.4033  0.3131  0.2138
  689TIP3    H1 2031   1.257   3.687   0.192 -0.6426 -0.0129 -0.5317
  689TIP3    H2 2032   1.329   3.776   0.092  0.9114  0.2547  0.7781
  690TIP3   OH2 2033   2.290   2.869   2.431 -0.0594 -0.7677  0.3083
  690TIP3    H1 2034   2.231   2.847   2.359  0.3695  0.1224 -0.3309
  690TIP3    H2 2035   2.274   2.962   2.448  1.2556 -0.4769  0.0287
  691TIP3   OH2 2036   4.232   3.041   3.501 -0.0093 -0.1960  0.0091
  691TIP3    H1 2037   4.304   3.052   3.438 -0.4715  0.7249 -0.3924
  691TIP3    H2 2038   4.250   3.107   3.568  0.5542 -1.2724  0.9306
  692TIP3   OH2 2039   5.177   2.643   1.555  0.3801 -0.0474 -0.1657
  692TIP3    H1 2040   5.139   2.718   1.510 -1.8456 -1.4270 -0.7466
  692TIP3    H2 2041   5.250   2.615   1.500 -1.0954 -0.5270 -1.9725
  693TIP3   OH2 2042   2.982   1.726   3.881  0.1180 -0.1545  0.8951
  693TIP3    H1 2043   3.066   1.686   3.903 -0.4362 -1.0530  1.4207
  693TIP3    H2 2044   2.944   1.670   3.814  0.1341  0.5066  0.3217
  694TIP3   OH2 2045   6.557   3.383   5.447  0.5060 -0.6028  0.3356
  694TIP3    H1 2046   6.600   3.331   5.380  0.5052  0.3060 -0.3868
  694TIP3    H2 2047   6.551   3.325   5.523  0.7490 -1.5483 -0.3604
  695TIP3   OH2 2048   4.642   6.501   1.952  0.1300 -0.6741 -0.2682
  695TIP3    H1 2049   4.643   6.503   1.857 -1.1678 -1.2811 -0.3153
  695TIP3    H2 2050   4.629   6.592   1.978  0.3460 -0.5260 -0.6764
  696TIP3   OH2 2051   0.154   3.927   1.933  0.4769  0.0974  0.4746
  696TIP3    H1 2052   0.115   3.856   1.984  0.5686 -0.4298 -0.1728
  696TIP3    H2 2053   0.188   3.884   1.855  1.0423  0.7741  0.3377
  697TIP3   OH2 2054   0.358   6.427   4.796  0.1249  0.0400  0.1414
  697TIP3    H1 2055   0.356   6.372   4.718 -0.2891  0.4018 -0.1072
  697TIP3    H2 2056   0.422   6.385   4.853  0.9791  0.1752 -0.6917
  698TIP3   OH2 2057   1.959   1.131   3.137  0.1764 -0.1174 -0.1319
  698TIP3    H1 2058   1.955   1.202   3.202  2.3033 -0.8975  0.9253
  698TIP3    H2 2059   1.947   1.176   3.053 -2.5268  0.9333  0.6850
  699TIP3   OH2 2060   0.703   6.271   2.317 -0.1204  0.2405 -0.3068
  699TIP3    H1 2061   0.614   6.266   2.351 -0.3237  2.9634 -0.2145
  699TIP3    H2 2062   0.755   6.308   2.388  1.0615 -0.9784 -0.4826
  700TIP3   OH2 2063   0.632   4.633   0.722  0.2988 -0.3660  0.0164
  700TIP3    H1 2064   0.686   4.700   0.765  1.5041 -0.3811 -1.4069
  700TIP3    H2 2065   0.689   4.557   0.713 -0.2537 -0.7112 -0.6985
  701TIP3   OH2 2066   2.759   0.666   0.845  0.2242  0.0476 -0.5701
  701TIP3    H1 2067   2.710   0.670   0.927  1.1813  0.8958 -0.0172
  701TIP3    H2 2068   2.705   0.715   0.782  0.1415  0.5951 -0.0835
  702TIP3   OH2 2069   6.713   4.301   5.909  0.5042 -0.9190 -0.0105
  702TIP3    H1 2070   6.741   4.360   5.839 -2.1045 -0.0200 -0.3964
  702TIP3    H2 2071   6.637   4.254   5.872 -0.0195 -1.5021  1.7084
  703TIP3   OH2 2072   6.843   6.271   3.139  0.2779  0.2298 -0.5451
  703TIP3    H1 2073   6.842   6.305   3.228  0.6900 -0.0091 -0.4484
  703TIP3    H2 2074   6.751   6.270   3.112 -0.0717 -1.6633  0.6090
  704TIP3   OH2 2075   1.406   1.492   5.581  0.6662  0.3270  0.0205
  704TIP3    H1 2076   1.369   1.570   5.622  3.4425  2.2811 -0.8834
  704TIP3    H2 2077   1.501   1.499   5.597  1.1023 -2.4587 -0.8009
  705TIP3   OH2 2078   4.466   4.686   2.801 -0.3115  0.1907  0.0582
  705TIP3    H1 2079   4.467   4.768   2.851  0.4827  0.5855 -0.5842
  705TIP3    H2 2080   4.471   4.618   2.868  0.2884  0.7014  0.5466
  706TIP3   OH2 2081   5.342   6.472   4.440 -0.6105  0.2548 -0.1066
  706TIP3    H1 2082   5.365   6.421   4.518  1.0726 -1.3563 -1.5713
  706TIP3    H2 2083   5.277   6.535   4.472 -0.7285 -0.9745  2.3779
  707TIP3   OH2 2084   2.790   2.060   2.527  0.4730  0.5452 -0.5294
  707TIP3    H1 2085   2.811   2.035   2.437  0.6574  1.0207 -0.6241
  707TIP3    H2 2086   2.850   2.008   2.581 -1.2562 -1.5677 -0.5092
  708TIP3   OH2 2087   2.700   5.903   1.274  0.1196 -0.3968 -0.1395
  708TIP3    H1 2088   2.627   5.842   1.267  1.1562 -1.7236  0.1040
  708TIP3    H2 2089   2.750   5.890   1.193  1.8263 -1.9236  1.0711
  709TIP3   OH2 2090   0.602   0.441   1.029 -0.0915  0.0980  0.7856
  709TIP3    H1 2091   0.508   0.428   1.016 -0.5197  3.2330 -0.1930
  709TIP3    H2 2092   0.608   0.515   1.089  1.6830  1.1641 -0.5947
  710TIP3   OH2 2093   5.213   2.023   2.421 -0.1069  0.1046 -0.1437
  710TIP3    H1 2094   5.262   2.024   2.339  2.2620 -0.5544  1.1661
  710TIP3    H2 2095   5.165   1.940   2.419 -0.1197  0.1216 -0.8637
  711TIP3   OH2 2096   3.421   3.713   4.801 -0.1182 -0.2967 -0.0649
  711TIP3    H1 2097   3.366   3.653   4.851 -1.8680  0.7710 -0.6300
  711TIP3    H2 2098   3.387   3.709   4.711  0.0901  1.0699 -0.2403
  712TIP3   OH2 2099   7.007   3.844   3.642  0.2033  0.2823 -0.0674
  712TIP3    H1 2100   6.965   3.930   3.645 -0.3240  0.0730 -1.0269
  712TIP3    H2 2101   7.075   3.848   3.709 -1.9409  0.3097  2.2714
  713TIP3   OH2 2102   6.658   3.766   1.185  0.7751  0.1238  0.2608
  713TIP3    H1 2103   6.726   3.706   1.217  0.5361 -2.0475 -2.9303
  713TIP3    H2 2104   6.585   3.710   1.161 -0.2611  1.9009 -0.9979
  714TIP3   OH2 2105   6.159   0.434   1.654  0.0180 -0.7323  0.5905
  714TIP3    H1 2106   6.241   0.455   1.609  0.9451 -3.2871  0.9259
  714TIP3    H2 2107   6.107   0.514   1.647  2.6013  1.0867  0.5540
  715TIP3   OH2 2108   1.475   4.962   0.647 -0.0323  0.2666  0.1467
  715TIP3    H1 2109   1.550   5.000   0.602 -1.2055  0.7487 -1.5002
  715TIP3    H2 2110   1.421   5.037   0.672  1.3864  0.1854  4.0702
  716TIP3   OH2 2111   3.807   5.300   0.462  0.1410 -0.0289  0.0976
  716TIP3    H1 2112   3.781   5.276   0.373  0.9716  0.2108 -0.2194
  716TIP3    H2 2113   3.725   5.303   0.511 -0.4232  0.5630 -0.8417
  717TIP3   OH2 2114   2.020   2.765   2.973 -0.1887 -0.5594  0.2345
  717TIP3    H1 2115   1.966   2.843   2.960  0.9056  0.3498  1.0044
  717TIP3    H2 2116   1.963   2.705   3.022 -0.1231  0.8886  2.2080
  718TIP3   OH2 2117   2.045   6.180   0.375 -0.3020  0.0503 -0.1204
  718TIP3    H1 2118   1.974   6.133   0.330 -0.2600 -0.4817  0.3601
  718TIP3    H2 2119   2.020   6.272   0.369 -1.4621 -0.1816  0.7571
  719TIP3   OH2 2120   5.078   1.058   5.381  0.2311 -0.1520  0.5600
  719TIP3    H1 2121   5.103   0.968   5.359 -1.2913 -0.2858 -0.8607
  719TIP3    H2 2122   5.024   1.050   5.459 -0.3272 -0.5422  0.1381
  720TIP3   OH2 2123   4.892   3.364   4.919  0.1789  0.5795 -0.3907
  720TIP3    H1 2124   4.823   3.357   4.985 -0.8244 -0.4169 -1.4894
  720TIP3    H2 2125   4.912   3.458   4.916 -1.1765  0.9024 -0.0803
  721TIP3   OH2 2126   2.404   3.155   1.236  0.2731  0.4222  0.4819
  721TIP3    H1 2127   2.446   3.188   1.157  0.6711 -0.9383  0.1083
  721TIP3    H2 2128   2.475   3.148   1.300  0.0965  0.7404  0.7206
  722TIP3   OH2 2129   6.159   0.750   2.753  0.5367 -0.6353  0.3170
  722TIP3    H1 2130   6.142   0.729   2.661 -2.2230 -0.0307  0.5849
  722TIP3    H2 2131   6.163   0.845   2.756 -0.5187 -0.5849  0.9179
  723TIP3   OH2 2132   2.618   2.920   4.316  0.5666  0.0788  0.5054
  723TIP3    H1 2133   2.541   2.961   4.355  0.1293  2.3150 -2.4102
  723TIP3    H2 2134   2.582   2.859   4.251  1.3135 -1.5418  1.5302
  724TIP3   OH2 2135   2.237   2.810   0.929 -0.3092 -0.0502 -0.1529
  724TIP3    H1 2136   2.246   2.864   0.850  0.1017  0.5907  0.3225
  724TIP3    H2 2137   2.323   2.815   0.972  0.0827 -1.9154 -0.6026
  725TIP3   OH2 2138   4.566   1.213   3.762  0.1842 -0.5439 -0.1519
  725TIP3    H1 2139   4.597   1.221   3.672 -1.7923 -1.2812 -0.9400
  725TIP3    H2 2140   4.559   1.119   3.778 -0.4302 -0.4116  0.4268
  726TIP3   OH2 2141   6.611   3.192   2.366 -0.1419  0.4213 -0.0574
  726TIP3    H1 2142   6.560   3.149   2.435 -0.7146  0.1642 -0.6348
  726TIP3    H2 2143   6.681   3.130   2.346 -0.8372 -0.1602 -0.7336
  727TIP3   OH2 2144   6.344   6.572   1.814  0.3905  0.1601  0.7334
  727TIP3    H1 2145   6.278   6.521   1.861 -0.1103  0.1295  0.0095
  727TIP3    H2 2146   6.327   6.555   1.721  2.3108 -1.0007  0.5223
  728TIP3   OH2 2147   6.442   4.157   1.427  0.0632 -0.0858 -0.2874
  728TIP3    H1 2148   6.430   4.205   1.345 -0.4007 -0.5287 -0.4861
  728TIP3    H2 2149   6.470   4.224   1.490 -0.6676  0.4644 -0.5323
  729TIP3   OH2 2150   1.344   5.760   0.489 -0.1213  0.3721  0.1776
  729TIP3    H1 2151   1.415   5.823   0.477 -0.1633  0.2796 -0.6532
  729TIP3    H2 2152   1.283   5.779   0.418 -1.0846  0.6432  1.0510
  730TIP3   OH2 2153   1.645   1.144   0.271  0.1634  0.6719 -0.1909
  730TIP3    H1 2154   1.738   1.165   0.280  0.0588  1.3264 -0.5302
  730TIP3    H2 2155   1.639   1.050   0.289  0.7905  0.7578  0.5038
  731TIP3   OH2 2156   5.328   6.600   1.151 -0.0780  0.1233 -0.5539
  731TIP3    H1 2157   5.245   6.632   1.116 -0.2841 -0.0600 -0.2328
  731TIP3    H2 2158   5.318   6.605   1.246 -0.3708 -1.5079 -0.4750
  732TIP3   OH2 2159   6.709   4.027   4.227  0.2738  0.2031 -0.5339
  732TIP3    H1 2160   6.665   3.970   4.163  1.0057 -0.4186 -0.4904
  732TIP3    H2 2161   6.694   4.115   4.193  0.3688 -0.0987 -1.4046
  733TIP3   OH2 2162   1.635   3.383   1.722 -0.2370 -0.2973  0.1500
  733TIP3    H1 2163   1.704   3.433   1.766 -0.1076 -0.8111  0.5434
  733TIP3    H2 2164   1.647   3.403   1.629  0.5941 -0.5501  0.1897
  734TIP3   OH2 2165   6.486   2.533   4.317  0.3117  0.3228  0.0060
  734TIP3    H1 2166   6.557   2.497   4.371  1.9875  2.1336 -0.9119
  734TIP3    H2 2167   6.450   2.604   4.370 -0.3617 -0.1039  0.1415
  735TIP3   OH2 2168   1.578   2.536   4.291  0.4725  0.6310  0.1225
  735TIP3    H1 2169   1.594   2.618   4.244  0.4046  0.2516 -0.5853
  735TIP3    H2 2170   1.483   2.528   4.294  0.4270 -0.6627 -2.1198
  736TIP3   OH2 2171   0.893   1.705   2.834  0.3111  0.4309  0.1602
  736TIP3    H1 2172   0.927   1.791   2.858 -1.0909  0.5965  1.8268
  736TIP3    H2 2173   0.811   1.724   2.788  0.3492 -0.0026 -0.0896
  737TIP3   OH2 2174   0.696   0.167   4.408 -0.5881 -0.0562  0.6873
  737TIP3    H1 2175   0.738   0.139   4.489  0.7658  0.2362  0.1207
  737TIP3    H2 2176   0.755   0.135   4.339 -0.9874  0.9104 -0.1213
  738TIP3   OH2 2177   6.037   4.864   3.696  0.1600 -0.5820  0.4424
  738TIP3    H1 2178   6.030   4.791   3.634 -0.9497 -1.1585  1.2094
  738TIP3    H2 2179   6.110   4.840   3.753 -1.0235 -1.8038  1.5308
  739TIP3   OH2 2180   5.508   4.348   5.073 -0.6060 -0.0872 -0.5156
  739TIP3    H1 2181   5.427   4.303   5.095 -0.3317  0.2414  1.4009
  739TIP3    H2 2182   5.578   4.286   5.096 -0.2372  1.0780  1.8685
  740TIP3   OH2 2183   3.350   0.955   5.320  0.5302 -0.2149  0.0764
  740TIP3    H1 2184   3.281   0.896   5.292  0.1955 -0.1732  0.8112
  740TIP3    H2 2185   3.336   0.968   5.413 -0.0086  1.8023 -0.2393
  741TIP3   OH2 2186   6.978   2.853   5.214 -0.3721  0.1921 -0.2323
  741TIP3    H1 2187   7.022   2.898   5.142 -0.1189  0.8795  0.3430
  741TIP3    H2 2188   6.893   2.896   5.221  0.8824  2.6334  2.1410
  742TIP3   OH2 2189   4.845   3.749   2.720  0.0908  0.2409 -0.2631
  742TIP3    H1 2190   4.838   3.657   2.692  0.5070 -0.3302  1.4066
  742TIP3    H2 2191   4.832   3.799   2.640 -0.0396 -1.2807 -1.2365
  743TIP3   OH2 2192   6.815   2.497   3.186  0.4523  0.3218 -0.6461
  743TIP3    H1 2193   6.775   2.414   3.213  1.5581  0.0207  0.1140
  743TIP3    H2 2194   6.774   2.563   3.243  1.4787 -0.0725  0.5808
  744TIP3   OH2 2195   6.722   1.920   5.430 -0.2731 -0.7704  0.5854
  744TIP3    H1 2196   6.691   1.881   5.512 -1.2944 -2.3636 -0.4822
  744TIP3    H2 2197   6.659   1.989   5.411 -0.8516 -1.3280  0.4510
  745TIP3   OH2 2198   4.242   6.668   1.072  0.5228 -0.2611 -0.7605
  745TIP3    H1 2199   4.204   6.715   1.146  1.1965  1.4696 -1.4545
  745TIP3    H2 2200   4.315   6.619   1.110  0.0668 -0.4166 -0.0750
  746TIP3   OH2 2201   2.297   0.813   3.147 -0.1363 -0.3765  0.2479
  746TIP3    H1 2202   2.297   0.907   3.166 -1.1530 -0.0218 -1.3195
  746TIP3    H2 2203   2.221   0.801   3.090 -1.3654 -2.5343  2.1630
  747TIP3   OH2 2204   3.529   6.560   4.822 -0.3297  0.1735  0.0726
  747TIP3    H1 2205   3.518   6.556   4.727  0.2918 -0.3531  0.0148
  747TIP3    H2 2206   3.441   6.572   4.856 -0.4721  1.1350 -0.6070
  748TIP3   OH2 2207   0.859   6.707   4.083 -0.4820  0.0035  0.3055
  748TIP3    H1 2208   0.848   6.784   4.027  0.8997 -1.4494 -2.1449
  748TIP3    H2 2209   0.939   6.725   4.132  2.3251 -1.3801 -3.3092
  749TIP3   OH2 2210   4.223   5.489   0.156 -0.7439 -0.4011  0.1924
  749TIP3    H1 2211   4.170   5.467   0.080  0.5966 -1.3200 -0.5262
  749TIP3    H2 2212   4.219   5.584   0.161 -1.2666 -0.3610 -0.7271
  750TIP3   OH2 2213   1.223   1.918   5.267  0.1857 -0.3340 -0.3008
  750TIP3    H1 2214   1.254   1.927   5.177 -2.1721 -0.8391 -1.2446
  750TIP3    H2 2215   1.231   2.007   5.303 -3.2049  1.1284 -2.6303
  751TIP3   OH2 2216   2.835   0.949   1.661  0.4001  0.1887 -0.4351
  751TIP3    H1 2217   2.768   0.885   1.637  0.3712  0.9568 -2.6063
  751TIP3    H2 2218   2.801   0.990   1.741 -1.6989  0.5162 -1.4301
  752TIP3   OH2 2219   0.065   0.090   3.815 -0.6495  0.1959  0.6486
  752TIP3    H1 2220   0.083   0.163   3.875 -0.5345  1.3151 -0.6911
  752TIP3    H2 2221   0.147   0.079   3.766 -1.1463  0.1989 -0.2007
  753TIP3   OH2 2222   4.023   3.243   0.727  0.1588  0.1152 -0.4652
  753TIP3    H1 2223   3.955   3.278   0.671  0.4703  0.0106 -0.9114
  753TIP3    H2 2224   3.982   3.235   0.813  0.2180  2.1355 -0.1915
  754TIP3   OH2 2225   3.577   5.207   4.491 -0.2551  0.0566  0.3895
  754TIP3    H1 2226   3.659   5.178   4.452 -0.6709 -0.1503 -0.3435
  754TIP3    H2 2227   3.510   5.153   4.450 -0.8051  0.5320  0.6436
  755TIP3   OH2 2228   4.805   3.814   0.079 -0.2171  0.1551  0.1849
  755TIP3    H1 2229   4.888   3.773   0.055 -1.3660 -1.9961 -0.3440
  755TIP3    H2 2230   4.824   3.860   0.161  2.2362  2.4005 -1.4746
  756TIP3   OH2 2231   1.576   2.239   5.421 -0.4343 -1.3560  0.4387
  756TIP3    H1 2232   1.550   2.328   5.397 -1.7557 -1.9966 -0.6171
  756TIP3    H2 2233   1.628   2.250   5.501 -0.5139  0.3585  0.2891
  757TIP3   OH2 2234   1.159   6.534   5.111  0.0766 -0.4982  0.0762
  757TIP3    H1 2235   1.149   6.628   5.126  0.6023 -0.4455  0.0864
  757TIP3    H2 2236   1.110   6.518   5.030  1.2297  0.0465 -0.7467
  758TIP3   OH2 2237   7.101   2.173   5.146 -0.1164 -0.2805 -0.4070
  758TIP3    H1 2238   7.065   2.111   5.209  0.6152 -0.5398 -0.2320
  758TIP3    H2 2239   7.025   2.206   5.098 -0.8114  0.6804  1.2756
  759TIP3   OH2 2240   2.276   2.714   3.617  0.2280 -0.2238  0.2068
  759TIP3    H1 2241   2.251   2.636   3.568 -0.0871 -0.0235  0.0466
  759TIP3    H2 2242   2.241   2.787   3.566 -1.8661 -0.0879  1.7188
  760TIP3   OH2 2243   6.176   1.680   1.678 -0.2014  0.0939 -0.3632
  760TIP3    H1 2244   6.166   1.775   1.670  0.0948  0.1666  0.1307
  760TIP3    H2 2245   6.101   1.651   1.730 -0.0349  0.1162 -0.1122
  761TIP3   OH2 2246   6.914   3.328   2.653  0.1439  0.0543  0.3036
  761TIP3    H1 2247   6.872   3.248   2.622  0.2607  0.6454 -1.5294
  761TIP3    H2 2248   7.001   3.301   2.682  0.9755 -0.2449 -2.2575
  762TIP3   OH2 2249   1.909   0.055   0.711 -0.1033 -0.3776 -1.1270
  762TIP3    H1 2250   1.931   0.127   0.770 -0.4495  0.4374 -1.9646
  762TIP3    H2 2251   1.976   0.058   0.643 -0.6936 -0.1782 -1.7197
  763TIP3   OH2 2252   5.945   1.587   5.276 -0.9291  0.1040 -0.5976
  763TIP3    H1 2253   5.859   1.628   5.278 -0.4231  1.3409 -2.0675
  763TIP3    H2 2254   5.974   1.596   5.185  0.4291 -0.9703 -0.3090
  764TIP3   OH2 2255   4.297   5.716   5.653 -0.1721 -0.1956  1.1717
  764TIP3    H1 2256   4.225   5.682   5.600  0.0412 -2.4332  2.2028
  764TIP3    H2 2257   4.376   5.680   5.612  0.5074  2.5568 -0.1940
  765TIP3   OH2 2258   0.267   4.636   4.689 -0.1100 -0.4980  0.3185
  765TIP3    H1 2259   0.324   4.696   4.737 -2.0689  1.6741  0.1319
  765TIP3    H2 2260   0.199   4.613   4.753  0.0223 -1.6461  0.0513
  766TIP3   OH2 2261   4.203   3.580   2.457  0.0940  0.7998  0.0033
  766TIP3    H1 2262   4.180   3.612   2.545  0.6498 -0.5686  0.6741
  766TIP3    H2 2263   4.261   3.506   2.473 -0.1616  0.2383 -1.5213
  767TIP3   OH2 2264   4.636   3.799   0.972  0.2436 -0.3280  0.4747
  767TIP3    H1 2265   4.591   3.871   1.017 -1.0416 -1.7999  1.6553
  767TIP3    H2 2266   4.580   3.723   0.986  1.5545 -1.5845 -0.7435
  768TIP3   OH2 2267   7.141   0.446   5.774 -0.2127  0.3268 -0.3689
  768TIP3    H1 2268   7.076   0.458   5.844  2.0887  1.1880  1.8046
  768TIP3    H2 2269   7.161   0.535   5.746  2.6063  0.4508  1.6643
  769TIP3   OH2 2270   3.523   3.768   2.961 -0.4729  0.5095 -0.2629
  769TIP3    H1 2271   3.468   3.725   2.896 -0.5524  2.2295 -1.4083
  769TIP3    H2 2272   3.463   3.791   3.032 -0.5711 -0.5562  0.0043
  770TIP3   OH2 2273   6.628   2.236   3.864  0.5647  0.0996 -0.2802
  770TIP3    H1 2274   6.555   2.193   3.820  0.1753  0.9876 -0.5401
  770TIP3    H2 2275   6.586   2.302   3.920  1.1835  2.2565 -2.1807
  771TIP3   OH2 2276   5.818   0.719   4.566  0.1287  0.0996  0.2443
  771TIP3    H1 2277   5.791   0.809   4.546 -0.0329  0.4883  2.0363
  771TIP3    H2 2278   5.765   0.664   4.508 -0.4947  1.1140 -0.1670
  772TIP3   OH2 2279   2.310   6.428   1.456  0.4429  0.5032  0.1358
  772TIP3    H1 2280   2.397   6.467   1.460  0.4737  0.4406  0.0646
  772TIP3    H2 2281   2.253   6.492   1.500  0.3523  1.0010 -0.6867
  773TIP3   OH2 2282   4.284   6.137   3.579  0.1149  0.9421  0.3066
  773TIP3    H1 2283   4.245   6.152   3.493 -1.7333  1.4450  1.1798
  773TIP3    H2 2284   4.295   6.042   3.584 -2.5308  0.5744  0.5893
  774TIP3   OH2 2285   3.393   0.866   0.128  0.0430  0.2141  0.5365
  774TIP3    H1 2286   3.362   0.822   0.208  0.7203  0.5287  0.9812
  774TIP3    H2 2287   3.482   0.834   0.116 -0.7191 -1.3892 -1.2584
  775TIP3   OH2 2288   2.997   3.417   2.808 -0.1437 -0.7392  0.3398
  775TIP3    H1 2289   3.070   3.365   2.845  0.1669  0.3643  1.3316
  775TIP3    H2 2290   3.007   3.503   2.847 -2.0166 -0.5615  0.4983
  776TIP3   OH2 2291   6.709   0.156   0.542 -0.2782 -0.4913 -0.2653
  776TIP3    H1 2292   6.744   0.243   0.559  0.0599 -0.4476 -1.1303
  776TIP3    H2 2293   6.625   0.173   0.499 -0.8499 -0.5995  0.7755
  777TIP3   OH2 2294   2.145   1.009   4.823  0.1751 -0.2553 -0.0025
  777TIP3    H1 2295   2.157   0.917   4.846 -0.5261 -0.1767  0.7319
  777TIP3    H2 2296   2.057   1.030   4.855  1.0852  1.1950  1.7006
  778TIP3   OH2 2297   6.662   5.268   2.043 -0.1153  0.0043 -0.0917
  778TIP3    H1 2298   6.582   5.250   1.993 -0.7154  0.4123  0.7091
  778TIP3    H2 2299   6.721   5.308   1.979 -0.9842  0.8206 -0.4045
  779TIP3   OH2 2300   6.100   3.786   5.150  0.0981  0.1383 -0.4321
  779TIP3    H1 2301   6.158   3.858   5.128 -1.6705  1.6746 -0.3269
  779TIP3    H2 2302   6.110   3.773   5.244  0.6186  0.0558 -0.4992
  780TIP3   OH2 2303   6.904   3.617   2.661  0.0950  0.4455 -0.2835
  780TIP3    H1 2304   6.960   3.642   2.587 -0.7176 -0.5271 -1.2652
  780TIP3    H2 2305   6.907   3.522   2.662 -1.4313  0.3792 -0.2856
  781TIP3   OH2 2306   6.507   0.345   1.277  0.2862 -0.1881  0.2252
  781TIP3    H1 2307   6.454   0.266   1.293 -2.1367  1.4068  0.6222
  781TIP3    H2 2308   6.578   0.315   1.220  0.1419 -2.8721  1.2887
  782TIP3   OH2 2309   2.256   2.369   4.360  0.2300 -0.4245 -0.4496
  782TIP3    H1 2310   2.297   2.367   4.447 -0.1331 -0.8613 -0.2836
  782TIP3    H2 2311   2.329   2.366   4.299  0.5266  0.5153 -0.1675
  783TIP3   OH2 2312   5.767   4.209   4.209  0.4723 -0.1521  0.3908
  783TIP3    H1 2313   5.749   4.117   4.225 -0.2232 -0.0780  0.0736
  783TIP3    H2 2314   5.739   4.224   4.118 -0.9093  0.7237  0.9264
  784TIP3   OH2 2315   1.105   1.218   5.715  0.2443 -0.2740 -0.0697
  784TIP3    H1 2316   1.039   1.194   5.650  1.3367 -0.8214 -1.0064
  784TIP3    H2 2317   1.069   1.189   5.799 -1.5474  1.1534 -0.2870
  785TIP3   OH2 2318   7.097   4.066   1.941  0.1168 -0.1993 -0.6867
  785TIP3    H1 2319   7.052   3.982   1.952  0.1049 -0.0976  0.1654
  785TIP3    H2 2320   7.190   4.044   1.947  0.1135 -0.1604 -0.4545
  786TIP3   OH2 2321   1.902   5.304   4.654 -0.1167 -0.3928  0.0886
  786TIP3    H1 2322   1.841   5.308   4.728  0.7848 -0.3559  0.8388
  786TIP3    H2 2323   1.851   5.263   4.584 -1.4077  0.7452  0.2990
  787TIP3   OH2 2324   5.318   6.257   0.421 -0.4395  0.0696  0.2739
  787TIP3    H1 2325   5.348   6.195   0.355  2.8557  1.1172  0.6118
  787TIP3    H2 2326   5.371   6.237   0.498 -1.8298  1.0421  1.5414
  788TIP3   OH2 2327   1.919   5.816   3.946  0.0972  0.1134  0.3174
  788TIP3    H1 2328   1.994   5.790   3.999 -1.2148 -1.4542  1.5245
  788TIP3    H2 2329   1.923   5.758   3.870  0.4405  0.4582  0.0688
  789TIP3   OH2 2330   4.492   6.193   4.953 -0.1656 -0.5099  0.1454
  789TIP3    H1 2331   4.437   6.137   4.898 -1.5257 -0.5080  1.4097
  789TIP3    H2 2332   4.581   6.164   4.936 -0.7770 -2.5460  0.1706
  790TIP3   OH2 2333   3.875   4.736   4.890  0.1097 -0.1655  0.2851
  790TIP3    H1 2334   3.815   4.792   4.939 -1.1356 -1.4255  0.2464
  790TIP3    H2 2335   3.926   4.690   4.957  0.0447 -0.1423  0.3496
  791TIP3   OH2 2336   1.779   1.897   2.329  0.1596 -0.3246  0.3312
  791TIP3    H1 2337   1.746   1.947   2.403 -0.4189 -0.3288  0.0833
  791TIP3    H2 2338   1.824   1.961   2.274 -1.3370  0.1250 -0.4378
  792TIP3   OH2 2339   3.043   4.243   4.977 -0.3702  0.2876 -0.2188
  792TIP3    H1 2340   3.049   4.274   4.887 -0.9717 -0.7035 -0.6149
  792TIP3    H2 2341   2.952   4.215   4.987 -0.5619  1.2816  1.0005
  793TIP3   OH2 2342   1.093   0.675   3.650 -0.3841 -0.6851  0.0415
  793TIP3    H1 2343   1.144   0.594   3.656 -1.0765 -1.0786  0.9393
  793TIP3    H2 2344   1.077   0.700   3.741 -2.0289 -0.7521 -0.1827
  794TIP3   OH2 2345   4.912   0.971   1.142  0.4388  0.4460 -0.2807
  794TIP3    H1 2346   4.941   1.042   1.199 -1.2555  1.4276 -0.5625
  794TIP3    H2 2347   4.819   0.990   1.125  0.1090 -1.4759 -0.9119
  795TIP3   OH2 2348   0.651   3.103   2.333  0.0179  0.4276  0.0963
  795TIP3    H1 2349   0.632   3.197   2.327  1.2558  0.6945  0.0660
  795TIP3    H2 2350   0.747   3.098   2.328 -0.0752 -0.9072 -0.9894
  796TIP3   OH2 2351   6.499   2.154   5.119 -0.1270 -0.0319  0.0051
  796TIP3    H1 2352   6.570   2.145   5.056 -0.6088 -0.4699 -0.4753
  796TIP3    H2 2353   6.422   2.172   5.066 -0.9448 -2.4003  0.2636
  797TIP3   OH2 2354   5.297   6.149   5.029  0.4474 -0.1104 -0.5705
  797TIP3    H1 2355   5.330   6.239   5.019 -1.1319  0.4153 -1.5272
  797TIP3    H2 2356   5.367   6.094   4.994  0.8590  0.8624 -1.3638
  798TIP3   OH2 2357   5.158   0.785   5.321 -0.0186  0.1639  0.1191
  798TIP3    H1 2358   5.075   0.775   5.274 -0.0486 -0.6355  0.3384
  798TIP3    H2 2359   5.223   0.795   5.252 -0.3849  1.7459 -0.0571
  799TIP3   OH2 2360   7.176   0.381   0.077 -0.0303 -0.6010  0.0253
  799TIP3    H1 2361   7.131   0.339   0.004  0.1765 -0.8714  0.0496
  799TIP3    H2 2362   7.247   0.431   0.037 -0.0753 -0.5404  0.0213
  800TIP3   OH2 2363   0.418   2.490   4.131 -0.0867 -1.0369 -0.1414
  800TIP3    H1 2364   0.458   2.510   4.216 -0.3411 -0.5754 -0.1310
  800TIP3    H2 2365   0.340   2.438   4.153  0.4998 -1.9419 -0.1626
  801TIP3   OH2 2366   3.349   6.274   0.388  0.4002 -0.7071 -0.7789
  801TIP3    H1 2367   3.397   6.334   0.331  1.1953 -1.2402 -0.6936
  801TIP3    H2 2368   3.282   6.235   0.331  0.7425 -0.7301 -1.1713
  802TIP3   OH2 2369   0.392   1.039   2.428  0.1204 -0.2161 -0.1189
  802TIP3    H1 2370   0.394   0.945   2.411  0.5056 -0.3635  0.6933
  802TIP3    H2 2371   0.448   1.077   2.359 -0.6589 -0.4905 -0.9170
  803TIP3   OH2 2372   0.470   5.846   1.713 -0.4363 -0.4365  0.0371
  803TIP3    H1 2373   0.544   5.899   1.742  1.2982 -2.8792  0.3805
  803TIP3    H2 2374   0.430   5.815   1.794  0.2994 -1.8500 -0.1081
  804TIP3   OH2 2375   3.429   5.089   0.999 -0.0467 -0.7449 -0.1359
  804TIP3    H1 2376   3.436   5.020   0.933  1.1861 -0.4273 -0.3728
  804TIP3    H2 2377   3.411   5.169   0.949 -0.0981 -0.6660  0.0069
  805TIP3   OH2 2378   6.503   5.905   5.169 -0.4514  0.2819 -0.3597
  805TIP3    H1 2379   6.457   5.962   5.108 -1.8267  0.7356  1.0190
  805TIP3    H2 2380   6.567   5.859   5.116 -1.4188  0.8342 -2.0812
  806TIP3   OH2 2381   1.307   4.775   0.106  0.2252 -0.0340  0.4007
  806TIP3    H1 2382   1.375   4.842   0.115  0.3163  0.2591 -1.7792
  806TIP3    H2 2383   1.227   4.817   0.138  0.0170  1.6738 -2.0554
  807TIP3   OH2 2384   3.088   2.465   0.067  0.5708 -0.2483  0.1657
  807TIP3    H1 2385   2.997   2.494   0.079  1.0163  1.2848  0.0603
  807TIP3    H2 2386   3.095   2.385   0.118 -0.4235  0.4606  1.4670
  808TIP3   OH2 2387   0.431   0.999   2.868  0.1064  0.3152 -0.0798
  808TIP3    H1 2388   0.488   0.924   2.854  0.1555  0.1097  1.1137
  808TIP3    H2 2389   0.491   1.072   2.885  0.0525  0.5905 -0.9985
  809TIP3   OH2 2390   0.601   1.630   1.661 -0.3695 -0.0641  0.2367
  809TIP3    H1 2391   0.509   1.652   1.643 -0.9898 -1.2146  1.7748
  809TIP3    H2 2392   0.625   1.568   1.591 -1.1593 -0.6663  0.4794
  810TIP3   OH2 2393   3.723   5.125   3.718 -0.2252  0.3544 -0.1350
  810TIP3    H1 2394   3.642   5.093   3.758 -0.5093 -0.8857 -1.5788
  810TIP3    H2 2395   3.695   5.199   3.664 -0.1691  0.7285  0.3373
  811TIP3   OH2 2396   3.097   1.296   4.513  0.0236 -0.1151 -0.3502
  811TIP3    H1 2397   3.052   1.212   4.504  0.7532 -0.3233 -2.6600
  811TIP3    H2 2398   3.183   1.274   4.549  0.0479 -0.3282 -0.5334
  812TIP3   OH2 2399   4.176   0.841   3.309 -0.0320 -0.2961 -0.3346
  812TIP3    H1 2400   4.249   0.850   3.370 -1.0516  0.3052  0.8336
  812TIP3    H2 2401   4.212   0.790   3.236  0.7507 -2.7706  1.6106
  813TIP3   OH2 2402   0.289   5.771   5.438  0.4084  0.6489 -0.3717
  813TIP3    H1 2403   0.236   5.723   5.501  1.3539 -0.4937 -0.4003
  813TIP3    H2 2404   0.371   5.789   5.484  1.0823 -0.1390 -1.2144
  814TIP3   OH2 2405   5.470   5.492   0.981  0.0873  0.7083  0.0371
  814TIP3    H1 2406   5.550   5.535   0.951  0.1932  0.3759 -0.1698
  814TIP3    H2 2407   5.399   5.542   0.942  0.1488  1.7059  1.1513
  815TIP3   OH2 2408   1.478   6.203   5.175 -0.4571 -0.3329  0.0147
  815TIP3    H1 2409   1.542   6.157   5.229 -1.9030 -1.9515  0.4773
  815TIP3    H2 2410   1.459   6.283   5.223 -0.8878 -1.2180  1.3759
  816TIP3   OH2 2411   3.608   5.063   1.914 -0.2686  0.5000 -0.3787
  816TIP3    H1 2412   3.624   5.069   1.820 -0.5598 -1.0840 -0.5541
  816TIP3    H2 2413   3.516   5.039   1.922 -0.2828  0.7538  0.3227
  817TIP3   OH2 2414   0.087   3.590   3.652 -0.3237  0.7040 -0.4575
  817TIP3    H1 2415   0.063   3.615   3.741  0.5413  1.3160 -0.3844
  817TIP3    H2 2416   0.181   3.575   3.656 -0.5957 -1.4942 -0.7553
  818TIP3   OH2 2417   0.579   5.749   5.505  0.5742  0.6319  0.3888
  818TIP3    H1 2418   0.605   5.672   5.454 -0.6814 -0.4280  1.2990
  818TIP3    H2 2419   0.607   5.823   5.451  2.7552 -0.4133 -0.0366
  819TIP3   OH2 2420   5.876   3.111   2.211 -0.1140  0.2909  0.5020
  819TIP3    H1 2421   5.811   3.108   2.281  0.2682 -3.1042  0.8740
  819TIP3    H2 2422   5.955   3.074   2.249  1.2725  1.7815 -0.7471
  820TIP3   OH2 2423   1.199   1.337   0.196 -0.4339  0.0176 -0.1794
  820TIP3    H1 2424   1.232   1.258   0.155 -1.2844 -0.2276 -0.3966
  820TIP3    H2 2425   1.227   1.330   0.288  1.5419  0.6068 -0.6915
  821TIP3   OH2 2426   0.728   0.409   4.908 -0.2345  0.6491 -0.2520
  821TIP3    H1 2427   0.700   0.340   4.968 -0.2519  0.2114 -0.7534
  821TIP3    H2 2428   0.805   0.448   4.951  0.4015 -0.3646 -0.4375
  822TIP3   OH2 2429   2.201   3.306   2.158  0.1335  0.3309 -0.3213
  822TIP3    H1 2430   2.197   3.212   2.141 -1.1668  0.1923  0.5533
  822TIP3    H2 2431   2.284   3.319   2.203 -0.8112 -0.8802  1.9811
  823TIP3   OH2 2432   1.238   3.523   0.386 -0.5005 -0.3623 -0.5135
  823TIP3    H1 2433   1.186   3.499   0.310 -1.0712  0.3355 -0.3639
  823TIP3    H2 2434   1.326   3.538   0.352 -0.7764  0.0441 -1.0566
  824TIP3   OH2 2435   6.711   1.422   4.669 -0.0555 -0.1945 -0.2456
  824TIP3    H1 2436   6.793   1.454   4.708 -0.3532  0.9719 -0.5596
  824TIP3    H2 2437   6.698   1.337   4.710  1.3354 -0.4254 -0.2061
  825TIP3   OH2 2438   5.033   1.128   2.284  0.1525 -0.0245  0.6274
  825TIP3    H1 2439   5.084   1.147   2.363  0.1722 -0.8693  0.8262
  825TIP3    H2 2440   5.048   1.035   2.268  0.3683  0.1989 -0.5366
  826TIP3   OH2 2441   3.048   6.010   5.281  0.1586  0.1272  0.6757
  826TIP3    H1 2442   2.990   5.965   5.343 -1.0637 -1.0319 -1.2301
  826TIP3    H2 2443   3.004   6.093   5.263 -0.8435 -0.6484 -0.5854
  827TIP3   OH2 2444   7.189   4.237   3.276  0.0054 -0.1976  0.2754
  827TIP3    H1 2445   7.175   4.243   3.181  1.3806  1.5687  0.1216
  827TIP3    H2 2446   7.167   4.146   3.298 -0.7284 -0.5413 -1.6571
  828TIP3   OH2 2447   6.782   5.118   5.591  0.5906 -0.5614 -0.4464
  828TIP3    H1 2448   6.731   5.171   5.528  2.2595  1.7800  0.0460
  828TIP3    H2 2449   6.716   5.081   5.650 -0.6672  3.8544  1.3276
  829TIP3   OH2 2450   6.688   5.653   0.876 -0.3788  0.1149  0.0348
  829TIP3    H1 2451   6.659   5.716   0.942 -0.2847 -1.0193  1.1828
  829TIP3    H2 2452   6.771   5.618   0.909 -0.4437 -0.6465 -0.5605
  830TIP3   OH2 2453   4.593   4.018   2.723 -0.7610 -0.0043  0.0431
  830TIP3    H1 2454   4.568   4.102   2.684 -1.4538  0.1612  0.7946
  830TIP3    H2 2455   4.575   3.953   2.656  1.6225  0.5985 -1.2829
  831TIP3   OH2 2456   5.436   0.205   0.290 -0.1000  0.4184 -0.4118
  831TIP3    H1 2457   5.395   0.261   0.355 -0.3401  0.4966 -0.6295
  831TIP3    H2 2458   5.370   0.195   0.221  0.5749  1.3011 -1.2094
  832TIP3   OH2 2459   4.897   0.511  -0.031  0.0865  0.3399 -0.2050
  832TIP3    H1 2460   4.896   0.456   0.047  1.8046  0.4623 -0.0460
  832TIP3    H2 2461   4.952   0.586  -0.007 -0.1981  0.8953 -1.2015
  833TIP3   OH2 2462   6.453   2.664   3.184 -0.1795 -0.2591  0.2328
  833TIP3    H1 2463   6.383   2.729   3.179 -0.3439 -0.5226 -2.4061
  833TIP3    H2 2464   6.408   2.580   3.168  0.4494 -0.6714  0.5815
  834TIP3   OH2 2465   0.959   0.441   5.094 -0.2287  0.1177 -0.0592
  834TIP3    H1 2466   1.013   0.362   5.089  0.5720  0.4720  1.9914
  834TIP3    H2 2467   1.010   0.508   5.048  1.2269  0.4560  1.8651
  835TIP3   OH2 2468   0.913   3.280   0.123 -0.0929 -0.1736  0.1512
  835TIP3    H1 2469   0.967   3.254   0.048  0.7128  0.8245  0.3633
  835TIP3    H2 2470   0.845   3.335   0.084  0.4403  0.5070  0.1571
  836TIP3   OH2 2471   7.054   3.198   3.724  0.3475  0.0488 -0.0884
  836TIP3    H1 2472   7.120   3.215   3.791  0.3940 -1.0307  0.1582
  836TIP3    H2 2473   7.059   3.273   3.665  0.2587  1.0458  1.1512
  837TIP3   OH2 2474   6.854   0.562   4.386 -0.2494  0.7419 -0.0315
  837TIP3    H1 2475   6.851   0.565   4.482 -0.4909 -0.0747 -0.0020
  837TIP3    H2 2476   6.797   0.633   4.358 -0.6317  0.6290  0.4381
  838TIP3   OH2 2477   4.460   3.183   4.049 -0.2940 -0.0034  0.2027
  838TIP3    H1 2478   4.518   3.214   3.980 -0.0860  0.7223  0.6995
  838TIP3    H2 2479   4.515   3.127   4.104 -0.9678 -2.4966 -1.4472
  839TIP3   OH2 2480   0.898   0.891   3.057 -0.2130 -0.3916 -0.0812
  839TIP3    H1 2481   0.956   0.834   3.007  1.5989  2.8524 -2.0298
  839TIP3    H2 2482   0.951   0.920   3.131 -0.4271  0.2028 -0.1551
  840TIP3   OH2 2483   4.521   1.153   1.226 -0.0264 -0.0969  0.1334
  840TIP3    H1 2484   4.581   1.130   1.296  0.2454  0.4370  0.0791
  840TIP3    H2 2485   4.573   1.148   1.146 -1.0578 -3.8228 -0.4801
  841TIP3   OH2 2486   5.727   1.512   1.115  0.2379 -0.1644 -0.1888
  841TIP3    H1 2487   5.791   1.524   1.045 -0.3128 -0.3404 -0.7424
  841TIP3    H2 2488   5.685   1.598   1.124 -1.6561 -0.7793 -2.0915
  842TIP3   OH2 2489   4.219   1.516   3.186  0.0062 -0.5693  0.1218
  842TIP3    H1 2490   4.156   1.518   3.258  1.5117 -1.0093  1.5236
  842TIP3    H2 2491   4.242   1.424   3.177  0.8028 -0.3674 -0.0165
  843TIP3   OH2 2492   4.967   3.367   2.929  0.2590 -0.3134  0.4219
  843TIP3    H1 2493   5.054   3.397   2.903 -0.3013  0.9558 -0.0998
  843TIP3    H2 2494   4.932   3.324   2.850 -0.3183  0.9409 -0.0398
  844TIP3   OH2 2495   2.341   3.848   2.938 -0.8943  0.3547 -0.0536
  844TIP3    H1 2496   2.353   3.767   2.890  3.1175  0.9218 -0.3708
  844TIP3    H2 2497   2.321   3.913   2.871  0.0699  0.3193 -0.3944
  845TIP3   OH2 2498   1.997   2.795   0.651 -0.3184 -0.0551  0.1894
  845TIP3    H1 2499   1.947   2.723   0.612 -2.2315  1.4428 -0.2399
  845TIP3    H2 2500   2.042   2.755   0.725 -1.7976 -1.5790  0.3223
  846TIP3   OH2 2501   4.637   3.612   4.818  0.1432  0.4124 -0.1700
  846TIP3    H1 2502   4.549   3.644   4.796  0.8570  1.2207 -2.0453
  846TIP3    H2 2503   4.651   3.538   4.759  0.2602 -0.5260  1.0021
  847TIP3   OH2 2504   0.851   2.483   3.964 -0.6254  0.3064  0.3504
  847TIP3    H1 2505   0.860   2.399   3.919 -1.4048 -0.3596  1.4042
  847TIP3    H2 2506   0.757   2.494   3.976 -0.4347  0.4441  1.8336
  848TIP3   OH2 2507   4.503   6.295   0.638  0.3854  0.4429 -0.2182
  848TIP3    H1 2508   4.583   6.311   0.587 -1.2612  1.2102 -2.7428
  848TIP3    H2 2509   4.472   6.210   0.608 -0.4152  0.7390 -0.2546
  849TIP3   OH2 2510   5.965   4.545   1.759  0.1188  0.2874  0.5282
  849TIP3    H1 2511   5.876   4.577   1.744 -1.3328 -2.8300  1.7148
  849TIP3    H2 2512   6.000   4.528   1.671  0.2742  3.0194 -0.0403
  850TIP3   OH2 2513   6.877   5.729   0.552 -0.7228 -0.4187  0.1186
  850TIP3    H1 2514   6.953   5.705   0.500 -0.4581  2.6069 -1.1049
  850TIP3    H2 2515   6.912   5.781   0.624 -1.5376  0.2444  0.0538
  851TIP3   OH2 2516   4.599   5.742   5.873  0.1732 -0.3027  0.1697
  851TIP3    H1 2517   4.524   5.687   5.894 -0.0324 -0.4675 -0.9213
  851TIP3    H2 2518   4.630   5.709   5.789 -0.7739  2.0287 -1.2064
  852TIP3   OH2 2519   1.894   5.306   3.950  0.3806 -0.2035 -0.1275
  852TIP3    H1 2520   1.953   5.380   3.967 -0.8246  0.7319  0.1330
  852TIP3    H2 2521   1.854   5.327   3.865  0.2151 -0.6889 -0.1736
  853TIP3   OH2 2522   2.857   5.324   4.767  0.4330 -0.6374 -0.1647
  853TIP3    H1 2523   2.941   5.369   4.762  0.4531 -0.1035  2.9271
  853TIP3    H2 2524   2.797   5.379   4.716  1.4793  0.2378 -0.4721
  854TIP3   OH2 2525   2.637   4.553   0.984  0.4862 -0.0995  0.8723
  854TIP3    H1 2526   2.691   4.543   1.062  0.8947  0.0209  0.6085
  854TIP3    H2 2527   2.556   4.593   1.016  0.9250  0.5916  1.1311
  855TIP3   OH2 2528   4.390   6.459   4.982  0.5514 -0.4989  0.0858
  855TIP3    H1 2529   4.447   6.494   5.051  2.0756 -1.0047 -0.8723
  855TIP3    H2 2530   4.415   6.367   4.975 -0.4948 -0.7632 -0.2762
  856TIP3   OH2 2531   5.127   4.969   4.408 -0.2090 -0.2572 -0.1241
  856TIP3    H1 2532   5.099   4.927   4.489  0.7399 -0.4493  0.1086
  856TIP3    H2 2533   5.066   4.935   4.342  0.9736 -2.6311 -0.1005
  857TIP3   OH2 2534   0.872   5.090   4.530  0.0895  0.0539  0.6605
  857TIP3    H1 2535   0.784   5.054   4.544  0.8701 -1.8750  0.9205
  857TIP3    H2 2536   0.863   5.183   4.550 -1.8586 -0.1219  0.8117
  858TIP3   OH2 2537   2.526   3.934   1.595  0.1704 -0.0055  0.2960
  858TIP3    H1 2538   2.472   3.869   1.639 -2.5735  0.3515 -2.2688
  858TIP3    H2 2539   2.467   3.978   1.534  2.7404  2.4627 -0.6497
  859TIP3   OH2 2540   3.820   2.824   1.899 -0.4564 -0.1318 -0.6885
  859TIP3    H1 2541   3.849   2.801   1.811 -0.7475 -2.3926 -0.2727
  859TIP3    H2 2542   3.727   2.842   1.890 -0.9600 -2.3544 -0.6151
  860TIP3   OH2 2543   5.039   2.158   5.708  0.2694 -0.3071  0.3526
  860TIP3    H1 2544   4.997   2.076   5.732 -0.9135 -0.3248 -1.5229
  860TIP3    H2 2545   5.039   2.210   5.788  1.6666 -2.3354  1.7540
  861TIP3   OH2 2546   4.857   2.088   2.177 -0.0716  0.3784 -0.1486
  861TIP3    H1 2547   4.900   2.124   2.254  0.1685 -2.5392  1.2364
  861TIP3    H2 2548   4.817   2.006   2.208 -1.6246  0.0447 -2.7074
  862TIP3   OH2 2549   4.437   0.243   0.143  0.0750  0.2218  0.2351
  862TIP3    H1 2550   4.456   0.236   0.237 -0.7790  1.5752  0.5342
  862TIP3    H2 2551   4.497   0.311   0.112  1.0952 -0.9466 -0.4471
  863TIP3   OH2 2552   5.788   1.257   2.901  0.6798  0.2686 -0.3310
  863TIP3    H1 2553   5.763   1.286   2.989 -0.6669  1.4155 -1.0391
  863TIP3    H2 2554   5.809   1.164   2.911 -0.5695  0.0892  1.0037
  864TIP3   OH2 2555   5.339   1.700   4.752  0.2783 -0.3211  0.6011
  864TIP3    H1 2556   5.285   1.759   4.700  1.3320  1.0350  0.9835
  864TIP3    H2 2557   5.340   1.618   4.703 -0.5616  0.2325 -0.3649
  865TIP3   OH2 2558   0.939   2.298   0.248 -0.4686  0.0123  0.0340
  865TIP3    H1 2559   1.033   2.312   0.235 -0.4502 -0.4976 -0.3960
  865TIP3    H2 2560   0.901   2.386   0.242  0.2306  0.5599  2.5304
  866TIP3   OH2 2561   2.257   3.746   0.974 -0.1260 -0.2478 -0.2813
  866TIP3    H1 2562   2.265   3.666   1.026 -1.6256 -0.1747  0.1257
  866TIP3    H2 2563   2.163   3.764   0.973 -0.0377  0.3206 -2.1783
  867TIP3   OH2 2564   0.071   5.377   0.870  0.4685 -0.3136 -0.0902
  867TIP3    H1 2565   0.025   5.425   0.801 -0.0890 -2.5324 -1.3705
  867TIP3    H2 2566   0.031   5.408   0.952  1.4006  2.6560 -0.6238
  868TIP3   OH2 2567   1.938   3.956   4.432 -0.1223  0.1361  0.2192
  868TIP3    H1 2568   2.004   3.896   4.467  1.9980  1.3880 -1.3690
  868TIP3    H2 2569   1.896   3.994   4.510  2.0064  0.3017  1.3566
  869TIP3   OH2 2570   1.608   0.166   4.423  0.2587  0.4891  0.3239
  869TIP3    H1 2571   1.591   0.077   4.392 -0.2367  0.1290  1.5863
  869TIP3    H2 2572   1.688   0.192   4.377  0.3733 -0.5809 -0.1122
  870TIP3   OH2 2573   6.540   5.894   2.621  0.3625  0.7370  0.0277
  870TIP3    H1 2574   6.635   5.882   2.620  0.3796  0.9001 -0.7109
  870TIP3    H2 2575   6.516   5.909   2.529 -0.5355 -0.5622  0.0167
  871TIP3   OH2 2576   5.635   5.959   5.381 -0.6792 -0.2912  0.5329
  871TIP3    H1 2577   5.679   6.040   5.409 -0.5034 -0.0169 -0.4766
  871TIP3    H2 2578   5.597   5.981   5.295  0.5581 -1.6760 -0.4231
  872TIP3   OH2 2579   6.913   5.653   4.682  0.1345 -0.2217 -0.1211
  872TIP3    H1 2580   6.913   5.647   4.586  0.8539 -0.5635 -0.1014
  872TIP3    H2 2581   6.904   5.746   4.700  0.7054 -0.0858 -0.5266
  873TIP3   OH2 2582   4.155   4.789   4.015  0.1868  0.0375  0.6261
  873TIP3    H1 2583   4.118   4.821   4.098 -2.6444  0.9730 -0.8341
  873TIP3    H2 2584   4.230   4.846   3.999  0.1073  0.5764  1.9913
  874TIP3   OH2 2585   4.615   5.486   1.384 -0.3165  0.4691 -0.1230
  874TIP3    H1 2586   4.553   5.557   1.366 -0.1473  0.4477 -0.8017
  874TIP3    H2 2587   4.595   5.459   1.474 -1.0415  0.7125 -0.2068
  875TIP3   OH2 2588   2.962   6.760   2.941 -0.8643 -0.5160  0.6571
  875TIP3    H1 2589   2.940   6.848   2.970  1.3388  0.1506  0.4917
  875TIP3    H2 2590   2.946   6.761   2.846  0.4510  0.1895  0.4137
  876TIP3   OH2 2591   4.333   5.658   2.940 -0.1626  0.2265 -0.1837
  876TIP3    H1 2592   4.424   5.685   2.928  0.6391 -1.6365  1.0939
  876TIP3    H2 2593   4.282   5.722   2.892  1.9274  0.3275 -2.4689
  877TIP3   OH2 2594   6.079   3.525   4.178  0.0923 -0.1770 -0.1625
  877TIP3    H1 2595   6.147   3.500   4.115  1.6095  0.3311  1.1924
  877TIP3    H2 2596   6.122   3.521   4.263 -1.2539  1.2717  0.6571
  878TIP3   OH2 2597   4.441   1.361   2.353  0.5895  0.0901  0.3712
  878TIP3    H1 2598   4.454   1.322   2.440  1.3929  0.4829  0.4308
  878TIP3    H2 2599   4.491   1.443   2.356  0.8967 -0.0594 -0.5820
  879TIP3   OH2 2600   4.261   3.985   0.263  0.1804 -0.0721 -0.0783
  879TIP3    H1 2601   4.314   3.999   0.184  3.0469  1.7515  2.0008
  879TIP3    H2 2602   4.207   4.064   0.270 -1.0259 -0.7987 -0.8189
  880TIP3   OH2 2603   3.202   1.462   1.170 -0.3474 -0.1122 -0.1821
  880TIP3    H1 2604   3.230   1.445   1.260 -2.2874 -2.2232  0.1186
  880TIP3    H2 2605   3.192   1.557   1.165 -1.3751 -0.0214  2.2239
  881TIP3   OH2 2606   3.965   0.695   3.166  0.2040  0.2743 -0.0734
  881TIP3    H1 2607   4.005   0.725   3.248  0.9962 -0.4570 -0.1851
  881TIP3    H2 2608   4.038   0.690   3.104 -0.1812 -0.3402 -0.4870
  882TIP3   OH2 2609   4.838   3.882   2.453 -0.2407  0.5540  0.0117
  882TIP3    H1 2610   4.763   3.861   2.398  0.3842 -0.2796 -0.5364
  882TIP3    H2 2611   4.861   3.972   2.428  0.5662 -0.0948 -1.7401
  883TIP3   OH2 2612   4.165   2.324   2.248 -0.2381  0.1621  0.0512
  883TIP3    H1 2613   4.176   2.235   2.214  2.2217  0.4279 -0.0777
  883TIP3    H2 2614   4.113   2.314   2.327 -1.3477 -1.1683 -0.8079
  884TIP3   OH2 2615   1.354   1.267   0.453 -0.2068  0.4097  0.8495
  884TIP3    H1 2616   1.443   1.264   0.490  0.8231  0.4686 -1.4678
  884TIP3    H2 2617   1.350   1.192   0.395 -1.5850  0.5942  0.6859
  885TIP3   OH2 2618   6.801   0.343   0.054 -0.5475  0.3544  0.0060
  885TIP3    H1 2619   6.858   0.420   0.047 -0.5171  0.1549 -3.6381
  885TIP3    H2 2620   6.844   0.288   0.119 -0.2985  3.0982  2.3643
  886TIP3   OH2 2621   1.451   4.059   5.833  0.0011 -0.3790  0.3027
  886TIP3    H1 2622   1.476   4.087   5.745  3.2777 -1.5205  0.7215
  886TIP3    H2 2623   1.534   4.036   5.875 -1.7298 -3.4841  2.4433
  887TIP3   OH2 2624   5.682   0.283   4.280  0.3593  0.1151  0.1207
  887TIP3    H1 2625   5.654   0.194   4.300 -0.8592  0.8022  1.6430
  887TIP3    H2 2626   5.675   0.290   4.185  0.6824 -1.4644 -0.0397
  888TIP3   OH2 2627   1.805   3.852   4.210 -0.1835  0.2254  0.5499
  888TIP3    H1 2628   1.749   3.925   4.186  0.6982  0.8012  0.2087
  888TIP3    H2 2629   1.882   3.892   4.249  0.5558 -0.4882 -0.1483
  889TIP3   OH2 2630   5.226   1.877   5.009 -0.3830  0.6109  0.0386
  889TIP3    H1 2631   5.184   1.911   4.930 -3.3466  0.6658  1.4895
  889TIP3    H2 2632   5.201   1.938   5.078  1.3617  0.0743  1.2070
  890TIP3   OH2 2633   3.562   4.385   1.090  0.2449  0.1202 -0.6944
  890TIP3    H1 2634   3.479   4.346   1.117  0.4728  0.2058  0.1678
  890TIP3    H2 2635   3.544   4.425   1.005 -0.2056 -1.1409 -1.2224
  891TIP3   OH2 2636   5.985   3.037   1.366  1.0200  0.6778 -0.1325
  891TIP3    H1 2637   6.049   3.026   1.295 -0.6563 -0.8706 -1.5128
  891TIP3    H2 2638   5.911   3.082   1.324 -0.8896 -2.1313 -0.0429
  892TIP3   OH2 2639   7.072   1.236   2.726 -0.1721 -0.1945  0.0501
  892TIP3    H1 2640   7.023   1.303   2.679  0.2942 -0.1558 -0.3846
  892TIP3    H2 2641   7.098   1.279   2.808 -0.4897 -0.0765  0.0899
  893TIP3   OH2 2642   2.571   2.784   4.077  0.3509  0.3563  0.1907
  893TIP3    H1 2643   2.632   2.779   4.002  1.5800  0.9121  1.1117
  893TIP3    H2 2644   2.497   2.833   4.044  1.0769  0.9827 -0.5604
  894TIP3   OH2 2645   5.158   2.909   2.327  0.1785 -0.3441  0.5328
  894TIP3    H1 2646   5.154   2.991   2.279 -0.7715 -1.6886 -1.8169
  894TIP3    H2 2647   5.221   2.926   2.398  0.7825  2.0632 -0.4852
  895TIP3   OH2 2648   2.480   3.404   5.092 -0.1155  0.1510  0.4317
  895TIP3    H1 2649   2.574   3.384   5.090 -0.1415  0.0595 -1.1942
  895TIP3    H2 2650   2.437   3.319   5.085 -0.2915  0.3112 -0.5288
  896TIP3   OH2 2651   3.135   2.422   3.423  0.0911  0.1916 -0.1161
  896TIP3    H1 2652   3.195   2.365   3.472 -0.3092 -0.2442 -0.1269
  896TIP3    H2 2653   3.164   2.415   3.333  1.4217  1.7225  0.1453
  897TIP3   OH2 2654   4.881   6.476   0.589  0.0097 -0.4228 -0.3040
  897TIP3    H1 2655   4.915   6.510   0.506 -1.6405  1.9373 -0.1135
  897TIP3    H2 2656   4.807   6.421   0.564 -0.5961  0.4277 -0.4260
  898TIP3   OH2 2657   4.787   0.163   3.003 -0.1212  0.1713  0.2979
  898TIP3    H1 2658   4.761   0.155   2.912  1.6058  0.1949 -0.2294
  898TIP3    H2 2659   4.751   0.247   3.032 -1.1854 -0.1156 -0.1652
  899TIP3   OH2 2660   4.852   0.858   2.277  0.2570  0.4185 -0.3336
  899TIP3    H1 2661   4.857   0.951   2.300  2.1730  0.0929  0.7665
  899TIP3    H2 2662   4.864   0.812   2.360 -2.2277 -0.8804 -0.5904
  900TIP3   OH2 2663   4.437   3.580   3.607  0.5660  0.1228  0.0015
  900TIP3    H1 2664   4.428   3.541   3.694  0.9914  0.1759  0.0716
  900TIP3    H2 2665   4.379   3.655   3.609  0.8759  0.3582  0.3805
  901TIP3   OH2 2666   5.459   0.996   4.869  0.2150 -0.2827  0.1424
  901TIP3    H1 2667   5.496   1.064   4.812  0.2174 -0.1510  0.3017
  901TIP3    H2 2668   5.397   1.043   4.925  1.3335 -0.1212  1.3170
  902TIP3   OH2 2669   1.418   4.472   0.707  0.3515 -0.5311  0.3118
  902TIP3    H1 2670   1.376   4.462   0.793 -0.3365  2.3378  0.3893
  902TIP3    H2 2671   1.379   4.402   0.654 -1.6503 -0.3831  1.4662
  903TIP3   OH2 2672   0.793   4.067   4.618 -0.1868  0.1713  0.2719
  903TIP3    H1 2673   0.825   4.156   4.632  1.4152  0.0132 -1.9874
  903TIP3    H2 2674   0.751   4.069   4.532  0.1775 -1.3387  0.0243
  904TIP3   OH2 2675   6.941   1.554   4.714  0.5881  0.0828  0.5086
  904TIP3    H1 2676   6.995   1.538   4.637 -1.1398 -1.4960 -0.4391
  904TIP3    H2 2677   6.917   1.647   4.707  1.9141  0.4238  0.1584
  905TIP3   OH2 2678   6.375   4.059   0.310  0.0007 -0.4852  0.2015
  905TIP3    H1 2679   6.449   4.018   0.354  1.3007  1.8373  0.3339
  905TIP3    H2 2680   6.326   4.103   0.380  2.1064  3.2679 -0.4459
  906TIP3   OH2 2681   5.841   1.748   4.681  0.0057 -0.0239 -0.0704
  906TIP3    H1 2682   5.747   1.759   4.673 -0.1661 -1.2644  0.0046
  906TIP3    H2 2683   5.852   1.684   4.752  0.8346 -0.7238 -0.8056
  907TIP3   OH2 2684   3.454   2.138   5.249 -0.1154 -0.2050  0.2390
  907TIP3    H1 2685   3.488   2.190   5.177 -1.3382  1.1202  0.5745
  907TIP3    H2 2686   3.405   2.200   5.303  1.8154 -0.8406  2.9680
  908TIP3   OH2 2687   3.802   1.697   3.658 -0.0584 -0.1438  0.2850
  908TIP3    H1 2688   3.710   1.682   3.636 -0.2557 -2.2152  2.1787
  908TIP3    H2 2689   3.850   1.648   3.591 -0.4730 -1.6431  1.0295
  909TIP3   OH2 2690   0.755   2.629   2.712  0.1347 -0.0866 -0.0722
  909TIP3    H1 2691   0.719   2.717   2.715  0.9954  0.2526  0.7136
  909TIP3    H2 2692   0.683   2.575   2.680 -0.3986  0.8963 -0.5673
  910TIP3   OH2 2693   1.255   6.720   5.468 -0.3574  0.2777  0.3415
  910TIP3    H1 2694   1.243   6.747   5.559 -2.2121 -0.0788  0.2411
  910TIP3    H2 2695   1.277   6.627   5.474 -1.9549 -0.1149  0.3927
  911TIP3   OH2 2696   6.793   5.278   0.585 -0.2455 -0.5928  0.2389
  911TIP3    H1 2697   6.725   5.249   0.524 -1.0991 -0.1397  0.9570
  911TIP3    H2 2698   6.747   5.334   0.647  1.3394  2.5389 -1.2011
  912TIP3   OH2 2699   4.434   5.346   5.049 -0.0499  0.3789 -0.3275
  912TIP3    H1 2700   4.349   5.348   5.093  0.5707 -1.4914  1.0723
  912TIP3    H2 2701   4.491   5.398   5.106  0.4548 -0.9990  0.4718
  913TIP3   OH2 2702   5.586   6.350   4.366 -0.2401  0.2220  0.4913
  913TIP3    H1 2703   5.554   6.260   4.369 -1.0128  0.4823  0.3711
  913TIP3    H2 2704   5.508   6.404   4.383  0.3246  0.8509  1.1350
  914TIP3   OH2 2705   2.449   0.855   3.949  0.7824 -0.2490  0.4038
  914TIP3    H1 2706   2.419   0.915   4.017  0.6463 -0.0748  0.1910
  914TIP3    H2 2707   2.435   0.768   3.986  1.7396 -0.1537  1.0426
  915TIP3   OH2 2708   2.642   1.022   5.417 -0.0946 -0.2942  0.0829
  915TIP3    H1 2709   2.661   1.023   5.324 -0.2550  1.4513  0.0387
  915TIP3    H2 2710   2.559   0.976   5.424 -0.4725  0.2419 -0.7313
  916TIP3   OH2 2711   4.491   3.311   5.221 -0.7931  0.4167  0.3250
  916TIP3    H1 2712   4.457   3.380   5.278 -3.4945  1.0359 -1.8324
  916TIP3    H2 2713   4.586   3.321   5.226 -1.0464  3.6760  0.8787
  917TIP3   OH2 2714   7.165   5.495   4.692  0.2557  0.4929  0.0656
  917TIP3    H1 2715   7.092   5.543   4.731 -0.9591 -0.7664 -0.5708
  917TIP3    H2 2716   7.196   5.551   4.621  0.5465  1.4575  0.9253
  918TIP3   OH2 2717   6.125   3.941   1.838 -0.0592  0.0705  0.2243
  918TIP3    H1 2718   6.154   3.976   1.754  0.4147 -0.1619  0.2889
  918TIP3    H2 2719   6.168   3.996   1.904 -1.3876  1.0380  0.3263
  919TIP3   OH2 2720   3.144   1.295   1.603 -0.1429 -0.3065  0.4412
  919TIP3    H1 2721   3.162   1.330   1.690 -0.4044 -0.9178  0.7477
  919TIP3    H2 2722   3.204   1.341   1.545 -0.0513  0.1906  0.9280
  920TIP3   OH2 2723   6.786   5.262   5.009 -0.1593 -0.4724  0.2334
  920TIP3    H1 2724   6.741   5.254   4.926  2.1817  4.1100 -1.8590
  920TIP3    H2 2725   6.870   5.218   4.996 -0.1465 -0.5420  0.5301
  921TIP3   OH2 2726   6.257   2.787   3.437 -0.0867  0.0398  0.2971
  921TIP3    H1 2727   6.171   2.785   3.395 -0.3162 -1.5679  0.7877
  921TIP3    H2 2728   6.251   2.858   3.501 -0.8593  0.2944 -0.0483
  922TIP3   OH2 2729   2.625   6.525   0.418 -0.4445  0.5747  0.3569
  922TIP3    H1 2730   2.651   6.545   0.508  1.0939  0.4029 -0.0154
  922TIP3    H2 2731   2.646   6.432   0.407 -0.6034  0.5991 -0.1877
  923TIP3   OH2 2732   0.589   0.153   1.399 -0.3370  0.1247 -0.7166
  923TIP3    H1 2733   0.555   0.241   1.382 -2.9298 -0.7182 -0.4332
  923TIP3    H2 2734   0.639   0.131   1.321 -3.3842  0.2263 -2.8870
  924TIP3   OH2 2735   6.144   1.906   0.556  0.5649  0.3656 -0.2076
  924TIP3    H1 2736   6.164   1.917   0.649 -0.7974 -2.9619  0.6064
  924TIP3    H2 2737   6.178   1.986   0.515 -0.1870  2.7422  3.2956
  925TIP3   OH2 2738   6.043   4.111   3.376 -0.0373 -0.2377 -0.2339
  925TIP3    H1 2739   6.135   4.084   3.388 -0.2336 -0.8061  0.0576
  925TIP3    H2 2740   6.048   4.196   3.333  0.6179 -0.6510 -0.9977
  926TIP3   OH2 2741   3.932   5.504   0.574  0.5118 -0.4656 -0.1146
  926TIP3    H1 2742   3.908   5.418   0.541 -0.8605 -0.4064  0.6398
  926TIP3    H2 2743   3.964   5.552   0.498 -0.0853 -1.1771 -0.8227
  927TIP3   OH2 2744   5.412   3.273   4.365  0.1637 -0.5231  0.0858
  927TIP3    H1 2745   5.471   3.322   4.308 -1.5858 -0.8912 -2.2157
  927TIP3    H2 2746   5.432   3.305   4.453  3.5194 -0.4373 -0.5549
  928TIP3   OH2 2747   5.162   3.825   1.581 -0.4107 -0.7893  0.8832
  928TIP3    H1 2748   5.136   3.804   1.491  2.4390 -0.8954 -0.0037
  928TIP3    H2 2749   5.124   3.754   1.633 -2.9612 -0.2024  0.0010
  929TIP3   OH2 2750   5.157   5.776   1.460  0.3673  0.1633 -0.5009
  929TIP3    H1 2751   5.253   5.776   1.462  0.3561  0.1568  0.0611
  929TIP3    H2 2752   5.135   5.740   1.374  0.8669 -0.1776 -0.4897
  930TIP3   OH2 2753   4.394   2.521   4.810 -0.4414 -0.5655 -0.1016
  930TIP3    H1 2754   4.307   2.557   4.790  0.0094  0.5376 -0.1636
  930TIP3    H2 2755   4.388   2.494   4.902 -0.2852  1.3555  0.5202
  931TIP3   OH2 2756   5.973   3.291   2.018 -0.8488 -0.4210 -0.0076
  931TIP3    H1 2757   5.926   3.227   2.072 -2.0535  0.3266 -0.1419
  931TIP3    H2 2758   6.022   3.344   2.080  0.6711 -1.8321  0.0683
  932TIP3   OH2 2759   6.567   2.690   2.676  0.4357 -0.4152 -0.3328
  932TIP3    H1 2760   6.549   2.660   2.765  1.3732  1.3278  0.4927
  932TIP3    H2 2761   6.524   2.626   2.620 -3.9494  0.6708  1.3579
  933TIP3   OH2 2762   6.541   6.095   5.633  0.0969 -0.1688  0.2114
  933TIP3    H1 2763   6.484   6.077   5.708 -0.8882  2.4451  0.1889
  933TIP3    H2 2764   6.621   6.130   5.671  0.5398 -1.0529  0.1135
  934TIP3   OH2 2765   1.889   5.590   1.535 -0.4304  0.3737 -0.2923
  934TIP3    H1 2766   1.871   5.523   1.600 -1.8614  0.8886 -0.1231
  934TIP3    H2 2767   1.881   5.673   1.584 -1.3678  0.7580 -1.0781
  935TIP3   OH2 2768   7.161   2.831   2.014 -0.0134 -0.2867 -0.0680
  935TIP3    H1 2769   7.149   2.742   1.981 -0.5354 -1.0103  1.9551
  935TIP3    H2 2770   7.219   2.821   2.089  0.2214  1.1489 -0.0362
  936TIP3   OH2 2771   5.621   0.079   5.243  0.2632 -0.0823  0.4291
  936TIP3    H1 2772   5.628   0.174   5.235  1.8872 -0.1138  1.0670
  936TIP3    H2 2773   5.528   0.061   5.229  0.1487  1.4301 -1.1572
  937TIP3   OH2 2774   0.667   6.016   4.329 -0.5016 -0.2656  0.0267
  937TIP3    H1 2775   0.587   6.064   4.306  0.8135  0.8384 -2.5596
  937TIP3    H2 2776   0.654   5.929   4.290 -0.8782 -0.4591  0.5700
  938TIP3   OH2 2777   2.601   4.734   3.763 -0.4137  0.0196 -0.7222
  938TIP3    H1 2778   2.570   4.665   3.822 -2.9820  0.2345 -1.6862
  938TIP3    H2 2779   2.636   4.802   3.821 -3.6663  0.6220  0.7421
  939TIP3   OH2 2780   1.728   1.521   2.782 -0.0323 -0.7973 -0.5096
  939TIP3    H1 2781   1.806   1.539   2.834 -0.4187 -1.1479  0.2061
  939TIP3    H2 2782   1.763   1.493   2.697  0.5893  0.8329 -0.8309
  940TIP3   OH2 2783   2.870   3.617   5.128 -0.1153 -0.0790  0.3624
  940TIP3    H1 2784   2.862   3.543   5.189  0.0895  0.9373  1.6844
  940TIP3    H2 2785   2.926   3.585   5.058 -0.0537 -1.1874  0.8891
  941TIP3   OH2 2786   2.144   3.909   5.723  0.2257  0.8889  0.0660
  941TIP3    H1 2787   2.183   3.822   5.722  0.9978  1.2236  0.1419
  941TIP3    H2 2788   2.216   3.968   5.699 -0.5414  1.4054 -1.0682
  942TIP3   OH2 2789   6.080   1.529   5.501  0.2171 -0.5470 -0.3314
  942TIP3    H1 2790   6.031   1.539   5.420 -1.3158  0.2714  0.6384
  942TIP3    H2 2791   6.016   1.494   5.563  1.6991 -2.4820  0.1989
  943TIP3   OH2 2792   2.673   2.676   1.007  0.7777 -0.0492  0.2941
  943TIP3    H1 2793   2.657   2.760   0.963  0.3494 -0.1719  0.2087
  943TIP3    H2 2794   2.749   2.640   0.962  1.2871  0.5274  0.6734
  944TIP3   OH2 2795   6.651   3.797   0.377 -0.1466 -0.0385 -0.1732
  944TIP3    H1 2796   6.673   3.873   0.323  1.4873 -0.7827 -0.5962
  944TIP3    H2 2797   6.724   3.737   0.365 -0.8392 -1.1819  1.1095
  945TIP3   OH2 2798   2.025   5.246   4.227  0.1324  0.2510  0.2733
  945TIP3    H1 2799   2.082   5.256   4.304 -1.5214  1.2068  1.4241
  945TIP3    H2 2800   1.987   5.159   4.237  1.8377 -0.6735 -0.8607
  946TIP3   OH2 2801   0.646   0.695   1.159  1.0012 -0.0202  0.3533
  946TIP3    H1 2802   0.731   0.738   1.164  1.2835 -0.7061  2.3732
  946TIP3    H2 2803   0.591   0.742   1.222 -0.3695  0.8626 -1.4298
  947TIP3   OH2 2804   7.035   2.786   2.537 -0.1038  0.1730  1.0770
  947TIP3    H1 2805   7.065   2.723   2.603  2.9634  2.4156  2.0500
  947TIP3    H2 2806   6.939   2.782   2.542 -0.0456 -3.0377  2.3094
  948TIP3   OH2 2807   1.455   1.096   4.036 -0.1928 -0.4500 -0.1431
  948TIP3    H1 2808   1.504   1.124   3.958  0.6815 -1.9365 -0.1538
  948TIP3    H2 2809   1.475   1.164   4.102 -0.0086  0.2003 -0.8578
  949TIP3   OH2 2810   5.389   1.825   3.135 -0.9148  0.0036  0.2155
  949TIP3    H1 2811   5.450   1.809   3.063 -0.6878 -2.0911  0.8195
  949TIP3    H2 2812   5.352   1.739   3.155 -2.5082  0.8825  1.2655
  950TIP3   OH2 2813   3.916   2.667   0.887 -0.4602  0.0633  0.2931
  950TIP3    H1 2814   3.954   2.648   0.801  0.7794 -0.5855  0.9606
  950TIP3    H2 2815   3.888   2.758   0.881 -1.3566 -0.2665 -1.1329
  951TIP3   OH2 2816   5.816   5.030   0.207  0.5259  0.0063  0.1997
  951TIP3    H1 2817   5.837   5.072   0.290  2.3250  1.2018 -0.7879
  951TIP3    H2 2818   5.723   5.047   0.194  0.5374  1.0544  1.2828
  952TIP3   OH2 2819   0.264   6.006   2.376 -0.0444 -0.3702 -0.1552
  952TIP3    H1 2820   0.265   6.100   2.394  0.1601 -0.4007  0.0033
  952TIP3    H2 2821   0.174   5.988   2.349 -0.0219 -0.0869 -0.4226
  953TIP3   OH2 2822   7.060   4.168   4.674 -0.0255  0.0598  0.1247
  953TIP3    H1 2823   7.113   4.100   4.632 -0.1332 -0.3302  0.6073
  953TIP3    H2 2824   7.060   4.145   4.767  0.2599  0.9499  0.3531
  954TIP3   OH2 2825   1.512   0.008   3.145 -0.2845  0.2948 -0.8193
  954TIP3    H1 2826   1.552   0.094   3.137  1.0444 -0.3025 -0.7377
  954TIP3    H2 2827   1.582  -0.054   3.126 -0.6635 -0.8330  1.1667
  955TIP3   OH2 2828   2.611   4.124   2.413 -0.7529  0.5010 -0.6360
  955TIP3    H1 2829   2.658   4.207   2.406  0.6168 -0.3978 -3.0600
  955TIP3    H2 2830   2.522   4.145   2.384 -1.3616  1.7237  1.8318
  956TIP3   OH2 2831   6.825   1.542   2.005 -0.3440  0.1146  0.7060
  956TIP3    H1 2832   6.892   1.563   1.939  0.7844  0.4419  1.8985
  956TIP3    H2 2833   6.746   1.525   1.955  0.6906 -0.5328 -0.7945
  957TIP3   OH2 2834   4.392   5.345   5.755 -0.2687 -0.2765  0.0603
  957TIP3    H1 2835   4.432   5.289   5.689  1.2317  0.1855  0.5171
  957TIP3    H2 2836   4.323   5.292   5.794 -2.2361 -0.0706 -2.8278
  958TIP3   OH2 2837   1.723   1.739   4.360  0.7886 -0.0554 -0.0838
  958TIP3    H1 2838   1.726   1.830   4.332  0.9529 -0.2486 -0.7165
  958TIP3    H2 2839   1.762   1.690   4.287  1.2369 -0.5726  0.4887
  959TIP3   OH2 2840   7.097  -0.016   1.483 -0.2552 -0.2217 -0.7703
  959TIP3    H1 2841   7.157  -0.018   1.408  0.1283 -0.6385 -0.4618
  959TIP3    H2 2842   7.024   0.037   1.454  0.6901  1.0892 -0.8406
  960TIP3   OH2 2843   4.424   0.597   2.607  0.0520 -0.2323 -0.2310
  960TIP3    H1 2844   4.428   0.607   2.512  2.3085 -1.7997 -0.3749
  960TIP3    H2 2845   4.382   0.513   2.622 -0.0183 -0.1352  0.1518
  961TIP3   OH2 2846   6.343   5.984   4.600  0.1040  0.9284 -0.2418
  961TIP3    H1 2847   6.316   5.901   4.639  0.3407 -0.1099 -2.2092
  961TIP3    H2 2848   6.435   5.972   4.578  0.0399  1.5745 -0.8896
  962TIP3   OH2 2849   3.905   3.558   5.698 -0.1390  0.5354 -0.0040
  962TIP3    H1 2850   3.898   3.510   5.780  0.2420  0.1350 -0.1983
  962TIP3    H2 2851   3.998   3.580   5.691 -0.3544  1.5955  0.2386
  963TIP3   OH2 2852   5.016   4.674   4.016  0.5547 -0.0454 -0.0011
  963TIP3    H1 2853   4.934   4.624   4.019 -0.9259  2.1270 -1.3205
  963TIP3    H2 2854   5.039   4.677   3.924  1.5009  0.3789  0.2359
  964TIP3   OH2 2855   0.971   1.465   0.797  0.0090 -0.2583 -0.2744
  964TIP3    H1 2856   1.026   1.416   0.737 -0.1547 -2.3617  1.1813
  964TIP3    H2 2857   1.017   1.461   0.881 -0.5916  1.1205  0.1509
  965TIP3   OH2 2858   5.672   3.424   4.486 -0.1316  0.4969  0.4199
  965TIP3    H1 2859   5.757   3.450   4.522 -0.1579  1.2974 -0.0817
  965TIP3    H2 2860   5.608   3.468   4.541 -0.1593  2.9274 -1.4104
  966TIP3   OH2 2861   6.604   3.669   0.865  0.2803 -0.1396  0.2450
  966TIP3    H1 2862   6.566   3.697   0.781  0.9099 -1.2798 -0.4357
  966TIP3    H2 2863   6.645   3.749   0.900 -1.1747  0.6827  0.1481
  967TIP3   OH2 2864   5.347   4.156   3.036 -0.0297 -0.0651  0.1259
  967TIP3    H1 2865   5.430   4.193   3.006  0.3243  1.7551  2.9705
  967TIP3    H2 2866   5.372   4.084   3.093 -0.3612  0.5533  1.0756
  968TIP3   OH2 2867   2.033   5.639   4.399 -0.1983  0.4406 -0.2015
  968TIP3    H1 2868   1.995   5.700   4.336  0.2511  0.8666 -0.0666
  968TIP3    H2 2869   2.117   5.679   4.423  0.5840 -0.7452 -0.8958
  969TIP3   OH2 2870   4.826   4.917   5.021 -0.1652  0.2036 -0.4656
  969TIP3    H1 2871   4.904   4.882   5.063 -1.5377 -0.6233  1.5321
  969TIP3    H2 2872   4.803   4.850   4.956  0.9265  0.6199 -1.3236
  970TIP3   OH2 2873   6.411   5.797   5.647 -0.5592 -0.4600  0.2311
  970TIP3    H1 2874   6.352   5.804   5.723 -0.3537 -0.2675  0.3738
  970TIP3    H2 2875   6.498   5.815   5.683 -0.4873 -0.1674 -0.0906
  971TIP3   OH2 2876   6.619   6.283   5.128  0.4522  0.0181  0.1084
  971TIP3    H1 2877   6.657   6.360   5.171  0.6544 -0.7039  1.2582
  971TIP3    H2 2878   6.674   6.269   5.051  2.2728 -0.7099  1.4659
  972TIP3   OH2 2879   3.087   3.800   5.731  0.2658 -0.4438  0.1660
  972TIP3    H1 2880   3.051   3.791   5.819  1.3280 -1.8086  0.4892
  972TIP3    H2 2881   3.182   3.792   5.743  0.5119  0.5328 -0.9632
  973TIP3   OH2 2882   5.886   6.057   5.861  1.0944 -0.0328 -0.9264
  973TIP3    H1 2883   5.899   5.988   5.927  3.5300  0.4879 -0.7640
  973TIP3    H2 2884   5.794   6.051   5.839  0.4175 -0.9705  1.7246
  974TIP3   OH2 2885   5.273   2.965   1.013  0.4545  0.3268  0.0015
  974TIP3    H1 2886   5.345   2.991   1.070  0.7099 -0.6745  0.1538
  974TIP3    H2 2887   5.305   2.885   0.970 -1.3411 -1.3784  1.6626
  975TIP3   OH2 2888   3.738   2.437   4.388  0.5158  0.2397 -0.2684
  975TIP3    H1 2889   3.752   2.379   4.463 -0.9467 -0.9772 -0.8887
  975TIP3    H2 2890   3.789   2.398   4.317 -0.0830 -0.0105 -0.5615
  976TIP3   OH2 2891   2.503   3.802   0.456  0.7035  0.3284 -0.0200
  976TIP3    H1 2892   2.426   3.838   0.500 -0.0672 -2.3442  1.0806
  976TIP3    H2 2893   2.567   3.790   0.526  1.6333  1.2660 -0.6862
  977TIP3   OH2 2894   5.941   0.709   1.221 -0.8595  0.0274  0.3086
  977TIP3    H1 2895   5.925   0.803   1.236 -0.8066  0.2542 -0.9098
  977TIP3    H2 2896   5.909   0.694   1.132 -0.9831 -1.1524  0.5440
  978TIP3   OH2 2897   4.270   3.279  -0.003 -0.1192  0.0957 -0.0899
  978TIP3    H1 2898   4.214   3.205   0.021 -1.7957  1.3033 -0.0644
  978TIP3    H2 2899   4.316   3.302   0.078  0.5041 -0.9672 -0.1301
  979TIP3   OH2 2900   5.451   6.454   2.572  0.3901  0.3216 -0.5599
  979TIP3    H1 2901   5.409   6.372   2.547  0.0100  0.8198 -1.6053
  979TIP3    H2 2902   5.385   6.501   2.623  0.9098 -0.3782  0.7972
  980TIP3   OH2 2903   5.023   2.778   4.957  0.6937  0.2102 -0.3210
  980TIP3    H1 2904   5.023   2.872   4.975  2.6323 -0.1418  2.1671
  980TIP3    H2 2905   5.109   2.762   4.918  0.5736 -0.5841 -0.2649
  981TIP3   OH2 2906   1.853   6.133   4.992  0.4436  0.1593  0.0598
  981TIP3    H1 2907   1.799   6.186   4.933  0.7184 -0.5793 -0.8931
  981TIP3    H2 2908   1.820   6.044   4.980  2.1664 -0.3923 -0.9099
  982TIP3   OH2 2909   6.399   6.560   4.874  0.2266  0.0245  0.0907
  982TIP3    H1 2910   6.317   6.516   4.851  0.4218 -0.2723 -0.0259
  982TIP3    H2 2911   6.384   6.652   4.850  1.0061 -0.5111 -2.7729
  983TIP3   OH2 2912   3.483   3.561   3.241  0.0617 -0.3377  0.5542
  983TIP3    H1 2913   3.545   3.634   3.235 -0.4623  0.1068  0.4998
  983TIP3    H2 2914   3.397   3.601   3.228 -0.2609 -0.9131  0.8720
  984TIP3   OH2 2915   0.011   0.531   0.905 -0.0201  0.3106 -0.1460
  984TIP3    H1 2916   0.092   0.549   0.953  1.2631  0.5191 -2.2490
  984TIP3    H2 2917  -0.020   0.617   0.877  0.7282  0.0566 -1.8837
  985TIP3   OH2 2918   1.224   3.944   1.555 -0.5577 -0.1660 -0.4618
  985TIP3    H1 2919   1.140   3.900   1.568 -0.2250 -0.4517  0.8469
  985TIP3    H2 2920   1.233   4.001   1.632 -0.1655  0.8824 -1.2533
  986TIP3   OH2 2921   3.159   1.625   2.554 -0.3533  0.5113 -0.0459
  986TIP3    H1 2922   3.164   1.596   2.463 -0.1108  1.4635 -0.3408
  986TIP3    H2 2923   3.128   1.716   2.549 -0.2537  0.6027  0.8195
  987TIP3   OH2 2924   5.235   4.386   2.871 -0.5281 -0.2615  0.3075
  987TIP3    H1 2925   5.187   4.467   2.855  1.5451  0.7560 -1.1585
  987TIP3    H2 2926   5.327   4.413   2.876  0.1169 -2.3806  0.9835
  988TIP3   OH2 2927   5.834   2.531   4.506 -0.1868  0.3256  0.0691
  988TIP3    H1 2928   5.798   2.465   4.446  1.6479 -1.1682  0.5172
  988TIP3    H2 2929   5.906   2.570   4.457 -0.3911  1.0351  0.3247
  989TIP3   OH2 2930   3.155   5.608   3.944  0.1260 -0.4825 -0.0381
  989TIP3    H1 2931   3.188   5.559   3.868  0.8892 -2.2456  1.3437
  989TIP3    H2 2932   3.081   5.556   3.975 -1.8688  1.6050 -1.0474
  990TIP3   OH2 2933   1.486   3.961   3.903  0.5204  0.0925 -0.2257
  990TIP3    H1 2934   1.418   3.911   3.858  0.0277  2.3025 -2.0668
  990TIP3    H2 2935   1.568   3.924   3.870  0.2245 -0.8415  0.0335
  991TIP3   OH2 2936   1.741   3.701   2.076  0.4896  0.5932  0.1821
  991TIP3    H1 2937   1.649   3.722   2.096 -0.2068  1.4148 -3.2212
  991TIP3    H2 2938   1.782   3.692   2.161 -2.6468  0.6260  1.8690
  992TIP3   OH2 2939   4.499   2.544   0.828  0.3605  0.3329  0.2656
  992TIP3    H1 2940   4.438   2.618   0.837 -0.8353 -0.0995 -2.9645
  992TIP3    H2 2941   4.444   2.467   0.833  1.0034 -0.1744 -0.3150
  993TIP3   OH2 2942   1.626   5.257   5.407  0.5689  0.6304  0.4171
  993TIP3    H1 2943   1.589   5.235   5.321 -1.2604  1.9065  0.8200
  993TIP3    H2 2944   1.616   5.177   5.458 -0.2582  0.4731  0.0336
  994TIP3   OH2 2945   1.367   6.239   0.298 -0.3798  0.1543 -0.3182
  994TIP3    H1 2946   1.299   6.273   0.356 -2.1253  0.8135 -2.5950
  994TIP3    H2 2947   1.343   6.271   0.211  1.7343 -1.3095 -1.5459
  995TIP3   OH2 2948   4.573   3.058   0.872  0.3629  0.1008 -0.1135
  995TIP3    H1 2949   4.588   3.027   0.961  2.6418 -1.7534 -1.0204
  995TIP3    H2 2950   4.619   3.142   0.868 -0.9466  0.9011  0.7823
  996TIP3   OH2 2951   2.667   2.987   0.968 -0.3953  0.1504  0.0785
  996TIP3    H1 2952   2.735   3.016   0.908 -0.5827  1.0066  0.2602
  996TIP3    H2 2953   2.710   2.982   1.053 -0.5525  0.6958  0.1942
  997TIP3   OH2 2954   0.206   6.368   0.811 -0.4055  0.4115 -0.2871
  997TIP3    H1 2955   0.244   6.420   0.739  0.8517  0.3820  0.3259
  997TIP3    H2 2956   0.116   6.401   0.819 -0.8057 -0.0515 -2.3038
  998TIP3   OH2 2957   2.753   0.213   4.238 -0.0409 -0.1133 -0.0614
  998TIP3    H1 2958   2.730   0.128   4.274  1.1529 -0.4679 -0.0673
  998TIP3    H2 2959   2.811   0.251   4.304  0.5324  0.1004 -0.6741
  999TIP3   OH2 2960   4.954   4.701   0.365 -0.1308  0.4724  0.0605
  999TIP3    H1 2961   5.034   4.728   0.322  1.2670 -0.7049  1.7474
  999TIP3    H2 2962   4.960   4.739   0.453 -1.0682 -0.1892  0.4335
 1000TIP3   OH2 2963   1.875   1.760   5.338  0.0195 -0.3336  0.2242
 1000TIP3    H1 2964   1.803   1.821   5.352  0.3040 -0.0147  0.3418
 1000TIP3    H2 2965   1.836   1.685   5.293 -0.5340 -0.5111  0.9843
 1001TIP3   OH2 2966   5.073   5.064   3.092  0.3574 -0.7309 -0.3254
 1001TIP3    H1 2967   5.014   5.039   3.164  2.0274 -1.2937  0.9258
 1001TIP3    H2 2968   5.044   5.151   3.066 -1.0798 -1.0339  0.1822
 1002TIP3   OH2 2969   4.942   2.951   3.559 -0.2886  0.0981 -0.1807
 1002TIP3    H1 2970   5.030   2.976   3.529 -0.0527 -0.1068  0.3389
 1002TIP3    H2 2971   4.885   3.019   3.523  0.2407  0.9480  0.5535
 1003TIP3   OH2 2972   6.611   6.014   3.531  0.6274 -0.3251  0.3999
 1003TIP3    H1 2973   6.671   6.039   3.601 -0.1067 -1.4686  1.4817
 1003TIP3    H2 2974   6.565   5.937   3.565 -0.7036 -0.1131 -0.8138
 1004TIP3   OH2 2975   1.562   6.186   1.758  0.3765  0.6399  0.1291
 1004TIP3    H1 2976   1.634   6.125   1.775  1.6947  1.7220 -1.3399
 1004TIP3    H2 2977   1.528   6.207   1.845  1.1188 -0.7181  0.7801
 1005TIP3   OH2 2978   7.208   6.379   3.652 -0.0872  0.0912  0.0262
 1005TIP3    H1 2979   7.145   6.319   3.692  1.0093  0.3152  2.2351
 1005TIP3    H2 2980   7.276   6.322   3.617  0.3285 -0.0438  1.0100
 1006TIP3   OH2 2981   2.165   3.093   4.527  0.0901 -0.3883 -0.0441
 1006TIP3    H1 2982   2.216   3.144   4.591 -0.2399  1.1166 -0.9394
 1006TIP3    H2 2983   2.227   3.075   4.456  0.3993 -1.8893  0.5608
 1007TIP3   OH2 2984   4.057   6.511   0.986  0.6466 -0.0610 -0.1758
 1007TIP3    H1 2985   4.117   6.571   1.030 -1.8048  2.7604 -0.3188
 1007TIP3    H2 2986   4.044   6.549   0.899 -1.1991 -0.6143 -0.1905
 1008TIP3   OH2 2987   5.957   0.621   3.669 -0.6960  0.5120  0.2190
 1008TIP3    H1 2988   5.926   0.706   3.638 -0.6196 -0.4313 -2.8237
 1008TIP3    H2 2989   5.880   0.565   3.672 -0.4082  0.0843 -0.1173
 1009TIP3   OH2 2990   6.468   0.879   1.472  0.6757  0.6242 -0.4064
 1009TIP3    H1 2991   6.481   0.831   1.391  0.2696 -1.6635  0.8012
 1009TIP3    H2 2992   6.379   0.856   1.500  0.4572  2.1240  0.2312
 1010TIP3   OH2 2993   3.072   3.180   2.936  0.1283  0.7536 -0.2085
 1010TIP3    H1 2994   3.147   3.180   2.877  0.1250  0.1619 -0.2199
 1010TIP3    H2 2995   3.026   3.099   2.917 -0.1604  0.8054  0.2445
 1011TIP3   OH2 2996   1.790   3.957   2.625  0.2127  0.1077 -0.0693
 1011TIP3    H1 2997   1.749   3.879   2.663 -0.7060  1.0476  0.9446
 1011TIP3    H2 2998   1.837   3.997   2.698 -1.5694  1.9298  0.1631
 1012TIP3   OH2 2999   6.558   0.097   0.244  0.1159 -0.2406 -0.3511
 1012TIP3    H1 3000   6.535   0.006   0.223  1.9195 -0.2321 -2.7252
 1012TIP3    H2 3001   6.489   0.149   0.202 -0.9474 -0.4578  1.0538
 1013TIP3   OH2 3002   5.054   2.450   1.675 -0.6072  0.7259  0.0170
 1013TIP3    H1 3003   5.128   2.404   1.716 -1.9292 -0.6389  0.9569
 1013TIP3    H2 3004   5.092   2.533   1.645  0.8628  0.9851  2.3137
 1014TIP3   OH2 3005   3.776   1.770   1.332  0.1242  0.0558 -0.7163
 1014TIP3    H1 3006   3.847   1.833   1.344  2.1117 -2.1247 -0.1720
 1014TIP3    H2 3007   3.820   1.685   1.329 -2.1543 -1.2120 -3.7354
 1015TIP3   OH2 3008   4.357   0.161   2.899 -0.4110  0.1959 -0.1763
 1015TIP3    H1 3009   4.309   0.115   2.968 -2.0187  0.7158 -0.9006
 1015TIP3    H2 3010   4.397   0.236   2.944 -1.2550  0.4030  0.2595
 1016TIP3   OH2 3011   3.835   2.643   1.151  0.2126  0.8088 -0.4237
 1016TIP3    H1 3012   3.893   2.694   1.208  0.0985  0.8608 -0.3539
 1016TIP3    H2 3013   3.870   2.656   1.063  0.7455  0.2472 -0.3015
 1017TIP3   OH2 3014   6.416   6.311   2.451  0.2466  0.4552 -0.2755
 1017TIP3    H1 3015   6.445   6.368   2.522  1.7295  1.6473 -1.7550
 1017TIP3    H2 3016   6.480   6.326   2.381 -1.1349 -0.6776 -1.8538
 1018TIP3   OH2 3017   0.308   0.401   2.909  0.0473 -0.7353  0.1645
 1018TIP3    H1 3018   0.251   0.325   2.898 -0.9908  0.1194 -0.5514
 1018TIP3    H2 3019   0.378   0.387   2.846 -1.7004  0.2848 -2.1593
 1019TIP3   OH2 3020   2.583   3.649   2.805 -0.0373 -0.3549  0.3344
 1019TIP3    H1 3021   2.492   3.643   2.774 -0.7772 -0.0806  2.3106
 1019TIP3    H2 3022   2.618   3.561   2.791 -0.8816 -0.7047  0.3080
 1020TIP3   OH2 3023   1.110   1.925   1.488 -0.3864  0.3129 -0.2108
 1020TIP3    H1 3024   1.068   2.009   1.508  0.6080  0.0472  3.8149
 1020TIP3    H2 3025   1.204   1.945   1.487 -0.0031 -0.9156  2.7121
 1021TIP3   OH2 3026   3.090   3.871   2.310  0.0869  0.2306 -0.1733
 1021TIP3    H1 3027   3.129   3.796   2.265 -0.6399  0.4757 -1.2556
 1021TIP3    H2 3028   3.100   3.944   2.249 -0.3351  0.7291  0.3397
 1022TIP3   OH2 3029   6.078   2.732   2.508 -0.2968  0.1881 -0.4288
 1022TIP3    H1 3030   6.096   2.718   2.415 -0.2464 -1.4888 -0.1973
 1022TIP3    H2 3031   5.988   2.704   2.520 -0.5095  0.9867 -0.0709
 1023TIP3   OH2 3032   4.253   4.838   1.181  0.1625 -0.3634 -0.4939
 1023TIP3    H1 3033   4.308   4.774   1.226  1.1283  1.2969  0.7815
 1023TIP3    H2 3034   4.178   4.787   1.151  0.6016 -1.9895  0.9663
 1024TIP3   OH2 3035   3.203   0.502   0.384 -0.4948 -0.8352  0.1281
 1024TIP3    H1 3036   3.209   0.407   0.398 -1.1149 -1.0303 -0.8347
 1024TIP3    H2 3037   3.152   0.511   0.303  0.7747  0.2917 -0.5800
 1025TIP3   OH2 3038   2.016   4.777   4.993  0.5303  0.2259 -0.3152
 1025TIP3    H1 3039   2.039   4.695   4.950  1.2908  0.0419  0.4157
 1025TIP3    H2 3040   2.075   4.842   4.953  1.1716  0.0725  0.3704
 1026TIP3   OH2 3041   4.530   3.953   1.580  0.3370  0.1327 -0.7316
 1026TIP3    H1 3042   4.514   4.042   1.613 -2.8799 -0.4655 -0.2957
 1026TIP3    H2 3043   4.517   3.897   1.657  1.1301 -0.7804 -1.2578
 1027TIP3   OH2 3044   4.541   3.473   5.668  0.6038  0.0378 -0.4461
 1027TIP3    H1 3045   4.495   3.534   5.726 -1.8241 -2.1620  0.0882
 1027TIP3    H2 3046   4.602   3.427   5.725  0.6038  0.1979 -0.3150
 1028TIP3   OH2 3047   3.611   5.023   0.321  0.4581 -0.6764 -0.0296
 1028TIP3    H1 3048   3.675   4.970   0.368  0.4926 -0.1601  0.5177
 1028TIP3    H2 3049   3.567   5.073   0.389  0.2075 -0.2367 -0.5084
 1029TIP3   OH2 3050   5.475   3.288   2.483  0.7626  0.0450  0.0649
 1029TIP3    H1 3051   5.471   3.383   2.477 -2.5268  0.0423  0.1263
 1029TIP3    H2 3052   5.420   3.266   2.558  3.6111 -1.8655  1.7693
 1030TIP3   OH2 3053   3.487   0.081   0.639 -0.2933 -0.5646  0.1058
 1030TIP3    H1 3054   3.549   0.037   0.582  2.2187  1.2663  1.2620
 1030TIP3    H2 3055   3.428   0.127   0.579  2.3542  1.4250 -1.1322
 1031TIP3   OH2 3056   2.559   5.331   5.711 -0.0368  0.5161  0.2415
 1031TIP3    H1 3057   2.610   5.271   5.765  1.4547  1.7293  0.2258
 1031TIP3    H2 3058   2.483   5.280   5.684  0.7629 -1.0870  0.9157
 1032TIP3   OH2 3059   5.596   0.040   4.427 -0.0873 -0.3619  0.2841
 1032TIP3    H1 3060   5.502   0.053   4.413 -0.3084 -1.1916  0.9422
 1032TIP3    H2 3061   5.602  -0.038   4.483  1.0108 -0.6385 -0.1840
 1033TIP3   OH2 3062   2.335   3.984   5.390  0.1939  0.6488  0.1139
 1033TIP3    H1 3063   2.279   4.021   5.458 -0.3046 -1.7753  1.1275
 1033TIP3    H2 3064   2.291   3.902   5.365  1.7676  0.1543 -1.1905
 1034TIP3   OH2 3065   1.876   5.114   5.191  0.5841 -0.1989 -0.0774
 1034TIP3    H1 3066   1.950   5.162   5.153  0.0597  1.5522  1.0054
 1034TIP3    H2 3067   1.900   5.102   5.283  1.2768 -3.2618 -0.5746
 1035TIP3   OH2 3068   5.413   1.112   3.906  0.2741  0.4656 -0.0067
 1035TIP3    H1 3069   5.369   1.047   3.853  0.7227 -1.1108  1.4378
 1035TIP3    H2 3070   5.392   1.196   3.866 -2.1280 -0.3948 -0.6717
 1036TIP3   OH2 3071   2.314   4.532   5.036 -0.5287  0.1226 -0.1899
 1036TIP3    H1 3072   2.392   4.477   5.035 -1.3397 -1.0783 -1.2931
 1036TIP3    H2 3073   2.345   4.620   5.016  0.4794 -0.4323 -1.1596
 1037TIP3   OH2 3074   6.964   4.148   3.952 -0.3722  0.4133 -0.7959
 1037TIP3    H1 3075   7.034   4.111   4.006 -1.1228  0.1558  0.0228
 1037TIP3    H2 3076   6.988   4.124   3.862  0.1446 -0.4111 -0.4515
 1038TIP3   OH2 3077   6.468   5.392   0.419 -0.0987 -0.0140  0.0080
 1038TIP3    H1 3078   6.541   5.453   0.433 -0.6176  0.6085  0.0591
 1038TIP3    H2 3079   6.509   5.312   0.386  0.8252 -0.3954  1.9615
 1039TIP3   OH2 3080   0.305   2.522   1.907  0.2580  0.0149  0.3147
 1039TIP3    H1 3081   0.366   2.450   1.918 -0.9407 -0.9912  0.5554
 1039TIP3    H2 3082   0.349   2.582   1.847  1.2538 -0.9256  0.0794
 1040TIP3   OH2 3083   5.367   5.521   3.175 -0.1104 -0.4635 -0.0198
 1040TIP3    H1 3084   5.273   5.536   3.182  0.0014  1.1328 -1.4889
 1040TIP3    H2 3085   5.403   5.604   3.144  1.3099 -2.0627 -3.0853
 1041TIP3   OH2 3086   4.767   5.365   1.789 -0.0201  0.3956  0.9104
 1041TIP3    H1 3087   4.826   5.292   1.809  1.9501  2.0210  1.4403
 1041TIP3    H2 3088   4.810   5.441   1.829 -1.5584  1.9759 -0.3192
 1042TIP3   OH2 3089   0.273   6.734   0.006 -0.8581  0.1175 -0.0383
 1042TIP3    H1 3090   0.302   6.647   0.034  1.1625  0.7979  0.1015
 1042TIP3    H2 3091   0.232   6.771   0.084  0.6522  0.2632  0.7231
 1043TIP3   OH2 3092   6.439   2.829   1.994 -0.0477 -0.2145  0.2615
 1043TIP3    H1 3093   6.531   2.814   1.973 -0.0874 -0.3972  0.2178
 1043TIP3    H2 3094   6.435   2.922   2.017 -0.0999  0.1004 -0.9852
 1044TIP3   OH2 3095   0.181   0.930   0.810 -0.5311 -0.7686 -0.2018
 1044TIP3    H1 3096   0.231   0.874   0.869  0.4391 -0.4478 -0.7009
 1044TIP3    H2 3097   0.247   0.983   0.765 -1.4263  0.8396  0.3002
 1045TIP3   OH2 3098   0.263   5.511   0.610 -0.6790 -0.2169 -0.1573
 1045TIP3    H1 3099   0.280   5.589   0.662 -2.2053 -0.3655  0.6377
 1045TIP3    H2 3100   0.287   5.438   0.668 -0.1638 -0.3631 -0.5446
 1046TIP3   OH2 3101   2.459   1.404   4.843  0.3340 -0.1765 -0.6587
 1046TIP3    H1 3102   2.443   1.467   4.773 -3.2756  0.6207  0.6813
 1046TIP3    H2 3103   2.431   1.320   4.807  0.9265 -0.2364 -0.9888
 1047TIP3   OH2 3104   4.256   4.035   2.436 -0.4632  0.2024  0.1108
 1047TIP3    H1 3105   4.176   4.034   2.489 -1.4678 -2.1297 -1.3053
 1047TIP3    H2 3106   4.260   3.947   2.398  0.6518  1.5031 -3.0204
 1048TIP3   OH2 3107   5.475   1.510   3.644 -0.3508  0.3134  0.1206
 1048TIP3    H1 3108   5.427   1.463   3.711 -1.4837 -0.7524 -1.3867
 1048TIP3    H2 3109   5.410   1.566   3.602  0.0650  0.0997 -0.8434
 1049TIP3   OH2 3110   1.660   2.053   3.503 -0.8175  0.0081 -0.1171
 1049TIP3    H1 3111   1.618   1.967   3.503  0.4041 -0.6050  0.1684
 1049TIP3    H2 3112   1.670   2.075   3.595  0.6908 -0.4848 -0.1318
 1050TIP3   OH2 3113   5.383   4.728   3.337  0.0037 -0.1639 -0.0751
 1050TIP3    H1 3114   5.441   4.795   3.376 -0.2940 -0.3023  0.6147
 1050TIP3    H2 3115   5.443   4.668   3.294  0.4958 -0.9673  1.6436
 1051TIP3   OH2 3116   4.522   2.805   0.142  0.0854  0.3509  0.0894
 1051TIP3    H1 3117   4.539   2.711   0.138  3.5824  0.8737 -0.7145
 1051TIP3    H2 3118   4.562   2.833   0.225 -0.5722  1.1938  0.1368
 1052TIP3   OH2 3119   2.465   5.427   4.349  0.2216 -0.5779 -0.3023
 1052TIP3    H1 3120   2.436   5.490   4.415  1.3460  0.8249 -1.1013
 1052TIP3    H2 3121   2.404   5.354   4.358 -0.4781  0.1579  1.3611
 1053TIP3   OH2 3122   6.565   6.391   0.090 -0.1495 -0.1625 -0.4620
 1053TIP3    H1 3123   6.647   6.360   0.051  0.2925 -2.2737  1.9174
 1053TIP3    H2 3124   6.509   6.314   0.093 -1.2667  0.6592  0.3086
 1054TIP3   OH2 3125   5.204   0.563   0.431 -0.0695  0.2420 -0.1315
 1054TIP3    H1 3126   5.222   0.629   0.498  0.8684  1.9991 -2.0093
 1054TIP3    H2 3127   5.272   0.497   0.445 -0.4976  0.0420  1.2313
 1055TIP3   OH2 3128   4.374   6.117   3.882 -0.3957  0.7408 -0.0430
 1055TIP3    H1 3129   4.454   6.101   3.933 -0.0428  3.3141  0.3545
 1055TIP3    H2 3130   4.403   6.169   3.808 -1.3856 -0.3977 -1.2768
 1056TIP3   OH2 3131   0.519   0.968   4.943  0.0230  0.3176  0.5336
 1056TIP3    H1 3132   0.537   0.956   5.036  1.5896 -0.0483  0.2047
 1056TIP3    H2 3133   0.593   1.018   4.910  1.2424 -2.3570 -1.1389
 1057TIP3   OH2 3134   1.957   2.915   0.922 -1.0251  0.0872  0.3638
 1057TIP3    H1 3135   1.887   2.868   0.876  0.2533  1.7059 -3.5725
 1057TIP3    H2 3136   2.021   2.847   0.943 -1.2326 -0.6351 -1.1681
 1058TIP3   OH2 3137   6.137   6.654   0.175  0.6070  0.8708  0.3126
 1058TIP3    H1 3138   6.130   6.561   0.200 -0.0682  0.9810  0.5463
 1058TIP3    H2 3139   6.139   6.652   0.080  0.7987  0.6038  0.3181
 1059TIP3   OH2 3140   2.440   3.907   3.956 -0.2624  0.4999  0.2681
 1059TIP3    H1 3141   2.526   3.917   3.914  0.8524 -0.6551  2.1145
 1059TIP3    H2 3142   2.378   3.941   3.891  1.4893  0.5699 -1.4931
 1060TIP3   OH2 3143   4.847   5.025   3.241  0.1543 -0.6478  0.0026
 1060TIP3    H1 3144   4.828   4.933   3.259 -0.9871 -1.2687 -3.6165
 1060TIP3    H2 3145   4.767   5.071   3.263  0.6887 -0.4720  1.7095
 1061TIP3   OH2 3146   3.637   3.686   5.596  0.0129 -0.0518  0.3529
 1061TIP3    H1 3147   3.720   3.658   5.634 -0.1278 -0.3347  0.4510
 1061TIP3    H2 3148   3.597   3.606   5.563  0.1541  0.1945 -0.4427
 1062TIP3   OH2 3149   3.992   4.663   1.739  0.1971  0.5500  0.1325
 1062TIP3    H1 3150   4.001   4.755   1.715 -3.8141  0.6631 -1.7966
 1062TIP3    H2 3151   3.968   4.619   1.657 -1.9781 -1.3939  1.6851
 1063TIP3   OH2 3152   4.491   1.546   1.299 -0.2454  0.7677  0.0888
 1063TIP3    H1 3153   4.528   1.497   1.226 -0.7827 -0.6039  0.7025
 1063TIP3    H2 3154   4.420   1.597   1.261  0.5087  1.3110 -0.6153
 1064TIP3   OH2 3155   1.135   3.800   0.896 -0.4386  0.6408 -0.0638
 1064TIP3    H1 3156   1.204   3.740   0.868 -0.1042  1.1780 -0.4263
 1064TIP3    H2 3157   1.137   3.869   0.830  0.1891  1.8209  1.1364
 1065TIP3   OH2 3158   3.916   1.404   3.887 -0.4880  0.1017  0.3587
 1065TIP3    H1 3159   3.823   1.403   3.906 -0.4887 -0.0172  0.3511
 1065TIP3    H2 3160   3.949   1.484   3.929 -0.3071 -0.6522  1.6999
 1066TIP3   OH2 3161   1.681   3.495   3.032 -0.0748  0.3363 -0.2661
 1066TIP3    H1 3162   1.718   3.524   3.115  0.8461 -0.9793 -0.1807
 1066TIP3    H2 3163   1.592   3.531   3.031  0.8190  2.7356 -0.0027
 1067TIP3   OH2 3164   0.192   4.344   3.426 -0.3811 -0.2014 -0.8060
 1067TIP3    H1 3165   0.224   4.423   3.382  0.5987 -1.1827 -1.9173
 1067TIP3    H2 3166   0.137   4.301   3.361  0.0372 -1.0275 -0.6223
 1068TIP3   OH2 3167   6.739   4.181   3.078 -0.2540 -0.2910  0.1840
 1068TIP3    H1 3168   6.781   4.097   3.096 -1.4548 -0.8402  0.5063
 1068TIP3    H2 3169   6.781   4.211   2.997  1.2886 -0.4376  0.8966
 1069TIP3   OH2 3170   2.084   0.750   2.570 -0.0391  0.4456  0.3229
 1069TIP3    H1 3171   2.042   0.740   2.484  0.2837  0.9914  0.0949
 1069TIP3    H2 3172   2.107   0.843   2.575  1.4560  0.1055  0.2818
 1070TIP3   OH2 3173   4.632   5.075   0.887 -0.0916  0.0942 -0.3599
 1070TIP3    H1 3174   4.663   5.152   0.840 -0.2230  0.4102  0.0543
 1070TIP3    H2 3175   4.556   5.107   0.937 -0.4263 -0.4108 -0.5336
 1071TIP3   OH2 3176   2.499   5.159  -0.012  0.2455  0.2179 -0.3164
 1071TIP3    H1 3177   2.452   5.129   0.065  0.5597  0.6749  0.0662
 1071TIP3    H2 3178   2.443   5.226  -0.050 -0.0347 -0.2004 -0.6435
 1072TIP3   OH2 3179   1.659   0.119   2.656  0.1495  0.1001  0.3444
 1072TIP3    H1 3180   1.648   0.057   2.728  2.4524 -0.3490  0.4017
 1072TIP3    H2 3181   1.731   0.083   2.604  1.0213  2.2634 -0.0741
 1073TIP3   OH2 3182   1.451   2.424   0.329 -0.1873 -0.3334  0.4805
 1073TIP3    H1 3183   1.508   2.432   0.405 -0.8135  1.4016  0.8080
 1073TIP3    H2 3184   1.383   2.362   0.356  1.8574 -3.0326 -0.1798
 1074TIP3   OH2 3185   1.672   3.050   0.642  0.1262  0.0413  0.7000
 1074TIP3    H1 3186   1.665   2.999   0.723 -2.7558 -1.1416 -0.1419
 1074TIP3    H2 3187   1.635   3.135   0.665 -0.2125 -0.1221  0.7687
 1075TIP3   OH2 3188   5.425   5.697   1.495  0.1885  0.4560  0.1478
 1075TIP3    H1 3189   5.470   5.622   1.455  0.1318  1.1551 -1.2992
 1075TIP3    H2 3190   5.493   5.740   1.546  0.2186 -0.5671  1.0189
 1076TIP3   OH2 3191   3.394   5.822   5.146 -0.4007 -0.1480  0.1017
 1076TIP3    H1 3192   3.368   5.877   5.072  1.5445  1.1761  0.3488
 1076TIP3    H2 3193   3.489   5.829   5.150 -0.1550 -2.7435  0.7984
 1077TIP3   OH2 3194   5.055   3.124   5.393 -0.2615 -0.5617  0.1462
 1077TIP3    H1 3195   5.034   3.190   5.326 -0.1991 -0.8147 -0.1232
 1077TIP3    H2 3196   4.975   3.071   5.400 -0.4154 -0.2849  0.5713
 1078TIP3   OH2 3197   0.544   6.063   2.485 -0.0493 -0.3049 -0.2944
 1078TIP3    H1 3198   0.587   5.997   2.539  0.0740  0.4369  0.5346
 1078TIP3    H2 3199   0.510   6.014   2.410  3.1874 -0.7621 -1.5909
 1079TIP3   OH2 3200   6.775   3.303   5.247 -0.1693  0.0520  0.1572
 1079TIP3    H1 3201   6.850   3.278   5.302  0.5636  1.0706 -0.3400
 1079TIP3    H2 3202   6.812   3.317   5.160 -0.1150  4.3489  0.6681
 1080TIP3   OH2 3203   7.172   1.457   2.915  0.4619 -0.4203 -0.3540
 1080TIP3    H1 3204   7.198   1.542   2.951 -0.3408 -0.8378  1.3520
 1080TIP3    H2 3205   7.205   1.457   2.825  0.6540  1.5937 -0.3216
 1081TIP3   OH2 3206   3.299   5.392   2.629  0.0411 -0.1796 -0.4854
 1081TIP3    H1 3207   3.311   5.382   2.723  0.3431 -0.6257 -0.5660
 1081TIP3    H2 3208   3.375   5.348   2.590  1.6641  2.6620 -0.8820
 1082TIP3   OH2 3209   4.257   3.794   2.308  0.4290 -0.2916  0.2424
 1082TIP3    H1 3210   4.315   3.781   2.233  0.7946  0.9833  0.2904
 1082TIP3    H2 3211   4.252   3.708   2.349  0.4674 -0.9492 -1.0571
 1083TIP3   OH2 3212   3.165   2.821   1.496 -0.3757  0.3693  0.5403
 1083TIP3    H1 3213   3.181   2.792   1.586  0.5256 -0.3982  0.1414
 1083TIP3    H2 3214   3.249   2.810   1.452 -1.0428 -0.1442 -0.6415
 1084TIP3   OH2 3215   1.006   3.194   4.776  0.1312 -0.7907 -0.1081
 1084TIP3    H1 3216   0.994   3.140   4.698  3.6273 -2.5794  0.3814
 1084TIP3    H2 3217   1.039   3.133   4.842 -2.6115  0.6457  2.8839
 1085TIP3   OH2 3218   4.021   0.341   5.185 -0.0315  0.7258  0.3143
 1085TIP3    H1 3219   4.043   0.291   5.107  0.6340  1.9284 -0.2844
 1085TIP3    H2 3220   4.060   0.291   5.257 -0.1536 -0.0806 -0.1582
 1086TIP3   OH2 3221   5.528   4.215   0.986 -0.1658  0.1750  0.4291
 1086TIP3    H1 3222   5.548   4.308   0.982  0.8373  0.0373  1.6425
 1086TIP3    H2 3223   5.594   4.174   0.930 -0.8542  0.2108 -0.4276
 1087TIP3   OH2 3224   5.349   4.804   0.940 -0.0637 -0.3907  0.1301
 1087TIP3    H1 3225   5.371   4.860   1.014 -0.1762  2.4805 -1.8565
 1087TIP3    H2 3226   5.280   4.747   0.973  0.5766  0.0966  2.4799
 1088TIP3   OH2 3227   0.003   2.397   5.892  0.2732 -0.0447  0.1667
 1088TIP3    H1 3228   0.004   2.488   5.863  0.3633 -0.4833 -1.2912
 1088TIP3    H2 3229   0.020   2.346   5.813  0.9381 -1.3066  1.0770
 1089TIP3   OH2 3230   5.885   6.249   2.569  0.2105 -0.1866  0.0225
 1089TIP3    H1 3231   5.848   6.161   2.571  2.9633 -1.4539  1.9271
 1089TIP3    H2 3232   5.961   6.241   2.511 -0.9106  1.6838 -1.8558
 1090TIP3   OH2 3233   2.515   4.976   2.501 -0.2130  0.5839 -0.6369
 1090TIP3    H1 3234   2.549   4.911   2.439  0.9166  1.0008 -0.4748
 1090TIP3    H2 3235   2.542   5.060   2.464 -0.2277  0.8782  0.0095
 1091TIP3   OH2 3236   0.172   1.889   0.776 -0.1613  0.3233  1.1566
 1091TIP3    H1 3237   0.187   1.855   0.864  0.1612  0.6875  1.2447
 1091TIP3    H2 3238   0.088   1.851   0.750  0.2431 -0.6297  1.2003
 1092TIP3   OH2 3239   7.136   5.705   0.455  0.2855  0.3023 -0.4316
 1092TIP3    H1 3240   7.157   5.658   0.375 -1.6686  2.3178 -2.2474
 1092TIP3    H2 3241   7.207   5.768   0.465 -0.1565  0.9774 -1.4035
 1093TIP3   OH2 3242   2.635   0.983   2.421 -0.0486  0.1063  0.4034
 1093TIP3    H1 3243   2.575   0.944   2.357 -0.1860 -0.0726  0.6404
 1093TIP3    H2 3244   2.579   1.040   2.474 -0.0357 -0.1781  0.7213
 1094TIP3   OH2 3245   4.887   0.944   3.598  0.8740  0.3110 -0.3535
 1094TIP3    H1 3246   4.915   0.865   3.553 -0.2668 -0.1555 -0.2869
 1094TIP3    H2 3247   4.879   0.918   3.690 -0.4313  0.2307 -0.4779
 1095TIP3   OH2 3248   4.337   3.935   4.592  0.2155 -0.2901  1.0847
 1095TIP3    H1 3249   4.325   3.910   4.683  0.8512 -0.0466  1.2348
 1095TIP3    H2 3250   4.352   4.029   4.594  2.7262 -0.6120  0.9820
 1096TIP3   OH2 3251   5.736   1.934   1.076 -0.7972  0.2942 -0.7135
 1096TIP3    H1 3252   5.712   1.864   1.136 -1.7297  0.8301 -0.4563
 1096TIP3    H2 3253   5.662   1.942   1.016 -1.1786  1.7475 -0.1015
 1097TIP3   OH2 3254   3.519   5.307   5.423  0.3478  0.3999 -0.5848
 1097TIP3    H1 3255   3.547   5.399   5.423 -0.0752  0.5727 -2.3428
 1097TIP3    H2 3256   3.567   5.267   5.496 -0.3007  2.2409  0.9519
 1098TIP3   OH2 3257   3.591   3.326   4.733  0.0367  0.7740  0.1918
 1098TIP3    H1 3258   3.548   3.350   4.815  1.7335  0.4208  1.2213
 1098TIP3    H2 3259   3.620   3.409   4.696 -0.3630  0.8978  0.1495
 1099TIP3   OH2 3260   0.662   3.159   4.265  0.4329 -1.1171  0.5572
 1099TIP3    H1 3261   0.575   3.184   4.234  0.7244 -0.8330 -0.0368
 1099TIP3    H2 3262   0.652   3.150   4.360 -0.3877 -1.6805  0.4261
 1100TIP3   OH2 3263   1.988   1.400   5.736  0.1960 -0.2450 -0.2479
 1100TIP3    H1 3264   1.931   1.443   5.673  0.2322  0.4950  0.2055
 1100TIP3    H2 3265   2.026   1.472   5.786 -0.4726 -0.8264  1.1587
 1101TIP3   OH2 3266   2.977   1.947   3.002  0.2706  0.5570  0.5084
 1101TIP3    H1 3267   2.908   1.912   3.058  1.1413 -0.8815  0.7323
 1101TIP3    H2 3268   2.999   1.875   2.942  1.4857  1.0094  0.3696
 1102TIP3   OH2 3269   1.843   3.519   1.858 -0.2153 -0.6831 -0.3425
 1102TIP3    H1 3270   1.865   3.575   1.932 -1.7148  1.4895 -1.4525
 1102TIP3    H2 3271   1.927   3.497   1.818  0.4066  1.9801 -0.6819
 1103TIP3   OH2 3272   3.466   2.481   4.583 -0.4527 -0.1382 -0.0876
 1103TIP3    H1 3273   3.377   2.484   4.547  0.1309 -0.8971 -1.6732
 1103TIP3    H2 3274   3.507   2.561   4.551  0.4117 -1.3360 -2.1693
 1104TIP3   OH2 3275   0.903   1.723   1.021  0.6080 -0.5466  0.7625
 1104TIP3    H1 3276   0.971   1.685   0.965 -0.1286 -0.1662 -0.4275
 1104TIP3    H2 3277   0.949   1.746   1.102  2.3727  1.4215 -0.6599
 1105TIP3   OH2 3278   3.169   0.209   2.627  0.7458 -0.6058 -0.2382
 1105TIP3    H1 3279   3.136   0.280   2.572  0.7506 -0.8974 -0.6246
 1105TIP3    H2 3280   3.233   0.164   2.571 -0.4366 -1.9147 -0.5918
 1106TIP3   OH2 3281   1.788   1.045   3.987  0.3839  0.3124  0.0441
 1106TIP3    H1 3282   1.805   0.986   3.913  0.8622 -1.0067  1.1505
 1106TIP3    H2 3283   1.774   1.130   3.947  0.3129 -0.4229 -1.5897
 1107TIP3   OH2 3284   2.705   3.106   3.917 -0.0693  0.2731 -0.4524
 1107TIP3    H1 3285   2.620   3.113   3.959 -0.8986  2.3973 -2.2918
 1107TIP3    H2 3286   2.714   3.013   3.896 -1.1733 -0.2479  1.1944
 1108TIP3   OH2 3287   0.477   1.848   3.891  0.1351 -0.0163  0.4996
 1108TIP3    H1 3288   0.566   1.818   3.909  0.6911  0.1486 -1.6900
 1108TIP3    H2 3289   0.438   1.779   3.838 -0.4962  0.6169  0.1134
 1109TIP3   OH2 3290   2.504   2.612   2.201  0.3641  0.2406 -0.4934
 1109TIP3    H1 3291   2.482   2.653   2.284 -1.5120 -2.1834  0.3077
 1109TIP3    H2 3292   2.425   2.565   2.174  1.4636 -0.5165 -2.7514
 1110TIP3   OH2 3293   1.360   2.391   1.560 -0.4247 -0.5760  0.0145
 1110TIP3    H1 3294   1.436   2.371   1.505  0.8560 -2.1998  2.2039
 1110TIP3    H2 3295   1.338   2.482   1.539  3.5365  0.7733  0.7560
 1111TIP3   OH2 3296   6.116   6.654   4.698 -0.2150  0.5932 -0.0578
 1111TIP3    H1 3297   6.139   6.567   4.667  0.5853  0.5028  0.7521
 1111TIP3    H2 3298   6.197   6.705   4.689 -0.3007  0.8793  0.7484
 1112TIP3   OH2 3299   0.727   6.601   5.836 -0.7552  0.0993 -0.4320
 1112TIP3    H1 3300   0.756   6.672   5.779 -1.2954 -0.7438 -1.7879
 1112TIP3    H2 3301   0.633   6.615   5.847 -0.6614  0.2436  0.2535
 1113TIP3   OH2 3302   4.384   2.898   4.388 -0.7142  0.0319  0.2396
 1113TIP3    H1 3303   4.336   2.815   4.392  0.7199 -1.0566 -2.4556
 1113TIP3    H2 3304   4.330   2.954   4.332 -0.6428  0.1274  0.2666
 1114TIP3   OH2 3305   7.127   2.148   1.622  0.1196 -0.0989 -0.3653
 1114TIP3    H1 3306   7.118   2.239   1.594 -0.8812  0.2958  1.1679
 1114TIP3    H2 3307   7.222   2.136   1.633  0.1372  1.6215  2.0672
 1115TIP3   OH2 3308   6.197   3.470   0.680  0.5255  0.2510  0.1165
 1115TIP3    H1 3309   6.256   3.453   0.754  0.1694  1.8792  0.8177
 1115TIP3    H2 3310   6.231   3.549   0.640 -0.5461  0.6173 -0.1157
 1116TIP3   OH2 3311   0.895   5.257   5.327  0.2541  0.4162  0.3427
 1116TIP3    H1 3312   0.963   5.323   5.341  0.6874 -0.1461  0.9905
 1116TIP3    H2 3313   0.822   5.286   5.381  0.5621  0.2153  0.8848
 1117TIP3   OH2 3314   4.398   1.759   4.120  0.4709  0.3308  0.1341
 1117TIP3    H1 3315   4.420   1.687   4.060 -0.6826 -0.0436  0.1395
 1117TIP3    H2 3316   4.397   1.719   4.207 -1.9792 -0.1375 -0.0274
 1118TIP3   OH2 3317   6.833   0.416   0.564  1.0003 -0.1436 -0.2366
 1118TIP3    H1 3318   6.915   0.406   0.515  1.8612  1.0813  0.8909
 1118TIP3    H2 3319   6.840   0.502   0.605 -0.3739 -0.4918  0.8002
 1119TIP3   OH2 3320   1.720   1.152   2.459  0.4438 -0.3445 -0.0138
 1119TIP3    H1 3321   1.646   1.093   2.471  1.3048 -1.7598 -1.3675
 1119TIP3    H2 3322   1.680   1.236   2.434 -0.7099 -1.0721 -0.7054
 1120TIP3   OH2 3323   6.370   0.697   4.224  0.1970  0.4750 -0.6428
 1120TIP3    H1 3324   6.435   0.705   4.154  0.9287  0.8062  0.0629
 1120TIP3    H2 3325   6.344   0.787   4.243  1.0231  0.5070  0.4410
 1121TIP3   OH2 3326   2.616   1.714   3.810  0.0318  0.3427 -0.5986
 1121TIP3    H1 3327   2.658   1.800   3.810  2.7240 -0.8528  0.6879
 1121TIP3    H2 3328   2.633   1.678   3.723 -0.9486  1.0063 -1.0780
 1122TIP3   OH2 3329   2.312   3.916   0.170 -0.1597  0.0845  0.3490
 1122TIP3    H1 3330   2.352   3.978   0.230  0.4705 -0.5142  0.5557
 1122TIP3    H2 3331   2.224   3.901   0.205  1.2083 -2.6657  2.9836
 1123TIP3   OH2 3332   6.516   5.977   1.679 -0.3622  0.2111  0.3353
 1123TIP3    H1 3333   6.491   5.889   1.653  3.5494 -0.7480 -0.7976
 1123TIP3    H2 3334   6.548   5.968   1.769  0.8148  0.2607 -0.0646
 1124TIP3   OH2 3335   1.078   5.892   4.866 -0.3456  0.3167  0.3006
 1124TIP3    H1 3336   1.079   5.904   4.771  1.2620 -2.1610 -0.0734
 1124TIP3    H2 3337   1.128   5.967   4.899  0.5387  0.3214 -0.9630
 1125TIP3   OH2 3338   5.450   0.814   2.242  0.3967 -0.0591  0.2427
 1125TIP3    H1 3339   5.503   0.818   2.163  1.2781  1.9507  0.8513
 1125TIP3    H2 3340   5.508   0.845   2.312 -0.8827 -0.0492  1.3593
 1126TIP3   OH2 3341   2.872   5.199   5.051 -0.0266 -0.4135  0.0329
 1126TIP3    H1 3342   2.911   5.115   5.030 -1.2227 -1.2248  0.8961
 1126TIP3    H2 3343   2.844   5.235   4.967  2.0425 -0.0330 -0.5487
 1127TIP3   OH2 3344   4.025   0.338   2.565 -0.7045  0.1549  0.2990
 1127TIP3    H1 3345   4.072   0.277   2.622  0.9771  0.6672 -0.5066
 1127TIP3    H2 3346   4.090   0.401   2.537 -2.0330  1.3108 -0.3142
 1128TIP3   OH2 3347   1.524   6.222   3.387 -0.3571 -0.4447 -0.0588
 1128TIP3    H1 3348   1.504   6.223   3.293  0.4095 -1.5407 -0.2516
 1128TIP3    H2 3349   1.618   6.240   3.392 -0.6314  0.9239  0.5996
 1129TIP3   OH2 3350   3.108   4.392   2.527  0.5512 -0.1648  0.5112
 1129TIP3    H1 3351   3.069   4.420   2.444  1.5215  0.5607  0.2816
 1129TIP3    H2 3352   3.040   4.341   2.570  0.0237 -0.5317 -0.7265
 1130TIP3   OH2 3353   1.907   1.952   0.642  0.7369  0.5804 -0.1197
 1130TIP3    H1 3354   1.914   2.006   0.563  0.4986  0.2666 -0.3585
 1130TIP3    H2 3355   1.865   2.009   0.707  0.0927  0.5525 -0.5011
 1131TIP3   OH2 3356   5.222   1.079   1.185  0.9020  0.8196 -0.6546
 1131TIP3    H1 3357   5.145   1.094   1.239  0.9851 -1.7887  0.3148
 1131TIP3    H2 3358   5.294   1.121   1.232  0.7045 -0.0900  0.4891
 1132TIP3   OH2 3359   5.707   4.522   2.579 -0.6203 -0.2232  0.2329
 1132TIP3    H1 3360   5.646   4.455   2.546  1.1106 -0.9015 -1.8218
 1132TIP3    H2 3361   5.674   4.604   2.544 -2.3036 -0.0334  2.0993
 1133TIP3   OH2 3362   6.180   1.121   2.343  0.0051  0.2401  0.7517
 1133TIP3    H1 3363   6.149   1.040   2.301  1.0328 -0.1577  0.7344
 1133TIP3    H2 3364   6.139   1.191   2.292  0.5264 -0.2446 -0.3671
 1134TIP3   OH2 3365   3.975   5.814   0.263 -0.2761 -0.0389 -0.0333
 1134TIP3    H1 3366   3.991   5.837   0.171  0.3244 -0.9148 -0.1554
 1134TIP3    H2 3367   3.885   5.843   0.279 -0.5149 -0.1979 -1.0084
 1135TIP3   OH2 3368   1.615   4.880   4.321  0.3288  0.2236  0.2399
 1135TIP3    H1 3369   1.600   4.836   4.405  0.8297 -0.0429  0.1937
 1135TIP3    H2 3370   1.565   4.961   4.327  0.4802  0.2779  0.8612
 1136TIP3   OH2 3371   2.472   3.278   2.257 -0.1815  0.1525 -0.3085
 1136TIP3    H1 3372   2.472   3.373   2.264 -0.1657  0.3126 -2.0406
 1136TIP3    H2 3373   2.563   3.253   2.267 -0.0521  0.4165 -0.7949
 1137TIP3   OH2 3374   1.656   2.995   3.113 -0.2682 -0.3458  0.0823
 1137TIP3    H1 3375   1.625   2.904   3.117  0.8833 -0.7508  4.0272
 1137TIP3    H2 3376   1.581   3.047   3.142 -0.3590 -0.2190 -0.3737
 1138TIP3   OH2 3377   2.229   3.154   0.334 -0.2306  0.2246  0.2985
 1138TIP3    H1 3378   2.250   3.192   0.419  2.4079  0.4900 -0.3771
 1138TIP3    H2 3379   2.237   3.059   0.348  2.7347  0.3345 -0.1465
 1139TIP3   OH2 3380   3.370   5.628   0.158  0.9412  0.1292 -0.7706
 1139TIP3    H1 3381   3.426   5.600   0.086  0.9090  1.3071 -1.2847
 1139TIP3    H2 3382   3.427   5.679   0.215  0.7307  0.0749 -0.5091
 1140TIP3   OH2 3383   4.538   2.819   4.788  0.2553  0.1887  1.0702
 1140TIP3    H1 3384   4.612   2.869   4.822  1.6592 -0.0701 -1.4543
 1140TIP3    H2 3385   4.547   2.732   4.828  2.1504 -0.2651 -0.2539
 1141TIP3   OH2 3386   4.291   4.130   3.125  0.0611  0.1086  0.2305
 1141TIP3    H1 3387   4.282   4.093   3.037  2.6802  0.0534 -0.1041
 1141TIP3    H2 3388   4.206   4.168   3.144 -1.2407 -1.7263 -1.4454
 1142TIP3   OH2 3389   3.779   4.893   1.347  0.0120  0.1619 -1.2253
 1142TIP3    H1 3390   3.772   4.957   1.276 -0.2993 -0.4002 -1.7079
 1142TIP3    H2 3391   3.753   4.810   1.308 -0.4899 -0.1012 -0.3708
 1143TIP3   OH2 3392   2.554   6.305   1.224  0.0931 -0.0145 -0.2117
 1143TIP3    H1 3393   2.548   6.235   1.290 -1.7030 -0.7851 -1.1207
 1143TIP3    H2 3394   2.648   6.316   1.210  0.5215 -0.0097  2.2545
 1144TIP3   OH2 3395   6.936   1.175   0.585 -0.9797  0.1321 -0.4332
 1144TIP3    H1 3396   7.003   1.243   0.585 -0.5224 -0.3127 -0.1174
 1144TIP3    H2 3397   6.929   1.149   0.493  0.2758 -0.7675 -0.3067
 1145TIP3   OH2 3398   1.774   2.055   5.374  0.0102 -0.0837  0.0362
 1145TIP3    H1 3399   1.861   2.092   5.391  0.6896 -0.9919 -1.2626
 1145TIP3    H2 3400   1.731   2.120   5.319 -0.4959  0.7736  1.3931
 1146TIP3   OH2 3401   2.569   1.334   5.368  0.1750  0.4432  0.3350
 1146TIP3    H1 3402   2.574   1.350   5.274  0.7476 -1.4325  0.0070
 1146TIP3    H2 3403   2.529   1.247   5.376  2.4701 -0.5847  1.6622
 1147TIP3   OH2 3404   1.256   0.342   0.907  0.3466  0.0788  0.5140
 1147TIP3    H1 3405   1.255   0.248   0.895  1.9950 -0.0270  0.9901
 1147TIP3    H2 3406   1.242   0.378   0.819  3.5500 -0.6521 -0.4416
 1148TIP3   OH2 3407   5.233   2.063   1.894  0.0835 -0.6266 -0.2508
 1148TIP3    H1 3408   5.211   1.973   1.869  0.7347 -0.8253 -0.1093
 1148TIP3    H2 3409   5.300   2.089   1.831  1.4636 -0.9986  1.0157
 1149TIP3   OH2 3410   2.572   2.379   1.711 -0.1665  0.1168  0.6115
 1149TIP3    H1 3411   2.647   2.320   1.697 -0.5496 -0.4946  1.0858
 1149TIP3    H2 3412   2.566   2.429   1.630 -0.1967 -0.9165 -0.0408
 1150TIP3   OH2 3413   3.081   1.018   3.429 -0.1267 -0.6291  0.1448
 1150TIP3    H1 3414   3.015   1.030   3.361  0.8721 -0.9645 -0.9296
 1150TIP3    H2 3415   3.053   0.940   3.476  0.5874 -2.0807 -1.6939
 1151TIP3   OH2 3416   7.049   0.304   1.799  0.3082  0.0360 -0.8251
 1151TIP3    H1 3417   6.973   0.319   1.855  0.8994  0.7521 -0.1933
 1151TIP3    H2 3418   7.111   0.257   1.855  0.2145 -0.8225 -1.4320
 1152TIP3   OH2 3419   5.093   5.988   2.789  0.1739 -0.5856  0.0692
 1152TIP3    H1 3420   5.051   5.904   2.808  1.3559 -1.0214  0.8411
 1152TIP3    H2 3421   5.067   6.008   2.699 -2.1614 -0.5276  0.6965
 1153TIP3   OH2 3422   6.631   4.369   1.274  0.5219  0.3276  0.6824
 1153TIP3    H1 3423   6.617   4.400   1.363 -2.2839  0.6768  0.2367
 1153TIP3    H2 3424   6.543   4.371   1.235  1.4352 -1.2045 -1.6343
 1154TIP3   OH2 3425   0.162   3.500   1.418 -0.2578 -0.1443 -0.1698
 1154TIP3    H1 3426   0.112   3.581   1.422  0.6323  0.6508 -2.7530
 1154TIP3    H2 3427   0.232   3.511   1.483 -1.1059  0.4136  0.6643
 1155TIP3   OH2 3428   3.973   4.708   2.554  0.0907  0.0344  0.7909
 1155TIP3    H1 3429   3.909   4.651   2.512 -0.7946  1.0761  0.6764
 1155TIP3    H2 3430   4.005   4.658   2.629  0.5466 -1.2399 -0.1948
 1156TIP3   OH2 3431   5.654   6.181   3.751 -0.0073  0.1134  0.2749
 1156TIP3    H1 3432   5.717   6.248   3.725 -2.5244  2.3069 -0.6077
 1156TIP3    H2 3433   5.708   6.113   3.792  2.7432  2.5290  1.0621
 1157TIP3   OH2 3434   2.362   0.579   3.310  0.6428  0.1604  0.3756
 1157TIP3    H1 3435   2.335   0.657   3.261 -0.5013 -0.8135 -0.6244
 1157TIP3    H2 3436   2.360   0.508   3.245  0.7699 -0.8586  1.4526
 1158TIP3   OH2 3437   4.777   1.633   4.463  0.3926 -0.7166  0.1512
 1158TIP3    H1 3438   4.739   1.718   4.440 -1.8365 -1.8307 -0.6019
 1158TIP3    H2 3439   4.857   1.654   4.511  0.3756  1.7823 -0.7924
 1159TIP3   OH2 3440   3.410   2.807   2.184  0.0064 -0.4916 -0.5853
 1159TIP3    H1 3441   3.447   2.869   2.246 -2.0333  0.2300 -0.0119
 1159TIP3    H2 3442   3.335   2.769   2.229  1.2962 -3.5997 -0.8354
 1160TIP3   OH2 3443   0.258   3.444   0.566  0.2762 -0.0141  0.3335
 1160TIP3    H1 3444   0.215   3.438   0.651 -0.1709  1.1928  0.2105
 1160TIP3    H2 3445   0.339   3.394   0.576 -1.1450 -2.4052  0.5519
 1161TIP3   OH2 3446   3.153   1.437   2.743 -0.8028 -0.2355  0.0695
 1161TIP3    H1 3447   3.139   1.360   2.687  1.0688  0.0697 -0.8727
 1161TIP3    H2 3448   3.151   1.511   2.683  1.4158  0.0883  0.3319
 1162TIP3   OH2 3449   3.281   4.866   4.904  0.2203 -0.3495 -0.0039
 1162TIP3    H1 3450   3.244   4.878   4.991  0.8238  0.7782  0.1168
 1162TIP3    H2 3451   3.230   4.795   4.865 -2.2744  1.3163  0.0266
 1163TIP3   OH2 3452   3.843   4.497   3.723  0.0125 -0.2748  0.0806
 1163TIP3    H1 3453   3.846   4.559   3.796  0.3673 -1.3867  1.0461
 1163TIP3    H2 3454   3.810   4.548   3.649  0.0135  0.9778  0.9187
 1164TIP3   OH2 3455   5.056   5.813   5.682  0.4076 -0.3557 -0.1180
 1164TIP3    H1 3456   5.110   5.751   5.732  0.4057  1.3633  2.1658
 1164TIP3    H2 3457   5.116   5.854   5.620  0.8423 -1.1795 -0.2540
 1165TIP3   OH2 3458   3.948   6.622   1.920 -0.2257 -0.2561 -0.2097
 1165TIP3    H1 3459   3.910   6.705   1.948  1.8583  0.3580  1.0720
 1165TIP3    H2 3460   3.983   6.640   1.833 -0.3787  0.0305 -0.2125
 1166TIP3   OH2 3461   0.959   4.101   5.686 -0.2126  0.2095  0.3607
 1166TIP3    H1 3462   1.005   4.161   5.745 -1.0333  0.8862  0.3296
 1166TIP3    H2 3463   1.029   4.053   5.641  0.4400  0.5243  1.0106
 1167TIP3   OH2 3464   3.114   4.744   1.350 -0.7229 -0.2102 -0.1923
 1167TIP3    H1 3465   3.132   4.651   1.361  3.4568  0.2323 -1.7288
 1167TIP3    H2 3466   3.052   4.748   1.277 -0.0893 -1.7948 -0.8675
 1168TIP3   OH2 3467   6.144   1.361   0.865  0.1582  0.2124  0.0302
 1168TIP3    H1 3468   6.103   1.378   0.949 -0.1625 -0.8658  0.1087
 1168TIP3    H2 3469   6.072   1.357   0.803  0.0909 -1.6730  0.1685
 1169TIP3   OH2 3470   1.418   4.346   3.144  0.3363  0.1839 -0.2039
 1169TIP3    H1 3471   1.512   4.334   3.154  0.2195 -0.5090  0.1061
 1169TIP3    H2 3472   1.379   4.275   3.194 -0.3490  0.2866 -0.5781
 1170TIP3   OH2 3473   3.678   4.509   4.628 -0.0218  0.5024 -0.0626
 1170TIP3    H1 3474   3.632   4.425   4.621 -1.2073  1.3039 -3.7281
 1170TIP3    H2 3475   3.629   4.557   4.696 -0.6919 -0.9345  0.5152
 1171TIP3   OH2 3476   6.920   5.185   2.382  0.3252 -0.1878  0.5998
 1171TIP3    H1 3477   6.894   5.095   2.401 -1.2591  0.4975  1.9490
 1171TIP3    H2 3478   6.867   5.209   2.306  2.3636 -1.0494 -1.1726
 1172TIP3   OH2 3479   2.760   3.391   5.296  0.1915  0.7230  0.1766
 1172TIP3    H1 3480   2.722   3.307   5.270  0.4262  0.9995 -1.1508
 1172TIP3    H2 3481   2.847   3.369   5.327  0.3629  0.4901 -0.4448
 1173TIP3   OH2 3482   3.070   1.214   2.617  0.3452  0.5550 -0.3526
 1173TIP3    H1 3483   3.074   1.124   2.651 -0.2939  0.7032  0.1587
 1173TIP3    H2 3484   3.039   1.204   2.527 -1.2683  0.3240  0.1834
 1174TIP3   OH2 3485   4.770   1.461   0.781 -0.3597  0.2889 -0.2314
 1174TIP3    H1 3486   4.730   1.426   0.701 -0.2457 -0.3990 -0.0021
 1174TIP3    H2 3487   4.773   1.385   0.841  0.5973  0.5070  0.0185
 1175TIP3   OH2 3488   3.630   5.632   2.887  0.2750 -0.2868  0.8095
 1175TIP3    H1 3489   3.561   5.698   2.893 -0.4187 -0.8658 -0.3294
 1175TIP3    H2 3490   3.682   5.659   2.811 -0.5287 -1.4824 -0.2005
 1176TIP3   OH2 3491   3.562   1.555   1.362  0.0852 -0.1907 -0.4601
 1176TIP3    H1 3492   3.565   1.539   1.268  0.5824  0.2761 -0.5293
 1176TIP3    H2 3493   3.651   1.583   1.384 -0.4408  1.3625 -0.1585
 1177TIP3   OH2 3494   5.883   1.842   0.454 -0.4610 -0.2181 -0.0438
 1177TIP3    H1 3495   5.910   1.782   0.385  0.9583  0.7065 -0.3419
 1177TIP3    H2 3496   5.961   1.895   0.471 -0.1776 -1.4654  3.4272
 1178TIP3   OH2 3497   3.801   3.844   5.179  0.1477 -0.0640  0.2826
 1178TIP3    H1 3498   3.847   3.843   5.095  0.7110 -1.7846  0.5737
 1178TIP3    H2 3499   3.870   3.858   5.244  0.2218 -1.9474  0.6652
 1179TIP3   OH2 3500   2.426   4.148   4.814  0.4374  0.0942 -0.0275
 1179TIP3    H1 3501   2.350   4.092   4.832 -0.1468  0.0240 -2.3865
 1179TIP3    H2 3502   2.389   4.233   4.793  1.3434  1.6953  4.0085
 1180TIP3   OH2 3503   3.837   4.477   5.128  0.2582  0.3513 -0.2052
 1180TIP3    H1 3504   3.846   4.387   5.099  0.0933  0.6547 -1.2364
 1180TIP3    H2 3505   3.750   4.482   5.166  1.3154 -0.6360  2.5995
 1181TIP3   OH2 3506   3.367   5.379   2.896  0.5129  0.0792 -0.4086
 1181TIP3    H1 3507   3.457   5.393   2.927  0.4167 -0.5298  0.1678
 1181TIP3    H2 3508   3.315   5.444   2.944  0.3844 -0.7793  0.6468
 1182TIP3   OH2 3509   3.229   0.181   1.874 -0.5142 -0.5656 -0.0785
 1182TIP3    H1 3510   3.137   0.207   1.881 -0.6344 -0.4264 -1.8576
 1182TIP3    H2 3511   3.228   0.106   1.814  0.6128 -0.0809 -0.7275
 1183TIP3   OH2 3512   6.459   5.469   2.792 -0.3986  0.5349  0.1330
 1183TIP3    H1 3513   6.428   5.397   2.847 -0.0016 -0.1496 -0.5160
 1183TIP3    H2 3514   6.511   5.427   2.724  0.5385  1.5073  0.2088
 1184TIP3   OH2 3515   4.657   4.862   1.709  0.4567 -0.7769 -0.0913
 1184TIP3    H1 3516   4.589   4.797   1.688  2.2727 -3.1144  0.8601
 1184TIP3    H2 3517   4.724   4.850   1.642  1.1270 -0.3256  0.4813
 1185TIP3   OH2 3518   1.815   0.633   4.432  0.2689  0.5428  0.5052
 1185TIP3    H1 3519   1.842   0.613   4.522 -0.7383 -0.8108  0.5345
 1185TIP3    H2 3520   1.744   0.696   4.442 -1.4056 -1.2948  0.8366
 1186TIP3   OH2 3521   4.768   4.395   3.486 -0.5773 -0.1156 -0.1653
 1186TIP3    H1 3522   4.805   4.414   3.400 -0.1649 -0.1593 -0.0022
 1186TIP3    H2 3523   4.817   4.318   3.517 -0.3342  0.2357  0.3408
 1187TIP3   OH2 3524   6.425   3.090   2.051  0.2976  0.2631 -0.0503
 1187TIP3    H1 3525   6.405   3.139   2.130  0.1922  0.2113 -0.0443
 1187TIP3    H2 3526   6.348   3.102   1.995  0.7263  1.0063 -0.4971
 1188TIP3   OH2 3527   5.321   5.472   5.158 -0.0007  0.7478 -0.4732
 1188TIP3    H1 3528   5.306   5.384   5.192 -1.4587  1.2750  0.3820
 1188TIP3    H2 3529   5.359   5.459   5.072  0.4378 -0.7043 -0.0857
 1189TIP3   OH2 3530   0.247   3.912   3.935 -0.9856 -0.5131  0.2842
 1189TIP3    H1 3531   0.255   3.947   4.023  0.0891  0.6093 -0.2324
 1189TIP3    H2 3532   0.310   3.961   3.883  0.4543 -3.0485 -0.5571
 1190TIP3   OH2 3533   0.473   3.022   3.384 -0.2071  0.4627 -0.5638
 1190TIP3    H1 3534   0.503   3.108   3.354  0.0976 -0.1889 -2.2353
 1190TIP3    H2 3535   0.504   2.961   3.317 -2.1272 -0.7108 -0.4575
 1191TIP3   OH2 3536   3.678   3.155   3.780  0.0557 -0.5784  0.6203
 1191TIP3    H1 3537   3.768   3.130   3.798  0.7783 -0.3717 -2.2353
 1191TIP3    H2 3538   3.638   3.078   3.741  0.4037  0.5931 -2.2826
 1192TIP3   OH2 3539   6.560   1.327   3.710 -0.3045  0.5685 -0.1329
 1192TIP3    H1 3540   6.482   1.365   3.670 -1.1648  0.2128  1.1563
 1192TIP3    H2 3541   6.560   1.361   3.800  1.4442  1.1615 -0.3147
 1193TIP3   OH2 3542   3.214   2.308   1.183 -0.2944  0.1097  0.6600
 1193TIP3    H1 3543   3.165   2.363   1.244  0.1890 -0.3718  1.4997
 1193TIP3    H2 3544   3.276   2.261   1.237  0.5705  0.1139 -0.2893
 1194TIP3   OH2 3545   3.806   0.742   2.427 -0.0109  0.2350 -0.3973
 1194TIP3    H1 3546   3.775   0.700   2.506  0.0529  1.2586  0.1889
 1194TIP3    H2 3547   3.731   0.792   2.395 -0.4440 -1.1766 -1.7262
 1195TIP3   OH2 3548   0.967   6.766   5.723  0.7916 -0.2629 -0.1117
 1195TIP3    H1 3549   0.945   6.755   5.630 -0.7392 -0.6927  0.2681
 1195TIP3    H2 3550   0.982   6.677   5.754  2.3167 -0.0403 -0.1538
 1196TIP3   OH2 3551   2.614   0.748   5.474 -0.1989  0.1736 -0.0947
 1196TIP3    H1 3552   2.636   0.803   5.549 -1.4651  2.3030 -1.1976
 1196TIP3    H2 3553   2.520   0.734   5.481  0.1886 -2.7827  0.6675
 1197TIP3   OH2 3554   0.989   4.838   5.694  0.2627 -0.3759  0.5431
 1197TIP3    H1 3555   0.935   4.916   5.696  0.2980 -0.3004 -0.7691
 1197TIP3    H2 3556   1.050   4.852   5.622  0.1935 -1.6532  0.2001
 1198TIP3   OH2 3557   6.398   0.143   0.621 -0.2251  0.0960 -0.0544
 1198TIP3    H1 3558   6.408   0.208   0.551  1.3551 -0.8956 -0.8117
 1198TIP3    H2 3559   6.416   0.059   0.578  0.2446 -0.5935  1.4383
 1199TIP3   OH2 3560   6.882   1.189   0.104 -1.2480 -0.4056  0.1886
 1199TIP3    H1 3561   6.913   1.135   0.032  0.2359  0.2509  0.2932
 1199TIP3    H2 3562   6.909   1.278   0.081  1.0102 -0.4092  2.3864
 1200TIP3   OH2 3563   1.565   1.383   4.868 -0.1269 -0.0009 -0.7991
 1200TIP3    H1 3564   1.472   1.405   4.880 -0.5010 -2.1499  0.9384
 1200TIP3    H2 3565   1.608   1.422   4.944 -0.0091 -0.9304 -0.3741
 1201TIP3   OH2 3566   0.736   0.125   4.002 -0.0925  0.4288  0.0917
 1201TIP3    H1 3567   0.685   0.051   3.969 -0.0687  1.0968 -1.5433
 1201TIP3    H2 3568   0.701   0.201   3.956  0.6948  1.2576  0.8227
 1202TIP3   OH2 3569   3.515   6.192   2.083  0.8524 -0.0692  0.2674
 1202TIP3    H1 3570   3.582   6.242   2.130  1.9323 -1.9856  0.9015
 1202TIP3    H2 3571   3.518   6.226   1.993 -0.8662  3.2811  1.3366
 1203TIP3   OH2 3572   4.690   4.540   3.698 -0.2375 -0.2437 -0.3516
 1203TIP3    H1 3573   4.735   4.623   3.681  0.9198 -0.9810 -1.0504
 1203TIP3    H2 3574   4.714   4.485   3.624 -2.2326 -0.7244 -0.6851
 1204TIP3   OH2 3575   5.087   1.148   0.017  0.6382 -0.3210  0.2545
 1204TIP3    H1 3576   5.057   1.066  -0.023 -0.1944 -0.0980  0.4140
 1204TIP3    H2 3577   5.067   1.138   0.110  1.6838 -0.4364  0.4854
 1205TIP3   OH2 3578   6.863   3.862   0.600 -0.2250 -0.4102  0.6720
 1205TIP3    H1 3579   6.929   3.796   0.624  1.8267 -0.4765 -4.1481
 1205TIP3    H2 3580   6.788   3.810   0.569  0.9721 -0.6363 -2.0854
 1206TIP3   OH2 3581   5.456   0.431   3.278  0.3015 -0.2580  0.0357
 1206TIP3    H1 3582   5.499   0.380   3.208  0.0961  1.2970 -1.2884
 1206TIP3    H2 3583   5.434   0.366   3.345  1.4922 -1.6449 -0.8536
 1207TIP3   OH2 3584   0.697   5.599   0.591  0.4056  0.1112  0.1205
 1207TIP3    H1 3585   0.767   5.539   0.565  0.6241  0.7688 -0.8623
 1207TIP3    H2 3586   0.618   5.563   0.551  0.0744 -0.8411  1.5401
 1208TIP3   OH2 3587   5.452   4.528   3.185 -0.5651 -0.2424 -0.6463
 1208TIP3    H1 3588   5.534   4.479   3.181 -0.4230 -0.1137  0.4114
 1208TIP3    H2 3589   5.385   4.462   3.203 -0.4293 -0.1308  0.3550
 1209TIP3   OH2 3590   5.467   1.526   3.117  0.0265  0.3052  0.2163
 1209TIP3    H1 3591   5.391   1.494   3.069  0.5229 -1.9263  0.8022
 1209TIP3    H2 3592   5.535   1.537   3.051  0.1866 -1.0293  0.1428
 1210TIP3   OH2 3593   3.566   1.899   2.476 -0.1450  0.1908  0.8539
 1210TIP3    H1 3594   3.600   1.902   2.386 -0.9655 -0.8750  0.4875
 1210TIP3    H2 3595   3.635   1.939   2.528  1.6986 -1.7932  0.1316
 1211TIP3   OH2 3596   3.328   2.637   2.818  0.1563 -0.3161 -0.2615
 1211TIP3    H1 3597   3.316   2.542   2.823  0.4394 -0.3328  0.1389
 1211TIP3    H2 3598   3.244   2.669   2.785  0.2637 -0.7543 -0.9907
 1212TIP3   OH2 3599   5.229   5.561   3.748  0.8268  0.9387 -0.2325
 1212TIP3    H1 3600   5.281   5.641   3.756  2.0910  0.2442 -1.1493
 1212TIP3    H2 3601   5.281   5.505   3.690 -0.4114 -0.2393 -0.2350
 1213TIP3   OH2 3602   3.903   1.619   5.620 -0.1636  0.0280 -0.4691
 1213TIP3    H1 3603   3.978   1.622   5.679  0.5848 -0.9087 -1.3384
 1213TIP3    H2 3604   3.931   1.670   5.543 -0.1310 -0.9135 -1.0933
 1214TIP3   OH2 3605   3.918   3.914   0.517 -0.2841 -0.1264 -0.0868
 1214TIP3    H1 3606   3.904   3.867   0.434  0.2444 -1.0605  0.3363
 1214TIP3    H2 3607   4.012   3.932   0.519 -0.3665  0.2845  0.1061
 1215TIP3   OH2 3608   3.854   5.581   2.700 -0.3052  0.4374 -0.5349
 1215TIP3    H1 3609   3.864   5.566   2.605  1.8776 -1.2047 -0.1293
 1215TIP3    H2 3610   3.780   5.526   2.725 -0.5306  0.4313 -1.1861
 1216TIP3   OH2 3611   1.025   5.832   0.440 -0.1559  0.1198  0.1177
 1216TIP3    H1 3612   1.075   5.813   0.361  0.6501  1.5055  0.2662
 1216TIP3    H2 3613   1.000   5.746   0.474  0.8670 -0.5423 -0.7539
 1217TIP3   OH2 3614   1.735   3.061   4.839  0.3596  0.0299  0.4522
 1217TIP3    H1 3615   1.790   3.054   4.761 -0.2578  0.7780 -0.0691
 1217TIP3    H2 3616   1.695   3.148   4.832 -0.3104 -0.2053  1.2014
 1218TIP3   OH2 3617   5.301   3.721   4.176  0.6322 -0.0981 -0.8433
 1218TIP3    H1 3618   5.391   3.691   4.180  0.9655  0.8201 -1.0749
 1218TIP3    H2 3619   5.298   3.775   4.097 -0.1762 -0.3034 -0.9590
 1219TIP3   OH2 3620   5.955   6.235   0.669  0.5989  0.4449  0.3468
 1219TIP3    H1 3621   6.048   6.226   0.689  0.5020 -0.9930  0.2154
 1219TIP3    H2 3622   5.910   6.186   0.738  0.0185 -0.1078 -0.4073
 1220TIP3   OH2 3623   6.007   2.554   1.603  0.2295  0.1623  0.4608
 1220TIP3    H1 3624   5.931   2.524   1.553  0.4000 -0.4315  0.5524
 1220TIP3    H2 3625   6.047   2.473   1.636 -0.2065  0.5781  2.0557
 1221TIP3   OH2 3626   1.942   3.194   3.469 -0.2209  0.6202 -0.5780
 1221TIP3    H1 3627   1.992   3.204   3.388 -0.2140  2.0011 -0.4290
 1221TIP3    H2 3628   1.860   3.154   3.441 -0.7855  2.3119 -1.5254
 1222TIP3   OH2 3629   6.013   1.669   5.006  0.1489 -0.0618  0.1361
 1222TIP3    H1 3630   6.106   1.662   4.985  0.1319 -0.8048  0.2688
 1222TIP3    H2 3631   5.968   1.635   4.929 -0.0576  1.2082 -0.3278
 1223TIP3   OH2 3632   5.242   5.514   0.526 -0.9535 -0.0942  0.5235
 1223TIP3    H1 3633   5.157   5.553   0.547 -1.6536 -1.6900  0.7467
 1223TIP3    H2 3634   5.235   5.487   0.435 -0.0702  1.2334  0.0174
 1224TIP3   OH2 3635   6.567   0.981   3.124  0.0650  0.0188 -0.2751
 1224TIP3    H1 3636   6.545   0.905   3.178  0.9050  1.6356  2.6018
 1224TIP3    H2 3637   6.652   0.960   3.086 -1.1949 -1.7601 -2.3615
 1225TIP3   OH2 3638   2.476   4.642   0.737 -0.6056 -0.9195 -0.1762
 1225TIP3    H1 3639   2.516   4.634   0.824  1.0357 -1.3882 -0.9401
 1225TIP3    H2 3640   2.427   4.724   0.740  0.6993 -0.1406  0.7022
 1226TIP3   OH2 3641   6.863   4.564   5.823  0.0235  0.0445  0.4705
 1226TIP3    H1 3642   6.814   4.646   5.824 -2.8766 -1.5683  0.5827
 1226TIP3    H2 3643   6.837   4.521   5.742  1.4174 -0.8500  0.4573
 1227TIP3   OH2 3644   3.585   5.672   4.788  0.4278  0.2204  0.1144
 1227TIP3    H1 3645   3.587   5.768   4.794  0.8446  0.1316  1.6665
 1227TIP3    H2 3646   3.660   5.650   4.733  0.6443  0.7501  0.1922
 1228TIP3   OH2 3647   0.688   6.502   1.988 -0.2667 -0.2270  0.3557
 1228TIP3    H1 3648   0.625   6.468   2.052  0.2230 -0.5996  0.6472
 1228TIP3    H2 3649   0.642   6.497   1.904  0.3873 -3.4613  0.0335
 1229TIP3   OH2 3650   0.832   1.797   5.636  0.1912  0.5716  0.5733
 1229TIP3    H1 3651   0.874   1.778   5.720  0.2676 -1.6062  0.1059
 1229TIP3    H2 3652   0.905   1.808   5.575  0.1343 -0.6790  0.2597
 1230TIP3   OH2 3653   6.274   3.723   0.500  0.6477 -0.3296  0.0012
 1230TIP3    H1 3654   6.237   3.662   0.437  0.5086  0.2489 -0.4774
 1230TIP3    H2 3655   6.221   3.802   0.492  1.5001  0.2436 -0.1574
 1231TIP3   OH2 3656   4.198   1.522   2.153  0.0735  0.2758  0.8442
 1231TIP3    H1 3657   4.250   1.601   2.163  0.1858  0.4107 -0.5969
 1231TIP3    H2 3658   4.108   1.553   2.143 -0.0040  0.1688  1.2079
 1232TIP3   OH2 3659   7.203   2.357   4.202 -0.5668 -0.2834  0.0641
 1232TIP3    H1 3660   7.136   2.290   4.189 -2.2850  1.6593 -2.0598
 1232TIP3    H2 3661   7.255   2.355   4.121 -0.7213  0.9841 -0.0856
 1233TIP3   OH2 3662   0.535   6.370   1.752 -0.4767  0.2874 -0.4582
 1233TIP3    H1 3663   0.608   6.310   1.767 -0.1817  0.5420 -0.8208
 1233TIP3    H2 3664   0.566   6.427   1.681 -1.1139  0.2608 -0.7621
 1234TIP3   OH2 3665   1.879   5.692   1.957 -0.2403  0.2386  0.9681
 1234TIP3    H1 3666   1.907   5.777   1.922 -0.4545  0.6872  1.8547
 1234TIP3    H2 3667   1.789   5.681   1.926 -0.0262  0.0722  0.3944
 1235TIP3   OH2 3668   6.073   2.609   4.399 -0.5442 -0.4313  0.4615
 1235TIP3    H1 3669   6.112   2.578   4.317 -1.5205 -2.1083  0.6091
 1235TIP3    H2 3670   6.119   2.560   4.468 -1.7036 -1.1666  0.7323
 1236TIP3   OH2 3671   7.146   6.532   3.027  0.0912 -0.5818 -0.2204
 1236TIP3    H1 3672   7.194   6.550   2.946 -1.2845  0.2101 -0.8995
 1236TIP3    H2 3673   7.207   6.556   3.097  0.1329  2.1136 -1.0701
 1237TIP3   OH2 3674   2.455   6.634   2.260 -0.2573  0.1820  0.2486
 1237TIP3    H1 3675   2.514   6.608   2.189 -0.6667  1.1395 -0.4716
 1237TIP3    H2 3676   2.441   6.727   2.246 -0.5644  0.3229  1.4494
 1238TIP3   OH2 3677   0.912   2.805   0.348 -0.4496  0.8214  0.5844
 1238TIP3    H1 3678   0.990   2.804   0.292 -2.8596 -0.7506 -3.1651
 1238TIP3    H2 3679   0.884   2.897   0.348  0.1636  1.0190  0.0061
 1239TIP3   OH2 3680   4.394   3.449   4.802 -0.2146 -0.2055  0.0340
 1239TIP3    H1 3681   4.328   3.380   4.803  0.7306 -1.1484  1.4944
 1239TIP3    H2 3682   4.440   3.436   4.719 -0.3229 -1.0910  0.0958
 1240TIP3   OH2 3683   1.648   3.081   0.240  0.8114 -0.2487  0.0132
 1240TIP3    H1 3684   1.583   3.151   0.240  1.5860  0.4965  0.1782
 1240TIP3    H2 3685   1.640   3.041   0.327  1.6426  0.8882  0.6364
 1241TIP3   OH2 3686   3.744   4.837   5.446  0.1207 -0.0158  0.2858
 1241TIP3    H1 3687   3.825   4.886   5.456  0.0286  0.8329 -2.2648
 1241TIP3    H2 3688   3.676   4.904   5.443 -0.6037 -0.6672  1.5773
 1242TIP3   OH2 3689   6.564   2.018   2.381 -0.1507  0.9110  0.7719
 1242TIP3    H1 3690   6.510   1.954   2.428  1.3062 -0.7672  0.3077
 1242TIP3    H2 3691   6.606   2.070   2.450  0.4786 -0.2482  1.2934
 1243TIP3   OH2 3692   0.476   3.631   1.178 -0.1223  0.4064  0.1572
 1243TIP3    H1 3693   0.553   3.593   1.136 -1.3767  0.9315 -2.9350
 1243TIP3    H2 3694   0.411   3.561   1.176 -0.6527  0.8998 -0.1476
 1244TIP3   OH2 3695   2.847   6.171   5.179 -0.1261 -0.0981 -0.3075
 1244TIP3    H1 3696   2.852   6.217   5.095 -2.4011 -1.0768 -1.0559
 1244TIP3    H2 3697   2.775   6.214   5.225  1.7353  1.1129  1.6838
 1245TIP3   OH2 3698   3.104   0.291   3.259 -0.0860 -0.2605 -1.1839
 1245TIP3    H1 3699   3.064   0.330   3.337 -1.8674  2.4520 -3.2730
 1245TIP3    H2 3700   3.070   0.202   3.257 -1.0646  0.0316  0.4036
 1246TIP3   OH2 3701   6.920   4.960   1.431 -0.0105 -0.2782  0.4340
 1246TIP3    H1 3702   6.999   4.907   1.431 -1.4532 -2.6016  0.8046
 1246TIP3    H2 3703   6.946   5.043   1.392  2.0840 -1.7936 -1.6778
 1247TIP3   OH2 3704   3.906   5.468   1.346 -0.2212  0.4009 -0.2565
 1247TIP3    H1 3705   3.880   5.470   1.439  1.1127  0.8162  0.1235
 1247TIP3    H2 3706   3.997   5.495   1.346  0.3370 -1.3164 -1.5259
 1248TIP3   OH2 3707   1.496   1.731   4.526 -0.1087 -0.4181 -0.5295
 1248TIP3    H1 3708   1.544   1.745   4.444 -2.1779 -0.0432 -1.7273
 1248TIP3    H2 3709   1.449   1.813   4.541 -1.0751 -1.0714  0.1306
 1249TIP3   OH2 3710   2.908   1.430   3.401  0.0882 -0.2565 -0.2207
 1249TIP3    H1 3711   2.865   1.512   3.375 -1.5906 -0.6999  0.9818
 1249TIP3    H2 3712   2.999   1.455   3.417  0.0036  1.0194 -1.5081
 1250TIP3   OH2 3713   7.088   3.688   2.477 -0.2618 -0.3041  0.3663
 1250TIP3    H1 3714   7.183   3.678   2.469 -0.2332 -1.1549  1.5476
 1250TIP3    H2 3715   7.071   3.779   2.454  0.7483 -0.3334 -0.5737
 1251TIP3   OH2 3716   1.865   5.375   1.697 -0.5041 -0.0433 -0.3600
 1251TIP3    H1 3717   1.883   5.380   1.791  0.8727 -0.0726 -0.6015
 1251TIP3    H2 3718   1.834   5.285   1.684  0.9528 -0.6164 -0.1665
 1252TIP3   OH2 3719   6.716   4.930   0.528  0.1721 -0.3508 -0.2994
 1252TIP3    H1 3720   6.804   4.922   0.567  0.7304 -1.7480 -1.7443
 1252TIP3    H2 3721   6.700   4.844   0.489 -2.1235 -0.3124  0.4417
 1253TIP3   OH2 3722   2.089   3.926   3.868  0.3403 -0.5449  0.1572
 1253TIP3    H1 3723   1.996   3.947   3.857 -0.0462 -1.4698  1.3727
 1253TIP3    H2 3724   2.108   3.948   3.959  1.4020 -0.0844 -0.1596
 1254TIP3   OH2 3725   2.344   5.193   5.598 -0.6841  0.0422  0.1631
 1254TIP3    H1 3726   2.312   5.263   5.541 -1.9438 -0.2969  0.4196
 1254TIP3    H2 3727   2.293   5.116   5.573 -0.2683 -0.4600  0.8070
 1255TIP3   OH2 3728   5.967   2.877   4.897 -0.5684 -0.9533  0.5591
 1255TIP3    H1 3729   5.898   2.814   4.913 -2.3496  0.7549  0.0224
 1255TIP3    H2 3730   6.029   2.832   4.839 -1.6838 -2.2433  0.3436
 1256TIP3   OH2 3731   5.952   2.636   4.756  0.5608 -0.0859 -0.2171
 1256TIP3    H1 3732   5.914   2.589   4.682 -0.8247  1.2462 -0.3986
 1256TIP3    H2 3733   5.878   2.654   4.814  1.1349  1.3202  0.1244
 1257TIP3   OH2 3734   5.224   1.695   5.215 -0.0484  0.0060 -0.1749
 1257TIP3    H1 3735   5.283   1.754   5.262 -0.4726  0.3370 -0.0539
 1257TIP3    H2 3736   5.220   1.730   5.126 -0.0877  0.0001 -0.1755
 1258TIP3   OH2 3737   3.457   0.634   4.555 -0.3492  0.2587  0.6577
 1258TIP3    H1 3738   3.444   0.631   4.460 -1.5960 -1.9641  0.8283
 1258TIP3    H2 3739   3.369   0.636   4.592  0.0833 -0.2819  1.7809
 1259TIP3   OH2 3740   4.759   1.965   4.471 -0.3494  0.0438  0.3182
 1259TIP3    H1 3741   4.753   2.056   4.499  0.7826  0.1351  0.3164
 1259TIP3    H2 3742   4.831   1.929   4.524 -0.2860 -0.6367 -0.2199
 1260TIP3   OH2 3743   2.751   1.871   0.760 -0.1123  0.3035  0.7929
 1260TIP3    H1 3744   2.663   1.863   0.722  0.4212 -0.6901 -0.2856
 1260TIP3    H2 3745   2.743   1.829   0.846 -1.3014  2.4584  1.8121
 1261TIP3   OH2 3746   3.588   1.165   2.619  0.0220  0.6626 -0.4484
 1261TIP3    H1 3747   3.567   1.166   2.712 -1.3121 -0.1484 -0.7094
 1261TIP3    H2 3748   3.663   1.106   2.612 -0.6049 -0.2232  0.0084
 1262TIP3   OH2 3749   5.889   3.278   4.970  0.1934 -0.5568  0.0009
 1262TIP3    H1 3750   5.908   3.360   5.015  0.6203 -0.5143 -0.2574
 1262TIP3    H2 3751   5.966   3.223   4.987 -0.4505 -1.2265  0.9067
 1263TIP3   OH2 3752   4.400   6.088   1.498  0.1273 -0.2735 -0.3066
 1263TIP3    H1 3753   4.383   6.008   1.547 -0.1311 -0.6989 -1.0856
 1263TIP3    H2 3754   4.349   6.080   1.418 -0.3429  0.9206 -0.1587
 1264TIP3   OH2 3755   4.292   4.164   4.061 -0.5625 -0.3713  0.1872
 1264TIP3    H1 3756   4.236   4.093   4.092 -1.6111 -0.1268 -1.0798
 1264TIP3    H2 3757   4.278   4.234   4.125  0.1705 -1.1271  1.2165
 1265TIP3   OH2 3758   2.217   5.813   5.560  0.2847 -0.3556 -0.5437
 1265TIP3    H1 3759   2.279   5.743   5.540 -0.3187 -1.4888  1.3313
 1265TIP3    H2 3760   2.131   5.772   5.550 -0.0653 -0.2386  1.5268
 1266TIP3   OH2 3761   3.028   3.795   1.222  0.0243  0.4687  0.1953
 1266TIP3    H1 3762   3.089   3.851   1.175 -0.0149  0.3027 -0.0571
 1266TIP3    H2 3763   3.082   3.725   1.258 -0.0576  0.1482 -0.2950
 1267TIP3   OH2 3764   3.818   1.205   5.176  0.5815  0.2593  0.0747
 1267TIP3    H1 3765   3.798   1.113   5.193 -0.8035 -0.1081 -2.8842
 1267TIP3    H2 3766   3.765   1.253   5.239  0.0968 -0.9580  0.6251
 1268TIP3   OH2 3767   6.074   0.023  -0.012  0.0265 -0.3015  0.2976
 1268TIP3    H1 3768   6.085  -0.061   0.032 -0.6033 -0.4518  0.1800
 1268TIP3    H2 3769   6.162   0.059  -0.018  0.2244 -0.6734  0.9015
 1269TIP3   OH2 3770   5.094   1.925   1.117  0.0237  0.0118  1.0016
 1269TIP3    H1 3771   5.164   1.947   1.179  0.0818 -0.2677  1.0372
 1269TIP3    H2 3772   5.049   2.008   1.101 -0.7088 -0.1180  2.2931
 1270TIP3   OH2 3773   0.220   3.440   2.680  0.0413  0.0418 -0.5310
 1270TIP3    H1 3774   0.159   3.475   2.745  0.0615  0.9261 -0.9773
 1270TIP3    H2 3775   0.226   3.347   2.701 -1.9956 -0.2186 -0.8838
 1271TIP3   OH2 3776   2.350   6.543   0.396  0.1716 -0.1494  0.0788
 1271TIP3    H1 3777   2.443   6.521   0.391  0.4328  1.1541 -1.6695
 1271TIP3    H2 3778   2.318   6.493   0.471  2.1629 -1.0072  0.4285
 1272TIP3   OH2 3779   0.917   6.177   2.226 -0.0744  0.6363 -0.6126
 1272TIP3    H1 3780   0.960   6.262   2.240  0.6180  0.3288 -0.8205
 1272TIP3    H2 3781   0.830   6.188   2.263  0.4073  1.0653  0.4482
 1273TIP3   OH2 3782   5.749   1.561   2.977 -0.5173 -0.0518 -0.1004
 1273TIP3    H1 3783   5.747   1.535   3.069 -0.9999 -3.5193 -0.9222
 1273TIP3    H2 3784   5.808   1.637   2.974 -1.5605  1.0449  3.1747
 1274TIP3   OH2 3785   2.410   4.015   5.112 -0.0024  0.1721 -0.1937
 1274TIP3    H1 3786   2.380   4.017   5.202  1.2603  0.2752  0.2476
 1274TIP3    H2 3787   2.330   4.014   5.059 -0.7614 -0.7985  0.9302
 1275TIP3   OH2 3788   3.968   2.746   5.592  0.5849  0.9096 -0.3528
 1275TIP3    H1 3789   3.921   2.664   5.575  1.3688  0.4678 -0.4390
 1275TIP3    H2 3790   4.010   2.768   5.509  0.8912  1.0612 -0.1618
 1276TIP3   OH2 3791   4.828   0.151   3.403  0.0502 -0.2934  0.0598
 1276TIP3    H1 3792   4.830   0.181   3.494  0.8879  2.1534 -0.6982
 1276TIP3    H2 3793   4.802   0.059   3.410  0.3969 -0.2911  2.7796
 1277TIP3   OH2 3794   3.129   2.560   5.020  0.0049  0.3437  0.2437
 1277TIP3    H1 3795   3.215   2.598   5.036  0.0377  0.3143  0.1358
 1277TIP3    H2 3796   3.144   2.493   4.953  0.1389 -0.6489  1.2435
 1278TIP3   OH2 3797   4.608   1.970   5.414  0.1861  0.3218 -0.6565
 1278TIP3    H1 3798   4.681   2.017   5.454  0.7992  0.7677 -2.2054
 1278TIP3    H2 3799   4.549   1.950   5.486  0.6474  2.1258  0.2729
 1279TIP3   OH2 3800   6.549   0.201   1.954  0.2040 -0.0110 -0.0848
 1279TIP3    H1 3801   6.476   0.202   2.017 -0.7297 -0.2413 -1.1207
 1279TIP3    H2 3802   6.610   0.136   1.990 -0.5315 -0.4819  0.3458
 1280TIP3   OH2 3803   5.504   5.924   5.686 -0.1014 -0.7738  0.1010
 1280TIP3    H1 3804   5.486   5.913   5.780 -1.3038 -1.1598 -0.1546
 1280TIP3    H2 3805   5.555   6.005   5.681 -1.9713  0.5330  0.9098
 1281TIP3   OH2 3806   0.442   3.513   0.068  0.1915  0.0742  0.1772
 1281TIP3    H1 3807   0.529   3.480   0.090 -0.5826 -1.3695  1.1771
 1281TIP3    H2 3808   0.448   3.536  -0.025  1.4771 -0.4931  0.1002
 1282TIP3   OH2 3809   2.782   1.805   4.080  0.2684  0.1622 -0.4819
 1282TIP3    H1 3810   2.861   1.808   4.026 -0.0055  0.0774 -0.8869
 1282TIP3    H2 3811   2.813   1.775   4.166  0.7017  0.3005 -0.5885
 1283TIP3   OH2 3812   5.466   4.026   3.448  1.0086 -0.1029  0.2462
 1283TIP3    H1 3813   5.511   4.108   3.469  0.9180  0.0467 -0.1206
 1283TIP3    H2 3814   5.535   3.960   3.446  1.7478  0.5900 -3.0590
 1284TIP3   OH2 3815   6.948   1.612   2.232 -0.0125  0.3221 -0.7850
 1284TIP3    H1 3816   7.030   1.567   2.255 -0.4501 -0.1216 -0.0608
 1284TIP3    H2 3817   6.921   1.571   2.150  0.2681  0.1724 -0.8058
 1285TIP3   OH2 3818   4.342   3.545   4.414 -0.1157 -0.4515 -0.0002
 1285TIP3    H1 3819   4.412   3.604   4.443 -0.4164  0.3112 -0.7778
 1285TIP3    H2 3820   4.271   3.603   4.387 -1.6998 -1.2193  2.2299
 1286TIP3   OH2 3821   2.943   2.603   0.938 -0.5312 -0.0659  0.2450
 1286TIP3    H1 3822   3.003   2.556   0.880  0.6983  2.5488 -0.7348
 1286TIP3    H2 3823   2.994   2.620   1.017 -1.3024 -1.1502  1.0177
 1287TIP3   OH2 3824   6.728   3.623   1.487 -0.2000 -0.3298  0.1419
 1287TIP3    H1 3825   6.783   3.546   1.502 -0.9013 -1.1741 -1.4283
 1287TIP3    H2 3826   6.784   3.684   1.439 -0.8838 -1.6450 -2.4781
 1288TIP3   OH2 3827   5.967   3.512   2.873 -0.4358  0.7079  0.3948
 1288TIP3    H1 3828   5.997   3.592   2.831 -0.5912  1.6163  1.9243
 1288TIP3    H2 3829   6.014   3.442   2.828  0.2861  1.7223 -0.4664
 1289TIP3   OH2 3830   1.258   0.963   2.113  0.1702 -0.5109  0.9481
 1289TIP3    H1 3831   1.206   0.975   2.034 -0.8902 -0.9344  1.5602
 1289TIP3    H2 3832   1.264   1.051   2.151  1.2920 -0.1714  0.0600
 1290TIP3   OH2 3833   0.167   6.040   3.931 -0.2234  0.1657  0.5598
 1290TIP3    H1 3834   0.200   6.128   3.950  0.5771 -0.0042  0.0259
 1290TIP3    H2 3835   0.112   6.050   3.854  0.3691  0.1163  0.1190
 1291TIP3   OH2 3836   3.930   4.793   3.463  0.0627 -0.6439  0.2987
 1291TIP3    H1 3837   4.007   4.798   3.407  0.2548 -1.9104  0.4246
 1291TIP3    H2 3838   3.965   4.781   3.551 -0.2076  2.0558  0.8612
 1292TIP3   OH2 3839   3.474   6.034   0.376 -0.0388 -0.1069 -0.2496
 1292TIP3    H1 3840   3.437   5.977   0.443  0.0802 -1.3874 -1.2371
 1292TIP3    H2 3841   3.439   6.121   0.396  0.1202 -0.4127  1.5495
 1293TIP3   OH2 3842   3.316   6.639   5.306 -0.4741  0.1383 -0.7249
 1293TIP3    H1 3843   3.281   6.726   5.287 -2.1727 -0.7252 -1.7601
 1293TIP3    H2 3844   3.242   6.580   5.292  0.3985 -1.4070  0.8023
 1294TIP3   OH2 3845   6.132   4.168   0.905 -0.3173 -0.7493  0.8432
 1294TIP3    H1 3846   6.113   4.080   0.875  0.6025 -2.0006  3.6101
 1294TIP3    H2 3847   6.151   4.217   0.825  2.9956 -4.0227 -0.6637
 1295TIP3   OH2 3848   0.461   1.277   4.888 -0.0398  0.2843  0.2262
 1295TIP3    H1 3849   0.543   1.228   4.892  2.0327  3.3738 -1.0386
 1295TIP3    H2 3850   0.428   1.262   4.800  0.1014  0.4547  0.1451
 1296TIP3   OH2 3851   2.055   0.286   2.016  0.2064 -0.2709  0.1458
 1296TIP3    H1 3852   2.022   0.263   1.929  0.2471  2.1064 -0.5804
 1296TIP3    H2 3853   1.997   0.356   2.046  1.9433  1.0021  0.7217
 1297TIP3   OH2 3854   4.652   0.995   1.659  0.0813 -0.2715 -0.1012
 1297TIP3    H1 3855   4.602   0.929   1.706  0.2985  0.2757  0.9289
 1297TIP3    H2 3856   4.717   1.026   1.722  0.0924  0.8020 -0.6128
 1298TIP3   OH2 3857   6.756   2.803   1.037  0.0308  0.1023 -0.0046
 1298TIP3    H1 3858   6.698   2.880   1.043  2.2019  2.0725 -2.2720
 1298TIP3    H2 3859   6.769   2.777   1.128 -1.8297  1.5570  0.7713
 1299TIP3   OH2 3860   3.926   4.590   0.533 -0.0605 -0.5927 -0.4387
 1299TIP3    H1 3861   3.951   4.673   0.572 -1.0470 -0.7094  0.4716
 1299TIP3    H2 3862   3.836   4.604   0.501  0.7723 -0.4041 -2.9930
 1300TIP3   OH2 3863   0.718   3.877   5.349  0.2041 -0.0683 -0.2753
 1300TIP3    H1 3864   0.649   3.874   5.283 -1.4011 -1.7948  1.3334
 1300TIP3    H2 3865   0.729   3.970   5.368 -0.4452  0.3566 -1.7800
 1301TIP3   OH2 3866   4.415   2.288   3.677  0.1147 -0.3077  0.2474
 1301TIP3    H1 3867   4.391   2.378   3.698  0.8061  0.2027 -1.0718
 1301TIP3    H2 3868   4.332   2.242   3.668 -0.2636  0.4375 -0.1186
 1302TIP3   OH2 3869   2.389   1.132   3.204 -0.3266 -0.2989 -0.3940
 1302TIP3    H1 3870   2.372   1.127   3.110 -1.4877 -0.0208 -0.2140
 1302TIP3    H2 3871   2.324   1.075   3.244  1.3590 -1.9376  0.1566
 1303TIP3   OH2 3872   2.233   0.588   0.002  0.4083 -0.3831 -0.1951
 1303TIP3    H1 3873   2.259   0.676   0.028  1.2712 -1.0038  1.1312
 1303TIP3    H2 3874   2.143   0.598  -0.028  0.4704  0.9401  0.0034
 1304TIP3   OH2 3875   1.361   6.632   4.465 -0.3452 -0.1808  0.2816
 1304TIP3    H1 3876   1.348   6.726   4.456 -1.8131 -0.3491  0.4019
 1304TIP3    H2 3877   1.424   6.609   4.396 -1.4395  0.5899 -1.0116
 1305TIP3   OH2 3878   2.034   3.468   0.807  0.2974  0.1377  0.2485
 1305TIP3    H1 3879   2.073   3.555   0.806  0.9355 -0.1374 -0.3791
 1305TIP3    H2 3880   1.958   3.475   0.750  0.0956  0.3883  0.5458
 1306TIP3   OH2 3881   5.226   5.613   5.712  0.0261  0.1246  0.5468
 1306TIP3    H1 3882   5.299   5.594   5.772  0.3620 -0.6909 -0.1025
 1306TIP3    H2 3883   5.246   5.563   5.633 -1.2855 -0.1957  0.3861
 1307TIP3   OH2 3884   2.317   1.354   2.730  0.4764  0.0119 -0.4599
 1307TIP3    H1 3885   2.397   1.384   2.686  0.6554  0.1416 -0.0544
 1307TIP3    H2 3886   2.328   1.381   2.821  0.5211 -1.0511 -0.1335
 1308TIP3   OH2 3887   4.642   4.726   4.401 -0.0161  0.4578  0.3414
 1308TIP3    H1 3888   4.677   4.641   4.375 -2.3651 -0.4065 -0.3254
 1308TIP3    H2 3889   4.634   4.721   4.496  1.0777  0.4662  0.4446
 1309TIP3   OH2 3890   3.839   2.727   4.067  0.4260 -0.6191  0.1006
 1309TIP3    H1 3891   3.746   2.741   4.051  1.0434  0.2575 -3.5809
 1309TIP3    H2 3892   3.865   2.800   4.123 -0.5979  0.8830 -1.2757
 1310TIP3   OH2 3893   2.586   2.424   4.379 -0.2419  0.1207  0.1950
 1310TIP3    H1 3894   2.634   2.351   4.419  0.3249 -0.7410 -1.9341
 1310TIP3    H2 3895   2.634   2.502   4.407  1.5637 -0.6234 -0.6425
 1311TIP3   OH2 3896   1.893   0.196   1.789  0.1582 -0.3401 -0.5162
 1311TIP3    H1 3897   1.965   0.144   1.755 -0.3387 -0.9235 -0.7044
 1311TIP3    H2 3898   1.822   0.133   1.804  0.2510 -0.0580  1.3397
 1312TIP3   OH2 3899   2.365   6.697   3.505  0.1915  0.4028  0.5274
 1312TIP3    H1 3900   2.374   6.602   3.507  1.5631  0.5125  1.0909
 1312TIP3    H2 3901   2.351   6.721   3.597 -0.1275  0.7478  0.3896
 1313TIP3   OH2 3902   3.120   2.435   4.754 -0.4686  0.2663  0.5162
 1313TIP3    H1 3903   3.165   2.458   4.673  2.8197 -4.3052  0.6407
 1313TIP3    H2 3904   3.030   2.414   4.727  0.1021  0.4282 -1.6473
 1314TIP3   OH2 3905   2.410   2.914   5.769  0.6203 -0.0369 -0.6505
 1314TIP3    H1 3906   2.316   2.910   5.751  0.6793 -0.6039 -0.8543
 1314TIP3    H2 3907   2.417   2.958   5.854  0.2361  0.9774 -1.1246
 1315TIP3   OH2 3908   2.689   4.684   5.839  0.3455 -0.0358 -0.2404
 1315TIP3    H1 3909   2.752   4.755   5.830  0.8759 -0.2424  1.4480
 1315TIP3    H2 3910   2.726   4.628   5.908 -1.3023 -0.5761  0.2425
 1316TIP3   OH2 3911   2.624   6.047   4.665  0.2704 -0.1106  0.3727
 1316TIP3    H1 3912   2.685   6.054   4.738  0.8170  0.4765 -0.1255
 1316TIP3    H2 3913   2.622   5.954   4.644  0.9059 -0.1514  0.4735
 1317TIP3   OH2 3914   0.604   3.775   0.607 -0.0970 -0.8087 -0.1124
 1317TIP3    H1 3915   0.537   3.787   0.540  1.1116  0.4356 -1.1704
 1317TIP3    H2 3916   0.575   3.829   0.681 -0.8581 -1.2557 -0.0809
 1318TIP3   OH2 3917   3.615   2.052   4.968  0.0207  0.3616  0.1392
 1318TIP3    H1 3918   3.705   2.081   4.949 -0.8551  2.0397 -1.8239
 1318TIP3    H2 3919   3.569   2.133   4.991 -1.0240 -0.4873  1.1552
 1319TIP3   OH2 3920   2.199   0.112   1.113  0.5895  0.2110  0.6599
 1319TIP3    H1 3921   2.125   0.118   1.173 -0.6550 -0.5299 -0.7439
 1319TIP3    H2 3922   2.257   0.047   1.153 -0.3196 -0.4348  0.9566
 1320TIP3   OH2 3923   7.035   2.023   2.967  0.1666  0.4935  0.3982
 1320TIP3    H1 3924   6.972   1.951   2.967  1.6636 -0.8953  1.1253
 1320TIP3    H2 3925   7.021   2.067   2.883 -2.8696  1.3462  1.2113
 1321TIP3   OH2 3926   0.470   1.858   2.764 -0.7055 -0.2298 -0.2772
 1321TIP3    H1 3927   0.437   1.772   2.790  1.0997 -0.3593  1.8925
 1321TIP3    H2 3928   0.549   1.839   2.713  0.4482  0.0712  1.3104
 1322TIP3   OH2 3929   0.539   4.272   0.849  0.5813  0.0444 -0.1109
 1322TIP3    H1 3930   0.450   4.240   0.867  1.4583 -2.2826  0.4389
 1322TIP3    H2 3931   0.571   4.301   0.935  1.0560 -1.0461  0.0856
 1323TIP3   OH2 3932   5.376   2.752   2.529  0.2117  0.4686  0.0226
 1323TIP3    H1 3933   5.404   2.661   2.533  0.7091  0.4760 -2.0314
 1323TIP3    H2 3934   5.454   2.800   2.501 -0.6981  1.0953 -1.5896
 1324TIP3   OH2 3935   3.583   2.299   4.764  0.2559 -0.2059  1.1002
 1324TIP3    H1 3936   3.586   2.210   4.731  2.6465  0.0185  0.5407
 1324TIP3    H2 3937   3.546   2.351   4.692  1.1848 -0.3989  0.4698
 1325TIP3   OH2 3938   6.905   2.233   4.988  0.5307 -0.0566 -1.0982
 1325TIP3    H1 3939   6.844   2.160   4.978 -0.1147  0.4535 -0.9717
 1325TIP3    H2 3940   6.926   2.258   4.898  1.1840 -0.7415 -1.1425
 1326TIP3   OH2 3941   6.383   4.970   0.389  0.4408  0.9142  0.2782
 1326TIP3    H1 3942   6.369   4.906   0.458 -0.3366  0.2798 -0.4420
 1326TIP3    H2 3943   6.306   5.027   0.393  0.5048  1.0145  0.0972
 1327TIP3   OH2 3944   2.262   5.503   1.874  0.3773 -0.0578  0.6443
 1327TIP3    H1 3945   2.306   5.419   1.889  1.5799  0.4615  0.1547
 1327TIP3    H2 3946   2.251   5.508   1.779 -1.5144 -0.5297  0.8001
 1328TIP3   OH2 3947   2.379   1.107   0.345 -0.3790  0.3996 -0.2384
 1328TIP3    H1 3948   2.458   1.161   0.340  1.5085 -2.2475 -1.8935
 1328TIP3    H2 3949   2.339   1.117   0.259 -0.8934  0.3797 -0.0004
 1329TIP3   OH2 3950   1.945   1.784   2.541 -0.0638  0.3588  0.6404
 1329TIP3    H1 3951   1.922   1.833   2.462 -0.8544  1.3466  1.4642
 1329TIP3    H2 3952   2.041   1.788   2.544  0.1513 -1.3251 -1.2667
 1330TIP3   OH2 3953   0.374   6.277   1.536 -0.2923  0.2782 -0.8577
 1330TIP3    H1 3954   0.282   6.299   1.521 -0.4000 -0.5854 -1.6186
 1330TIP3    H2 3955   0.385   6.282   1.630 -1.1154  0.4495 -0.7590
 1331TIP3   OH2 3956   4.407   1.771   1.086  0.2092  0.1693 -0.0822
 1331TIP3    H1 3957   4.496   1.777   1.050 -0.1284 -1.2626 -1.2330
 1331TIP3    H2 3958   4.371   1.690   1.049 -1.6732  0.8479  0.1638
 1332TIP3   OH2 3959   3.714   3.331   1.278 -0.2309  0.0246  0.4415
 1332TIP3    H1 3960   3.676   3.374   1.354 -0.0595  0.5198  0.2513
 1332TIP3    H2 3961   3.658   3.358   1.205  2.5077  3.9558 -0.5683
 1333TIP3   OH2 3962   5.497   6.489   0.082 -0.6094  0.0735 -0.4210
 1333TIP3    H1 3963   5.566   6.439   0.126 -0.9471 -2.1004 -2.1737
 1333TIP3    H2 3964   5.521   6.581   0.096  1.7238 -0.5959  0.4143
 1334TIP3   OH2 3965   1.844   1.031   1.360 -0.5515 -0.4879  0.8127
 1334TIP3    H1 3966   1.756   1.067   1.375 -0.0478  0.7161  0.9660
 1334TIP3    H2 3967   1.836   0.939   1.384 -2.3576 -0.9778 -1.3111
 1335TIP3   OH2 3968   0.898   6.086   4.148 -0.3315  0.2048  0.0027
 1335TIP3    H1 3969   0.951   6.155   4.188  0.6320 -0.7821  0.4771
 1335TIP3    H2 3970   0.815   6.089   4.197 -0.3515  1.0871 -0.0596
 1336TIP3   OH2 3971   0.069   3.403   5.274  0.2505 -0.0403 -0.2275
 1336TIP3    H1 3972   0.121   3.354   5.211  1.1975  0.5875  0.0477
 1336TIP3    H2 3973   0.043   3.338   5.339  1.2243 -0.2457 -0.0340
 1337TIP3   OH2 3974   0.368   2.672   0.973  0.5214 -0.0965 -0.6750
 1337TIP3    H1 3975   0.318   2.592   0.993  0.5388 -0.1017 -0.6527
 1337TIP3    H2 3976   0.454   2.640   0.946  0.5090 -0.0876 -0.7240
 1338TIP3   OH2 3977   3.854   6.642   4.660 -0.0878  0.2703  0.3684
 1338TIP3    H1 3978   3.915   6.680   4.596 -0.1305 -0.4043 -0.0751
 1338TIP3    H2 3979   3.768   6.649   4.619  0.0967 -1.8846 -0.4958
 1339TIP3   OH2 3980   5.593   3.405   4.159  0.5418  0.3722 -0.6798
 1339TIP3    H1 3981   5.564   3.484   4.204 -0.5382 -0.1041 -0.4840
 1339TIP3    H2 3982   5.540   3.402   4.079  1.8445  0.7667 -1.5823
 1340TIP3   OH2 3983   4.036   1.857   1.585 -0.4983  0.5132 -0.1154
 1340TIP3    H1 3984   4.054   1.805   1.664 -0.8711  1.1403  0.3826
 1340TIP3    H2 3985   4.083   1.939   1.599  1.9011 -0.4299 -1.8426
 1341TIP3   OH2 3986   0.158   0.499   2.316  0.5286  0.3222 -0.0148
 1341TIP3    H1 3987   0.095   0.441   2.358  0.7143 -0.8877 -1.3231
 1341TIP3    H2 3988   0.105   0.573   2.285  0.1773  0.5321  1.0447
 1342TIP3   OH2 3989   4.727   2.197   5.179  0.3430  0.4051 -0.7497
 1342TIP3    H1 3990   4.634   2.172   5.181  0.5582 -0.6250 -2.1170
 1342TIP3    H2 3991   4.726   2.292   5.169 -0.5406  0.5663  0.6399
 1343TIP3   OH2 3992   6.567   2.169   4.456 -0.5180 -0.1001  0.1052
 1343TIP3    H1 3993   6.631   2.136   4.393  1.8697  0.1663  2.2694
 1343TIP3    H2 3994   6.580   2.263   4.457  0.1968 -0.1843  1.6763
 1344TIP3   OH2 3995   6.899   0.595   0.141  0.3635  0.1222  0.0493
 1344TIP3    H1 3996   6.991   0.617   0.155  0.5908 -0.8161  0.0972
 1344TIP3    H2 3997   6.851   0.648   0.204  1.0513 -0.9604  1.5370
 1345TIP3   OH2 3998   4.685   3.287   1.556 -0.3848  0.3276 -0.1659
 1345TIP3    H1 3999   4.596   3.262   1.533 -0.1060 -0.5812 -0.2884
 1345TIP3    H2 4000   4.720   3.327   1.476 -0.7108  0.7869 -0.0840
 1346TIP3   OH2 4001   4.846   1.985   2.974  0.1796  0.1982 -0.2108
 1346TIP3    H1 4002   4.891   2.069   2.981  0.3218  0.0598  0.5838
 1346TIP3    H2 4003   4.843   1.967   2.880  0.1537  1.0853 -0.3841
 1347TIP3   OH2 4004   4.584   6.770   0.183  0.8021  0.2348 -0.0704
 1347TIP3    H1 4005   4.548   6.859   0.180 -1.1222 -0.4879 -2.5467
 1347TIP3    H2 4006   4.565   6.739   0.271 -1.5894  1.1798 -0.1624
 1348TIP3   OH2 4007   0.891   5.740   4.508 -0.0313 -0.3691  0.1449
 1348TIP3    H1 4008   0.926   5.829   4.505 -0.0090 -0.3031  1.4353
 1348TIP3    H2 4009   0.852   5.733   4.596 -2.2719 -0.8158 -0.8221
 1349TIP3   OH2 4010   4.673   3.210   3.824  0.0559  0.0270 -0.3157
 1349TIP3    H1 4011   4.686   3.272   3.753  2.5254 -1.2238 -1.0486
 1349TIP3    H2 4012   4.620   3.140   3.786 -0.6050  0.4576 -0.2081
 1350TIP3   OH2 4013   1.523   4.457   2.883  0.1101  0.1015 -0.0856
 1350TIP3    H1 4014   1.577   4.389   2.844 -0.0315  0.5303 -1.0661
 1350TIP3    H2 4015   1.473   4.413   2.951 -1.8843 -1.3895 -2.3579
 1351TIP3   OH2 4016   5.157   4.598   2.741 -0.2024 -0.1916  0.8271
 1351TIP3    H1 4017   5.161   4.685   2.781 -0.7121 -0.7489  2.1206
 1351TIP3    H2 4018   5.066   4.588   2.713  0.0168 -0.0426  0.0268
 1352TIP3   OH2 4019   1.608   3.205   2.266 -0.4832  0.3211  0.2107
 1352TIP3    H1 4020   1.682   3.218   2.207  0.3429 -0.1937  1.0955
 1352TIP3    H2 4021   1.531   3.209   2.210  0.2986 -0.6899 -0.9995
 1353TIP3   OH2 4022   3.813   1.328   5.547  0.5115  0.4052  0.6866
 1353TIP3    H1 4023   3.815   1.419   5.578 -0.6798  0.7149 -0.0691
 1353TIP3    H2 4024   3.767   1.333   5.463  2.8291 -0.5320 -0.7277
 1354TIP3   OH2 4025   2.538   4.865   0.449  0.4468  0.0383  0.6595
 1354TIP3    H1 4026   2.528   4.864   0.544  1.1977 -0.1218  0.7408
 1354TIP3    H2 4027   2.472   4.803   0.417  0.5205 -0.2703  1.1066
 1355TIP3   OH2 4028   3.768   4.868   4.142  0.6181  0.0247 -0.3101
 1355TIP3    H1 4029   3.789   4.819   4.063 -0.4657  0.3918 -0.8400
 1355TIP3    H2 4030   3.698   4.818   4.184  1.3366 -0.2875  0.5482
 1356TIP3   OH2 4031   2.870   5.494   0.537 -0.3297 -0.2839 -0.1830
 1356TIP3    H1 4032   2.785   5.536   0.522 -0.5156 -0.9577 -1.1527
 1356TIP3    H2 4033   2.898   5.465   0.450  0.4314 -0.9446  0.2651
 1357TIP3   OH2 4034   1.139   4.931   5.444 -0.7184 -0.1290 -0.2402
 1357TIP3    H1 4035   1.184   4.962   5.523 -0.7663 -1.9996  0.5591
 1357TIP3    H2 4036   1.210   4.903   5.385 -0.7110  0.7173 -0.6598
 1358TIP3   OH2 4037   3.701   0.078   4.319  0.1899 -0.3247  0.4930
 1358TIP3    H1 4038   3.666   0.152   4.269 -1.7520 -0.9772  0.7827
 1358TIP3    H2 4039   3.789   0.065   4.285  0.0194  1.1631 -0.6081
 1359TIP3   OH2 4040   4.828   2.133   5.475 -0.5028  0.4909 -0.6169
 1359TIP3    H1 4041   4.884   2.148   5.551  0.7533  0.6820 -1.5466
 1359TIP3    H2 4042   4.797   2.220   5.451 -1.8008  0.3181  0.2971
 1360TIP3   OH2 4043   4.623   6.559   1.120  0.2699  0.1880  0.3241
 1360TIP3    H1 4044   4.609   6.489   1.183 -0.7381  0.9670  0.9960
 1360TIP3    H2 4045   4.631   6.514   1.035 -0.9140 -0.6976  0.6684
 1361TIP3   OH2 4046   0.561   5.209   3.260  0.3658  0.0048  0.0588
 1361TIP3    H1 4047   0.526   5.223   3.172 -1.1610 -2.2264  0.2331
 1361TIP3    H2 4048   0.656   5.210   3.249  0.2896  2.5590 -1.0652
 1362TIP3   OH2 4049   2.526   5.294   2.733 -0.2777 -0.2467  0.4423
 1362TIP3    H1 4050   2.452   5.309   2.791  0.4620  0.2229  1.2985
 1362TIP3    H2 4051   2.561   5.209   2.761  1.3119  0.8786  2.1377
 1363TIP3   OH2 4052   0.133   2.967   3.862  0.0107  0.4315 -0.2511
 1363TIP3    H1 4053   0.157   2.911   3.936  1.3695 -0.1847 -1.1146
 1363TIP3    H2 4054   0.194   3.040   3.867 -1.6108  1.7781  0.7383
 1364TIP3   OH2 4055   3.857   6.728   2.615 -0.2641 -0.0089  0.1360
 1364TIP3    H1 4056   3.913   6.766   2.548  1.3042 -0.0613  1.3611
 1364TIP3    H2 4057   3.807   6.802   2.650 -0.3406  0.1874 -0.3844
 1365TIP3   OH2 4058   6.733   2.988   5.210  0.1401 -0.4155  0.1382
 1365TIP3    H1 4059   6.705   3.010   5.121  0.5000  0.9033  0.3281
 1365TIP3    H2 4060   6.723   3.069   5.259 -0.7241 -1.2984  1.4957
 1366TIP3   OH2 4061   1.826   0.904   3.743 -0.2422  0.4367 -0.0942
 1366TIP3    H1 4062   1.852   0.812   3.743  0.4116  0.5797 -1.7429
 1366TIP3    H2 4063   1.894   0.948   3.690 -0.2180  1.9668  1.1335
 1367TIP3   OH2 4064   1.165   1.678   0.910  0.1978 -0.0378 -0.2673
 1367TIP3    H1 4065   1.171   1.594   0.954 -0.6342 -0.4371 -0.8816
 1367TIP3    H2 4066   1.207   1.664   0.825  0.6848  0.3712 -0.0988
 1368TIP3   OH2 4067   3.677   6.417   3.366 -0.1075  0.2679 -0.2214
 1368TIP3    H1 4068   3.688   6.415   3.271 -1.3803  1.3766 -0.4308
 1368TIP3    H2 4069   3.596   6.368   3.382  0.0287  0.1957  0.2690
 1369TIP3   OH2 4070   1.925   0.591   4.680 -0.5194 -0.1924  0.5557
 1369TIP3    H1 4071   1.898   0.603   4.771 -2.0513  0.5260  0.0323
 1369TIP3    H2 4072   2.015   0.624   4.677 -1.4240  2.5836  1.1915
 1370TIP3   OH2 4073   0.482   5.181   1.124  0.4313  0.1512  0.5211
 1370TIP3    H1 4074   0.450   5.178   1.034  0.4437  2.0077  0.4062
 1370TIP3    H2 4075   0.455   5.267   1.156  1.0408 -0.1926  2.0674
 1371TIP3   OH2 4076   0.536   2.484   3.179  0.0273 -0.1999  0.7363
 1371TIP3    H1 4077   0.514   2.516   3.091  0.3279 -0.3776  0.5917
 1371TIP3    H2 4078   0.632   2.477   3.178  0.2061  1.5534  1.6915
 1372TIP3   OH2 4079   0.178   5.857   0.317 -0.2795  0.0850 -0.6493
 1372TIP3    H1 4080   0.233   5.830   0.390 -3.0411 -1.4550  1.0560
 1372TIP3    H2 4081   0.182   5.952   0.317  0.0789  0.0965  1.2888
 1373TIP3   OH2 4082   1.091   3.744   0.510 -0.2901 -0.4766 -0.3760
 1373TIP3    H1 4083   1.134   3.660   0.493 -0.3055 -0.3791 -0.9223
 1373TIP3    H2 4084   1.004   3.720   0.541  0.5870 -0.7156  2.2041
 1374TIP3   OH2 4085   6.211   6.555   2.325  0.4388  0.0942  0.2390
 1374TIP3    H1 4086   6.119   6.545   2.302  0.2177 -1.8925  1.6829
 1374TIP3    H2 4087   6.214   6.633   2.380 -0.2458  0.6237 -0.4725
 1375TIP3   OH2 4088   5.891   4.502   4.175  0.5209  0.2778  0.2265
 1375TIP3    H1 4089   5.922   4.591   4.191  0.0105  0.5884 -0.4013
 1375TIP3    H2 4090   5.868   4.502   4.082  0.7409 -0.5862  0.1662
 1376TIP3   OH2 4091   6.948   5.018   2.683 -0.0823  0.2789 -0.5312
 1376TIP3    H1 4092   6.953   5.020   2.778 -1.5975 -1.7998 -0.3308
 1376TIP3    H2 4093   6.857   5.043   2.663 -0.0357 -0.1585 -1.3568
 1377TIP3   OH2 4094   3.462   6.472   3.851 -0.1316  0.3187 -0.1813
 1377TIP3    H1 4095   3.431   6.406   3.788 -1.7695  0.9889 -0.1153
 1377TIP3    H2 4096   3.457   6.428   3.936 -0.1543  0.1677 -0.2608
 1378TIP3   OH2 4097   2.859   6.041   3.622  0.5016  0.1341  0.1498
 1378TIP3    H1 4098   2.949   6.033   3.592  0.8102 -2.6077  1.4943
 1378TIP3    H2 4099   2.809   5.985   3.564  0.3550 -1.4448  1.7105
 1379TIP3   OH2 4100   0.050   0.098   1.726 -0.2377 -0.0749  0.9565
 1379TIP3    H1 4101   0.033   0.087   1.633  0.6458 -0.5498  0.8373
 1379TIP3    H2 4102   0.133   0.145   1.730 -0.9490  1.1905  1.5109
 1380TIP3   OH2 4103   0.061   6.735   3.222  0.0313  0.2117 -0.2060
 1380TIP3    H1 4104   0.130   6.697   3.166  0.5708  0.0228  0.5730
 1380TIP3    H2 4105   0.091   6.824   3.239 -0.0109  0.1921 -0.0253
 1381TIP3   OH2 4106   2.960   1.074   4.446 -0.5707  0.8175 -0.6262
 1381TIP3    H1 4107   3.009   1.003   4.403  0.0593  0.4021  0.7044
 1381TIP3    H2 4108   2.888   1.093   4.387 -0.5234 -0.6718 -1.2052
 1382TIP3   OH2 4109   0.910   3.330   2.715  0.1583  0.0010 -0.4263
 1382TIP3    H1 4110   0.947   3.354   2.800 -1.2248 -0.3102  0.2968
 1382TIP3    H2 4111   0.952   3.390   2.653  3.3380 -1.6412 -0.0273
 1383TIP3   OH2 4112   3.760   0.843   3.045  0.1389  0.1272 -0.2652
 1383TIP3    H1 4113   3.769   0.817   2.953  1.4339  0.2361 -0.1835
 1383TIP3    H2 4114   3.831   0.796   3.090  0.0278  0.7171  0.5405
 1384TIP3   OH2 4115   2.452   0.124   4.077  0.3816 -0.2942  0.2054
 1384TIP3    H1 4116   2.382   0.087   4.023  0.6658 -0.2383 -0.2013
 1384TIP3    H2 4117   2.429   0.217   4.084 -0.2752 -0.5137  1.1407
 1385TIP3   OH2 4118   5.889   1.502   3.456 -0.1209  0.0819  0.5519
 1385TIP3    H1 4119   5.913   1.512   3.549  0.1102 -0.3898  0.5429
 1385TIP3    H2 4120   5.868   1.410   3.446 -0.3138  0.1645  0.1668
 1386TIP3   OH2 4121   1.093   5.340   0.699 -0.5406  0.5652  0.1591
 1386TIP3    H1 4122   1.019   5.348   0.760 -0.2137  2.7129  0.3529
 1386TIP3    H2 4123   1.159   5.400   0.734  1.4751 -1.5353  0.1736
 1387TIP3   OH2 4124   5.294   0.472   1.376  0.4234  0.0175  0.6168
 1387TIP3    H1 4125   5.389   0.476   1.362  0.5101 -0.1468  1.1361
 1387TIP3    H2 4126   5.261   0.421   1.302  0.9179 -1.2069  1.2156
 1388TIP3   OH2 4127   5.017   5.688   0.586  0.3948 -0.0377  0.7615
 1388TIP3    H1 4128   5.059   5.751   0.644 -0.2768  1.3278 -0.1917
 1388TIP3    H2 4129   4.934   5.668   0.628 -1.0074  2.4811 -0.5920
 1389TIP3   OH2 4130   1.290   0.689   1.862  0.6184  0.6378  0.1564
 1389TIP3    H1 4131   1.315   0.597   1.864 -1.4437  0.0447  1.5753
 1389TIP3    H2 4132   1.227   0.695   1.790  1.3702  1.1553 -0.4799
 1390TIP3   OH2 4133   0.256   1.400   4.065 -0.3607 -0.2225 -0.0424
 1390TIP3    H1 4134   0.348   1.426   4.057 -0.2574 -0.3735  0.6092
 1390TIP3    H2 4135   0.220   1.414   3.977  0.6498 -1.5831 -0.7245
 1391TIP3   OH2 4136   6.811   1.491   3.948 -0.1087 -0.3689 -0.4183
 1391TIP3    H1 4137   6.724   1.524   3.928  0.5309  1.6767 -0.1033
 1391TIP3    H2 4138   6.797   1.422   4.013 -1.4318  0.5885  0.3620
 1392TIP3   OH2 4139   2.002   1.243   2.635  0.0073  0.0515  0.6378
 1392TIP3    H1 4140   1.926   1.230   2.578 -0.6791  1.0401  1.2944
 1392TIP3    H2 4141   2.073   1.265   2.575 -1.0067  2.4050  0.1743
 1393TIP3   OH2 4142   3.114   5.946   3.609  0.0076  0.0327 -0.3980
 1393TIP3    H1 4143   3.089   5.914   3.695 -0.4576  0.5615 -0.3369
 1393TIP3    H2 4144   3.206   5.971   3.618 -0.2917  0.9596  0.2000
 1394TIP3   OH2 4145   2.741   5.813   1.810 -0.0548 -0.7749 -0.2620
 1394TIP3    H1 4146   2.670   5.875   1.826  1.4543  0.9060  0.3367
 1394TIP3    H2 4147   2.738   5.796   1.716 -0.9291 -0.3373 -0.3222
 1395TIP3   OH2 4148   5.754   1.948   3.263 -0.1032 -0.0008 -0.3103
 1395TIP3    H1 4149   5.673   1.898   3.273  0.7892 -1.2955  0.9209
 1395TIP3    H2 4150   5.740   2.027   3.316 -0.5265 -0.2800  0.0035
 1396TIP3   OH2 4151   6.104   1.473   4.075  0.0538  0.4083  0.5144
 1396TIP3    H1 4152   6.181   1.417   4.087  1.0879  1.5099 -0.5547
 1396TIP3    H2 4153   6.060   1.437   3.999  0.1049  0.3979  0.4892
 1397TIP3   OH2 4154   4.308   4.570   1.496  0.5288 -0.2369  0.1456
 1397TIP3    H1 4155   4.344   4.644   1.545 -2.6831  1.4393  0.2230
 1397TIP3    H2 4156   4.339   4.584   1.406 -0.2369  1.3939  0.1059
 1398TIP3   OH2 4157   3.256   1.109   5.013  0.3340  0.2182  0.3582
 1398TIP3    H1 4158   3.320   1.149   4.955 -0.0208  1.0132  0.4967
 1398TIP3    H2 4159   3.183   1.171   5.014 -0.2812 -0.4917  0.4908
 1399TIP3   OH2 4160   3.595   3.988   2.209  0.1082 -0.5266 -0.8505
 1399TIP3    H1 4161   3.597   3.900   2.246  2.4466  0.5646  2.0260
 1399TIP3    H2 4162   3.504   4.016   2.217  0.0588 -1.2583  2.1082
 1400TIP3   OH2 4163   5.178   2.781   1.882  0.5015 -0.0878 -0.1707
 1400TIP3    H1 4164   5.171   2.841   1.808  2.5397  0.4994  0.0644
 1400TIP3    H2 4165   5.088   2.754   1.900 -0.1605  0.8042 -1.9900
 1401TIP3   OH2 4166   1.647   1.820   0.727  0.2331  0.1443  0.0480
 1401TIP3    H1 4167   1.714   1.879   0.693 -2.7313  4.8902  1.5653
 1401TIP3    H2 4168   1.695   1.758   0.782  3.8139 -0.5084 -3.4252
 1402TIP3   OH2 4169   5.932   1.342   0.668 -0.7253 -0.4655  0.1837
 1402TIP3    H1 4170   5.841   1.370   0.684 -0.6618 -0.3807  0.3984
 1402TIP3    H2 4171   5.924   1.270   0.606 -1.0728 -1.5816  1.4577
 1403TIP3   OH2 4172   1.565   5.216   3.533 -0.0249 -0.2847  0.2924
 1403TIP3    H1 4173   1.496   5.282   3.530  0.1651 -0.0206  1.3602
 1403TIP3    H2 4174   1.598   5.212   3.444  0.3797  1.5192  0.3282
 1404TIP3   OH2 4175   2.927   4.457   4.270 -0.2993 -0.2255 -0.5308
 1404TIP3    H1 4176   2.885   4.539   4.296  0.1245 -0.5881  1.4593
 1404TIP3    H2 4177   2.990   4.482   4.203 -1.3148  0.8177 -1.1346
 1405TIP3   OH2 4178   4.024   5.425   0.985 -0.0226 -0.1275 -0.1498
 1405TIP3    H1 4179   4.034   5.349   0.928 -2.7810 -0.8857  0.2094
 1405TIP3    H2 4180   3.965   5.395   1.054 -1.0428  2.2766  0.1158
 1406TIP3   OH2 4181   3.807   5.266   1.578  0.2525  0.1490 -0.4644
 1406TIP3    H1 4182   3.819   5.360   1.569 -0.3561  0.4182  1.2539
 1406TIP3    H2 4183   3.884   5.228   1.536 -0.1499  1.3376 -2.3888
 1407TIP3   OH2 4184   3.681   6.326   4.535 -0.0617  0.4043 -0.1113
 1407TIP3    H1 4185   3.715   6.327   4.446  1.1446  0.1059  0.3297
 1407TIP3    H2 4186   3.605   6.384   4.532  0.5814  1.2345 -1.0852
 1408TIP3   OH2 4187   5.625   2.313   2.423 -0.2774 -0.5401  0.3302
 1408TIP3    H1 4188   5.543   2.349   2.389  0.5733  1.6726  0.4963
 1408TIP3    H2 4189   5.682   2.308   2.346  0.6405  1.5771  0.7988
 1409TIP3   OH2 4190   6.077   0.154   4.844  0.2335 -0.0279 -0.4290
 1409TIP3    H1 4191   6.138   0.221   4.810 -1.1149  2.2964  1.4187
 1409TIP3    H2 4192   6.019   0.136   4.770  0.6265  0.8471 -0.9749
 1410TIP3   OH2 4193   1.455   5.020   0.138 -0.3409 -0.3692 -0.1897
 1410TIP3    H1 4194   1.523   5.081   0.166 -1.5865  0.9653  0.0086
 1410TIP3    H2 4195   1.400   5.070   0.078 -2.1348 -0.8629  0.9402
 1411TIP3   OH2 4196   3.269   6.220   2.770  0.1348 -0.2852  0.5544
 1411TIP3    H1 4197   3.352   6.236   2.725  0.2387 -0.1274  0.7961
 1411TIP3    H2 4198   3.202   6.243   2.707  0.2721 -0.7149  0.2456
 1412TIP3   OH2 4199   3.256   1.035   1.591  0.4767 -0.2132 -0.9106
 1412TIP3    H1 4200   3.202   1.111   1.614 -0.1261 -0.0649 -2.7036
 1412TIP3    H2 4201   3.346   1.066   1.598  0.3066  0.0848  0.2295
 1413TIP3   OH2 4202   1.636   6.353   0.054 -0.0654  0.5233 -0.3661
 1413TIP3    H1 4203   1.599   6.358   0.142  1.4167  0.0729  0.3180
 1413TIP3    H2 4204   1.673   6.440   0.038 -0.3312  0.6043 -0.5451
 1414TIP3   OH2 4205   6.320   3.303   1.255  0.3870 -0.8309 -0.3260
 1414TIP3    H1 4206   6.303   3.310   1.349  2.8574  0.8794  0.0963
 1414TIP3    H2 4207   6.259   3.365   1.215 -0.1857 -1.0343  0.2145
 1415TIP3   OH2 4208   0.343   5.827   5.805  0.0318 -0.4769 -0.2490
 1415TIP3    H1 4209   0.405   5.790   5.868  1.6291 -0.1642 -1.5688
 1415TIP3    H2 4210   0.296   5.894   5.855  0.3158 -1.1539  0.9549
 1416TIP3   OH2 4211   0.038   5.868   1.173  0.3081  0.4098  0.0757
 1416TIP3    H1 4212   0.076   5.953   1.149  0.5739 -0.2676 -2.1638
 1416TIP3    H2 4213  -0.053   5.887   1.195 -0.0274  1.1483 -1.7709
 1417TIP3   OH2 4214   3.170   3.595   0.680 -0.5276  0.1551  0.0684
 1417TIP3    H1 4215   3.197   3.643   0.758 -1.9894  1.2366 -0.0552
 1417TIP3    H2 4216   3.211   3.643   0.607  0.4139 -0.5533  0.1054
 1418TIP3   OH2 4217   6.668   5.781   2.131  0.5049 -0.0990 -0.0065
 1418TIP3    H1 4218   6.607   5.728   2.184  0.1897  0.5836  0.3319
 1418TIP3    H2 4219   6.704   5.844   2.193 -0.1431  0.9536 -0.6652
 1419TIP3   OH2 4220   2.520   6.618   1.483 -0.0285 -0.1364 -0.0724
 1419TIP3    H1 4221   2.514   6.686   1.415  1.0434 -1.1418 -1.2249
 1419TIP3    H2 4222   2.599   6.569   1.460 -1.7764 -3.0062 -0.4599
 1420TIP3   OH2 4223   4.496   1.726   0.149 -0.4826 -0.1233  0.7719
 1420TIP3    H1 4224   4.520   1.732   0.056 -2.3745  0.0382  0.2583
 1420TIP3    H2 4225   4.405   1.755   0.152  0.4308  3.1425  3.1389
 1421TIP3   OH2 4226   5.943   6.018   4.586  0.2885  0.1170  0.2556
 1421TIP3    H1 4227   5.916   6.091   4.530  1.3274 -0.2050 -0.7308
 1421TIP3    H2 4228   5.881   6.018   4.658  0.1254  1.8343  0.1694
 1422TIP3   OH2 4229   6.249   1.373   3.020 -0.4757 -0.0306  0.1773
 1422TIP3    H1 4230   6.282   1.443   3.076 -0.1465 -0.2009  0.1981
 1422TIP3    H2 4231   6.319   1.308   3.019 -1.0140 -0.6263  0.6270
 1423TIP3   OH2 4232   2.361   4.373   5.589  0.7955 -0.1763  0.1412
 1423TIP3    H1 4233   2.336   4.374   5.681  2.2481 -0.4793  0.5684
 1423TIP3    H2 4234   2.399   4.286   5.575 -0.7507 -0.6886 -1.1460
 1424TIP3   OH2 4235   2.876   1.619   2.163  0.1946  0.0411  0.1970
 1424TIP3    H1 4236   2.968   1.598   2.174  0.6272  1.2429 -0.8051
 1424TIP3    H2 4237   2.850   1.662   2.244 -0.0135 -1.8994  1.2168
 1425TIP3   OH2 4238   2.503   0.691   5.046  0.1155 -0.4610 -0.1944
 1425TIP3    H1 4239   2.483   0.723   4.958  1.9066 -1.4928 -1.0223
 1425TIP3    H2 4240   2.528   0.599   5.033  2.5352 -0.0526  1.0469
 1426TIP3   OH2 4241   6.787   3.912   4.840  0.2717 -0.2090 -0.1382
 1426TIP3    H1 4242   6.792   3.847   4.910  2.8961 -0.1334 -0.1553
 1426TIP3    H2 4243   6.863   3.968   4.854  0.2111  0.5213 -2.3806
 1427TIP3   OH2 4244   1.993   1.651   3.866 -0.2128 -0.1413  0.7172
 1427TIP3    H1 4245   1.953   1.583   3.812 -0.4562 -0.1972  0.9671
 1427TIP3    H2 4246   1.984   1.731   3.815 -1.3811  0.0017  1.1135
 1428TIP3   OH2 4247   0.221   3.100   4.643  0.2105  0.3689 -0.1822
 1428TIP3    H1 4248   0.203   3.146   4.560  0.2921  1.4800  0.3974
 1428TIP3    H2 4249   0.143   3.047   4.658 -1.0429  2.2617  0.3890
 1429TIP3   OH2 4250   6.692   5.698   2.447 -0.0578 -0.0848  0.3028
 1429TIP3    H1 4251   6.762   5.701   2.512  1.5144 -0.7417 -1.2909
 1429TIP3    H2 4252   6.700   5.781   2.399  1.6258 -1.3300 -1.7760
 1430TIP3   OH2 4253   0.377   3.781   5.779 -0.1946 -0.0617 -0.6579
 1430TIP3    H1 4254   0.429   3.702   5.765  0.3115  0.3441 -1.1309
 1430TIP3    H2 4255   0.405   3.814   5.864  1.4854  0.9919 -1.5606
 1431TIP3   OH2 4256   4.642   4.606   2.588  0.4114 -0.1868  0.5241
 1431TIP3    H1 4257   4.585   4.665   2.538  0.8230  1.4940  1.9511
 1431TIP3    H2 4258   4.611   4.613   2.678  0.0047 -2.7780  0.6776
 1432TIP3   OH2 4259   3.392   3.960   1.985 -0.5055  0.0191  0.4222
 1432TIP3    H1 4260   3.442   3.881   2.008  0.3309  0.2483 -0.5317
 1432TIP3    H2 4261   3.372   4.001   2.069 -0.8284 -1.1252  0.9210
 1433TIP3   OH2 4262   0.278   2.519   3.822  0.2392 -0.1029  0.2162
 1433TIP3    H1 4263   0.217   2.588   3.794  0.4741 -0.5730 -1.6074
 1433TIP3    H2 4264   0.301   2.473   3.741  1.1632 -1.4607  1.1943
 1434TIP3   OH2 4265   0.804   2.182   5.533  0.2152 -0.3970  0.7630
 1434TIP3    H1 4266   0.846   2.147   5.611  0.7553  0.1002  0.6949
 1434TIP3    H2 4267   0.739   2.115   5.509  0.3203 -0.7334  1.4000
 1435TIP3   OH2 4268   3.264   6.337   1.926 -0.0083 -0.0698  0.1426
 1435TIP3    H1 4269   3.354   6.333   1.893  0.4568 -1.0947  1.4355
 1435TIP3    H2 4270   3.268   6.296   2.013 -1.6388  0.2852  0.4272
 1436TIP3   OH2 4271   5.922   4.053   4.674  0.3496  0.5332 -0.3884
 1436TIP3    H1 4272   5.933   4.010   4.758  0.9884  0.0032 -0.7334
 1436TIP3    H2 4273   5.830   4.037   4.650  0.7764 -1.3639 -0.8909
 1437TIP3   OH2 4274   2.310   2.366   1.822 -0.3377 -0.0476 -0.1262
 1437TIP3    H1 4275   2.405   2.375   1.813 -0.2889 -0.4190  0.0114
 1437TIP3    H2 4276   2.277   2.375   1.732 -0.1805  0.1920 -0.1596
 1438TIP3   OH2 4277   3.423   5.882   0.603 -0.0365 -0.3434  0.3755
 1438TIP3    H1 4278   3.351   5.839   0.650  0.2355 -0.2030  0.9336
 1438TIP3    H2 4279   3.494   5.818   0.604 -0.6042 -1.0625 -1.4542
 1439TIP3   OH2 4280   1.968   6.308   4.656  0.6794 -0.0628 -0.3852
 1439TIP3    H1 4281   1.950   6.265   4.572 -0.2222 -0.4569  0.0032
 1439TIP3    H2 4282   1.887   6.354   4.678  0.6977 -0.4769  0.5767
 1440TIP3   OH2 4283   3.538   0.117   3.979 -0.0296  0.0382  0.2180
 1440TIP3    H1 4284   3.568   0.028   3.998  2.1801  0.5627 -0.5233
 1440TIP3    H2 4285   3.501   0.111   3.890 -0.6492 -0.2864  0.4910
 1441TIP3   OH2 4286   5.041   5.456   1.857 -0.4327 -0.5680  0.1599
 1441TIP3    H1 4287   5.047   5.530   1.797  0.3949 -0.6210  0.1684
 1441TIP3    H2 4288   5.119   5.463   1.912  0.2853 -2.0944 -0.6034
 1442TIP3   OH2 4289   0.555   4.457   0.414 -0.2238 -0.0397 -0.8207
 1442TIP3    H1 4290   0.642   4.449   0.454 -0.2515  0.6302 -0.6243
 1442TIP3    H2 4291   0.495   4.424   0.482 -0.3850  2.1933  0.1972
 1443TIP3   OH2 4292   6.606   1.197   0.221  0.2522  0.1676 -0.5426
 1443TIP3    H1 4293   6.561   1.249   0.155 -0.8787 -0.4411 -0.2761
 1443TIP3    H2 4294   6.690   1.174   0.181 -1.1956 -1.8986 -2.6129
 1444TIP3   OH2 4295   0.647   4.959   2.332  0.3724  0.0823  0.7711
 1444TIP3    H1 4296   0.716   4.903   2.296 -0.2383 -0.1241 -0.0978
 1444TIP3    H2 4297   0.694   5.027   2.381  1.2647  0.6078 -0.7473
 1445TIP3   OH2 4298   5.279   3.563   2.108  0.6660 -0.5421  0.0931
 1445TIP3    H1 4299   5.204   3.531   2.156 -0.2562 -0.6600 -1.3599
 1445TIP3    H2 4300   5.269   3.658   2.108  0.3568 -0.5697 -0.3139
 1446TIP3   OH2 4301   6.258   1.117   4.894 -0.1427 -0.3020  0.1801
 1446TIP3    H1 4302   6.315   1.104   4.969 -0.5633 -0.7878  0.4249
 1446TIP3    H2 4303   6.172   1.137   4.932 -0.0290  1.0116 -0.1781
 1447TIP3   OH2 4304   2.387   5.126   5.878  0.1263  0.3971 -0.1514
 1447TIP3    H1 4305   2.366   5.155   5.789  0.7270 -0.0715 -0.4567
 1447TIP3    H2 4306   2.315   5.068   5.902  0.3902 -0.1616 -0.6784
 1448TIP3   OH2 4307   4.104   1.073   5.181 -0.4323 -0.0535  0.1232
 1448TIP3    H1 4308   4.102   1.155   5.231 -0.9464 -1.0559  1.8129
 1448TIP3    H2 4309   4.013   1.043   5.180  0.1675 -2.3798  2.6972
 1449TIP3   OH2 4310   3.570   0.363   0.854  0.2013 -0.6691 -0.0691
 1449TIP3    H1 4311   3.505   0.341   0.788  0.0356  3.1547 -1.4410
 1449TIP3    H2 4312   3.653   0.362   0.808  0.2825  0.4460  0.0150
 1450TIP3   OH2 4313   3.552   0.735   0.720  0.2274 -0.5831  0.8736
 1450TIP3    H1 4314   3.594   0.767   0.639 -1.1336 -1.4126 -0.1904
 1450TIP3    H2 4315   3.485   0.801   0.739  0.2065 -0.6514  1.0334
 1451TIP3   OH2 4316   3.052   3.951   0.910  0.1424 -0.4244 -0.1517
 1451TIP3    H1 4317   2.987   3.906   0.855 -0.2002  0.0635 -0.1570
 1451TIP3    H2 4318   3.001   4.018   0.956  0.7873  0.5517 -0.8105
 1452TIP3   OH2 4319   6.823   5.092   3.359 -0.0899  0.2223  0.2879
 1452TIP3    H1 4320   6.859   5.028   3.421  1.0882 -0.6699 -1.2440
 1452TIP3    H2 4321   6.875   5.171   3.373 -0.8751  0.5613  1.4779
 1453TIP3   OH2 4322   0.076   4.304   4.931 -0.5697  0.2382  0.0756
 1453TIP3    H1 4323  -0.014   4.315   4.960 -0.0182  1.1716  1.5274
 1453TIP3    H2 4324   0.088   4.371   4.864 -0.2600  1.8106  1.6357
 1454TIP3   OH2 4325   6.575   2.656   0.842  0.4472  0.1154 -0.5018
 1454TIP3    H1 4326   6.616   2.650   0.929  1.3623  1.2831 -0.8390
 1454TIP3    H2 4327   6.597   2.573   0.800 -2.3320 -1.7449  1.3035
 1455TIP3   OH2 4328   3.783   4.577   3.187 -0.2325  0.0721 -0.5352
 1455TIP3    H1 4329   3.727   4.654   3.190 -0.1135  0.1575 -0.5150
 1455TIP3    H2 4330   3.731   4.511   3.141  0.2539  0.6390 -1.9616
 1456TIP3   OH2 4331   0.385   3.237   4.245  0.0594  0.1589 -0.3543
 1456TIP3    H1 4332   0.303   3.231   4.293  0.7951 -1.7334  0.7469
 1456TIP3    H2 4333   0.391   3.329   4.219 -2.6267  0.2387 -0.9216
 1457TIP3   OH2 4334   4.361   2.575   1.260  0.3732 -0.3894  0.0590
 1457TIP3    H1 4335   4.376   2.518   1.336  0.7712 -0.2193  0.1139
 1457TIP3    H2 4336   4.446   2.617   1.245  0.1395  0.0293 -0.1134
 1458TIP3   OH2 4337   2.676   3.190   1.928  0.2066  0.6011 -0.6530
 1458TIP3    H1 4338   2.696   3.275   1.968 -0.8635  1.0886 -1.1350
 1458TIP3    H2 4339   2.621   3.211   1.853 -0.5321 -0.5663 -0.4569
 1459TIP3   OH2 4340   3.853   6.125   0.149 -0.2848  0.1129  0.4343
 1459TIP3    H1 4341   3.861   6.051   0.089 -1.3056  0.2709  0.0899
 1459TIP3    H2 4342   3.939   6.132   0.190  0.3263 -0.2018 -0.7689
 1460TIP3   OH2 4343   4.041   4.807   4.313 -0.0707  0.2931 -0.4552
 1460TIP3    H1 4344   4.012   4.841   4.398 -0.9915 -0.4563 -0.4541
 1460TIP3    H2 4345   3.961   4.805   4.260  0.5376  1.0096 -1.4431
 1461TIP3   OH2 4346   5.662   3.898   2.854 -0.2846  0.1740  0.5858
 1461TIP3    H1 4347   5.672   3.858   2.768  0.5869 -0.1636  0.8321
 1461TIP3    H2 4348   5.750   3.927   2.877 -0.8169  1.8959  0.5902
 1462TIP3   OH2 4349   0.241   4.423   0.342 -0.5677  0.1938  0.0191
 1462TIP3    H1 4350   0.238   4.516   0.362  1.7072  0.3453 -0.0983
 1462TIP3    H2 4351   0.192   4.381   0.413 -0.6372  1.3994  0.6985
 1463TIP3   OH2 4352   4.153   4.826   5.812 -0.7857 -0.0032 -0.2531
 1463TIP3    H1 4353   4.083   4.760   5.811 -1.8790  0.9542  2.6923
 1463TIP3    H2 4354   4.165   4.847   5.904  0.1805  3.2488 -0.9891
 1464TIP3   OH2 4355   2.784   0.428   0.729  0.0944 -0.5826  0.0467
 1464TIP3    H1 4356   2.775   0.507   0.783 -0.1550 -0.0312 -0.7871
 1464TIP3    H2 4357   2.716   0.369   0.763 -0.6684  0.1081 -0.2404
 1465TIP3   OH2 4358   2.994   4.321   0.681  0.0902 -0.0795  0.0887
 1465TIP3    H1 4359   2.964   4.384   0.616 -0.4720  0.1257  0.5351
 1465TIP3    H2 4360   2.916   4.303   0.734  0.4203 -0.6119  0.3999
 1466TIP3   OH2 4361   3.819   4.148   2.344  0.4135  0.2812  0.7930
 1466TIP3    H1 4362   3.830   4.217   2.279  2.9577 -1.2691 -0.5822
 1466TIP3    H2 4363   3.760   4.085   2.302 -0.2271  0.6142  1.1832
 1467TIP3   OH2 4364   1.394   2.419   0.778  0.6135 -0.4414  0.1290
 1467TIP3    H1 4365   1.453   2.439   0.705  0.1411  2.1859  0.3487
 1467TIP3    H2 4366   1.424   2.475   0.849 -0.1117 -1.5337  1.3414
 1468TIP3   OH2 4367   4.818   1.699   5.599  0.0777 -0.0212 -0.0976
 1468TIP3    H1 4368   4.831   1.604   5.600  1.5802  0.1215  2.4030
 1468TIP3    H2 4369   4.866   1.729   5.522 -3.0036 -1.4689 -2.8162
 1469TIP3   OH2 4370   0.978   4.285   0.473 -0.1457 -0.0387 -0.7721
 1469TIP3    H1 4371   1.002   4.322   0.558 -0.3285 -3.2341  0.8165
 1469TIP3    H2 4372   1.061   4.263   0.432 -0.0872 -0.9206 -0.2042
 1470TIP3   OH2 4373   2.242   5.226   3.693  0.2397 -0.1975 -0.0812
 1470TIP3    H1 4374   2.299   5.256   3.764  0.8258 -0.6938 -0.3319
 1470TIP3    H2 4375   2.260   5.287   3.621 -1.2095  1.0247  0.5439
 1471TIP3   OH2 4376   5.170   1.120   3.568 -0.0288 -0.3095  0.5371
 1471TIP3    H1 4377   5.170   1.214   3.584  1.3446 -0.2381  0.2171
 1471TIP3    H2 4378   5.088   1.089   3.607 -0.6004  1.0407  0.4585
 1472TIP3   OH2 4379   0.409   0.887   0.965  0.0987  0.9465 -0.1372
 1472TIP3    H1 4380   0.409   0.800   0.925 -3.4429  0.7696 -0.0168
 1472TIP3    H2 4381   0.441   0.873   1.054 -0.6572 -0.3024 -0.0445
 1473TIP3   OH2 4382   1.667   4.376   2.190 -0.2113  0.4830  0.2842
 1473TIP3    H1 4383   1.685   4.470   2.195 -2.6873  1.0264 -0.1547
 1473TIP3    H2 4384   1.610   4.366   2.114 -2.8136 -0.8329  2.2508
 1474TIP3   OH2 4385   2.686   2.834   3.841 -0.3326  0.3006  0.5700
 1474TIP3    H1 4386   2.609   2.793   3.803 -0.8914  1.4743  0.4043
 1474TIP3    H2 4387   2.758   2.809   3.782 -1.1431  1.9039 -1.1925
 1475TIP3   OH2 4388   0.403   0.543   3.833  0.1494 -0.8597 -0.0594
 1475TIP3    H1 4389   0.404   0.610   3.765  0.5046  0.3291  1.0693
 1475TIP3    H2 4390   0.336   0.481   3.805  0.0905 -0.2511 -1.3326
 1476TIP3   OH2 4391   7.092   5.693   0.940 -0.1505  0.1256 -0.0064
 1476TIP3    H1 4392   7.094   5.606   0.981 -0.3842 -0.6709 -1.5586
 1476TIP3    H2 4393   7.124   5.753   1.007 -0.7357 -1.0466  1.3812
 1477TIP3   OH2 4394   6.873   3.228   3.980  0.5581  0.4731 -0.4330
 1477TIP3    H1 4395   6.943   3.215   3.916 -0.0507 -0.3025 -0.9637
 1477TIP3    H2 4396   6.798   3.180   3.944 -0.5308  2.0019 -0.3309
 1478TIP3   OH2 4397   6.300   6.380   2.789 -0.1823  0.2300  0.2393
 1478TIP3    H1 4398   6.321   6.305   2.735 -0.7269  1.3074 -1.5572
 1478TIP3    H2 4399   6.352   6.452   2.753 -0.9640  1.1131  0.7930
 1479TIP3   OH2 4400   4.829   6.205   4.064 -0.4874 -0.1946  0.0602
 1479TIP3    H1 4401   4.894   6.174   4.001 -0.9535 -1.3753  0.1313
 1479TIP3    H2 4402   4.833   6.300   4.058  0.0026 -0.2802 -1.2167
 1480TIP3   OH2 4403   6.589   5.469   0.717 -0.0949 -0.0521  0.1781
 1480TIP3    H1 4404   6.661   5.525   0.743  0.3530  0.1848 -1.4743
 1480TIP3    H2 4405   6.514   5.528   0.708  0.1229  0.1256 -0.5327
 1481TIP3   OH2 4406   3.502   3.963   4.888 -0.2273 -0.4153  0.1480
 1481TIP3    H1 4407   3.418   3.986   4.926 -0.2501  0.4367 -0.3764
 1481TIP3    H2 4408   3.492   3.872   4.859 -0.3624 -0.9071  1.6873
 1482TIP3   OH2 4409   1.468   4.765   4.032  0.3956 -0.7714 -0.0522
 1482TIP3    H1 4410   1.484   4.808   4.116  0.5372 -0.0340 -0.4462
 1482TIP3    H2 4411   1.417   4.829   3.982 -0.1053 -1.4035 -0.3472
 1483TIP3   OH2 4412   1.874   5.475   4.954 -0.5518  0.7798  0.5164
 1483TIP3    H1 4413   1.867   5.544   4.887 -0.3343  0.1805 -0.1409
 1483TIP3    H2 4414   1.919   5.518   5.027 -0.8258  1.4618  0.2968
 1484TIP3   OH2 4415   2.723   4.357   0.398 -0.3533 -0.0607  0.3001
 1484TIP3    H1 4416   2.744   4.390   0.311  0.2813  0.5195  0.6627
 1484TIP3    H2 4417   2.644   4.405   0.425 -0.4461 -0.1121  0.1159
 1485TIP3   OH2 4418   0.128   3.006   3.155 -0.3620 -0.2704  0.3951
 1485TIP3    H1 4419   0.080   2.924   3.141 -0.6097  0.0479 -0.6781
 1485TIP3    H2 4420   0.075   3.054   3.220 -3.2340  1.3544 -2.8084
 1486TIP3   OH2 4421   4.935   0.469   1.457 -0.3077  0.7895  0.1735
 1486TIP3    H1 4422   5.022   0.430   1.458 -0.6993 -0.1267 -0.5086
 1486TIP3    H2 4423   4.907   0.464   1.366 -2.2820 -1.6903  0.8261
 1487TIP3   OH2 4424   1.570   6.544   5.042 -0.1884 -0.2100 -0.0316
 1487TIP3    H1 4425   1.559   6.460   4.997 -1.8202 -0.8451  1.4213
 1487TIP3    H2 4426   1.499   6.599   5.008  0.1513  0.1833 -0.1084
 1488TIP3   OH2 4427   4.729   2.236   4.488 -0.1272  0.2052  0.4656
 1488TIP3    H1 4428   4.660   2.262   4.549 -0.4115  0.7754 -0.0872
 1488TIP3    H2 4429   4.810   2.249   4.538 -0.3352  0.9912  0.6157
 1489TIP3   OH2 4430   1.718   6.600   0.771 -0.4220 -0.3501  0.3850
 1489TIP3    H1 4431   1.745   6.644   0.852 -0.4551  0.0836  0.1624
 1489TIP3    H2 4432   1.679   6.669   0.718 -0.4447 -0.6420  0.0181
 1490TIP3   OH2 4433   0.463   1.128   4.008  0.1258  0.3039  0.0434
 1490TIP3    H1 4434   0.481   1.218   4.033  1.3125 -0.0591  0.6032
 1490TIP3    H2 4435   0.503   1.119   3.921 -0.7907  0.5510 -0.4197
 1491TIP3   OH2 4436   5.850   5.269   2.742 -0.0165  0.0087  0.0180
 1491TIP3    H1 4437   5.775   5.327   2.730 -0.0840 -0.3910 -1.7311
 1491TIP3    H2 4438   5.870   5.236   2.654  1.2290 -1.1158  0.6766
 1492TIP3   OH2 4439   2.358   6.645   4.949 -0.3003 -0.4118 -0.7492
 1492TIP3    H1 4440   2.290   6.605   5.003 -0.5051  0.3359 -0.4285
 1492TIP3    H2 4441   2.423   6.577   4.937 -0.7253 -0.8941 -0.3840
 1493TIP3   OH2 4442   4.811   5.159   3.563 -0.5002 -0.3706 -0.4525
 1493TIP3    H1 4443   4.847   5.234   3.611 -1.0598 -0.1920 -0.3128
 1493TIP3    H2 4444   4.808   5.188   3.472 -1.7212  0.1741 -0.2559
 1494TIP3   OH2 4445   5.663   4.292   2.363  0.4469  0.0833 -0.7843
 1494TIP3    H1 4446   5.660   4.379   2.324  3.5470  0.3104 -0.7527
 1494TIP3    H2 4447   5.756   4.276   2.380 -0.1934 -2.4886  0.9365
 1495TIP3   OH2 4448   1.009   4.236   3.259  0.5075  0.1801  0.2809
 1495TIP3    H1 4449   0.942   4.189   3.210  1.7216 -0.7451 -0.5795
 1495TIP3    H2 4450   1.000   4.327   3.232  0.1846 -0.0819 -0.5207
 1496TIP3   OH2 4451   3.778   2.469   5.642  0.3892 -0.5963 -0.8333
 1496TIP3    H1 4452   3.851   2.421   5.683 -1.3758 -1.6744  1.2454
 1496TIP3    H2 4453   3.722   2.401   5.605 -0.2792  0.1197 -1.1672
 1497TIP3   OH2 4454   6.408   3.940   1.145  0.0447  0.8412 -0.0147
 1497TIP3    H1 4455   6.480   3.944   1.207  0.1129  1.5269 -0.1350
 1497TIP3    H2 4456   6.349   4.011   1.171 -0.8929 -0.0769  0.4494
 1498TIP3   OH2 4457   6.260   0.424   1.942 -0.3801  0.7443  0.4303
 1498TIP3    H1 4458   6.255   0.328   1.940  1.6037  0.5911 -2.4965
 1498TIP3    H2 4459   6.203   0.452   1.870 -1.1461  1.8367  1.4285
 1499TIP3   OH2 4460   6.188   0.615   5.568 -0.2626 -0.3569 -0.1919
 1499TIP3    H1 4461   6.124   0.681   5.593  0.5647  0.4129 -0.0717
 1499TIP3    H2 4462   6.224   0.646   5.485 -0.4156 -1.0603 -0.5361
 1500TIP3   OH2 4463   6.549   3.944   2.893 -0.0751 -0.2113 -0.1300
 1500TIP3    H1 4464   6.610   3.886   2.848  0.9343  0.0288  0.9019
 1500TIP3    H2 4465   6.555   4.026   2.846  0.5076 -0.1512  0.0375
 1501TIP3   OH2 4466   3.588   1.525   2.741 -0.0906  0.8164  0.3622
 1501TIP3    H1 4467   3.563   1.566   2.659 -1.6404  0.7962  0.8060
 1501TIP3    H2 4468   3.672   1.483   2.722  0.3715  2.1805 -0.7411
 1502TIP3   OH2 4469   5.445   5.093   4.530  0.0584 -0.1585 -0.3550
 1502TIP3    H1 4470   5.507   5.034   4.572  1.3881  0.9916 -0.6237
 1502TIP3    H2 4471   5.432   5.057   4.443  0.8187 -0.0868 -0.5016
 1503TIP3   OH2 4472   4.371   5.652   3.331  0.0093  0.3197  0.6047
 1503TIP3    H1 4473   4.347   5.717   3.264 -3.0772  0.0051  1.2618
 1503TIP3    H2 4474   4.315   5.577   3.312 -0.1259 -0.1929  2.8531
 1504TIP3   OH2 4475   6.840   2.371   0.137 -0.4291  0.0722 -0.0163
 1504TIP3    H1 4476   6.873   2.431   0.204  1.8104 -1.9994  0.9043
 1504TIP3    H2 4477   6.810   2.295   0.187  1.8373 -1.7704 -1.2573
 1505TIP3   OH2 4478   1.044   0.081   2.664 -0.0524  0.3918  0.2104
 1505TIP3    H1 4479   1.072   0.010   2.722 -0.0933  0.7066  0.6144
 1505TIP3    H2 4480   1.029   0.037   2.580 -1.1699 -0.2901  0.7384
 1506TIP3   OH2 4481   6.137   6.461   3.890 -0.3219  0.0467  0.0157
 1506TIP3    H1 4482   6.140   6.373   3.852  0.0185  0.2202 -0.3629
 1506TIP3    H2 4483   6.075   6.453   3.963  2.3585 -1.4567  2.3621
 1507TIP3   OH2 4484   1.095   6.494   3.316 -0.2952  0.4902  0.0600
 1507TIP3    H1 4485   1.173   6.465   3.363  0.0962  1.8691  0.2981
 1507TIP3    H2 4486   1.083   6.428   3.248 -0.3550 -1.0520  1.5034
 1508TIP3   OH2 4487   6.237   4.411   2.898 -0.1301  0.0195 -0.0399
 1508TIP3    H1 4488   6.167   4.444   2.841 -1.3438 -0.8910  0.8647
 1508TIP3    H2 4489   6.281   4.489   2.929 -1.7692  0.7416  0.6134
 1509TIP3   OH2 4490   2.245   5.870   4.888 -0.3969 -0.8649 -0.3764
 1509TIP3    H1 4491   2.292   5.820   4.956  1.1247  0.7573 -0.1713
 1509TIP3    H2 4492   2.307   5.938   4.861 -2.2431  0.6896 -0.9129
 1510TIP3   OH2 4493   1.084   3.833   1.862 -0.0310  0.2254 -0.4257
 1510TIP3    H1 4494   1.084   3.928   1.874 -0.0142  0.1041  0.6899
 1510TIP3    H2 4495   1.030   3.818   1.785 -1.9040  1.0063  0.6768
 1511TIP3   OH2 4496   3.847   5.156   3.242  0.2930  0.6534  0.4155
 1511TIP3    H1 4497   3.816   5.067   3.226  2.5881 -0.3986  1.3256
 1511TIP3    H2 4498   3.769   5.203   3.271 -1.0302 -0.9869 -0.2924
 1512TIP3   OH2 4499   4.325   2.876   2.200  0.0828  0.2697 -0.5539
 1512TIP3    H1 4500   4.266   2.922   2.141  0.3004 -0.6249 -1.4980
 1512TIP3    H2 4501   4.412   2.886   2.160  0.4305  0.7225  0.2912
 1513TIP3   OH2 4502   5.010   6.253   5.256 -0.4298 -0.2841  0.5321
 1513TIP3    H1 4503   4.986   6.295   5.173 -0.0761 -0.4225  0.3596
 1513TIP3    H2 4504   4.939   6.193   5.274 -1.1453  0.6681  0.9788
 1514TIP3   OH2 4505   6.774   0.821   4.029 -0.1121  0.2803 -0.1596
 1514TIP3    H1 4506   6.847   0.867   4.070 -1.1968  1.1789  0.8420
 1514TIP3    H2 4507   6.782   0.731   4.060 -0.0406  0.6109  0.8208
 1515TIP3   OH2 4508   6.491   3.043   2.619 -0.4080 -0.6238 -0.3704
 1515TIP3    H1 4509   6.412   2.991   2.608 -1.3582  0.0119  2.4314
 1515TIP3    H2 4510   6.540   2.998   2.688  0.0344  0.7220  0.2472
 1516TIP3   OH2 4511   3.531   1.638   3.613  0.3140  0.1982 -0.0058
 1516TIP3    H1 4512   3.519   1.702   3.543 -1.2796 -0.5068 -0.4334
 1516TIP3    H2 4513   3.515   1.554   3.570  1.8215 -0.4561  0.6673
 1517TIP3   OH2 4514   5.603   2.248   3.497 -0.3325 -0.5793  0.3549
 1517TIP3    H1 4515   5.698   2.254   3.487 -0.5468  1.6010 -0.9974
 1517TIP3    H2 4516   5.568   2.309   3.432 -2.5733  0.5312  2.4205
 1518TIP3   OH2 4517   3.978   5.183   5.824  0.4385 -0.1999 -0.0038
 1518TIP3    H1 4518   4.069   5.175   5.852  0.2682  1.0543  0.9789
 1518TIP3    H2 4519   3.937   5.101   5.853  1.0769 -0.4223  0.2854
 1519TIP3   OH2 4520   6.767   0.039   0.769  0.3137  0.0503 -0.1446
 1519TIP3    H1 4521   6.750   0.073   0.681 -0.1051 -0.0994 -0.1190
 1519TIP3    H2 4522   6.856   0.003   0.764  0.6243  0.8081 -0.2755
 1520TIP3   OH2 4523   1.517   5.722   0.815 -0.2369  0.2752  0.2986
 1520TIP3    H1 4524   1.513   5.816   0.834 -1.0451  0.1329  0.8983
 1520TIP3    H2 4525   1.603   5.709   0.774 -0.2431  1.3200 -0.0754
 1521TIP3   OH2 4526   0.020   1.362   0.250 -0.3500  0.3601  0.0578
 1521TIP3    H1 4527   0.066   1.438   0.217 -0.9586  0.6865 -0.0581
 1521TIP3    H2 4528   0.075   1.328   0.320 -0.0781  0.9116  0.1115
 1522TIP3   OH2 4529   0.180   1.435   5.240  0.4759  0.0060  0.2122
 1522TIP3    H1 4530   0.197   1.408   5.331  1.2520 -2.7853 -0.6633
 1522TIP3    H2 4531   0.257   1.487   5.216  1.0602 -0.6368  0.6534
 1523TIP3   OH2 4532   2.089   6.517   1.635 -0.3187 -0.2876 -0.3777
 1523TIP3    H1 4533   2.154   6.523   1.705  0.3430 -0.4754 -0.9623
 1523TIP3    H2 4534   2.080   6.424   1.617  0.4548 -0.1934 -1.3796
 1524TIP3   OH2 4535   5.291   0.640   4.611  0.0138 -0.0902  0.1362
 1524TIP3    H1 4536   5.352   0.671   4.677  1.5220 -0.4517 -1.0321
 1524TIP3    H2 4537   5.327   0.557   4.581 -1.9474 -1.1575  0.5430
 1525TIP3   OH2 4538   5.096   1.954   4.750 -0.3076  0.0168 -0.1798
 1525TIP3    H1 4539   5.061   2.039   4.725  0.5914  0.1926 -0.9074
 1525TIP3    H2 4540   5.174   1.943   4.695  1.1572 -0.0699  1.7974
 1526TIP3   OH2 4541   0.222   4.595   3.785 -0.0453 -0.4999  0.1297
 1526TIP3    H1 4542   0.203   4.502   3.777  0.5567 -0.5498 -1.0930
 1526TIP3    H2 4543   0.318   4.600   3.786 -0.0570  0.1334 -0.5055
 1527TIP3   OH2 4544   3.408   0.961   3.535  0.4565  0.8187 -0.1377
 1527TIP3    H1 4545   3.333   0.925   3.582  0.4313  0.0022 -0.7865
 1527TIP3    H2 4546   3.465   0.995   3.604  0.6712 -0.8330  0.5565
 1528TIP3   OH2 4547   1.125   3.655   3.132  0.4209  0.1033  0.1112
 1528TIP3    H1 4548   1.110   3.748   3.115 -3.1946  0.0561  2.1387
 1528TIP3    H2 4549   1.093   3.611   3.054 -0.6060  0.4848  0.3033
 1529TIP3   OH2 4550   1.826   0.621   3.732 -0.0208 -0.4708  0.2075
 1529TIP3    H1 4551   1.773   0.611   3.652 -0.5088 -0.0945  0.4829
 1529TIP3    H2 4552   1.897   0.558   3.721 -1.4234 -2.1989  0.5744
 1530TIP3   OH2 4553   6.668   3.447   2.414  0.2952 -0.3484  0.5002
 1530TIP3    H1 4554   6.734   3.465   2.347 -0.1495 -0.6374 -0.0239
 1530TIP3    H2 4555   6.651   3.353   2.406  0.0762 -0.3450  0.8771
 1531TIP3   OH2 4556   3.594   2.639   5.474  0.0925 -0.3191  0.2110
 1531TIP3    H1 4557   3.570   2.659   5.565 -1.6427  0.0260 -0.2808
 1531TIP3    H2 4558   3.638   2.554   5.479 -0.6402 -0.6536  1.2945
 1532TIP3   OH2 4559   1.884   0.498   4.204 -0.1119  0.2863  0.5232
 1532TIP3    H1 4560   1.865   0.406   4.226 -1.4758  0.7112  1.2310
 1532TIP3    H2 4561   1.887   0.542   4.289 -0.4515  1.0713  0.1290
 1533TIP3   OH2 4562   4.042   5.782   2.091 -0.4028 -0.2694  0.2643
 1533TIP3    H1 4563   4.052   5.846   2.162  2.1198  0.3636 -0.5460
 1533TIP3    H2 4564   3.976   5.819   2.034 -1.2199  0.0508  1.3740
 1534TIP3   OH2 4565   2.003   3.171   1.945 -0.2189  0.4072 -0.3466
 1534TIP3    H1 4566   1.907   3.165   1.948 -0.2355  0.4349 -0.7252
 1534TIP3    H2 4567   2.022   3.259   1.977 -0.2640  0.1024  0.5496
 1535TIP3   OH2 4568   0.610   4.428   1.772  0.3321 -0.5165  0.4015
 1535TIP3    H1 4569   0.578   4.486   1.841 -0.2748 -0.4324  0.0586
 1535TIP3    H2 4570   0.648   4.353   1.819 -0.7176 -0.8032  0.8208
 1536TIP3   OH2 4571   1.376   2.616   3.893 -0.7800 -0.0437 -0.1925
 1536TIP3    H1 4572   1.469   2.629   3.911 -0.9548 -0.6125  1.2966
 1536TIP3    H2 4573   1.374   2.572   3.808  0.2995  0.0471 -0.2825
 1537TIP3   OH2 4574   0.672   6.338   2.651 -0.2093 -0.3220 -0.2557
 1537TIP3    H1 4575   0.722   6.298   2.723  0.4236 -0.9632 -1.0330
 1537TIP3    H2 4576   0.596   6.282   2.641  0.8226 -1.5595 -1.5359
 1538TIP3   OH2 4577   2.228   1.628   4.014  0.2977  0.2985  0.0949
 1538TIP3    H1 4578   2.248   1.720   4.034  0.1514 -0.0036  1.7642
 1538TIP3    H2 4579   2.157   1.633   3.950 -0.1313  1.3647  0.6170
 1539TIP3   OH2 4580   4.862   1.056   1.870  0.1061  0.7562  0.3652
 1539TIP3    H1 4581   4.921   1.131   1.880 -1.5520  2.1903 -0.0408
 1539TIP3    H2 4582   4.797   1.068   1.939 -0.2846 -0.2197  0.1728
 1540TIP3   OH2 4583   3.991   6.027   4.818 -0.4336 -0.5895  0.1467
 1540TIP3    H1 4584   4.079   6.047   4.786 -0.5046  2.7157  1.6205
 1540TIP3    H2 4585   3.932   6.062   4.751 -0.5372  3.1325  1.9264
 1541TIP3   OH2 4586   1.684   1.469   5.094  0.3346  0.2443  0.6015
 1541TIP3    H1 4587   1.756   1.466   5.158  1.1819  2.0157 -0.1860
 1541TIP3    H2 4588   1.670   1.562   5.079 -2.3708 -0.0499  0.9304
 1542TIP3   OH2 4589   6.091   1.067   0.548 -0.2938 -0.0198 -0.5996
 1542TIP3    H1 4590   6.150   1.142   0.543  0.3603 -0.4504  0.2693
 1542TIP3    H2 4591   6.132   1.000   0.493 -0.3304 -0.0904 -0.5410
 1543TIP3   OH2 4592   3.976   5.697   5.247 -0.3399  0.5031  0.1486
 1543TIP3    H1 4593   4.060   5.670   5.208  0.6066  1.8803  1.1562
 1543TIP3    H2 4594   3.954   5.779   5.203 -0.1694  1.1368  1.2040
 1544TIP3   OH2 4595   2.981   4.944   5.004  0.0277  0.2647  0.0451
 1544TIP3    H1 4596   2.905   4.926   4.948 -0.2142  0.3195  0.3541
 1544TIP3    H2 4597   3.011   4.857   5.032  1.6421  0.0536 -2.1097
 1545TIP3   OH2 4598   3.937   1.033   0.900 -0.1747  0.4205  0.2384
 1545TIP3    H1 4599   3.908   0.942   0.893  0.6687  0.1961 -0.4706
 1545TIP3    H2 4600   3.875   1.082   0.847 -0.0740  0.1304 -0.1484
 1546TIP3   OH2 4601   3.169   6.024   2.932 -0.1244 -0.0117 -0.5991
 1546TIP3    H1 4602   3.214   6.088   2.877 -1.9494  0.4375 -1.6771
 1546TIP3    H2 4603   3.124   6.077   2.998  0.0118 -0.3586 -0.2242
 1547TIP3   OH2 4604   3.559   5.625   4.096 -0.5378 -0.1142 -0.1604
 1547TIP3    H1 4605   3.619   5.584   4.158  0.6029  4.0545  1.8386
 1547TIP3    H2 4606   3.474   5.623   4.139 -0.7131 -1.1624 -0.5308
 1548TIP3   OH2 4607   3.317   1.215   4.642 -0.6592 -0.0651 -0.2737
 1548TIP3    H1 4608   3.359   1.129   4.650 -0.6351 -0.1070 -0.7807
 1548TIP3    H2 4609   3.365   1.271   4.703 -1.8516 -0.8265  1.4609
 1549TIP3   OH2 4610   2.414   3.586   0.792 -0.3841 -0.0890 -0.2799
 1549TIP3    H1 4611   2.501   3.607   0.825 -0.4850  2.4120 -1.4250
 1549TIP3    H2 4612   2.355   3.645   0.838 -1.6606 -2.2332  1.0109
 1550TIP3   OH2 4613   4.601   0.067   0.790 -0.0259 -0.0285 -0.4452
 1550TIP3    H1 4614   4.533   0.073   0.722 -0.2234 -1.6429 -0.4277
 1550TIP3    H2 4615   4.571  -0.003   0.848  2.0356 -1.3660 -0.8881
 1551TIP3   OH2 4616   2.138   3.552   5.015 -0.3750 -0.0041  0.3555
 1551TIP3    H1 4617   2.071   3.552   4.947  0.0003  3.0064 -0.1591
 1551TIP3    H2 4618   2.220   3.541   4.967 -0.2923 -4.9187  1.0717
 1552TIP3   OH2 4619   6.282   0.369   2.580  0.1971  0.3458  0.2292
 1552TIP3    H1 4620   6.353   0.309   2.602 -0.3022  0.2848  1.8973
 1552TIP3    H2 4621   6.322   0.455   2.576  0.8489 -0.0099 -1.7740
 1553TIP3   OH2 4622   1.960   0.553   5.166  0.1481 -0.1491  0.4583
 1553TIP3    H1 4623   1.915   0.638   5.163  2.1440  0.9453 -0.3037
 1553TIP3    H2 4624   1.890   0.489   5.153 -1.4002  1.3671  0.8509
 1554TIP3   OH2 4625   5.455   1.311   4.981  0.2124  0.2104 -0.2013
 1554TIP3    H1 4626   5.496   1.319   4.894 -0.8869  1.8003 -0.6081
 1554TIP3    H2 4627   5.362   1.328   4.966  0.2049  2.0117  1.4730
 1555TIP3   OH2 4628   5.144   4.540   4.343  0.0804 -0.3897 -0.5496
 1555TIP3    H1 4629   5.160   4.613   4.282  0.5546 -0.1430 -0.1446
 1555TIP3    H2 4630   5.172   4.462   4.295  1.8041 -0.0549 -0.1730
 1556TIP3   OH2 4631   3.400   5.316   4.693  0.5503 -0.4111  0.0737
 1556TIP3    H1 4632   3.484   5.307   4.647 -0.4107  1.6729 -2.2808
 1556TIP3    H2 4633   3.411   5.262   4.771  2.7446 -3.1922 -1.9320
 1557TIP3   OH2 4634   4.620   0.512   0.107 -0.4017 -0.0991  0.0693
 1557TIP3    H1 4635   4.656   0.592   0.145 -0.6709  1.0484 -1.9507
 1557TIP3    H2 4636   4.676   0.493   0.032 -2.0502 -0.0886 -1.2366
 1558TIP3   OH2 4637   3.452   6.731   2.158 -0.4013  0.9392  0.1861
 1558TIP3    H1 4638   3.416   6.744   2.246  1.1849 -0.3230  1.0875
 1558TIP3    H2 4639   3.399   6.662   2.120 -1.4531  1.8752 -0.1017
 1559TIP3   OH2 4640   4.722   5.310   0.460 -0.2038 -0.6104  0.1298
 1559TIP3    H1 4641   4.701   5.387   0.406  0.0716 -1.3382 -1.0428
 1559TIP3    H2 4642   4.669   5.239   0.423 -0.7292 -0.9363  1.4248
 1560TIP3   OH2 4643   0.411   2.742   1.773 -0.5815  0.5454 -0.0481
 1560TIP3    H1 4644   0.371   2.819   1.733  1.1613  1.2717 -0.4862
 1560TIP3    H2 4645   0.478   2.714   1.709 -0.5682 -0.7738  0.5168
 1561TIP3   OH2 4646   3.396   4.850   1.207  0.2973  0.2176 -0.0376
 1561TIP3    H1 4647   3.327   4.817   1.149  1.4954 -4.1517  0.6361
 1561TIP3    H2 4648   3.448   4.908   1.152 -0.6317 -1.0043 -2.3393
 1562TIP3   OH2 4649   4.978   4.582   5.152 -0.1974 -0.5238 -0.1696
 1562TIP3    H1 4650   4.884   4.589   5.169 -0.3678  0.2224 -1.3016
 1562TIP3    H2 4651   5.018   4.645   5.211 -0.1536 -2.4456  1.9855
 1563TIP3   OH2 4652   3.484   3.260   5.231 -0.2158  0.2940  0.5781
 1563TIP3    H1 4653   3.392   3.253   5.205  0.1731 -1.0735 -0.5092
 1563TIP3    H2 4654   3.509   3.171   5.256  1.4147  0.1626 -1.2814
 1564TIP3   OH2 4655   5.895   5.111   3.662  0.1560 -0.0429 -0.6034
 1564TIP3    H1 4656   5.962   5.045   3.682  0.7294  0.1996 -1.6729
 1564TIP3    H2 4657   5.889   5.163   3.742  1.1771 -0.1291 -0.4538
 1565TIP3   OH2 4658   2.176   3.567   2.538  0.5085  0.5745 -0.3138
 1565TIP3    H1 4659   2.138   3.484   2.564 -0.6667  1.6007  1.4123
 1565TIP3    H2 4660   2.124   3.596   2.463  1.4239 -0.5600 -1.4346
 1566TIP3   OH2 4661   5.603   0.595   5.598 -0.0838  0.0728 -0.3797
 1566TIP3    H1 4662   5.557   0.648   5.533 -1.3048  0.8951  1.1021
 1566TIP3    H2 4663   5.580   0.634   5.682  2.4010 -0.2137  0.5142
 1567TIP3   OH2 4664   1.426   2.073   1.915 -0.0619  0.0154  0.0534
 1567TIP3    H1 4665   1.503   2.017   1.912 -0.3698 -0.5650  2.0350
 1567TIP3    H2 4666   1.403   2.087   1.823 -0.4827 -3.8002 -0.5546
 1568TIP3   OH2 4667   3.790   3.754   0.942 -0.4551  0.6613  0.9342
 1568TIP3    H1 4668   3.796   3.823   0.875 -0.3834  0.1631  0.4254
 1568TIP3    H2 4669   3.698   3.726   0.939 -0.7469  1.4408  1.8646
 1569TIP3   OH2 4670   3.331   4.299   5.043  0.6073 -0.1542 -0.2100
 1569TIP3    H1 4671   3.236   4.296   5.048  0.6845 -1.8357  1.7831
 1569TIP3    H2 4672   3.350   4.317   4.951 -1.6139  0.3814 -0.6214
 1570TIP3   OH2 4673   1.585   5.253   1.839 -0.0587 -0.0740 -0.2801
 1570TIP3    H1 4674   1.576   5.327   1.779 -1.8725 -0.4048 -0.4721
 1570TIP3    H2 4675   1.498   5.243   1.878  0.6447 -0.9125  1.1829
 1571TIP3   OH2 4676   1.780   1.368   4.627  0.4551 -0.0894 -0.1829
 1571TIP3    H1 4677   1.824   1.440   4.583  0.1004 -0.7450 -1.6548
 1571TIP3    H2 4678   1.850   1.311   4.657  0.6623 -0.9355 -2.1734
 1572TIP3   OH2 4679   3.129   1.149   4.070 -0.4516  0.2355 -0.2948
 1572TIP3    H1 4680   3.181   1.201   4.132 -0.1354  1.6993 -1.7260
 1572TIP3    H2 4681   3.187   1.137   3.995 -0.8359 -1.5006 -0.3552
 1573TIP3   OH2 4682   0.067   1.026   3.039 -0.6594  0.1546 -0.0604
 1573TIP3    H1 4683   0.133   0.958   3.024  0.1147  0.8472  0.0982
 1573TIP3    H2 4684   0.053   1.025   3.133  1.0473  1.6927  0.2767
 1574TIP3   OH2 4685   1.304   3.397   4.097 -0.6735 -0.6795  0.1506
 1574TIP3    H1 4686   1.271   3.370   4.183 -0.9765 -0.5830  0.0631
 1574TIP3    H2 4687   1.325   3.315   4.052  0.5338 -0.7104  0.7263
 1575TIP3   OH2 4688   4.823   5.681   5.006  0.6087  0.1230 -0.2779
 1575TIP3    H1 4689   4.794   5.747   4.943 -2.2024 -0.5028  0.2086
 1575TIP3    H2 4690   4.853   5.732   5.082 -1.5002  0.9336  0.0840
 1576TIP3   OH2 4691   2.045   5.115   0.970  0.2053  0.0010  0.3108
 1576TIP3    H1 4692   1.950   5.117   0.964  0.2604  1.3991 -0.5753
 1576TIP3    H2 4693   2.067   5.188   1.027  0.8181  0.8848 -1.0218
 1577TIP3   OH2 4694   4.883   4.165   2.407  0.2640  0.0381 -0.0463
 1577TIP3    H1 4695   4.960   4.194   2.457 -0.9571 -1.7534  3.2010
 1577TIP3    H2 4696   4.809   4.206   2.451 -0.8134 -0.2438 -1.5348
 1578TIP3   OH2 4697   1.112  -0.014   3.978  0.7145 -0.0513 -0.2733
 1578TIP3    H1 4698   1.044   0.027   3.924 -0.2612 -0.2753  0.7524
 1578TIP3    H2 4699   1.192   0.032   3.954 -0.1224  1.5705 -0.1052
 1579TIP3   OH2 4700   3.736   3.551   2.980 -0.1669  0.2145 -0.0767
 1579TIP3    H1 4701   3.720   3.500   2.901 -0.0223  0.7984 -0.4901
 1579TIP3    H2 4702   3.654   3.597   2.998 -0.4851 -0.6112  0.6352
 1580TIP3   OH2 4703   1.352   4.725   0.377  1.2671 -0.2399  0.7488
 1580TIP3    H1 4704   1.402   4.645   0.388 -0.5060 -1.7559 -1.2874
 1580TIP3    H2 4705   1.331   4.728   0.283 -4.0258 -0.9176  1.5663
 1581TIP3   OH2 4706   6.098   5.254   1.192  0.0331  0.2196 -0.2026
 1581TIP3    H1 4707   6.148   5.318   1.242  0.4680 -0.6431  0.4825
 1581TIP3    H2 4708   6.162   5.216   1.131 -0.2437  0.4917 -0.6688
 1582TIP3   OH2 4709   6.832   6.095   1.717 -0.1933 -0.3865  0.4499
 1582TIP3    H1 4710   6.842   6.173   1.662  2.3361 -1.3390 -0.6117
 1582TIP3    H2 4711   6.763   6.117   1.779 -2.1504  1.3210 -2.1381
 1583TIP3   OH2 4712   5.808   2.534   4.176  0.7364  0.1374 -0.3742
 1583TIP3    H1 4713   5.848   2.494   4.099 -0.9573 -1.6326 -0.4188
 1583TIP3    H2 4714   5.788   2.460   4.233 -1.1843  1.0494  0.2171
 1584TIP3   OH2 4715   6.355   6.792   5.827  0.1626  0.3004 -0.0497
 1584TIP3    H1 4716   6.368   6.697   5.824 -1.5548  0.0441 -0.2400
 1584TIP3    H2 4717   6.363   6.820   5.736 -0.7592  0.1011 -0.2066
 1585TIP3   OH2 4718   4.394   5.946   0.382  1.0146  0.2085 -0.1392
 1585TIP3    H1 4719   4.321   5.945   0.445 -0.0456 -2.0241 -1.3169
 1585TIP3    H2 4720   4.473   5.949   0.437  0.0948 -0.2910  1.2513
 1586TIP3   OH2 4721   2.155   5.635   2.499  0.6182  0.2043  0.1623
 1586TIP3    H1 4722   2.193   5.702   2.441 -0.2587  0.7648  0.2043
 1586TIP3    H2 4723   2.061   5.652   2.496  0.2402 -1.7663 -0.7235
 1587TIP3   OH2 4724   2.678   0.722   1.671  0.0883  0.3141  0.0324
 1587TIP3    H1 4725   2.717   0.635   1.664  1.7953  1.0553 -0.2925
 1587TIP3    H2 4726   2.625   0.719   1.751 -0.9206 -1.3749 -0.6530
 1588TIP3   OH2 4727   1.465   0.793   4.336  0.3379  0.2105 -0.4563
 1588TIP3    H1 4728   1.483   0.704   4.366  0.5383  0.3721 -0.0889
 1588TIP3    H2 4729   1.543   0.817   4.286  0.0109 -0.0529 -1.0989
 1589TIP3   OH2 4730   4.545   1.248   5.770  0.1135  0.5738  0.4178
 1589TIP3    H1 4731   4.590   1.267   5.852 -1.0832  1.2814  0.9402
 1589TIP3    H2 4732   4.599   1.289   5.703  1.0234  0.1192  0.8587
 1590TIP3   OH2 4733   0.263   6.262   2.145 -0.1755 -0.1161  0.1962
 1590TIP3    H1 4734   0.181   6.221   2.117 -0.8256  0.8131  0.7164
 1590TIP3    H2 4735   0.326   6.189   2.147 -1.2449 -1.0604  0.8629
 1591TIP3   OH2 4736   4.990   0.727   3.463 -0.1783 -0.3369  0.0689
 1591TIP3    H1 4737   4.976   0.666   3.390  0.7897  0.8438 -1.1342
 1591TIP3    H2 4738   5.085   0.725   3.479 -0.2366  0.2784  0.5440
 1592TIP3   OH2 4739   5.622   3.624   2.756 -0.0991 -0.1190 -0.3457
 1592TIP3    H1 4740   5.540   3.633   2.706 -0.0378  0.9943 -0.2675
 1592TIP3    H2 4741   5.691   3.639   2.691 -0.0100  0.9060 -0.0318
 1593TIP3   OH2 4742   1.848   0.424   0.227  0.6832  0.9328 -0.2555
 1593TIP3    H1 4743   1.856   0.398   0.319 -0.3580 -0.6993 -0.5819
 1593TIP3    H2 4744   1.902   0.360   0.180 -1.1725 -0.1388 -1.0072
 1594TIP3   OH2 4745   7.173   6.799   5.403 -0.2237 -0.0434 -0.6650
 1594TIP3    H1 4746   7.145   6.748   5.478  0.8830 -0.3966 -0.4725
 1594TIP3    H2 4747   7.166   6.739   5.329  0.4851 -0.2894 -0.5371
 1595TIP3   OH2 4748   1.195   1.647   1.541  0.2945  0.0832  0.2119
 1595TIP3    H1 4749   1.240   1.673   1.622  0.5973  0.1060  0.0362
 1595TIP3    H2 4750   1.146   1.724   1.515 -0.2567 -0.0994  0.6804
 1596TIP3   OH2 4751   5.073   3.194   1.276  0.1051 -0.3163  0.1753
 1596TIP3    H1 4752   5.109   3.276   1.241  0.0424  0.3069  1.4984
 1596TIP3    H2 4753   5.147   3.153   1.320  0.9454 -2.5098 -2.9450
 1597TIP3   OH2 4754   0.428   3.724   5.436  0.1364 -0.0456  0.4697
 1597TIP3    H1 4755   0.406   3.806   5.480  0.4879 -0.4572  1.4530
 1597TIP3    H2 4756   0.498   3.748   5.375 -1.5275  0.8549 -1.1423
 1598TIP3   OH2 4757   5.159   6.471   5.254 -0.5617 -0.4635  0.3339
 1598TIP3    H1 4758   5.119   6.387   5.275  1.5130 -1.6243 -0.1471
 1598TIP3    H2 4759   5.221   6.452   5.184 -0.1121  1.4951  0.1265
 1599TIP3   OH2 4760   6.694   5.427   3.903  0.0450  0.0312  0.4004
 1599TIP3    H1 4761   6.763   5.402   3.842  0.1321  0.3591  0.3648
 1599TIP3    H2 4762   6.613   5.406   3.856  0.0735  1.5095 -0.3908
 1600TIP3   OH2 4763   4.725   3.019   4.913 -0.1564 -0.2598  0.1230
 1600TIP3    H1 4764   4.680   3.104   4.914 -0.2638 -0.2142 -2.2045
 1600TIP3    H2 4765   4.816   3.040   4.932 -0.3104  0.2852  0.2745
 1601TIP3   OH2 4766   0.847   5.291   0.876 -0.4349 -0.0905 -0.0808
 1601TIP3    H1 4767   0.809   5.296   0.964  0.0844  0.1703  0.1331
 1601TIP3    H2 4768   0.780   5.248   0.824  0.6535 -3.8981  1.2872
 1602TIP3   OH2 4769   3.044   1.244   5.572 -0.2040 -0.1050  0.1060
 1602TIP3    H1 4770   2.991   1.169   5.547  1.3242 -1.5893  1.1043
 1602TIP3    H2 4771   2.992   1.289   5.639 -1.4626  0.2018 -1.0404
 1603TIP3   OH2 4772   2.733   4.472   3.324  0.1239  0.0629 -0.5113
 1603TIP3    H1 4773   2.729   4.390   3.275 -0.0729 -1.3793  1.8116
 1603TIP3    H2 4774   2.653   4.518   3.299 -0.1060 -0.7528 -1.3304
 1604TIP3   OH2 4775   5.461   6.172   2.759 -0.0291 -0.1753 -0.3203
 1604TIP3    H1 4776   5.494   6.236   2.822  0.8689 -0.8970 -0.0333
 1604TIP3    H2 4777   5.431   6.099   2.813  0.0862 -0.5023 -0.6894
 1605TIP3   OH2 4778   2.862   3.157   0.831  0.1401  0.1087  0.0229
 1605TIP3    H1 4779   2.931   3.090   0.826 -0.6415 -0.6467 -0.9263
 1605TIP3    H2 4780   2.872   3.207   0.751 -0.1392  0.2850  0.0986
 1606TIP3   OH2 4781   4.648   5.826   2.262  0.0451  0.7059 -0.0046
 1606TIP3    H1 4782   4.647   5.730   2.269 -2.7622  0.6416  0.0052
 1606TIP3    H2 4783   4.620   5.856   2.348 -3.2424  1.2678 -1.1296
 1607TIP3   OH2 4784   4.088   5.631   5.493 -0.5864  0.0924 -0.2941
 1607TIP3    H1 4785   4.066   5.635   5.400 -1.0504 -0.9778 -0.2466
 1607TIP3    H2 4786   4.030   5.563   5.529  1.0146 -0.9977  0.3574
 1608TIP3   OH2 4787   3.658   2.548   0.675 -1.2191  0.2066  0.2064
 1608TIP3    H1 4788   3.655   2.623   0.733  1.1166 -0.0311  0.7257
 1608TIP3    H2 4789   3.750   2.538   0.653 -1.2685 -3.1400  1.0099
 1609TIP3   OH2 4790   4.246   5.097   2.467 -0.0678 -0.5251 -0.1983
 1609TIP3    H1 4791   4.249   5.139   2.553 -0.4412  0.4568 -0.6594
 1609TIP3    H2 4792   4.262   5.167   2.405 -0.0234 -1.1915 -0.9543
 1610TIP3   OH2 4793   0.107   1.501   3.850  0.1206  0.4570  0.6196
 1610TIP3    H1 4794   0.027   1.504   3.798 -0.0870  0.9773  0.9578
 1610TIP3    H2 4795   0.120   1.592   3.880  2.0534  0.8690 -1.2408
 1611TIP3   OH2 4796   2.342   0.052   2.485 -0.6154  0.0088  0.2687
 1611TIP3    H1 4797   2.318   0.026   2.397  0.5030 -0.8576  0.2030
 1611TIP3    H2 4798   2.376   0.141   2.475 -2.0516  0.5629  0.1039
 1612TIP3   OH2 4799   1.202   5.794   0.233  0.1444  0.5372 -0.3634
 1612TIP3    H1 4800   1.284   5.845   0.231 -0.6090  1.7824 -0.4865
 1612TIP3    H2 4801   1.208   5.737   0.156  0.5288  1.2107 -0.8427
 1613TIP3   OH2 4802   3.072   6.482   5.063  0.2188 -0.0814  0.2311
 1613TIP3    H1 4803   3.066   6.421   5.137  0.6672 -1.7602 -1.0731
 1613TIP3    H2 4804   3.015   6.444   4.996  0.5105  0.9435 -0.6194
 1614TIP3   OH2 4805   1.908   1.001   0.763 -0.5212 -0.4543 -0.2648
 1614TIP3    H1 4806   1.885   1.070   0.824 -1.0816 -1.0737  0.2438
 1614TIP3    H2 4807   1.934   1.046   0.683  0.5825  0.3898  0.5433
 1615TIP3   OH2 4808   2.277   4.678   2.620  0.2542 -0.9445  0.1719
 1615TIP3    H1 4809   2.302   4.723   2.540 -0.6783  1.5222  1.1609
 1615TIP3    H2 4810   2.181   4.685   2.623  0.1985 -1.8362  1.0487
 1616TIP3   OH2 4811   5.132   6.653   0.738 -0.2620 -0.1015 -0.4818
 1616TIP3    H1 4812   5.190   6.688   0.671 -0.3932 -0.8735 -1.0047
 1616TIP3    H2 4813   5.064   6.607   0.689  0.8864 -2.6873  0.1780
 1617TIP3   OH2 4814   3.721   5.268   0.181 -0.1012 -0.5121  0.5648
 1617TIP3    H1 4815   3.667   5.197   0.147 -1.3288  0.0026  1.3499
 1617TIP3    H2 4816   3.790   5.280   0.116  0.1781 -2.4466  0.4425
 1618TIP3   OH2 4817   4.033   0.960   3.612  0.5300  0.0218  0.8004
 1618TIP3    H1 4818   3.961   0.897   3.607  1.0668 -0.5322 -0.4007
 1618TIP3    H2 4819   4.028   1.008   3.529  1.3970  0.1432  0.8129
 1619TIP3   OH2 4820   1.281   5.785   3.246  0.0963  0.3335  0.3875
 1619TIP3    H1 4821   1.212   5.765   3.183 -0.1418  0.0544  0.7316
 1619TIP3    H2 4822   1.282   5.709   3.305  1.9218 -0.5196 -0.6789
 1620TIP3   OH2 4823   4.849   2.809   1.262  0.1342 -0.3113 -0.1974
 1620TIP3    H1 4824   4.897   2.805   1.345  0.4890 -0.1409 -0.3930
 1620TIP3    H2 4825   4.917   2.812   1.195  0.0043  4.0674 -0.3792
 1621TIP3   OH2 4826   5.112   4.736   1.064 -0.3407 -0.9139  0.2125
 1621TIP3    H1 4827   5.078   4.825   1.076 -0.3287 -0.8242 -0.3737
 1621TIP3    H2 4828   5.067   4.703   0.987  1.0289 -0.7111 -0.7236
 1622TIP3   OH2 4829   0.953   2.225   2.505 -0.3598  0.0793  0.0523
 1622TIP3    H1 4830   0.870   2.255   2.542 -0.4308  0.5704 -0.4771
 1622TIP3    H2 4831   0.967   2.283   2.429  1.2873  1.1072  1.0872
 1623TIP3   OH2 4832   4.827   3.066   3.104 -0.0142 -0.0683 -0.0432
 1623TIP3    H1 4833   4.773   3.055   3.026  0.7628  3.4065 -1.2745
 1623TIP3    H2 4834   4.913   3.033   3.079  0.0208  0.2868 -0.4089
 1624TIP3   OH2 4835   2.317   4.269   2.379  0.0204  0.2953  0.3874
 1624TIP3    H1 4836   2.288   4.248   2.468  0.3947 -0.6182  0.3064
 1624TIP3    H2 4837   2.255   4.335   2.349  0.1882  0.9904  1.5031
 1625TIP3   OH2 4838   4.843   2.695   0.310  0.4557  0.5547 -0.4797
 1625TIP3    H1 4839   4.839   2.768   0.248  0.9307  1.6251  0.7121
 1625TIP3    H2 4840   4.754   2.690   0.346  0.2911  0.2065 -0.9223
 1626TIP3   OH2 4841   6.113   3.321   2.743  0.3987 -0.0575 -0.5250
 1626TIP3    H1 4842   6.169   3.320   2.666 -0.2253 -0.3550 -0.9878
 1626TIP3    H2 4843   6.092   3.229   2.759  2.1910 -0.2136  1.2774
 1627TIP3   OH2 4844   7.032   0.115   4.159 -0.2664 -0.4951 -0.5423
 1627TIP3    H1 4845   7.096   0.112   4.230 -0.8036 -0.4555 -0.0475
 1627TIP3    H2 4846   7.022   0.024   4.132 -2.3340 -1.0011  1.5344
 1628TIP3   OH2 4847   3.784   0.391   5.009  0.4982 -0.2030  0.2476
 1628TIP3    H1 4848   3.765   0.310   4.962  0.0797  0.6117 -1.0453
 1628TIP3    H2 4849   3.865   0.373   5.057  0.0472 -1.5865  0.5207
 1629TIP3   OH2 4850   5.542   0.489   3.546 -0.1456 -0.0714  0.3187
 1629TIP3    H1 4851   5.462   0.541   3.552  0.1719  0.4585  0.0970
 1629TIP3    H2 4852   5.558   0.481   3.452  0.6395  0.7508  0.3652
 1630TIP3   OH2 4853   6.280   6.463   1.543  0.1772  0.3244 -0.2263
 1630TIP3    H1 4854   6.189   6.435   1.553  0.4476 -0.5129 -0.0072
 1630TIP3    H2 4855   6.330   6.381   1.544  0.8306  0.6903 -1.4918
 1631TIP3   OH2 4856   5.574   0.533   3.812  0.1467 -0.2194 -0.3414
 1631TIP3    H1 4857   5.518   0.479   3.868 -1.6614 -0.0820 -1.9017
 1631TIP3    H2 4858   5.569   0.491   3.726  0.2904  1.3083 -1.1293
 1632TIP3   OH2 4859   2.057   5.415   0.877 -0.3097  0.4791  0.0792
 1632TIP3    H1 4860   1.996   5.484   0.906 -0.1901  0.1900  1.0433
 1632TIP3    H2 4861   2.095   5.382   0.958 -1.1058 -1.4193 -0.2707
 1633TIP3   OH2 4862   1.329   2.044   3.884 -0.5232 -0.1205  0.4884
 1633TIP3    H1 4863   1.304   2.051   3.792 -0.3861 -0.9628  0.3767
 1633TIP3    H2 4864   1.252   2.006   3.927  0.3926 -2.5280  0.1804
 1634TIP3   OH2 4865   6.186   4.018   1.513 -0.1322 -0.1560  0.4877
 1634TIP3    H1 4866   6.244   4.054   1.446  1.6888 -1.5363  1.2144
 1634TIP3    H2 4867   6.193   3.923   1.502 -1.3860 -0.3725  1.3516
 1635TIP3   OH2 4868   4.930   6.732   4.376  0.1761 -0.4632 -0.3774
 1635TIP3    H1 4869   4.845   6.756   4.411  0.0149 -0.5005 -0.7406
 1635TIP3    H2 4870   4.993   6.779   4.431 -0.1322  0.9545 -1.1817
 1636TIP3   OH2 4871   5.551   4.577   0.300  0.0519  0.3642 -0.1872
 1636TIP3    H1 4872   5.538   4.568   0.206 -0.9145 -0.1162 -0.0190
 1636TIP3    H2 4873   5.465   4.562   0.338  0.7478 -1.2153  0.8952
 1637TIP3   OH2 4874   6.700   6.658   4.969  0.6417 -0.7316 -0.0230
 1637TIP3    H1 4875   6.648   6.721   4.919 -0.6116 -1.2811  0.5399
 1637TIP3    H2 4876   6.779   6.646   4.917 -0.3494 -0.8115 -1.6009
 1638TIP3   OH2 4877   0.026   2.063   5.447 -0.2728  0.2301  0.0120
 1638TIP3    H1 4878   0.070   2.104   5.373 -0.3117  2.7639  1.2779
 1638TIP3    H2 4879  -0.066   2.063   5.423 -0.4958  2.6336  0.6858
 1639TIP3   OH2 4880   5.926   4.096   1.242  0.7169 -0.5818  0.0476
 1639TIP3    H1 4881   5.875   4.018   1.265  0.1210 -0.6172 -1.2908
 1639TIP3    H2 4882   5.906   4.159   1.311  0.2721 -1.2129  0.5087
 1640TIP3   OH2 4883   2.244   5.407   5.474  0.1638 -0.1941 -0.1426
 1640TIP3    H1 4884   2.192   5.428   5.552  1.3769  0.0426  0.6264
 1640TIP3    H2 4885   2.179   5.388   5.406 -1.0557  2.9423 -0.0446
 1641TIP3   OH2 4886   5.904   6.273   3.147 -0.1883  0.0284 -1.0902
 1641TIP3    H1 4887   5.973   6.281   3.082  0.3533  2.1502 -0.3218
 1641TIP3    H2 4888   5.823   6.287   3.098  0.1770  1.0545 -1.4099
 1642TIP3   OH2 4889   1.567   3.530   1.227  0.1151 -0.6121  0.5740
 1642TIP3    H1 4890   1.494   3.552   1.169  1.7771  1.3652 -0.9378
 1642TIP3    H2 4891   1.567   3.599   1.293  0.2189 -0.9967  0.9830
 1643TIP3   OH2 4892   5.081   6.431   3.361  0.7509 -0.2255  0.0889
 1643TIP3    H1 4893   5.172   6.452   3.340  0.6857 -1.0092 -1.0769
 1643TIP3    H2 4894   5.042   6.514   3.388  1.7514  0.1571  0.3908
 1644TIP3   OH2 4895   0.861   2.955   3.623  0.2154  0.5502 -0.1865
 1644TIP3    H1 4896   0.865   3.001   3.707  0.3840 -0.6427  0.4775
 1644TIP3    H2 4897   0.933   2.892   3.627 -0.7006 -0.5484 -0.5983
 1645TIP3   OH2 4898   2.942   5.723   2.117  0.0428  0.5974  0.3054
 1645TIP3    H1 4899   2.979   5.699   2.202 -0.6458  1.4300  0.8658
 1645TIP3    H2 4900   2.956   5.818   2.111 -1.2407  0.8071  0.1917
 1646TIP3   OH2 4901   3.916   2.091   1.480 -0.0482  0.2998  0.1666
 1646TIP3    H1 4902   3.894   2.020   1.541 -0.4928  0.5013  0.2500
 1646TIP3    H2 4903   3.895   2.171   1.528  1.8277  0.5650  0.6227
 1647TIP3   OH2 4904   6.271   0.698   0.705 -0.1175  0.3004 -0.4453
 1647TIP3    H1 4905   6.186   0.740   0.715  0.4512  1.0164  2.0069
 1647TIP3    H2 4906   6.325   0.763   0.660  0.5706  2.1409  2.7313
 1648TIP3   OH2 4907   4.073   5.616   0.789 -0.6249  0.2319 -0.5320
 1648TIP3    H1 4908   4.077   5.557   0.864  0.0198  1.4887  0.4657
 1648TIP3    H2 4909   4.053   5.559   0.715 -2.7510 -0.8708  0.7760
 1649TIP3   OH2 4910   4.750   1.132   5.353  0.4731 -0.3418 -0.4642
 1649TIP3    H1 4911   4.664   1.116   5.313  0.3893  0.5377 -0.6597
 1649TIP3    H2 4912   4.771   1.222   5.328  1.0323 -0.2378  0.3574
 1650TIP3   OH2 4913   1.534   5.474   3.834 -0.0633 -0.6475  0.6850
 1650TIP3    H1 4914   1.568   5.548   3.885  0.6194  0.0245 -0.7113
 1650TIP3    H2 4915   1.611   5.435   3.793 -0.8335  1.1620 -2.8975
 1651TIP3   OH2 4916   7.120   1.570   1.292  0.1614  0.2935  0.3151
 1651TIP3    H1 4917   7.050   1.545   1.232 -0.3747 -0.1644  1.1011
 1651TIP3    H2 4918   7.100   1.660   1.316  0.0709  0.3001  0.2155
 1652TIP3   OH2 4919   5.008   3.591   0.396  0.1310  0.1618  0.3074
 1652TIP3    H1 4920   5.000   3.516   0.338  1.9476  0.9530 -1.0702
 1652TIP3    H2 4921   4.969   3.664   0.348  1.2901  0.7442  0.2047
 1653TIP3   OH2 4922   1.757   6.479   5.464  0.2484 -0.2245 -0.3837
 1653TIP3    H1 4923   1.767   6.552   5.525  1.3226 -0.8958  0.2739
 1653TIP3    H2 4924   1.822   6.497   5.395 -0.2326 -0.0159 -0.7920
 1654TIP3   OH2 4925   2.836   2.134   3.528 -0.3064 -0.0048 -0.3931
 1654TIP3    H1 4926   2.832   2.069   3.458 -1.4619 -0.3045 -0.0629
 1654TIP3    H2 4927   2.927   2.131   3.559 -0.1752 -0.9483 -0.8548
 1655TIP3   OH2 4928   5.314   1.041   0.233  0.0587  0.3761  0.0362
 1655TIP3    H1 4929   5.268   1.062   0.152  1.5410 -1.5274 -1.3836
 1655TIP3    H2 4930   5.313   0.945   0.237  0.2293  0.4038  2.1911
 1656TIP3   OH2 4931   0.190   0.639   1.848 -0.5572 -0.0273 -0.2054
 1656TIP3    H1 4932   0.137   0.598   1.780 -0.5732 -0.3043 -0.0293
 1656TIP3    H2 4933   0.133   0.705   1.886 -1.0219 -0.7900  0.4465
 1657TIP3   OH2 4934   2.809   5.843   3.424 -0.2422  0.1230  0.2731
 1657TIP3    H1 4935   2.785   5.758   3.385 -3.4254  1.3094 -0.6830
 1657TIP3    H2 4936   2.825   5.900   3.348 -1.5412  1.1954  0.7717
 1658TIP3   OH2 4937   5.812   5.968   3.852  0.1222  0.1473  0.2754
 1658TIP3    H1 4938   5.900   5.950   3.819  0.1916 -0.0388  0.5572
 1658TIP3    H2 4939   5.826   5.992   3.944  0.2455  3.4547 -0.4820
 1659TIP3   OH2 4940   4.669   5.410   4.214  0.5303  0.3549  0.7050
 1659TIP3    H1 4941   4.587   5.433   4.172 -0.1544 -2.1949  0.4334
 1659TIP3    H2 4942   4.735   5.465   4.172 -1.0011  2.6067  1.0877
 1660TIP3   OH2 4943   0.305   0.124   0.149  0.1552 -0.6583 -0.0593
 1660TIP3    H1 4944   0.360   0.077   0.212  0.1960 -1.0403 -0.3719
 1660TIP3    H2 4945   0.325   0.217   0.164 -0.2275 -0.7115  0.8408
 1661TIP3   OH2 4946   4.857   5.527   0.116 -0.0984 -0.0361  0.0579
 1661TIP3    H1 4947   4.887   5.603   0.167 -1.7178  0.9125 -0.3088
 1661TIP3    H2 4948   4.929   5.508   0.056  0.3243  1.2922  0.1020
 1662TIP3   OH2 4949   5.517   3.630   4.576 -0.2830 -0.4707 -0.1175
 1662TIP3    H1 4950   5.466   3.703   4.540 -0.8722 -1.8348 -2.1711
 1662TIP3    H2 4951   5.453   3.578   4.624  0.3059  0.7597  2.1766
 1663TIP3   OH2 4952   3.619   0.960   5.294 -0.5612  0.0616 -0.3689
 1663TIP3    H1 4953   3.672   0.998   5.365 -1.1552  0.8997 -0.3643
 1663TIP3    H2 4954   3.530   0.990   5.311 -1.0991 -1.4807 -0.2789
 1664TIP3   OH2 4955   3.597   6.676   4.446 -0.2473 -0.2352 -0.4305
 1664TIP3    H1 4956   3.546   6.599   4.470 -0.8459  0.2500 -0.1288
 1664TIP3    H2 4957   3.608   6.669   4.351 -0.0976 -0.8061 -0.3778
 1665TIP3   OH2 4958   0.394   2.110   4.995  0.4643 -0.4787 -0.0511
 1665TIP3    H1 4959   0.388   2.073   4.907 -0.2752  1.0055 -0.6492
 1665TIP3    H2 4960   0.310   2.090   5.036 -0.5414  1.7028 -0.8950
 1666TIP3   OH2 4961   3.856   3.573   4.283 -0.2211 -0.1005  0.6146
 1666TIP3    H1 4962   3.865   3.657   4.329 -1.2056  0.3686 -0.0173
 1666TIP3    H2 4963   3.918   3.515   4.328  1.8603  1.4267 -0.1079
 1667TIP3   OH2 4964   1.997   1.740   2.214 -0.3172  0.1124 -0.2105
 1667TIP3    H1 4965   1.910   1.778   2.229  0.5703  1.9394  0.6071
 1667TIP3    H2 4966   2.015   1.757   2.121 -0.8218 -0.2936 -0.3892
 1668TIP3   OH2 4967   1.897   2.346   3.633 -0.6216 -0.3175 -0.1779
 1668TIP3    H1 4968   1.816   2.365   3.587  0.0875  1.6224 -0.7204
 1668TIP3    H2 4969   1.933   2.432   3.656  2.5081 -0.9015 -2.1732
 1669TIP3   OH2 4970   4.175   4.478   1.095 -0.4352 -0.2460  0.6704
 1669TIP3    H1 4971   4.158   4.428   1.016 -0.1365  1.3431 -0.4454
 1669TIP3    H2 4972   4.128   4.560   1.083 -0.9668 -0.2432  2.4739
 1670TIP3   OH2 4973   1.883   3.395   2.437 -0.6434 -0.2260 -0.1555
 1670TIP3    H1 4974   1.919   3.319   2.390  1.2165  0.0228  0.7532
 1670TIP3    H2 4975   1.921   3.471   2.393  0.9313  0.0164  1.4942
 1671TIP3   OH2 4976   3.860   1.899   3.847  0.1420  0.2908  0.7294
 1671TIP3    H1 4977   3.800   1.839   3.802 -1.8873  0.9697  2.3807
 1671TIP3    H2 4978   3.938   1.846   3.863 -0.6981 -1.2012  0.1279
 1672TIP3   OH2 4979   3.207   6.234   1.108  0.1112 -0.3011  0.0931
 1672TIP3    H1 4980   3.133   6.174   1.120  0.9215 -1.6038 -1.0439
 1672TIP3    H2 4981   3.251   6.202   1.029  1.7240  0.6086  0.5678
 1673TIP3   OH2 4982   2.915   2.706   4.865  0.6499 -0.2105  0.0331
 1673TIP3    H1 4983   3.005   2.696   4.895  0.5021 -1.4390  0.1149
 1673TIP3    H2 4984   2.923   2.736   4.774  1.1611 -1.0944 -0.2274
 1674TIP3   OH2 4985   4.685   4.330   2.489 -0.0807  0.0032 -0.0702
 1674TIP3    H1 4986   4.601   4.288   2.474 -1.1141  1.8953  0.0858
 1674TIP3    H2 4987   4.665   4.424   2.493  2.0221  0.5085  0.0515
 1675TIP3   OH2 4988   5.139   3.876   4.914 -0.1007  1.1346  0.1507
 1675TIP3    H1 4989   5.116   3.869   5.006  1.0828 -1.6301  0.3561
 1675TIP3    H2 4990   5.227   3.913   4.913 -0.0287  0.9669  0.1629
 1676TIP3   OH2 4991   6.202   3.720   1.204 -0.3114  0.0027  0.0175
 1676TIP3    H1 4992   6.257   3.798   1.203  1.6051 -1.2589 -0.0129
 1676TIP3    H2 4993   6.177   3.708   1.295 -0.7193  0.7121 -0.0006
 1677TIP3   OH2 4994   3.045   3.898   0.410 -0.3410  0.2504 -0.0479
 1677TIP3    H1 4995   2.978   3.956   0.448  0.7567  2.0622 -0.8014
 1677TIP3    H2 4996   3.008   3.871   0.326 -0.0211  1.5142 -0.6143
 1678TIP3   OH2 4997   6.970   5.342   4.397  0.3985 -0.3408  0.6832
 1678TIP3    H1 4998   6.975   5.435   4.375  2.3806  0.7164  4.6210
 1678TIP3    H2 4999   7.061   5.312   4.397 -0.1233 -2.0466  0.4310
 1679TIP3   OH2 5000   2.743   3.119   5.440  0.3265 -0.2775  0.3963
 1679TIP3    H1 5001   2.674   3.127   5.506  1.7933 -0.5656  2.0352
 1679TIP3    H2 5002   2.806   3.188   5.462  0.3249  0.3443 -1.3984
 1680TIP3   OH2 5003   6.234   5.330   5.417  0.3539 -0.2573 -0.0495
 1680TIP3    H1 5004   6.248   5.409   5.469  0.3181 -0.6609  0.5881
 1680TIP3    H2 5005   6.292   5.340   5.341 -0.6119  0.9715 -0.6440
 1681TIP3   OH2 5006   2.577   4.550   0.152 -0.5395 -0.0503  0.0435
 1681TIP3    H1 5007   2.546   4.471   0.108 -0.7704 -0.6254  1.1999
 1681TIP3    H2 5008   2.669   4.533   0.170 -0.1268  0.6814 -1.2665
 1682TIP3   OH2 5009   4.004   6.412   4.733  0.2027  0.4422 -0.0548
 1682TIP3    H1 5010   3.976   6.419   4.825  4.3090  1.2115  1.3629
 1682TIP3    H2 5011   3.950   6.476   4.687 -1.3523  0.7285  2.0249
 1683TIP3   OH2 5012   3.999   5.536   2.185  0.3757  0.2829 -0.3139
 1683TIP3    H1 5013   4.013   5.506   2.274 -0.1448 -0.3621 -0.4386
 1683TIP3    H2 5014   4.017   5.630   2.188  0.0276  0.3297  0.5456
 1684TIP3   OH2 5015   5.423   2.767   0.358 -0.4455 -0.4394  0.9992
 1684TIP3    H1 5016   5.500   2.793   0.408  0.8510 -1.2922 -0.4670
 1684TIP3    H2 5017   5.423   2.826   0.282 -0.6447 -1.0740  0.4942
 1685TIP3   OH2 5018   2.550   4.079   2.095 -0.0611 -0.7688  0.3318
 1685TIP3    H1 5019   2.603   4.000   2.089  1.2586  0.1325 -0.3452
 1685TIP3    H2 5020   2.538   4.107   2.004 -0.1916  0.0228  0.5830
 1686TIP3   OH2 5021   5.791   1.332   1.320  0.3442 -0.1682  0.0064
 1686TIP3    H1 5022   5.759   1.396   1.384  2.1566  0.4792  0.3118
 1686TIP3    H2 5023   5.792   1.379   1.237 -1.5300 -0.8611 -0.4622
 1687TIP3   OH2 5024   3.005   1.266   0.055 -0.2790 -0.2019  0.0408
 1687TIP3    H1 5025   3.081   1.323   0.045  0.3979  0.1671  4.8615
 1687TIP3    H2 5026   3.036   1.179   0.030  1.6811  0.0280  1.4729
 1688TIP3   OH2 5027   5.485   1.566   5.641 -0.3513 -0.0266 -0.4829
 1688TIP3    H1 5028   5.437   1.483   5.645  0.4155 -0.4527  0.0454
 1688TIP3    H2 5029   5.505   1.586   5.733  0.2169  0.3041 -0.6758
 1689TIP3   OH2 5030   3.151   5.590   5.386  0.0255  0.1462  0.4288
 1689TIP3    H1 5031   3.115   5.644   5.315  0.6397  1.0486  0.7808
 1689TIP3    H2 5032   3.230   5.550   5.349 -0.4858 -0.6138  0.1357
 1690TIP3   OH2 5033   2.648   3.653   0.919  0.7597  0.4572 -0.3581
 1690TIP3    H1 5034   2.724   3.693   0.876  1.2970 -0.6951 -0.5310
 1690TIP3    H2 5035   2.685   3.581   0.970 -0.2197 -0.0897 -0.4007
 1691TIP3   OH2 5036   7.008   6.335   5.716  0.3405  0.0303  0.4623
 1691TIP3    H1 5037   6.961   6.289   5.647  0.3118 -0.8280  1.0293
 1691TIP3    H2 5038   6.940   6.363   5.777  0.4001  0.4316  0.3438
 1692TIP3   OH2 5039   5.480   3.649   5.067 -0.2473 -0.0599 -0.1413
 1692TIP3    H1 5040   5.462   3.709   4.995 -0.9233 -0.6623 -0.4913
 1692TIP3    H2 5041   5.563   3.680   5.104 -1.2314  1.9184  0.5795
 1693TIP3   OH2 5042   5.844   0.179   5.789  0.5421 -0.1428 -0.3910
 1693TIP3    H1 5043   5.855   0.172   5.694  1.2385 -1.2952 -0.2422
 1693TIP3    H2 5044   5.783   0.253   5.800  1.3425  0.7592 -1.6680
 1694TIP3   OH2 5045   1.314   2.622   0.250 -0.1208  0.7366 -0.3224
 1694TIP3    H1 5046   1.226   2.585   0.252 -0.8417  2.1236 -2.2643
 1694TIP3    H2 5047   1.371   2.553   0.284 -1.9795 -0.0255  1.4399
 1695TIP3   OH2 5048   7.006   5.720   5.558 -0.2184  0.1352  0.3848
 1695TIP3    H1 5049   6.993   5.625   5.569  0.7000 -0.1661 -0.8635
 1695TIP3    H2 5050   6.978   5.737   5.468  0.5399  0.8664  0.2783
 1696TIP3   OH2 5051   1.266   0.207   0.134  0.2573  0.2267 -0.3345
 1696TIP3    H1 5052   1.298   0.117   0.125 -1.3377 -0.6767  2.0264
 1696TIP3    H2 5053   1.319   0.244   0.206 -0.9143  0.1996  0.5782
 1697TIP3   OH2 5054   6.925   1.740   3.784  0.4144  1.1707 -0.6558
 1697TIP3    H1 5055   6.843   1.781   3.757 -1.1105 -0.5317  1.1666
 1697TIP3    H2 5056   6.905   1.694   3.865  2.9351 -0.1261 -0.6422
 1698TIP3   OH2 5057   1.106   2.579   3.888 -0.3505  0.2933 -0.3685
 1698TIP3    H1 5058   1.027   2.534   3.918 -1.3351  0.4596 -2.4739
 1698TIP3    H2 5059   1.178   2.522   3.913 -1.2395 -0.4572  0.5559
 1699TIP3   OH2 5060   3.820   1.352   2.962  0.0218 -0.1350  0.0402
 1699TIP3    H1 5061   3.848   1.443   2.953 -3.0005  1.1266  1.6783
 1699TIP3    H2 5062   3.794   1.326   2.874  1.7073  0.2395 -0.6056
 1700TIP3   OH2 5063   1.905   4.491   3.533 -0.4034  0.5611 -0.0151
 1700TIP3    H1 5064   1.898   4.542   3.613  2.3573  2.1003 -0.6010
 1700TIP3    H2 5065   1.919   4.556   3.464  2.7684 -0.8132 -0.8633
 1701TIP3   OH2 5066   4.449   4.222   3.529  0.1322  0.1101 -0.2007
 1701TIP3    H1 5067   4.362   4.227   3.490  0.0117 -2.1736 -0.3351
 1701TIP3    H2 5068   4.500   4.171   3.467  0.3407 -2.3435  1.8358
 1702TIP3   OH2 5069   5.032   0.149   2.192 -0.1722  0.4692 -0.1012
 1702TIP3    H1 5070   5.009   0.241   2.205 -0.5311  0.3163  0.3802
 1702TIP3    H2 5071   5.114   0.152   2.143  0.2691  1.0606  0.6414
 1703TIP3   OH2 5072   0.770   5.508   4.400 -0.5379  0.3949  0.5697
 1703TIP3    H1 5073   0.816   5.515   4.316  1.6950  0.4565  1.7513
 1703TIP3    H2 5074   0.816   5.567   4.459 -1.5747 -0.2241  2.0762
 1704TIP3   OH2 5075   3.584   2.903   2.003 -0.3030 -0.5893 -0.0038
 1704TIP3    H1 5076   3.667   2.882   2.047 -0.5053 -1.2090  0.0959
 1704TIP3    H2 5077   3.518   2.860   2.056 -0.7872  0.6604  0.4298
 1705TIP3   OH2 5078   0.795   3.814   0.998 -0.2977  0.7514  0.1847
 1705TIP3    H1 5079   0.837   3.761   0.930 -1.5287 -2.8463  1.9397
 1705TIP3    H2 5080   0.726   3.861   0.952 -0.0510 -0.3091 -1.3539
 1706TIP3   OH2 5081   3.757   6.403   1.978  0.1735 -0.4456 -0.1805
 1706TIP3    H1 5082   3.772   6.485   1.933  0.3349  0.0831  0.8091
 1706TIP3    H2 5083   3.782   6.336   1.915  0.0555  0.2593 -0.9886
 1707TIP3   OH2 5084   4.885   2.920   0.851 -0.0522 -0.1148  0.1845
 1707TIP3    H1 5085   4.801   2.966   0.852  0.1155  0.1953 -0.0569
 1707TIP3    H2 5086   4.930   2.951   0.929  0.2161  0.4236 -0.1780
 1708TIP3   OH2 5087   0.538   3.781   5.165 -0.8120  0.0593 -1.0909
 1708TIP3    H1 5088   0.476   3.819   5.103 -0.3699 -1.1793 -2.3351
 1708TIP3    H2 5089   0.551   3.691   5.135  0.4115 -0.1808  0.0387
 1709TIP3   OH2 5090   5.078   0.747   1.134  0.6961 -0.3889  0.2633
 1709TIP3    H1 5091   5.009   0.812   1.129  0.2817 -0.7495  1.0494
 1709TIP3    H2 5092   5.140   0.783   1.197  0.6720 -0.5631  0.3880
 1710TIP3   OH2 5093   5.734   3.423   3.795 -0.6045 -0.2558  0.1680
 1710TIP3    H1 5094   5.698   3.510   3.781 -1.0652 -0.6557 -1.2272
 1710TIP3    H2 5095   5.670   3.378   3.851 -0.6482  0.1033  0.4070
 1711TIP3   OH2 5096   0.308   6.399   2.833 -0.3550  0.2282 -0.1674
 1711TIP3    H1 5097   0.384   6.449   2.861 -0.2969  1.2053 -1.9297
 1711TIP3    H2 5098   0.335   6.356   2.752 -0.8857 -1.5021  0.5242
 1712TIP3   OH2 5099   4.971   0.291   5.639 -0.0814 -0.2424  0.4729
 1712TIP3    H1 5100   4.996   0.379   5.611 -1.1527  0.2527  1.0073
 1712TIP3    H2 5101   4.877   0.297   5.654 -0.1123 -1.4083  0.7939
 1713TIP3   OH2 5102   6.206   5.814   0.383  0.3142  0.0905  0.0368
 1713TIP3    H1 5103   6.263   5.799   0.459 -0.4493 -0.9586  0.4344
 1713TIP3    H2 5104   6.186   5.726   0.351 -0.7679  0.4501 -0.3170
 1714TIP3   OH2 5105   6.607   2.571   5.645  0.0272  0.4751  0.2185
 1714TIP3    H1 5106   6.603   2.656   5.688  0.5809 -0.1035  1.4983
 1714TIP3    H2 5107   6.701   2.551   5.642  0.1628  1.1953 -2.7970
 1715TIP3   OH2 5108   6.764   0.503   3.653 -0.1147 -0.0310  0.3541
 1715TIP3    H1 5109   6.823   0.492   3.727 -0.9499 -0.7041  0.9336
 1715TIP3    H2 5110   6.778   0.425   3.599  1.1686  0.8868 -0.7165
 1716TIP3   OH2 5111   0.592   0.068   2.983  0.0599  0.1490  0.1818
 1716TIP3    H1 5112   0.593  -0.019   3.022  3.0977 -0.2081 -0.3926
 1716TIP3    H2 5113   0.666   0.067   2.921 -2.0827  1.9315 -2.6985
 1717TIP3   OH2 5114   3.591   0.015   5.103  0.0924 -0.2827 -0.3521
 1717TIP3    H1 5115   3.619   0.077   5.171  0.7490 -0.5387 -0.3895
 1717TIP3    H2 5116   3.520   0.061   5.058  0.5314  0.4249 -0.3395
 1718TIP3   OH2 5117   5.021   3.269   0.357 -0.3607  0.0595 -0.0910
 1718TIP3    H1 5118   5.020   3.333   0.286 -0.4497  0.4392  0.2481
 1718TIP3    H2 5119   4.929   3.255   0.379 -0.3116  0.3999  0.3505
 1719TIP3   OH2 5120   3.846   6.082   3.395  0.8196 -0.1199 -0.6857
 1719TIP3    H1 5121   3.891   6.011   3.441  2.2003  1.7117  0.9755
 1719TIP3    H2 5122   3.755   6.053   3.390  0.9717 -1.2237  1.6293
 1720TIP3   OH2 5123   3.507   0.712   2.847 -0.0981 -0.4988  0.1426
 1720TIP3    H1 5124   3.456   0.764   2.786  0.0218  0.0437  0.4987
 1720TIP3    H2 5125   3.471   0.733   2.933 -0.3908 -1.3943  0.2525
 1721TIP3   OH2 5126   6.468   0.569   1.114 -0.2287  0.1687 -0.6076
 1721TIP3    H1 5127   6.486   0.514   1.190 -1.1267  0.4799 -0.1570
 1721TIP3    H2 5128   6.547   0.563   1.061 -0.1572 -1.2581 -0.3925
 1722TIP3   OH2 5129   6.481   6.667   5.201 -0.5301 -0.0723  0.6050
 1722TIP3    H1 5130   6.463   6.589   5.254  1.5007 -0.6929  0.4898
 1722TIP3    H2 5131   6.526   6.633   5.123 -1.1713  1.0671 -0.2957
 1723TIP3   OH2 5132   2.274   5.444   3.873  0.6297  0.4432 -0.2240
 1723TIP3    H1 5133   2.279   5.481   3.961 -0.6461  0.5266 -0.1698
 1723TIP3    H2 5134   2.217   5.505   3.824 -1.2222 -1.2003 -0.2300
 1724TIP3   OH2 5135   0.107   4.334   1.153 -0.5442 -0.6203 -0.9906
 1724TIP3    H1 5136   0.187   4.355   1.201 -1.0859  2.0938 -1.0974
 1724TIP3    H2 5137   0.133   4.337   1.060 -0.1997 -2.6335 -0.9982
 1725TIP3   OH2 5138   6.910   2.460   3.500 -0.3081 -0.1445  0.0367
 1725TIP3    H1 5139   6.968   2.504   3.562  0.2997 -0.5275 -0.2462
 1725TIP3    H2 5140   6.969   2.415   3.439 -0.8820  0.3572 -0.9242
 1726TIP3   OH2 5141   5.271   0.999   1.613  0.8399 -0.0270 -0.8520
 1726TIP3    H1 5142   5.345   0.939   1.612  0.0080 -1.1204 -0.0188
 1726TIP3    H2 5143   5.289   1.059   1.685  2.9993  2.5719 -3.3407
 1727TIP3   OH2 5144   5.724   4.744   3.375 -0.5133  0.2973 -0.0081
 1727TIP3    H1 5145   5.807   4.749   3.423 -0.4538  1.9858 -0.2295
 1727TIP3    H2 5146   5.749   4.717   3.287  0.0346  2.1976 -0.4904
 1728TIP3   OH2 5147   6.203   2.469   4.610 -0.4158 -0.0493 -0.0708
 1728TIP3    H1 5148   6.292   2.502   4.606 -0.8134  1.1221  0.3888
 1728TIP3    H2 5149   6.193   2.436   4.699 -0.6632  0.5004  0.1107
 1729TIP3   OH2 5150   4.732   5.162   2.113 -0.0577  0.1827  0.1105
 1729TIP3    H1 5151   4.648   5.143   2.154 -0.4665  2.6013  0.5109
 1729TIP3    H2 5152   4.735   5.257   2.105  1.9259  0.0711 -1.4549
 1730TIP3   OH2 5153   2.847   3.757   2.371 -0.3370 -0.0357 -0.1187
 1730TIP3    H1 5154   2.938   3.787   2.381 -0.2540 -0.9041  2.2346
 1730TIP3    H2 5155   2.851   3.697   2.296  1.2182 -0.7304  0.4774
 1731TIP3   OH2 5156   5.785   1.920   5.383 -0.0998 -0.0742  0.4416
 1731TIP3    H1 5157   5.747   1.844   5.339 -0.3909  0.4895 -0.3166
 1731TIP3    H2 5158   5.777   1.901   5.477  1.8721 -1.9604  0.2987
 1732TIP3   OH2 5159   6.115   6.202   2.465 -0.5300  0.6402 -0.3250
 1732TIP3    H1 5160   6.171   6.278   2.483  1.1642 -0.7841  0.7215
 1732TIP3    H2 5161   6.114   6.195   2.370 -2.1676  2.9525 -0.5656
 1733TIP3   OH2 5162   1.565   1.057   0.954 -0.1207 -0.3129 -0.3308
 1733TIP3    H1 5163   1.584   1.002   1.029  0.5339  0.2100 -0.1028
 1733TIP3    H2 5164   1.554   0.996   0.881  1.3935 -0.7234 -0.2547
 1734TIP3   OH2 5165   5.801   4.920   2.547 -0.3316 -0.2950  0.0845
 1734TIP3    H1 5166   5.725   4.966   2.583  0.5958  0.9290  0.5258
 1734TIP3    H2 5167   5.804   4.948   2.456 -0.6654 -0.7001 -0.0542
 1735TIP3   OH2 5168   0.761   2.696   5.434  0.0831 -0.1852  0.2722
 1735TIP3    H1 5169   0.844   2.731   5.404  0.1441  0.1024  0.7790
 1735TIP3    H2 5170   0.730   2.642   5.361  1.3629 -1.4100  0.5852
 1736TIP3   OH2 5171   2.742   6.767   0.956 -0.6627 -0.1069 -0.2681
 1736TIP3    H1 5172   2.692   6.688   0.935 -2.9810  1.4875 -1.2449
 1736TIP3    H2 5173   2.679   6.823   1.002  1.5670  0.3519  2.5234
 1737TIP3   OH2 5174   1.216   3.735   5.304 -0.2541  0.2104  0.2228
 1737TIP3    H1 5175   1.147   3.797   5.327  0.2299  1.5141 -1.5851
 1737TIP3    H2 5176   1.207   3.724   5.209 -0.1109 -2.2765  0.4518
 1738TIP3   OH2 5177   1.531   3.738   5.797 -0.5969 -0.2930  0.2987
 1738TIP3    H1 5178   1.527   3.698   5.884  0.1039 -2.7193 -0.6946
 1738TIP3    H2 5179   1.561   3.827   5.813 -0.1454 -0.7739  2.5054
 1739TIP3   OH2 5180   3.300   1.816   2.956  0.2105 -0.2947  0.7346
 1739TIP3    H1 5181   3.239   1.748   2.928  0.6277 -0.6375  0.6379
 1739TIP3    H2 5182   3.312   1.801   3.050  1.7310 -1.5546  0.3952
 1740TIP3   OH2 5183   5.851   3.136   3.993 -0.1045  0.4257  0.7322
 1740TIP3    H1 5184   5.761   3.108   4.010 -0.4433 -0.3132 -1.7813
 1740TIP3    H2 5185   5.859   3.220   4.038 -1.9235  0.3434  1.3200
 1741TIP3   OH2 5186   2.309   6.230   5.227  0.6057  0.3352 -0.5693
 1741TIP3    H1 5187   2.283   6.138   5.237  0.7380  0.2427 -1.0426
 1741TIP3    H2 5188   2.296   6.268   5.313 -0.8272  0.2303 -0.7228
 1742TIP3   OH2 5189   4.170   3.269   1.340  0.1988  0.6781  0.3830
 1742TIP3    H1 5190   4.092   3.297   1.293  1.0563 -0.4076 -1.8064
 1742TIP3    H2 5191   4.225   3.347   1.345  0.8005  0.4893 -2.0058
 1743TIP3   OH2 5192   0.135   4.673   0.971  0.2454 -0.3557  0.1727
 1743TIP3    H1 5193   0.226   4.647   0.985  0.8382  1.1727 -0.6542
 1743TIP3    H2 5194   0.102   4.692   1.059  1.2755  0.7618  0.3472
 1744TIP3   OH2 5195   3.128   0.455   4.238  0.1440 -0.1223  0.3809
 1744TIP3    H1 5196   3.221   0.433   4.241  0.4474  0.5965 -1.8082
 1744TIP3    H2 5197   3.120   0.536   4.288  0.1731 -1.5367  2.8187
 1745TIP3   OH2 5198   0.479   2.034   1.742 -0.2225  0.4285  0.1797
 1745TIP3    H1 5199   0.430   1.967   1.789 -0.6682  1.2364  0.8822
 1745TIP3    H2 5200   0.566   1.995   1.729 -1.6059 -2.0080 -3.1694
 1746TIP3   OH2 5201   3.017   6.589   0.920  0.0899 -0.5743 -0.1135
 1746TIP3    H1 5202   3.014   6.679   0.888  2.1557 -0.5571 -0.4395
 1746TIP3    H2 5203   3.043   6.597   1.011 -0.9694 -0.8143  0.2194
 1747TIP3   OH2 5204   3.960   2.170   4.224 -0.3747  0.4744 -0.7478
 1747TIP3    H1 5205   3.879   2.122   4.239  1.0996 -1.9287  0.0457
 1747TIP3    H2 5206   3.989   2.142   4.137  0.9749 -0.9423  0.0999
 1748TIP3   OH2 5207   6.708   0.869   2.614  0.1144 -0.0288 -0.2609
 1748TIP3    H1 5208   6.788   0.822   2.637 -0.0545 -0.5562 -0.7301
 1748TIP3    H2 5209   6.687   0.839   2.525 -0.1670  0.7013 -0.4507
 1749TIP3   OH2 5210   1.027   1.720   1.325  0.1566 -0.2458  0.6554
 1749TIP3    H1 5211   1.121   1.705   1.317  0.3956  0.9465  0.9851
 1749TIP3    H2 5212   1.020   1.795   1.385 -0.8739  1.4735 -1.4456
 1750TIP3   OH2 5213   5.787   5.494   4.414  0.1307  0.6938  0.5265
 1750TIP3    H1 5214   5.742   5.440   4.480 -1.0907 -0.0306 -0.8444
 1750TIP3    H2 5215   5.719   5.553   4.382  0.0379 -0.5825 -1.7767
 1751TIP3   OH2 5216   2.349   2.570   0.484  0.2352  0.5031 -0.0589
 1751TIP3    H1 5217   2.310   2.657   0.483 -0.9782 -0.0231 -0.6744
 1751TIP3    H2 5218   2.292   2.519   0.540  0.5782 -0.0588 -0.2141
 1752TIP3   OH2 5219   2.056   3.382   3.260 -0.4321 -0.5164  0.4580
 1752TIP3    H1 5220   2.037   3.469   3.224 -3.2087 -1.0034  0.5570
 1752TIP3    H2 5221   2.087   3.399   3.349 -2.4584  0.4030  1.0553
 1753TIP3   OH2 5222   5.443   2.775   2.180 -0.1016  0.2176  0.1072
 1753TIP3    H1 5223   5.392   2.854   2.159 -0.7486 -0.0632  0.6166
 1753TIP3    H2 5224   5.415   2.711   2.115  0.2534  0.3268 -0.1596
 1754TIP3   OH2 5225   1.265   0.675   0.800 -0.0917  0.2182 -0.4272
 1754TIP3    H1 5226   1.298   0.646   0.715 -0.6760  0.7392 -0.8430
 1754TIP3    H2 5227   1.170   0.662   0.794 -0.2308  1.0753 -0.1764
 1755TIP3   OH2 5228   6.997   0.293   1.243  0.7401  0.2859 -0.1815
 1755TIP3    H1 5229   6.990   0.374   1.194  0.4918  1.5495  1.8081
 1755TIP3    H2 5230   6.968   0.225   1.182 -1.6839  2.0096 -1.0954
 1756TIP3   OH2 5231   3.978   2.135   3.950  0.0831 -0.7133 -0.4454
 1756TIP3    H1 5232   4.070   2.150   3.927 -0.2880 -0.9407 -2.1827
 1756TIP3    H2 5233   3.946   2.073   3.884 -1.7628  0.6213 -0.8761
 1757TIP3   OH2 5234   4.162   4.851   4.711 -0.3525 -0.2332  0.2316
 1757TIP3    H1 5235   4.180   4.915   4.780 -0.7739  1.0725 -0.8340
 1757TIP3    H2 5236   4.193   4.768   4.747 -0.1889  0.4861  1.8244
 1758TIP3   OH2 5237   5.786   1.910   1.611  0.0072 -0.0753 -0.8272
 1758TIP3    H1 5238   5.693   1.919   1.635 -0.5742  0.1572 -2.9755
 1758TIP3    H2 5239   5.791   1.828   1.562  1.4291 -1.2755  1.1549
 1759TIP3   OH2 5240   3.241   3.764   0.899 -0.2433  0.1326  0.5916
 1759TIP3    H1 5241   3.163   3.810   0.868  0.2089  0.1223 -0.6085
 1759TIP3    H2 5242   3.279   3.824   0.964 -0.7174  0.5794  0.4665
 1760TIP3   OH2 5243   0.783   0.858   0.187 -0.2127 -0.1945 -0.6049
 1760TIP3    H1 5244   0.823   0.883   0.271 -2.4154 -0.4833  0.5976
 1760TIP3    H2 5245   0.838   0.901   0.121  1.2115  0.5797  0.9984
 1761TIP3   OH2 5246   7.184   5.475   5.387 -0.5650  0.1087 -0.0535
 1761TIP3    H1 5247   7.105   5.473   5.441 -0.9069 -0.0532 -0.5615
 1761TIP3    H2 5248   7.154   5.499   5.300 -0.0978 -0.2924 -0.3291
 1762TIP3   OH2 5249   5.007   2.483   2.426 -0.0530 -0.3020  0.6675
 1762TIP3    H1 5250   5.041   2.546   2.363  0.8367 -0.5887  0.8504
 1762TIP3    H2 5251   5.047   2.508   2.509 -0.3032 -0.6368  0.8911
 1763TIP3   OH2 5252   6.618   5.880   0.031 -0.2792  0.1205  0.3333
 1763TIP3    H1 5253   6.592   5.933   0.107 -0.8158  0.8034 -0.3119
 1763TIP3    H2 5254   6.540   5.878  -0.024  0.9658  2.2136 -1.6637
 1764TIP3   OH2 5255   3.190   3.787   2.573  0.2393  0.1190 -0.1672
 1764TIP3    H1 5256   3.187   3.692   2.563 -1.6307 -0.1346  1.9515
 1764TIP3    H2 5257   3.166   3.821   2.486  1.2119 -1.3105 -1.0278
 1765TIP3   OH2 5258   2.646   4.985   1.131 -0.0626 -0.1231 -0.6545
 1765TIP3    H1 5259   2.674   4.937   1.054  2.3480 -1.8034  1.1146
 1765TIP3    H2 5260   2.718   5.046   1.149 -0.7439  0.4977  0.0686
 1766TIP3   OH2 5261   6.061   6.675   1.887 -0.4232 -0.0480 -0.1229
 1766TIP3    H1 5262   5.996   6.727   1.933 -0.3348  0.4795 -0.5813
 1766TIP3    H2 5263   6.145   6.707   1.920 -0.3699  0.0877 -0.3848
 1767TIP3   OH2 5264   7.099   2.601   3.657 -0.0906 -0.2486  0.3290
 1767TIP3    H1 5265   7.161   2.654   3.707 -0.5317  0.3263  0.2868
 1767TIP3    H2 5266   7.153   2.546   3.601  0.4001 -0.5281  1.0605
 1768TIP3   OH2 5267   6.454   3.635   1.367  0.0420 -0.9390  0.2595
 1768TIP3    H1 5268   6.549   3.628   1.377  0.4003  1.0817 -1.1597
 1768TIP3    H2 5269   6.437   3.611   1.276 -0.6546 -0.1945  0.1779
 1769TIP3   OH2 5270   4.870   1.931   2.465 -0.1136 -0.3185 -0.3974
 1769TIP3    H1 5271   4.878   1.869   2.537  0.1793 -0.0189 -0.1678
 1769TIP3    H2 5272   4.928   2.004   2.489  0.4814 -0.4951 -1.2320
 1770TIP3   OH2 5273   3.599   0.803   3.412  0.2805 -0.4442  0.0191
 1770TIP3    H1 5274   3.543   0.854   3.470 -1.0510 -0.8488 -0.8641
 1770TIP3    H2 5275   3.601   0.852   3.330 -1.3895 -1.9583 -0.9966
 1771TIP3   OH2 5276   1.348   1.235   5.601  0.1155 -0.1097  0.2444
 1771TIP3    H1 5277   1.370   1.328   5.598 -0.4489  0.0514  0.8111
 1771TIP3    H2 5278   1.260   1.233   5.640  0.8560 -0.9896  1.9877
 1772TIP3   OH2 5279   0.380   4.714   1.518  0.1027 -0.2720  0.0377
 1772TIP3    H1 5280   0.439   4.655   1.565  0.0166  1.2616  2.2153
 1772TIP3    H2 5281   0.437   4.780   1.480  0.0434 -0.7194 -0.8538
 1773TIP3   OH2 5282   5.725   3.795   0.074  0.8605  0.3476  0.1826
 1773TIP3    H1 5283   5.647   3.753   0.113 -0.5077  3.4312  1.0532
 1773TIP3    H2 5284   5.742   3.744  -0.005 -0.5432 -1.9134  1.2252
 1774TIP3   OH2 5285   0.731   2.881   1.918  0.0663 -0.8136 -0.3314
 1774TIP3    H1 5286   0.667   2.949   1.896  0.0977 -0.9733 -0.9471
 1774TIP3    H2 5287   0.690   2.832   1.989 -0.2382 -0.5471 -0.3187
 1775TIP3   OH2 5288   2.236   5.130   2.576  0.0876 -0.2513  0.1148
 1775TIP3    H1 5289   2.198   5.218   2.582 -0.0995  0.0358 -3.3019
 1775TIP3    H2 5290   2.330   5.145   2.570  0.1269 -0.3601  0.4484
 1776TIP3   OH2 5291   6.893   3.300   1.910 -0.0301  0.0565  0.3294
 1776TIP3    H1 5292   6.811   3.303   1.860 -0.0886  0.3398  0.4441
 1776TIP3    H2 5293   6.927   3.212   1.893  0.4201  0.4490 -0.9692
 1777TIP3   OH2 5294   5.549   3.552   5.663  0.0249 -0.6354 -0.1062
 1777TIP3    H1 5295   5.509   3.474   5.700 -1.9896  0.8047  0.8780
 1777TIP3    H2 5296   5.551   3.535   5.568 -0.4154 -1.8366  0.0849
 1778TIP3   OH2 5297   6.340   2.568   0.161  0.0404  0.5016 -0.7064
 1778TIP3    H1 5298   6.267   2.630   0.163 -1.0848 -0.8142  0.4066
 1778TIP3    H2 5299   6.418   2.624   0.155 -0.9775  1.9726 -0.7940
 1779TIP3   OH2 5300   4.239   3.303   4.453 -0.0381 -0.0963 -0.0690
 1779TIP3    H1 5301   4.264   3.281   4.542  0.9855 -1.0648 -0.5654
 1779TIP3    H2 5302   4.282   3.387   4.435  1.6656 -0.9914 -0.3829
 1780TIP3   OH2 5303   1.880   0.028   3.208 -0.2731 -0.0184 -0.3156
 1780TIP3    H1 5304   1.825   0.103   3.231  0.9278  0.7850  0.0835
 1780TIP3    H2 5305   1.844  -0.005   3.126 -1.6950  0.0969  0.2348
 1781TIP3   OH2 5306   0.715   3.860   1.518 -0.7379 -0.2985  0.3968
 1781TIP3    H1 5307   0.727   3.870   1.423 -1.6967  1.0818  0.4067
 1781TIP3    H2 5308   0.642   3.800   1.527 -0.2120 -0.9725  0.2856
 1782TIP3   OH2 5309   5.317   3.422   4.084  0.4179  0.7040 -0.7010
 1782TIP3    H1 5310   5.268   3.453   4.160  1.5363  1.1351 -0.1450
 1782TIP3    H2 5311   5.264   3.451   4.009  1.6747  4.6923 -0.2878
 1783TIP3   OH2 5312   0.390   1.752   4.282  0.5476  0.2238  0.2084
 1783TIP3    H1 5313   0.338   1.830   4.300  0.2756  0.5200 -1.7117
 1783TIP3    H2 5314   0.326   1.687   4.253  0.5255 -1.3318  3.2680
 1784TIP3   OH2 5315   3.725   1.930   4.535  0.3226 -0.4215 -0.3180
 1784TIP3    H1 5316   3.693   1.850   4.494 -0.3670  0.1172 -0.8717
 1784TIP3    H2 5317   3.804   1.904   4.582  0.5320 -1.2705 -1.1168
 1785TIP3   OH2 5318   4.258   2.536   2.445  0.0289  0.1197  0.2672
 1785TIP3    H1 5319   4.221   2.494   2.368  0.1854  0.6962 -0.1331
 1785TIP3    H2 5320   4.242   2.474   2.517  1.1928 -1.1069 -0.4815
 1786TIP3   OH2 5321   0.373   4.702   0.037  0.5314  0.3743 -0.2470
 1786TIP3    H1 5322   0.400   4.678   0.125  1.7219  0.5088 -0.5463
 1786TIP3    H2 5323   0.454   4.731  -0.005 -0.3059  1.9813 -0.8447
 1787TIP3   OH2 5324   1.584   4.518   4.286  0.6540  0.5634  0.0085
 1787TIP3    H1 5325   1.590   4.473   4.370  1.2649  1.6864  0.5960
 1787TIP3    H2 5326   1.613   4.454   4.221 -0.4639 -0.5304  0.5645
 1788TIP3   OH2 5327   4.041   3.275   5.080  0.6243 -0.3253  0.1621
 1788TIP3    H1 5328   3.964   3.327   5.100 -0.0911 -0.3720 -2.1254
 1788TIP3    H2 5329   4.012   3.184   5.091  1.0507 -0.3040  1.5085
 1789TIP3   OH2 5330   6.748   3.091   1.553  0.1525  0.5723  0.3371
 1789TIP3    H1 5331   6.686   3.065   1.485 -0.2020 -1.0434  1.2175
 1789TIP3    H2 5332   6.722   3.181   1.575 -0.8185  0.5126 -0.4562
 1790TIP3   OH2 5333   6.135   3.561   0.317 -0.2572 -0.0100  0.2995
 1790TIP3    H1 5334   6.058   3.534   0.366 -0.4366 -0.3220 -0.1534
 1790TIP3    H2 5335   6.117   3.536   0.226  0.2189  0.2443  0.1276
 1791TIP3   OH2 5336   4.956   4.846   2.560 -0.2320  0.0349  0.2708
 1791TIP3    H1 5337   4.913   4.825   2.643 -0.1158 -0.7486  0.1363
 1791TIP3    H2 5338   5.001   4.765   2.534 -0.3694  0.2273 -0.6149
 1792TIP3   OH2 5339   0.879   1.941   4.041 -0.6538 -0.7075 -0.0138
 1792TIP3    H1 5340   0.833   1.858   4.027 -0.8819 -1.3797  3.7705
 1792TIP3    H2 5341   0.809   2.005   4.051 -0.5224 -0.4507 -0.6547
 1793TIP3   OH2 5342   7.078   5.423   1.072 -0.0871 -0.2773  0.1453
 1793TIP3    H1 5343   6.985   5.408   1.089 -0.0979  0.2706  0.5787
 1793TIP3    H2 5344   7.115   5.450   1.156  0.4286 -0.2913 -0.0677
 1794TIP3   OH2 5345   0.172   3.241   4.396  0.6055 -0.0515  0.2231
 1794TIP3    H1 5346   0.094   3.191   4.371  1.3308 -1.8932  1.3956
 1794TIP3    H2 5347   0.145   3.333   4.390 -1.5513 -0.6243  0.3263
 1795TIP3   OH2 5348   4.752   3.888   3.595 -0.1493  0.3969 -0.2395
 1795TIP3    H1 5349   4.706   3.828   3.536 -0.7544  0.6703 -0.0536
 1795TIP3    H2 5350   4.684   3.946   3.628  0.1596  0.2104  0.7753
 1796TIP3   OH2 5351   2.649   1.238   0.299 -0.3485 -0.4772  0.4531
 1796TIP3    H1 5352   2.732   1.281   0.281 -0.9491  0.1851 -0.8324
 1796TIP3    H2 5353   2.642   1.170   0.232 -1.8395  0.9305 -0.9065
 1797TIP3   OH2 5354   4.960   6.084   3.816 -0.1519  1.0028  0.1574
 1797TIP3    H1 5355   5.051   6.059   3.798 -0.0720  1.3317  0.1149
 1797TIP3    H2 5356   4.912   6.001   3.813  0.4123  0.5815  1.8318
 1798TIP3   OH2 5357   2.269   6.064   5.638  0.7213 -0.1852 -0.0424
 1798TIP3    H1 5358   2.309   6.064   5.725  1.7215  0.3990 -0.4820
 1798TIP3    H2 5359   2.238   5.974   5.626  0.9587 -0.3802  0.7474
 1799TIP3   OH2 5360   2.690   2.558   4.152 -0.2852  0.1022  0.2523
 1799TIP3    H1 5361   2.663   2.534   4.241 -1.0755  2.7140  0.7922
 1799TIP3    H2 5362   2.646   2.641   4.136  0.2657 -0.0608 -2.4207
 1800TIP3   OH2 5363   0.609   3.577   0.344  0.6651  0.0699  0.4408
 1800TIP3    H1 5364   0.656   3.516   0.400 -1.8896 -3.3616 -0.8140
 1800TIP3    H2 5365   0.521   3.540   0.336 -0.4857  2.8865 -2.0883
 1801TIP3   OH2 5366   4.220   3.235   3.708  0.1978  0.2108  1.0104
 1801TIP3    H1 5367   4.137   3.269   3.674  0.2529 -1.0248 -0.3963
 1801TIP3    H2 5368   4.271   3.314   3.729  0.5728  1.1506 -2.7742
 1802TIP3   OH2 5369   6.306   4.583   5.323  0.6517 -0.2606  0.0989
 1802TIP3    H1 5370   6.295   4.488   5.330 -2.1558 -0.1413 -1.1391
 1802TIP3    H2 5371   6.283   4.616   5.409 -0.7979 -0.6279 -0.1121
 1803TIP3   OH2 5372   1.425   0.338   5.315  0.1577  0.3822 -0.2184
 1803TIP3    H1 5373   1.491   0.283   5.273 -0.1124  0.8288 -1.2535
 1803TIP3    H2 5374   1.393   0.396   5.246 -1.7716 -0.2412  0.0638
 1804TIP3   OH2 5375   4.881   3.590   5.674  0.1956 -0.1851 -0.7389
 1804TIP3    H1 5376   4.826   3.539   5.733  1.2428 -0.0360  0.3890
 1804TIP3    H2 5377   4.841   3.677   5.674  0.1557 -0.2026 -0.2962
 1805TIP3   OH2 5378   2.551   0.779   3.652  0.4901 -0.1919  0.3527
 1805TIP3    H1 5379   2.530   0.779   3.745  1.4261 -0.7757  0.5806
 1805TIP3    H2 5380   2.575   0.689   3.633 -1.0641 -0.4011 -0.7998
 1806TIP3   OH2 5381   4.367   5.989   4.866  0.2760 -0.0681  0.0029
 1806TIP3    H1 5382   4.310   5.941   4.925  2.7135 -4.1961 -0.6400
 1806TIP3    H2 5383   4.349   5.953   4.779  0.9802  1.5425 -0.8611
 1807TIP3   OH2 5384   1.558   6.264   0.501 -0.5719  0.3274 -0.4236
 1807TIP3    H1 5385   1.530   6.190   0.555  0.1428 -0.4263 -1.0686
 1807TIP3    H2 5386   1.510   6.253   0.419 -0.6492  0.7328 -0.4379
 1808TIP3   OH2 5387   0.364   5.482   0.883 -0.6415 -0.0287 -0.3740
 1808TIP3    H1 5388   0.345   5.562   0.834 -0.7768 -0.2430 -0.6763
 1808TIP3    H2 5389   0.443   5.502   0.933  0.5821 -0.3861 -2.0532
 1809TIP3   OH2 5390   2.206   6.463   2.018  0.2988 -0.7110 -0.1674
 1809TIP3    H1 5391   2.126   6.503   2.050  0.5328 -0.3774  0.0071
 1809TIP3    H2 5392   2.247   6.531   1.964 -0.4657 -1.5062 -1.8165
 1810TIP3   OH2 5393   1.346   0.487   5.113 -0.0604 -0.4336  0.0596
 1810TIP3    H1 5394   1.261   0.527   5.097 -0.0519 -0.6062 -0.4344
 1810TIP3    H2 5395   1.360   0.429   5.038  0.6305 -0.1780 -0.0131
 1811TIP3   OH2 5396   5.558   1.275   2.727 -0.1278  0.0347 -0.0069
 1811TIP3    H1 5397   5.643   1.265   2.769 -0.1424 -1.5670 -0.2949
 1811TIP3    H2 5398   5.508   1.199   2.756 -1.5210  1.0094  0.2618
 1812TIP3   OH2 5399   1.521   6.805   5.387 -0.1165  0.5746  0.4614
 1812TIP3    H1 5400   1.543   6.757   5.466  0.9380  1.7144  0.8913
 1812TIP3    H2 5401   1.426   6.805   5.384 -0.1897 -2.3995 -0.1279
 1813TIP3   OH2 5402   2.841   0.476   1.850 -0.0019 -0.2841  0.4108
 1813TIP3    H1 5403   2.897   0.518   1.785 -1.4555  0.2274 -0.5369
 1813TIP3    H2 5404   2.902   0.447   1.918  1.3400  0.8642 -0.2524
 1814TIP3   OH2 5405   4.894   5.871   4.592  0.1131 -0.4702  1.1049
 1814TIP3    H1 5406   4.987   5.893   4.587 -0.0906  0.2119 -0.1377
 1814TIP3    H2 5407   4.863   5.915   4.671  1.0560 -1.5980  2.1355
 1815TIP3   OH2 5408   6.579   2.433   1.444  0.3558 -0.6532 -0.0444
 1815TIP3    H1 5409   6.529   2.386   1.511  0.2418 -0.2040  0.1860
 1815TIP3    H2 5410   6.668   2.401   1.455 -0.1325 -2.7383 -1.5637
 1816TIP3   OH2 5411   0.708   4.603   4.744  0.1648 -0.4773  0.0976
 1816TIP3    H1 5412   0.632   4.613   4.801 -0.7150 -2.0632 -0.7385
 1816TIP3    H2 5413   0.770   4.551   4.796 -0.4812 -1.5910 -0.2152
 1817TIP3   OH2 5414   4.613   3.645   2.933  0.3102  0.1417 -0.2076
 1817TIP3    H1 5415   4.622   3.695   2.852  1.6653  0.4753  0.1296
 1817TIP3    H2 5416   4.538   3.685   2.977  1.3254  1.8904  0.0302
 1818TIP3   OH2 5417   4.686   1.977   1.680  0.5337 -0.3645  0.5497
 1818TIP3    H1 5418   4.705   1.892   1.721 -1.1553  0.1445  2.5978
 1818TIP3    H2 5419   4.721   2.041   1.742  0.9947  0.4547 -0.5377
 1819TIP3   OH2 5420   7.153   6.319   4.140 -0.1926 -0.6412 -0.1523
 1819TIP3    H1 5421   7.095   6.355   4.073 -2.2585 -1.8707  0.9028
 1819TIP3    H2 5422   7.186   6.238   4.102  0.4717 -0.2048 -0.5402
 1820TIP3   OH2 5423   0.856   4.900   4.789 -0.6174  0.0116  0.1376
 1820TIP3    H1 5424   0.780   4.936   4.743  0.0140  0.0514 -0.8849
 1820TIP3    H2 5425   0.886   4.973   4.844 -0.7247  0.3111 -0.1922
 1821TIP3   OH2 5426   6.201   4.862   2.021  0.2205 -0.1080 -0.3647
 1821TIP3    H1 5427   6.179   4.944   1.977  3.2483 -0.1187 -2.1636
 1821TIP3    H2 5428   6.269   4.823   1.967  0.7150 -2.5722  1.8208
 1822TIP3   OH2 5429   0.116   2.306   4.428  0.2527 -1.0155 -0.0650
 1822TIP3    H1 5430   0.042   2.331   4.484 -0.2870 -1.8897 -0.3712
 1822TIP3    H2 5431   0.102   2.356   4.347  0.4038 -0.6229  0.1483
 1823TIP3   OH2 5432   1.464   4.330   2.016 -0.0003 -0.5526  0.2207
 1823TIP3    H1 5433   1.379   4.288   2.031 -0.5628  0.7112  0.6594
 1823TIP3    H2 5434   1.493   4.296   1.932 -0.1273 -2.3161  0.8346
 1824TIP3   OH2 5435   6.005   0.394   0.362  0.2228  0.5234  0.3500
 1824TIP3    H1 5436   6.069   0.456   0.397 -0.3675  0.4652  1.5880
 1824TIP3    H2 5437   5.968   0.351   0.440 -1.6999  0.9347 -0.2762
 1825TIP3   OH2 5438   0.553   6.735   4.179 -0.1583 -0.5236  0.6161
 1825TIP3    H1 5439   0.643   6.763   4.194  0.1783 -0.7520 -0.8265
 1825TIP3    H2 5440   0.507   6.756   4.261  0.6646  1.7672  0.5635
 1826TIP3   OH2 5441   3.569   0.948   2.320  0.0363  0.3413  0.4867
 1826TIP3    H1 5442   3.503   1.012   2.345 -0.3250 -0.1122  0.6996
 1826TIP3    H2 5443   3.632   0.998   2.267  1.0641  1.4417  2.6236
 1827TIP3   OH2 5444   4.136   0.276   1.965  0.0969  0.0038 -0.3738
 1827TIP3    H1 5445   4.155   0.289   2.058  2.3334  2.0681 -1.0301
 1827TIP3    H2 5446   4.042   0.259   1.963 -0.1351  0.4665  2.2060
 1828TIP3   OH2 5447   6.741   6.591   1.864 -0.3452  0.8421 -0.5609
 1828TIP3    H1 5448   6.646   6.604   1.860 -0.8355 -2.3462 -1.9733
 1828TIP3    H2 5449   6.771   6.606   1.775  0.0981 -0.3284 -0.6291
 1829TIP3   OH2 5450   5.854   1.216   0.958  0.0493 -0.7633 -0.3051
 1829TIP3    H1 5451   5.902   1.290   0.996 -1.1627 -0.1020 -0.0095
 1829TIP3    H2 5452   5.886   1.139   1.007  2.8178 -0.7996 -1.9605
 1830TIP3   OH2 5453   6.727   1.976   1.516 -0.4542  0.1922 -0.1074
 1830TIP3    H1 5454   6.697   1.890   1.544  1.0113 -0.9651 -1.7834
 1830TIP3    H2 5455   6.798   1.998   1.577 -0.0723 -0.3443 -0.3485
 1831TIP3   OH2 5456   5.356   0.458   0.082 -0.5633  0.0619 -0.1993
 1831TIP3    H1 5457   5.399   0.454   0.167 -1.1651  1.8964  0.2275
 1831TIP3    H2 5458   5.411   0.405   0.024  0.4723 -0.2737  1.0613
 1832TIP3   OH2 5459   0.085   1.959   2.161  0.1388 -0.1680  0.0179
 1832TIP3    H1 5460   0.147   1.893   2.131 -0.6986 -0.7325 -0.5075
 1832TIP3    H2 5461   0.101   1.967   2.255  1.9943  0.7717 -0.3412
 1833TIP3   OH2 5462   3.881   1.146   1.676  0.3257  0.3991  0.0374
 1833TIP3    H1 5463   3.862   1.061   1.637 -1.0981  0.1267  1.2456
 1833TIP3    H2 5464   3.976   1.154   1.671  0.3637 -0.6469 -1.3335
 1834TIP3   OH2 5465   3.810   4.253   3.544 -0.1341 -0.1038 -0.9922
 1834TIP3    H1 5466   3.825   4.262   3.638 -0.3098 -1.8240 -0.7627
 1834TIP3    H2 5467   3.872   4.314   3.503 -0.2904  0.9017  0.2309
 1835TIP3   OH2 5468   3.964   4.174   1.321  0.3105 -0.9139 -0.8566
 1835TIP3    H1 5469   3.923   4.235   1.260 -0.5190  0.8390  1.3236
 1835TIP3    H2 5470   3.907   4.175   1.398  1.5433 -2.6895  0.1433
 1836TIP3   OH2 5471   4.348   1.272   1.418  0.1851  0.6007 -0.2273
 1836TIP3    H1 5472   4.429   1.265   1.368 -0.8214 -0.1491 -1.8216
 1836TIP3    H2 5473   4.325   1.365   1.415 -0.1556  0.4829 -1.6812
 1837TIP3   OH2 5474   1.431   3.679   4.784  0.1954  0.0545 -0.5904
 1837TIP3    H1 5475   1.361   3.721   4.734  1.6572 -0.0132 -2.7860
 1837TIP3    H2 5476   1.490   3.751   4.807  0.1537 -0.1012  0.0343
 1838TIP3   OH2 5477   4.794   3.215   0.964  0.2100  0.3261 -0.3874
 1838TIP3    H1 5478   4.889   3.210   0.970  0.0776 -1.5886  1.6653
 1838TIP3    H2 5479   4.770   3.288   1.020  0.4610  1.1856 -1.3695
 1839TIP3   OH2 5480   6.779   3.766   2.203  0.1560  0.0800 -0.2296
 1839TIP3    H1 5481   6.687   3.745   2.214  0.1091 -1.0082 -2.0991
 1839TIP3    H2 5482   6.826   3.697   2.251 -0.0376 -0.6234 -1.0097
 1840TIP3   OH2 5483   3.855   3.039   4.780 -0.3623  0.3779 -0.2172
 1840TIP3    H1 5484   3.812   2.963   4.740  2.6110 -1.6262  0.0207
 1840TIP3    H2 5485   3.904   3.002   4.854  0.5032  2.6837  0.4403
 1841TIP3   OH2 5486   3.753   1.236   2.332 -0.1551 -0.3099 -0.0636
 1841TIP3    H1 5487   3.751   1.183   2.252  1.4912 -2.1957  1.0557
 1841TIP3    H2 5488   3.663   1.264   2.344 -0.2903  1.0658 -3.1777
 1842TIP3   OH2 5489   4.879   5.439   5.147 -0.4420  0.1332  0.0189
 1842TIP3    H1 5490   4.879   5.367   5.083 -0.6261  0.4638 -0.3621
 1842TIP3    H2 5491   4.873   5.518   5.093  1.2330  0.5141  0.3476
 1843TIP3   OH2 5492   5.587   5.969   3.166 -0.3234 -0.1790  0.6684
 1843TIP3    H1 5493   5.576   6.041   3.227  1.5259  2.5391 -1.9148
 1843TIP3    H2 5494   5.654   5.913   3.206  2.0849  2.4155  0.5721
 1844TIP3   OH2 5495   1.871   2.181   0.478  0.0476  0.0174 -0.0274
 1844TIP3    H1 5496   1.934   2.195   0.408  0.3602  2.6260  0.6759
 1844TIP3    H2 5497   1.789   2.161   0.432  0.9214 -1.5126 -0.9969
 1845TIP3   OH2 5498   4.137   5.085   3.498  0.1237  0.4703 -0.7177
 1845TIP3    H1 5499   4.093   5.070   3.582  2.0479  0.0573  0.2768
 1845TIP3    H2 5500   4.106   5.170   3.469  0.6415  1.3862  1.2566
 1846TIP3   OH2 5501   4.737   1.387   5.637  0.1949  0.5797  0.5433
 1846TIP3    H1 5502   4.764   1.405   5.547  1.1177  0.6543  0.8277
 1846TIP3    H2 5503   4.816   1.354   5.680 -0.6923 -1.3784  0.8083
 1847TIP3   OH2 5504   3.716   3.281   1.832  0.1564  0.1221 -0.0856
 1847TIP3    H1 5505   3.773   3.233   1.893  1.1407 -0.4585 -1.4060
 1847TIP3    H2 5506   3.653   3.216   1.803  1.6782 -0.5629 -2.1136
 1848TIP3   OH2 5507   0.853   3.645   0.588 -0.1809  0.0054  0.6178
 1848TIP3    H1 5508   0.775   3.699   0.599 -0.8151 -0.9903  1.1865
 1848TIP3    H2 5509   0.819   3.559   0.566  0.8381 -0.0289 -0.9601
 1849TIP3   OH2 5510   3.256   6.681   4.967 -0.1160 -0.5088 -0.7269
 1849TIP3    H1 5511   3.261   6.747   5.036 -0.3216 -0.7785 -0.4514
 1849TIP3    H2 5512   3.200   6.612   5.004  0.8127 -1.2475 -0.6722
 1850TIP3   OH2 5513   3.663   3.327   5.780  0.8710  0.3580 -0.0780
 1850TIP3    H1 5514   3.666   3.260   5.712  0.9604  1.5381 -1.2844
 1850TIP3    H2 5515   3.584   3.378   5.760 -0.2350 -0.4550  1.9097
 1851TIP3   OH2 5516   3.953   5.213   1.846 -0.2992  0.4268 -0.0934
 1851TIP3    H1 5517   4.005   5.279   1.800 -0.0048  0.3049  0.0611
 1851TIP3    H2 5518   3.884   5.191   1.784  1.1221 -1.0595 -1.2582
 1852TIP3   OH2 5519   1.944   1.283   2.896 -0.1979  0.3925  0.4135
 1852TIP3    H1 5520   1.850   1.297   2.882 -0.4494 -1.3343  0.1539
 1852TIP3    H2 5521   1.976   1.251   2.812  0.4121 -0.0385  0.8052
 1853TIP3   OH2 5522   4.152   2.889   4.585 -0.4181 -0.2190  0.0561
 1853TIP3    H1 5523   4.133   2.949   4.513 -0.6243 -0.2710  0.0662
 1853TIP3    H2 5524   4.179   2.808   4.542 -0.4793 -0.2297  0.0376
 1854TIP3   OH2 5525   2.949   3.134   4.456 -0.8239  0.1726  0.2346
 1854TIP3    H1 5526   3.015   3.203   4.455 -0.7772  0.1212 -0.3474
 1854TIP3    H2 5527   2.923   3.127   4.548  1.0337 -0.8164  0.7507
 1855TIP3   OH2 5528   5.525   2.054   2.569  0.0591  0.3783 -0.1696
 1855TIP3    H1 5529   5.554   2.121   2.507 -0.7952  1.4824  0.5961
 1855TIP3    H2 5530   5.528   2.097   2.654 -0.3677 -0.6019  0.3574
 1856TIP3   OH2 5531   2.457   4.340   1.652 -0.1674  0.2219 -0.3270
 1856TIP3    H1 5532   2.450   4.298   1.567  1.2591  2.0404 -1.4173
 1856TIP3    H2 5533   2.376   4.391   1.660  0.0961  0.7733 -1.0439
 1857TIP3   OH2 5534   2.138   5.901   0.218 -0.0992 -0.7847  0.3659
 1857TIP3    H1 5535   2.196   5.977   0.217  1.4244 -1.8939 -0.3084
 1857TIP3    H2 5536   2.125   5.879   0.126 -2.6857  0.1793  0.4381
 1858TIP3   OH2 5537   5.304   4.275   2.365 -0.7448 -0.1942  0.1211
 1858TIP3    H1 5538   5.271   4.321   2.288 -0.4520 -0.4097 -0.1324
 1858TIP3    H2 5539   5.353   4.341   2.414 -0.7215 -0.1190 -0.0033
 1859TIP3   OH2 5540   5.586   1.794   3.418  0.4668  0.3946 -0.5229
 1859TIP3    H1 5541   5.506   1.743   3.405  0.4056  0.1245  0.8057
 1859TIP3    H2 5542   5.594   1.803   3.513  1.1739  1.7698 -0.6793
 1860TIP3   OH2 5543   4.952   3.571   3.640 -0.0773 -0.1723 -0.2433
 1860TIP3    H1 5544   4.860   3.583   3.664 -0.4635  0.9536 -2.0884
 1860TIP3    H2 5545   4.956   3.485   3.599 -0.7627  0.5171 -1.8731
 1861TIP3   OH2 5546   2.457   1.600   1.452  0.0417  0.2505  0.3050
 1861TIP3    H1 5547   2.410   1.528   1.410  2.0395 -0.4196 -0.8662
 1861TIP3    H2 5548   2.388   1.661   1.477 -1.6614 -1.7078  0.7101
 1862TIP3   OH2 5549   2.203   5.952   0.719 -0.1903 -0.5904  0.5319
 1862TIP3    H1 5550   2.202   5.893   0.644 -0.0937  0.6398 -0.4817
 1862TIP3    H2 5551   2.149   6.026   0.691 -0.5151 -0.2979  1.8534
 1863TIP3   OH2 5552   1.659   2.515   2.088  0.7417  0.5457 -0.4737
 1863TIP3    H1 5553   1.632   2.428   2.058 -1.0295  0.7864  0.2850
 1863TIP3    H2 5554   1.751   2.522   2.063  0.8873 -1.4983 -0.6513
 1864TIP3   OH2 5555   6.303   6.269   0.377 -0.7283  0.3565 -0.0287
 1864TIP3    H1 5556   6.371   6.323   0.337 -1.7445  0.9660 -0.9785
 1864TIP3    H2 5557   6.296   6.193   0.320  0.0803 -0.3950  0.8240
 1865TIP3   OH2 5558   1.277   4.786   0.694 -0.3021  0.2849 -0.2264
 1865TIP3    H1 5559   1.352   4.842   0.672  1.1993 -1.0276  1.2594
 1865TIP3    H2 5560   1.303   4.699   0.665 -0.3782 -0.5389  2.0080
 1866TIP3   OH2 5561   3.926   1.879   3.375  0.1778 -0.0578  0.6479
 1866TIP3    H1 5562   3.910   1.949   3.312 -1.2504  0.3165  1.3793
 1866TIP3    H2 5563   3.964   1.808   3.323  0.3460  0.7488 -0.3545
 1867TIP3   OH2 5564   1.026   0.574   2.680  0.0838 -0.2387  0.2192
 1867TIP3    H1 5565   1.055   0.488   2.708  0.6846  0.3299  1.3901
 1867TIP3    H2 5566   0.989   0.559   2.593 -0.3750 -1.7743  0.6419
 1868TIP3   OH2 5567   0.667   1.025   5.481 -0.0377  0.3807  0.0238
 1868TIP3    H1 5568   0.736   1.028   5.548  0.3890 -0.8958 -0.3337
 1868TIP3    H2 5569   0.632   1.114   5.480  1.5318  1.0507  0.3044
 1869TIP3   OH2 5570   0.406   1.672   3.685  0.3604 -0.9468  0.1513
 1869TIP3    H1 5571   0.368   1.682   3.598  0.4947 -0.1465  0.1725
 1869TIP3    H2 5572   0.410   1.578   3.700 -0.4519 -1.0647 -0.3587
 1870TIP3   OH2 5573   1.792   4.907   3.317  0.0864 -0.1333  0.2007
 1870TIP3    H1 5574   1.830   4.989   3.350  0.6026 -0.2623 -0.0638
 1870TIP3    H2 5575   1.698   4.924   3.315  0.2072  0.5573 -0.1179
 1871TIP3   OH2 5576   1.784   5.637   2.855  0.0347 -0.2564 -0.0167
 1871TIP3    H1 5577   1.726   5.632   2.931 -0.7617 -0.2724 -0.6131
 1871TIP3    H2 5578   1.739   5.587   2.787  0.3464  0.4348 -0.7442
 1872TIP3   OH2 5579   6.829   2.899   0.069 -0.4103  0.0410 -0.6195
 1872TIP3    H1 5580   6.917   2.933   0.056 -0.0072 -0.2855  1.1190
 1872TIP3    H2 5581   6.833   2.850   0.151 -1.5972 -2.0670 -1.7109
 1873TIP3   OH2 5582   6.391   4.753   1.855  0.2606  0.1633  0.8226
 1873TIP3    H1 5583   6.315   4.732   1.800  0.5108 -0.1880  0.6097
 1873TIP3    H2 5584   6.467   4.729   1.801  0.4984 -0.9650  1.6142
 1874TIP3   OH2 5585   2.312   5.393   3.505 -0.4182  0.1407  0.3691
 1874TIP3    H1 5586   2.395   5.367   3.464 -0.2138  0.9647  0.2415
 1874TIP3    H2 5587   2.269   5.447   3.439  0.1111  1.8638  1.3708
 1875TIP3   OH2 5588   1.701   6.427   2.037 -0.1858  0.1606  0.4825
 1875TIP3    H1 5589   1.679   6.334   2.031 -1.5810  0.4834  0.0655
 1875TIP3    H2 5590   1.667   6.465   1.956  1.3716  0.8685  0.1306
 1876TIP3   OH2 5591   3.963   5.352   3.573 -0.2658  0.2021 -0.2932
 1876TIP3    H1 5592   3.957   5.346   3.668 -0.3450  2.0444 -0.1504
 1876TIP3    H2 5593   3.916   5.432   3.551  1.8817  1.1844 -1.6254
 1877TIP3   OH2 5594   3.771   1.315   4.163  0.6103  0.3221 -0.6501
 1877TIP3    H1 5595   3.818   1.289   4.243 -0.5029  0.7242  0.1649
 1877TIP3    H2 5596   3.793   1.407   4.152  0.7460  0.2722 -0.7938
 1878TIP3   OH2 5597   1.337   5.533   0.663 -0.2954  0.0115 -0.2637
 1878TIP3    H1 5598   1.363   5.596   0.596 -1.3121  0.8486  0.0825
 1878TIP3    H2 5599   1.348   5.581   0.746 -0.7777 -0.3716  0.0280
 1879TIP3   OH2 5600   3.181   2.796   0.678 -0.3949  0.8592 -0.2297
 1879TIP3    H1 5601   3.162   2.707   0.705 -0.1629  0.9988  0.3926
 1879TIP3    H2 5602   3.112   2.817   0.614 -0.3145  0.1628 -0.5525
 1880TIP3   OH2 5603   7.120   6.172   5.369  0.3672  0.0311 -0.0903
 1880TIP3    H1 5604   7.143   6.262   5.395 -0.4248 -0.0431  0.9409
 1880TIP3    H2 5605   7.183   6.117   5.416  0.8204  0.0367 -0.6829
 1881TIP3   OH2 5606   2.859   2.888   2.862  0.0756 -0.3792  0.1777
 1881TIP3    H1 5607   2.800   2.821   2.895 -1.5093  0.4911 -0.7876
 1881TIP3    H2 5608   2.846   2.963   2.921  0.2171 -0.1801 -0.0436
 1882TIP3   OH2 5609   1.642   2.336   1.722 -0.1049  0.0132 -0.2320
 1882TIP3    H1 5610   1.554   2.360   1.749 -0.5232  1.3572 -2.5482
 1882TIP3    H2 5611   1.676   2.283   1.794 -3.0767 -1.2223  0.3832
 1883TIP3   OH2 5612   4.133   6.679   0.762  0.1865 -0.2481  0.5132
 1883TIP3    H1 5613   4.184   6.744   0.810  0.9149  0.1090 -0.6912
 1883TIP3    H2 5614   4.182   6.597   0.772  0.4039 -0.1472  0.2851
 1884TIP3   OH2 5615   0.781   1.806   0.427  0.8337 -0.6230 -0.2851
 1884TIP3    H1 5616   0.790   1.757   0.508  0.8365  0.0369  0.1261
 1884TIP3    H2 5617   0.720   1.756   0.374  0.1796 -0.6313  0.4705
 1885TIP3   OH2 5618   1.475   0.901   2.452 -0.0574 -0.2705  0.3111
 1885TIP3    H1 5619   1.492   0.935   2.540 -0.2430  0.5960  0.0226
 1885TIP3    H2 5620   1.562   0.888   2.415  0.0140  0.2237  0.3035
 1886TIP3   OH2 5621   1.695   4.729   2.498 -0.2580  0.2302 -0.4738
 1886TIP3    H1 5622   1.683   4.634   2.504  0.9624  0.0905  0.0403
 1886TIP3    H2 5623   1.778   4.746   2.544 -0.0158  1.4423 -1.3085
 1887TIP3   OH2 5624   1.397   5.534   2.120 -0.1686 -0.0755  0.2021
 1887TIP3    H1 5625   1.313   5.489   2.116 -0.9298  0.9123  2.6709
 1887TIP3    H2 5626   1.455   5.471   2.163  0.0682 -0.3584 -0.5205
 1888TIP3   OH2 5627   5.325   6.008   2.941  0.0769  0.0508  0.0843
 1888TIP3    H1 5628   5.277   6.067   2.998  1.3558  1.2959 -0.0593
 1888TIP3    H2 5629   5.259   5.972   2.882 -0.9407  0.3055  1.0395
 1889TIP3   OH2 5630   3.153   3.545   4.022  0.2975  0.3976 -0.7276
 1889TIP3    H1 5631   3.176   3.602   3.949  0.3739  1.1248 -0.1429
 1889TIP3    H2 5632   3.231   3.545   4.078 -0.1720  0.7807 -0.0590
 1890TIP3   OH2 5633   4.276   4.551   2.568 -0.1229  0.0052  0.3516
 1890TIP3    H1 5634   4.337   4.492   2.523 -1.2226 -1.4581  0.6726
 1890TIP3    H2 5635   4.328   4.589   2.639  0.1486 -2.2714  1.4943
 1891TIP3   OH2 5636   4.798   3.485   2.627 -0.2612  0.1265 -0.5437
 1891TIP3    H1 5637   4.749   3.459   2.549 -1.5953  3.3360 -0.9482
 1891TIP3    H2 5638   4.758   3.436   2.698  0.5915 -2.4223 -1.7139
 1892TIP3   OH2 5639   7.100   6.537   1.999  0.4141 -0.2886 -0.3308
 1892TIP3    H1 5640   7.151   6.516   2.077  2.2150  2.8404 -0.5342
 1892TIP3    H2 5641   7.106   6.632   1.991 -2.2819 -0.1873 -2.6105
 1893TIP3   OH2 5642   4.239   1.259   3.187 -0.0942  0.9558 -0.1800
 1893TIP3    H1 5643   4.250   1.247   3.281 -1.3057 -0.0919 -0.1425
 1893TIP3    H2 5644   4.282   1.183   3.148 -1.7075  0.0770 -0.3200
 1894TIP3   OH2 5645   6.988   5.593   5.160 -0.1435  0.4844 -0.0916
 1894TIP3    H1 5646   6.930   5.529   5.200 -1.9030  1.7141 -0.5217
 1894TIP3    H2 5647   6.978   5.579   5.066  0.5173  0.5017 -0.1672
 1895TIP3   OH2 5648   5.146   4.210   0.523  0.1811 -0.2820 -0.4001
 1895TIP3    H1 5649   5.100   4.284   0.484 -0.2057 -0.5300 -0.4154
 1895TIP3    H2 5650   5.199   4.249   0.593  0.8877  0.1631 -1.1723
 1896TIP3   OH2 5651   2.601   5.191   4.417 -0.0013  0.4446  0.0557
 1896TIP3    H1 5652   2.529   5.167   4.358  1.7168  1.1105 -2.4995
 1896TIP3    H2 5653   2.650   5.110   4.430 -0.0821  0.4087  0.1364
 1897TIP3   OH2 5654   4.558   0.198   0.382  0.6606  0.2241 -0.0825
 1897TIP3    H1 5655   4.618   0.252   0.433  1.5254 -0.0743 -0.7692
 1897TIP3    H2 5656   4.606   0.118   0.364 -0.5669 -0.7610  0.8234
 1898TIP3   OH2 5657   6.383   4.622   3.427  0.1651  0.4960  0.7190
 1898TIP3    H1 5658   6.427   4.550   3.472  0.2919  0.1042 -0.0022
 1898TIP3    H2 5659   6.345   4.581   3.350  0.1138  1.1788  0.3746
 1899TIP3   OH2 5660   6.121   2.314   1.637  0.7336 -0.0107 -0.0707
 1899TIP3    H1 5661   6.213   2.335   1.621  1.2083 -1.1730  0.9778
 1899TIP3    H2 5662   6.090   2.278   1.553  1.9587 -1.9425  0.2305
 1900TIP3   OH2 5663   0.120   4.121   0.263  0.3338 -0.2244 -0.2453
 1900TIP3    H1 5664   0.169   4.039   0.271 -2.7696 -2.0973  1.4920
 1900TIP3    H2 5665   0.141   4.170   0.343  0.8485 -0.0824 -0.4604
 1901TIP3   OH2 5666   4.997   4.855   4.632  0.4136 -0.4513  0.3329
 1901TIP3    H1 5667   5.027   4.851   4.723 -2.3986 -0.4486  1.3852
 1901TIP3    H2 5668   4.963   4.944   4.623 -1.1320 -1.0422 -0.0188
 1902TIP3   OH2 5669   3.081   4.832   1.811 -0.4136  0.0232 -0.1618
 1902TIP3    H1 5670   2.998   4.787   1.795 -0.1553 -0.2759 -0.7266
 1902TIP3    H2 5671   3.147   4.762   1.805  0.1615  0.6615 -2.6159
 1903TIP3   OH2 5672   1.547   4.889   5.080  0.0157  0.0691  0.0386
 1903TIP3    H1 5673   1.630   4.910   5.038 -1.3533  1.6905 -2.0783
 1903TIP3    H2 5674   1.530   4.798   5.055  1.5009 -0.5940  1.2541
 1904TIP3   OH2 5675   6.609   6.196   4.359 -0.0216  0.0373 -0.6623
 1904TIP3    H1 5676   6.685   6.200   4.302  0.0744  0.3497 -0.5147
 1904TIP3    H2 5677   6.644   6.197   4.448 -0.2151  1.1001 -0.5730
 1905TIP3   OH2 5678   0.688   0.661   3.653 -0.2500 -0.1363 -0.0066
 1905TIP3    H1 5679   0.705   0.675   3.746  2.6897  0.8834 -0.5911
 1905TIP3    H2 5680   0.635   0.736   3.626  0.0005  0.2567  0.5803
 1906TIP3   OH2 5681   2.256   2.275   3.622 -0.1655  0.3766 -0.4341
 1906TIP3    H1 5682   2.305   2.318   3.693  0.0271 -3.1065  1.7637
 1906TIP3    H2 5683   2.323   2.235   3.567 -0.3756  2.0052 -1.9579
 1907TIP3   OH2 5684   2.553   2.389   5.802  0.2598 -0.1660 -0.0419
 1907TIP3    H1 5685   2.570   2.482   5.790  0.8179 -0.2225  0.2680
 1907TIP3    H2 5686   2.464   2.385   5.836  0.0640  0.2222 -0.4998
 1908TIP3   OH2 5687   2.383   5.790   3.079 -0.2276 -0.3174  0.3684
 1908TIP3    H1 5688   2.367   5.878   3.045 -0.2576 -0.7053 -0.6588
 1908TIP3    H2 5689   2.444   5.802   3.151  0.8818  0.4197 -0.6654
 1909TIP3   OH2 5690   0.455   5.713   1.268 -0.0823 -0.7818  0.2893
 1909TIP3    H1 5691   0.526   5.776   1.278 -0.3294  0.1491 -2.7305
 1909TIP3    H2 5692   0.383   5.748   1.321  0.7839 -0.2341  1.1268
 1910TIP3   OH2 5693   4.399   3.467   5.436 -0.6114 -0.0171  0.5186
 1910TIP3    H1 5694   4.455   3.459   5.513 -0.4522 -0.1875  0.3851
 1910TIP3    H2 5695   4.430   3.546   5.391  0.3298 -0.7960 -0.2148
 1911TIP3   OH2 5696   4.865   2.332   0.683 -0.3430 -0.2136  0.1254
 1911TIP3    H1 5697   4.830   2.412   0.644 -0.9801  0.1936  1.4543
 1911TIP3    H2 5698   4.926   2.298   0.618 -1.2951  0.4562 -1.1687
 1912TIP3   OH2 5699   6.411   4.593   3.990 -0.0609  0.1293  0.2320
 1912TIP3    H1 5700   6.425   4.599   4.084  1.2918 -0.9507  0.1194
 1912TIP3    H2 5701   6.488   4.548   3.956 -1.2773 -1.0291 -1.1775
 1913TIP3   OH2 5702   1.484   2.216   2.151 -0.0316  0.3035  0.1109
 1913TIP3    H1 5703   1.486   2.296   2.099  2.4162 -0.0203 -0.4153
 1913TIP3    H2 5704   1.485   2.145   2.087  0.2480 -0.1103  0.5597
 1914TIP3   OH2 5705   7.035   1.421   0.073 -0.0951 -0.2050  0.2347
 1914TIP3    H1 5706   7.067   1.407  -0.017  1.1586 -1.1755  0.8035
 1914TIP3    H2 5707   7.107   1.391   0.129 -1.5206 -1.2377  1.5816
 1915TIP3   OH2 5708   1.850   0.944   3.341 -0.6346 -0.4410 -0.0585
 1915TIP3    H1 5709   1.761   0.961   3.371 -0.7700 -0.7525 -0.2713
 1915TIP3    H2 5710   1.856   0.986   3.255 -0.8171 -1.0471 -0.3727
 1916TIP3   OH2 5711   2.333   0.795   1.299 -0.3566 -0.4337  0.1579
 1916TIP3    H1 5712   2.421   0.796   1.338 -0.7129  1.9591  1.0549
 1916TIP3    H2 5713   2.283   0.734   1.355  1.1177 -3.5117 -1.5967
 1917TIP3   OH2 5714   5.815   1.051   0.470  0.0132  0.2123 -0.6451
 1917TIP3    H1 5715   5.777   1.014   0.390 -0.3326  0.6438 -0.6874
 1917TIP3    H2 5716   5.906   1.022   0.470 -0.0350  0.0575 -1.1014
 1918TIP3   OH2 5717   2.864   3.885   5.167 -0.5951 -0.0476  0.1138
 1918TIP3    H1 5718   2.882   3.794   5.140 -0.4235  0.6744 -2.4694
 1918TIP3    H2 5719   2.769   3.892   5.164 -0.6253 -0.2050  0.6023
 1919TIP3   OH2 5720   1.155   6.271   5.224 -0.4980  0.3846  0.3027
 1919TIP3    H1 5721   1.142   6.364   5.207  0.6054  0.3763 -0.6551
 1919TIP3    H2 5722   1.221   6.243   5.161 -0.3496 -0.9136  0.9892
 1920TIP3   OH2 5723   2.331   3.928   0.602 -0.0010 -0.2420 -0.3478
 1920TIP3    H1 5724   2.312   3.940   0.695 -3.7131  0.7059 -1.0697
 1920TIP3    H2 5725   2.371   4.010   0.575  0.0219 -0.0731  0.1842
 1921TIP3   OH2 5726   3.580   5.179   5.152 -0.0359  0.5324 -0.4775
 1921TIP3    H1 5727   3.546   5.225   5.228  0.5973  1.9458 -1.0020
 1921TIP3    H2 5728   3.666   5.218   5.137  0.0275 -0.0107 -1.6548
 1922TIP3   OH2 5729   4.335   6.028   0.954  0.3854 -0.7290  0.9111
 1922TIP3    H1 5730   4.322   5.965   0.883 -0.8363  1.1745 -0.6390
 1922TIP3    H2 5731   4.246   6.053   0.980  0.6083  3.3284 -1.3598
 1923TIP3   OH2 5732   5.326   0.447   5.885  0.2750 -0.3549  0.3484
 1923TIP3    H1 5733   5.320   0.398   5.803 -0.1947  0.0455  0.1360
 1923TIP3    H2 5734   5.415   0.433   5.915  0.5243 -0.3168 -0.3570
 1924TIP3   OH2 5735   3.088   5.793   1.335  0.4267  0.1722 -0.0091
 1924TIP3    H1 5736   3.036   5.742   1.273  2.1947 -0.7080 -0.8594
 1924TIP3    H2 5737   3.175   5.752   1.333  0.8076  0.7086  2.3784
 1925TIP3   OH2 5738   3.651   6.383   2.241 -0.5432  0.2631 -0.4767
 1925TIP3    H1 5739   3.671   6.459   2.296 -1.3470  0.6828 -0.7465
 1925TIP3    H2 5740   3.697   6.400   2.159  0.2286 -0.1098 -0.1267
 1926TIP3   OH2 5741   6.348   0.722   5.047  0.2645  0.1804 -0.6814
 1926TIP3    H1 5742   6.272   0.780   5.046 -0.2580 -0.5022 -1.8147
 1926TIP3    H2 5743   6.324   0.651   5.106  0.4901  0.5441 -0.1367
 1927TIP3   OH2 5744   4.967   1.371   0.371  0.0610 -0.0375  0.3189
 1927TIP3    H1 5745   4.959   1.343   0.462 -0.0994  2.0803  0.9960
 1927TIP3    H2 5746   5.061   1.383   0.358  0.0329  0.3010  0.4182
 1928TIP3   OH2 5747   4.126   6.214   4.593 -0.2176 -0.0739 -0.1199
 1928TIP3    H1 5748   4.105   6.285   4.653  1.2973 -0.2968  0.7322
 1928TIP3    H2 5749   4.215   6.234   4.563  0.3707 -1.7570  0.3866
 1929TIP3   OH2 5750   3.205   0.676   4.637 -0.1178  0.6940 -0.1949
 1929TIP3    H1 5751   3.161   0.687   4.721  0.4162 -0.5365  0.2646
 1929TIP3    H2 5752   3.139   0.637   4.580  0.3118 -1.1604  0.4967
 1930TIP3   OH2 5753   2.057   3.612   3.111 -0.6768  1.1409  0.0249
 1930TIP3    H1 5754   2.037   3.671   3.038  0.0207  1.9405  0.4537
 1930TIP3    H2 5755   2.139   3.646   3.146  0.2629 -0.6879 -0.3112
 1931TIP3   OH2 5756   6.206   2.035   3.041  0.0927  0.0486 -0.2946
 1931TIP3    H1 5757   6.199   2.122   3.002  1.2413  1.1975  1.8540
 1931TIP3    H2 5758   6.118   2.000   3.036 -1.1695  2.6347  1.4870
 1932TIP3   OH2 5759   3.392   3.391   2.064 -0.2143 -0.5472  0.7059
 1932TIP3    H1 5760   3.485   3.383   2.087 -0.0808 -1.0133  0.0360
 1932TIP3    H2 5761   3.392   3.414   1.971 -0.7808 -1.5657  0.4337
 1933TIP3   OH2 5762   2.126   5.371   5.904  0.0420  0.6330 -0.0680
 1933TIP3    H1 5763   2.098   5.380   5.813 -0.2984 -0.5758 -0.1056
 1933TIP3    H2 5764   2.072   5.300   5.938  0.4635  0.7947  0.9599
 1934TIP3   OH2 5765   4.895   1.001   3.311  0.3853 -0.0212  0.4241
 1934TIP3    H1 5766   4.956   0.933   3.281  2.4806  2.0088 -0.2801
 1934TIP3    H2 5767   4.890   0.988   3.406  0.9517 -1.0054  0.3333
 1935TIP3   OH2 5768   5.836   6.500   4.520  0.1062  0.1537  0.1578
 1935TIP3    H1 5769   5.745   6.512   4.494 -0.3896 -1.0572  1.2127
 1935TIP3    H2 5770   5.869   6.589   4.534 -0.7497  0.6247 -0.7081
 1936TIP3   OH2 5771   0.952   0.504   3.070 -0.0138  0.1822  0.1835
 1936TIP3    H1 5772   1.034   0.456   3.074 -0.2779 -0.3650 -0.7299
 1936TIP3    H2 5773   0.905   0.480   3.149  1.7888  2.5656  2.1386
 1937TIP3   OH2 5774   2.015   4.548   0.464  0.1890  0.0876  0.2587
 1937TIP3    H1 5775   1.973   4.634   0.471  0.4111  0.0982  1.8343
 1937TIP3    H2 5776   1.942   4.487   0.462  0.0378  0.2854 -0.4465
 1938TIP3   OH2 5777   5.842   2.885   1.129 -0.4778 -0.2181  0.3018
 1938TIP3    H1 5778   5.826   2.977   1.109 -0.3652 -0.3139 -0.2590
 1938TIP3    H2 5779   5.934   2.872   1.109 -0.4497 -0.4116  0.5539
 1939TIP3   OH2 5780   3.776   4.010   3.377 -0.1212  0.0900 -0.2064
 1939TIP3    H1 5781   3.732   4.081   3.424 -0.2513 -0.2951  0.2569
 1939TIP3    H2 5782   3.868   4.019   3.401  0.1792  1.2451 -1.6189
 1940TIP3   OH2 5783   0.706   5.465   5.588 -0.5925 -0.0171  0.0531
 1940TIP3    H1 5784   0.672   5.471   5.677 -0.9826 -0.4844 -0.0595
 1940TIP3    H2 5785   0.793   5.505   5.593  0.2177 -1.7940  1.0770
 1941TIP3   OH2 5786   1.602   4.000   3.349 -0.5285  0.1361  0.3967
 1941TIP3    H1 5787   1.525   3.945   3.330  0.1297 -0.8062  0.4141
 1941TIP3    H2 5788   1.677   3.946   3.323  0.1317  1.0938  0.2725
 1942TIP3   OH2 5789   5.300   3.699   3.456 -0.3401 -0.5043 -0.7871
 1942TIP3    H1 5790   5.299   3.603   3.458 -0.2772 -0.5012  0.7544
 1942TIP3    H2 5791   5.232   3.722   3.393  0.6723 -1.5505 -2.3374
 1943TIP3   OH2 5792   6.263   0.468   0.911 -0.3903  0.7232  0.6099
 1943TIP3    H1 5793   6.311   0.538   0.956  0.5771  0.6985 -0.3602
 1943TIP3    H2 5794   6.296   0.469   0.822  0.4936 -1.6879  0.8215
 1944TIP3   OH2 5795   6.382   0.383   4.199 -0.3449 -0.1718 -0.7597
 1944TIP3    H1 5796   6.362   0.477   4.193 -1.6274 -0.5140 -2.6175
 1944TIP3    H2 5797   6.428   0.363   4.118  1.7096 -0.8269  0.4703
 1945TIP3   OH2 5798   3.717   0.598   4.291 -0.0185  0.3945 -0.2524
 1945TIP3    H1 5799   3.705   0.549   4.373 -0.6536  0.5222 -0.2594
 1945TIP3    H2 5800   3.630   0.633   4.272  0.3390  1.1946 -0.4589
 1946TIP3   OH2 5801   4.688   3.427   3.638 -0.2343 -0.4006 -0.4834
 1946TIP3    H1 5802   4.717   3.441   3.548  2.7048  0.8977  0.5525
 1946TIP3    H2 5803   4.630   3.502   3.657  1.1227  0.7139 -0.5787
 1947TIP3   OH2 5804   1.681   6.410   4.669  0.1539  0.0140  0.3089
 1947TIP3    H1 5805   1.660   6.342   4.733 -0.6096 -0.3169 -0.2805
 1947TIP3    H2 5806   1.608   6.471   4.674  1.9009  2.1207  2.5147
 1948TIP3   OH2 5807   3.985   0.892   5.452  0.0839  0.0118  0.2845
 1948TIP3    H1 5808   3.903   0.889   5.501 -0.5511  0.1394 -0.7380
 1948TIP3    H2 5809   3.976   0.822   5.387 -0.0126  1.2131 -1.0382
 1949TIP3   OH2 5810   0.902   6.115   1.900 -0.2358 -0.7734  0.7686
 1949TIP3    H1 5811   0.985   6.092   1.940  0.2081  0.0001  0.3188
 1949TIP3    H2 5812   0.852   6.158   1.970  0.3088  0.0508  0.6634
 1950TIP3   OH2 5813   4.609   5.543   4.902 -0.7736  0.3339 -0.6302
 1950TIP3    H1 5814   4.682   5.604   4.913 -0.3083 -0.4586  0.8990
 1950TIP3    H2 5815   4.577   5.527   4.991 -0.6192 -1.9417 -0.9282
 1951TIP3   OH2 5816   2.916   6.200   4.385 -0.4453  0.3118 -0.5781
 1951TIP3    H1 5817   2.933   6.106   4.378  0.2722  0.3302  0.7346
 1951TIP3    H2 5818   2.911   6.230   4.294  1.6710 -0.5847 -1.0363
 1952TIP3   OH2 5819   1.398   2.985   2.206  0.1923  0.0801 -0.3927
 1952TIP3    H1 5820   1.426   2.898   2.176 -0.4279 -0.2571 -0.0266
 1952TIP3    H2 5821   1.439   3.046   2.145  1.3826 -0.4086 -0.1175
 1953TIP3   OH2 5822   0.703   5.849   0.442  0.3049  0.0087  0.4389
 1953TIP3    H1 5823   0.792   5.833   0.409 -0.6544 -1.7682 -1.5182
 1953TIP3    H2 5824   0.682   5.770   0.491  0.1986  0.9400  1.9600
 1954TIP3   OH2 5825   6.492   4.322   5.469 -0.1787 -0.2792 -0.0878
 1954TIP3    H1 5826   6.439   4.246   5.443 -0.5206 -0.5110  1.2143
 1954TIP3    H2 5827   6.428   4.387   5.498  0.0372  0.9430 -2.1337
 1955TIP3   OH2 5828   7.127   1.542   5.802 -0.7182  0.1055 -0.0652
 1955TIP3    H1 5829   7.184   1.588   5.741  1.8923 -1.5643  0.9489
 1955TIP3    H2 5830   7.144   1.583   5.887 -1.2158 -0.2451  0.2093
 1956TIP3   OH2 5831   1.505   6.329   3.688 -0.0491 -0.1813  0.1510
 1956TIP3    H1 5832   1.476   6.384   3.761  0.1634 -1.3074  1.1252
 1956TIP3    H2 5833   1.440   6.260   3.683  0.2803 -0.4609 -0.3223
 1957TIP3   OH2 5834   0.172   5.036   2.069 -0.0406 -0.3089 -0.5195
 1957TIP3    H1 5835   0.217   5.096   2.009 -1.0396  0.6444 -0.3577
 1957TIP3    H2 5836   0.121   5.094   2.126 -0.9644 -1.3153 -0.2922
 1958TIP3   OH2 5837   5.904   3.626   5.321 -0.2371  0.2576  0.8081
 1958TIP3    H1 5838   5.820   3.671   5.328 -0.5434 -0.3645  1.2013
 1958TIP3    H2 5839   5.908   3.599   5.229 -0.9506 -0.6231  1.0244
 1959TIP3   OH2 5840   2.094   5.242   3.257  0.5745  0.1901 -0.6844
 1959TIP3    H1 5841   2.130   5.330   3.240  2.5881 -0.6328 -0.9757
 1959TIP3    H2 5842   2.052   5.217   3.175  0.7817  0.5378 -0.9015
 1960TIP3   OH2 5843   4.851   5.607   3.174  0.8585  0.5364 -0.2526
 1960TIP3    H1 5844   4.768   5.559   3.180  0.5119  1.2373  0.8896
 1960TIP3    H2 5845   4.827   5.691   3.133  0.1383  2.4555  3.6796
 1961TIP3   OH2 5846   1.717   3.587   5.116 -0.1060 -0.2294  0.8440
 1961TIP3    H1 5847   1.801   3.589   5.163 -0.3477 -0.1008  1.2740
 1961TIP3    H2 5848   1.720   3.505   5.066  0.4997  0.0332  0.4378
 1962TIP3   OH2 5849   6.412   6.665   1.435  0.1022 -0.2242  0.1872
 1962TIP3    H1 5850   6.354   6.607   1.485  1.2684 -1.0342  0.6434
 1962TIP3    H2 5851   6.366   6.679   1.352 -0.4197 -1.4440  0.2458
 1963TIP3   OH2 5852   0.318   0.061   2.754  0.0711 -0.1814  0.2227
 1963TIP3    H1 5853   0.401   0.075   2.799 -0.2394  0.2122  0.6974
 1963TIP3    H2 5854   0.278  -0.013   2.800 -0.3091  0.3096  0.7026
 1964TIP3   OH2 5855   2.525   5.499   3.685 -0.3076 -0.2633  0.1008
 1964TIP3    H1 5856   2.434   5.470   3.689 -0.3029 -0.9637 -2.6896
 1964TIP3    H2 5857   2.573   5.425   3.647  1.9261 -0.7509  3.4169
 1965TIP3   OH2 5858   6.338   4.068   3.364  0.6387 -0.0261 -0.2488
 1965TIP3    H1 5859   6.393   4.004   3.319  0.8732 -0.3740  0.5043
 1965TIP3    H2 5860   6.394   4.102   3.434 -0.2865 -0.8832  0.9617
 1966TIP3   OH2 5861   1.500   5.862   1.154 -0.3017  0.8546  0.5690
 1966TIP3    H1 5862   1.559   5.902   1.219  2.0627  0.6193 -1.2771
 1966TIP3    H2 5863   1.515   5.914   1.074 -1.7680  0.0366 -0.2721
 1967TIP3   OH2 5864   6.629   3.766   5.866  0.4127 -0.2988 -0.1073
 1967TIP3    H1 5865   6.687   3.707   5.817 -0.3263 -0.7926 -0.3960
 1967TIP3    H2 5866   6.679   3.847   5.874  1.3789 -0.9028  0.1450
 1968TIP3   OH2 5867   3.561   0.555   3.946 -0.2023 -0.1597  0.6535
 1968TIP3    H1 5868   3.480   0.516   3.979 -1.2146  2.1875  1.1873
 1968TIP3    H2 5869   3.532   0.611   3.874  1.3624 -1.4504 -1.0551
 1969TIP3   OH2 5870   5.298   5.052   0.472  0.9021 -0.0704  0.2078
 1969TIP3    H1 5871   5.377   5.002   0.449  0.3231 -1.2449  0.6947
 1969TIP3    H2 5872   5.296   5.050   0.567  0.1127 -0.3356  0.1914
 1970TIP3   OH2 5873   5.541   4.728   4.435 -0.0145 -0.1497 -0.4149
 1970TIP3    H1 5874   5.471   4.790   4.417  2.7752  3.2845 -0.4198
 1970TIP3    H2 5875   5.570   4.697   4.349 -0.1239  0.1324 -0.5526
 1971TIP3   OH2 5876   4.631   6.553   2.731 -0.4538 -0.1908  0.8544
 1971TIP3    H1 5877   4.714   6.599   2.739 -1.1760  1.2943  0.1797
 1971TIP3    H2 5878   4.655   6.466   2.700  0.7745  0.7155 -0.9310
 1972TIP3   OH2 5879   5.934   3.868   3.400  0.3729  0.0339 -0.2865
 1972TIP3    H1 5880   5.945   3.962   3.390  0.2051  0.0118 -0.7273
 1972TIP3    H2 5881   5.992   3.830   3.334 -0.5641 -0.1283 -1.0527
 1973TIP3   OH2 5882   2.249   2.908   0.088 -0.1654  0.1925  0.2783
 1973TIP3    H1 5883   2.192   2.864   0.151 -0.5163  0.3605  0.0754
 1973TIP3    H2 5884   2.337   2.895   0.123 -0.2981 -0.3501  0.4167
 1974TIP3   OH2 5885   0.493   3.352   3.283 -0.1981  0.1090  0.1792
 1974TIP3    H1 5886   0.482   3.433   3.333 -1.9241  0.5752 -0.8655
 1974TIP3    H2 5887   0.575   3.315   3.315  0.7090  2.3296  0.6130
 1975TIP3   OH2 5888   4.684   0.898   4.577 -0.6734 -0.3366  0.6152
 1975TIP3    H1 5889   4.755   0.958   4.552 -1.5468  0.5149  0.1349
 1975TIP3    H2 5890   4.717   0.854   4.655  1.1959 -1.4031 -0.6833
 1976TIP3   OH2 5891   1.698   5.211   2.543 -0.3778 -0.2469 -0.2505
 1976TIP3    H1 5892   1.619   5.261   2.563  0.2188  0.7644 -0.3456
 1976TIP3    H2 5893   1.763   5.278   2.519  0.5571 -1.0421  0.0125
 1977TIP3   OH2 5894   4.892   5.851   5.894  0.4129 -0.3811  0.0311
 1977TIP3    H1 5895   4.957   5.821   5.957  0.2111  0.1229  0.4915
 1977TIP3    H2 5896   4.937   5.849   5.810  0.7965 -0.7174  0.2427
 1978TIP3   OH2 5897   5.105   4.796   1.882  0.2443  0.1696 -0.3938
 1978TIP3    H1 5898   5.012   4.772   1.883 -0.1797  1.7146 -0.2560
 1978TIP3    H2 5899   5.109   4.876   1.830  1.4469  0.3464 -0.0724
 1979TIP3   OH2 5900   4.208   3.663   3.184  0.2571 -0.0958 -0.3962
 1979TIP3    H1 5901   4.129   3.709   3.155  1.0953  3.3868  2.2182
 1979TIP3    H2 5902   4.181   3.616   3.263 -0.0826 -2.6201 -1.9018
 1980TIP3   OH2 5903   1.403   1.864   5.792  0.2999  0.4661 -0.5200
 1980TIP3    H1 5904   1.363   1.777   5.784 -2.5047  1.7149 -1.1912
 1980TIP3    H2 5905   1.429   1.887   5.703  2.4596 -0.2144 -0.1314
 1981TIP3   OH2 5906   6.408   5.284   0.799 -0.2331  0.0025 -0.5344
 1981TIP3    H1 5907   6.471   5.218   0.826 -1.0765 -0.7374 -0.3194
 1981TIP3    H2 5908   6.459   5.345   0.745  0.6552 -0.5696 -0.3695
 1982TIP3   OH2 5909   1.914   0.376   0.490 -0.2455  0.2733 -0.2659
 1982TIP3    H1 5910   1.873   0.403   0.572 -0.9404 -1.0660 -0.1410
 1982TIP3    H2 5911   2.006   0.400   0.500 -0.1133 -0.6985  1.3294
 1983TIP3   OH2 5912   4.094   1.824   2.461  0.4226  0.1106 -0.3496
 1983TIP3    H1 5913   4.041   1.835   2.541 -0.1164 -0.2968 -0.6394
 1983TIP3    H2 5914   4.122   1.732   2.464  1.1118  0.3256 -0.2044
 1984TIP3   OH2 5915   4.129   6.038   1.718  0.3236  0.4735 -0.4044
 1984TIP3    H1 5916   4.072   5.961   1.716  0.3038  0.4917 -1.9945
 1984TIP3    H2 5917   4.218   6.002   1.711  0.4658  0.5103  0.9030
 1985TIP3   OH2 5918   3.788   1.705   3.122 -0.2005  0.3576  0.5772
 1985TIP3    H1 5919   3.815   1.643   3.190 -1.0202 -1.5300 -0.7317
 1985TIP3    H2 5920   3.744   1.651   3.057  0.4862  2.0974 -1.4327
 1986TIP3   OH2 5921   3.225   5.232   5.634 -0.2386  0.6439  1.5013
 1986TIP3    H1 5922   3.141   5.268   5.663 -0.1733  1.7600  0.4349
 1986TIP3    H2 5923   3.291   5.292   5.669 -0.0207  0.7755  0.8875
 1987TIP3   OH2 5924   2.308   0.029   2.896  0.3286 -1.1811  0.1502
 1987TIP3    H1 5925   2.248   0.089   2.853 -0.4059 -0.8039  1.6085
 1987TIP3    H2 5926   2.364   0.085   2.950 -0.2594 -1.7360  1.4048
 1988TIP3   OH2 5927   6.069   4.780   2.451  0.1572  0.1727  0.4057
 1988TIP3    H1 5928   6.141   4.826   2.408  0.7380 -1.4178 -0.4034
 1988TIP3    H2 5929   5.992   4.802   2.398  0.5813 -0.4231 -0.4971
 1989TIP3   OH2 5930   4.116   5.662   0.448  0.5332 -0.0279  0.2274
 1989TIP3    H1 5931   4.169   5.736   0.478  0.1771  0.9532 -1.4048
 1989TIP3    H2 5932   4.072   5.695   0.369 -2.3581 -0.8656  1.3812
 1990TIP3   OH2 5933   6.517   0.230   0.879 -0.8392 -0.3651  0.7609
 1990TIP3    H1 5934   6.459   0.305   0.871 -2.3396 -1.5218  0.3491
 1990TIP3    H2 5935   6.516   0.190   0.792  1.3281  0.0907  0.4717
 1991TIP3   OH2 5936   4.156   3.198   2.256  0.3201 -0.8374 -0.0306
 1991TIP3    H1 5937   4.075   3.241   2.231 -0.7974 -2.2289  1.0530
 1991TIP3    H2 5938   4.224   3.263   2.237 -1.1515  0.9078  0.3855
 1992TIP3   OH2 5939   5.980   5.585   1.434 -0.2809 -0.5184 -0.0693
 1992TIP3    H1 5940   5.942   5.526   1.500 -1.6404  0.2021 -0.1744
 1992TIP3    H2 5941   6.058   5.539   1.403 -1.0445 -2.0461  0.1966
 1993TIP3   OH2 5942   0.234   6.756   5.623 -0.5034 -0.2068  0.2842
 1993TIP3    H1 5943   0.171   6.772   5.553  0.8394  1.6028 -0.6278
 1993TIP3    H2 5944   0.303   6.821   5.607  0.7989 -1.0475  2.1584
 1994TIP3   OH2 5945   2.349   2.436   3.877 -0.0354  0.2699  0.2293
 1994TIP3    H1 5946   2.372   2.445   3.970 -0.9664  0.7974  0.4205
 1994TIP3    H2 5947   2.434   2.430   3.832  0.5104  1.8852  0.9417
 1995TIP3   OH2 5948   1.970   2.309   0.893 -0.2050  0.0985  0.3366
 1995TIP3    H1 5949   1.945   2.287   0.983 -2.8924  0.5445 -0.1940
 1995TIP3    H2 5950   1.899   2.272   0.840 -0.2598  2.4056 -1.3200
 1996TIP3   OH2 5951   2.644   5.272   0.892 -0.4451 -0.4407  0.2156
 1996TIP3    H1 5952   2.575   5.215   0.927 -2.4559  2.3322  1.1126
 1996TIP3    H2 5953   2.609   5.302   0.808  0.8200 -0.8896 -0.4979
 1997TIP3   OH2 5954   6.254   6.157   3.505  0.0352  0.2287  0.0267
 1997TIP3    H1 5955   6.323   6.101   3.469 -0.5472 -0.0445 -0.6997
 1997TIP3    H2 5956   6.184   6.096   3.530 -0.3777  0.5826 -0.2505
 1998TIP3   OH2 5957   1.343   5.796   5.078  0.2636  0.3453  0.1660
 1998TIP3    H1 5958   1.421   5.819   5.027 -0.6078  3.9753  0.1884
 1998TIP3    H2 5959   1.270   5.827   5.025 -0.9487  0.0588  1.6065
 1999TIP3   OH2 5960   2.644   4.354   2.911  0.5028 -0.3594 -0.4269
 1999TIP3    H1 5961   2.678   4.438   2.881 -0.3875  0.1773  0.0363
 1999TIP3    H2 5962   2.605   4.315   2.832 -0.4700  0.3654 -0.3143
 2000TIP3   OH2 5963   6.088   6.381   2.956  0.3283  0.3485  0.0852
 2000TIP3    H1 5964   6.097   6.443   3.029  3.4410 -0.6617  0.7355
 2000TIP3    H2 5965   6.175   6.380   2.915  0.4312 -3.4354  0.0610
 2001TIP3   OH2 5966   4.042   3.641   0.986 -0.0530  0.2630  0.7866
 2001TIP3    H1 5967   3.968   3.701   0.979  0.3368  0.7778  0.9910
 2001TIP3    H2 5968   4.028   3.594   1.068 -1.3089 -1.2446 -0.2363
 2002TIP3   OH2 5969   5.281   5.444   4.121 -0.3530  0.0133  0.0713
 2002TIP3    H1 5970   5.197   5.402   4.106  0.4957 -1.2525 -1.3448
 2002TIP3    H2 5971   5.264   5.537   4.105 -1.4241 -0.2475 -0.3879
 2003TIP3   OH2 5972   5.389   0.821   4.382  0.4602  0.4313 -0.1671
 2003TIP3    H1 5973   5.470   0.779   4.352  0.7878  0.3003  0.8746
 2003TIP3    H2 5974   5.373   0.784   4.469 -0.0171  1.4126  0.1770
 2004TIP3   OH2 5975   0.862   0.738   3.373 -0.1893 -0.3678  0.2787
 2004TIP3    H1 5976   0.908   0.666   3.331 -0.5283 -0.4757  0.0910
 2004TIP3    H2 5977   0.812   0.697   3.443 -3.1976 -0.8913 -1.9749
 2005TIP3   OH2 5978   5.928   3.915   5.788 -0.6465 -0.2713  0.3559
 2005TIP3    H1 5979   5.855   3.853   5.789 -1.2917  0.4626 -0.0083
 2005TIP3    H2 5980   5.912   3.969   5.711  0.9912 -0.9053 -0.4757
 2006TIP3   OH2 5981   7.093   5.636   3.593 -0.2729  0.4222  0.2703
 2006TIP3    H1 5982   7.038   5.615   3.668 -1.1587 -1.1851 -0.7640
 2006TIP3    H2 5983   7.182   5.632   3.627 -0.7046  1.3596  1.5845
 2007TIP3   OH2 5984   2.054   0.995   2.753 -0.4746 -0.4594  0.2359
 2007TIP3    H1 5985   1.964   0.972   2.776 -1.3564  0.5743 -1.8919
 2007TIP3    H2 5986   2.047   1.082   2.714  1.2993 -0.8306 -1.0155
 2008TIP3   OH2 5987   7.183   0.238   4.566  0.1873  0.2205  0.3045
 2008TIP3    H1 5988   7.122   0.289   4.619  0.9423  1.4260  0.0622
 2008TIP3    H2 5989   7.130   0.169   4.528 -0.7496  0.4435  1.1473
 2009TIP3   OH2 5990   3.039   2.040   5.516  0.2121  0.3714  0.3375
 2009TIP3    H1 5991   2.946   2.041   5.494  0.0045  2.0889  1.1371
 2009TIP3    H2 5992   3.072   1.961   5.474 -1.8688 -1.0428  1.1823
 2010TIP3   OH2 5993   3.426   1.880   4.852 -0.3277  0.2851 -0.3325
 2010TIP3    H1 5994   3.499   1.921   4.897  0.5283 -1.6862  0.1602
 2010TIP3    H2 5995   3.348   1.913   4.897  0.2606  1.7192 -0.2994
 2011TIP3   OH2 5996   4.420   3.215   1.903  0.1810  0.1346 -0.3612
 2011TIP3    H1 5997   4.327   3.232   1.894 -0.2407 -1.4998  0.4536
 2011TIP3    H2 5998   4.426   3.121   1.921  1.9045  0.3717  0.6076
 2012TIP3   OH2 5999   4.160   0.710   3.693 -0.1607  0.0282  0.2825
 2012TIP3    H1 6000   4.103   0.787   3.686 -2.5254 -1.5549  0.9033
 2012TIP3    H2 6001   4.171   0.698   3.788  0.5493 -0.1669  0.1796
 2013TIP3   OH2 6002   6.738   3.310   1.194 -0.8221 -0.0201 -0.4878
 2013TIP3    H1 6003   6.678   3.384   1.200 -0.3874  0.2852  0.2828
 2013TIP3    H2 6004   6.724   3.261   1.275 -1.0519 -0.7521 -0.9574
 2014TIP3   OH2 6005   2.654   0.055   5.035  0.7203  0.0763 -0.1269
 2014TIP3    H1 6006   2.577   0.042   5.090 -0.2511  1.6258 -1.0282
 2014TIP3    H2 6007   2.726   0.069   5.096  0.4301 -1.9524  0.7424
 2015TIP3   OH2 6008   2.602   3.630  -0.001 -0.1026  0.7389  0.6193
 2015TIP3    H1 6009   2.531   3.665  -0.054 -0.0061  0.3933  0.2559
 2015TIP3    H2 6010   2.611   3.691   0.072  0.0499  1.4570  0.0041
 2016TIP3   OH2 6011   0.646   6.404   5.637 -0.2868 -0.6169 -0.8148
 2016TIP3    H1 6012   0.667   6.420   5.729  0.7791 -0.4929 -1.0749
 2016TIP3    H2 6013   0.603   6.318   5.637  0.7106 -1.1329 -0.3336
 2017TIP3   OH2 6014   5.484   4.388   1.874  0.3707 -0.8781 -0.6873
 2017TIP3    H1 6015   5.395   4.352   1.870  1.1769 -2.9085 -2.5526
 2017TIP3    H2 6016   5.487   4.451   1.802  0.1740 -0.0509  0.0140
 2018TIP3   OH2 6017   5.999   6.462   1.594  0.1860  0.4133  0.0212
 2018TIP3    H1 6018   5.922   6.514   1.573 -0.4889 -0.1093  1.1153
 2018TIP3    H2 6019   5.987   6.437   1.685  0.4562 -1.6703 -0.4566
 2019TIP3   OH2 6020   5.905   4.859   1.902  0.3107  0.3950  0.0967
 2019TIP3    H1 6021   5.930   4.924   1.968 -1.8648  0.0935  1.2759
 2019TIP3    H2 6022   5.942   4.777   1.934  1.1261  0.6149 -0.2365
 2020TIP3   OH2 6023   3.056   0.563   1.719 -0.3926  0.3719 -0.4353
 2020TIP3    H1 6024   3.133   0.513   1.692 -0.0064  1.0715 -0.6703
 2020TIP3    H2 6025   3.077   0.653   1.694 -1.9875  0.3423 -2.1250
 2021TIP3   OH2 6026   2.477   3.433   2.589  0.1153  0.5462  0.2622
 2021TIP3    H1 6027   2.477   3.509   2.532 -0.2369 -0.7566 -1.5614
 2021TIP3    H2 6028   2.561   3.436   2.634  1.1135  0.7571 -1.5494
 2022TIP3   OH2 6029   3.840   3.576   2.572  0.2263  0.0756  0.1385
 2022TIP3    H1 6030   3.852   3.525   2.492 -2.3809 -1.1960  0.4520
 2022TIP3    H2 6031   3.848   3.511   2.643  2.6622  1.2059  1.0043
 2023TIP3   OH2 6032   2.615   3.591   5.394  0.2614  0.0015 -0.1809
 2023TIP3    H1 6033   2.579   3.538   5.465  0.9848 -0.5712 -0.2212
 2023TIP3    H2 6034   2.663   3.528   5.339  1.1214  0.6799 -0.2423
 2024TIP3   OH2 6035   2.489   2.629   1.232  0.3194  0.1871  0.1463
 2024TIP3    H1 6036   2.563   2.617   1.173  0.5747 -1.6826  0.7975
 2024TIP3    H2 6037   2.467   2.722   1.224  2.8758  0.8501  0.1001
 2025TIP3   OH2 6038   6.515   3.467   1.818  0.2310 -0.2069  0.3621
 2025TIP3    H1 6039   6.537   3.373   1.822  1.3993 -0.0566 -1.4163
 2025TIP3    H2 6040   6.584   3.509   1.870  0.5905 -0.2199 -0.1013
 2026TIP3   OH2 6041   1.190   1.711   5.646 -0.2002  0.7117  0.2774
 2026TIP3    H1 6042   1.168   1.772   5.576 -0.4392  0.1781 -0.1131
 2026TIP3    H2 6043   1.122   1.644   5.643 -0.6872  1.1018  1.5433
 2027TIP3   OH2 6044   6.992   2.388   1.223 -0.2010  0.3746  0.2924
 2027TIP3    H1 6045   6.963   2.469   1.267 -0.1577  0.6925 -0.2580
 2027TIP3    H2 6046   6.951   2.318   1.273 -1.7044  0.7992 -0.2959
 2028TIP3   OH2 6047   1.790   1.193   1.678 -0.4011  0.4464 -0.4753
 2028TIP3    H1 6048   1.721   1.138   1.641  0.9781 -1.0846 -0.9127
 2028TIP3    H2 6049   1.841   1.222   1.603 -0.2323  1.1029 -0.1144
 2029TIP3   OH2 6050   6.708   2.274   3.305 -0.5624 -0.2822  0.0765
 2029TIP3    H1 6051   6.691   2.309   3.393 -1.4806 -0.3662 -0.0635
 2029TIP3    H2 6052   6.783   2.215   3.317 -0.2592  0.2142  0.6751
 2030TIP3   OH2 6053   1.086   4.614   1.377  0.0193  0.2762  0.3453
 2030TIP3    H1 6054   1.147   4.541   1.389 -0.3715  0.0381  0.8968
 2030TIP3    H2 6055   1.061   4.639   1.465 -1.6659 -0.4702  0.1174
 2031TIP3   OH2 6056   4.285   3.236   3.210 -0.2736 -0.4344  0.4646
 2031TIP3    H1 6057   4.329   3.161   3.249 -0.5601  0.3857  2.4905
 2031TIP3    H2 6058   4.296   3.306   3.274 -2.2922  0.5109 -0.1524
 2032TIP3   OH2 6059   0.973   3.723   3.951 -0.2257  0.3603 -0.6030
 2032TIP3    H1 6060   1.005   3.646   3.903  1.9013  1.1745 -0.6051
 2032TIP3    H2 6061   0.971   3.793   3.885  1.9294  1.2856  0.2050
 2033TIP3   OH2 6062   7.233   6.016   0.052  0.1537  0.1649  0.0193
 2033TIP3    H1 6063   7.184   5.986  -0.025 -0.3001  0.4285  0.1987
 2033TIP3    H2 6064   7.170   6.010   0.123  0.4220  0.3980  0.2776
 2034TIP3   OH2 6065   3.075   1.815   3.624 -0.0425  0.2056 -0.0947
 2034TIP3    H1 6066   3.072   1.906   3.597  0.9063  0.3163  0.1185
 2034TIP3    H2 6067   3.063   1.817   3.719  0.3913  0.1592 -0.0328
 2035TIP3   OH2 6068   1.100   2.698   3.625  0.4195  0.3727  0.1933
 2035TIP3    H1 6069   1.090   2.658   3.711 -0.0671 -0.0973 -0.0768
 2035TIP3    H2 6070   1.188   2.675   3.597  1.3594  2.2235  1.4152
 2036TIP3   OH2 6071   3.153   3.847   4.220  0.4622  0.4533  0.3210
 2036TIP3    H1 6072   3.240   3.879   4.197  1.4355 -3.1602 -1.9242
 2036TIP3    H2 6073   3.169   3.772   4.277 -1.3696  0.8653  1.4921
 2037TIP3   OH2 6074   1.780   5.600   4.502  0.9619  0.0558 -0.4047
 2037TIP3    H1 6075   1.866   5.561   4.522  1.7728  0.1648 -3.3289
 2037TIP3    H2 6076   1.757   5.647   4.582  3.1155 -0.8619  0.8600
 2038TIP3   OH2 6077   5.308   6.613   5.799  0.4553  0.3172 -0.1496
 2038TIP3    H1 6078   5.278   6.645   5.714  0.7643  0.0817 -0.3480
 2038TIP3    H2 6079   5.288   6.684   5.859 -1.8427 -0.3491 -0.0009
 2039TIP3   OH2 6080   3.101   0.912   2.362  0.3844 -0.1083 -0.3880
 2039TIP3    H1 6081   3.044   0.835   2.356  0.9636 -0.6082  0.4525
 2039TIP3    H2 6082   3.190   0.877   2.364  0.7733  0.6775 -1.9179
 2040TIP3   OH2 6083   0.974   1.242   4.247  0.0045  0.1487 -0.5216
 2040TIP3    H1 6084   0.905   1.234   4.181 -0.9232 -1.0319  0.5417
 2040TIP3    H2 6085   0.941   1.308   4.308 -1.3593 -2.0535  1.2736
 2041TIP3   OH2 6086   2.806   4.759   0.421  0.1668  0.0598  0.4741
 2041TIP3    H1 6087   2.792   4.769   0.327 -0.0060 -1.2185  0.3427
 2041TIP3    H2 6088   2.718   4.761   0.459  0.1760 -0.2622  0.5134
 2042TIP3   OH2 6089   6.822   6.446   2.100  1.0967 -0.1278 -0.2813
 2042TIP3    H1 6090   6.913   6.474   2.102  0.5542  1.7936  0.6603
 2042TIP3    H2 6091   6.788   6.480   2.017  0.5341  1.8727  0.6958
 2043TIP3   OH2 6092   3.580   6.663   4.164  0.4291 -0.2443 -0.2469
 2043TIP3    H1 6093   3.610   6.595   4.104  0.5773  0.7842 -1.4029
 2043TIP3    H2 6094   3.655   6.723   4.171 -0.0692  0.3802 -0.1553
 2044TIP3   OH2 6095   5.749   3.887   2.602 -0.1037 -0.0224 -0.4715
 2044TIP3    H1 6096   5.733   3.845   2.517 -0.9492  0.7249 -0.6903
 2044TIP3    H2 6097   5.844   3.892   2.608 -0.0326  0.7244 -1.7945
 2045TIP3   OH2 6098   0.468  -0.007   4.356  0.3249 -0.0033 -0.3607
 2045TIP3    H1 6099   0.427  -0.020   4.441 -0.9842  1.5407 -0.7055
 2045TIP3    H2 6100   0.509   0.080   4.363  2.2190 -0.8410 -0.5566
 2046TIP3   OH2 6101   0.080   3.265   3.875  0.0826 -0.3015  0.0493
 2046TIP3    H1 6102   0.066   3.212   3.953  0.6546  0.7826  0.9132
 2046TIP3    H2 6103   0.163   3.234   3.839 -0.5636 -1.3440 -0.6108
 2047TIP3   OH2 6104   4.851   3.905   3.322  0.3652  0.5737 -0.2755
 2047TIP3    H1 6105   4.873   3.859   3.403 -1.2878  0.9836  0.4384
 2047TIP3    H2 6106   4.832   3.836   3.259 -0.7270  0.2506  0.3883
 2048TIP3   OH2 6107   1.864   2.537   5.417  0.1939 -0.3738 -0.1413
 2048TIP3    H1 6108   1.797   2.570   5.477  0.1487  0.4963 -0.6567
 2048TIP3    H2 6109   1.889   2.613   5.364 -0.5770 -1.3362 -1.9905
 2049TIP3   OH2 6110   2.216   3.370   4.822 -0.0750  0.1302  0.2035
 2049TIP3    H1 6111   2.274   3.326   4.760 -1.3332  0.4430 -1.2820
 2049TIP3    H2 6112   2.243   3.338   4.908  0.9525 -1.2682 -0.5911
 2050TIP3   OH2 6113   0.257   1.333   0.649 -0.1758  0.0920 -0.0453
 2050TIP3    H1 6114   0.295   1.346   0.562  0.9795  0.3682  0.4898
 2050TIP3    H2 6115   0.306   1.260   0.687  1.1764  1.6529  1.3746
 2051TIP3   OH2 6116   4.317   1.782   3.228  0.7653  0.1472  0.4235
 2051TIP3    H1 6117   4.406   1.764   3.198 -0.1183  0.8741 -3.1587
 2051TIP3    H2 6118   4.270   1.700   3.215  0.5732  0.2009  0.7701
 2052TIP3   OH2 6119   3.765   1.576   2.346 -0.1046 -0.3815  0.7650
 2052TIP3    H1 6120   3.756   1.482   2.358 -1.4840 -0.2744  0.8057
 2052TIP3    H2 6121   3.753   1.612   2.434  2.1953 -0.2366  1.0649
 2053TIP3   OH2 6122   5.828   0.697   2.086 -0.1004  0.0273  0.0493
 2053TIP3    H1 6123   5.860   0.783   2.058  2.8865 -1.0603 -0.2354
 2053TIP3    H2 6124   5.737   0.695   2.057  0.6440  1.8682 -2.9125
 2054TIP3   OH2 6125   4.864   1.752   3.125  0.4088 -0.0146 -0.0786
 2054TIP3    H1 6126   4.908   1.780   3.205 -0.9533 -0.1818  0.7627
 2054TIP3    H2 6127   4.840   1.834   3.081 -0.5252  0.1167  0.6535
 2055TIP3   OH2 6128   5.082   0.502   5.479 -0.0344 -0.5428 -0.1446
 2055TIP3    H1 6129   5.055   0.493   5.388 -0.1705  0.7631 -0.2535
 2055TIP3    H2 6130   5.115   0.591   5.486  1.6794 -1.1982  0.6707
 2056TIP3   OH2 6131   4.429   0.132   5.886 -0.0045 -0.4989 -0.2352
 2056TIP3    H1 6132   4.514   0.102   5.853 -0.3346 -1.0323 -0.6183
 2056TIP3    H2 6133   4.417   0.219   5.847  0.3329 -0.4443 -0.2221
 2057TIP3   OH2 6134   1.806   2.923   2.886 -0.3958  0.0861 -0.3274
 2057TIP3    H1 6135   1.764   2.965   2.961  1.2099  0.0166  0.6451
 2057TIP3    H2 6136   1.777   2.832   2.890  1.2449 -0.4224  1.4568
 2058TIP3   OH2 6137   0.111   3.492   2.435  0.6220  0.1136 -0.1582
 2058TIP3    H1 6138   0.156   3.480   2.519  1.8303 -1.8836 -1.0008
 2058TIP3    H2 6139   0.053   3.416   2.429  2.8396 -1.5986 -2.4020
 2059TIP3   OH2 6140   2.667   2.868   5.184  0.1900 -0.6703 -0.2976
 2059TIP3    H1 6141   2.631   2.815   5.256  1.0454 -2.7633 -1.3405
 2059TIP3    H2 6142   2.710   2.805   5.127  1.9034  1.2665 -1.2624
 2060TIP3   OH2 6143   3.240   4.752   3.569 -0.1893  0.0552 -0.7074
 2060TIP3    H1 6144   3.264   4.795   3.651 -2.8261 -0.0525  0.2125
 2060TIP3    H2 6145   3.191   4.818   3.520  0.0278 -0.3690 -1.5208
 2061TIP3   OH2 6146   1.706   1.685   4.764  0.2851  0.2439 -0.1115
 2061TIP3    H1 6147   1.783   1.668   4.711 -0.2638  1.9413 -1.5546
 2061TIP3    H2 6148   1.658   1.754   4.717 -0.2656  1.8565  2.5446
 2062TIP3   OH2 6149   0.554   2.302   1.544  0.5403 -0.1821  0.5509
 2062TIP3    H1 6150   0.576   2.349   1.624  0.1600  1.2040 -0.1241
 2062TIP3    H2 6151   0.466   2.332   1.522  0.6564 -0.5145 -0.4073
 2063TIP3   OH2 6152   7.010   0.729   2.182  0.1620  0.3583 -0.6098
 2063TIP3    H1 6153   7.022   0.777   2.264 -0.0550 -1.1237  0.3252
 2063TIP3    H2 6154   6.916   0.733   2.166  0.1505  0.3027 -0.5586
 2064TIP3   OH2 6155   3.327   1.054   2.546 -0.4322  0.0958  0.1774
 2064TIP3    H1 6156   3.410   1.089   2.579  1.0459 -1.9089 -1.1974
 2064TIP3    H2 6157   3.293   1.122   2.488  0.5191  0.7494  0.3742
 2065TIP3   OH2 6158   6.952   3.154   5.433  0.1247 -0.1465 -0.3209
 2065TIP3    H1 6159   6.948   3.099   5.511 -0.1453 -2.3862 -1.8216
 2065TIP3    H2 6160   7.046   3.169   5.419  0.2116 -0.3596  0.0268
 2066TIP3   OH2 6161   5.638   6.211   4.635 -0.0539  0.7214  0.4194
 2066TIP3    H1 6162   5.713   6.246   4.586 -0.0030  0.8391  0.5793
 2066TIP3    H2 6163   5.636   6.118   4.613  0.8706  0.4552  1.3419
 2067TIP3   OH2 6164   6.981   3.264   5.046  0.4633  0.0614 -0.3992
 2067TIP3    H1 6165   6.993   3.238   4.954  0.0103  1.8328 -0.9853
 2067TIP3    H2 6166   7.032   3.344   5.055 -0.8075  0.7955  0.4677
 2068TIP3   OH2 6167   3.289   0.602   0.108  0.3551 -0.8422 -0.3251
 2068TIP3    H1 6168   3.216   0.541   0.104  0.1664 -0.5377 -2.2435
 2068TIP3    H2 6169   3.366   0.548   0.092  0.5897 -1.1230  1.4717
 2069TIP3   OH2 6170   0.427   4.653   0.296  0.3808 -0.2908 -0.2961
 2069TIP3    H1 6171   0.488   4.580   0.309  1.9038  0.9563 -0.1784
 2069TIP3    H2 6172   0.429   4.701   0.379  2.2257  1.9159 -1.5240
 2070TIP3   OH2 6173   0.816   3.197   0.359 -0.4559 -0.0951 -0.5093
 2070TIP3    H1 6174   0.857   3.247   0.289 -2.6794  3.9096  0.7644
 2070TIP3    H2 6175   0.772   3.124   0.315 -0.0774  1.0995 -3.0004
 2071TIP3   OH2 6176   1.997   4.362   1.844  0.0122  0.4372  0.3849
 2071TIP3    H1 6177   1.926   4.316   1.889  0.1833  1.5570  1.8440
 2071TIP3    H2 6178   2.028   4.299   1.778 -2.7988  0.1601 -0.8280
 2072TIP3   OH2 6179   2.720   0.619   0.437 -0.0597  0.6184  0.1568
 2072TIP3    H1 6180   2.776   0.675   0.489  0.5221  0.6661 -0.5065
 2072TIP3    H2 6181   2.653   0.677   0.401 -0.7263  0.5089  1.1926
 2073TIP3   OH2 6182   2.929   4.087   3.875 -0.0304 -0.1385  0.1202
 2073TIP3    H1 6183   2.902   4.178   3.883  0.1872 -0.1535  1.2652
 2073TIP3    H2 6184   2.981   4.071   3.954  1.5723 -0.6935 -0.9833
 2074TIP3   OH2 6185   5.884   1.575   0.886  0.4494  0.8544  0.0583
 2074TIP3    H1 6186   5.968   1.596   0.927 -0.5449  0.6218  2.4109
 2074TIP3    H2 6187   5.872   1.641   0.818  1.7642  1.9055  0.8092
 2075TIP3   OH2 6188   3.418   0.715   3.121  0.2299  0.0240  0.2115
 2075TIP3    H1 6189   3.328   0.739   3.142 -0.1838  0.0422 -1.4537
 2075TIP3    H2 6190   3.443   0.652   3.188 -0.1878  1.7572  2.0672
 2076TIP3   OH2 6191   3.007   0.256   0.787 -0.6146 -0.1769  0.4477
 2076TIP3    H1 6192   2.929   0.309   0.772 -1.2202 -0.6134  1.8817
 2076TIP3    H2 6193   2.997   0.223   0.876  0.5231 -1.3988  0.1584
 2077TIP3   OH2 6194   2.357   3.518   1.887 -0.1149  0.4484  0.0626
 2077TIP3    H1 6195   2.333   3.597   1.935 -0.0805  1.6008 -1.7089
 2077TIP3    H2 6196   2.274   3.486   1.851  0.2340  1.5604 -1.8753
 2078TIP3   OH2 6197   7.053   5.548   3.108  0.0003 -0.3573 -0.0682
 2078TIP3    H1 6198   7.037   5.642   3.118 -1.0542 -0.3959 -1.1384
 2078TIP3    H2 6199   7.107   5.525   3.184 -0.6831  0.8869  0.8465
 2079TIP3   OH2 6200   1.857   3.198   5.789  0.0367 -0.2350 -0.3860
 2079TIP3    H1 6201   1.840   3.291   5.777 -0.9805 -0.3980 -0.3047
 2079TIP3    H2 6202   1.872   3.164   5.701  0.9009  0.0869 -0.3715
 2080TIP3   OH2 6203   1.439   3.585   2.665  0.3623 -0.0913 -0.4939
 2080TIP3    H1 6204   1.499   3.646   2.623 -1.7991  2.2776 -0.4184
 2080TIP3    H2 6205   1.373   3.567   2.597 -0.1025 -0.7667  0.1294
 2081TIP3   OH2 6206   5.651   0.551   1.036  0.0458  0.5074  0.2275
 2081TIP3    H1 6207   5.651   0.475   1.095  1.5984  0.4027  0.1447
 2081TIP3    H2 6208   5.684   0.622   1.090  0.3528  0.6860 -0.1902
 2082TIP3   OH2 6209   5.880   5.241   2.460 -0.4073 -0.1551  0.5576
 2082TIP3    H1 6210   5.959   5.231   2.407  0.6359  0.4065  1.9381
 2082TIP3    H2 6211   5.818   5.286   2.403  0.9235  1.0764  0.0214
 2083TIP3   OH2 6212   6.195   3.859   4.272  0.2381  0.0876  0.1203
 2083TIP3    H1 6213   6.208   3.812   4.189  0.4944  1.2223 -0.5086
 2083TIP3    H2 6214   6.274   3.913   4.280  0.8106 -0.9146  1.7511
 2084TIP3   OH2 6215   5.542   0.739   5.817  0.3780 -0.1629 -0.0101
 2084TIP3    H1 6216   5.576   0.776   5.899  2.1324  0.9678 -1.1767
 2084TIP3    H2 6217   5.448   0.730   5.832  0.5879  0.4380  1.9671
 2085TIP3   OH2 6218   3.860   2.894   3.671 -0.3529 -0.3968  0.3144
 2085TIP3    H1 6219   3.779   2.926   3.712 -0.3825 -0.5582  0.3811
 2085TIP3    H2 6220   3.906   2.849   3.741 -0.4943 -0.8426  0.1196
 2086TIP3   OH2 6221   6.662   1.189   4.829 -0.6206 -0.2361  0.1278
 2086TIP3    H1 6222   6.625   1.208   4.916 -1.0975 -1.3975  0.2022
 2086TIP3    H2 6223   6.706   1.105   4.840 -0.3477 -0.2001 -0.6691
 2087TIP3   OH2 6224   6.287   6.096   3.006 -0.5061 -0.3044 -0.5426
 2087TIP3    H1 6225   6.380   6.080   3.019 -0.1813  2.5909  1.7834
 2087TIP3    H2 6226   6.284   6.174   2.950 -1.3624  1.2820  1.5907
 2088TIP3   OH2 6227   2.538   5.874   3.287 -0.0134  0.1890  0.1720
 2088TIP3    H1 6228   2.529   5.956   3.336  1.8185  0.2786  0.4238
 2088TIP3    H2 6229   2.526   5.806   3.353 -3.6080  0.0967 -0.3704
 2089TIP3   OH2 6230   0.564   5.544   3.072  0.0968  0.6211 -0.4321
 2089TIP3    H1 6231   0.480   5.506   3.048 -0.7265  2.0999 -0.0216
 2089TIP3    H2 6232   0.570   5.532   3.167 -0.1116  1.3902 -0.3194
 2090TIP3   OH2 6233   1.751   6.468   1.123  0.2974  0.2544  0.0582
 2090TIP3    H1 6234   1.753   6.517   1.205 -0.3640 -0.3639  0.4539
 2090TIP3    H2 6235   1.768   6.533   1.056 -2.2582  1.3942  0.4090
 2091TIP3   OH2 6236   0.355   0.048   3.197  0.3246  0.4305  0.1182
 2091TIP3    H1 6237   0.349   0.143   3.201  0.9056  0.4839 -0.1805
 2091TIP3    H2 6238   0.439   0.031   3.153 -0.3994 -0.2057 -1.0452
 2092TIP3   OH2 6239   2.144   1.534   2.589 -0.6447 -0.5631 -0.1149
 2092TIP3    H1 6240   2.169   1.452   2.631 -0.4978 -0.8113 -0.6864
 2092TIP3    H2 6241   2.048   1.531   2.587 -0.7232 -0.0554  1.1701
 2093TIP3   OH2 6242   2.410   5.137   0.960 -0.1873 -0.4888  0.1808
 2093TIP3    H1 6243   2.340   5.152   0.897  0.3106 -0.2124 -0.3206
 2093TIP3    H2 6244   2.382   5.060   1.010 -1.0726 -0.0831  0.3237
 2094TIP3   OH2 6245   1.892   6.677   1.524 -0.0733  0.8494 -0.8134
 2094TIP3    H1 6246   1.950   6.750   1.503  0.5641  0.3699 -0.7643
 2094TIP3    H2 6247   1.949   6.614   1.568 -0.5051  0.1220 -1.2808
 2095TIP3   OH2 6248   5.002   5.912   3.338  0.2172  0.1551 -0.0572
 2095TIP3    H1 6249   4.949   5.927   3.259  0.7375  0.3331 -0.3804
 2095TIP3    H2 6250   5.011   5.998   3.378  0.9982  0.2869 -0.4877
 2096TIP3   OH2 6251   6.266   1.222   4.034  0.4818 -0.3256 -0.9542
 2096TIP3    H1 6252   6.199   1.173   3.984  0.0998 -0.0359 -0.7329
 2096TIP3    H2 6253   6.348   1.178   4.012  0.2153 -0.7186 -1.1989
 2097TIP3   OH2 6254   6.546   0.340   3.938  0.0744  0.3318  0.0036
 2097TIP3    H1 6255   6.504   0.353   3.853 -0.7722  0.4033  0.4229
 2097TIP3    H2 6256   6.595   0.258   3.929  1.8818  1.4611 -1.2701
 2098TIP3   OH2 6257   0.354   1.642   5.143  0.1536  0.3586 -0.0167
 2098TIP3    H1 6258   0.448   1.628   5.131  0.2884  1.2635 -0.0294
 2098TIP3    H2 6259   0.347   1.730   5.180 -0.6863  0.2641  0.0700
 2099TIP3   OH2 6260   0.391   1.909   0.405  1.0743  0.0343  0.2532
 2099TIP3    H1 6261   0.336   1.892   0.329  1.1928 -1.2509  0.4177
 2099TIP3    H2 6262   0.401   2.004   0.408  0.5172  0.1446 -0.9352
 2100TIP3   OH2 6263   0.355   4.818   4.866  0.3665 -0.0971 -0.1586
 2100TIP3    H1 6264   0.417   4.804   4.938  1.4500  1.4793 -0.7308
 2100TIP3    H2 6265   0.270   4.799   4.904  0.7338  2.1623  2.0845
 2101TIP3   OH2 6266   5.685   3.455   2.133  0.2905 -0.0771 -0.6075
 2101TIP3    H1 6267   5.638   3.372   2.127  1.5404 -0.9517  0.9230
 2101TIP3    H2 6268   5.751   3.441   2.201 -0.3580  2.6248  0.7210
 2102TIP3   OH2 6269   0.819   5.574   3.645 -0.6431  0.5554  0.3255
 2102TIP3    H1 6270   0.805   5.497   3.591  0.2620  0.9890 -0.5703
 2102TIP3    H2 6271   0.887   5.624   3.599 -0.8289  1.6240  1.1495
 2103TIP3   OH2 6272   2.495   1.697   3.386  0.6433  0.4568  0.1056
 2103TIP3    H1 6273   2.411   1.731   3.416  1.2712  0.5312  1.8500
 2103TIP3    H2 6274   2.472   1.640   3.312 -0.7451  1.8755 -0.6220
 2104TIP3   OH2 6275   4.504   1.758   4.635 -0.1209  0.0035 -0.1350
 2104TIP3    H1 6276   4.510   1.851   4.616 -0.7488  0.2970  1.0334
 2104TIP3    H2 6277   4.585   1.737   4.681 -0.3724  0.1772  0.3946
 2105TIP3   OH2 6278   2.542   5.371   0.657  0.7484  0.0736 -0.3096
 2105TIP3    H1 6279   2.603   5.444   0.643 -0.7307  1.1780 -1.3310
 2105TIP3    H2 6280   2.525   5.337   0.569  0.5136 -0.7546  0.0449
 2106TIP3   OH2 6281   0.904   3.060   4.167  0.7513 -0.0287  0.2777
 2106TIP3    H1 6282   0.812   3.086   4.169  1.0770  1.1499  0.6044
 2106TIP3    H2 6283   0.917   3.011   4.249  0.3573 -0.4174  0.1090
 2107TIP3   OH2 6284   2.753   3.992   0.687 -0.2839  0.2374  0.1175
 2107TIP3    H1 6285   2.674   4.040   0.711  0.4084  1.7489 -0.4479
 2107TIP3    H2 6286   2.790   4.042   0.614  1.3073 -0.2902  0.5138
 2108TIP3   OH2 6287   2.787   0.689   1.198  0.4983  0.1515 -0.2477
 2108TIP3    H1 6288   2.850   0.683   1.270 -1.0291  0.6580  1.2259
 2108TIP3    H2 6289   2.780   0.600   1.165 -1.5998 -1.0507  2.9023
 2109TIP3   OH2 6290   1.427   3.991   0.421 -0.0045 -0.1742 -0.0525
 2109TIP3    H1 6291   1.481   3.916   0.397 -1.5453 -1.7980  1.2467
 2109TIP3    H2 6292   1.354   3.989   0.358 -0.5372 -0.3655  0.5569
 2110TIP3   OH2 6293   0.141   1.624   4.180  0.5567 -0.2736 -0.2028
 2110TIP3    H1 6294   0.159   1.534   4.155 -1.8761 -0.5214 -1.3867
 2110TIP3    H2 6295   0.102   1.617   4.268  0.7637 -0.3284 -0.1151
 2111TIP3   OH2 6296   1.925   5.936   5.475  0.3028  0.1979  0.2326
 2111TIP3    H1 6297   1.837   5.920   5.507  0.4461  0.8571  0.9973
 2111TIP3    H2 6298   1.934   6.031   5.474  1.3799  0.1328  1.2741
 2112TIP3   OH2 6299   1.239   4.204   0.301 -0.2491  0.1234 -0.3861
 2112TIP3    H1 6300   1.278   4.277   0.254  1.3790  0.5215  1.4474
 2112TIP3    H2 6301   1.174   4.168   0.240  0.0801  2.0297 -1.9669
 2113TIP3   OH2 6302   1.829   2.219   1.899 -0.6968  0.4939 -0.1493
 2113TIP3    H1 6303   1.862   2.208   1.810  1.2253  0.0320  0.5493
 2113TIP3    H2 6304   1.871   2.299   1.930  1.0059 -0.8332  1.2316
 2114TIP3   OH2 6305   4.291   1.379   5.472 -0.1935  0.4650  0.4974
 2114TIP3    H1 6306   4.313   1.300   5.521 -1.4953 -1.2308 -1.5145
 2114TIP3    H2 6307   4.205   1.361   5.434 -0.9364  3.2079  0.6513
 2115TIP3   OH2 6308   2.494   3.555   1.239 -0.4975 -0.0065 -0.4446
 2115TIP3    H1 6309   2.579   3.600   1.238 -1.1455  1.2890  0.0335
 2115TIP3    H2 6310   2.498   3.497   1.315  0.3560 -0.7929 -1.0693
 2116TIP3   OH2 6311   6.401   5.245   1.262 -0.0724  0.7496  0.1088
 2116TIP3    H1 6312   6.484   5.267   1.304  1.2184 -1.8792 -0.8219
 2116TIP3    H2 6313   6.387   5.153   1.284 -1.6051  0.5315 -1.5363
 2117TIP3   OH2 6314   3.668   6.712   5.637  0.0262  0.6960 -1.0425
 2117TIP3    H1 6315   3.650   6.800   5.602 -0.0834  1.4201  0.7143
 2117TIP3    H2 6316   3.583   6.680   5.666  0.3462  0.9324  0.2624
 2118TIP3   OH2 6317   1.053   3.128   1.944 -0.1071 -0.5850 -0.2254
 2118TIP3    H1 6318   1.075   3.209   1.989  1.0942  1.0400 -3.4964
 2118TIP3    H2 6319   0.960   3.115   1.964 -0.2855  1.4626  0.5308
 2119TIP3   OH2 6320   1.024   3.873   1.142  0.4375 -0.0592  0.1458
 2119TIP3    H1 6321   0.934   3.888   1.114  0.4939  0.2127  0.1121
 2119TIP3    H2 6322   1.061   3.816   1.074  1.1807  2.1957 -1.4426
 2120TIP3   OH2 6323   2.841   1.953   3.328 -0.1916  0.1585 -0.2719
 2120TIP3    H1 6324   2.778   1.930   3.260 -0.3467  0.4094 -0.2143
 2120TIP3    H2 6325   2.855   1.871   3.376  2.7453 -1.0568 -2.8430
 2121TIP3   OH2 6326   0.498   2.001   2.140  0.3175  0.3864 -0.6876
 2121TIP3    H1 6327   0.482   1.964   2.226 -0.2814  0.9632 -0.5426
 2121TIP3    H2 6328   0.447   2.083   2.139  2.1469  1.5785 -0.7404
 2122TIP3   OH2 6329   4.046   1.559   3.401 -0.1930 -0.2995  0.1661
 2122TIP3    H1 6330   4.056   1.501   3.477 -1.4523 -2.3311 -1.1091
 2122TIP3    H2 6331   3.952   1.562   3.385 -0.1004  1.5931 -0.2631
 2123TIP3   OH2 6332   2.576   3.899   5.845 -0.3034 -0.2565  0.4196
 2123TIP3    H1 6333   2.614   3.889   5.758  1.5954  2.7409  0.7409
 2123TIP3    H2 6334   2.589   3.992   5.866 -1.9525 -0.5534  3.3527
 2124TIP3   OH2 6335   2.370   0.846   0.096  0.1826  0.2117  0.1357
 2124TIP3    H1 6336   2.324   0.927   0.116 -1.6388 -0.7203 -0.1190
 2124TIP3    H2 6337   2.382   0.847   0.001  0.4691  0.3352  0.1722
 2125TIP3   OH2 6338   1.221   4.192   2.102  0.3969  0.5996  0.0214
 2125TIP3    H1 6339   1.199   4.159   2.015  1.5776  1.0067 -0.4437
 2125TIP3    H2 6340   1.144   4.172   2.155  0.2512 -1.0414 -0.7412
 2126TIP3   OH2 6341   0.345   3.567   0.861 -0.4131 -0.0154  0.7749
 2126TIP3    H1 6342   0.361   3.632   0.929  2.4160  0.2123  0.0287
 2126TIP3    H2 6343   0.408   3.497   0.880  0.3251 -0.0245 -1.4376
 2127TIP3   OH2 6344   1.190   1.599  -0.005 -0.0504 -0.1638 -0.0587
 2127TIP3    H1 6345   1.275   1.558   0.012  0.3160  0.5237 -0.1889
 2127TIP3    H2 6346   1.127   1.526  -0.004  0.3179 -0.5049  1.5532
 2128TIP3   OH2 6347   3.212   0.446   2.924  0.0071 -0.5664 -1.0948
 2128TIP3    H1 6348   3.136   0.405   2.966  0.5325  0.1668  0.6448
 2128TIP3    H2 6349   3.286   0.425   2.981  1.1128 -1.0317 -2.6046
 2129TIP3   OH2 6350   0.623   3.841   4.638 -0.6928  0.0398 -0.2724
 2129TIP3    H1 6351   0.669   3.758   4.629 -1.3389 -0.2654 -0.7327
 2129TIP3    H2 6352   0.694   3.905   4.650 -0.1733 -0.5047 -0.3530
 2130TIP3   OH2 6353   0.954   6.646   4.502  0.6256  0.2940 -0.3021
 2130TIP3    H1 6354   0.962   6.563   4.548  0.9821 -0.5095 -1.7465
 2130TIP3    H2 6355   0.860   6.653   4.481  0.1803  1.3730  1.7066
 2131TIP3   OH2 6356   4.399   2.060   0.723 -0.1265  0.0477 -0.0300
 2131TIP3    H1 6357   4.489   2.079   0.697 -0.3435 -0.0056 -0.8411
 2131TIP3    H2 6358   4.367   2.142   0.761  1.1187 -0.6733  2.8352
 2132TIP3   OH2 6359   2.414   0.648   4.115 -0.2542  0.0405 -0.6883
 2132TIP3    H1 6360   2.369   0.679   4.194 -0.9017  0.4728 -1.2207
 2132TIP3    H2 6361   2.428   0.554   4.131 -1.5185 -0.1563 -0.5794
 2133TIP3   OH2 6362   2.553   0.741   1.013 -0.3212 -0.4326 -0.6138
 2133TIP3    H1 6363   2.517   0.688   1.085 -0.5852  2.2722  1.4306
 2133TIP3    H2 6364   2.618   0.797   1.055  0.9840 -0.1059 -2.9190
 2134TIP3   OH2 6365   0.303   4.401   3.072 -0.3887  0.1777 -0.5773
 2134TIP3    H1 6366   0.327   4.431   3.160  1.0572 -0.9304 -0.5516
 2134TIP3    H2 6367   0.223   4.448   3.052 -0.7062  0.5307  1.3009
 2135TIP3   OH2 6368   5.570   5.108   4.088  1.2267 -0.0295 -0.1284
 2135TIP3    H1 6369   5.476   5.128   4.084  0.9439 -0.9529  1.2340
 2135TIP3    H2 6370   5.612   5.180   4.041 -0.1895  0.1440 -1.1926
 2136TIP3   OH2 6371   1.218   2.553   5.324  0.2257  0.0795  0.4500
 2136TIP3    H1 6372   1.173   2.559   5.240  1.6146 -1.6893 -0.4745
 2136TIP3    H2 6373   1.152   2.515   5.383 -0.6006  0.8660  0.0552
 2137TIP3   OH2 6374   7.139   2.025   5.799 -0.1529  0.3065  0.2816
 2137TIP3    H1 6375   7.051   2.027   5.763 -0.2732 -1.5146  0.3935
 2137TIP3    H2 6376   7.180   2.105   5.766 -0.7975 -0.4026 -2.5072
 2138TIP3   OH2 6377   6.208   3.576   2.405 -0.2557  0.0645 -0.0046
 2138TIP3    H1 6378   6.240   3.562   2.495  0.5095 -0.1585 -0.3035
 2138TIP3    H2 6379   6.285   3.604   2.356 -1.0324  1.9273 -0.2222
 2139TIP3   OH2 6380   4.204   4.259   4.978 -0.2037 -0.2391 -0.0931
 2139TIP3    H1 6381   4.147   4.210   4.918  0.3819 -2.1916  0.8881
 2139TIP3    H2 6382   4.277   4.288   4.923 -1.6523  1.6211 -1.1914
 2140TIP3   OH2 6383   0.538   2.890   5.519  0.5187  0.0352 -0.5744
 2140TIP3    H1 6384   0.622   2.855   5.489  1.1525  1.4936 -0.5438
 2140TIP3    H2 6385   0.501   2.819   5.572  1.7664 -0.5920 -0.5000
 2141TIP3   OH2 6386   2.185   0.478   0.864  0.8052 -0.7087 -0.2773
 2141TIP3    H1 6387   2.175   0.556   0.917 -1.9620 -1.6101  0.7185
 2141TIP3    H2 6388   2.279   0.469   0.851  1.2403  2.5476 -0.1711
 2142TIP3   OH2 6389   5.205   6.146   3.141 -0.6165  0.3767 -0.2633
 2142TIP3    H1 6390   5.171   6.123   3.228 -0.7794  0.9859 -0.1624
 2142TIP3    H2 6391   5.170   6.233   3.124  1.6997  1.4954  0.3062
 2143TIP3   OH2 6392   1.878   2.486   1.935 -0.2462  0.1407 -0.3064
 2143TIP3    H1 6393   1.969   2.496   1.962  0.2409  0.4962 -1.9250
 2143TIP3    H2 6394   1.879   2.507   1.841 -2.1488  1.0503 -0.1699
 2144TIP3   OH2 6395   6.230   4.346   5.083 -0.0847  0.0297  0.3493
 2144TIP3    H1 6396   6.229   4.298   5.166  1.5584  0.7425  0.8223
 2144TIP3    H2 6397   6.226   4.278   5.016 -1.2464 -0.5674  0.9893
 2145TIP3   OH2 6398   4.008   2.652   5.303  0.3476 -0.7307 -0.2396
 2145TIP3    H1 6399   3.948   2.579   5.320  0.6355 -1.3318 -1.6034
 2145TIP3    H2 6400   4.004   2.664   5.208 -3.0287  3.9343  0.1170
 2146TIP3   OH2 6401   5.821   3.443   3.461  0.9321 -0.0500 -0.6520
 2146TIP3    H1 6402   5.751   3.483   3.410 -0.1798 -1.4992 -0.3406
 2146TIP3    H2 6403   5.855   3.373   3.406 -0.1121 -1.4677  0.4268
 2147TIP3   OH2 6404   1.598   4.205   0.374 -0.1228  0.5255 -0.1990
 2147TIP3    H1 6405   1.612   4.228   0.466 -1.7961  1.6508 -0.1712
 2147TIP3    H2 6406   1.547   4.123   0.378 -1.6493  1.4404 -0.0307
 2148TIP3   OH2 6407   7.009   4.624   4.661  0.1973  0.3834 -0.0247
 2148TIP3    H1 6408   6.967   4.694   4.710 -1.1711 -0.7580  0.5198
 2148TIP3    H2 6409   6.966   4.624   4.576 -1.5955 -1.2880  0.7964
 2149TIP3   OH2 6410   4.119   4.336   5.245  0.0820 -0.2469 -0.3209
 2149TIP3    H1 6411   4.038   4.286   5.232 -0.6212  0.5937  0.6774
 2149TIP3    H2 6412   4.175   4.311   5.171 -0.4173 -2.1398 -0.1051
 2150TIP3   OH2 6413   0.742   3.681   2.730 -0.2365 -0.4563  0.2523
 2150TIP3    H1 6414   0.728   3.750   2.795  0.2216 -0.1300  0.0187
 2150TIP3    H2 6415   0.655   3.658   2.699 -0.3488  0.7340 -0.3839
 2151TIP3   OH2 6416   2.015   4.079   4.171  0.4505 -0.0791  0.1662
 2151TIP3    H1 6417   2.035   4.057   4.262 -0.1234 -0.1481  0.2837
 2151TIP3    H2 6418   1.940   4.139   4.177 -1.2342 -2.0169 -0.3204
 2152TIP3   OH2 6419   6.978   5.303   3.460 -0.0023 -0.0168  0.2131
 2152TIP3    H1 6420   6.959   5.339   3.547  0.5394  1.1262 -0.1204
 2152TIP3    H2 6421   7.063   5.340   3.437  0.0447 -0.6240 -0.6444
 2153TIP3   OH2 6422   6.423   1.322   4.801 -0.1509 -0.8417 -0.0240
 2153TIP3    H1 6423   6.509   1.281   4.801 -0.1177 -0.9704  2.6576
 2153TIP3    H2 6424   6.365   1.257   4.842 -0.7772  0.4880  1.3166
 2154TIP3   OH2 6425   3.052   3.893   3.034 -0.6850 -0.4593 -1.0077
 2154TIP3    H1 6426   3.129   3.902   2.978  0.1115 -0.1110  0.1233
 2154TIP3    H2 6427   2.989   3.844   2.980 -0.3732  0.8255 -2.6093
 2155TIP3   OH2 6428   4.001   4.072   2.583  0.0497 -0.6513  0.1748
 2155TIP3    H1 6429   3.963   4.129   2.516 -1.8800  0.0137  1.7271
 2155TIP3    H2 6430   3.986   3.983   2.551 -0.4982 -0.3443 -0.4444
 2156TIP3   OH2 6431   7.064   3.510   5.062  0.1590 -0.0693  0.3309
 2156TIP3    H1 6432   7.036   3.531   5.151  1.1328 -1.3914  0.9855
 2156TIP3    H2 6433   7.160   3.510   5.067  0.2161 -1.2553 -0.4311
 2157TIP3   OH2 6434   3.874   0.537   0.443  0.1521 -0.5273 -0.6324
 2157TIP3    H1 6435   3.785   0.507   0.465  1.0161 -2.5337  0.4403
 2157TIP3    H2 6436   3.931   0.476   0.489  2.1252  1.4560 -0.2738
 2158TIP3   OH2 6437   3.180   3.931   4.750 -0.1652  0.5190 -0.2829
 2158TIP3    H1 6438   3.166   3.898   4.661  1.0917  1.2535 -0.7749
 2158TIP3    H2 6439   3.252   3.878   4.784 -0.0933  0.8004  0.0053
 2159TIP3   OH2 6440   2.214   5.495   3.255  0.4685  0.1184 -0.5241
 2159TIP3    H1 6441   2.154   5.560   3.219 -0.3508 -0.9269 -1.0891
 2159TIP3    H2 6442   2.273   5.474   3.182  0.1271 -0.4549 -0.6471
 2160TIP3   OH2 6443   0.883   6.513   3.059  0.3480 -0.5128 -0.3346
 2160TIP3    H1 6444   0.965   6.510   3.107 -0.7699 -0.3703  1.7359
 2160TIP3    H2 6445   0.850   6.602   3.074 -0.2783 -0.6282 -0.9474
 2161TIP3   OH2 6446   6.992   5.208   5.731 -0.1962  0.0785 -0.1597
 2161TIP3    H1 6447   7.027   5.119   5.725 -0.1417  0.2058 -2.5291
 2161TIP3    H2 6448   6.919   5.209   5.670 -0.5952  1.5086  0.3062
 2162TIP3   OH2 6449   6.070   4.560   2.729 -0.8998 -0.1405  0.0018
 2162TIP3    H1 6450   6.066   4.538   2.636  1.8267  2.9603 -1.0386
 2162TIP3    H2 6451   6.019   4.640   2.736  1.1197  1.1665  0.5200
 2163TIP3   OH2 6452   4.679   3.362   4.295 -0.1298 -0.0930 -0.4646
 2163TIP3    H1 6453   4.593   3.327   4.272 -0.3304 -0.6334  0.9946
 2163TIP3    H2 6454   4.726   3.367   4.212 -0.7483 -2.0746 -0.9763
 2164TIP3   OH2 6455   1.415   4.170   1.253  0.3517  0.4221 -0.0715
 2164TIP3    H1 6456   1.342   4.118   1.219  1.8443 -0.9884 -1.3032
 2164TIP3    H2 6457   1.387   4.260   1.241 -0.7397 -0.0734 -1.6198
 2165TIP3   OH2 6458   4.536   5.014  -0.011  0.2599 -0.6513 -0.2297
 2165TIP3    H1 6459   4.553   5.100   0.029 -1.5033 -0.9977  1.4619
 2165TIP3    H2 6460   4.618   4.966  -0.002  0.0151 -0.6943  3.1386
 2166TIP3   OH2 6461   1.258   0.709   4.142 -0.0732 -0.5297 -0.3731
 2166TIP3    H1 6462   1.352   0.697   4.148 -0.1404 -0.4703  1.1557
 2166TIP3    H2 6463   1.245   0.804   4.144 -0.1762 -0.5358 -0.6179
 2167TIP3   OH2 6464   1.382   1.884   0.725 -0.6393 -0.0252 -0.0400
 2167TIP3    H1 6465   1.476   1.869   0.722 -0.7215 -0.3977 -1.1338
 2167TIP3    H2 6466   1.343   1.797   0.719 -1.0592  0.1724 -0.2718
 2168TIP3   OH2 6467   5.536   2.011   0.907  0.0332  0.6152  0.7894
 2168TIP3    H1 6468   5.466   1.961   0.865  0.7137 -0.1486  0.5289
 2168TIP3    H2 6469   5.585   2.049   0.835  1.2042 -0.6980  0.8602
 2169TIP3   OH2 6470   5.962   4.705   4.753  0.1837  0.2434 -0.0031
 2169TIP3    H1 6471   5.953   4.759   4.832  1.1350 -0.5480  0.6640
 2169TIP3    H2 6472   5.935   4.764   4.682  0.9863  1.5460  0.7209
 2170TIP3   OH2 6473   3.130   5.650   0.977  0.1764 -0.5672 -0.3035
 2170TIP3    H1 6474   3.064   5.665   1.044  1.8527 -0.5753  1.4495
 2170TIP3    H2 6475   3.134   5.555   0.968 -0.1582 -0.5600 -0.5357
 2171TIP3   OH2 6476   0.297   4.563   3.303 -0.3925  0.4193 -0.5349
 2171TIP3    H1 6477   0.376   4.570   3.358  1.5289 -0.8440 -2.9492
 2171TIP3    H2 6478   0.265   4.653   3.298  0.5635  0.8938  0.9449
 2172TIP3   OH2 6479   4.361   5.122   0.945  0.0951  0.2120 -0.0693
 2172TIP3    H1 6480   4.311   5.095   0.868 -0.8982 -0.5386  0.8261
 2172TIP3    H2 6481   4.356   5.218   0.943  0.7788  0.2459 -1.3784
 2173TIP3   OH2 6482   3.270   5.197   0.254  0.1586  0.3125 -0.0601
 2173TIP3    H1 6483   3.287   5.122   0.311  2.8838  0.6298 -0.2970
 2173TIP3    H2 6484   3.186   5.231   0.283  0.3494 -0.9272  2.1774
 2174TIP3   OH2 6485   3.340   2.157   1.378  0.0099  0.7757 -0.1063
 2174TIP3    H1 6486   3.293   2.180   1.459 -0.1310 -1.5399  0.5394
 2174TIP3    H2 6487   3.398   2.085   1.404  0.4617  0.4345 -1.9434
 2175TIP3   OH2 6488   3.454   0.990   0.799 -0.0263  0.0666  0.8664
 2175TIP3    H1 6489   3.438   0.981   0.893 -1.3709 -0.6928  0.5896
 2175TIP3    H2 6490   3.393   1.057   0.770  2.3146  2.3998  0.9566
 2176TIP3   OH2 6491   2.179   1.714   2.803 -0.0286  0.0147  0.0162
 2176TIP3    H1 6492   2.254   1.767   2.777  1.5597 -1.9866  0.2327
 2176TIP3    H2 6493   2.174   1.646   2.735  0.4832 -1.8110  1.7134
 2177TIP3   OH2 6494   3.994   2.572   2.684 -0.5700  0.4105  0.2412
 2177TIP3    H1 6495   4.081   2.531   2.692  0.0104  1.8322  1.6942
 2177TIP3    H2 6496   3.964   2.545   2.597  0.7578 -1.1754  0.2125
 2178TIP3   OH2 6497   6.844   6.629   5.685  0.4817 -0.0175  0.1321
 2178TIP3    H1 6498   6.857   6.565   5.755 -1.1807 -0.1762  0.3429
 2178TIP3    H2 6499   6.766   6.678   5.712  0.0748  0.2161 -1.3848
 2179TIP3   OH2 6500   4.558   1.670   5.661 -0.4756 -0.3654  0.4088
 2179TIP3    H1 6501   4.523   1.593   5.616 -1.4159 -0.0319  0.5347
 2179TIP3    H2 6502   4.652   1.668   5.644 -0.3731 -1.9459  1.0439
 2180TIP3   OH2 6503   3.579   3.189   5.518 -1.0323 -0.2450 -0.6348
 2180TIP3    H1 6504   3.491   3.161   5.542 -0.7565  0.9512  2.1703
 2180TIP3    H2 6505   3.565   3.272   5.471 -1.4150 -0.4025 -0.8072
 2181TIP3   OH2 6506   6.308   4.684   1.413  0.6436 -0.4825  0.4295
 2181TIP3    H1 6507   6.310   4.601   1.461  1.3814 -0.6656  0.1025
 2181TIP3    H2 6508   6.216   4.696   1.388  0.1400 -0.1430  2.2837
 2182TIP3   OH2 6509   0.454   1.692   3.134  0.1361  0.3371  0.0207
 2182TIP3    H1 6510   0.539   1.681   3.093 -0.2215 -0.5510 -0.5108
 2182TIP3    H2 6511   0.472   1.686   3.228  0.4827 -1.3480 -0.1213
 2183TIP3   OH2 6512   1.949   0.209   4.984 -0.6107 -0.2426 -0.3509
 2183TIP3    H1 6513   1.989   0.264   4.917 -1.6883  2.1554  0.8458
 2183TIP3    H2 6514   1.997   0.230   5.064 -1.9621  0.0448  0.4082
 2184TIP3   OH2 6515   1.822   1.216   0.922 -0.4978  0.0685  0.3469
 2184TIP3    H1 6516   1.865   1.195   1.005 -2.0269 -0.7514  0.9655
 2184TIP3    H2 6517   1.729   1.207   0.940 -1.0038  2.1301 -0.8562
 2185TIP3   OH2 6518   4.451   2.983   5.226  1.0585  0.1664  0.0138
 2185TIP3    H1 6519   4.480   3.075   5.222  0.0094  0.5326  0.4019
 2185TIP3    H2 6520   4.477   2.946   5.142  0.8877  1.0097 -0.4249
 2186TIP3   OH2 6521   2.626   2.663   0.361 -0.4305 -0.1819 -0.4418
 2186TIP3    H1 6522   2.570   2.622   0.427  1.1920 -0.2133  0.9584
 2186TIP3    H2 6523   2.689   2.715   0.410  0.2808  0.5204 -2.0121
 2187TIP3   OH2 6524   5.206   0.700   2.905 -0.4582 -0.5904  0.2161
 2187TIP3    H1 6525   5.287   0.723   2.858  0.3485 -2.0039  0.8437
 2187TIP3    H2 6526   5.197   0.770   2.971 -0.0543 -0.1251 -0.2105
 2188TIP3   OH2 6527   0.848   4.548   1.251 -0.0354  0.1372  0.0360
 2188TIP3    H1 6528   0.915   4.599   1.296 -0.5305  0.7241  0.1262
 2188TIP3    H2 6529   0.840   4.468   1.303  0.7588 -0.0403 -0.1143
 2189TIP3   OH2 6530   4.915   3.887   2.942 -0.0975  0.1946 -0.6755
 2189TIP3    H1 6531   4.903   3.866   2.849 -1.8884 -0.8374 -0.2589
 2189TIP3    H2 6532   4.844   3.841   2.986 -0.1117  1.7748  1.0674
 2190TIP3   OH2 6533   6.665   1.700   2.650 -0.3024  0.1967  0.6622
 2190TIP3    H1 6534   6.600   1.654   2.704  0.4963 -0.1443  1.3578
 2190TIP3    H2 6535   6.672   1.646   2.571 -2.3597  1.3285 -0.3887
 2191TIP3   OH2 6536   2.572   2.473   1.437 -0.0398  0.3884  0.1134
 2191TIP3    H1 6537   2.550   2.542   1.375  0.5163  1.7035  1.3188
 2191TIP3    H2 6538   2.504   2.407   1.426 -0.2877  0.8817 -1.4432
 2192TIP3   OH2 6539   7.035   3.064   1.409  0.1015  0.6060 -0.2477
 2192TIP3    H1 6540   7.095   3.102   1.473 -0.3814 -2.0895  1.9945
 2192TIP3    H2 6541   6.949   3.065   1.452 -0.5819  0.2463 -1.5313
 2193TIP3   OH2 6542   4.500   3.673   5.279 -0.1547 -0.1011  0.2984
 2193TIP3    H1 6543   4.453   3.628   5.210 -1.1394  0.4894  0.5602
 2193TIP3    H2 6544   4.493   3.766   5.257 -1.7075  0.2127  1.8904
 2194TIP3   OH2 6545   3.071   0.673   2.064  0.3383  0.3204  0.2143
 2194TIP3    H1 6546   3.070   0.580   2.045  0.8659  0.3979 -0.2151
 2194TIP3    H2 6547   3.056   0.678   2.159 -0.5984 -0.1438  0.1038
 2195TIP3   OH2 6548   5.344   1.588   0.929 -0.2612 -0.0824 -0.5802
 2195TIP3    H1 6549   5.272   1.648   0.951 -0.3709 -0.4857  0.2292
 2195TIP3    H2 6550   5.386   1.571   1.013  1.5421  1.0769 -1.1950
 2196TIP3   OH2 6551   2.651   6.188   2.118  0.1467  0.4318  0.2279
 2196TIP3    H1 6552   2.678   6.280   2.126  0.7148  0.2909  0.0044
 2196TIP3    H2 6553   2.723   6.139   2.158 -0.0817  0.0729  0.2013
 2197TIP3   OH2 6554   1.746   6.696   1.283  0.3445 -0.0503  0.5870
 2197TIP3    H1 6555   1.779   6.677   1.372  0.7366  1.4166  0.7940
 2197TIP3    H2 6556   1.741   6.792   1.280  2.1581  0.0560 -1.6029
 2198TIP3   OH2 6557   5.021   3.700   2.156  0.0044  0.4234  0.4308
 2198TIP3    H1 6558   5.080   3.773   2.136 -0.5158  0.2035 -2.2360
 2198TIP3    H2 6559   4.976   3.682   2.073 -0.8798 -2.0322  1.3635
 2199TIP3   OH2 6560   4.421   3.745   0.645 -0.1023 -0.1435 -0.0211
 2199TIP3    H1 6561   4.412   3.838   0.626 -2.1996 -0.8031 -3.0794
 2199TIP3    H2 6562   4.334   3.719   0.677 -0.1839 -1.3600 -1.1356
 2200TIP3   OH2 6563   4.152   3.198   5.711  0.3215  0.0639 -0.2727
 2200TIP3    H1 6564   4.226   3.138   5.719  0.7274  0.7135  1.1829
 2200TIP3    H2 6565   4.105   3.188   5.794 -1.8934 -1.1460 -1.5619
 2201TIP3   OH2 6566   5.468   2.028   3.286 -0.4254 -0.2110 -0.2515
 2201TIP3    H1 6567   5.471   2.043   3.380  1.4108 -0.5267 -0.2299
 2201TIP3    H2 6568   5.429   1.941   3.277 -0.2580 -0.3411  0.2454
 2202TIP3   OH2 6569   0.839   2.428   3.226  0.0351  0.5175  0.3104
 2202TIP3    H1 6570   0.895   2.458   3.155 -0.1896  2.4021  0.8759
 2202TIP3    H2 6571   0.899   2.413   3.299  0.6968 -4.1207 -0.8750
 2203TIP3   OH2 6572   3.391   0.526   1.260 -0.1965  0.0807 -0.3407
 2203TIP3    H1 6573   3.309   0.508   1.214 -0.3103 -0.2263 -0.0257
 2203TIP3    H2 6574   3.459   0.517   1.193 -0.0638 -3.1867  0.0583
 2204TIP3   OH2 6575   2.523   2.693   5.861  0.1072  0.0562 -0.1345
 2204TIP3    H1 6576   2.585   2.763   5.881 -0.2683  0.6789 -1.1014
 2204TIP3    H2 6577   2.450   2.738   5.819 -0.7133 -0.7546  0.3941
 2205TIP3   OH2 6578   2.843   1.399   5.713 -0.4209  0.2181  0.3729
 2205TIP3    H1 6579   2.815   1.480   5.670 -0.0933 -0.7062 -1.6708
 2205TIP3    H2 6580   2.770   1.339   5.702  0.0191 -0.3163  0.3270
 2206TIP3   OH2 6581   5.152   6.302   4.244  0.1799 -0.6191 -0.3113
 2206TIP3    H1 6582   5.202   6.373   4.284 -0.1549  0.1325 -1.1829
 2206TIP3    H2 6583   5.108   6.343   4.169 -0.5611 -1.5982 -0.4312
 2207TIP3   OH2 6584   2.446   0.886   3.434 -0.1863 -0.0756 -0.2520
 2207TIP3    H1 6585   2.490   0.820   3.487 -2.0273  1.0778  2.9890
 2207TIP3    H2 6586   2.355   0.855   3.426 -1.0658  1.8779  1.2505
 2208TIP3   OH2 6587   7.017   0.607   3.104  0.4114  0.4245 -0.6257
 2208TIP3    H1 6588   6.986   0.681   3.052  0.1230  0.8468  0.1347
 2208TIP3    H2 6589   7.040   0.540   3.039 -0.0604  0.8957 -1.2890
 2209TIP3   OH2 6590   3.975   2.215   3.652 -0.4064  0.4668 -0.0428
 2209TIP3    H1 6591   4.021   2.131   3.646 -2.0234 -0.3924 -1.1234
 2209TIP3    H2 6592   4.045   2.280   3.665  0.7951 -1.1211  1.9386
 2210TIP3   OH2 6593   5.002   1.949   0.178  0.3593  0.1660  0.7199
 2210TIP3    H1 6594   5.061   1.898   0.122 -0.8548  0.0889 -0.5658
 2210TIP3    H2 6595   4.947   1.884   0.221 -0.3976  0.3060 -0.0010
 2211TIP3   OH2 6596   5.709   0.190   4.744 -0.0858  0.3826  0.1730
 2211TIP3    H1 6597   5.780   0.175   4.681 -2.2287  0.1657 -2.3445
 2211TIP3    H2 6598   5.656   0.110   4.740  0.5832 -0.4412  3.7034
 2212TIP3   OH2 6599   0.319   4.689   4.098  0.1405  0.3120  0.1081
 2212TIP3    H1 6600   0.315   4.698   4.002 -0.7351 -0.6049  0.0384
 2212TIP3    H2 6601   0.317   4.779   4.130  0.9176  0.6453 -0.7487
 2213TIP3   OH2 6602   3.366   2.924   5.433  0.2789 -0.0106 -0.1892
 2213TIP3    H1 6603   3.358   2.829   5.429 -0.5939  0.0601 -0.3268
 2213TIP3    H2 6604   3.279   2.957   5.408  0.0949  0.8035  1.4132
 2214TIP3   OH2 6605   5.956   0.534   1.895 -0.6687  0.0855  0.1528
 2214TIP3    H1 6606   5.929   0.573   1.979 -1.4779  0.4951 -0.2816
 2214TIP3    H2 6607   5.989   0.447   1.918 -2.0817 -0.3141  0.7758
 2215TIP3   OH2 6608   3.125   3.436   4.318  0.3145 -0.1225 -0.0282
 2215TIP3    H1 6609   3.110   3.401   4.405  1.8208 -0.8882 -0.0431
 2215TIP3    H2 6610   3.166   3.522   4.333 -0.3149  0.1770  0.0057
 2216TIP3   OH2 6611   2.569   6.184   3.354 -0.2615 -0.2490  0.1254
 2216TIP3    H1 6612   2.550   6.181   3.448  0.0324  3.8777  0.4738
 2216TIP3    H2 6613   2.664   6.199   3.349 -0.2022 -0.8529 -0.8846
 2217TIP3   OH2 6614   4.846   1.874   1.276  0.1381 -0.7696  0.0638
 2217TIP3    H1 6615   4.901   1.883   1.198  0.3735 -1.2664  0.1687
 2217TIP3    H2 6616   4.818   1.964   1.296  0.4757 -0.5788 -0.3036
 2218TIP3   OH2 6617   6.104   1.699   1.027  0.1136  0.1971 -0.6739
 2218TIP3    H1 6618   6.148   1.678   1.110 -0.1179  0.2180 -0.5450
 2218TIP3    H2 6619   6.172   1.691   0.961  0.3475  0.3853 -0.4541
 2219TIP3   OH2 6620   3.804   4.233   1.874 -0.0784 -0.1564 -0.3252
 2219TIP3    H1 6621   3.885   4.283   1.885 -0.9440  1.0262  1.0096
 2219TIP3    H2 6622   3.745   4.294   1.831 -1.0530 -0.0945  1.0391
 2220TIP3   OH2 6623   0.440   1.359   1.712 -0.1537 -0.4262 -0.0828
 2220TIP3    H1 6624   0.393   1.431   1.670 -1.1035 -0.4386  0.8977
 2220TIP3    H2 6625   0.532   1.385   1.710 -0.3284  0.1397 -1.0296
 2221TIP3   OH2 6626   5.295   5.463   2.243  0.1349  0.5420 -0.7808
 2221TIP3    H1 6627   5.235   5.535   2.261 -1.5524 -1.1789  1.0377
 2221TIP3    H2 6628   5.328   5.480   2.155 -1.0132  2.9358 -0.8152
 2222TIP3   OH2 6629   0.483   3.326   0.371  0.0469  0.2183 -0.3278
 2222TIP3    H1 6630   0.510   3.271   0.297 -0.5087  0.4697 -0.7339
 2222TIP3    H2 6631   0.492   3.270   0.448 -1.3930 -0.7729 -0.8414
 2223TIP3   OH2 6632   2.868   2.519   3.062  0.1882 -0.5212  0.2705
 2223TIP3    H1 6633   2.868   2.522   2.966 -1.7848 -0.4145  0.2276
 2223TIP3    H2 6634   2.881   2.427   3.083  0.0933 -0.6283 -0.1291
 2224TIP3   OH2 6635   1.680   0.798   0.072  0.0727 -0.2302 -0.5583
 2224TIP3    H1 6636   1.699   0.795  -0.022 -0.5142 -3.1732 -0.6917
 2224TIP3    H2 6637   1.766   0.813   0.113  1.1369 -2.9266 -1.5144
 2225TIP3   OH2 6638   5.049   2.376   5.268 -0.0500  0.2809 -0.0325
 2225TIP3    H1 6639   5.077   2.294   5.228  0.2586 -0.4029  1.4935
 2225TIP3    H2 6640   5.009   2.426   5.197 -1.5863 -1.7944 -0.7438
 2226TIP3   OH2 6641   5.512   1.761   0.470 -0.1861 -0.0795  0.8855
 2226TIP3    H1 6642   5.441   1.805   0.423  0.1370 -1.8523 -1.4386
 2226TIP3    H2 6643   5.468   1.707   0.535 -0.9401 -0.3085  0.2114
 2227TIP3   OH2 6644   3.504   0.938   1.429  0.1566 -0.1231  0.0391
 2227TIP3    H1 6645   3.435   0.990   1.386 -0.9887 -1.8406 -0.3325
 2227TIP3    H2 6646   3.554   0.901   1.356  1.2525  0.7662  0.3078
 2228TIP3   OH2 6647   3.170   3.226   2.081 -0.1649  0.0655  0.3779
 2228TIP3    H1 6648   3.118   3.201   2.005  0.7080 -3.3483  0.7320
 2228TIP3    H2 6649   3.235   3.287   2.046 -0.6931 -0.2538 -1.2821
 2229TIP3   OH2 6650   0.054   3.994   3.037 -0.6265 -0.1742 -0.3126
 2229TIP3    H1 6651   0.099   3.985   2.953  0.3541  0.5968  0.1173
 2229TIP3    H2 6652   0.049   3.904   3.071 -0.2619 -0.3831 -0.8033
 2230TIP3   OH2 6653   5.922   0.393   4.676 -0.2650 -0.5121  0.0755
 2230TIP3    H1 6654   5.867   0.409   4.599  0.0064  0.0256 -0.0103
 2230TIP3    H2 6655   5.862   0.353   4.740 -0.6096 -0.4984 -0.2353
 2231TIP3   OH2 6656   3.251   1.989   3.831 -0.0850 -0.2708 -0.5467
 2231TIP3    H1 6657   3.317   1.919   3.829 -0.8274 -0.9766 -0.7447
 2231TIP3    H2 6658   3.292   2.059   3.882 -0.3735 -1.8956  2.0946
 2232TIP3   OH2 6659   1.805   4.283   5.890 -0.1626  0.3608  0.2154
 2232TIP3    H1 6660   1.856   4.202   5.882 -0.9418 -0.2779  1.4415
 2232TIP3    H2 6661   1.861   4.350   5.851  0.1946 -0.8734 -1.4898
 2233TIP3   OH2 6662   4.695   2.617   1.493 -0.5421  1.0883  0.0434
 2233TIP3    H1 6663   4.601   2.625   1.475 -0.4047  0.2287 -1.1577
 2233TIP3    H2 6664   4.731   2.703   1.473 -1.0297  1.3546  0.2818
 2234TIP3   OH2 6665   3.467   6.318   5.639  0.1749  0.6541  0.0677
 2234TIP3    H1 6666   3.512   6.306   5.723 -0.6261  0.5649  0.4910
 2234TIP3    H2 6667   3.538   6.323   5.575  0.7473 -1.7117  0.4260
 2235TIP3   OH2 6668   4.723   4.141   5.479  0.0415  0.1487 -0.3139
 2235TIP3    H1 6669   4.789   4.096   5.531  0.5395  2.6954  1.4193
 2235TIP3    H2 6670   4.643   4.091   5.494  0.7028 -0.6249  0.8521
 2236TIP3   OH2 6671   3.832   2.744   4.684 -0.2815 -0.3496 -0.1929
 2236TIP3    H1 6672   3.919   2.709   4.662 -0.8645 -1.2187 -1.2097
 2236TIP3    H2 6673   3.788   2.671   4.729 -0.2638  0.3200  0.9519
 2237TIP3   OH2 6674   3.469   2.332   2.311 -0.4662  0.1746 -0.1012
 2237TIP3    H1 6675   3.465   2.329   2.216  0.4832 -0.9716 -0.1268
 2237TIP3    H2 6676   3.392   2.283   2.340 -1.4865  1.6400 -0.2401
 2238TIP3   OH2 6677   4.663   1.199   4.784 -0.5984 -0.1944  0.1676
 2238TIP3    H1 6678   4.605   1.137   4.740 -1.0156  1.0483 -1.0995
 2238TIP3    H2 6679   4.613   1.230   4.859 -0.9236 -0.3547  0.0178
 2239TIP3   OH2 6680   0.353   3.947   5.572 -0.7323  0.6329  0.2094
 2239TIP3    H1 6681   0.345   3.892   5.650  0.4549 -0.3419 -0.3106
 2239TIP3    H2 6682   0.410   4.019   5.598  2.6312 -1.5222 -0.5710
 2240TIP3   OH2 6683   2.049   3.647   3.797  0.6888  0.2418 -0.1521
 2240TIP3    H1 6684   2.040   3.627   3.704  2.1991  1.7514 -0.6676
 2240TIP3    H2 6685   2.065   3.741   3.800 -1.3614  0.6250  1.8024
 2241TIP3   OH2 6686   6.627   0.320   3.351 -0.0510 -0.2537  0.2469
 2241TIP3    H1 6687   6.634   0.286   3.441  0.3216  0.9832  0.7092
 2241TIP3    H2 6688   6.716   0.346   3.329 -0.4513  1.1929  0.2421
 2242TIP3   OH2 6689   6.648   6.473   1.419 -0.6264 -0.3680 -0.0042
 2242TIP3    H1 6690   6.715   6.483   1.486 -0.4170 -3.7280  0.5074
 2242TIP3    H2 6691   6.576   6.530   1.447  0.3170 -0.0396  1.8728
 2243TIP3   OH2 6692   2.368   6.479   1.131  0.2191 -0.4667 -0.0470
 2243TIP3    H1 6693   2.313   6.473   1.210 -0.4719 -0.4181 -0.5191
 2243TIP3    H2 6694   2.451   6.438   1.157  0.4098  0.5415  1.0592
 2244TIP3   OH2 6695   2.378   3.634   5.229  1.0262 -0.0167 -0.0930
 2244TIP3    H1 6696   2.406   3.548   5.199  2.0865  0.5208 -0.7300
 2244TIP3    H2 6697   2.437   3.655   5.301  1.2027  0.4407 -0.3629
 2245TIP3   OH2 6698   5.552   0.530   0.584  0.1511  0.0698 -0.0221
 2245TIP3    H1 6699   5.562   0.607   0.639  0.2000 -0.1959  0.3430
 2245TIP3    H2 6700   5.603   0.462   0.627 -1.3457 -0.6796  0.6754
 2246TIP3   OH2 6701   6.667   5.034   1.478  0.3024  0.1658  0.0781
 2246TIP3    H1 6702   6.648   5.016   1.570 -1.4839  0.1621 -0.2673
 2246TIP3    H2 6703   6.755   4.998   1.465  0.4612 -0.1242  1.6840
 2247TIP3   OH2 6704   3.699   2.600   3.623  0.3992 -0.4796  0.2229
 2247TIP3    H1 6705   3.688   2.514   3.664  0.0403 -0.6570 -0.2327
 2247TIP3    H2 6706   3.647   2.659   3.678  2.0216 -0.2185  1.5451
 2248TIP3   OH2 6707   3.611   2.642   2.835  0.0808 -0.1333 -0.0290
 2248TIP3    H1 6708   3.529   2.610   2.797 -0.1527  0.7125 -0.2676
 2248TIP3    H2 6709   3.599   2.737   2.841  1.3962  0.1176 -0.9359
 2249TIP3   OH2 6710   0.375   3.640   2.942 -0.1273  0.1658  0.0074
 2249TIP3    H1 6711   0.294   3.591   2.949  0.5725 -0.9399  0.6535
 2249TIP3    H2 6712   0.349   3.726   2.909 -1.3426 -0.7535 -1.5453
 2250TIP3   OH2 6713   5.167   2.941   1.643 -0.2633  0.1177 -1.1045
 2250TIP3    H1 6714   5.197   3.013   1.586  0.4132  0.1288 -0.7452
 2250TIP3    H2 6715   5.079   2.921   1.612 -0.8814  1.8108 -0.5529
 2251TIP3   OH2 6716   6.060   0.679   3.376 -0.0849 -0.2256  0.2885
 2251TIP3    H1 6717   6.136   0.716   3.421 -0.0611  1.3488 -0.9705
 2251TIP3    H2 6718   5.999   0.659   3.447  0.9239 -0.1632  1.2146
 2252TIP3   OH2 6719   3.198   2.332   3.061 -0.6243 -0.0856 -0.1375
 2252TIP3    H1 6720   3.282   2.348   3.103 -0.4706 -0.2762 -0.3667
 2252TIP3    H2 6721   3.164   2.252   3.102 -0.4231 -0.3337 -0.4460
 2253TIP3   OH2 6722   6.321   0.245   0.159  0.1249 -0.1304  0.1531
 2253TIP3    H1 6723   6.290   0.165   0.202  3.1300 -0.5946  1.7344
 2253TIP3    H2 6724   6.265   0.314   0.195 -2.4339 -1.3814 -1.1373
 2254TIP3   OH2 6725   2.284   4.108   3.754 -0.6794 -0.4551 -0.2208
 2254TIP3    H1 6726   2.303   4.110   3.660 -0.1323 -1.0270 -0.1322
 2254TIP3    H2 6727   2.218   4.039   3.763 -0.3987 -0.7202 -0.1416
 2255TIP3   OH2 6728   1.942   2.365   5.171  0.1789  0.0547 -0.2865
 2255TIP3    H1 6729   1.854   2.399   5.187 -0.5929 -2.1564  0.4138
 2255TIP3    H2 6730   2.000   2.424   5.220 -1.0702  0.4984  0.7053
 2256TIP3   OH2 6731   6.694   4.433   2.025  0.4884 -0.2913 -0.6587
 2256TIP3    H1 6732   6.635   4.379   1.972 -1.3941 -0.1592  1.1563
 2256TIP3    H2 6733   6.778   4.387   2.022 -0.2278 -1.6064 -1.6932
 2257TIP3   OH2 6734   1.157   1.703   4.814  0.1142  0.4244  0.3333
 2257TIP3    H1 6735   1.096   1.766   4.776  1.4513  1.8218  0.4182
 2257TIP3    H2 6736   1.235   1.754   4.833  1.3803 -1.3385  0.0772
 2258TIP3   OH2 6737   5.452   6.399   4.049  0.5851 -0.1881 -0.0882
 2258TIP3    H1 6738   5.532   6.352   4.074 -0.1934 -1.0339  0.8958
 2258TIP3    H2 6739   5.441   6.465   4.118  0.5717  0.1128 -0.3739
 2259TIP3   OH2 6740   5.967   3.486   0.562  0.4003  0.2228  0.1172
 2259TIP3    H1 6741   5.926   3.400   0.569 -0.3391  0.6480  1.4378
 2259TIP3    H2 6742   6.055   3.474   0.596  1.1375 -0.5042 -1.9092
 2260TIP3   OH2 6743   0.464   4.154   3.989 -0.2828  0.0100  0.2111
 2260TIP3    H1 6744   0.454   4.137   4.083 -0.4508 -1.1788 -0.0083
 2260TIP3    H2 6745   0.549   4.117   3.967 -0.1149  0.5498 -0.0537
 2261TIP3   OH2 6746   2.581   1.458   1.878  0.1763  0.0842  0.1487
 2261TIP3    H1 6747   2.613   1.467   1.788  4.0993  0.2361  1.3685
 2261TIP3    H2 6748   2.592   1.546   1.916 -2.0519  0.1940  0.6836
 2262TIP3   OH2 6749   0.124   1.550   4.734  0.0561  0.1384  0.9446
 2262TIP3    H1 6750   0.108   1.472   4.787 -1.1261  0.6324  1.3554
 2262TIP3    H2 6751   0.157   1.615   4.796  1.1286 -0.0508  0.5864
 2263TIP3   OH2 6752   2.870   3.669   3.440 -0.1233 -0.6428 -0.3569
 2263TIP3    H1 6753   2.805   3.602   3.462  0.8906 -1.5530 -0.0769
 2263TIP3    H2 6754   2.906   3.697   3.524  1.7160 -2.0635 -0.6187
 2264TIP3   OH2 6755   1.517   3.957   1.426  0.4795 -0.2760 -0.5773
 2264TIP3    H1 6756   1.448   3.925   1.484  2.2088  0.6619  2.1809
 2264TIP3    H2 6757   1.476   4.028   1.377 -0.7623 -0.3294  0.3307
 2265TIP3   OH2 6758   6.183   0.355   4.453 -0.0099  0.3476  0.5499
 2265TIP3    H1 6759   6.096   0.348   4.415  0.4837  1.1035 -0.8071
 2265TIP3    H2 6760   6.230   0.279   4.418  0.7166  1.5324 -1.2037
 2266TIP3   OH2 6761   2.525   1.839   4.489 -0.0814  0.2043 -0.8825
 2266TIP3    H1 6762   2.591   1.772   4.470 -1.1886 -0.6174 -2.0225
 2266TIP3    H2 6763   2.553   1.916   4.439  1.1435  0.6055  0.3529
 2267TIP3   OH2 6764   2.349   4.500   4.168 -0.1421  0.4014  0.0106
 2267TIP3    H1 6765   2.378   4.434   4.231  0.2709  0.5956  0.0272
 2267TIP3    H2 6766   2.284   4.454   4.114  1.1995 -0.4755 -0.9222
 2268TIP3   OH2 6767   0.933   0.407   3.810  0.2685 -0.8121 -0.5228
 2268TIP3    H1 6768   1.008   0.433   3.863  1.4169 -2.3397 -1.3306
 2268TIP3    H2 6769   0.860   0.403   3.872  1.1738 -0.7752  0.5779
 2269TIP3   OH2 6770   5.645   4.215   3.548 -0.0592  0.2258 -0.8460
 2269TIP3    H1 6771   5.718   4.163   3.583 -0.0924  0.3467 -0.5915
 2269TIP3    H2 6772   5.685   4.295   3.515 -0.2780  1.2254  1.1611
 2270TIP3   OH2 6773   4.144   4.079   5.628  0.1478  0.0922  0.1673
 2270TIP3    H1 6774   4.097   4.001   5.658  1.7633 -2.0727 -2.4710
 2270TIP3    H2 6775   4.075   4.143   5.610 -1.4198 -1.4796  0.3421
 2271TIP3   OH2 6776   0.476   5.055   2.692 -0.3762  0.5354 -0.1515
 2271TIP3    H1 6777   0.482   4.959   2.696 -0.9929  0.2236 -3.8656
 2271TIP3    H2 6778   0.384   5.073   2.676  0.0051  1.6063 -1.3035
 2272TIP3   OH2 6779   7.122   1.315   3.512  0.0012  0.2218  0.7187
 2272TIP3    H1 6780   7.052   1.335   3.573 -0.7080 -2.0432  0.7503
 2272TIP3    H2 6781   7.146   1.399   3.474 -2.4292  1.1313  1.0263
 2273TIP3   OH2 6782   5.599   5.019   4.917  0.4351 -0.4375  0.1214
 2273TIP3    H1 6783   5.609   5.114   4.919  0.1393 -0.4163  0.8546
 2273TIP3    H2 6784   5.608   4.996   4.824  1.2548  0.2200  0.0231
 2274TIP3   OH2 6785   2.312   6.732   3.787 -0.5731  0.5816 -0.0727
 2274TIP3    H1 6786   2.368   6.720   3.864 -2.6018  1.1418  1.5671
 2274TIP3    H2 6787   2.284   6.644   3.764 -0.1552  0.4288 -0.0019
 2275TIP3   OH2 6788   6.269   5.527   2.588 -0.4934 -0.0020  0.6015
 2275TIP3    H1 6789   6.254   5.619   2.611  2.7886  0.8457 -0.1996
 2275TIP3    H2 6790   6.346   5.501   2.638 -0.2699 -1.7693 -0.5631
 2276TIP3   OH2 6791   1.362   5.858   1.441 -0.3357 -0.5460  0.7717
 2276TIP3    H1 6792   1.330   5.925   1.502 -1.6611  0.6098 -1.0925
 2276TIP3    H2 6793   1.398   5.907   1.368  0.1878 -1.8923  0.0916
 2277TIP3   OH2 6794   5.607   3.079   4.128 -0.0160  0.0458  0.1430
 2277TIP3    H1 6795   5.589   3.171   4.147 -2.8488 -0.4841  0.4158
 2277TIP3    H2 6796   5.637   3.042   4.211 -1.2809  0.2269  0.7041
 2278TIP3   OH2 6797   2.250   2.574   5.752  0.0096 -0.0160 -0.3227
 2278TIP3    H1 6798   2.200   2.651   5.778  0.2440 -0.2056  0.7454
 2278TIP3    H2 6799   2.282   2.594   5.665 -2.3009 -0.0792 -1.2575
 2279TIP3   OH2 6800   6.778   6.322   4.175 -0.5792  0.3668 -0.1728
 2279TIP3    H1 6801   6.753   6.410   4.205 -1.0330  0.2578 -0.2146
 2279TIP3    H2 6802   6.843   6.337   4.107  0.4932  0.6223  0.8687
 2280TIP3   OH2 6803   6.726   0.674   5.776 -0.4259 -0.4040 -0.3780
 2280TIP3    H1 6804   6.706   0.592   5.821 -0.9519 -1.5672 -2.5661
 2280TIP3    H2 6805   6.666   0.738   5.813 -1.6957 -1.6047 -0.2788
 2281TIP3   OH2 6806   4.522   0.545   3.138 -0.0797  0.6279  0.7441
 2281TIP3    H1 6807   4.574   0.556   3.058  1.2158 -3.1808  0.8463
 2281TIP3    H2 6808   4.575   0.584   3.207  0.1329  1.4347  0.1343
 2282TIP3   OH2 6809   0.648   3.119   4.577 -0.1328  0.4641  0.1216
 2282TIP3    H1 6810   0.601   3.037   4.595 -0.7532  0.3414 -1.8312
 2282TIP3    H2 6811   0.640   3.169   4.658 -0.3385 -1.1108  1.1269
 2283TIP3   OH2 6812   6.284   6.026   4.226  0.2261  0.5219 -0.0893
 2283TIP3    H1 6813   6.200   5.980   4.227  0.1986  0.5705  0.7450
 2283TIP3    H2 6814   6.263   6.113   4.262  0.6733  0.4533  0.3424
 2284TIP3   OH2 6815   6.288   5.114   2.887  0.5994 -0.1905 -0.2862
 2284TIP3    H1 6816   6.267   5.206   2.905  0.2574 -0.2379 -0.4501
 2284TIP3    H2 6817   6.215   5.064   2.922  1.1523 -0.4627  0.5086
 2285TIP3   OH2 6818   0.266   1.769   2.179 -0.1044  0.4569 -0.1331
 2285TIP3    H1 6819   0.330   1.801   2.243  0.6649  0.3049 -0.8163
 2285TIP3    H2 6820   0.261   1.675   2.197  0.3530  0.3596 -0.5005
 2286TIP3   OH2 6821   5.228   4.406   4.569 -0.5417  0.1941  0.1222
 2286TIP3    H1 6822   5.167   4.333   4.562 -0.4048  0.2280 -2.1327
 2286TIP3    H2 6823   5.185   4.479   4.523 -0.2026  1.2145  1.3650
 2287TIP3   OH2 6824   3.687   5.143   4.778 -0.0303 -0.2684  0.3017
 2287TIP3    H1 6825   3.605   5.126   4.824 -0.8310 -0.3841 -1.1210
 2287TIP3    H2 6826   3.681   5.092   4.697  0.8258  0.8055 -0.4735
 2288TIP3   OH2 6827   1.670   3.379   0.280 -0.7863 -0.8789  0.7103
 2288TIP3    H1 6828   1.686   3.396   0.373 -1.5535  1.4132  0.4909
 2288TIP3    H2 6829   1.756   3.353   0.246  0.3033  1.4630  1.4593
 2289TIP3   OH2 6830   3.223   4.226   5.505 -0.3515  0.7898 -0.1286
 2289TIP3    H1 6831   3.205   4.239   5.412  0.7269  0.7074 -0.3688
 2289TIP3    H2 6832   3.141   4.195   5.541 -1.9402  4.2674 -0.3103
 2290TIP3   OH2 6833   5.492   3.090   1.123 -0.2815  0.2939  0.1200
 2290TIP3    H1 6834   5.560   3.086   1.190 -2.2916 -1.0965  2.2561
 2290TIP3    H2 6835   5.436   3.163   1.149 -1.8410 -1.0800  0.8821
 2291TIP3   OH2 6836   6.141   2.190   0.011 -0.0958  0.5276  0.2818
 2291TIP3    H1 6837   6.193   2.114   0.035 -0.2310  0.5652  0.7155
 2291TIP3    H2 6838   6.062   2.183   0.065  0.8518  2.1205  1.9909
 2292TIP3   OH2 6839   3.342   5.129  -0.012  0.4160  0.7511 -0.0318
 2292TIP3    H1 6840   3.345   5.150   0.081 -0.7429 -1.0595  0.4668
 2292TIP3    H2 6841   3.424   5.083  -0.028  0.3674  0.5655  0.2399
 2293TIP3   OH2 6842   2.368   0.875   0.491  0.1382 -0.6300  1.1419
 2293TIP3    H1 6843   2.377   0.968   0.472 -0.4508 -0.8438 -0.3284
 2293TIP3    H2 6844   2.327   0.871   0.577  0.2549  0.4673  1.2530
 2294TIP3   OH2 6845   5.437   1.117   5.154 -0.1560  0.1612 -0.3571
 2294TIP3    H1 6846   5.455   1.195   5.101  0.4682 -0.0704 -0.4978
 2294TIP3    H2 6847   5.510   1.112   5.215 -1.0874  0.6739  0.8479
 2295TIP3   OH2 6848   4.386   5.265   1.955 -0.0091 -0.3620  0.5409
 2295TIP3    H1 6849   4.324   5.202   1.991 -0.1928 -1.0921 -0.9722
 2295TIP3    H2 6850   4.457   5.212   1.920 -0.4322  0.1792 -1.2721
 2296TIP3   OH2 6851   7.063   5.678   4.147  0.4728  0.0822 -0.5368
 2296TIP3    H1 6852   7.095   5.725   4.225  0.7468  0.1677 -0.6980
 2296TIP3    H2 6853   6.971   5.662   4.165  0.6587 -0.3834  0.0463
 2297TIP3   OH2 6854   1.189   4.424   1.806 -0.5190 -0.0704 -0.4492
 2297TIP3    H1 6855   1.188   4.330   1.789 -3.2476 -0.1584 -0.1954
 2297TIP3    H2 6856   1.222   4.431   1.896  3.3493 -0.3925 -1.6615
 2298TIP3   OH2 6857   3.902   0.767   0.802  0.5109  0.3781  0.1408
 2298TIP3    H1 6858   3.962   0.692   0.799 -1.3287 -1.1495 -0.9881
 2298TIP3    H2 6859   3.891   0.791   0.710  2.0753  2.9755  0.5377
 2299TIP3   OH2 6860   6.772   3.254   0.117  0.0734  0.2266  0.1211
 2299TIP3    H1 6861   6.790   3.343   0.087  0.3667  0.7210  1.7049
 2299TIP3    H2 6862   6.784   3.257   0.212 -0.7945 -1.2930  0.3093
 2300TIP3   OH2 6863   6.954   0.762   2.635 -0.3737 -0.0849 -0.0431
 2300TIP3    H1 6864   6.977   0.670   2.621 -0.2757 -0.2916  1.3478
 2300TIP3    H2 6865   6.999   0.786   2.716  1.4249  1.8598 -1.5155
 2301TIP3   OH2 6866   0.051   5.450   5.025  0.0064  0.5636  0.1586
 2301TIP3    H1 6867   0.099   5.509   5.082  0.3374  0.3907  0.0631
 2301TIP3    H2 6868   0.042   5.499   4.943 -2.8031  1.9085  1.1344
 2302TIP3   OH2 6869   1.688   6.216   1.030  0.1923  0.0544  0.2441
 2302TIP3    H1 6870   1.695   6.309   1.051 -0.4912  0.0703  0.4366
 2302TIP3    H2 6871   1.754   6.174   1.084 -0.1088  0.3335  0.8380
 2303TIP3   OH2 6872   0.104   6.150   4.468  0.0957 -0.6291  0.1571
 2303TIP3    H1 6873   0.097   6.191   4.554  0.7589 -1.1117  0.4521
 2303TIP3    H2 6874   0.020   6.169   4.425 -0.1789 -0.2514  0.8467
 2304TIP3   OH2 6875   2.809   6.199   5.552 -0.0201  0.0521 -0.3050
 2304TIP3    H1 6876   2.829   6.265   5.486  0.7230 -0.0739 -0.2176
 2304TIP3    H2 6877   2.805   6.117   5.502 -0.7755  0.1331 -0.3884
 2305TIP3   OH2 6878   3.412   1.767   3.823 -0.1719  0.1989  0.2834
 2305TIP3    H1 6879   3.457   1.715   3.756 -0.2525  0.8145 -0.2599
 2305TIP3    H2 6880   3.335   1.714   3.846 -0.1829  0.0131 -0.1639
 2306TIP3   OH2 6881   6.241   0.745   1.508 -0.4951 -0.2487 -0.4869
 2306TIP3    H1 6882   6.224   0.712   1.420 -1.4495  0.8397 -0.7371
 2306TIP3    H2 6883   6.169   0.710   1.561 -1.8968  1.8429 -0.8904
 2307TIP3   OH2 6884   6.825   4.302   3.561 -0.0598  0.9002 -0.1590
 2307TIP3    H1 6885   6.858   4.286   3.472 -0.3254 -1.3190  0.0807
 2307TIP3    H2 6886   6.746   4.353   3.548 -0.6160 -0.1897 -1.3134
 2308TIP3   OH2 6887   2.279   6.768   0.254 -0.0933 -0.2739 -0.0028
 2308TIP3    H1 6888   2.191   6.736   0.232 -0.0799 -0.2584 -0.0804
 2308TIP3    H2 6889   2.322   6.694   0.297  0.1143 -0.5341 -0.6408
 2309TIP3   OH2 6890   0.557   5.303   0.486 -0.1068  0.2166 -0.8810
 2309TIP3    H1 6891   0.481   5.254   0.518 -0.0468 -0.1306 -1.2600
 2309TIP3    H2 6892   0.527   5.343   0.404  0.7695 -1.7782 -2.2571
 2310TIP3   OH2 6893   1.273   3.823   2.858  0.2369  0.6622 -0.6133
 2310TIP3    H1 6894   1.208   3.773   2.808  0.2524  1.5437 -1.5370
 2310TIP3    H2 6895   1.253   3.914   2.840  1.8727  0.9661 -1.1389
 2311TIP3   OH2 6896   2.452   1.193   1.210 -0.0889 -0.2626 -0.5119
 2311TIP3    H1 6897   2.425   1.164   1.123 -0.9261  1.4538 -0.8747
 2311TIP3    H2 6898   2.546   1.210   1.201 -0.3735  0.9707 -1.4345
 2312TIP3   OH2 6899   1.363   4.233   3.598 -0.2724  0.3391 -0.0414
 2312TIP3    H1 6900   1.352   4.148   3.556 -1.9086  1.2484 -1.5558
 2312TIP3    H2 6901   1.457   4.251   3.591 -0.2042 -0.4678 -1.4517
 2313TIP3   OH2 6902   0.606   0.075   0.885 -0.1588  0.0343  0.9353
 2313TIP3    H1 6903   0.646   0.154   0.849  0.4672 -1.1578 -1.1615
 2313TIP3    H2 6904   0.602   0.091   0.980 -0.1393  2.5662  0.5682
 2314TIP3   OH2 6905   2.912   1.670   5.285 -0.1225  0.5286 -0.6810
 2314TIP3    H1 6906   2.847   1.620   5.332  0.7984  0.7476  0.8887
 2314TIP3    H2 6907   2.978   1.606   5.258  0.2369  0.6387 -0.0924
 2315TIP3   OH2 6908   0.827   2.020   0.239  0.1667 -0.1701  0.1027
 2315TIP3    H1 6909   0.880   2.092   0.273  1.2878 -0.6499 -0.5681
 2315TIP3    H2 6910   0.812   1.963   0.315  2.3954 -1.0878 -0.0788
 2316TIP3   OH2 6911   0.668   1.151   1.613 -0.3556  0.1887  0.0160
 2316TIP3    H1 6912   0.697   1.133   1.702 -1.8874  0.4542  0.5894
 2316TIP3    H2 6913   0.685   1.070   1.565  2.1478  0.6045  0.0504
 2317TIP3   OH2 6914   4.297   6.561   5.295 -0.2100  0.3146 -0.0683
 2317TIP3    H1 6915   4.271   6.625   5.228 -1.4983  0.1868  0.2873
 2317TIP3    H2 6916   4.223   6.557   5.355  0.0092 -1.2381  0.1347
 2318TIP3   OH2 6917   1.266   1.149   1.529  0.0471 -0.1995  0.3509
 2318TIP3    H1 6918   1.194   1.130   1.588 -0.3134  0.5171  0.1537
 2318TIP3    H2 6919   1.330   1.079   1.546  0.7702  0.9307  2.9036
 2319TIP3   OH2 6920   6.555   6.445   0.928 -0.1177 -0.3382  0.0698
 2319TIP3    H1 6921   6.466   6.426   0.898 -0.9010  0.1118  1.9553
 2319TIP3    H2 6922   6.555   6.420   1.020  1.5021  0.3503  0.2959
 2320TIP3   OH2 6923   0.353   5.187   4.410 -0.5038  0.1457 -0.5540
 2320TIP3    H1 6924   0.386   5.273   4.436 -1.8013  0.2395  0.9398
 2320TIP3    H2 6925   0.424   5.127   4.431 -0.0771  0.6925 -0.3941
 2321TIP3   OH2 6926   5.267   1.901   0.354  0.0533  0.0042  0.7330
 2321TIP3    H1 6927   5.191   1.843   0.356  0.3156 -0.4475 -0.9310
 2321TIP3    H2 6928   5.315   1.875   0.276  0.4782  2.0898  0.2479
 2322TIP3   OH2 6929   2.798   0.709   2.115  0.1889 -0.2940 -0.9677
 2322TIP3    H1 6930   2.735   0.779   2.100  0.7484  0.3114 -0.5485
 2322TIP3    H2 6931   2.877   0.738   2.071  1.0721  0.3401  0.9378
 2323TIP3   OH2 6932   6.615   1.917   4.238  0.2416 -0.5192  0.0711
 2323TIP3    H1 6933   6.622   1.973   4.161  0.0683  0.0348  0.4544
 2323TIP3    H2 6934   6.704   1.916   4.275  0.5324 -1.4828 -0.6070
 2324TIP3   OH2 6935   2.852   6.300   4.646 -0.3789  0.3380  0.4625
 2324TIP3    H1 6936   2.799   6.221   4.655 -0.3410  0.0947 -1.0979
 2324TIP3    H2 6937   2.886   6.295   4.556  1.3736  1.0453  1.0565
 2325TIP3   OH2 6938   1.964   2.341   3.265 -0.8820  0.4923 -0.0164
 2325TIP3    H1 6939   1.962   2.420   3.211 -1.8123  0.1235 -0.5396
 2325TIP3    H2 6940   2.052   2.306   3.252 -0.0185  2.0676  1.1812
 2326TIP3   OH2 6941   5.611   1.176   3.612 -0.0321 -0.4035  0.2080
 2326TIP3    H1 6942   5.574   1.088   3.605 -1.9918  0.4548 -0.8396
 2326TIP3    H2 6943   5.548   1.233   3.569  1.9550  1.3482 -0.5643
 2327TIP3   OH2 6944   5.763   0.850   2.753 -0.2959  0.1139 -0.2018
 2327TIP3    H1 6945   5.782   0.904   2.830  0.7669 -1.4446  0.7007
 2327TIP3    H2 6946   5.807   0.894   2.681  1.4470 -0.0529  0.7076
 2328TIP3   OH2 6947   6.521   3.768   2.186  0.0125  0.0113 -0.2431
 2328TIP3    H1 6948   6.542   3.822   2.110  0.1031 -0.7460 -0.7701
 2328TIP3    H2 6949   6.453   3.817   2.233  0.6215  0.9217 -0.3066
 2329TIP3   OH2 6950   4.313   2.829   4.117  0.5886  0.0090  0.1847
 2329TIP3    H1 6951   4.282   2.808   4.205  0.6292  0.7070  0.3679
 2329TIP3    H2 6952   4.264   2.908   4.092 -0.8345 -1.2093 -1.1672
 2330TIP3   OH2 6953   3.676   1.280   0.392  0.0125 -0.2515  0.3536
 2330TIP3    H1 6954   3.678   1.210   0.458  1.3548  1.4942  2.2985
 2330TIP3    H2 6955   3.619   1.347   0.429 -0.1412  0.2945 -0.8211
 2331TIP3   OH2 6956   2.996   6.584   5.557 -0.1984  0.1630  0.2929
 2331TIP3    H1 6957   2.946   6.560   5.635  2.0254  0.6148  1.9597
 2331TIP3    H2 6958   3.079   6.538   5.567  0.4208  0.7959 -1.4827
 2332TIP3   OH2 6959   0.039   3.813   1.074 -0.1358 -0.3081 -0.5123
 2332TIP3    H1 6960   0.126   3.798   1.110  0.7384  1.5651 -1.6945
 2332TIP3    H2 6961   0.011   3.897   1.110 -0.9930 -0.3892 -0.9546
 2333TIP3   OH2 6962   3.500   0.221   2.021 -0.5235 -0.3568 -0.0505
 2333TIP3    H1 6963   3.534   0.307   1.996  0.3704 -0.9636 -0.9705
 2333TIP3    H2 6964   3.407   0.225   1.999 -0.8358  0.8590  1.2718
 2334TIP3   OH2 6965   3.376   5.808   2.931 -0.0119  0.2825  0.3495
 2334TIP3    H1 6966   3.310   5.871   2.902  0.9538  1.1972  0.0577
 2334TIP3    H2 6967   3.451   5.862   2.957  0.0667 -0.6420  2.2115
 2335TIP3   OH2 6968   1.844   1.446   5.311  0.4729  0.0893 -0.6664
 2335TIP3    H1 6969   1.806   1.374   5.362 -0.0102  1.8464  1.6175
 2335TIP3    H2 6970   1.938   1.430   5.312  0.6224  0.6838  1.9434
 2336TIP3   OH2 6971   0.025   2.703   0.009  0.0763 -0.3409  0.0229
 2336TIP3    H1 6972   0.038   2.658   0.093 -0.0589 -1.1577 -0.3858
 2336TIP3    H2 6973   0.107   2.690  -0.038 -0.2106 -0.7583 -0.3700
 2337TIP3   OH2 6974   4.618   0.076  -0.025  0.0775 -0.3712 -0.2313
 2337TIP3    H1 6975   4.647   0.008   0.036  1.1595  1.5994  1.5775
 2337TIP3    H2 6976   4.669   0.153  -0.001 -1.7650  1.3732 -1.5628
 2338TIP3   OH2 6977   4.837   4.761   3.323  0.9360  0.3621 -0.3662
 2338TIP3    H1 6978   4.896   4.801   3.387  1.1886 -0.7650  0.1339
 2338TIP3    H2 6979   4.881   4.680   3.297  0.6406  0.5837 -1.6724
 2339TIP3   OH2 6980   3.597   2.545   3.187 -0.0337 -0.8437  0.3798
 2339TIP3    H1 6981   3.633   2.615   3.241  0.8352 -2.2332  1.7154
 2339TIP3    H2 6982   3.652   2.545   3.108  0.5803 -0.6104  0.7963
 2340TIP3   OH2 6983   0.010   1.298   4.882 -0.2530  0.3484 -0.0003
 2340TIP3    H1 6984  -0.039   1.218   4.863  0.3846 -0.5569  1.8975
 2340TIP3    H2 6985   0.089   1.268   4.927 -0.2070  2.0480  1.1674
 2341TIP3   OH2 6986   6.266   6.272   0.660  0.1663  0.3868 -0.3804
 2341TIP3    H1 6987   6.264   6.280   0.564  0.8622 -1.0326 -0.5406
 2341TIP3    H2 6988   6.315   6.192   0.676  1.3745  1.4050  1.2282
 2342TIP3   OH2 6989   1.377   5.704   4.562  0.3961  0.1598 -0.0373
 2342TIP3    H1 6990   1.333   5.648   4.498 -0.5342  0.1920  0.5584
 2342TIP3    H2 6991   1.370   5.656   4.644 -0.3899  1.1171  0.4784
 2343TIP3   OH2 6992   3.625   2.167   1.337 -0.3357 -0.2832 -0.1785
 2343TIP3    H1 6993   3.716   2.194   1.343  0.3074 -2.5934  3.3125
 2343TIP3    H2 6994   3.575   2.247   1.354  1.1212  0.5429  0.3724
 2344TIP3   OH2 6995   3.495   5.123   3.395  0.4160  0.0700  0.1621
 2344TIP3    H1 6996   3.510   5.084   3.309 -2.2562  3.2542 -1.9939
 2344TIP3    H2 6997   3.550   5.202   3.395 -0.7181  0.8894  0.6833
 2345TIP3   OH2 6998   0.126   6.626   3.466  0.3545  0.2635  0.6864
 2345TIP3    H1 6999   0.212   6.664   3.481 -0.1634  1.0175  1.8627
 2345TIP3    H2 7000   0.094   6.669   3.386  0.4790  1.0512  1.0511
 2346TIP3   OH2 7001   0.536   0.287   2.801 -0.1012 -0.0110 -0.3350
 2346TIP3    H1 7002   0.612   0.343   2.815 -0.9824  0.7088  2.2461
 2346TIP3    H2 7003   0.542   0.221   2.870 -0.9853 -0.9247 -1.0960
 2347TIP3   OH2 7004   6.103   0.265   0.995  0.1342 -0.0077  0.8727
 2347TIP3    H1 7005   6.152   0.347   0.997  0.9995 -0.4465 -0.9665
 2347TIP3    H2 7006   6.170   0.197   1.004 -0.6272 -0.5531  2.9895
 2348TIP3   OH2 7007   2.204   4.438   1.532 -0.4166 -0.6482 -0.0775
 2348TIP3    H1 7008   2.163   4.363   1.489 -0.4904 -0.7912  0.2415
 2348TIP3    H2 7009   2.151   4.513   1.504 -1.3161 -0.9132  0.8561
 2349TIP3   OH2 7010   4.481   0.360   0.719  0.6901  0.5691 -0.2180
 2349TIP3    H1 7011   4.417   0.427   0.694 -0.7684 -1.2260 -1.6073
 2349TIP3    H2 7012   4.564   0.393   0.684  0.1908  2.0366 -0.1053
 2350TIP3   OH2 7013   5.503   5.471   3.768  0.3850 -0.0184  0.2583
 2350TIP3    H1 7014   5.519   5.472   3.862 -0.1416  1.9166  0.3711
 2350TIP3    H2 7015   5.463   5.386   3.752  1.3971 -0.7979  1.5916
 2351TIP3   OH2 7016   6.556   3.155   5.609 -0.3136 -0.6745  0.6320
 2351TIP3    H1 7017   6.472   3.189   5.640  0.1627 -0.3239  1.5706
 2351TIP3    H2 7018   6.532   3.091   5.542 -1.2699  2.3208 -2.1626
 2352TIP3   OH2 7019   7.044   4.449   0.804 -0.1048 -0.3800  0.3311
 2352TIP3    H1 7020   7.015   4.386   0.870  0.9233  0.4713  1.6340
 2352TIP3    H2 7021   6.967   4.504   0.789 -0.2803 -0.4398  0.9768
 2353TIP3   OH2 7022   5.556   1.394   0.197  0.1515 -0.2389  0.4004
 2353TIP3    H1 7023   5.573   1.487   0.217  0.3987 -0.2652  0.3197
 2353TIP3    H2 7024   5.589   1.347   0.274  2.9502 -0.4951 -0.8446
 2354TIP3   OH2 7025   4.084   3.704   5.485  0.7607  0.5908  0.6730
 2354TIP3    H1 7026   4.027   3.632   5.456  0.8429  0.9793 -0.5112
 2354TIP3    H2 7027   4.152   3.661   5.537  0.5335 -0.1384  0.3875
 2355TIP3   OH2 7028   2.368   2.628   5.482 -0.0413  0.0502 -0.2464
 2355TIP3    H1 7029   2.304   2.696   5.460  0.9480  1.2824  0.4890
 2355TIP3    H2 7030   2.418   2.617   5.401 -0.3259  0.0595 -0.4263
 2356TIP3   OH2 7031   2.556   5.676   2.201  0.6714 -0.3207  0.1015
 2356TIP3    H1 7032   2.613   5.618   2.252  0.8897 -0.8040 -0.6785
 2356TIP3    H2 7033   2.616   5.740   2.162  0.6724 -0.7718 -0.6440
 2357TIP3   OH2 7034   5.322   5.235   3.267  0.2745  0.0675  0.2293
 2357TIP3    H1 7035   5.328   5.325   3.237 -1.6005 -0.1716 -1.0641
 2357TIP3    H2 7036   5.412   5.202   3.266  0.8606  1.6136 -0.1987
 2358TIP3   OH2 7037   5.191   5.951   3.817 -0.5085 -0.4188 -0.5154
 2358TIP3    H1 7038   5.175   5.885   3.750  1.2391 -2.6773  1.1264
 2358TIP3    H2 7039   5.258   5.912   3.873 -0.8142  1.9705  1.6820
 2359TIP3   OH2 7040   2.057   6.552   2.965 -0.1197  0.6136 -0.3038
 2359TIP3    H1 7041   2.061   6.551   2.869  0.0669  0.6361 -0.2975
 2359TIP3    H2 7042   2.124   6.615   2.990 -0.4813  0.9479 -0.1736
 2360TIP3   OH2 7043   1.925   0.025   4.632 -0.5816 -0.4332  0.3581
 2360TIP3    H1 7044   1.875   0.106   4.623  1.9992  1.0976 -1.8818
 2360TIP3    H2 7045   1.908  -0.023   4.551  0.7697 -0.3012 -0.0337
 2361TIP3   OH2 7046   4.965   3.461   2.290 -0.6421  0.4196  0.1978
 2361TIP3    H1 7047   4.971   3.555   2.275 -1.2798  0.9791  2.9137
 2361TIP3    H2 7048   4.902   3.430   2.224  0.9077  1.4984 -1.9247
 2362TIP3   OH2 7049   0.935   4.223   1.279  0.7478 -0.1545  0.2882
 2362TIP3    H1 7050   0.921   4.128   1.278  0.9154 -0.1787 -0.1912
 2362TIP3    H2 7051   0.991   4.239   1.355  1.2678 -0.5256 -0.0116
 2363TIP3   OH2 7052   0.452   6.262   5.077  0.2840 -0.1426  0.0848
 2363TIP3    H1 7053   0.466   6.237   5.169  0.6323  0.2560  0.1455
 2363TIP3    H2 7054   0.378   6.209   5.048  0.3923 -0.5211  0.4967
 2364TIP3   OH2 7055   4.828   2.462   3.713 -0.1333  0.2603  0.0089
 2364TIP3    H1 7056   4.923   2.465   3.716 -0.1673  1.6466  0.3288
 2364TIP3    H2 7057   4.801   2.445   3.803 -0.1891  0.5307  0.0462
 2365TIP3   OH2 7058   5.707   2.332   4.367 -0.2567 -0.1694 -0.1918
 2365TIP3    H1 7059   5.622   2.375   4.382 -1.0010 -1.0478 -1.6751
 2365TIP3    H2 7060   5.716   2.272   4.441  0.3523  1.7569  1.3999
 2366TIP3   OH2 7061   0.023   1.734   5.316  0.2444 -0.1198  0.9155
 2366TIP3    H1 7062   0.108   1.776   5.321  0.2515 -0.1928  1.5246
 2366TIP3    H2 7063   0.003   1.729   5.222  1.3369 -0.9832  0.7171
 2367TIP3   OH2 7064   0.143   0.734   3.953  0.1377  0.4145 -0.0466
 2367TIP3    H1 7065   0.155   0.828   3.968  1.7207  0.3388 -0.7021
 2367TIP3    H2 7066   0.229   0.696   3.967 -0.2988 -0.8429 -0.6199
 2368TIP3   OH2 7067   1.748   2.931   5.128 -0.2258 -0.2862  0.1770
 2368TIP3    H1 7068   1.713   2.943   5.040 -1.0449 -0.0529  0.5237
 2368TIP3    H2 7069   1.670   2.929   5.184  0.1365 -2.3546  0.6939
 2369TIP3   OH2 7070   2.760   1.701   4.827  0.3913  0.1583  0.6956
 2369TIP3    H1 7071   2.820   1.745   4.888 -1.5819 -0.0037  2.8567
 2369TIP3    H2 7072   2.682   1.757   4.826  0.1357 -0.1621 -1.2823
 2370TIP3   OH2 7073   2.959   4.986   3.969 -0.0816  0.7254  0.0647
 2370TIP3    H1 7074   3.019   5.056   3.996  0.7057  0.4375 -0.8983
 2370TIP3    H2 7075   2.947   4.999   3.875  0.7073 -0.8743 -0.3048
 2371TIP3   OH2 7076   3.078   0.973   2.741 -0.2063 -0.3268 -0.4045
 2371TIP3    H1 7077   3.167   0.989   2.710 -1.0577 -0.4410 -3.1550
 2371TIP3    H2 7078   3.085   0.892   2.792  1.8229  1.5638  2.6256
 2372TIP3   OH2 7079   1.388   4.327   2.479 -0.3419 -0.0412 -0.3497
 2372TIP3    H1 7080   1.415   4.270   2.407  2.3664 -1.5228  1.6606
 2372TIP3    H2 7081   1.467   4.377   2.501 -0.9553  0.0801  1.8268
 2373TIP3   OH2 7082   4.174   1.530   0.247 -0.1357 -0.2001 -0.2169
 2373TIP3    H1 7083   4.231   1.553   0.173 -0.0260  1.0773  0.2282
 2373TIP3    H2 7084   4.230   1.478   0.304  0.8937  1.6774  0.5852
 2374TIP3   OH2 7085   0.973   2.019   2.321 -0.0299 -0.0056 -0.9854
 2374TIP3    H1 7086   0.949   2.080   2.251 -2.6884  0.5271  0.2340
 2374TIP3    H2 7087   0.984   2.076   2.398 -2.1584 -0.9513  0.0861
 2375TIP3   OH2 7088   1.777   4.281   0.016  0.2366 -0.1675 -0.5034
 2375TIP3    H1 7089   1.687   4.284   0.047  1.2519  0.1353  2.7950
 2375TIP3    H2 7090   1.801   4.372   0.002  0.3988 -0.1512 -0.1296
 2376TIP3   OH2 7091   1.182   6.050   4.329  0.0231 -0.0346 -0.0195
 2376TIP3    H1 7092   1.217   6.049   4.240 -1.7258 -2.6403 -0.8233
 2376TIP3    H2 7093   1.109   6.112   4.325 -0.4398 -0.6021 -0.6086
 2377TIP3   OH2 7094   6.216   2.258   3.312  0.1524  0.2123  0.5089
 2377TIP3    H1 7095   6.279   2.272   3.383  0.2202 -0.3607  0.5632
 2377TIP3    H2 7096   6.239   2.173   3.275  1.1357  1.1791 -1.2463
 2378TIP3   OH2 7097   6.141   6.518   5.678  0.4906 -0.3960 -0.5245
 2378TIP3    H1 7098   6.047   6.535   5.670  0.6328  1.8673  1.4291
 2378TIP3    H2 7099   6.180   6.558   5.600 -0.0601 -0.1834 -0.6928
 2379TIP3   OH2 7100   1.213   3.042   4.370  0.6314  0.7189 -0.0204
 2379TIP3    H1 7101   1.200   3.074   4.281  1.3189  0.9416 -0.0494
 2379TIP3    H2 7102   1.305   3.016   4.373  0.5713  0.5527  0.5751
 2380TIP3   OH2 7103   4.410   3.944   5.212 -0.2306  0.2662  0.4100
 2380TIP3    H1 7104   4.444   4.008   5.149 -2.3426  1.1802  0.1171
 2380TIP3    H2 7105   4.338   3.900   5.165 -2.2901  1.4084  2.2977
 2381TIP3   OH2 7106   5.347   4.713   1.827  0.4182  0.6872 -0.1642
 2381TIP3    H1 7107   5.356   4.664   1.745  2.0397  0.2438  0.2395
 2381TIP3    H2 7108   5.253   4.715   1.844  0.1907 -0.7690 -1.0987
 2382TIP3   OH2 7109   2.044   5.737   2.856  0.0874 -0.1795 -0.2524
 2382TIP3    H1 7110   2.044   5.810   2.918 -0.5219  1.8127 -2.4477
 2382TIP3    H2 7111   1.953   5.709   2.851  0.0957 -0.1817 -0.4072
 2383TIP3   OH2 7112   6.033   5.879   1.588 -0.0162  0.1180  0.1279
 2383TIP3    H1 7113   5.984   5.799   1.565  0.7209  0.3302 -2.3971
 2383TIP3    H2 7114   5.987   5.949   1.541 -0.2099  1.1167  1.7391
 2384TIP3   OH2 7115   1.317   1.037   0.725  0.0846 -0.1888 -0.1402
 2384TIP3    H1 7116   1.408   1.008   0.729 -0.3130 -1.7763 -1.4697
 2384TIP3    H2 7117   1.284   1.000   0.643 -1.5583  0.9829 -0.0478
 2385TIP3   OH2 7118   6.821   5.132   4.021 -0.0393 -0.2184 -0.3820
 2385TIP3    H1 7119   6.803   5.081   3.942  0.4354  1.0422 -1.3254
 2385TIP3    H2 7120   6.904   5.176   4.003  1.0763 -1.3894  1.5970
 2386TIP3   OH2 7121   5.194   3.516   3.796 -0.0982 -0.0762  0.3117
 2386TIP3    H1 7122   5.100   3.521   3.778 -0.5263 -0.3965  2.1826
 2386TIP3    H2 7123   5.221   3.431   3.763 -0.6345 -0.2811  0.3954
 2387TIP3   OH2 7124   5.167   5.029   1.777  0.2682 -0.1980  0.5142
 2387TIP3    H1 7125   5.257   5.022   1.744 -0.3345 -1.0872 -1.0315
 2387TIP3    H2 7126   5.129   5.102   1.729 -0.8584 -1.9959 -1.5333
 2388TIP3   OH2 7127   1.882   5.556   3.344  1.2624 -0.0279 -0.0787
 2388TIP3    H1 7128   1.938   5.619   3.300  0.6273  0.1686 -0.6256
 2388TIP3    H2 7129   1.803   5.606   3.367  0.8178 -0.5819 -0.3778
 2389TIP3   OH2 7130   1.380   4.326   4.111 -0.4246  0.5596  0.0652
 2389TIP3    H1 7131   1.299   4.365   4.143  1.0340  1.4634  3.0021
 2389TIP3    H2 7132   1.401   4.258   4.174  1.6668  1.1316  0.0754
 2390TIP3   OH2 7133   3.304   4.110   0.798 -0.4059  0.0869 -0.0513
 2390TIP3    H1 7134   3.229   4.071   0.843 -0.6353  0.2692 -0.2718
 2390TIP3    H2 7135   3.278   4.202   0.785 -0.1855  0.1248 -0.2182
 2391TIP3   OH2 7136   3.053   2.640   5.269  0.5327 -0.1446 -0.1016
 2391TIP3    H1 7137   3.007   2.562   5.300  1.8468 -0.4253  1.2443
 2391TIP3    H2 7138   3.109   2.608   5.198 -1.0699  0.1628 -1.6056
 2392TIP3   OH2 7139   0.306   1.086   2.054 -0.7276 -0.2296  0.3282
 2392TIP3    H1 7140   0.294   1.089   1.959  1.1096 -0.6156  0.0312
 2392TIP3    H2 7141   0.321   1.177   2.079 -0.7050 -0.1873  0.1663
 2393TIP3   OH2 7142   1.043   5.977   3.340  0.0885  0.2130  0.4558
 2393TIP3    H1 7143   1.019   6.055   3.390  0.6726  0.5115  0.2792
 2393TIP3    H2 7144   1.050   5.908   3.406 -0.7387  0.2328  0.5743
 2394TIP3   OH2 7145   6.418   1.277   3.335 -0.7951  0.8276 -0.3311
 2394TIP3    H1 7146   6.438   1.186   3.358 -1.7704  1.1570  2.0991
 2394TIP3    H2 7147   6.461   1.290   3.250  0.1001 -1.6166 -0.3354
 2395TIP3   OH2 7148   4.693   0.693   0.559 -0.3738 -0.2780  0.1167
 2395TIP3    H1 7149   4.699   0.712   0.652  0.3606  1.0718 -0.1875
 2395TIP3    H2 7150   4.784   0.682   0.531 -0.5399  0.0582 -0.5776
 2396TIP3   OH2 7151   0.798   0.408   3.565  0.0684 -0.2494  0.7425
 2396TIP3    H1 7152   0.861   0.415   3.637  0.7869  3.0346 -0.0514
 2396TIP3    H2 7153   0.739   0.483   3.577  0.3394  0.5547 -2.1064
 2397TIP3   OH2 7154   5.411   5.781   3.768  0.0703  0.5110  0.4206
 2397TIP3    H1 7155   5.421   5.830   3.686  0.7228 -1.2983 -0.6412
 2397TIP3    H2 7156   5.496   5.789   3.811  0.2421  0.1408  0.1501
 2398TIP3   OH2 7157   4.680   0.066   5.770  0.3975  0.0995  0.2647
 2398TIP3    H1 7158   4.699   0.159   5.777  0.6403  0.1313 -0.6244
 2398TIP3    H2 7159   4.746   0.033   5.709  0.9818 -0.8685  1.4004
 2399TIP3   OH2 7160   1.924   1.435   3.722  0.3661 -0.5951  0.0088
 2399TIP3    H1 7161   1.986   1.442   3.650 -0.0740 -0.0291 -0.3219
 2399TIP3    H2 7162   1.838   1.445   3.682  0.1878  1.8446  0.8549
 2400TIP3   OH2 7163   0.757   2.617   0.121 -0.2806  0.0450 -0.0256
 2400TIP3    H1 7164   0.688   2.608   0.055 -1.7866 -2.1918  1.6894
 2400TIP3    H2 7165   0.710   2.639   0.202  1.2710  0.5800  0.7708
 2401TIP3   OH2 7166   2.932   1.455   4.819 -0.2745 -0.4554  0.2102
 2401TIP3    H1 7167   2.890   1.536   4.850 -0.0821 -0.8121  1.4759
 2401TIP3    H2 7168   2.940   1.467   4.725  0.4064  1.3149  0.4508
 2402TIP3   OH2 7169   0.772   4.518   5.179  0.1300 -0.2341  0.1505
 2402TIP3    H1 7170   0.678   4.504   5.186 -0.2681  2.0275  0.1311
 2402TIP3    H2 7171   0.808   4.431   5.162 -1.8796 -1.2391  0.6837
 2403TIP3   OH2 7172   1.323   5.310   4.924 -0.7135 -0.0034  0.1090
 2403TIP3    H1 7173   1.392   5.298   4.989  0.4561 -2.4375 -1.4202
 2403TIP3    H2 7174   1.282   5.223   4.917 -2.6738  0.9174 -0.4154
 2404TIP3   OH2 7175   4.766   0.117   1.335 -0.8649 -0.4101  0.6964
 2404TIP3    H1 7176   4.745   0.136   1.426  0.3329  0.6822  0.7639
 2404TIP3    H2 7177   4.855   0.083   1.337 -0.3981  0.6774 -0.1407
 2405TIP3   OH2 7178   6.990   0.094   5.368  0.1360  0.2938  0.0666
 2405TIP3    H1 7179   7.059   0.072   5.305  1.1447  2.5596  0.3165
 2405TIP3    H2 7180   7.036   0.122   5.447 -1.0226  2.0361  0.1751
 2406TIP3   OH2 7181   6.058   5.659   0.692  0.6334 -0.1817  0.6234
 2406TIP3    H1 7182   6.103   5.575   0.687  0.5194 -0.1928 -0.3666
 2406TIP3    H2 7183   6.043   5.673   0.786  0.3712 -1.4061  0.7693
 2407TIP3   OH2 7184   5.783   4.963   1.147  0.2436  0.1727  0.0871
 2407TIP3    H1 7185   5.879   4.958   1.149  0.2270  0.1436  1.4057
 2407TIP3    H2 7186   5.764   5.021   1.073  1.3003  0.6329  0.1580
 2408TIP3   OH2 7187   5.286   3.797   3.913 -0.6537 -0.4256 -0.3451
 2408TIP3    H1 7188   5.318   3.822   3.826 -1.9025 -0.1913 -0.7493
 2408TIP3    H2 7189   5.242   3.713   3.898 -1.1657 -0.2189 -0.0095
 2409TIP3   OH2 7190   4.019   1.394   5.172  1.0537  0.1705 -0.0560
 2409TIP3    H1 7191   3.965   1.315   5.170  2.3971 -0.8269 -3.1907
 2409TIP3    H2 7192   3.957   1.466   5.156  0.3888 -0.8615 -2.7106
 2410TIP3   OH2 7193   2.444   4.754   4.182  0.1217  0.2347  0.1039
 2410TIP3    H1 7194   2.441   4.811   4.258 -2.3826  0.5593 -0.1607
 2410TIP3    H2 7195   2.390   4.678   4.205 -1.2338  0.6409 -1.5167
 2411TIP3   OH2 7196   7.005   3.021   2.938  0.2300  0.2695 -0.0230
 2411TIP3    H1 7197   7.013   2.930   2.965 -0.1854 -0.3077 -1.7100
 2411TIP3    H2 7198   6.919   3.049   2.971 -1.5144 -1.2672 -2.8743
 2412TIP3   OH2 7199   0.298   4.146   1.900  0.7408 -0.0258  0.5648
 2412TIP3    H1 7200   0.380   4.138   1.949  0.2917 -1.0723  1.1927
 2412TIP3    H2 7201   0.246   4.071   1.930 -0.6054  0.8595  0.4926
 2413TIP3   OH2 7202   4.088   2.212   3.034 -0.0720 -0.7454  0.1959
 2413TIP3    H1 7203   4.171   2.185   3.073 -0.2149  0.0492  1.1116
 2413TIP3    H2 7204   4.024   2.201   3.105 -0.2384  1.2857  0.4222
 2414TIP3   OH2 7205   5.974   4.863   3.178 -0.0584 -0.3162 -0.3503
 2414TIP3    H1 7206   5.918   4.930   3.216  0.5901 -0.8881  1.7972
 2414TIP3    H2 7207   6.052   4.862   3.235  1.1451 -1.0361 -1.9300
 2415TIP3   OH2 7208   3.509   6.163   3.428  0.1232 -0.7482 -0.4645
 2415TIP3    H1 7209   3.550   6.101   3.367 -0.3426  0.8895 -2.5749
 2415TIP3    H2 7210   3.418   6.135   3.433  0.3041 -1.2600 -0.0233
 2416TIP3   OH2 7211   4.784   6.630   3.844 -0.7828  0.6752 -0.3176
 2416TIP3    H1 7212   4.804   6.626   3.750 -0.9429  0.4328 -0.3407
 2416TIP3    H2 7213   4.806   6.720   3.869  0.0619  0.5076 -0.4099
 2417TIP3   OH2 7214   2.249   2.278   2.603  0.9060 -0.1218 -0.7223
 2417TIP3    H1 7215   2.203   2.197   2.579  1.0286 -0.7715  1.1068
 2417TIP3    H2 7216   2.342   2.255   2.601  0.9477  0.0105 -0.3166
 2418TIP3   OH2 7217   2.844   2.718   0.173  0.1036  0.1488  0.4457
 2418TIP3    H1 7218   2.758   2.693   0.208  0.4199 -0.2595  0.9527
 2418TIP3    H2 7219   2.892   2.749   0.250 -0.3583  2.6570 -0.1678
 2419TIP3   OH2 7220   5.814   6.403   3.660 -0.5765  0.2426 -0.2317
 2419TIP3    H1 7221   5.793   6.496   3.659 -0.2335  0.3219 -0.4970
 2419TIP3    H2 7222   5.846   6.385   3.571  0.9293  0.2521  0.2811
 2420TIP3   OH2 7223   2.975   5.982   5.797 -0.3116 -0.1056 -0.0299
 2420TIP3    H1 7224   3.017   6.060   5.760 -0.9036  0.1435 -0.1879
 2420TIP3    H2 7225   2.990   5.914   5.732  0.2505 -0.1428  0.1290
 2421TIP3   OH2 7226   6.070   2.155   5.453 -0.6311 -0.0031 -0.4359
 2421TIP3    H1 7227   6.083   2.075   5.402  2.5305  0.0118  0.1602
 2421TIP3    H2 7228   6.153   2.202   5.446 -1.0783  1.4036  2.2964
 2422TIP3   OH2 7229   3.576   6.135   3.758  0.1801 -0.3870 -0.1557
 2422TIP3    H1 7230   3.535   6.217   3.786  0.4524 -0.0476 -0.7173
 2422TIP3    H2 7231   3.586   6.146   3.663 -0.0811 -1.2091 -0.2785
 2423TIP3   OH2 7232   7.106   3.399   4.533 -0.2115 -0.5430 -0.1313
 2423TIP3    H1 7233   7.128   3.306   4.541  0.1114 -0.3640  1.2322
 2423TIP3    H2 7234   7.026   3.399   4.481  0.9305 -1.4286 -2.0192
 2424TIP3   OH2 7235   1.588   0.529   1.402 -0.3873 -0.5678 -0.1686
 2424TIP3    H1 7236   1.654   0.460   1.411 -0.9436 -0.9143  1.5626
 2424TIP3    H2 7237   1.515   0.499   1.456 -1.0786  0.8702 -0.2720
 2425TIP3   OH2 7238   3.848   5.015   2.264 -0.5523  0.0394  0.2627
 2425TIP3    H1 7239   3.784   5.085   2.280 -0.5389  0.2354 -0.4674
 2425TIP3    H2 7240   3.890   5.000   2.349 -1.6128 -0.1446  0.7670
 2426TIP3   OH2 7241   1.686   5.891   0.149 -0.5930  0.7492  0.0496
 2426TIP3    H1 7242   1.632   5.862   0.075 -0.0298  1.6166 -0.7234
 2426TIP3    H2 7243   1.767   5.840   0.141 -0.5046  0.8930  0.0259
 2427TIP3   OH2 7244   0.819   3.298   1.121  0.0193 -0.2683  0.2659
 2427TIP3    H1 7245   0.891   3.243   1.151  0.0594  0.2711  1.2015
 2427TIP3    H2 7246   0.741   3.245   1.134  0.0553 -0.1114  1.1873
 2428TIP3   OH2 7247   4.449   1.181   2.835 -0.4333  0.1754 -0.2120
 2428TIP3    H1 7248   4.463   1.276   2.844  0.4683 -0.0753  1.5270
 2428TIP3    H2 7249   4.407   1.155   2.917  0.6655 -1.1472 -0.0339
 2429TIP3   OH2 7250   5.200   0.939   4.197 -0.1128 -0.2361 -0.3260
 2429TIP3    H1 7251   5.278   0.908   4.242  0.6589  0.0810 -1.3941
 2429TIP3    H2 7252   5.206   0.900   4.110 -1.4139 -0.6092 -0.2675
 2430TIP3   OH2 7253  -0.022   3.555   1.213  0.1856  0.3040 -0.2130
 2430TIP3    H1 7254   0.071   3.532   1.209  0.2343  0.2726  1.0017
 2430TIP3    H2 7255  -0.025   3.646   1.182  0.5983  0.2753 -0.3479
 2431TIP3   OH2 7256   3.563   4.350   5.194  0.5287 -0.3415  0.4791
 2431TIP3    H1 7257   3.609   4.274   5.158  2.5847  0.9748  0.1851
 2431TIP3    H2 7258   3.479   4.352   5.148  1.0020 -1.6373 -0.4844
 2432TIP3   OH2 7259   5.775   5.312   0.940 -0.3158  0.0658 -0.5544
 2432TIP3    H1 7260   5.801   5.379   1.004  2.0409 -0.3377 -0.9783
 2432TIP3    H2 7261   5.773   5.358   0.856  0.1772 -0.1444 -0.6843
 2433TIP3   OH2 7262   2.932   5.637   1.160 -0.1028  0.0423  0.0339
 2433TIP3    H1 7263   2.839   5.630   1.179  0.1748  0.8309  1.9272
 2433TIP3    H2 7264   2.971   5.561   1.205  0.5332  1.7552  2.6394
 2434TIP3   OH2 7265   5.712   3.250   0.785 -0.2392 -0.5898 -0.1757
 2434TIP3    H1 7266   5.705   3.337   0.825 -0.6986 -0.3887 -0.6712
 2434TIP3    H2 7267   5.782   3.259   0.721 -0.2032 -0.6163 -0.1396
 2435TIP3   OH2 7268   5.996   1.529   0.293  0.2093 -0.1332  0.3246
 2435TIP3    H1 7269   5.939   1.465   0.249 -1.3650  0.7251  1.0274
 2435TIP3    H2 7270   6.017   1.593   0.226  1.6576 -1.2615 -0.3417
 2436TIP3   OH2 7271   5.436   1.744   4.339  0.7024  0.2474 -0.4506
 2436TIP3    H1 7272   5.423   1.831   4.302 -1.8670 -0.2278 -0.8431
 2436TIP3    H2 7273   5.355   1.726   4.386  0.9523 -2.1552 -0.8296
 2437TIP3   OH2 7274   7.112   4.540   5.917  0.4294  0.0342  0.6460
 2437TIP3    H1 7275   7.025   4.560   5.884  0.0522  0.0420  1.6133
 2437TIP3    H2 7276   7.152   4.487   5.848 -0.5333 -0.4081  0.4043
 2438TIP3   OH2 7277   5.046   6.608   0.287  0.2402  0.1179 -0.6306
 2438TIP3    H1 7278   5.045   6.642   0.197  0.9282  1.1545 -0.2608
 2438TIP3    H2 7279   5.114   6.540   0.286  1.1413  1.0107 -0.5900
 2439TIP3   OH2 7280   0.124   4.704   4.967 -0.1430 -0.8620  0.4483
 2439TIP3    H1 7281   0.051   4.734   5.021  0.6564 -1.6394  2.0311
 2439TIP3    H2 7282   0.086   4.636   4.911 -0.6032 -1.4317  1.4304
 2440TIP3   OH2 7283   7.033   1.763   1.045 -0.1182  0.4772 -0.0164
 2440TIP3    H1 7284   6.976   1.693   1.012  0.9864 -0.3806 -0.1553
 2440TIP3    H2 7285   6.994   1.787   1.129 -0.9890  0.2827 -0.3521
 2441TIP3   OH2 7286   1.829   4.047   0.953 -0.0576 -0.4702  0.0865
 2441TIP3    H1 7287   1.845   4.139   0.933  0.4163 -0.4392  0.5865
 2441TIP3    H2 7288   1.775   4.050   1.032 -0.9926 -0.6067 -0.5362
 2442TIP3   OH2 7289   3.322   0.167   2.874  0.0471 -0.0787 -0.0523
 2442TIP3    H1 7290   3.281   0.177   2.788  0.3892 -0.3229 -0.2452
 2442TIP3    H2 7291   3.376   0.246   2.884  1.8531 -1.1330 -1.0838
 2443TIP3   OH2 7292   3.227   3.702   2.152  0.3832  0.5242  0.1183
 2443TIP3    H1 7293   3.316   3.682   2.123  0.5513  0.7664  0.4720
 2443TIP3    H2 7294   3.171   3.662   2.085  0.7481  0.0798  0.0724
 2444TIP3   OH2 7295   0.839   5.090   5.738 -0.4636 -0.2405 -0.1068
 2444TIP3    H1 7296   0.869   5.181   5.738  0.4145 -0.5045  0.8750
 2444TIP3    H2 7297   0.757   5.091   5.787 -0.0966 -0.0677  0.5171
 2445TIP3   OH2 7298   1.113   5.523   3.898  0.6466 -0.0176  0.0456
 2445TIP3    H1 7299   1.097   5.582   3.824  2.1813  0.6313  0.1830
 2445TIP3    H2 7300   1.041   5.539   3.958  0.2311  0.6018 -0.5994
 2446TIP3   OH2 7301   4.399   1.628   1.623  0.0163  0.5893 -0.8685
 2446TIP3    H1 7302   4.316   1.586   1.647 -0.5576  1.6168 -0.9749
 2446TIP3    H2 7303   4.462   1.556   1.618 -0.5675 -0.0514  0.4794
 2447TIP3   OH2 7304   5.145   3.174   0.870  0.0774  0.1591 -0.6801
 2447TIP3    H1 7305   5.153   3.100   0.930  1.4081 -1.0002 -2.1963
 2447TIP3    H2 7306   5.121   3.248   0.926 -2.3090 -1.5710  0.7732
 2448TIP3   OH2 7307   1.622   2.478   2.358  0.1628  0.0688  0.1755
 2448TIP3    H1 7308   1.623   2.386   2.384  2.8332  0.4437  1.7449
 2448TIP3    H2 7309   1.653   2.478   2.267  0.6663 -0.5375  0.3460
 2449TIP3   OH2 7310   1.582   2.848   0.867 -0.2201  0.4009  0.3642
 2449TIP3    H1 7311   1.513   2.790   0.898 -0.1252  0.5376  0.8433
 2449TIP3    H2 7312   1.628   2.876   0.946 -0.1491  0.9820  0.1262
 2450TIP3   OH2 7313   0.375   6.248   4.610  0.8277  0.0790 -0.0552
 2450TIP3    H1 7314   0.361   6.168   4.661 -0.9746 -0.4565 -1.2816
 2450TIP3    H2 7315   0.305   6.247   4.545  1.8407  1.7645 -1.2450
 2451TIP3   OH2 7316   6.765   0.052   1.764  0.4988  0.6281  0.0756
 2451TIP3    H1 7317   6.804   0.074   1.679  0.4991 -0.2581 -0.1654
 2451TIP3    H2 7318   6.699   0.120   1.778  1.3600  1.5021 -0.0303
 2452TIP3   OH2 7319   0.360   6.076   1.338  0.6566 -0.3443 -0.0690
 2452TIP3    H1 7320   0.345   5.986   1.368  0.2776 -0.5429 -0.8219
 2452TIP3    H2 7321   0.385   6.124   1.417 -0.3445 -0.8407  0.5653
 2453TIP3   OH2 7322   4.776   2.959   5.863  0.2208 -0.5086  0.6201
 2453TIP3    H1 7323   4.747   2.870   5.886  0.1581 -0.5025  0.5636
 2453TIP3    H2 7324   4.777   2.960   5.768 -1.6875  0.1661  0.5593
 2454TIP3   OH2 7325   3.483   1.969   1.927  0.7908  0.4921 -0.2316
 2454TIP3    H1 7326   3.407   1.915   1.949 -0.4780  1.1384 -2.5873
 2454TIP3    H2 7327   3.554   1.906   1.916 -0.0105 -0.4216 -0.3731
 2455TIP3   OH2 7328   3.033   4.256   1.009 -0.3702 -0.3899 -0.7058
 2455TIP3    H1 7329   2.964   4.270   0.944 -0.8318  0.1757 -0.1111
 2455TIP3    H2 7330   2.991   4.276   1.093  0.3652 -0.5868 -0.2793
 2456TIP3   OH2 7331   1.456   5.648   3.601 -0.1407 -0.2914  0.2974
 2456TIP3    H1 7332   1.545   5.649   3.636 -0.0272 -0.0070  0.0010
 2456TIP3    H2 7333   1.403   5.610   3.672  0.2268 -0.5508  0.4368
 2457TIP3   OH2 7334   6.103   0.889   2.201  0.2251 -0.1551  0.8003
 2457TIP3    H1 7335   6.173   0.833   2.168  1.0460  0.9413  0.6187
 2457TIP3    H2 7336   6.043   0.900   2.128 -0.0029 -0.8835  0.8756
 2458TIP3   OH2 7337   7.049   1.864   2.061  0.2126  0.4900  0.0193
 2458TIP3    H1 7338   7.016   1.799   2.122  0.7345  0.5342  0.3568
 2458TIP3    H2 7339   7.132   1.893   2.099 -0.4676  2.0658  0.3886
 2459TIP3   OH2 7340   0.963   0.620   5.655 -0.6797 -0.5368 -0.1064
 2459TIP3    H1 7341   0.897   0.560   5.622 -1.8092 -0.0408  1.1939
 2459TIP3    H2 7342   0.972   0.686   5.586 -1.4032 -0.7142 -0.3746
 2460TIP3   OH2 7343   2.613   4.234   4.450 -0.1232 -0.3189 -0.1972
 2460TIP3    H1 7344   2.542   4.290   4.419 -1.1949 -1.3393  0.3314
 2460TIP3    H2 7345   2.643   4.188   4.372 -1.7452 -1.7076 -0.0601
 2461TIP3   OH2 7346   6.960   2.479   3.895 -0.1419 -0.1141 -0.4951
 2461TIP3    H1 7347   6.888   2.500   3.834  1.3091  0.5939 -2.0687
 2461TIP3    H2 7348   7.021   2.553   3.885 -1.3576  1.9704  4.5100
 2462TIP3   OH2 7349   4.957   3.844   5.153 -0.6487  0.3380  0.2832
 2462TIP3    H1 7350   4.915   3.921   5.192 -2.0494 -0.2190 -0.0379
 2462TIP3    H2 7351   4.888   3.803   5.101  1.5653  2.2037 -4.7248
 2463TIP3   OH2 7352   7.005   3.423   0.531 -0.7502  0.0414 -0.3042
 2463TIP3    H1 7353   6.936   3.360   0.511  0.0265 -0.7202 -0.6024
 2463TIP3    H2 7354   7.084   3.387   0.491 -0.6555  2.1741 -2.2378
 2464TIP3   OH2 7355   2.061   5.748   3.272  0.3518 -0.2450  0.2782
 2464TIP3    H1 7356   2.048   5.801   3.193  2.0403 -0.0321  0.1022
 2464TIP3    H2 7357   2.050   5.810   3.344 -0.0908 -0.2044  0.1830
 2465TIP3   OH2 7358   4.384   2.946   2.734  0.4636 -0.2478 -0.1996
 2465TIP3    H1 7359   4.341   2.973   2.653 -2.4894  3.2848  2.1728
 2465TIP3    H2 7360   4.465   2.996   2.737  0.9147 -0.9016 -1.2066
 2466TIP3   OH2 7361   0.379   6.071   0.442 -0.2167 -0.9688 -0.0309
 2466TIP3    H1 7362   0.435   6.149   0.452  1.9117 -2.5067  0.8230
 2466TIP3    H2 7363   0.342   6.079   0.354 -0.2141  1.0804  0.0982
 2467TIP3   OH2 7364   2.781   1.612   0.309  0.2757 -0.3568  0.0235
 2467TIP3    H1 7365   2.822   1.665   0.377  0.3181 -1.2095  0.6855
 2467TIP3    H2 7366   2.843   1.540   0.294 -0.1327 -0.6502 -0.2921
 2468TIP3   OH2 7367   1.020   5.838   4.239  0.1072  0.0573 -0.5243
 2468TIP3    H1 7368   0.988   5.927   4.225  1.0838  0.1052 -3.0623
 2468TIP3    H2 7369   1.101   5.848   4.287  0.3054  0.5739 -0.9564
 2469TIP3   OH2 7370   0.258   2.450   5.262 -0.4040 -0.1700  0.2479
 2469TIP3    H1 7371   0.169   2.479   5.281 -0.2766 -0.2775  1.0499
 2469TIP3    H2 7372   0.314   2.510   5.311 -0.0196 -0.0373 -0.3320
 2470TIP3   OH2 7373   4.480   5.549   5.489 -0.0629 -0.0621  0.2144
 2470TIP3    H1 7374   4.567   5.587   5.473 -0.6597  0.1793 -3.2190
 2470TIP3    H2 7375   4.472   5.479   5.425 -1.4280 -1.9475  2.3056
 2471TIP3   OH2 7376   4.161   5.490   1.432 -0.1402 -0.9261  0.0776
 2471TIP3    H1 7377   4.229   5.554   1.455  2.1002 -3.2396  0.2981
 2471TIP3    H2 7378   4.145   5.442   1.513 -0.6289 -1.6831 -0.4586
 2472TIP3   OH2 7379   6.681   2.723   3.331  0.7364  0.4740 -0.5521
 2472TIP3    H1 7380   6.709   2.814   3.323  1.3889  0.4893  1.3740
 2472TIP3    H2 7381   6.607   2.715   3.271  1.1784  2.0415 -1.3524
 2473TIP3   OH2 7382   3.637   2.775   3.383 -0.3415 -0.7264 -1.0353
 2473TIP3    H1 7383   3.646   2.755   3.476 -0.9209  1.1838 -0.5257
 2473TIP3    H2 7384   3.723   2.808   3.357 -0.0995 -1.5132 -1.2707
 2474TIP3   OH2 7385   4.670   5.428   4.504 -0.5380 -0.7820  0.2783
 2474TIP3    H1 7386   4.764   5.428   4.522 -0.3637 -2.8216 -0.3317
 2474TIP3    H2 7387   4.664   5.429   4.408 -1.1778 -0.1453  0.3100
 2475TIP3   OH2 7388   2.933   0.770   1.459 -0.5087 -0.1172 -0.0473
 2475TIP3    H1 7389   2.972   0.848   1.420 -0.2093  0.0490  0.5741
 2475TIP3    H2 7390   2.877   0.804   1.529  1.1453 -0.5346  1.5537
 2476TIP3   OH2 7391   1.885   5.888   3.529  0.5107 -0.2405  0.0082
 2476TIP3    H1 7392   1.807   5.940   3.548  0.5959  0.2610 -0.9201
 2476TIP3    H2 7393   1.957   5.939   3.565  0.4415 -0.6127  0.6986
 2477TIP3   OH2 7394   3.972   3.821   3.877  0.2252 -0.1190  0.1549
 2477TIP3    H1 7395   3.959   3.738   3.924  0.6298 -0.9483 -1.1570
 2477TIP3    H2 7396   3.903   3.823   3.811  1.1216 -0.1635 -0.8161
 2478TIP3   OH2 7397   1.248   0.458   3.818  0.3048  0.0519 -0.2998
 2478TIP3    H1 7398   1.303   0.493   3.749 -1.1698  0.7883 -1.1551
 2478TIP3    H2 7399   1.254   0.522   3.889  1.2148 -0.3149 -0.0352
 2479TIP3   OH2 7400   6.726   1.779   0.097 -0.0354  0.1374 -0.5073
 2479TIP3    H1 7401   6.733   1.739   0.011  0.3066  0.2140 -0.5160
 2479TIP3    H2 7402   6.793   1.736   0.150  0.6654  1.0269 -0.6451
 2480TIP3   OH2 7403   5.024   1.566   1.317 -0.6537  0.2309  0.3553
 2480TIP3    H1 7404   4.936   1.599   1.295 -0.8343 -0.4654  0.0101
 2480TIP3    H2 7405   5.054   1.522   1.237 -0.1947  0.0333  0.6345
 2481TIP3   OH2 7406   3.110   6.444   0.318 -0.1618  0.1338 -0.1666
 2481TIP3    H1 7407   3.144   6.427   0.406 -0.0814 -0.1452 -0.2515
 2481TIP3    H2 7408   3.148   6.528   0.293 -1.8152  1.2426  0.8912
 2482TIP3   OH2 7409   5.627   4.518   3.833  0.1033 -0.3626 -0.3793
 2482TIP3    H1 7410   5.628   4.552   3.744 -1.0297  0.3045 -0.1542
 2482TIP3    H2 7411   5.685   4.577   3.882  1.1352 -1.0320 -0.7539
 2483TIP3   OH2 7412   0.432   3.125   5.597  0.2558 -0.1799  0.5876
 2483TIP3    H1 7413   0.471   3.053   5.549 -0.1761 -0.2920  0.3956
 2483TIP3    H2 7414   0.448   3.104   5.689  2.0419  0.5867  0.4792
 2484TIP3   OH2 7415   5.301   1.933   0.792 -0.1357  0.6553  0.3780
 2484TIP3    H1 7416   5.230   1.888   0.746 -0.5309  1.0315  0.6131
 2484TIP3    H2 7417   5.322   2.007   0.735 -0.1349  0.7149  0.4575
 2485TIP3   OH2 7418   6.738   0.766   3.514  0.2094  0.6395 -0.0815
 2485TIP3    H1 7419   6.796   0.832   3.553  0.5885  0.5415 -0.4692
 2485TIP3    H2 7420   6.746   0.690   3.571  1.8105  0.0229 -1.0735
 2486TIP3   OH2 7421   1.670   5.786   2.622  0.7800  0.3478  0.3679
 2486TIP3    H1 7422   1.678   5.842   2.699 -0.8667  0.7594  0.2778
 2486TIP3    H2 7423   1.644   5.700   2.657  0.6967  0.3493  0.3083
 2487TIP3   OH2 7424   6.209   0.141   1.816 -0.2177 -0.5013  0.4165
 2487TIP3    H1 7425   6.178   0.067   1.868  0.3447 -0.7737  0.3710
 2487TIP3    H2 7426   6.276   0.104   1.758 -1.0528 -0.2652 -0.7264
 2488TIP3   OH2 7427   3.553   2.646   4.825 -0.9239 -0.1514 -0.2182
 2488TIP3    H1 7428   3.622   2.608   4.879  0.1802  2.4633  0.3570
 2488TIP3    H2 7429   3.476   2.645   4.881 -0.3700  0.3950  0.5710
 2489TIP3   OH2 7430   1.066   5.772   1.567 -0.1583  0.0028  0.5931
 2489TIP3    H1 7431   1.024   5.859   1.571  0.8174  0.5153 -0.0125
 2489TIP3    H2 7432   1.084   5.758   1.474  0.0719 -0.6673  0.7352
 2490TIP3   OH2 7433   0.978   3.514   2.530  0.8698  0.4628  0.0584
 2490TIP3    H1 7434   0.982   3.598   2.576  0.7572  0.2622  0.4384
 2490TIP3    H2 7435   0.971   3.538   2.438  0.4016  0.8750  0.1958
 2491TIP3   OH2 7436   1.038   3.524   2.256 -0.1008  0.7041 -0.2134
 2491TIP3    H1 7437   1.099   3.551   2.188  0.1650 -1.4952 -0.9281
 2491TIP3    H2 7438   1.059   3.432   2.273 -3.0358 -0.1074 -0.3216
 2492TIP3   OH2 7439   2.393   2.005   5.124 -0.7255  0.2505 -0.0816
 2492TIP3    H1 7440   2.344   2.005   5.042  0.8201  0.5549 -1.0513
 2492TIP3    H2 7441   2.355   2.078   5.174 -1.4810  0.2625 -0.6482
 2493TIP3   OH2 7442   4.589   1.087   1.918  0.5457  0.1552 -0.1829
 2493TIP3    H1 7443   4.605   1.165   1.972 -1.1739  0.5108 -0.1165
 2493TIP3    H2 7444   4.507   1.107   1.872  1.2057 -0.7488 -1.8083
 2494TIP3   OH2 7445   1.846   1.438   1.852  0.2009 -0.3769  0.3939
 2494TIP3    H1 7446   1.907   1.375   1.891  0.2986 -0.2143  0.4998
 2494TIP3    H2 7447   1.794   1.385   1.792  1.2494 -0.3152 -0.6124
 2495TIP3   OH2 7448   4.224   2.297   4.669  0.2229  0.2164  0.0927
 2495TIP3    H1 7449   4.182   2.259   4.591  0.4984 -0.5866  0.3220
 2495TIP3    H2 7450   4.306   2.334   4.635 -0.1943  0.8946 -0.1869
 2496TIP3   OH2 7451   5.846   0.632   4.246  0.1092  0.3634  0.5743
 2496TIP3    H1 7452   5.870   0.568   4.178 -0.6136  0.7992 -0.1094
 2496TIP3    H2 7453   5.927   0.648   4.293  0.7374  0.3742 -0.4698
 2497TIP3   OH2 7454   4.821   3.457   5.433 -0.2940 -0.5084  0.2565
 2497TIP3    H1 7455   4.779   3.538   5.461  1.5552  0.7028 -0.2466
 2497TIP3    H2 7456   4.901   3.452   5.485  0.6287 -0.9097 -1.1380
 2498TIP3   OH2 7457   1.644   0.122   0.878  0.6819  0.7254 -0.4098
 2498TIP3    H1 7458   1.688   0.169   0.948  1.3925 -0.1937 -0.2194
 2498TIP3    H2 7459   1.712   0.106   0.813  0.5479 -0.3271 -0.3061
 2499TIP3   OH2 7460   5.663   5.421   5.451 -0.0755 -0.2859  0.4306
 2499TIP3    H1 7461   5.678   5.377   5.534 -0.6672  0.7139  1.0872
 2499TIP3    H2 7462   5.601   5.491   5.471  1.0835  1.0773 -0.4936
 2500TIP3   OH2 7463   7.098   0.577   2.515  0.3983 -0.0638 -0.0707
 2500TIP3    H1 7464   7.133   0.633   2.445 -0.7843 -0.0275 -0.6673
 2500TIP3    H2 7465   7.175   0.547   2.563  1.1504  0.9100 -0.6357
 2501TIP3   OH2 7466   2.075   2.047   1.855 -0.5183 -0.5541 -0.3039
 2501TIP3    H1 7467   2.169   2.058   1.873 -0.5116 -0.2943 -0.4896
 2501TIP3    H2 7468   2.050   2.128   1.810 -0.8348 -0.6197 -0.2437
 2502TIP3   OH2 7469   0.275   2.769   2.528 -0.4863  0.0203  0.5434
 2502TIP3    H1 7470   0.225   2.795   2.605 -0.4645  1.4611  0.1166
 2502TIP3    H2 7471   0.332   2.844   2.511 -0.6837 -0.1485 -1.0286
 2503TIP3   OH2 7472   5.123   4.117   5.895 -0.8823  0.0760  0.0268
 2503TIP3    H1 7473   5.172   4.113   5.812 -0.8516  0.0765  0.0453
 2503TIP3    H2 7474   5.078   4.032   5.900  1.9687 -1.4941  1.7797
 2504TIP3   OH2 7475   1.664   5.841   3.104  0.0401 -0.2710 -0.4350
 2504TIP3    H1 7476   1.624   5.754   3.097 -0.1476 -0.2933  0.7391
 2504TIP3    H2 7477   1.604   5.891   3.159  1.3110 -0.1493  0.9251
 2505TIP3   OH2 7478   6.780   1.448   3.247  0.4991  0.4487 -0.2564
 2505TIP3    H1 7479   6.792   1.375   3.309 -0.8892  0.1724 -0.2803
 2505TIP3    H2 7480   6.803   1.411   3.162  0.8863  0.3743 -0.1241
 2506TIP3   OH2 7481   1.252   3.689   5.038 -0.6292  0.1505  0.7103
 2506TIP3    H1 7482   1.316   3.719   4.973 -0.4733  0.8961  1.1930
 2506TIP3    H2 7483   1.168   3.694   4.993 -0.3683 -0.7998  0.0818
 2507TIP3   OH2 7484   3.180   6.510   4.396  0.3886  0.3907  0.4676
 2507TIP3    H1 7485   3.220   6.538   4.313  2.9951  0.6314  1.6841
 2507TIP3    H2 7486   3.086   6.518   4.382  0.7238  0.3211 -2.4825
 2508TIP3   OH2 7487   6.518   0.235   5.585 -0.0165 -0.1739  0.7763
 2508TIP3    H1 7488   6.611   0.214   5.588  0.4724  1.6606 -0.0166
 2508TIP3    H2 7489   6.473   0.151   5.585  1.7236 -1.1687 -1.0845
 2509TIP3   OH2 7490   5.902   3.415   1.025  0.5706  0.3309 -0.6417
 2509TIP3    H1 7491   5.862   3.494   1.062  1.1878  0.5496 -0.4323
 2509TIP3    H2 7492   5.996   3.427   1.037  0.6232 -1.1408  0.8733
 2510TIP3   OH2 7493   0.236   5.584   5.239 -0.6774 -0.2062 -0.2311
 2510TIP3    H1 7494   0.245   5.661   5.294 -0.4986  0.3967 -1.0864
 2510TIP3    H2 7495   0.272   5.513   5.292  0.7340  0.5900 -0.0759
 2511TIP3   OH2 7496   3.521   3.317   2.636  0.2540 -0.2877 -0.1777
 2511TIP3    H1 7497   3.593   3.379   2.624 -0.2363  0.3924  0.3694
 2511TIP3    H2 7498   3.564   3.232   2.642  1.0153  0.1117  0.1411
 2512TIP3   OH2 7499   3.481  -0.011   0.905  0.5093  0.1505 -1.0111
 2512TIP3    H1 7500   3.441   0.033   0.830 -0.2484  1.3301  0.0282
 2512TIP3    H2 7501   3.543   0.054   0.940  0.8184 -0.3594 -0.6046
 2513TIP3   OH2 7502   5.274   5.267   4.659 -0.0288  0.2622 -0.3939
 2513TIP3    H1 7503   5.247   5.305   4.576 -1.5803 -0.5705 -0.3012
 2513TIP3    H2 7504   5.345   5.206   4.636  0.2883  0.8300 -0.9457
 2514TIP3   OH2 7505   5.542   2.557   3.152 -0.0387  0.1923 -0.6645
 2514TIP3    H1 7506   5.448   2.543   3.162 -0.4607  3.3667  1.2513
 2514TIP3    H2 7507   5.578   2.546   3.240  0.8656  1.8204 -0.7971
 2515TIP3   OH2 7508   5.367   4.776   3.043 -0.3612 -0.1324  0.7886
 2515TIP3    H1 7509   5.369   4.690   3.086 -0.8424 -0.8964 -0.6252
 2515TIP3    H2 7510   5.452   4.782   2.999  0.1318  0.6450  1.8061
 2516TIP3   OH2 7511   1.028   0.378   1.819  0.2909  0.0437 -0.3267
 2516TIP3    H1 7512   0.966   0.450   1.811  0.2677  0.0726  0.1169
 2516TIP3    H2 7513   1.008   0.322   1.744 -1.8050 -1.1470  1.0387
 2517TIP3   OH2 7514   3.407   2.752   0.374  0.2259 -0.3661 -0.2977
 2517TIP3    H1 7515   3.370   2.841   0.371  0.7526 -0.0663  1.0634
 2517TIP3    H2 7516   3.371   2.708   0.297 -0.1709  0.9828 -0.9145
 2518TIP3   OH2 7517   3.069   0.075   1.423  0.3717  0.7719 -0.1553
 2518TIP3    H1 7518   3.146   0.036   1.381 -0.4546  0.4502 -1.4266
 2518TIP3    H2 7519   2.996   0.017   1.399 -0.2287  0.8948  1.2859
 2519TIP3   OH2 7520   7.025   4.268   4.279 -0.2172 -0.0787 -0.0583
 2519TIP3    H1 7521   6.941   4.309   4.300 -0.6718 -0.5968 -0.8209
 2519TIP3    H2 7522   7.055   4.313   4.200  0.3026  0.2104  0.2998
 2520TIP3   OH2 7523   5.514   4.772   4.737  0.5033 -0.3234  0.6534
 2520TIP3    H1 7524   5.535   4.696   4.791  1.1276 -0.3031  0.4596
 2520TIP3    H2 7525   5.529   4.742   4.647  0.0116 -0.1951  0.5267
 2521TIP3   OH2 7526   4.985   2.697   3.399  0.3704 -0.0521 -0.3966
 2521TIP3    H1 7527   4.898   2.724   3.370 -1.0284 -2.5071  1.1883
 2521TIP3    H2 7528   4.988   2.720   3.492  2.0520  1.3059 -0.7220
 2522TIP3   OH2 7529   6.272   4.764   3.846 -0.3012  0.0349 -0.0888
 2522TIP3    H1 7530   6.314   4.698   3.901  0.3497  1.3583  1.0651
 2522TIP3    H2 7531   6.344   4.817   3.812 -0.7287 -0.5282 -1.9506
 2523TIP3   OH2 7532   3.118   6.535   3.452 -0.3508 -0.3578 -0.1317
 2523TIP3    H1 7533   3.064   6.477   3.506  1.8283 -0.8456  1.6796
 2523TIP3    H2 7534   3.149   6.602   3.513 -1.6535  1.9866 -1.8745
 2524TIP3   OH2 7535   6.409   2.077   1.182 -0.7106  0.0492  0.1862
 2524TIP3    H1 7536   6.345   2.101   1.249 -0.4101  1.2471  0.0665
 2524TIP3    H2 7537   6.378   2.119   1.102  0.8101  1.6653  0.3808
 2525TIP3   OH2 7538   4.596   5.734   2.996  0.8307 -0.2634  0.3614
 2525TIP3    H1 7539   4.587   5.705   3.087  3.0924  0.7116  0.9674
 2525TIP3    H2 7540   4.622   5.826   3.002 -0.6287  0.3066 -1.3504
 2526TIP3   OH2 7541   3.540   4.523   0.851 -0.3060 -0.0898  0.2778
 2526TIP3    H1 7542   3.474   4.568   0.798 -2.2332 -1.4123  1.4383
 2526TIP3    H2 7543   3.621   4.535   0.803 -1.4564  1.2205 -1.4623
 2527TIP3   OH2 7544   6.882   2.897   1.760 -0.1786 -0.0007 -0.0645
 2527TIP3    H1 7545   6.825   2.915   1.685 -0.8113  1.4201  0.7282
 2527TIP3    H2 7546   6.924   2.981   1.779 -1.4113  0.1654  2.2929
 2528TIP3   OH2 7547   3.688   0.834   1.238  0.2425 -0.1199 -0.1278
 2528TIP3    H1 7548   3.780   0.813   1.221 -0.0047 -0.4926 -1.0859
 2528TIP3    H2 7549   3.646   0.826   1.153 -0.8552 -0.8880  0.4603
 2529TIP3   OH2 7550   1.987   3.521   4.029  0.4150 -0.0394 -0.0594
 2529TIP3    H1 7551   1.900   3.480   4.036 -0.6226  1.7900 -1.3612
 2529TIP3    H2 7552   1.988   3.561   3.943  2.3030  0.6115  0.2182
 2530TIP3   OH2 7553   2.743   4.467   5.061 -0.9389 -0.4039  0.1639
 2530TIP3    H1 7554   2.810   4.416   5.015 -0.7727  0.2070 -0.2859
 2530TIP3    H2 7555   2.660   4.426   5.034 -1.0705  1.5769 -2.9486
 2531TIP3   OH2 7556   6.432   3.432   0.857  0.3334  0.2101 -0.5990
 2531TIP3    H1 7557   6.485   3.511   0.844  1.6450 -0.3463  1.0775
 2531TIP3    H2 7558   6.485   3.362   0.818  1.1830 -0.4377  1.5964
 2532TIP3   OH2 7559   6.080   1.079   2.628  0.2184 -0.1137 -0.0158
 2532TIP3    H1 7560   6.146   1.087   2.559  0.2864  0.7002  0.1337
 2532TIP3    H2 7561   6.080   1.165   2.671 -0.9302 -0.0993 -0.0126
 2533TIP3   OH2 7562   0.274   1.604   1.263 -0.2877 -0.0113 -0.2828
 2533TIP3    H1 7563   0.228   1.670   1.211  0.7520 -0.0393 -1.2808
 2533TIP3    H2 7564   0.358   1.644   1.285 -0.3408 -0.3572  0.6080
 2534TIP3   OH2 7565   3.534   0.100   3.673 -0.4846 -0.2022  0.8064
 2534TIP3    H1 7566   3.471   0.061   3.611  0.9632  0.0015 -0.8770
 2534TIP3    H2 7567   3.606   0.037   3.676  0.7399  1.1027  0.0209
 2535TIP3   OH2 7568   4.573   3.998   4.979  0.0131 -0.7585  0.3457
 2535TIP3    H1 7569   4.627   4.029   5.052 -1.7094  1.8111  0.6468
 2535TIP3    H2 7570   4.540   4.078   4.938 -0.9702 -2.1854 -1.8278
 2536TIP3   OH2 7571   3.790   2.061   1.798 -0.6742 -0.4166  0.1410
 2536TIP3    H1 7572   3.762   2.125   1.863 -0.1432 -0.0765  0.0397
 2536TIP3    H2 7573   3.885   2.061   1.802 -0.4790  1.3334 -2.2283
 2537TIP3   OH2 7574   4.806   6.539   0.838  0.5542 -0.1003  0.6345
 2537TIP3    H1 7575   4.856   6.501   0.766 -0.0492  1.9212 -0.9534
 2537TIP3    H2 7576   4.739   6.473   0.858  0.1615 -0.3487 -1.3222
 2538TIP3   OH2 7577   6.218   5.883   1.985 -0.4461 -0.5416  0.2057
 2538TIP3    H1 7578   6.196   5.937   1.909 -0.2459 -0.2079  0.3838
 2538TIP3    H2 7579   6.148   5.818   1.989 -0.5278 -0.4790 -0.1870
 2539TIP3   OH2 7580   2.819   1.442   5.106 -0.1807  0.5537  0.4589
 2539TIP3    H1 7581   2.726   1.434   5.084 -0.1166  2.4171 -0.7700
 2539TIP3    H2 7582   2.863   1.451   5.021  0.9323  1.1502  1.0755
 2540TIP3   OH2 7583   5.276   4.128   0.951  0.1792 -0.0090  0.3131
 2540TIP3    H1 7584   5.261   4.071   1.027  1.7146 -0.3430  0.4016
 2540TIP3    H2 7585   5.370   4.146   0.953  0.0289  1.0174 -0.7974
 2541TIP3   OH2 7586   6.419   5.575   4.468  0.5398 -0.1632 -0.2222
 2541TIP3    H1 7587   6.369   5.647   4.429  1.7999  1.7423  1.4522
 2541TIP3    H2 7588   6.352   5.519   4.508 -0.4106  0.9824 -0.1513
 2542TIP3   OH2 7589   6.331   4.756   1.025 -0.1389 -0.2373 -0.2762
 2542TIP3    H1 7590   6.415   4.766   0.980 -0.2563  0.0179 -0.4401
 2542TIP3    H2 7591   6.351   4.771   1.117 -0.0785  0.2387 -0.3643
 2543TIP3   OH2 7592   1.350   4.000   2.267  0.4251 -0.1888  0.5111
 2543TIP3    H1 7593   1.420   4.062   2.283  1.1141 -1.0197  0.7578
 2543TIP3    H2 7594   1.294   4.044   2.202  2.1118 -0.2089 -1.0435
 2544TIP3   OH2 7595   1.757   6.362   3.036 -0.3076 -0.0555  0.5522
 2544TIP3    H1 7596   1.731   6.345   3.127  1.4891  0.1231  1.1387
 2544TIP3    H2 7597   1.800   6.447   3.039 -0.0148 -0.1542 -0.4348
 2545TIP3   OH2 7598   2.766   0.292   4.889 -0.4768 -0.9024  0.6441
 2545TIP3    H1 7599   2.825   0.230   4.932  0.4038 -1.2806 -1.0318
 2545TIP3    H2 7600   2.820   0.371   4.877 -1.6798  0.4093  3.0593
 2546TIP3   OH2 7601   3.812   5.524   0.840 -0.3990 -0.4889 -0.3270
 2546TIP3    H1 7602   3.845   5.538   0.752 -0.4297 -1.9405 -0.5917
 2546TIP3    H2 7603   3.827   5.607   0.885  0.2950  0.0238 -1.4748
 2547TIP3   OH2 7604   6.215   0.657   3.134  0.3661  0.3288 -0.1310
 2547TIP3    H1 7605   6.151   0.676   3.202  0.6940 -0.5755  0.4453
 2547TIP3    H2 7606   6.297   0.643   3.181  1.5370  3.5765 -0.9894
 2548TIP3   OH2 7607   3.968   2.825   5.859  0.3981  0.5291  0.3431
 2548TIP3    H1 7608   3.906   2.761   5.892  1.2277 -0.3476  0.2691
 2548TIP3    H2 7609   3.962   2.817   5.763  1.6297 -0.6122  0.3293
 2549TIP3   OH2 7610   1.607   0.611   4.117  0.4021 -0.0506  0.4858
 2549TIP3    H1 7611   1.679   0.663   4.154 -0.1965  0.4519  0.9532
 2549TIP3    H2 7612   1.571   0.666   4.047 -1.2611  0.8941  2.0126
 2550TIP3   OH2 7613   0.222   0.700   5.738  0.1810  0.0966 -0.4746
 2550TIP3    H1 7614   0.285   0.755   5.692 -1.8458  0.7109 -2.7349
 2550TIP3    H2 7615   0.181   0.648   5.669 -0.6087 -1.5245  1.1285
 2551TIP3   OH2 7616   4.136   4.739   0.799  0.4876 -0.5037  0.3842
 2551TIP3    H1 7617   4.121   4.738   0.894 -0.0992  0.0243  0.3015
 2551TIP3    H2 7618   4.165   4.650   0.778  1.2521 -0.4564  1.1547
 2552TIP3   OH2 7619   4.269   5.752   0.215  0.6881 -0.1855 -0.3048
 2552TIP3    H1 7620   4.316   5.815   0.270  0.3661 -0.2181  0.0127
 2552TIP3    H2 7621   4.243   5.803   0.138 -2.3147  1.0119  1.3038
 2553TIP3   OH2 7622   3.667   3.356   2.165  0.2129 -0.3671 -0.3473
 2553TIP3    H1 7623   3.630   3.273   2.193 -0.0956 -0.2023 -0.2523
 2553TIP3    H2 7624   3.747   3.366   2.216 -0.3452 -0.0672  0.5050
 2554TIP3   OH2 7625   3.304   1.897   1.619  0.4060  0.1133  0.3859
 2554TIP3    H1 7626   3.226   1.953   1.618  0.7396  0.6225 -2.0125
 2554TIP3    H2 7627   3.377   1.958   1.632  0.7035  0.2100 -1.4673
 2555TIP3   OH2 7628   0.843   0.869   1.136 -0.3566  0.5515 -0.0725
 2555TIP3    H1 7629   0.867   0.953   1.175 -0.6593  1.0850 -1.0050
 2555TIP3    H2 7630   0.839   0.887   1.042 -2.2681 -0.0508 -0.1284
 2556TIP3   OH2 7631   6.618   3.049   0.967  0.0381 -0.5468 -0.4438
 2556TIP3    H1 7632   6.681   3.110   0.929  0.4448  0.5289  1.7606
 2556TIP3    H2 7633   6.581   3.002   0.892  0.8009  1.3530 -2.1040
 2557TIP3   OH2 7634   3.163   1.888   4.250  0.2629  0.2479  0.6101
 2557TIP3    H1 7635   3.162   1.793   4.249 -1.2180  0.2439  0.2020
 2557TIP3    H2 7636   3.255   1.911   4.261  0.9897 -1.2292 -1.6926
 2558TIP3   OH2 7637   2.862   6.316   4.934 -0.4412 -0.0306 -0.5468
 2558TIP3    H1 7638   2.798   6.386   4.948 -0.6186 -0.3734  0.4840
 2558TIP3    H2 7639   2.853   6.293   4.842 -1.9711 -0.2171 -0.3763
 2559TIP3   OH2 7640   0.267   6.481   0.574  0.5356 -0.2668 -0.7099
 2559TIP3    H1 7641   0.279   6.434   0.491  0.0675 -0.7067 -0.5314
 2559TIP3    H2 7642   0.347   6.533   0.583  0.2552  0.3980 -1.8314
 2560TIP3   OH2 7643   4.383   3.663   5.855  0.5377  0.1565  0.4501
 2560TIP3    H1 7644   4.307   3.613   5.824  2.4945 -1.8575 -1.5095
 2560TIP3    H2 7645   4.393   3.734   5.792  1.1967 -0.5622 -0.2772
 2561TIP3   OH2 7646   5.864   6.765   4.380  0.3684 -0.3093 -0.4155
 2561TIP3    H1 7647   5.844   6.677   4.347 -0.0383  1.1346 -4.5423
 2561TIP3    H2 7648   5.800   6.822   4.338  2.9895  2.4212 -1.0448
 2562TIP3   OH2 7649   4.754   3.160   3.522  0.1329 -0.0077 -0.3358
 2562TIP3    H1 7650   4.668   3.136   3.555  0.1548  0.0470 -0.2383
 2562TIP3    H2 7651   4.745   3.159   3.427 -0.6099  2.2593 -0.3373
 2563TIP3   OH2 7652   4.019   4.782   0.307  0.2614  0.5104 -0.1226
 2563TIP3    H1 7653   4.008   4.796   0.401 -1.7232  1.5539 -0.4380
 2563TIP3    H2 7654   4.093   4.837   0.283  1.5607 -0.6740  0.9833
 2564TIP3   OH2 7655   1.350   6.573   0.231  0.4125  0.0904 -0.4306
 2564TIP3    H1 7656   1.428   6.605   0.186  1.7151 -0.3699  1.3764
 2564TIP3    H2 7657   1.293   6.542   0.161  2.1591 -0.2490 -1.7824
 2565TIP3   OH2 7658   4.420   2.924   1.901  0.1058  0.0231 -0.1864
 2565TIP3    H1 7659   4.419   2.946   1.808 -1.6249  1.6196  0.1553
 2565TIP3    H2 7660   4.328   2.908   1.923  0.2785  1.2229  1.5807
 2566TIP3   OH2 7661   3.342   1.398   1.446  0.4705  0.1770 -0.7552
 2566TIP3    H1 7662   3.414   1.348   1.484  0.4527  1.5894  1.2245
 2566TIP3    H2 7663   3.382   1.478   1.414 -0.2018  1.0557  0.5226
 2567TIP3   OH2 7664   4.536   3.028   3.659  0.3146  0.3895 -0.0850
 2567TIP3    H1 7665   4.499   2.980   3.734 -0.5578 -0.0205 -0.7590
 2567TIP3    H2 7666   4.536   2.965   3.588  2.4653  0.3450 -0.1019
 2568TIP3   OH2 7667   6.982   5.974   1.132 -0.1223 -0.2280  0.3006
 2568TIP3    H1 7668   6.993   6.028   1.211 -1.8261  1.1894 -0.3585
 2568TIP3    H2 7669   7.035   6.017   1.066 -0.9727  0.3019 -0.0567
 2569TIP3   OH2 7670   6.996   3.748   0.979  0.2170  0.2892 -0.7355
 2569TIP3    H1 7671   7.022   3.679   0.917  0.7358  1.9984 -2.5383
 2569TIP3    H2 7672   7.077   3.776   1.020 -0.3672 -2.5629  2.8519
 2570TIP3   OH2 7673   6.793   4.569   0.701  0.5372  0.1418  0.4514
 2570TIP3    H1 7674   6.775   4.659   0.728  0.6223  0.4063 -0.3317
 2570TIP3    H2 7675   6.707   4.526   0.699  0.4939  0.2098  0.7995
 2571TIP3   OH2 7676   3.129   1.790   5.430  0.3335  0.6395 -0.3328
 2571TIP3    H1 7677   3.173   1.705   5.438  3.3109  1.9956 -0.7955
 2571TIP3    H2 7678   3.044   1.771   5.391  0.4262 -2.2116  0.6732
 2572TIP3   OH2 7679   0.057   5.099   0.898  0.3669 -0.3247  0.4904
 2572TIP3    H1 7680  -0.018   5.091   0.957 -0.2977  0.6024 -0.1809
 2572TIP3    H2 7681   0.040   5.181   0.850  0.0919 -1.7503 -2.0304
 2573TIP3   OH2 7682   4.507   1.230   1.622 -0.2372  0.1757 -0.0200
 2573TIP3    H1 7683   4.575   1.163   1.616 -1.4055 -1.2240  1.4145
 2573TIP3    H2 7684   4.449   1.211   1.549 -0.9471 -0.8790  0.7869
 2574TIP3   OH2 7685   1.305   4.594   5.364  0.0070 -0.2040  0.2578
 2574TIP3    H1 7686   1.396   4.568   5.349 -1.0002 -2.8163 -2.2898
 2574TIP3    H2 7687   1.303   4.687   5.342  1.8740 -0.3648 -0.7896
 2575TIP3   OH2 7688   6.222   5.669   3.566  0.1081 -0.8809 -0.0660
 2575TIP3    H1 7689   6.260   5.582   3.582  2.3593  0.2640  1.2135
 2575TIP3    H2 7690   6.275   5.729   3.618 -0.8812  1.3997 -1.5167
 2576TIP3   OH2 7691   5.795   5.926   1.345 -0.4980 -0.1125  0.1247
 2576TIP3    H1 7692   5.818   6.012   1.310  0.8795 -0.2698  0.5827
 2576TIP3    H2 7693   5.703   5.934   1.369 -0.1392  1.5809  1.1316
 2577TIP3   OH2 7694   6.648   2.928   2.833 -0.2004  0.4333 -0.2253
 2577TIP3    H1 7695   6.688   2.966   2.910 -0.9705  0.3480  0.2328
 2577TIP3    H2 7696   6.635   2.836   2.856 -1.9460  0.7491  0.2063
 2578TIP3   OH2 7697   3.086   1.622   0.307  0.2570  0.0463  0.0383
 2578TIP3    H1 7698   3.112   1.579   0.388 -0.7433 -0.0965  0.2963
 2578TIP3    H2 7699   3.121   1.711   0.315  0.8785 -0.2108  0.2465
 2579TIP3   OH2 7700   1.568   2.669   4.911  0.3136  0.2644 -0.2643
 2579TIP3    H1 7701   1.497   2.604   4.905  0.3189  0.3975 -2.2963
 2579TIP3    H2 7702   1.527   2.744   4.956 -0.6910  0.1378 -0.9264
 2580TIP3   OH2 7703   2.930   3.422   5.871 -0.3837 -0.7047  0.5651
 2580TIP3    H1 7704   2.879   3.480   5.814  1.7091  1.8308  1.0520
 2580TIP3    H2 7705   2.885   3.425   5.955 -0.4885  0.0344  0.4950
 2581TIP3   OH2 7706   1.890   5.317   1.274 -0.1999 -0.2844  0.0652
 2581TIP3    H1 7707   1.845   5.378   1.333  0.0503 -1.0242  1.0535
 2581TIP3    H2 7708   1.821   5.258   1.245 -0.3916  0.2965 -0.6803
 2582TIP3   OH2 7709   5.176   2.814   3.206  0.3321 -0.3973  0.0756
 2582TIP3    H1 7710   5.238   2.842   3.273  0.0657 -0.8859  0.5383
 2582TIP3    H2 7711   5.097   2.790   3.256  0.1319 -0.7633 -0.4124
 2583TIP3   OH2 7712   5.482   6.666   5.191 -0.1922 -0.4057 -0.0777
 2583TIP3    H1 7713   5.457   6.732   5.255 -0.7154 -1.1313  0.4866
 2583TIP3    H2 7714   5.576   6.655   5.203 -0.1855 -0.1069  0.1570
 2584TIP3   OH2 7715   5.749   4.718   3.993  0.1146  1.0956  0.1751
 2584TIP3    H1 7716   5.822   4.753   4.044  0.5991  0.2903  0.0485
 2584TIP3    H2 7717   5.719   4.792   3.940  0.6210  1.5193  0.4678
 2585TIP3   OH2 7718   4.765   2.938   0.207  0.1094 -0.0663  0.3287
 2585TIP3    H1 7719   4.770   3.000   0.280 -1.3727  1.3817 -0.7329
 2585TIP3    H2 7720   4.709   2.982   0.142 -0.2060 -2.1218 -0.8670
 2586TIP3   OH2 7721   2.789   6.286   1.835 -0.0124  0.6524 -0.3011
 2586TIP3    H1 7722   2.718   6.233   1.870  0.1663 -0.4965 -1.5784
 2586TIP3    H2 7723   2.747   6.367   1.806 -0.1679  1.6172  2.3790
 2587TIP3   OH2 7724   2.617   1.797   0.181 -0.0164  0.0576 -0.1099
 2587TIP3    H1 7725   2.537   1.746   0.167 -0.1904  0.1116  0.6674
 2587TIP3    H2 7726   2.669   1.744   0.242 -0.7883  1.3968  1.7929
 2588TIP3   OH2 7727   2.903   0.774   5.119  0.4690  0.7853  0.1849
 2588TIP3    H1 7728   2.919   0.696   5.172 -0.6172  0.1439 -0.4059
 2588TIP3    H2 7729   2.956   0.842   5.160  1.3037 -0.2217  0.8048
 2589TIP3   OH2 7730   4.667   3.226   3.273  0.6215  0.4495 -0.5954
 2589TIP3    H1 7731   4.575   3.201   3.270  0.5262  0.8177 -0.8008
 2589TIP3    H2 7732   4.712   3.161   3.219  0.5690 -0.0909 -0.0029
 2590TIP3   OH2 7733   6.005   6.282   4.240  0.2818  0.4076  0.0027
 2590TIP3    H1 7734   6.002   6.377   4.239 -1.8099  0.3801 -1.2829
 2590TIP3    H2 7735   6.039   6.258   4.154  1.0130 -0.0108  0.4049
 2591TIP3   OH2 7736   2.004   3.459   4.672  0.2686  0.2553 -0.1270
 2591TIP3    H1 7737   1.959   3.514   4.736  0.3579 -0.2566  0.3776
 2591TIP3    H2 7738   2.067   3.409   4.723  1.0493  0.5804 -0.7583
 2592TIP3   OH2 7739   0.804   4.405   5.830  0.1008 -0.3662 -0.0669
 2592TIP3    H1 7740   0.741   4.469   5.863 -0.0163 -1.3701  1.7816
 2592TIP3    H2 7741   0.854   4.453   5.764  1.2187  2.2880  2.4403
 2593TIP3   OH2 7742   1.116   5.966   2.289 -0.6524  0.3924 -0.1173
 2593TIP3    H1 7743   1.040   5.919   2.325 -0.1579 -0.5035 -0.2117
 2593TIP3    H2 7744   1.078   6.043   2.247 -1.3287  0.9945  1.5212
 2594TIP3   OH2 7745   6.036   4.265   1.613 -0.6049  0.1484  0.1276
 2594TIP3    H1 7746   6.098   4.308   1.672 -0.8010  0.7614 -0.1178
 2594TIP3    H2 7747   6.080   4.183   1.590  0.6426  1.0825 -0.9652
 2595TIP3   OH2 7748   6.027   0.621   0.174 -0.0092  0.6674 -0.3096
 2595TIP3    H1 7749   6.022   0.572   0.091  0.5069 -0.6005  0.3885
 2595TIP3    H2 7750   6.009   0.556   0.241  0.1321  1.5715  0.6241
 2596TIP3   OH2 7751   2.205   3.523   4.196 -0.1258 -0.2553  0.2704
 2596TIP3    H1 7752   2.116   3.526   4.160  0.1068  1.3996 -0.2530
 2596TIP3    H2 7753   2.194   3.530   4.290 -0.5541  0.1609  0.1909
 2597TIP3   OH2 7754   4.230   4.994   0.747 -0.1116 -0.4473 -0.0073
 2597TIP3    H1 7755   4.264   4.980   0.658 -1.2061 -1.8401 -0.2393
 2597TIP3    H2 7756   4.196   4.909   0.774 -2.1258  0.5146  0.7461
 2598TIP3   OH2 7757   5.902   0.947   2.000 -0.0174 -0.0438 -0.8747
 2598TIP3    H1 7758   5.949   1.000   1.936 -0.8391  1.0143 -0.6263
 2598TIP3    H2 7759   5.834   1.005   2.035  1.8970  0.3045  2.7630
 2599TIP3   OH2 7760   0.751   1.327   5.457  0.6129  0.3674 -0.4118
 2599TIP3    H1 7761   0.657   1.308   5.462  0.7270 -0.2597 -0.5437
 2599TIP3    H2 7762   0.775   1.352   5.547  0.6231 -0.9896 -0.0143
 2600TIP3   OH2 7763   7.134   2.814   5.509 -0.3963  0.0766 -0.5005
 2600TIP3    H1 7764   7.067   2.814   5.577  0.8354  0.2756  0.7691
 2600TIP3    H2 7765   7.093   2.857   5.435 -2.1813 -1.2069 -0.3161
 2601TIP3   OH2 7766   0.635   2.982   5.276 -0.4784  0.7807 -0.0310
 2601TIP3    H1 7767   0.562   2.922   5.292 -0.6727  0.2228 -2.6750
 2601TIP3    H2 7768   0.670   2.956   5.191  2.1370  1.7555  0.6363
 2602TIP3   OH2 7769   0.063   4.027   5.596  0.3874 -0.7031  0.3403
 2602TIP3    H1 7770   0.144   3.993   5.559  0.3200 -1.7485  1.1071
 2602TIP3    H2 7771   0.072   4.013   5.690 -0.3692 -0.1467  0.5068
 2603TIP3   OH2 7772   0.422   2.740   1.271 -0.0249  0.4932  0.7667
 2603TIP3    H1 7773   0.514   2.762   1.290 -0.1868  1.2191  0.7393
 2603TIP3    H2 7774   0.420   2.728   1.176  0.2523 -0.5671  0.8852
 2604TIP3   OH2 7775   3.965   5.859   5.670  0.3344  0.1388  0.0682
 2604TIP3    H1 7776   3.929   5.812   5.594  0.9472  0.4701 -0.4352
 2604TIP3    H2 7777   4.040   5.908   5.635  1.0580 -0.2498  1.0250
 2605TIP3   OH2 7778   1.534   3.771   2.249 -0.2244  0.2098 -0.2774
 2605TIP3    H1 7779   1.441   3.791   2.263 -0.7647 -2.5743  0.8587
 2605TIP3    H2 7780   1.580   3.828   2.311 -1.4290 -0.4217  1.2748
 2606TIP3   OH2 7781   1.853   5.001   2.643  0.3443 -0.0715  0.4922
 2606TIP3    H1 7782   1.807   4.974   2.722 -0.5508 -2.0556 -0.6499
 2606TIP3    H2 7783   1.807   5.080   2.614 -1.2279 -0.9921  0.3686
 2607TIP3   OH2 7784   0.257   1.868   2.988  0.6277  0.0337  0.6540
 2607TIP3    H1 7785   0.326   1.920   2.947  1.6616 -2.2423 -0.6401
 2607TIP3    H2 7786   0.303   1.810   3.048  0.0600 -2.2986 -1.0295
 2608TIP3   OH2 7787   4.263   2.168   1.039  0.2305 -1.2085  0.3705
 2608TIP3    H1 7788   4.206   2.238   1.071  0.2822 -1.2597  0.5737
 2608TIP3    H2 7789   4.275   2.110   1.114  0.3812 -1.3090  0.2695
 2609TIP3   OH2 7790   3.806   5.839   1.233  0.4715 -0.2799 -0.5654
 2609TIP3    H1 7791   3.819   5.898   1.158  2.0909 -0.2010 -0.2508
 2609TIP3    H2 7792   3.770   5.759   1.194  0.4357  0.0841 -1.3010
 2610TIP3   OH2 7793   3.043   4.923   4.236 -0.5383  0.3442  0.1334
 2610TIP3    H1 7794   2.985   4.943   4.163 -0.8896  1.0806  0.5992
 2610TIP3    H2 7795   2.989   4.874   4.298 -0.8222  1.4259  0.7761
 2611TIP3   OH2 7796   4.666   1.443   1.760  0.3116  0.1777 -1.0403
 2611TIP3    H1 7797   4.619   1.374   1.714  0.5536 -0.2804 -0.6018
 2611TIP3    H2 7798   4.750   1.403   1.784  0.2995  0.5043 -0.4500
 2612TIP3   OH2 7799   3.263   6.536   0.038 -0.6892  0.3194 -0.6274
 2612TIP3    H1 7800   3.314   6.464   0.001 -0.5510  0.4906 -0.7754
 2612TIP3    H2 7801   3.304   6.552   0.123 -1.4761 -0.5668 -0.0640
 2613TIP3   OH2 7802   1.145   6.286   1.164  0.3588  0.3284 -0.0207
 2613TIP3    H1 7803   1.236   6.304   1.140  0.6063  1.3755  1.5701
 2613TIP3    H2 7804   1.120   6.360   1.219 -1.5230  0.1411 -0.5413
 2614TIP3   OH2 7805   6.816   5.136   1.017 -0.4163  0.4729 -0.3340
 2614TIP3    H1 7806   6.766   5.080   1.078  0.6527  0.8227  0.9055
 2614TIP3    H2 7807   6.907   5.121   1.041 -0.0539  1.8112 -0.8229
 2615TIP3   OH2 7808   4.526   5.878   5.117 -0.2302 -0.2845 -0.5697
 2615TIP3    H1 7809   4.487   5.922   5.042 -1.7653 -0.3910  0.1301
 2615TIP3    H2 7810   4.588   5.942   5.152 -2.0973  1.2277  0.1602
 2616TIP3   OH2 7811   3.750   2.059   3.513 -0.1337  0.3287 -0.6277
 2616TIP3    H1 7812   3.805   2.134   3.534 -0.7241  0.2674  1.3899
 2616TIP3    H2 7813   3.811   1.991   3.486  0.8640  0.2240  1.6760
 2617TIP3   OH2 7814   2.687   3.064   0.094  0.5895  0.3318  0.2039
 2617TIP3    H1 7815   2.743   3.002   0.046 -2.1396 -0.6182 -2.0262
 2617TIP3    H2 7816   2.699   3.147   0.049  1.4360  0.5570  0.8215
 2618TIP3   OH2 7817   6.130   6.325   4.934 -0.3910  0.0217  1.0168
 2618TIP3    H1 7818   6.211   6.375   4.940 -0.8552  0.8933  0.2555
 2618TIP3    H2 7819   6.149   6.255   4.872  0.4207 -1.1251  2.4693
 2619TIP3   OH2 7820   1.343   2.498   3.643  0.3306  0.2175  0.2740
 2619TIP3    H1 7821   1.304   2.506   3.556  1.0577  1.4813  0.0495
 2619TIP3    H2 7822   1.417   2.438   3.631  0.0545 -0.1100  0.1701
 2620TIP3   OH2 7823   5.856   4.494   2.235  0.5572 -0.2425 -0.1339
 2620TIP3    H1 7824   5.882   4.582   2.209 -1.6808  0.8906  1.2285
 2620TIP3    H2 7825   5.827   4.452   2.154 -2.8854  1.9912 -0.2563
 2621TIP3   OH2 7826   0.671   4.148   5.346 -0.1215 -0.1022  0.0466
 2621TIP3    H1 7827   0.735   4.190   5.289 -1.5532  1.3185 -0.5939
 2621TIP3    H2 7828   0.686   4.187   5.432  1.7536 -1.9322  0.6322
 2622TIP3   OH2 7829   1.313   0.860   5.316  0.2330 -0.0668  0.4430
 2622TIP3    H1 7830   1.239   0.801   5.299 -0.8327  1.3157  0.1106
 2622TIP3    H2 7831   1.275   0.948   5.312  2.1532  0.7786 -1.1290
 2623TIP3   OH2 7832   7.099   0.473   2.083  0.6076  0.8474 -0.1782
 2623TIP3    H1 7833   7.020   0.420   2.087  0.0038  1.5057 -2.0791
 2623TIP3    H2 7834   7.074   0.557   2.121  0.8955  0.5395  0.7195
 2624TIP3   OH2 7835   4.469   5.888   2.618  0.1820  0.6752 -0.0089
 2624TIP3    H1 7836   4.551   5.929   2.592  0.9925  1.2592  3.1538
 2624TIP3    H2 7837   4.493   5.800   2.646 -0.3529  0.6422  0.3720
 2625TIP3   OH2 7838   4.236   0.209   0.984 -0.2969  0.5922  0.2647
 2625TIP3    H1 7839   4.265   0.268   1.053  0.0685  1.7213 -0.8104
 2625TIP3    H2 7840   4.141   0.224   0.978 -0.1514  1.3985 -0.2641
 2626TIP3   OH2 7841   5.615   3.188   3.122 -0.4182 -0.1427  0.2023
 2626TIP3    H1 7842   5.681   3.255   3.106  0.0795  0.0982  2.7639
 2626TIP3    H2 7843   5.563   3.186   3.043  1.8472  0.5879 -1.4104
 2627TIP3   OH2 7844   5.878   5.370   5.312  0.7460 -0.2123  0.3067
 2627TIP3    H1 7845   5.814   5.395   5.378 -1.5450 -1.3143 -1.3540
 2627TIP3    H2 7846   5.898   5.451   5.266 -0.7815 -0.1014 -0.2092
 2628TIP3   OH2 7847   5.285   2.784   4.236  0.3401  0.0531 -0.1399
 2628TIP3    H1 7848   5.198   2.797   4.276  0.4610 -0.1107  0.1861
 2628TIP3    H2 7849   5.282   2.835   4.155  0.1472  0.5325  0.1625
 2629TIP3   OH2 7850   4.777   1.452   1.113  0.3809 -0.3166  0.4012
 2629TIP3    H1 7851   4.824   1.387   1.061 -0.6393 -0.8531  0.1227
 2629TIP3    H2 7852   4.790   1.423   1.203  1.5658  0.2221  0.4299
 2630TIP3   OH2 7853   4.034   3.880   0.058 -0.3578 -0.0863  0.2338
 2630TIP3    H1 7854   3.958   3.918   0.014 -0.7992  0.4185  1.3831
 2630TIP3    H2 7855   4.096   3.861  -0.012 -0.2336  2.4948 -0.4682
 2631TIP3   OH2 7856   5.021   3.691   5.366 -0.4292 -0.6858 -0.3517
 2631TIP3    H1 7857   4.941   3.679   5.418 -0.4971 -0.2037 -0.3433
 2631TIP3    H2 7858   4.992   3.742   5.290 -0.1681 -0.6851 -0.4498
 2632TIP3   OH2 7859   2.590   1.291   0.843 -0.7100  0.0045  0.2249
 2632TIP3    H1 7860   2.630   1.208   0.820  1.9605  0.6553  2.0708
 2632TIP3    H2 7861   2.651   1.357   0.810 -2.0195  1.1830  0.0866
 2633TIP3   OH2 7862   6.408   5.781   0.573 -0.0876 -0.0983 -0.0497
 2633TIP3    H1 7863   6.474   5.721   0.539 -0.1242 -0.8084  1.0600
 2633TIP3    H2 7864   6.393   5.751   0.663 -1.1233  0.7245  0.0715
 2634TIP3   OH2 7865   2.611   1.223   5.639  0.4219  0.2610  0.5617
 2634TIP3    H1 7866   2.637   1.215   5.548 -0.2640  0.1659  0.3702
 2634TIP3    H2 7867   2.521   1.255   5.636  0.0439 -0.6910  1.1778
 2635TIP3   OH2 7868   3.066   6.640   3.786 -0.3296  0.4432 -0.2401
 2635TIP3    H1 7869   3.063   6.667   3.877  1.8770  1.2362 -0.3549
 2635TIP3    H2 7870   3.008   6.701   3.741  0.1132  1.3142  0.3491
 2636TIP3   OH2 7871   0.477   4.843   5.671  0.3819  0.5508  0.1848
 2636TIP3    H1 7872   0.460   4.899   5.595 -1.2629  0.8852  0.7494
 2636TIP3    H2 7873   0.409   4.776   5.666  2.3943 -1.5886 -0.5669
 2637TIP3   OH2 7874   5.146   3.959   5.392  0.1336  0.0728 -0.2844
 2637TIP3    H1 7875   5.102   4.026   5.340 -0.3427 -0.2959 -0.3623
 2637TIP3    H2 7876   5.119   3.876   5.352  0.1428 -0.1937  0.2552
 2638TIP3   OH2 7877   7.004   3.698   4.603 -0.1444 -0.0239  0.2015
 2638TIP3    H1 7878   7.005   3.683   4.697  2.3375 -0.6770  0.1330
 2638TIP3    H2 7879   7.033   3.615   4.565  0.5376  0.7442 -1.0253
 2639TIP3   OH2 7880   6.057   1.274   5.021 -0.3854  0.0700  0.3949
 2639TIP3    H1 7881   5.986   1.278   4.958 -0.5550  3.0302  0.6327
 2639TIP3    H2 7882   6.014   1.259   5.105 -0.6173  0.4297  0.3455
 2640TIP3   OH2 7883   0.711   2.389   4.918 -0.1181  0.4278  0.0909
 2640TIP3    H1 7884   0.764   2.314   4.943  0.8396  0.5100 -1.5620
 2640TIP3    H2 7885   0.624   2.352   4.901 -0.6968  0.3003  2.8360
 2641TIP3   OH2 7886   4.039   6.544   5.454  0.0196 -0.2963 -0.4115
 2641TIP3    H1 7887   3.945   6.535   5.444  0.0031 -0.6909  0.0926
 2641TIP3    H2 7888   4.053   6.635   5.477 -0.2927 -0.3919  0.1547
 2642TIP3   OH2 7889   1.929   1.718   1.203  0.0427  0.1737  0.2018
 2642TIP3    H1 7890   1.919   1.623   1.199  0.3528  0.0808  1.3738
 2642TIP3    H2 7891   1.854   1.748   1.254 -0.0735  0.5661 -0.1910
 2643TIP3   OH2 7892   2.454   1.134   4.067  0.1297 -0.9516 -0.5769
 2643TIP3    H1 7893   2.430   1.224   4.044 -0.5492 -1.1980 -0.8627
 2643TIP3    H2 7894   2.445   1.130   4.162 -2.4739 -1.4341 -0.7776
 2644TIP3   OH2 7895   1.045   4.111   2.894  0.4628  0.4628  0.6592
 2644TIP3    H1 7896   1.109   4.181   2.911  0.2618  0.7312  0.3347
 2644TIP3    H2 7897   0.991   4.108   2.972  1.7209 -0.7105  1.5357
 2645TIP3   OH2 7898   4.799   2.035   4.871  0.3377  0.3429 -0.1414
 2645TIP3    H1 7899   4.849   2.107   4.832 -0.5865  1.4916  0.7254
 2645TIP3    H2 7900   4.844   2.017   4.954 -0.7467  1.5276  0.7460
 2646TIP3   OH2 7901   4.557   1.581   3.690 -0.7101 -0.2601 -0.8919
 2646TIP3    H1 7902   4.639   1.537   3.712 -1.3038 -0.6535  0.6714
 2646TIP3    H2 7903   4.569   1.611   3.600  0.4800 -1.8271 -1.2921
 2647TIP3   OH2 7904   1.400   2.674   5.624 -0.4926  0.4399 -0.5340
 2647TIP3    H1 7905   1.360   2.654   5.708  0.9280  1.4873  0.4262
 2647TIP3    H2 7906   1.385   2.767   5.611  1.4714  0.8506 -0.1853
 2648TIP3   OH2 7907   3.223   3.983   2.787  0.1758 -0.6021  0.5032
 2648TIP3    H1 7908   3.143   4.014   2.744  0.0484  1.1361  1.8875
 2648TIP3    H2 7909   3.256   3.914   2.729 -1.5249 -0.3450 -0.8525
 2649TIP3   OH2 7910   3.327   5.583   4.790 -0.6394  0.0786 -0.9020
 2649TIP3    H1 7911   3.364   5.495   4.779 -1.3444 -0.0907 -2.1742
 2649TIP3    H2 7912   3.403   5.639   4.804 -0.2310 -0.8230  0.7837
 2650TIP3   OH2 7913   0.563   4.750   1.098 -0.4575  0.3340 -0.1685
 2650TIP3    H1 7914   0.583   4.788   1.183 -1.1502  0.9568 -0.2711
 2650TIP3    H2 7915   0.480   4.791   1.072  0.8030  1.8885 -2.1278
 2651TIP3   OH2 7916   5.844   1.422   2.680 -0.1760 -0.2352  0.0872
 2651TIP3    H1 7917   5.800   1.382   2.756  0.3656 -1.5935 -0.2983
 2651TIP3    H2 7918   5.933   1.440   2.710 -0.1015 -0.3260 -0.0775
 2652TIP3   OH2 7919   3.792   1.111   2.800 -0.3219  0.4429  0.3217
 2652TIP3    H1 7920   3.820   1.051   2.731  1.1823  0.1907  1.1061
 2652TIP3    H2 7921   3.818   1.067   2.881 -2.0541  0.7320  1.0773
 2653TIP3   OH2 7922   3.676   6.712   3.051  0.4437 -0.0683  0.2840
 2653TIP3    H1 7923   3.658   6.717   2.957 -0.6585 -1.1694  0.4157
 2653TIP3    H2 7924   3.647   6.796   3.086 -2.2600 -0.8327  0.0929
 2654TIP3   OH2 7925   0.731   0.888   1.539  0.0962  0.3129 -0.0803
 2654TIP3    H1 7926   0.782   0.824   1.489  1.5098 -0.5358  2.2973
 2654TIP3    H2 7927   0.641   0.854   1.537 -0.2513  1.0932 -3.1490
 2655TIP3   OH2 7928   4.548   1.609   2.081  0.5633 -0.3463  0.2225
 2655TIP3    H1 7929   4.503   1.625   2.164  0.2709 -0.7353  0.1453
 2655TIP3    H2 7930   4.560   1.696   2.043  0.9757 -0.1464  0.8135
 2656TIP3   OH2 7931   1.658   1.763   5.045 -0.4092 -0.2015  0.4151
 2656TIP3    H1 7932   1.670   1.854   5.069 -3.8531  0.3439  0.5371
 2656TIP3    H2 7933   1.678   1.760   4.951  1.7909  0.1316  0.8138
 2657TIP3   OH2 7934   0.019   2.016   4.499 -0.3315 -0.3853 -0.1048
 2657TIP3    H1 7935   0.053   2.039   4.586  0.8895 -2.9676  0.1781
 2657TIP3    H2 7936   0.097   2.014   4.443 -0.4037 -2.9479 -0.2351
 2658TIP3   OH2 7937   0.725   1.259   4.513  0.7985  0.5528 -0.4062
 2658TIP3    H1 7938   0.696   1.219   4.432 -1.3425 -0.3837  0.7477
 2658TIP3    H2 7939   0.645   1.279   4.561  1.7687 -3.0131  3.4022
 2659TIP3   OH2 7940   1.241   5.867   1.810  0.1019  0.2111  0.2258
 2659TIP3    H1 7941   1.199   5.947   1.841 -1.1580 -0.3802  0.1219
 2659TIP3    H2 7942   1.173   5.823   1.759  1.3690 -0.0041 -1.3581
 2660TIP3   OH2 7943   4.842   3.322   1.319  0.2295 -0.3945 -0.2551
 2660TIP3    H1 7944   4.914   3.271   1.281 -1.6857 -2.1850 -1.6586
 2660TIP3    H2 7945   4.775   3.323   1.251 -1.2413  0.9136  1.1404
 2661TIP3   OH2 7946   0.722   5.787   5.750  0.0109 -0.4447 -0.1298
 2661TIP3    H1 7947   0.671   5.782   5.669 -1.1220 -0.1907  0.5357
 2661TIP3    H2 7948   0.657   5.774   5.819  0.8274  0.0972  0.7618
 2662TIP3   OH2 7949   5.559   4.951   0.394 -0.2435  0.2681 -0.4722
 2662TIP3    H1 7950   5.580   5.023   0.453  0.8743 -0.1377 -0.3417
 2662TIP3    H2 7951   5.569   4.987   0.306  0.9671  0.1234 -0.4143
 2663TIP3   OH2 7952   4.870   5.271   0.922 -0.3130  0.4783 -0.3810
 2663TIP3    H1 7953   4.958   5.301   0.903  0.1095 -0.4843 -0.0373
 2663TIP3    H2 7954   4.817   5.303   0.849 -0.3746  3.8792  0.9787
 2664TIP3   OH2 7955   6.636   4.760   5.746  0.3238  0.4013 -1.1822
 2664TIP3    H1 7956   6.656   4.843   5.787  0.5965 -0.1508 -0.1711
 2664TIP3    H2 7957   6.541   4.755   5.747  0.3205  0.4982 -0.8243
 2665TIP3   OH2 7958   3.310   6.524   1.065  0.7104  0.1185 -0.2223
 2665TIP3    H1 7959   3.342   6.467   1.135 -0.1974 -0.8755 -0.5807
 2665TIP3    H2 7960   3.234   6.568   1.102  0.7740  0.2815 -0.2862
 2666TIP3   OH2 7961   1.992   4.534   4.859 -0.2438  0.5827  0.0012
 2666TIP3    H1 7962   2.018   4.459   4.805  0.7471 -0.9007  2.3834
 2666TIP3    H2 7963   1.930   4.497   4.922  0.2772  1.7584  1.2522
 2667TIP3   OH2 7964   5.080   0.435   2.283  0.1791 -0.1527  0.2739
 2667TIP3    H1 7965   5.169   0.461   2.263  0.0748 -0.7650 -1.0789
 2667TIP3    H2 7966   5.025   0.489   2.226 -0.2344 -0.7006  0.1432
 2668TIP3   OH2 7967   4.939   1.234   2.711  0.0759 -0.0168  0.1254
 2668TIP3    H1 7968   4.894   1.150   2.713  1.4176 -0.7882 -0.3679
 2668TIP3    H2 7969   4.922   1.268   2.623 -0.2235  0.0991  0.2258
 2669TIP3   OH2 7970   1.506   1.963   1.372 -0.4020  0.4181  0.0427
 2669TIP3    H1 7971   1.468   2.024   1.309 -1.0244 -0.0285 -0.0194
 2669TIP3    H2 7972   1.459   1.981   1.454 -1.8411 -1.1445 -0.3848
 2670TIP3   OH2 7973   3.244   1.612   3.951  0.0326  0.5670  0.0992
 2670TIP3    H1 7974   3.294   1.585   4.028  1.7324  1.6836 -0.5491
 2670TIP3    H2 7975   3.188   1.537   3.931 -1.6533  0.7953  3.2923
 2671TIP3   OH2 7976   4.565   6.227   2.308  0.0656 -0.6506 -0.2126
 2671TIP3    H1 7977   4.607   6.217   2.222  0.4421  0.4248 -0.1612
 2671TIP3    H2 7978   4.547   6.137   2.335 -0.1766 -1.0063 -1.4683
 2672TIP3   OH2 7979   3.866   0.330   1.954  0.1690  0.2869 -0.1212
 2672TIP3    H1 7980   3.816   0.348   1.874  0.4388  0.8248 -0.1758
 2672TIP3    H2 7981   3.812   0.365   2.024  0.5833  1.1169 -0.2053
 2673TIP3   OH2 7982   5.418   3.056   4.603 -0.8671  0.5872 -0.4890
 2673TIP3    H1 7983   5.506   3.041   4.569 -0.4689  0.1767  0.6711
 2673TIP3    H2 7984   5.399   2.979   4.657 -0.3129  2.3601  2.5015
 2674TIP3   OH2 7985   2.868   5.494   4.045  0.0771 -0.2203  0.2512
 2674TIP3    H1 7986   2.822   5.448   4.114 -0.9561 -0.7604 -0.7721
 2674TIP3    H2 7987   2.824   5.468   3.964 -0.2778  2.2037 -0.4260
 2675TIP3   OH2 7988   1.389   0.285   4.651  0.1280 -0.1693  0.2044
 2675TIP3    H1 7989   1.347   0.309   4.569  1.6806 -0.0051 -0.5811
 2675TIP3    H2 7990   1.395   0.189   4.648 -0.8453 -0.2570  0.6746
 2676TIP3   OH2 7991   4.687   0.591   3.372  0.4407 -0.2459  0.3259
 2676TIP3    H1 7992   4.769   0.617   3.330  0.8735  0.8474  1.7128
 2676TIP3    H2 7993   4.705   0.506   3.411  0.3767 -0.7631 -0.7653
 2677TIP3   OH2 7994   2.957   0.212   1.789 -0.0440 -0.2317  0.0753
 2677TIP3    H1 7995   2.875   0.232   1.834 -0.3499 -1.1246 -0.0694
 2677TIP3    H2 7996   2.932   0.206   1.696  0.5793  1.5884 -0.2488
 2678TIP3   OH2 7997   1.542   3.992   4.622  0.5967  0.2020  0.5661
 2678TIP3    H1 7998   1.568   3.914   4.574 -1.6987 -0.6175  0.5203
 2678TIP3    H2 7999   1.478   4.035   4.565  1.7791  2.1228  0.6131
 2679TIP3   OH2 8000   3.312   3.015   4.148 -0.4667 -0.0219  0.4086
 2679TIP3    H1 8001   3.329   3.104   4.180  0.8132 -0.1074 -0.0019
 2679TIP3    H2 8002   3.369   2.959   4.200 -0.7633 -0.5381  0.1926
 2680TIP3   OH2 8003   1.093   1.620   2.250 -0.2687  0.1428  0.6285
 2680TIP3    H1 8004   1.075   1.534   2.212 -2.4144  0.5666  0.5279
 2680TIP3    H2 8005   1.137   1.668   2.180  0.2237 -0.6233  0.4021
 2681TIP3   OH2 8006   2.581   0.329   1.800  0.1133  0.0302 -0.4186
 2681TIP3    H1 8007   2.657   0.385   1.813  0.9772 -0.8450 -1.4779
 2681TIP3    H2 8008   2.617   0.240   1.795 -0.8470 -0.3086 -1.9080
 2682TIP3   OH2 8009   1.057   0.290   5.577 -0.0538 -0.7656 -0.2436
 2682TIP3    H1 8010   1.124   0.262   5.516 -0.4390 -0.0233 -1.0255
 2682TIP3    H2 8011   0.991   0.332   5.523 -0.4731 -0.2169  0.6648
 2683TIP3   OH2 8012   0.440   4.766   2.805 -0.8571  0.2465  0.4475
 2683TIP3    H1 8013   0.457   4.809   2.888 -1.2425  1.0405  0.1360
 2683TIP3    H2 8014   0.471   4.677   2.816  1.0349  0.8980  0.7533
 2684TIP3   OH2 8015   5.570   1.742   4.638  0.4227  0.2884  0.0020
 2684TIP3    H1 8016   5.485   1.752   4.681  0.0757 -1.0825 -0.3246
 2684TIP3    H2 8017   5.551   1.753   4.545  0.4690 -0.7000 -0.1348
 2685TIP3   OH2 8018   4.157   2.340   3.426  0.0552  0.7230  0.2578
 2685TIP3    H1 8019   4.164   2.424   3.380  4.5844  0.7330  0.5140
 2685TIP3    H2 8020   4.158   2.363   3.519 -0.3521  0.4070  0.3441
 2686TIP3   OH2 8021   1.681   6.478   3.279 -0.0289  0.4422  0.0726
 2686TIP3    H1 8022   1.732   6.558   3.267 -1.3833  1.6627  1.8970
 2686TIP3    H2 8023   1.594   6.508   3.305 -1.1402 -1.6142 -0.9709
 2687TIP3   OH2 8024   1.691   2.830   4.275 -0.0077 -0.0061  0.3730
 2687TIP3    H1 8025   1.773   2.783   4.291 -0.2955 -0.4012  0.6977
 2687TIP3    H2 8026   1.707   2.879   4.194  0.8961  0.7179  0.9679
 2688TIP3   OH2 8027   0.939   5.773   2.133 -0.0382  0.0062  0.2998
 2688TIP3    H1 8028   1.030   5.754   2.154 -0.4222 -0.7450  1.3499
 2688TIP3    H2 8029   0.923   5.729   2.050  0.1398 -1.1521  0.8657
 2689TIP3   OH2 8030   4.507   2.268   5.729  0.0957 -0.8424  0.0542
 2689TIP3    H1 8031   4.458   2.190   5.757  1.4333 -1.8591 -0.3199
 2689TIP3    H2 8032   4.571   2.283   5.799  1.2474 -1.3870 -0.8481
 2690TIP3   OH2 8033   2.040   0.478   5.457  0.6152 -0.2041 -0.0680
 2690TIP3    H1 8034   1.949   0.495   5.433 -0.2022 -4.0847 -0.3791
 2690TIP3    H2 8035   2.087   0.471   5.374  0.8127  0.0541  0.0204
 2691TIP3   OH2 8036   6.996   2.946   4.358 -0.2763 -0.1299 -0.2211
 2691TIP3    H1 8037   7.078   2.928   4.311  1.2391  3.3511  0.7390
 2691TIP3    H2 8038   6.930   2.951   4.289  1.1529  1.0706 -1.5790
 2692TIP3   OH2 8039   5.483   6.725   2.276 -0.3378  0.1306  0.4703
 2692TIP3    H1 8040   5.483   6.817   2.301  1.0788 -0.0437  1.2604
 2692TIP3    H2 8041   5.411   6.716   2.215  0.0041  1.9462 -0.2564
 2693TIP3   OH2 8042   5.174   1.773   5.554 -0.2075 -0.0400  0.8196
 2693TIP3    H1 8043   5.251   1.816   5.516  0.7365 -1.4181  1.0938
 2693TIP3    H2 8044   5.101   1.807   5.504  0.8839 -0.9853 -1.5837
 2694TIP3   OH2 8045   4.803   4.401   1.883  0.3260 -0.1813 -0.3791
 2694TIP3    H1 8046   4.780   4.352   1.804 -2.1346  1.3274 -0.7164
 2694TIP3    H2 8047   4.854   4.476   1.850  2.1429 -1.2393 -0.1066
 2695TIP3   OH2 8048   0.050   5.990   5.518  0.4279  0.0488 -0.2309
 2695TIP3    H1 8049   0.048   6.011   5.611  3.1909 -0.6471  0.0701
 2695TIP3    H2 8050  -0.014   5.920   5.507 -1.5336  1.5890  0.6441
 2696TIP3   OH2 8051   4.853   4.832   2.234  0.0984  0.2722 -0.2872
 2696TIP3    H1 8052   4.928   4.861   2.181 -0.5076  1.3533 -0.5857
 2696TIP3    H2 8053   4.829   4.909   2.286 -0.1959 -0.3643  0.5384
 2697TIP3   OH2 8054   0.846   0.945   5.707 -0.6454 -0.0587  0.4267
 2697TIP3    H1 8055   0.828   0.879   5.775 -0.8215 -0.0255  0.4101
 2697TIP3    H2 8056   0.920   0.908   5.658 -0.6574 -0.1822  0.5008
 2698TIP3   OH2 8057   6.903   3.352   4.346  0.0053  0.6501  0.7727
 2698TIP3    H1 8058   6.853   3.283   4.301  2.1634 -0.1171 -0.5797
 2698TIP3    H2 8059   6.844   3.428   4.345 -0.4722  0.3877 -2.5534
 2699TIP3   OH2 8060   2.871   0.052   5.228 -0.0336  0.1791  0.1380
 2699TIP3    H1 8061   2.931  -0.024   5.226 -0.3354 -0.0591 -1.0132
 2699TIP3    H2 8062   2.870   0.079   5.319  0.2493 -1.0830  0.5475
 2700TIP3   OH2 8063   3.400   5.566   5.269 -0.4414 -0.2416 -0.6418
 2700TIP3    H1 8064   3.375   5.649   5.228  1.1703 -0.1531 -1.4854
 2700TIP3    H2 8065   3.486   5.546   5.234  0.8315 -0.4229  2.3140
 2701TIP3   OH2 8066   5.363   6.630   3.769  0.3725 -0.5813  0.4897
 2701TIP3    H1 8067   5.418   6.616   3.692  0.2282 -1.7637  0.5750
 2701TIP3    H2 8068   5.345   6.541   3.801 -3.7819 -0.5346 -1.0514
 2702TIP3   OH2 8069   1.837   3.621   0.436  0.0516 -0.6481 -0.7481
 2702TIP3    H1 8070   1.843   3.712   0.410 -1.1266  0.0688  1.2680
 2702TIP3    H2 8071   1.924   3.599   0.469 -0.5323  1.0511  2.4038
 2703TIP3   OH2 8072   5.981   6.052   3.568 -0.1886  0.0007 -0.6456
 2703TIP3    H1 8073   5.921   5.980   3.551  1.1893 -0.9620 -1.6684
 2703TIP3    H2 8074   5.961   6.118   3.502 -0.4321 -0.0954 -0.6664
 2704TIP3   OH2 8075   0.144   4.778   2.727 -0.1655  0.6943 -0.3671
 2704TIP3    H1 8076   0.230   4.772   2.769 -0.6208  0.9015  0.6108
 2704TIP3    H2 8077   0.083   4.795   2.799 -1.1042 -0.0312 -0.9678
 2705TIP3   OH2 8078   5.960   1.812   2.047  0.4615 -0.1960  0.0723
 2705TIP3    H1 8079   5.943   1.798   2.141 -1.4388 -1.8163 -0.4402
 2705TIP3    H2 8080   5.907   1.889   2.025  1.4431  0.6045  0.4371
 2706TIP3   OH2 8081   2.947   5.026   5.367 -0.1026 -0.3521 -0.8090
 2706TIP3    H1 8082   2.996   5.102   5.337  1.1256 -0.8678 -0.1924
 2706TIP3    H2 8083   2.900   5.057   5.445  1.5734 -0.5716  0.3344
 2707TIP3   OH2 8084   3.023   1.992   0.326  0.1566  0.4792  0.1745
 2707TIP3    H1 8085   3.086   1.935   0.369  0.2841  1.0526  0.7725
 2707TIP3    H2 8086   2.949   1.997   0.387 -0.2968  0.1354 -0.3362
 2708TIP3   OH2 8087   2.353   0.879   0.874  0.3728  0.2276  0.3663
 2708TIP3    H1 8088   2.277   0.824   0.896  0.2136  0.3928  0.2334
 2708TIP3    H2 8089   2.428   0.833   0.911  0.7223 -1.8884 -2.6861
 2709TIP3   OH2 8090   5.771   1.013   0.169 -0.0221  0.3332 -0.4850
 2709TIP3    H1 8091   5.736   1.032   0.082 -0.4851  0.2579 -0.3143
 2709TIP3    H2 8092   5.696   0.984   0.220  0.4839 -0.9874 -0.4445
 2710TIP3   OH2 8093   2.425   0.441   3.541  0.5729 -0.1191  0.5159
 2710TIP3    H1 8094   2.434   0.355   3.498 -0.5465 -0.9832  1.9367
 2710TIP3    H2 8095   2.416   0.503   3.468 -0.5782 -1.4431 -0.5273
 2711TIP3   OH2 8096   1.504   4.054   2.700  0.0259 -0.1083 -0.2783
 2711TIP3    H1 8097   1.468   4.058   2.789  1.5056 -0.2346  0.3452
 2711TIP3    H2 8098   1.462   3.977   2.661 -0.2095 -0.3912  0.5116
 2712TIP3   OH2 8099   6.374   5.647   3.813 -0.0987 -0.6835 -0.8456
 2712TIP3    H1 8100   6.420   5.677   3.891  1.5822 -3.4183 -0.6529
 2712TIP3    H2 8101   6.405   5.705   3.743  2.2237 -1.2043 -0.3329
 2713TIP3   OH2 8102   6.331   3.191   2.884  0.1093 -0.2710 -0.3538
 2713TIP3    H1 8103   6.386   3.142   2.823  1.2878 -0.5440  0.8931
 2713TIP3    H2 8104   6.266   3.233   2.828 -1.4124 -3.7526 -1.4317
 2714TIP3   OH2 8105   1.081   4.097   4.770  0.4680 -0.5060  0.9930
 2714TIP3    H1 8106   1.066   4.142   4.686 -0.1326 -1.7126  0.4151
 2714TIP3    H2 8107   1.151   4.146   4.812  0.7136  0.1942 -0.1823
 2715TIP3   OH2 8108   6.518   3.701   0.603 -0.1682  0.3016  0.6523
 2715TIP3    H1 8109   6.423   3.707   0.593 -0.1014  0.4084  0.0265
 2715TIP3    H2 8110   6.553   3.724   0.517  0.3191 -2.3873  0.0286
 2716TIP3   OH2 8111   5.702   5.981   2.910 -0.0650  0.0690  0.4087
 2716TIP3    H1 8112   5.662   5.990   2.996 -0.2773  4.7524  0.0901
 2716TIP3    H2 8113   5.793   6.007   2.923  0.1093  0.0382 -0.6368
 2717TIP3   OH2 8114   2.749   3.770   1.470  0.2870 -0.0960  0.0251
 2717TIP3    H1 8115   2.741   3.768   1.375 -1.1606  0.7264  0.1062
 2717TIP3    H2 8116   2.660   3.786   1.502  0.8061  0.0438  1.5006
 2718TIP3   OH2 8117   5.401   6.413   5.109  0.5142  0.1377 -0.1681
 2718TIP3    H1 8118   5.425   6.500   5.141 -0.2901  0.1812  0.3483
 2718TIP3    H2 8119   5.460   6.353   5.153  0.5341  0.3519  0.0961
 2719TIP3   OH2 8120   5.786   3.333   1.333  0.2699 -0.6364  0.2438
 2719TIP3    H1 8121   5.788   3.365   1.243 -0.2743  0.4540  0.5920
 2719TIP3    H2 8122   5.724   3.260   1.331 -1.9813  1.1476  0.2119
 2720TIP3   OH2 8123   6.878   4.239   0.952  0.3425 -0.6214 -0.2173
 2720TIP3    H1 8124   6.935   4.183   0.900  2.6443  1.4539 -0.1012
 2720TIP3    H2 8125   6.790   4.211   0.929  1.3349 -2.4351 -2.1726
 2721TIP3   OH2 8126   7.216   2.655   5.808 -0.0037 -0.3361 -0.7911
 2721TIP3    H1 8127   7.207   2.670   5.902  0.2654 -1.9363 -0.4835
 2721TIP3    H2 8128   7.161   2.722   5.768 -2.2496 -1.2281  0.5936
 2722TIP3   OH2 8129   3.464   1.772   0.302 -0.1690  0.3069 -0.6315
 2722TIP3    H1 8130   3.426   1.747   0.217 -0.8912 -0.7851 -0.0074
 2722TIP3    H2 8131   3.508   1.694   0.333  0.4317  0.8212 -0.1676
 2723TIP3   OH2 8132   4.210   0.886   1.661 -0.1994  0.4955 -0.2014
 2723TIP3    H1 8133   4.122   0.862   1.631 -0.2820  1.7283 -0.9964
 2723TIP3    H2 8134   4.206   0.980   1.673  0.2998  0.2578  2.2386
 2724TIP3   OH2 8135   2.719   0.110   2.701  0.6711 -0.6981 -0.4309
 2724TIP3    H1 8136   2.648   0.047   2.712  0.5725 -0.8471 -1.7427
 2724TIP3    H2 8137   2.757   0.119   2.788 -0.0366 -1.7153  0.0012
 2725TIP3   OH2 8138   6.251   3.487   5.654 -0.0827 -0.2465 -0.4293
 2725TIP3    H1 8139   6.157   3.488   5.676 -0.3507  2.1158 -1.3927
 2725TIP3    H2 8140   6.294   3.516   5.735 -0.5009  1.7141 -0.8489
 2726TIP3   OH2 8141   7.134   1.588   3.668  0.3099 -0.1159  0.3043
 2726TIP3    H1 8142   7.104   1.590   3.578  0.0980 -1.4034  0.3363
 2726TIP3    H2 8143   7.059   1.617   3.720  0.3956  0.5068  0.0951
 2727TIP3   OH2 8144   1.299   5.228   4.261 -0.4310 -0.3192 -0.3849
 2727TIP3    H1 8145   1.343   5.211   4.178 -1.1741  1.8083 -1.2592
 2727TIP3    H2 8146   1.228   5.164   4.263 -0.4624 -0.3325 -1.4198
 2728TIP3   OH2 8147   0.708   4.158   5.894 -0.5945  0.8427  0.3049
 2728TIP3    H1 8148   0.694   4.094   5.824 -0.3700 -0.1204  1.1077
 2728TIP3    H2 8149   0.727   4.240   5.849 -0.0595  0.1494 -0.7653
 2729TIP3   OH2 8150   1.764   2.706   0.353 -0.0719 -0.1369  0.7606
 2729TIP3    H1 8151   1.691   2.767   0.350  0.6665  0.7442 -1.6869
 2729TIP3    H2 8152   1.832   2.746   0.299  1.3862 -1.9816  1.0922
 2730TIP3   OH2 8153   6.704   1.551   2.935  0.3859 -0.0797  0.2174
 2730TIP3    H1 8154   6.640   1.499   2.886  0.8765 -2.2342  1.7275
 2730TIP3    H2 8155   6.658   1.633   2.954 -0.5013  0.0288 -2.0676
 2731TIP3   OH2 8156   6.282   0.205   1.362 -0.2932  0.2075  0.5091
 2731TIP3    H1 8157   6.207   0.213   1.421 -1.8005  0.9612 -1.3823
 2731TIP3    H2 8158   6.270   0.276   1.299  0.4883 -1.3524 -1.4971
 2732TIP3   OH2 8159   4.427   5.106   0.300 -0.0089 -0.1290  0.0474
 2732TIP3    H1 8160   4.455   5.197   0.298 -0.2610 -0.0227 -2.5393
 2732TIP3    H2 8161   4.398   5.088   0.210  0.1464 -2.7858  0.4424
 2733TIP3   OH2 8162   1.295   5.084   2.871 -0.0273  0.1568  0.1607
 2733TIP3    H1 8163   1.262   4.999   2.840 -1.3930  0.6215  0.2861
 2733TIP3    H2 8164   1.322   5.129   2.791  0.3928 -0.2553  0.0618
 2734TIP3   OH2 8165   2.134   0.356   4.185  0.3784  0.4694 -0.2746
 2734TIP3    H1 8166   2.066   0.405   4.139 -0.3374 -1.4701 -1.3741
 2734TIP3    H2 8167   2.091   0.323   4.264  0.2085 -0.2319 -0.6550
 2735TIP3   OH2 8168   6.255   2.159   0.511  0.5045  0.4210  0.1328
 2735TIP3    H1 8169   6.202   2.227   0.468 -1.3035 -0.4062  0.9850
 2735TIP3    H2 8170   6.257   2.185   0.603  1.8589  0.5777  0.0834
 2736TIP3   OH2 8171   2.604   3.080   1.431 -0.2135 -0.9738  0.1651
 2736TIP3    H1 8172   2.653   3.117   1.504 -0.4459  0.1814 -0.2440
 2736TIP3    H2 8173   2.665   3.080   1.357 -0.7178  0.2373 -0.2814
 2737TIP3   OH2 8174   6.160   0.566   0.476 -0.1873  0.2742  0.0122
 2737TIP3    H1 8175   6.220   0.551   0.402 -0.3710 -0.8521  0.0636
 2737TIP3    H2 8176   6.218   0.581   0.551  0.0274 -0.1989 -0.0552
 2738TIP3   OH2 8177   6.734   2.557   3.779  0.4057  0.6440 -0.4957
 2738TIP3    H1 8178   6.709   2.648   3.761  0.5881  0.3157 -2.5946
 2738TIP3    H2 8179   6.674   2.505   3.726  1.0718 -0.4168 -0.2363
 2739TIP3   OH2 8180   5.519   3.350   5.057 -0.0757  0.0904 -0.0130
 2739TIP3    H1 8181   5.500   3.444   5.057  1.2485  0.3860 -0.1737
 2739TIP3    H2 8182   5.465   3.315   5.128 -2.5917  0.4913 -1.6001
 2740TIP3   OH2 8183   0.432   2.693   0.706 -0.0306 -0.4290  0.0705
 2740TIP3    H1 8184   0.514   2.655   0.739  0.3284  1.0352  1.0113
 2740TIP3    H2 8185   0.393   2.735   0.783  0.6586  2.8467 -1.2069
 2741TIP3   OH2 8186   3.356   5.899   2.300  0.0249 -0.4062 -0.2299
 2741TIP3    H1 8187   3.390   5.976   2.253 -0.3620 -1.3906 -2.2262
 2741TIP3    H2 8188   3.434   5.860   2.340  0.1700  1.2116  1.1781
 2742TIP3   OH2 8189   2.952   0.951   0.345 -0.0525  0.2827  0.1266
 2742TIP3    H1 8190   2.942   0.866   0.302 -0.5411 -1.4380  3.2972
 2742TIP3    H2 8191   3.042   0.977   0.326  0.5078 -1.5600  0.0159
 2743TIP3   OH2 8192   2.783   0.441   1.108  0.1788  0.2262  0.4502
 2743TIP3    H1 8193   2.763   0.381   1.036  0.8188  0.1048  0.3645
 2743TIP3    H2 8194   2.739   0.404   1.184  1.1474 -0.7383  0.5538
 2744TIP3   OH2 8195   4.938   2.192   3.411  0.8259 -0.9012  0.1956
 2744TIP3    H1 8196   4.925   2.199   3.505 -0.9559 -0.7162 -0.0179
 2744TIP3    H2 8197   4.897   2.109   3.387 -0.7683  0.0805 -0.6772
 2745TIP3   OH2 8198   0.295   5.793   3.202 -0.2424 -0.1367  0.7809
 2745TIP3    H1 8199   0.250   5.836   3.130 -1.5604  1.2000  2.3166
 2745TIP3    H2 8200   0.387   5.792   3.176 -1.0458 -4.3923 -3.1954
 2746TIP3   OH2 8201   6.882   3.618   0.357 -0.1122 -0.2844  0.3675
 2746TIP3    H1 8202   6.923   3.546   0.405 -1.6107 -1.5702 -0.1671
 2746TIP3    H2 8203   6.919   3.612   0.269 -1.3883 -1.4771 -0.1298
 2747TIP3   OH2 8204   6.267   4.451   1.704 -0.1214 -0.5284  0.1047
 2747TIP3    H1 8205   6.283   4.435   1.797 -0.5464  0.1341  0.3012
 2747TIP3    H2 8206   6.352   4.438   1.662 -0.2126 -2.1820  0.3856
 2748TIP3   OH2 8207   4.109   2.242   4.916 -0.2764 -0.1270 -0.6020
 2748TIP3    H1 8208   4.111   2.252   4.821 -2.3595 -0.5496 -0.7401
 2748TIP3    H2 8209   4.145   2.324   4.950 -1.3686  0.8755 -1.7614
 2749TIP3   OH2 8210   2.895   1.826   0.063 -0.1280 -0.7745 -0.3585
 2749TIP3    H1 8211   2.822   1.844   0.122  0.3109 -1.4448  0.4017
 2749TIP3    H2 8212   2.955   1.900   0.075 -0.5301 -0.3711 -0.7695
 2750TIP3   OH2 8213   3.766   6.568   5.407 -0.4142 -0.0701 -0.4595
 2750TIP3    H1 8214   3.687   6.525   5.376 -0.1615 -0.6670 -0.2902
 2750TIP3    H2 8215   3.735   6.629   5.474 -0.7613 -0.0586 -0.6259
 2751TIP3   OH2 8216   3.407   6.418   0.830 -0.1168 -0.2588  0.2550
 2751TIP3    H1 8217   3.380   6.461   0.911 -1.2217 -0.0945 -0.1851
 2751TIP3    H2 8218   3.407   6.487   0.764 -0.2505 -0.5944 -0.1041
 2752TIP3   OH2 8219   3.430   3.009   2.715  0.2200 -0.1387  0.0525
 2752TIP3    H1 8220   3.387   2.954   2.649  0.8485 -0.7109  0.1035
 2752TIP3    H2 8221   3.512   3.036   2.674  0.1527  0.3401  0.2266
 2753TIP3   OH2 8222   2.425   0.382   4.215 -0.5909  0.5506  0.3006
 2753TIP3    H1 8223   2.465   0.378   4.302  0.0798  1.9717  0.0864
 2753TIP3    H2 8224   2.331   0.390   4.232 -0.3466  2.5538  0.9795
 2754TIP3   OH2 8225   0.078   2.189   3.523 -0.0924 -0.1843 -0.3885
 2754TIP3    H1 8226   0.165   2.193   3.482  0.6992 -2.8570  0.8506
 2754TIP3    H2 8227   0.036   2.114   3.481 -0.1565 -1.5197  1.9493
 2755TIP3   OH2 8228   4.651   3.676   2.336  0.4360  0.0140 -0.0501
 2755TIP3    H1 8229   4.603   3.597   2.361  0.0039  0.2220 -0.2048
 2755TIP3    H2 8230   4.743   3.653   2.348  0.2905 -0.2967  0.5434
 2756TIP3   OH2 8231   3.776   4.257   5.418 -0.5048  0.1865 -0.0855
 2756TIP3    H1 8232   3.705   4.311   5.384 -0.8657 -0.8816 -1.1063
 2756TIP3    H2 8233   3.768   4.174   5.370  1.5836  0.1215 -0.4295
 2757TIP3   OH2 8234   0.529   1.523   0.614  0.4750 -0.3904  0.3913
 2757TIP3    H1 8235   0.443   1.530   0.573 -0.2266 -3.5099  1.0577
 2757TIP3    H2 8236   0.585   1.484   0.546  1.8211  2.7189 -0.4567
 2758TIP3   OH2 8237   2.320   1.764   0.129  0.0659 -0.0179  0.0502
 2758TIP3    H1 8238   2.293   1.839   0.182 -0.2711  0.3944 -0.6805
 2758TIP3    H2 8239   2.347   1.803   0.045 -2.0291 -0.8446 -1.0698
 2759TIP3   OH2 8240   5.372   5.888   2.581  0.4388  0.1245  0.4286
 2759TIP3    H1 8241   5.419   5.885   2.664  0.3192 -0.7827  0.4764
 2759TIP3    H2 8242   5.439   5.867   2.515  0.6867  1.5121  0.2127
 2760TIP3   OH2 8243   1.398   3.205   1.303  0.4502 -0.3083 -0.1108
 2760TIP3    H1 8244   1.313   3.211   1.347  0.5285  1.5183 -0.1239
 2760TIP3    H2 8245   1.409   3.112   1.284 -0.3077 -0.9696  2.3324
 2761TIP3   OH2 8246   1.039   2.579   0.182 -0.5662  0.1030 -0.1829
 2761TIP3    H1 8247   0.945   2.588   0.165 -0.8840 -1.3755  0.5780
 2761TIP3    H2 8248   1.078   2.660   0.148 -1.9975  0.3626 -1.2822
 2762TIP3   OH2 8249   0.784   1.205   4.954 -0.5422 -0.1145  0.0081
 2762TIP3    H1 8250   0.816   1.115   4.954 -0.3169 -0.0340  0.1141
 2762TIP3    H2 8251   0.792   1.234   5.045  0.2421  0.3143 -0.1869
 2763TIP3   OH2 8252   5.627   2.310   3.865 -0.4123  0.0426 -0.7415
 2763TIP3    H1 8253   5.581   2.301   3.948 -1.4570 -0.7569 -1.3864
 2763TIP3    H2 8254   5.559   2.307   3.798  0.6414 -3.6676 -1.8869
 2764TIP3   OH2 8255   4.199   0.964   1.981 -0.2132 -0.4280  0.3118
 2764TIP3    H1 8256   4.105   0.951   1.990 -0.3822 -0.1845 -0.9492
 2764TIP3    H2 8257   4.210   1.057   1.963  0.0795 -0.7843 -1.5410
 2765TIP3   OH2 8258   7.108   2.779   1.662  0.0343 -0.3103  0.4015
 2765TIP3    H1 8259   7.031   2.799   1.715 -1.7311 -0.8398 -1.7676
 2765TIP3    H2 8260   7.147   2.702   1.704  1.2589  1.7492  3.2841
 2766TIP3   OH2 8261   3.238   3.226   4.708 -0.3417 -0.5739  0.2313
 2766TIP3    H1 8262   3.278   3.272   4.782 -0.0089  0.7127 -0.7095
 2766TIP3    H2 8263   3.203   3.296   4.653 -0.5571 -1.5032 -0.8416
 2767TIP3   OH2 8264   4.307   0.368   2.652 -0.0793  0.4648  0.4834
 2767TIP3    H1 8265   4.311   0.341   2.744 -0.2222 -1.3671 -0.0020
 2767TIP3    H2 8266   4.356   0.300   2.606 -1.3537  0.4820 -0.9617
 2768TIP3   OH2 8267   6.842   4.355   3.859 -0.0473 -0.9009  0.0978
 2768TIP3    H1 8268   6.886   4.286   3.908  1.7383 -0.0539 -0.2414
 2768TIP3    H2 8269   6.868   4.341   3.768  1.5687  1.0007  0.1830
 2769TIP3   OH2 8270   1.281   3.362   1.104  0.0038  0.3401 -0.6832
 2769TIP3    H1 8271   1.344   3.304   1.145 -0.3123  0.8648  0.5919
 2769TIP3    H2 8272   1.280   3.336   1.012  0.8498 -0.7605 -0.3941
 2770TIP3   OH2 8273   3.022   5.975   2.032 -0.3469 -0.7502 -0.4556
 2770TIP3    H1 8274   3.066   5.966   1.947  1.0117 -0.5754  0.2019
 2770TIP3    H2 8275   3.032   6.067   2.055 -0.9386 -0.7402 -0.2106
 2771TIP3   OH2 8276   5.862   6.305   5.263  0.2558 -0.0394  0.3421
 2771TIP3    H1 8277   5.865   6.235   5.329 -1.2775  0.3378  0.8362
 2771TIP3    H2 8278   5.911   6.377   5.302  1.2190 -0.5524  0.1315
 2772TIP3   OH2 8279   2.509   6.219   0.747 -0.1113 -0.2863 -0.4353
 2772TIP3    H1 8280   2.511   6.291   0.809 -0.9608 -1.4442  0.9886
 2772TIP3    H2 8281   2.432   6.236   0.693 -0.1812 -0.0214 -0.2554
 2773TIP3   OH2 8282   1.822   5.016   4.705  0.1542 -0.3023  0.2313
 2773TIP3    H1 8283   1.734   5.054   4.712 -0.8136 -2.4304  0.2667
 2773TIP3    H2 8284   1.817   4.958   4.629  2.3181  1.3935 -1.3405
 2774TIP3   OH2 8285   3.804   0.309   0.056  0.2384 -0.3233  0.5773
 2774TIP3    H1 8286   3.759   0.320  -0.028  0.0045 -0.7705  0.6412
 2774TIP3    H2 8287   3.835   0.397   0.078 -1.7576  0.2882  1.1702
 2775TIP3   OH2 8288   1.732   6.400   3.529 -0.2925 -0.4855 -0.2836
 2775TIP3    H1 8289   1.694   6.398   3.441 -0.7389 -0.1096 -0.1022
 2775TIP3    H2 8290   1.659   6.376   3.587  0.2140 -1.6108 -0.0809
 2776TIP3   OH2 8291   2.566   2.042   5.478 -0.0972 -0.3331  0.6316
 2776TIP3    H1 8292   2.482   2.012   5.514 -0.8506 -1.1672 -1.6445
 2776TIP3    H2 8293   2.545   2.121   5.429  0.4242 -0.5682  0.0104
 2777TIP3   OH2 8294   1.161   0.867   5.728 -0.4707  0.1361 -0.2874
 2777TIP3    H1 8295   1.242   0.915   5.748 -1.1842  0.9399  0.7919
 2777TIP3    H2 8296   1.146   0.812   5.805 -1.3460  0.5415 -0.1603
 2778TIP3   OH2 8297   0.448   1.016   4.537 -0.1224  0.4438  0.2284
 2778TIP3    H1 8298   0.390   0.955   4.493 -2.5568  1.8503  1.2981
 2778TIP3    H2 8299   0.486   0.966   4.609  0.5909 -0.6872 -0.9057
 2779TIP3   OH2 8300   2.733   1.046   0.494 -0.2276 -0.9442 -0.2195
 2779TIP3    H1 8301   2.704   1.131   0.461  1.2902 -0.3066 -0.0180
 2779TIP3    H2 8302   2.797   1.016   0.430  1.4681 -0.4882  1.1743
 2780TIP3   OH2 8303   7.183   6.424   3.340  0.2336  0.0323 -0.3621
 2780TIP3    H1 8304   7.221   6.455   3.422 -1.0664 -1.8854  1.0328
 2780TIP3    H2 8305   7.113   6.487   3.321  1.0421  0.9280 -0.4703
 2781TIP3   OH2 8306   4.174   5.763   4.896 -0.5492  0.0129  0.6785
 2781TIP3    H1 8307   4.169   5.671   4.923 -0.1691 -0.4412 -0.6936
 2781TIP3    H2 8308   4.087   5.783   4.861 -0.0945 -0.4460 -0.8004
 2782TIP3   OH2 8309   6.225   0.821   3.517  0.0475 -0.2095 -0.0188
 2782TIP3    H1 8310   6.197   0.845   3.605  0.3835 -2.1241  0.6453
 2782TIP3    H2 8311   6.300   0.878   3.499  0.0016  0.1631  0.9361
 2783TIP3   OH2 8312   1.232   1.953   0.949 -0.3897  0.6026 -0.5277
 2783TIP3    H1 8313   1.199   1.867   0.925  0.5316 -0.0562  0.4956
 2783TIP3    H2 8314   1.293   1.976   0.878 -0.4240  0.2970 -0.6554
 2784TIP3   OH2 8315   0.754   4.051   3.832 -0.0858  0.4085 -0.2611
 2784TIP3    H1 8316   0.755   4.043   3.736 -0.5156  0.3877 -0.2671
 2784TIP3    H2 8317   0.781   4.142   3.848 -0.8897  0.6890 -0.4469
 2785TIP3   OH2 8318   3.336   2.460   3.899 -0.0268  0.3650  0.6922
 2785TIP3    H1 8319   3.255   2.422   3.931  0.2986 -2.1660 -1.1140
 2785TIP3    H2 8320   3.402   2.433   3.963 -0.2919  0.6155  1.0718
 2786TIP3   OH2 8321   2.730   4.112   2.871  0.2866 -0.4295 -0.3352
 2786TIP3    H1 8322   2.677   4.065   2.936  0.2183  0.1202  0.0137
 2786TIP3    H2 8323   2.738   4.200   2.907  1.1243 -0.4026 -0.5677
 2787TIP3   OH2 8324   3.526   4.205   3.885 -0.6174  0.1702 -0.0916
 2787TIP3    H1 8325   3.448   4.220   3.832 -0.6003  0.4761 -0.0335
 2787TIP3    H2 8326   3.585   4.154   3.829 -0.7211  0.2316 -0.2566
 2788TIP3   OH2 8327   5.612   6.304   1.096 -0.5482  0.2359 -0.0802
 2788TIP3    H1 8328   5.517   6.308   1.108 -0.5727 -0.0711 -0.1501
 2788TIP3    H2 8329   5.625   6.321   1.002 -0.4828  0.9558  0.0574
 2789TIP3   OH2 8330   2.560   6.645   2.011  0.0580  0.6952  0.4605
 2789TIP3    H1 8331   2.482   6.681   1.969 -0.5173 -0.2523  0.7026
 2789TIP3    H2 8332   2.605   6.597   1.941 -1.4767 -1.8339  1.1009
 2790TIP3   OH2 8333   6.673   4.535   3.957  0.3729  0.1473 -0.0689
 2790TIP3    H1 8334   6.714   4.618   3.981 -1.7409  0.5429  2.7207
 2790TIP3    H2 8335   6.737   4.492   3.901  1.6331  3.5164 -1.4776
 2791TIP3   OH2 8336   4.429   0.055   2.658 -0.2659  0.0326  0.7118
 2791TIP3    H1 8337   4.418  -0.040   2.664  0.2511 -0.1171 -0.3871
 2791TIP3    H2 8338   4.411   0.088   2.746 -2.5329 -0.8637  0.6558
 2792TIP3   OH2 8339   5.953   0.547   5.815  0.0585  0.1325  0.0744
 2792TIP3    H1 8340   5.977   0.482   5.881 -0.2018  0.4188  0.4566
 2792TIP3    H2 8341   5.917   0.495   5.743 -0.5323 -0.1290  0.5456
 2793TIP3   OH2 8342   3.244   3.462   1.808 -0.5794 -0.3631 -0.4194
 2793TIP3    H1 8343   3.231   3.435   1.717  0.3326  2.1720 -1.3902
 2793TIP3    H2 8344   3.324   3.514   1.806 -1.2605  0.8751  1.6013
 2794TIP3   OH2 8345   1.508   5.395   5.795 -0.4895  0.1080 -0.3869
 2794TIP3    H1 8346   1.582   5.376   5.853 -1.2395 -1.2759  0.1819
 2794TIP3    H2 8347   1.456   5.315   5.798 -2.0976  1.1218 -0.6397
 2795TIP3   OH2 8348   3.445   0.198   4.843 -0.0785 -0.1285  0.1579
 2795TIP3    H1 8349   3.408   0.219   4.757  0.2827  0.9684  0.2631
 2795TIP3    H2 8350   3.501   0.122   4.826  1.8538  1.4697 -1.0844
 2796TIP3   OH2 8351   4.424   5.120   1.613 -0.1783 -0.0341 -0.0498
 2796TIP3    H1 8352   4.382   5.033   1.608 -0.0555 -0.1065  0.1538
 2796TIP3    H2 8353   4.485   5.112   1.686  2.7059 -1.0253 -2.3881
 2797TIP3   OH2 8354   2.729   5.085   5.628  0.6199  0.1186 -0.0822
 2797TIP3    H1 8355   2.688   5.156   5.580 -0.3241 -1.1803 -1.2594
 2797TIP3    H2 8356   2.737   5.118   5.718 -2.1777  0.7744  0.0055
 2798TIP3   OH2 8357   5.635   2.882   3.892 -0.0185 -0.0925  0.3148
 2798TIP3    H1 8358   5.607   2.796   3.924 -1.5367  0.4292  0.4310
 2798TIP3    H2 8359   5.626   2.940   3.968 -0.1462  0.4183 -0.0861
 2799TIP3   OH2 8360   1.273   1.534   2.628  0.4820  0.8112 -0.1249
 2799TIP3    H1 8361   1.200   1.500   2.575  0.8734  0.6168 -0.5564
 2799TIP3    H2 8362   1.310   1.456   2.669  0.5687  0.8867 -0.0607
 2800TIP3   OH2 8363   4.359   2.067   5.810 -0.4587  0.7197 -0.2445
 2800TIP3    H1 8364   4.345   1.979   5.846 -0.8745  1.1748  0.7459
 2800TIP3    H2 8365   4.281   2.116   5.837  0.5955  1.8888  0.8013
 2801TIP3   OH2 8366   0.386   0.852   1.718 -0.4840  0.2695 -0.0192
 2801TIP3    H1 8367   0.311   0.818   1.670 -0.0304  0.5771 -0.9690
 2801TIP3    H2 8368   0.363   0.943   1.738 -0.3878  0.3513 -0.2743
 2802TIP3   OH2 8369   5.019   3.404   1.002 -0.3308 -0.2036 -0.0513
 2802TIP3    H1 8370   4.982   3.479   0.956  0.7376  1.4304  1.5951
 2802TIP3    H2 8371   5.076   3.443   1.069  1.8441 -2.5016 -0.4013
 2803TIP3   OH2 8372   1.956   3.179   2.267  0.0243  0.6477  0.0580
 2803TIP3    H1 8373   1.891   3.109   2.257  0.8010 -0.4065  1.9018
 2803TIP3    H2 8374   1.945   3.233   2.188 -2.5180  0.0671 -0.0890
 2804TIP3   OH2 8375   3.936   0.603   5.268  0.5354  0.3574  0.0273
 2804TIP3    H1 8376   3.961   0.598   5.361  0.5678 -1.2288 -0.0478
 2804TIP3    H2 8377   3.949   0.515   5.235  2.4872  1.3375 -2.0251
 2805TIP3   OH2 8378   6.758   3.241   5.781 -0.0448  0.2866 -0.3576
 2805TIP3    H1 8379   6.687   3.217   5.721 -0.6433 -0.1004  0.4786
 2805TIP3    H2 8380   6.736   3.195   5.863 -1.2577  3.5921  1.3643
 2806TIP3   OH2 8381   3.983   5.834   3.504  0.3940  0.2256 -0.3211
 2806TIP3    H1 8382   4.066   5.826   3.551  0.2341  1.3517  0.1988
 2806TIP3    H2 8383   3.919   5.793   3.561  0.5437 -0.3969 -0.5948
 2807TIP3   OH2 8384   2.275   3.650   5.733  0.0589  1.0896 -0.6513
 2807TIP3    H1 8385   2.219   3.575   5.749 -0.4960  1.2865 -1.5862
 2807TIP3    H2 8386   2.359   3.612   5.706  0.9361  0.7602  2.2319
 2808TIP3   OH2 8387   2.846   1.221   1.514 -0.1941 -0.4117 -0.7266
 2808TIP3    H1 8388   2.929   1.214   1.559 -0.0785 -0.2309 -0.9118
 2808TIP3    H2 8389   2.859   1.289   1.448  0.1343 -1.7233 -2.0898
 2809TIP3   OH2 8390   5.405   3.965   2.523  0.1175 -0.1408 -0.2513
 2809TIP3    H1 8391   5.453   4.048   2.531  0.7286 -0.6315  1.6170
 2809TIP3    H2 8392   5.391   3.936   2.613 -1.6357 -1.2175 -0.8169
 2810TIP3   OH2 8393   1.806   4.647   3.778  0.0630 -0.4046 -0.0710
 2810TIP3    H1 8394   1.873   4.710   3.750 -1.6383  1.6228  0.1282
 2810TIP3    H2 8395   1.843   4.606   3.856  1.4757 -0.0890 -0.5342
 2811TIP3   OH2 8396   0.313   4.554   2.087  0.2252 -0.2272  0.3963
 2811TIP3    H1 8397   0.250   4.625   2.095 -0.3375 -0.5582 -0.8493
 2811TIP3    H2 8398   0.294   4.495   2.160 -3.3433 -2.1551 -1.8230
 2812TIP3   OH2 8399   4.860   1.082   4.488  0.2577 -0.2406 -0.4421
 2812TIP3    H1 8400   4.825   1.167   4.516 -1.5815 -1.2773  0.6217
 2812TIP3    H2 8401   4.843   1.079   4.394  0.4697  0.6137 -0.5163
 2813TIP3   OH2 8402   6.735   0.445   2.752 -0.5591 -0.0016  0.4649
 2813TIP3    H1 8403   6.716   0.365   2.802 -2.9269  0.2687  0.1079
 2813TIP3    H2 8404   6.801   0.418   2.688 -1.5394 -1.7764  0.1349
 2814TIP3   OH2 8405   1.278   3.642   2.419 -0.0869  0.3505  0.0124
 2814TIP3    H1 8406   1.195   3.617   2.378  0.1239 -1.5082  0.6030
 2814TIP3    H2 8407   1.264   3.731   2.449 -1.2706  0.6784 -1.4046
 2815TIP3   OH2 8408   2.262   2.957   2.974  0.4514  0.3151 -0.1884
 2815TIP3    H1 8409   2.222   2.869   2.974  1.7212 -0.3519 -2.6789
 2815TIP3    H2 8410   2.356   2.940   2.972  0.7641  1.7937  0.6978
 2816TIP3   OH2 8411   1.257   6.292   4.765  0.1061 -0.3991 -0.1769
 2816TIP3    H1 8412   1.286   6.375   4.804 -1.9144  0.1510  0.2603
 2816TIP3    H2 8413   1.310   6.284   4.685 -1.1303  2.5146 -1.4488
 2817TIP3   OH2 8414   6.531   4.940   2.013 -0.0814 -0.1394  0.4957
 2817TIP3    H1 8415   6.589   4.910   2.084  1.0719 -0.3686 -0.5021
 2817TIP3    H2 8416   6.499   4.859   1.973 -0.4827 -0.0113  0.5564
 2818TIP3   OH2 8417   5.551   5.085   0.149  0.0673 -0.0277  0.3019
 2818TIP3    H1 8418   5.483   5.028   0.113 -0.0183  0.3728 -0.1694
 2818TIP3    H2 8419   5.504   5.163   0.177  0.1147 -0.3663  1.3775
 2819TIP3   OH2 8420   6.998   2.462   2.556  0.8362 -0.6478  0.0594
 2819TIP3    H1 8421   6.945   2.507   2.623  0.3351  0.0715 -0.7973
 2819TIP3    H2 8422   6.946   2.469   2.476  0.5928 -3.0378 -0.0636
 2820TIP3   OH2 8423   0.877   3.564   4.362  0.2574 -0.0339 -0.0373
 2820TIP3    H1 8424   0.963   3.600   4.342  0.6774  1.1832  3.4155
 2820TIP3    H2 8425   0.896   3.477   4.399 -0.0893 -0.1975 -0.2412
 2821TIP3   OH2 8426   6.105   2.351   0.971 -0.0897  0.5091  0.0492
 2821TIP3    H1 8427   6.055   2.422   1.011 -0.9649  1.0881 -1.9482
 2821TIP3    H2 8428   6.047   2.275   0.975  0.1897  0.3243  0.6856
 2822TIP3   OH2 8429   1.820   0.520   0.730 -0.6173  0.8347  0.3323
 2822TIP3    H1 8430   1.821   0.531   0.825 -1.1051  3.5269  0.1280
 2822TIP3    H2 8431   1.733   0.551   0.704 -0.5638 -0.0587 -0.9789
 2823TIP3   OH2 8432   6.890   4.295   3.296 -0.4195  0.0985 -0.1196
 2823TIP3    H1 8433   6.828   4.284   3.224  0.7481  1.8205 -1.4994
 2823TIP3    H2 8434   6.955   4.226   3.283 -1.2012 -0.7600  0.4303
 2824TIP3   OH2 8435   6.296   0.424   3.540  0.2610 -0.3690  0.4981
 2824TIP3    H1 8436   6.314   0.332   3.523 -0.3820 -0.4282  0.0883
 2824TIP3    H2 8437   6.248   0.454   3.462  0.4592  0.3079  0.6260
 2825TIP3   OH2 8438   6.763   4.970   0.212  0.5663  0.9456 -0.1715
 2825TIP3    H1 8439   6.841   4.979   0.157  0.6908  0.7512 -0.0281
 2825TIP3    H2 8440   6.795   4.930   0.293  0.0277 -0.9076 -0.8238
 2826TIP3   OH2 8441   5.904   4.820   5.713  0.0217  0.3779  0.0784
 2826TIP3    H1 8442   5.938   4.881   5.778 -1.3402 -0.4622  1.6523
 2826TIP3    H2 8443   5.967   4.748   5.711  0.7427  1.0034 -0.5365
 2827TIP3   OH2 8444   5.565   5.322   2.703 -0.3647  0.0958 -0.5120
 2827TIP3    H1 8445   5.512   5.401   2.718  1.9295  1.6659 -0.0924
 2827TIP3    H2 8446   5.560   5.274   2.785 -0.9588  0.3450 -0.3990
 2828TIP3   OH2 8447   2.878   2.459   2.786 -0.4102  0.0354  0.0157
 2828TIP3    H1 8448   2.866   2.500   2.701 -1.0954  0.4670  0.3169
 2828TIP3    H2 8449   2.790   2.434   2.814 -0.2451  0.2684  0.7784
 2829TIP3   OH2 8450   6.548   1.986   1.872 -0.0850 -0.1751 -0.6355
 2829TIP3    H1 8451   6.627   1.934   1.855  0.6154  0.7163 -0.1531
 2829TIP3    H2 8452   6.510   2.001   1.785  0.2040 -0.7111 -0.8603
 2830TIP3   OH2 8453   2.399   5.792   1.693  1.0180 -0.5357 -0.1226
 2830TIP3    H1 8454   2.353   5.754   1.618  0.0487  0.4122 -0.0146
 2830TIP3    H2 8455   2.412   5.718   1.753  0.0663 -0.9057 -0.3600
 2831TIP3   OH2 8456   2.713   0.018   3.482 -0.5452 -0.1658  0.1966
 2831TIP3    H1 8457   2.747   0.107   3.474 -1.3840  0.2315  0.9527
 2831TIP3    H2 8458   2.745  -0.027   3.403 -0.5307  0.9363 -0.4449
 2832TIP3   OH2 8459   7.132   6.690   4.933  1.1983  0.3363 -0.5248
 2832TIP3    H1 8460   7.207   6.631   4.936 -0.0896 -1.4502 -1.4892
 2832TIP3    H2 8461   7.087   6.676   5.017  1.2536  0.4496 -0.4762
 2833TIP3   OH2 8462   2.690   2.458   0.662  0.4268  0.1058  0.1126
 2833TIP3    H1 8463   2.654   2.547   0.663 -0.2209 -0.1436  1.5760
 2833TIP3    H2 8464   2.773   2.466   0.615  0.3331  1.4657  0.1351
 2834TIP3   OH2 8465   2.181   5.921   3.491  0.0072  0.1843  0.1799
 2834TIP3    H1 8466   2.155   5.894   3.579 -2.1075 -0.2069 -0.5136
 2834TIP3    H2 8467   2.231   5.847   3.457 -1.1406 -0.6552  0.2448
 2835TIP3   OH2 8468   2.812   2.539   2.514 -0.3466 -0.1761 -0.0296
 2835TIP3    H1 8469   2.727   2.494   2.514 -2.2588  3.0214  2.4610
 2835TIP3    H2 8470   2.820   2.574   2.425 -0.0195 -3.0297 -1.2314
 2836TIP3   OH2 8471   1.604   5.619   0.055  0.1641  1.0229 -0.4460
 2836TIP3    H1 8472   1.529   5.627  -0.004 -1.0235 -0.4452  0.7660
 2836TIP3    H2 8473   1.575   5.558   0.123  2.2580  0.8935  0.4226
 2837TIP3   OH2 8474   0.402   6.737   3.957 -0.0379  0.5380 -0.2976
 2837TIP3    H1 8475   0.460   6.728   3.882  1.3251 -0.8067  0.8561
 2837TIP3    H2 8476   0.458   6.770   4.027 -0.7161 -0.4914  0.7717
 2838TIP3   OH2 8477   7.019   0.845   4.184 -0.0703  0.1800 -0.1197
 2838TIP3    H1 8478   7.089   0.905   4.158  0.1815 -0.3484 -0.6881
 2838TIP3    H2 8479   7.061   0.759   4.188 -0.2543  0.1261  1.4184
 2839TIP3   OH2 8480   0.651   3.400   2.377 -0.1803 -0.2249 -0.8508
 2839TIP3    H1 8481   0.646   3.374   2.469  0.5234  1.7656 -0.1935
 2839TIP3    H2 8482   0.562   3.427   2.355  0.0270  1.1806 -0.1027
 2840TIP3   OH2 8483   3.986   1.770   4.182  0.3228 -0.4497  0.3902
 2840TIP3    H1 8484   4.006   1.859   4.154  0.3525 -0.2235  1.1219
 2840TIP3    H2 8485   4.005   1.769   4.276  0.4587 -1.2633  0.3665
 2841TIP3   OH2 8486   6.044   5.186   5.184  0.4203 -0.6413 -0.6590
 2841TIP3    H1 8487   6.011   5.267   5.224  0.0981 -0.7976 -0.6010
 2841TIP3    H2 8488   5.965   5.133   5.170  0.5123 -0.5417 -1.6240
 2842TIP3   OH2 8489   4.433   5.823   3.531 -0.0146 -0.0373  0.8499
 2842TIP3    H1 8490   4.363   5.809   3.595  0.6034 -2.7339  1.0454
 2842TIP3    H2 8491   4.411   5.765   3.459  0.8125  0.8357 -0.1324
 2843TIP3   OH2 8492   5.997   6.412   1.861  0.1844  0.9892 -0.3416
 2843TIP3    H1 8493   6.064   6.360   1.907 -1.7915  0.3731  2.0666
 2843TIP3    H2 8494   6.024   6.503   1.874  0.9565  0.7315 -0.0809
 2844TIP3   OH2 8495   2.113   0.422   2.589  0.1265  0.0009  0.0644
 2844TIP3    H1 8496   2.064   0.453   2.513 -0.1492 -1.0314 -0.2011
 2844TIP3    H2 8497   2.066   0.456   2.665 -0.9027 -0.8157 -0.1952
 2845TIP3   OH2 8498   2.683   2.365   3.495  0.0197  0.2282  0.2794
 2845TIP3    H1 8499   2.755   2.427   3.488 -0.6499  0.8526 -1.6909
 2845TIP3    H2 8500   2.725   2.279   3.493  0.7286  0.5851 -0.8246
 2846TIP3   OH2 8501   0.556   3.553   2.014 -0.0774  0.3256 -0.7065
 2846TIP3    H1 8502   0.476   3.502   2.027 -0.8765  1.5401 -0.6818
 2846TIP3    H2 8503   0.585   3.531   1.925  0.7707 -1.7111  0.0146
 2847TIP3   OH2 8504   4.984   6.087   4.304  0.5646 -0.0313 -0.2214
 2847TIP3    H1 8505   5.037   6.015   4.271  1.0900  0.6349 -0.8567
 2847TIP3    H2 8506   4.993   6.157   4.239  1.4853  1.2471  1.1951
 2848TIP3   OH2 8507   4.730   1.519   4.850 -0.2470 -0.2079  0.1390
 2848TIP3    H1 8508   4.736   1.614   4.857 -0.6607 -0.0596 -1.3007
 2848TIP3    H2 8509   4.821   1.490   4.845 -0.0478 -0.0487  2.0833
 2849TIP3   OH2 8510   0.305   2.365   1.457  0.4552  0.0588 -0.0783
 2849TIP3    H1 8511   0.247   2.316   1.399 -0.6295  1.4594 -0.2200
 2849TIP3    H2 8512   0.283   2.457   1.442  2.9061  0.6865 -0.3523
 2850TIP3   OH2 8513   5.933   3.231   0.614 -0.2102 -0.1508 -0.3750
 2850TIP3    H1 8514   5.887   3.167   0.559  1.1307  0.4394 -2.2878
 2850TIP3    H2 8515   6.000   3.179   0.659  0.2473 -0.2821 -1.1812
 2851TIP3   OH2 8516   0.686   1.419   1.153 -0.3486 -0.1706 -0.3069
 2851TIP3    H1 8517   0.686   1.327   1.129  0.0098 -0.0131 -0.9548
 2851TIP3    H2 8518   0.645   1.463   1.078  1.6342  0.4424 -1.1213
 2852TIP3   OH2 8519   6.492   2.029   3.379  0.2958  0.8611  0.5013
 2852TIP3    H1 8520   6.406   2.016   3.337  0.2498  0.6981  0.6454
 2852TIP3    H2 8521   6.492   2.121   3.406  0.6737  1.2149 -0.6432
 2853TIP3   OH2 8522   3.380   0.113   3.169 -0.0741  0.1504 -0.0821
 2853TIP3    H1 8523   3.404   0.201   3.139 -0.3070  0.5051  0.7652
 2853TIP3    H2 8524   3.335   0.074   3.094 -0.0155  0.7705 -0.4488
 2854TIP3   OH2 8525   1.180   1.538   3.436  0.7020  0.3638 -0.1077
 2854TIP3    H1 8526   1.263   1.524   3.481 -0.9558  0.5185  3.3436
 2854TIP3    H2 8527   1.132   1.456   3.450 -0.6781  1.2190  0.3560
 2855TIP3   OH2 8528   5.955   2.197   0.196  0.6420 -0.3598 -1.2719
 2855TIP3    H1 8529   5.941   2.185   0.290 -1.6642 -0.5605 -1.5960
 2855TIP3    H2 8530   5.965   2.292   0.186  0.9598 -0.3397 -0.8419
 2856TIP3   OH2 8531   2.017   2.491   4.410  0.0230  0.0363 -0.1940
 2856TIP3    H1 8532   1.966   2.435   4.468 -0.4071 -1.7393 -2.1484
 2856TIP3    H2 8533   2.107   2.459   4.419  0.0570  0.1630 -0.0759
 2857TIP3   OH2 8534   4.816   1.511   2.027  0.2212 -0.2871  0.3826
 2857TIP3    H1 8535   4.779   1.427   2.057 -1.7961  0.8238  1.2490
 2857TIP3    H2 8536   4.744   1.553   1.980  1.4630  0.6402 -0.7730
 2858TIP3   OH2 8537   2.769   4.541   1.240  0.1276 -0.1383  0.4273
 2858TIP3    H1 8538   2.680   4.514   1.265 -0.4227  0.8205 -0.4036
 2858TIP3    H2 8539   2.824   4.510   1.312 -0.8036 -1.1805  0.7329
 2859TIP3   OH2 8540   2.620   2.381   2.347  0.0830  0.1306  0.2658
 2859TIP3    H1 8541   2.676   2.328   2.291 -1.2321 -2.0148  0.8728
 2859TIP3    H2 8542   2.598   2.458   2.294  0.6680 -0.7420 -1.2903
 2860TIP3   OH2 8543   4.883   2.748   2.862 -0.2151  0.5731  0.0394
 2860TIP3    H1 8544   4.822   2.771   2.792  2.0946  1.8175 -1.7129
 2860TIP3    H2 8545   4.920   2.832   2.891  0.9707 -0.1506  0.7196
 2861TIP3   OH2 8546   6.774   0.157   5.531 -0.0996 -0.1458 -0.6284
 2861TIP3    H1 8547   6.848   0.214   5.510  0.7890 -1.2158 -0.4535
 2861TIP3    H2 8548   6.811   0.069   5.534 -1.1729 -0.5852  0.5170
 2862TIP3   OH2 8549   4.759   1.341   4.431  0.1928 -0.6256  0.1486
 2862TIP3    H1 8550   4.689   1.372   4.489  0.3351 -2.7503  1.6200
 2862TIP3    H2 8551   4.714   1.315   4.351  0.1866  3.9783 -1.6228
 2863TIP3   OH2 8552   0.131   5.654   3.708  0.0626  0.6031 -0.1497
 2863TIP3    H1 8553   0.123   5.559   3.713 -0.8479  0.4325 -3.0450
 2863TIP3    H2 8554   0.207   5.670   3.651 -1.0782  1.4888 -1.5077
 2864TIP3   OH2 8555   7.045   0.845   2.927 -0.3925 -0.2575  0.2376
 2864TIP3    H1 8556   7.062   0.927   2.973  1.1975 -0.3787 -0.0950
 2864TIP3    H2 8557   7.131   0.808   2.911 -1.0084 -1.1861 -1.1098
 2865TIP3   OH2 8558   2.903   6.770   2.041 -0.4942 -0.8788 -0.6738
 2865TIP3    H1 8559   2.824   6.758   2.094 -0.3189 -0.2369 -0.2518
 2865TIP3    H2 8560   2.932   6.859   2.062 -0.6750 -0.4290 -2.2088
 2866TIP3   OH2 8561   1.834   2.237   4.247  0.0676  0.6858 -0.6176
 2866TIP3    H1 8562   1.917   2.202   4.215 -0.7220 -1.5259 -0.4277
 2866TIP3    H2 8563   1.857   2.281   4.329  1.0761  0.1931 -0.6145
 2867TIP3   OH2 8564   3.537   4.726   2.051 -0.3265 -0.6804 -0.2350
 2867TIP3    H1 8565   3.521   4.819   2.069  1.1410 -0.2295 -1.0972
 2867TIP3    H2 8566   3.568   4.724   1.961  1.4574 -1.7810  0.3503
 2868TIP3   OH2 8567   5.723   2.431   2.187 -0.0304 -0.2275  0.0388
 2868TIP3    H1 8568   5.748   2.520   2.162 -1.7037 -0.1193 -1.5307
 2868TIP3    H2 8569   5.803   2.380   2.177  0.8993  1.0187  0.7032
 2869TIP3   OH2 8570   5.309   5.174   4.091  0.5075 -0.3258  0.4087
 2869TIP3    H1 8571   5.220   5.151   4.063  0.7903 -0.4653 -0.4085
 2869TIP3    H2 8572   5.307   5.269   4.100 -0.3377 -0.5088  2.6312
 2870TIP3   OH2 8573   1.962   1.616   5.565  0.1382 -0.1383 -0.7787
 2870TIP3    H1 8574   1.920   1.660   5.491  0.6904 -0.3087 -1.2053
 2870TIP3    H2 8575   2.052   1.602   5.536  0.8536  1.3181  0.5801
 2871TIP3   OH2 8576   5.927   2.327   5.283  0.6436 -0.1133 -0.2222
 2871TIP3    H1 8577   5.973   2.279   5.351  1.4034  2.3259  1.1066
 2871TIP3    H2 8578   5.914   2.263   5.213  0.9406 -2.3882  1.6686
 2872TIP3   OH2 8579   5.713   5.080   2.875 -0.1477  0.8443  0.0800
 2872TIP3    H1 8580   5.783   5.111   2.817 -1.7536  0.8072 -1.9931
 2872TIP3    H2 8581   5.681   5.159   2.918 -0.0819  1.1420 -0.4084
 2873TIP3   OH2 8582   5.374   1.283   2.071 -0.1266  0.9825 -0.3037
 2873TIP3    H1 8583   5.364   1.344   2.144  1.6140  2.4660 -1.2423
 2873TIP3    H2 8584   5.465   1.291   2.045  0.7352 -3.3408  0.5908
 2874TIP3   OH2 8585   6.840   6.020   3.675 -0.7686  1.0176  0.3734
 2874TIP3    H1 8586   6.819   5.928   3.687  0.4649  0.3861 -1.7714
 2874TIP3    H2 8587   6.845   6.055   3.764 -0.4786 -1.1583  1.2795
 2875TIP3   OH2 8588   6.542   0.519   5.026 -0.7437 -0.4949 -0.4845
 2875TIP3    H1 8589   6.499   0.601   5.004  1.0255  0.2295 -1.3996
 2875TIP3    H2 8590   6.547   0.519   5.121 -0.9393  0.3698 -0.4679
 2876TIP3   OH2 8591   4.702   2.185   2.603 -0.2115  0.1750  0.2232
 2876TIP3    H1 8592   4.722   2.249   2.534 -0.1413 -0.2098 -0.1128
 2876TIP3    H2 8593   4.784   2.140   2.619 -0.3793 -0.1834  0.0954
 2877TIP3   OH2 8594   6.306   3.311   0.158 -0.8383  0.6029 -0.9209
 2877TIP3    H1 8595   6.249   3.272   0.091  0.0704  0.5736 -1.7059
 2877TIP3    H2 8596   6.395   3.297   0.124 -0.2491 -0.7880  1.0399
 2878TIP3   OH2 8597   4.246   6.098   5.132  0.2749 -0.4526 -0.1746
 2878TIP3    H1 8598   4.162   6.140   5.114  0.4222  0.7879  1.7166
 2878TIP3    H2 8599   4.311   6.157   5.092  0.3174 -0.6479 -0.3940
 2879TIP3   OH2 8600   4.078   4.613   5.084 -0.0453  0.0342  0.4227
 2879TIP3    H1 8601   4.005   4.552   5.082  0.4268 -0.5487 -0.8894
 2879TIP3    H2 8602   4.062   4.669   5.160 -2.1601  0.3204 -0.1659
 2880TIP3   OH2 8603   4.304   2.186   5.191  0.3924 -0.0527 -0.1207
 2880TIP3    H1 8604   4.315   2.118   5.125  0.6679  0.7537 -0.9151
 2880TIP3    H2 8605   4.280   2.138   5.271 -1.2001 -0.9526 -1.0888
 2881TIP3   OH2 8606   4.025   2.546   4.991 -0.0131  0.1441 -0.0936
 2881TIP3    H1 8607   3.951   2.498   4.954 -0.8306  0.6593  0.8254
 2881TIP3    H2 8608   4.054   2.604   4.920  0.0694 -0.6765 -0.7386
 2882TIP3   OH2 8609   4.516   6.429   4.180  0.5077 -0.2416 -0.1851
 2882TIP3    H1 8610   4.439   6.373   4.191  0.3241 -0.4906 -2.3233
 2882TIP3    H2 8611   4.583   6.388   4.235 -0.8151 -0.0435  1.6958
 2883TIP3   OH2 8612   7.116   0.911   1.196 -0.3116 -0.0376  0.2142
 2883TIP3    H1 8613   7.103   0.845   1.264 -0.0603  1.2428  1.5489
 2883TIP3    H2 8614   7.051   0.978   1.216  0.8969  1.1591  0.2216
 2884TIP3   OH2 8615   3.472   2.883   4.691 -0.1987 -0.1981  0.0593
 2884TIP3    H1 8616   3.483   2.795   4.728  0.6951 -0.0895  0.0758
 2884TIP3    H2 8617   3.395   2.876   4.635 -0.6764 -0.7555  0.7639
 2885TIP3   OH2 8618   5.041   3.302   5.169 -0.3512  0.1970 -0.3982
 2885TIP3    H1 8619   5.086   3.369   5.220  0.3186  0.9460 -1.9059
 2885TIP3    H2 8620   5.029   3.341   5.083 -2.2631 -0.6805 -0.5923
 2886TIP3   OH2 8621   4.970   2.696   4.576  0.3656  0.1894 -0.6035
 2886TIP3    H1 8622   5.023   2.616   4.570 -2.4644 -1.7158 -3.4940
 2886TIP3    H2 8623   4.896   2.672   4.632  0.2860  1.3608 -0.1831
 2887TIP3   OH2 8624   2.284   0.534   1.350  0.5839 -0.1776  0.1315
 2887TIP3    H1 8625   2.332   0.528   1.433  0.4483  2.0664  0.4217
 2887TIP3    H2 8626   2.209   0.476   1.362  1.2707 -0.9121  1.0526
 2888TIP3   OH2 8627   0.372   0.661   0.257  0.6277 -0.6201 -0.1740
 2888TIP3    H1 8628   0.292   0.713   0.270  0.7655 -0.5674  0.4941
 2888TIP3    H2 8629   0.412   0.698   0.178 -0.1068 -0.7697 -0.6200
 2889TIP3   OH2 8630   0.509   0.966   0.398  0.4010  0.6442 -0.2400
 2889TIP3    H1 8631   0.541   0.881   0.430  0.5804  0.8355  0.0921
 2889TIP3    H2 8632   0.576   0.995   0.336  0.7675  0.9356  0.2809
 2890TIP3   OH2 8633   1.181   2.073   4.899  0.3658 -0.3426 -0.2535
 2890TIP3    H1 8634   1.229   2.086   4.817  0.6493  0.9032  0.0871
 2890TIP3    H2 8635   1.098   2.119   4.886  0.3487 -0.2676  0.0966
 2891TIP3   OH2 8636   7.189   2.206   2.230 -0.2748  0.4307  0.5056
 2891TIP3    H1 8637   7.102   2.239   2.253 -0.3810  0.6082 -0.1411
 2891TIP3    H2 8638   7.179   2.111   2.230 -0.7522  0.4665 -0.6253
 2892TIP3   OH2 8639   5.737   4.192   5.031  0.2903  0.1889  0.2749
 2892TIP3    H1 8640   5.815   4.239   4.999  0.7615 -0.0607  1.0260
 2892TIP3    H2 8641   5.772   4.131   5.096 -0.3711 -0.8845 -0.3611
 2893TIP3   OH2 8642   1.351   5.752   2.945  0.2678  0.2334 -0.5385
 2893TIP3    H1 8643   1.331   5.665   2.910  0.4096 -0.8014  1.7591
 2893TIP3    H2 8644   1.442   5.746   2.974  0.2099  1.0756 -0.1557
 2894TIP3   OH2 8645   6.861   5.311   2.908 -0.5713  0.5921  0.0404
 2894TIP3    H1 8646   6.819   5.307   2.822 -2.8253  0.0425  1.0890
 2894TIP3    H2 8647   6.868   5.404   2.927  0.6444  0.7450 -1.0237
 2895TIP3   OH2 8648   4.699   5.274   3.822  0.1234  0.2895  0.3917
 2895TIP3    H1 8649   4.711   5.190   3.778  0.2103  0.9937 -0.9892
 2895TIP3    H2 8650   4.783   5.318   3.812  0.0219  0.6125  0.9507
 2896TIP3   OH2 8651   5.516   2.725   4.369  0.1330 -0.2221 -0.6090
 2896TIP3    H1 8652   5.432   2.733   4.322  0.1396  0.1667 -0.5519
 2896TIP3    H2 8653   5.582   2.751   4.304  0.1768 -0.1222 -0.5244
 2897TIP3   OH2 8654   4.624   5.546   3.453 -0.2788  0.2238  0.1081
 2897TIP3    H1 8655   4.585   5.613   3.397 -0.5390  0.2378  0.3056
 2897TIP3    H2 8656   4.718   5.564   3.450 -0.4092  1.0716  0.7740
 2898TIP3   OH2 8657   3.786   0.651   1.956 -0.2869  0.3980  0.1312
 2898TIP3    H1 8658   3.859   0.656   2.017  0.5927  0.0196 -0.8462
 2898TIP3    H2 8659   3.826   0.657   1.869 -0.9499 -3.3035 -0.6140
 2899TIP3   OH2 8660   0.890   3.118   3.847  0.3021  0.3397 -0.1309
 2899TIP3    H1 8661   0.923   3.084   3.929  0.7131 -0.2845 -0.5486
 2899TIP3    H2 8662   0.797   3.134   3.864 -0.4753 -2.9880 -0.4749
 2900TIP3   OH2 8663   2.210   1.338   5.376  0.3426  0.5924 -0.5289
 2900TIP3    H1 8664   2.190   1.428   5.405 -0.1181  0.3858 -0.1897
 2900TIP3    H2 8665   2.166   1.330   5.292  1.5814  1.1538 -1.2552
 2901TIP3   OH2 8666   4.968   1.755   4.627 -0.1028  0.5602 -0.2264
 2901TIP3    H1 8667   5.048   1.713   4.596  1.0193 -0.6765  3.7592
 2901TIP3    H2 8668   4.997   1.838   4.664 -0.3181 -0.3997  2.3034
 2902TIP3   OH2 8669   5.208   2.249   4.461  0.0619 -0.3213 -0.0595
 2902TIP3    H1 8670   5.145   2.247   4.389  0.1019  1.6787 -0.2144
 2902TIP3    H2 8671   5.157   2.224   4.538 -0.1009 -1.9902 -0.6643
 2903TIP3   OH2 8672   5.728   5.245   1.847 -0.3131  0.5077  0.5222
 2903TIP3    H1 8673   5.817   5.223   1.875 -0.6759  0.7215  1.8859
 2903TIP3    H2 8674   5.671   5.189   1.898 -0.9534 -2.0062 -2.6026
 2904TIP3   OH2 8675   1.936   0.907   0.483 -0.1948  0.1216  0.0271
 2904TIP3    H1 8676   1.896   0.822   0.464 -0.9580 -0.0739  2.2079
 2904TIP3    H2 8677   1.971   0.898   0.572  0.4925  1.8233 -0.0297
 2905TIP3   OH2 8678   6.418   5.399   5.246  0.7731 -0.2856 -0.0360
 2905TIP3    H1 8679   6.444   5.381   5.156  1.5303  0.1955  0.0781
 2905TIP3    H2 8680   6.441   5.491   5.260  2.7760 -0.9358  1.3559
 2906TIP3   OH2 8681   5.934   0.091   4.602 -0.4124  0.6748  0.0055
 2906TIP3    H1 8682   5.951   0.017   4.543  0.9558 -0.6437  1.9040
 2906TIP3    H2 8683   5.990   0.161   4.570  2.4080 -0.8737  1.1198
 2907TIP3   OH2 8684   6.769   3.923   2.500  0.4615  0.1966  0.3419
 2907TIP3    H1 8685   6.861   3.910   2.476  0.2810 -0.3836 -0.0650
 2907TIP3    H2 8686   6.729   3.960   2.421 -0.1215 -1.6489 -0.2898
 2908TIP3   OH2 8687   6.398   2.568   2.838 -0.1969  0.3183 -0.5896
 2908TIP3    H1 8688   6.452   2.534   2.909 -0.0797  2.7951  0.6388
 2908TIP3    H2 8689   6.337   2.628   2.882 -0.9983  0.9308 -2.4426
 2909TIP3   OH2 8690   5.418   4.940   1.653  0.1997  0.5740 -0.8848
 2909TIP3    H1 8691   5.505   4.968   1.679 -0.2015  1.0753 -0.0290
 2909TIP3    H2 8692   5.394   4.871   1.715  0.9189 -1.2986 -2.5815
 2910TIP3   OH2 8693   3.473   1.560   4.526  0.3522  0.4873  0.0539
 2910TIP3    H1 8694   3.384   1.595   4.526 -0.0680 -0.4941  1.3051
 2910TIP3    H2 8695   3.492   1.542   4.618  1.5312 -0.0926 -0.2731
 2911TIP3   OH2 8696   3.605   0.193   2.570  0.1532  0.0558  0.2848
 2911TIP3    H1 8697   3.593   0.116   2.625  3.3331  0.2364  1.4631
 2911TIP3    H2 8698   3.684   0.175   2.520 -0.3970  1.5924 -1.2517
 2912TIP3   OH2 8699   6.629   2.891   2.268 -0.4518  0.6997 -0.0890
 2912TIP3    H1 8700   6.646   2.865   2.177  1.1622 -2.5450  1.0063
 2912TIP3    H2 8701   6.702   2.947   2.291 -0.5641  1.0659 -0.6083
 2913TIP3   OH2 8702   6.321   1.326   2.608  0.2450 -0.4154  0.1494
 2913TIP3    H1 8703   6.376   1.337   2.685  0.2243 -0.1302  0.1262
 2913TIP3    H2 8704   6.380   1.293   2.540  0.4397  0.1119  0.0575
 2914TIP3   OH2 8705   2.684   6.539   1.716  0.4873 -0.0324 -0.0103
 2914TIP3    H1 8706   2.719   6.506   1.633 -0.2602 -3.5494  0.8720
 2914TIP3    H2 8707   2.613   6.598   1.690  0.9958 -0.1651 -1.8627
 2915TIP3   OH2 8708   3.246   4.527   1.577  0.2343 -0.1179  0.6985
 2915TIP3    H1 8709   3.263   4.575   1.658 -0.6941  1.1134  0.2035
 2915TIP3    H2 8710   3.296   4.574   1.510 -2.0130  1.2997 -0.0989
 2916TIP3   OH2 8711   2.695   1.846   3.143 -0.0024 -0.4834  0.3065
 2916TIP3    H1 8712   2.740   1.763   3.131  0.4013 -0.1477 -0.6226
 2916TIP3    H2 8713   2.607   1.832   3.107  0.7013  0.0534 -1.7387
 2917TIP3   OH2 8714   5.792   5.034   3.288  0.1748 -0.7041 -0.4270
 2917TIP3    H1 8715   5.739   4.976   3.343  0.6215 -1.8766 -1.1954
 2917TIP3    H2 8716   5.849   5.080   3.349 -0.3076 -0.9388  0.2145
 2918TIP3   OH2 8717   5.594   4.218   2.907 -0.3324 -0.4091 -0.0747
 2918TIP3    H1 8718   5.623   4.213   2.816  0.0252  0.9540 -0.0572
 2918TIP3    H2 8719   5.637   4.145   2.950  2.8075  1.2370 -0.1423
 2919TIP3   OH2 8720   5.350   0.010   2.409 -0.2031  0.1086 -0.1367
 2919TIP3    H1 8721   5.289  -0.043   2.357  0.0226 -0.2659 -0.0286
 2919TIP3    H2 8722   5.309   0.096   2.414  0.1409  0.3811 -1.5969
 2920TIP3   OH2 8723   5.805   1.374   0.092 -0.1637 -0.1394 -0.0367
 2920TIP3    H1 8724   5.805   1.378  -0.004 -1.4211 -0.7307 -0.0790
 2920TIP3    H2 8725   5.716   1.399   0.117 -0.6016 -2.3419  0.8332
 2921TIP3   OH2 8726   0.156   2.973   0.016 -0.3951 -0.1341  0.4213
 2921TIP3    H1 8727   0.179   3.021   0.095  0.4052 -1.1312  0.8190
 2921TIP3    H2 8728   0.229   2.913   0.002  0.3689  1.2434 -2.1117
 2922TIP3   OH2 8729   4.944   4.750   0.829  0.4183  0.1329 -0.1877
 2922TIP3    H1 8730   4.859   4.784   0.859 -0.5624 -2.1113 -0.2302
 2922TIP3    H2 8731   4.983   4.822   0.780 -2.0538  0.8091 -1.2940
 2923TIP3   OH2 8732   4.119   2.365   1.150  0.2932 -0.2154  0.0597
 2923TIP3    H1 8733   4.133   2.338   1.241  2.1507  0.2000 -0.0504
 2923TIP3    H2 8734   4.137   2.460   1.150 -1.1962  0.0857 -0.4712
 2924TIP3   OH2 8735   1.964   1.723   0.504  0.2912 -0.0665 -0.2259
 2924TIP3    H1 8736   2.052   1.691   0.523 -0.2162 -1.0437  0.5550
 2924TIP3    H2 8737   1.945   1.785   0.575 -0.2141 -1.0070  0.4924
 2925TIP3   OH2 8738   3.461   5.711   5.491 -0.3940  0.3113 -0.0915
 2925TIP3    H1 8739   3.447   5.662   5.410  1.3745  1.0692 -0.9041
 2925TIP3    H2 8740   3.407   5.790   5.481 -1.0666 -0.1311 -0.0098
 2926TIP3   OH2 8741   2.627   3.132   5.141 -0.1003  0.5961 -0.5590
 2926TIP3    H1 8742   2.533   3.132   5.159 -0.5918 -0.5922 -2.7965
 2926TIP3    H2 8743   2.654   3.041   5.150  0.0984  0.3311 -3.0768
 2927TIP3   OH2 8744   1.075   6.177   1.678 -0.2973 -0.2654 -0.0772
 2927TIP3    H1 8745   1.148   6.115   1.674  0.5076  0.3407  3.0904
 2927TIP3    H2 8746   1.018   6.142   1.746  0.1715  2.3879  1.8116
 2928TIP3   OH2 8747   4.471   4.234   1.952  0.2399  0.0838  0.1670
 2928TIP3    H1 8748   4.399   4.185   1.992 -0.7024  0.3898 -1.0829
 2928TIP3    H2 8749   4.546   4.215   2.007 -0.4716 -1.4053  0.6937
 2929TIP3   OH2 8750   2.051   2.466   3.927  0.1793  0.0358  0.1841
 2929TIP3    H1 8751   2.136   2.424   3.912 -0.0922 -0.8563  1.0281
 2929TIP3    H2 8752   1.999   2.400   3.973 -1.2109  0.3292 -0.8812
 2930TIP3   OH2 8753   3.327   1.061   4.302 -0.3357 -0.0711 -0.0655
 2930TIP3    H1 8754   3.393   1.129   4.289 -1.1992  0.6948 -0.6370
 2930TIP3    H2 8755   3.328   1.045   4.397 -0.1929  0.8272  0.0962
 2931TIP3   OH2 8756   3.450   0.031   1.656 -0.2638 -0.2808 -0.5881
 2931TIP3    H1 8757   3.496  -0.015   1.586 -1.4728 -3.5588  0.5421
 2931TIP3    H2 8758   3.498   0.007   1.735 -1.1724  0.1395  0.1041
 2932TIP3   OH2 8759   1.240   3.840   4.647 -0.0475 -0.2316 -0.5818
 2932TIP3    H1 8760   1.235   3.920   4.699  1.4370 -0.8255  0.5523
 2932TIP3    H2 8761   1.174   3.852   4.579 -3.3541 -0.0927  2.3158
 2933TIP3   OH2 8762   2.638   3.928   4.970  0.5994 -0.2130 -0.4083
 2933TIP3    H1 8763   2.691   4.006   4.954 -0.2888  0.4197 -0.3359
 2933TIP3    H2 8764   2.563   3.960   5.020  0.9272 -1.3479  0.8802
 2934TIP3   OH2 8765   2.230   0.696   1.045  0.1606 -0.3400  0.0071
 2934TIP3    H1 8766   2.303   0.725   1.100 -0.0109 -0.3271  0.2320
 2934TIP3    H2 8767   2.159   0.679   1.107 -0.2617  0.3546 -0.2797
 2935TIP3   OH2 8768   5.682   1.123   2.046 -0.6227 -0.5745  0.1212
 2935TIP3    H1 8769   5.644   1.200   2.005 -0.8905 -1.8725 -2.2500
 2935TIP3    H2 8770   5.681   1.143   2.140 -1.9864  1.6830 -0.2919
 2936TIP3   OH2 8771   6.929   6.296   4.985 -0.2105  0.1066  0.4047
 2936TIP3    H1 8772   6.994   6.353   4.943  0.4297  0.4157  1.7473
 2936TIP3    H2 8773   6.850   6.308   4.933  0.3033  1.1627 -0.1742
 2937TIP3   OH2 8774   0.516   4.456   3.836 -0.0088  0.0829 -0.2913
 2937TIP3    H1 8775   0.469   4.406   3.771  0.5926  0.7338 -1.2546
 2937TIP3    H2 8776   0.598   4.408   3.849 -0.4095 -0.4174  0.5211
 2938TIP3   OH2 8777   1.533   0.299   5.677 -0.0355  0.4666 -0.0748
 2938TIP3    H1 8778   1.456   0.353   5.698  0.9094  2.0965 -0.6958
 2938TIP3    H2 8779   1.607   0.351   5.707  0.9158 -0.4888 -0.7358
 2939TIP3   OH2 8780   4.423   6.215   2.927 -0.3934  0.0290 -0.4619
 2939TIP3    H1 8781   4.345   6.193   2.876 -0.8649 -2.3675  1.1019
 2939TIP3    H2 8782   4.496   6.199   2.866 -0.9664 -2.0168 -0.6949
 2940TIP3   OH2 8783   6.214   6.140   1.403 -0.3169 -0.4512  0.4433
 2940TIP3    H1 8784   6.302   6.177   1.409 -0.2333 -0.4958 -0.3694
 2940TIP3    H2 8785   6.175   6.185   1.329 -0.8104 -0.7813  0.5033
 2941TIP3   OH2 8786   0.075   5.468   2.964  0.0456  0.3782  0.2662
 2941TIP3    H1 8787   0.085   5.542   2.905 -0.5484 -0.2904 -0.7193
 2941TIP3    H2 8788  -0.008   5.484   3.009  0.8303  1.2363  1.4799
 2942TIP3   OH2 8789   1.804   5.896   1.554 -0.1403 -0.2170  0.0193
 2942TIP3    H1 8790   1.768   5.888   1.642 -0.4944  3.9057  0.4517
 2942TIP3    H2 8791   1.896   5.919   1.567 -0.1680  0.3120 -0.6513
 2943TIP3   OH2 8792   1.777   4.951   3.862 -0.2949 -0.3955 -0.3159
 2943TIP3    H1 8793   1.722   5.020   3.900 -0.1826 -0.6024  0.2324
 2943TIP3    H2 8794   1.863   4.964   3.902 -0.2107 -0.6997 -0.3961
 2944TIP3   OH2 8795   6.675   0.814   5.081 -0.2959 -0.3957  0.1762
 2944TIP3    H1 8796   6.603   0.853   5.032 -0.1424  0.4294  0.5849
 2944TIP3    H2 8797   6.736   0.886   5.095  0.6954 -1.1091 -0.3028
 2945TIP3   OH2 8798   5.596   2.518   2.595  0.8750  0.2728 -0.3610
 2945TIP3    H1 8799   5.614   2.444   2.537  0.2373  0.1513 -0.4166
 2945TIP3    H2 8800   5.564   2.478   2.676 -0.2913  0.4979 -0.6868
 2946TIP3   OH2 8801   4.530   1.960   4.875 -0.1248 -0.5602 -0.0947
 2946TIP3    H1 8802   4.616   2.000   4.866 -0.1968 -0.3623  0.0806
 2946TIP3    H2 8803   4.547   1.866   4.877  0.2277 -0.4814  1.3861
 2947TIP3   OH2 8804   3.016   2.014   1.678 -0.1999 -0.0399  0.2754
 2947TIP3    H1 8805   2.929   2.049   1.659 -0.1395  0.1599  0.3713
 2947TIP3    H2 8806   3.004   1.958   1.755  0.2940  2.3280  2.1733
 2948TIP3   OH2 8807   5.590   0.702   4.222  0.0357  0.2630  0.6125
 2948TIP3    H1 8808   5.608   0.773   4.160 -2.1198  1.2557  1.0135
 2948TIP3    H2 8809   5.676   0.664   4.240  1.2690  2.5838  0.1567
 2949TIP3   OH2 8810   6.868   1.078   2.206 -0.3378 -0.1805 -0.0573
 2949TIP3    H1 8811   6.917   1.018   2.261 -1.0934 -0.9481 -0.2069
 2949TIP3    H2 8812   6.818   1.022   2.147 -0.4941  0.6059 -0.6986
 2950TIP3   OH2 8813   1.656   0.825   1.137  0.1721  0.1460  0.5855
 2950TIP3    H1 8814   1.573   0.779   1.131  0.6301 -0.8641  1.4857
 2950TIP3    H2 8815   1.676   0.826   1.231  0.1421  2.3072  0.6235
 2951TIP3   OH2 8816   3.667   0.719   5.739  0.8846 -0.4484 -0.2776
 2951TIP3    H1 8817   3.600   0.663   5.779  0.3919  0.6410  0.4559
 2951TIP3    H2 8818   3.702   0.771   5.811  1.2631  0.2627 -0.9572
 2952TIP3   OH2 8819   0.596   0.366   3.929  0.0106 -0.0534  0.1093
 2952TIP3    H1 8820   0.585   0.380   4.023  1.1700  1.3968  0.0668
 2952TIP3    H2 8821   0.520   0.407   3.888  0.7951  1.6730  0.3014
 2953TIP3   OH2 8822   6.174   5.564   1.737 -0.4055  0.6699 -0.2239
 2953TIP3    H1 8823   6.199   5.473   1.718 -0.8179  0.6476 -0.6627
 2953TIP3    H2 8824   6.094   5.556   1.789 -0.4306  0.7832 -0.2457
 2954TIP3   OH2 8825   4.382   3.852   4.077 -0.2747 -0.1751  0.6257
 2954TIP3    H1 8826   4.300   3.902   4.074  0.4710  1.0666 -0.9948
 2954TIP3    H2 8827   4.415   3.864   4.166 -0.1581  2.2688  0.3171
 2955TIP3   OH2 8828   1.519   2.277   4.326  0.2584  0.0676 -0.4480
 2955TIP3    H1 8829   1.507   2.264   4.232  0.6987 -1.5634 -0.3136
 2955TIP3    H2 8830   1.599   2.329   4.333  0.0669  0.4391 -0.9816
 2956TIP3   OH2 8831   3.924   4.631   3.996 -0.3971  0.6244  0.0465
 2956TIP3    H1 8832   3.995   4.694   4.008  1.2233 -0.8317 -1.3969
 2956TIP3    H2 8833   3.923   4.579   4.077  0.5657  0.3014 -0.1427
 2957TIP3   OH2 8834   5.350   1.611   0.638 -0.0808 -0.3736  0.0910
 2957TIP3    H1 8835   5.280   1.676   0.650  0.2401 -0.0442  0.1798
 2957TIP3    H2 8836   5.344   1.554   0.715 -0.6138 -0.6921 -0.1765
 2958TIP3   OH2 8837   3.427   5.028   2.374  0.1093  0.5638 -0.4335
 2958TIP3    H1 8838   3.492   5.047   2.307  0.1230 -1.8291 -1.1842
 2958TIP3    H2 8839   3.352   4.993   2.326 -0.6497  0.6200  0.6695
 2959TIP3   OH2 8840   3.905   4.383   2.183 -0.5065  0.2117 -0.0839
 2959TIP3    H1 8841   4.001   4.386   2.180 -0.4541 -0.8484  0.0420
 2959TIP3    H2 8842   3.878   4.411   2.096  0.0029 -1.4303 -0.8134
 2960TIP3   OH2 8843   2.073   1.797   4.790  0.4477  0.1065 -0.7245
 2960TIP3    H1 8844   2.006   1.803   4.721 -0.4109  1.6504  0.1899
 2960TIP3    H2 8845   2.080   1.703   4.808 -2.4902 -0.0650  0.0736
 2961TIP3   OH2 8846   1.865   2.218   1.131  0.0349 -0.0864 -0.1949
 2961TIP3    H1 8847   1.913   2.138   1.152 -0.4602 -0.2453  0.3533
 2961TIP3    H2 8848   1.798   2.225   1.199  1.5927  2.1063  1.2741
 2962TIP3   OH2 8849   1.787   6.726   0.996  0.4611 -0.1202 -0.3685
 2962TIP3    H1 8850   1.803   6.727   1.090 -0.3536  0.5426 -0.2345
 2962TIP3    H2 8851   1.798   6.817   0.969 -1.1216  0.0275 -0.5947
 2963TIP3   OH2 8852   0.498   3.345   4.744  0.8862  0.0126  0.6984
 2963TIP3    H1 8853   0.494   3.382   4.656 -0.0383  0.0108  0.7209
 2963TIP3    H2 8854   0.445   3.404   4.797  0.0750 -0.8651  0.9020
 2964TIP3   OH2 8855   3.077   3.876   5.316  0.3017 -0.3258 -0.2860
 2964TIP3    H1 8856   2.995   3.903   5.275  0.5957 -0.0239 -0.6827
 2964TIP3    H2 8857   3.112   3.956   5.354 -0.7797 -0.8616  2.0669
 2965TIP3   OH2 8858   2.162   4.546   1.983 -0.1451 -0.4493 -0.4684
 2965TIP3    H1 8859   2.117   4.467   1.953 -0.0373 -0.8696  0.4141
 2965TIP3    H2 8860   2.183   4.527   2.075 -1.6790  1.2968  0.3103
 2966TIP3   OH2 8861   1.711   4.535   0.881  0.0859 -0.1317  0.2936
 2966TIP3    H1 8862   1.630   4.487   0.895 -1.7924  2.2452 -1.5052
 2966TIP3    H2 8863   1.723   4.586   0.961 -1.4423  1.0826 -0.2058
 2967TIP3   OH2 8864   6.206   3.133   1.890 -0.0153 -0.0194 -0.0610
 2967TIP3    H1 8865   6.170   3.221   1.887  0.6494  0.2306 -1.3022
 2967TIP3    H2 8866   6.131   3.076   1.872 -0.2732  0.3521 -0.1758
 2968TIP3   OH2 8867   2.341   4.843   3.017 -0.6203  0.2202  0.3263
 2968TIP3    H1 8868   2.343   4.862   3.111 -1.8740 -1.3976  0.7245
 2968TIP3    H2 8869   2.313   4.926   2.976 -0.4131  0.8351  1.3968
 2969TIP3   OH2 8870   5.701   5.697   5.090  0.4842  0.3898 -0.4035
 2969TIP3    H1 8871   5.670   5.686   5.000  0.5006 -2.1904 -0.1700
 2969TIP3    H2 8872   5.780   5.643   5.096  0.3361  0.2882  1.2199
 2970TIP3   OH2 8873   3.070   3.777   3.269  0.0794  0.2448  0.6609
 2970TIP3    H1 8874   3.000   3.721   3.300 -1.1620  1.4453  0.1136
 2970TIP3    H2 8875   3.034   3.822   3.192  1.5131  0.7376  0.2235
 2971TIP3   OH2 8876   0.090   2.245   1.332  0.4215 -0.6316  0.5103
 2971TIP3    H1 8877   0.030   2.171   1.321  0.3280 -0.2423 -2.5394
 2971TIP3    H2 8878   0.099   2.281   1.244  1.8336  1.9469  1.6186
 2972TIP3   OH2 8879   6.475   4.339   4.462  0.2144  0.5410 -1.0926
 2972TIP3    H1 8880   6.454   4.296   4.379  1.1372 -0.5774 -0.7745
 2972TIP3    H2 8881   6.412   4.410   4.469 -2.3341 -1.6001 -0.9624
 2973TIP3   OH2 8882   5.746   0.359   0.221 -0.9400  0.1546  0.0977
 2973TIP3    H1 8883   5.830   0.355   0.268 -0.4773 -0.3222 -0.7566
 2973TIP3    H2 8884   5.770   0.353   0.129 -1.8721  0.7000 -0.1908
 2974TIP3   OH2 8885   1.998   1.388   4.876  0.1999 -0.0439  0.0923
 2974TIP3    H1 8886   2.029   1.413   4.789 -1.4399  0.2564 -0.4430
 2974TIP3    H2 8887   2.037   1.453   4.935 -0.0598  0.8129 -0.6553
 2975TIP3   OH2 8888   1.785   5.077   1.769  0.1273 -0.2803 -0.4228
 2975TIP3    H1 8889   1.751   4.988   1.760 -1.1468  0.2155 -0.6489
 2975TIP3    H2 8890   1.714   5.127   1.810  0.9590  0.5566  0.0407
 2976TIP3   OH2 8891   0.202   5.440   4.231  0.0072 -0.2127 -0.4956
 2976TIP3    H1 8892   0.275   5.378   4.228 -0.2642 -0.8202  2.6078
 2976TIP3    H2 8893   0.239   5.519   4.270 -0.9432 -0.6146  1.3596
 2977TIP3   OH2 8894   6.883   2.623   2.753 -0.7473  0.0920  0.5705
 2977TIP3    H1 8895   6.794   2.590   2.755 -0.7835 -0.0488 -1.3276
 2977TIP3    H2 8896   6.903   2.645   2.844 -2.2693 -1.0138  1.2084
 2978TIP3   OH2 8897   0.155   1.732   3.532  0.4503 -0.3644 -0.2984
 2978TIP3    H1 8898   0.084   1.785   3.496  0.1686 -0.6453 -0.1634
 2978TIP3    H2 8899   0.111   1.667   3.586  0.7887 -0.7517 -0.4809
 2979TIP3   OH2 8900   1.511   0.334   0.782  0.0204 -0.2954  0.3685
 2979TIP3    H1 8901   1.511   0.382   0.865  0.3825 -0.7573  0.6414
 2979TIP3    H2 8902   1.527   0.243   0.807  0.6024 -0.3675 -0.2499
 2980TIP3   OH2 8903   0.079   6.229   4.721  0.2142  0.6326  0.2720
 2980TIP3    H1 8904   0.115   6.200   4.805 -0.0930  0.5869  0.3897
 2980TIP3    H2 8905   0.098   6.322   4.717 -0.3827  0.7762  0.7082
 2981TIP3   OH2 8906   6.580   6.263   3.419 -0.2183 -0.4629 -0.4629
 2981TIP3    H1 8907   6.674   6.264   3.405 -0.3245 -0.3124 -1.2287
 2981TIP3    H2 8908   6.564   6.184   3.471  0.3382 -0.4449 -0.2635
 2982TIP3   OH2 8909   3.815   2.497   4.799 -0.2814  0.0253 -0.3630
 2982TIP3    H1 8910   3.747   2.444   4.757  0.3030 -0.2844 -0.9515
 2982TIP3    H2 8911   3.885   2.501   4.734 -0.2455  1.4084 -0.2677
 2983TIP3   OH2 8912   2.971   1.667   1.739  0.6566 -0.0139 -0.0983
 2983TIP3    H1 8913   2.994   1.657   1.647 -0.7240 -2.2408 -0.2820
 2983TIP3    H2 8914   2.876   1.680   1.739  0.2312 -2.5824  1.0438
 2984TIP3   OH2 8915   2.117   0.529   3.444 -0.5901  0.4748  0.1437
 2984TIP3    H1 8916   2.203   0.522   3.402 -0.9257  0.5956 -0.5773
 2984TIP3    H2 8917   2.094   0.621   3.436 -1.8148  0.0595 -1.7903
 2985TIP3   OH2 8918   6.946   4.555   4.145  0.0852  0.5059  0.3977
 2985TIP3    H1 8919   6.879   4.594   4.089  0.2904 -0.2482 -0.3842
 2985TIP3    H2 8920   7.013   4.524   4.085  0.5364  0.1033  1.0917
 2986TIP3   OH2 8921   2.221   2.986   1.697  0.0039 -0.0561  0.2063
 2986TIP3    H1 8922   2.237   2.968   1.604 -1.7246 -1.9440  0.2008
 2986TIP3    H2 8923   2.133   3.024   1.700  1.1376  2.7350  0.8818
 2987TIP3   OH2 8924   7.111   6.187   3.806 -0.0056  0.3479  0.0778
 2987TIP3    H1 8925   7.108   6.117   3.740  1.8596  0.8703 -0.6317
 2987TIP3    H2 8926   7.094   6.142   3.889  2.6994 -1.3396 -0.1389
 2988TIP3   OH2 8927   0.214   6.715   4.664 -0.3635  0.4903 -0.8227
 2988TIP3    H1 8928   0.198   6.809   4.656  0.4248  0.6662 -0.3195
 2988TIP3    H2 8929   0.289   6.707   4.722 -0.7418 -0.4757 -0.4389
 2989TIP3   OH2 8930   1.295   2.332   5.792  0.6525 -0.9922 -0.2865
 2989TIP3    H1 8931   1.328   2.296   5.875 -2.8117 -0.7178  1.3939
 2989TIP3    H2 8932   1.306   2.426   5.801  0.2840 -0.9631 -0.1485
 2990TIP3   OH2 8933   6.011   0.270   1.918  0.1846 -0.1694 -0.0605
 2990TIP3    H1 8934   6.089   0.223   1.887  1.2230  1.0512  0.5906
 2990TIP3    H2 8935   5.939   0.209   1.905  0.9618 -0.6985 -2.3398
 2991TIP3   OH2 8936   3.925   3.155   5.881 -0.0258 -0.2064 -0.1286
 2991TIP3    H1 8937   3.876   3.136   5.800 -0.1534  1.4195 -0.4772
 2991TIP3    H2 8938   3.974   3.075   5.899 -0.6743 -0.9053 -1.3378
 2992TIP3   OH2 8939   4.849   0.721   0.904 -0.4813 -0.2299 -0.5490
 2992TIP3    H1 8940   4.821   0.766   0.983 -0.5539 -1.0905 -0.0696
 2992TIP3    H2 8941   4.945   0.728   0.904 -0.4777 -0.2897 -0.3441
 2993TIP3   OH2 8942   3.229   0.607   2.656  0.3942 -0.4732  0.1394
 2993TIP3    H1 8943   3.216   0.537   2.720 -2.4715 -2.4912 -2.3392
 2993TIP3    H2 8944   3.250   0.561   2.575 -0.4792  1.6269 -1.3441
 2994TIP3   OH2 8945   5.676   4.790   5.295  0.3451 -0.3405  0.0709
 2994TIP3    H1 8946   5.686   4.732   5.219  0.3573 -1.2342  0.7354
 2994TIP3    H2 8947   5.617   4.742   5.354  0.4974  0.2450  0.7157
 2995TIP3   OH2 8948   6.340   2.206   5.412 -0.0675 -0.3990  0.4944
 2995TIP3    H1 8949   6.366   2.259   5.336 -0.3242 -0.2424  0.5161
 2995TIP3    H2 8950   6.378   2.252   5.487  1.5978 -1.4351  0.3335
 2996TIP3   OH2 8951   4.086   3.583   5.110 -0.1989  0.2498  0.2621
 2996TIP3    H1 8952   4.045   3.554   5.191  0.2577  1.3354  0.9020
 2996TIP3    H2 8953   4.047   3.527   5.042 -0.4200 -0.8245  1.2418
 2997TIP3   OH2 8954   7.176   5.798   3.925 -0.1367 -0.8516 -0.5344
 2997TIP3    H1 8955   7.241   5.744   3.881  2.5696 -0.6923  2.8616
 2997TIP3    H2 8956   7.143   5.743   3.996  1.6576  1.2560  2.1435
 2998TIP3   OH2 8957   2.280   2.838   0.404 -0.3632 -0.4567 -0.6303
 2998TIP3    H1 8958   2.358   2.859   0.352  0.4328  0.9645  1.0324
 2998TIP3    H2 8959   2.291   2.889   0.484 -1.9242 -1.9843  0.6134
 2999TIP3   OH2 8960   0.671   5.542   3.363 -0.1421  0.2097 -0.3382
 2999TIP3    H1 8961   0.753   5.569   3.321 -0.7937  1.9333 -0.5922
 2999TIP3    H2 8962   0.690   5.456   3.400  1.9112  0.7401 -0.0244
 3000TIP3   OH2 8963   4.385   4.286   5.840 -0.0845  0.1905  0.2207
 3000TIP3    H1 8964   4.390   4.228   5.916 -0.3204  0.6049  0.5582
 3000TIP3    H2 8965   4.467   4.271   5.792 -0.3261 -0.7201  0.0804
 3001TIP3   OH2 8966   6.984   0.929   2.414 -0.3542  0.1728 -0.2905
 3001TIP3    H1 8967   6.974   0.873   2.491 -1.6365  0.8557  0.0695
 3001TIP3    H2 8968   7.068   0.972   2.426 -0.7327  0.5999  0.9564
 3002TIP3   OH2 8969   2.039   0.710   0.662 -0.3761  0.8762  0.5027
 3002TIP3    H1 8970   2.077   0.623   0.653 -0.1692  1.1183 -1.1442
 3002TIP3    H2 8971   1.959   0.696   0.712  0.7280  0.0625  2.1375
 3003TIP3   OH2 8972   4.663   5.528   0.297 -0.1382 -0.2784 -0.3222
 3003TIP3    H1 8973   4.663   5.622   0.317 -1.6136 -0.2209 -0.4744
 3003TIP3    H2 8974   4.731   5.518   0.231  0.1771  0.6455 -0.1595
 3004TIP3   OH2 8975   1.672   3.022   3.734 -0.2879  0.2972  0.0887
 3004TIP3    H1 8976   1.743   3.066   3.689  0.3736 -0.3568  0.4688
 3004TIP3    H2 8977   1.689   3.037   3.827 -0.6333  0.1180  0.1845
 3005TIP3   OH2 8978   2.338   1.001   5.609  0.0693  0.3683  0.0872
 3005TIP3    H1 8979   2.330   1.086   5.652  3.8560  1.4258 -0.9543
 3005TIP3    H2 8980   2.312   1.017   5.519  1.0225  0.5205 -0.1695
 3006TIP3   OH2 8981   3.639   5.360   0.952 -0.0492  0.2006 -0.2269
 3006TIP3    H1 8982   3.546   5.357   0.932 -0.0581  0.8651 -0.2983
 3006TIP3    H2 8983   3.679   5.403   0.876  0.7167 -2.6227 -1.5601
 3007TIP3   OH2 8984   2.225   3.533   1.126 -0.0189 -0.0631  0.2895
 3007TIP3    H1 8985   2.203   3.441   1.112  0.7426 -0.1510 -0.4001
 3007TIP3    H2 8986   2.317   3.531   1.153  0.3968  0.5756 -1.0083
 3008TIP3   OH2 8987   5.594   0.276   5.478  0.0600 -0.2912  0.1034
 3008TIP3    H1 8988   5.508   0.318   5.483 -1.1330 -2.4594 -0.9979
 3008TIP3    H2 8989   5.625   0.297   5.390  1.0134  1.0270  0.7169
 3009TIP3   OH2 8990   5.447   4.029   0.246 -0.0739  0.6413 -0.8194
 3009TIP3    H1 8991   5.407   4.112   0.269  0.5206  1.3322 -2.2006
 3009TIP3    H2 8992   5.478   4.040   0.156 -1.4074 -1.5921 -1.6437
 3010TIP3   OH2 8993   4.819   0.725   1.549 -0.3934  0.2448  0.3095
 3010TIP3    H1 8994   4.873   0.798   1.579  0.9624 -0.4801 -0.2860
 3010TIP3    H2 8995   4.881   0.662   1.513 -1.6248 -0.7184 -0.2167
 3011TIP3   OH2 8996   5.442   0.722   5.421 -0.4699  0.2211 -0.4816
 3011TIP3    H1 8997   5.350   0.721   5.393  0.0612 -1.8877 -2.4277
 3011TIP3    H2 8998   5.491   0.737   5.341  0.9242  1.0075  0.4913
 3012TIP3   OH2 8999   6.533   6.472   0.370  0.3432  0.0065  0.1734
 3012TIP3    H1 9000   6.562   6.455   0.280  0.3859  0.5254  0.0885
 3012TIP3    H2 9001   6.603   6.523   0.409 -0.2665  0.9364  0.0880
 3013TIP3   OH2 9002   2.930   3.993   1.407  0.4656 -0.0566  0.0649
 3013TIP3    H1 9003   2.848   3.958   1.442 -0.5713  1.7227 -0.4715
 3013TIP3    H2 9004   2.954   3.932   1.337 -0.0278 -0.9540  0.6635
 3014TIP3   OH2 9005   6.146   5.464   4.657 -0.2694 -0.2966  0.2952
 3014TIP3    H1 9006   6.129   5.376   4.689 -0.2859 -0.7994 -1.0378
 3014TIP3    H2 9007   6.098   5.469   4.574  0.9944  0.4326 -0.4190
 3015TIP3   OH2 9008   1.937   0.223   3.833  0.0536  0.1903 -0.0354
 3015TIP3    H1 9009   1.900   0.186   3.753  0.1180 -1.4656  0.6497
 3015TIP3    H2 9010   1.860   0.244   3.887  0.0233 -0.3925  0.1644
 3016TIP3   OH2 9011   1.523   3.014  -0.005  0.4411  0.0991  0.2740
 3016TIP3    H1 9012   1.569   3.061   0.065  1.1398  0.2451 -0.2709
 3016TIP3    H2 9013   1.561   2.926  -0.002 -1.6176 -0.8209  2.0008
 3017TIP3   OH2 9014   4.474   0.995   3.995 -1.5179 -0.2487  0.1537
 3017TIP3    H1 9015   4.456   1.089   4.002 -1.0666 -0.0544 -1.0710
 3017TIP3    H2 9016   4.417   0.955   4.060 -0.9280  0.9559  1.4801
 3018TIP3   OH2 9017   5.118   5.249   4.398  0.5514  0.3148 -0.7934
 3018TIP3    H1 9018   5.108   5.277   4.308 -2.1908 -1.3156 -1.1317
 3018TIP3    H2 9019   5.132   5.155   4.393  0.7635  0.2518  0.4781
 3019TIP3   OH2 9020   7.118   5.121   1.836  0.5814 -0.3126  0.2339
 3019TIP3    H1 9021   7.180   5.186   1.802 -0.6454  0.6964 -0.1682
 3019TIP3    H2 9022   7.159   5.037   1.817  2.3244  0.3178  0.9627
 3020TIP3   OH2 9023   3.547   0.759   5.131  0.1180 -0.4524  0.0448
 3020TIP3    H1 9024   3.461   0.788   5.100  0.0017 -0.8980 -0.0617
 3020TIP3    H2 9025   3.577   0.829   5.189  0.3804  0.4483 -1.1325
 3021TIP3   OH2 9026   4.692   0.282   2.219  0.0384  0.1736  0.3718
 3021TIP3    H1 9027   4.728   0.259   2.304  0.8492  1.1464  0.3084
 3021TIP3    H2 9028   4.598   0.292   2.234  0.2980  1.3053  1.3856
 3022TIP3   OH2 9029   2.314   1.971   4.834  0.2025 -0.4512 -0.1228
 3022TIP3    H1 9030   2.319   2.035   4.763 -1.0290 -1.5806 -1.2812
 3022TIP3    H2 9031   2.250   1.907   4.804 -0.1003 -1.1522  1.8843
 3023TIP3   OH2 9032   0.108   5.743   2.607  0.2846 -0.0509 -0.2978
 3023TIP3    H1 9033   0.049   5.668   2.610 -1.6271  1.3678 -0.7087
 3023TIP3    H2 9034   0.065   5.806   2.550  1.2050  1.8800  1.0202
 3024TIP3   OH2 9035   3.379   1.298   0.193  0.3252  0.5233 -0.7901
 3024TIP3    H1 9036   3.392   1.355   0.117  0.1354  1.0012 -0.4678
 3024TIP3    H2 9037   3.464   1.256   0.205  1.0057  2.0385  0.0117
 3025TIP3   OH2 9038   6.119   6.102   2.734 -0.5465 -0.3090  0.3467
 3025TIP3    H1 9039   6.209   6.124   2.711 -0.6123 -0.2952  0.1013
 3025TIP3    H2 9040   6.073   6.098   2.650 -0.4398 -1.7987  0.3313
 3026TIP3   OH2 9041   4.031   4.898   1.472  0.3402 -0.2108 -0.0724
 3026TIP3    H1 9042   3.939   4.924   1.468  0.3741 -0.2750 -1.8449
 3026TIP3    H2 9043   4.030   4.805   1.449  0.6742 -0.7856  1.9889
 3027TIP3   OH2 9044   2.018   1.338   3.475 -0.3491  0.2989  0.2819
 3027TIP3    H1 9045   2.097   1.382   3.443 -0.3539  1.3034  1.5803
 3027TIP3    H2 9046   1.956   1.343   3.402  0.4988  0.2087 -0.4629
 3028TIP3   OH2 9047   1.251   6.620   0.776 -0.2861  0.3395 -0.0027
 3028TIP3    H1 9048   1.171   6.655   0.816 -1.2694 -1.8775  0.1542
 3028TIP3    H2 9049   1.226   6.600   0.686  0.1164 -0.2394  0.0057
 3029TIP3   OH2 9050   5.046   1.808   2.834  0.1991 -0.2241  0.3404
 3029TIP3    H1 9051   5.141   1.792   2.835  0.2625  0.1467  0.6803
 3029TIP3    H2 9052   5.021   1.808   2.926  0.1006  0.9974  0.3303
 3030TIP3   OH2 9053   6.420   0.553   4.506  0.2966 -0.2016  0.5561
 3030TIP3    H1 9054   6.383   0.494   4.441  1.0913 -1.7123  1.4276
 3030TIP3    H2 9055   6.398   0.641   4.474 -0.8903 -0.9495 -0.7828
 3031TIP3   OH2 9056   0.351   4.400   0.645  0.4012  0.1565  0.3914
 3031TIP3    H1 9057   0.291   4.328   0.624 -0.9641  1.6368 -0.9853
 3031TIP3    H2 9058   0.392   4.373   0.728 -1.3804 -1.3904  0.8320
 3032TIP3   OH2 9059   4.252   6.717   4.580 -0.4073  0.2398  0.0024
 3032TIP3    H1 9060   4.185   6.785   4.589 -1.1693 -0.4295 -0.4247
 3032TIP3    H2 9061   4.308   6.746   4.508  0.6350  1.4899  1.2606
 3033TIP3   OH2 9062   7.120   6.803  -0.022 -0.2301  0.1663  0.1520
 3033TIP3    H1 9063   7.053   6.840   0.035 -0.8986  0.9156 -1.0589
 3033TIP3    H2 9064   7.135   6.715   0.012 -0.3544  0.6973  1.6561
 3034TIP3   OH2 9065   5.379   2.376   4.133  0.5899 -0.1166 -0.2419
 3034TIP3    H1 9066   5.332   2.293   4.143  1.5800 -0.8875 -1.6464
 3034TIP3    H2 9067   5.409   2.398   4.222 -0.2492 -0.9116  0.2453
 3035TIP3   OH2 9068   6.848   6.696   3.730 -0.2627 -0.2962 -0.0285
 3035TIP3    H1 9069   6.800   6.718   3.650 -1.0702 -1.5830  0.0648
 3035TIP3    H2 9070   6.939   6.686   3.701 -0.0334  1.9453 -0.2472
 3036TIP3   OH2 9071   1.890   5.395   1.979 -0.4924 -0.2809 -0.2856
 3036TIP3    H1 9072   1.889   5.491   1.975 -0.5125 -0.2548  0.2914
 3036TIP3    H2 9073   1.886   5.375   2.072 -0.3618 -0.8446 -0.3986
 3037TIP3   OH2 9074   5.417   0.369   4.544 -0.2498  0.0941 -0.5281
 3037TIP3    H1 9075   5.404   0.312   4.468 -0.7625 -0.0712 -0.3220
 3037TIP3    H2 9076   5.440   0.309   4.615  1.3379  0.3395 -0.7846
 3038TIP3   OH2 9077   2.143   1.678   3.512  0.2346  0.5042 -0.1738
 3038TIP3    H1 9078   2.195   1.653   3.588  1.7318  0.8764 -1.0393
 3038TIP3    H2 9079   2.166   1.615   3.445  1.2864  1.9509 -1.2445
 3039TIP3   OH2 9080   1.887   0.514   2.043  0.0250 -0.3421 -0.1343
 3039TIP3    H1 9081   1.857   0.516   1.952 -0.7396 -0.8974  0.0911
 3039TIP3    H2 9082   1.899   0.606   2.066 -0.1898 -0.1752 -0.6685
 3040TIP3   OH2 9083   6.980   3.473   5.565  0.1500  0.0205  0.0239
 3040TIP3    H1 9084   7.009   3.449   5.653  0.8913 -1.1744 -0.5370
 3040TIP3    H2 9085   6.925   3.400   5.537 -0.1911  0.4573 -0.4755
 3041TIP3   OH2 9086   3.967   2.182   3.266  0.0405 -0.2074 -0.6561
 3041TIP3    H1 9087   3.875   2.204   3.281 -0.1619 -1.4303  0.0670
 3041TIP3    H2 9088   4.013   2.222   3.340 -0.2031 -1.3746  0.1466
 3042TIP3   OH2 9089   5.669   2.833   4.588 -0.0413  0.4141  0.3186
 3042TIP3    H1 9090   5.593   2.790   4.549  0.1430 -1.6390  2.0233
 3042TIP3    H2 9091   5.744   2.796   4.540  0.1417 -1.6341  2.0031
 3043TIP3   OH2 9092   5.109   1.569   3.805  0.1637  0.2866  0.0453
 3043TIP3    H1 9093   5.185   1.625   3.792  0.3431  0.7720  2.5237
 3043TIP3    H2 9094   5.036   1.630   3.814  0.1491  0.0958  1.4710
 3044TIP3   OH2 9095   1.997   4.802   3.684  0.6448  0.4896 -0.6992
 3044TIP3    H1 9096   1.944   4.877   3.656 -0.3453 -0.3563 -1.1563
 3044TIP3    H2 9097   2.070   4.841   3.731 -0.9469  1.7029  0.9544
 3045TIP3   OH2 9098   3.354   5.315   1.842  0.2453  0.8774 -0.2227
 3045TIP3    H1 9099   3.308   5.277   1.768 -2.2953 -2.0725  2.5669
 3045TIP3    H2 9100   3.293   5.379   1.879  1.5755  2.4970 -0.6640
 3046TIP3   OH2 9101   5.086   4.273   2.557 -0.3937  0.1630 -0.2647
 3046TIP3    H1 9102   5.170   4.294   2.517  0.4528 -1.3315  0.6430
 3046TIP3    H2 9103   5.055   4.356   2.594  0.9200  0.6328 -0.1759
 3047TIP3   OH2 9104   4.448   5.370   0.293 -0.0843  0.4185 -0.1986
 3047TIP3    H1 9105   4.381   5.412   0.238 -0.4465  0.7723  0.4999
 3047TIP3    H2 9106   4.523   5.429   0.289 -0.7469  1.4150  1.1484
 3048TIP3   OH2 9107   1.009   6.255   5.486 -0.0846  0.5670  0.2391
 3048TIP3    H1 9108   1.073   6.236   5.418 -0.6758  0.7190 -0.3741
 3048TIP3    H2 9109   1.049   6.224   5.567  1.5153  2.2608  0.1457
 3049TIP3   OH2 9110   6.493   3.566   1.114  0.0931  0.3718  0.0307
 3049TIP3    H1 9111   6.535   3.615   1.043  0.8991  1.4885  1.2223
 3049TIP3    H2 9112   6.474   3.480   1.077 -1.1803  1.5026 -2.0838
 3050TIP3   OH2 9113   4.993   1.334   3.161  0.1436 -0.4128 -0.4834
 3050TIP3    H1 9114   4.973   1.337   3.255  0.7920 -1.4053 -0.2953
 3050TIP3    H2 9115   5.076   1.382   3.153  1.0398 -1.8887 -0.2562
 3051TIP3   OH2 9116   5.414   5.341   4.924  0.0477  0.3157 -0.0110
 3051TIP3    H1 9117   5.390   5.312   4.836 -0.5356  2.2724 -0.5707
 3051TIP3    H2 9118   5.509   5.338   4.925  0.0425 -0.2169 -0.5306
 3052TIP3   OH2 9119   5.164   2.881   4.639 -0.0445  0.3022  0.6070
 3052TIP3    H1 9120   5.086   2.829   4.620  0.0320  0.6483 -0.7443
 3052TIP3    H2 9121   5.224   2.820   4.680 -0.7431 -0.1525  0.9814
 3053TIP3   OH2 9122   6.798   4.315   2.591  0.1169 -0.5349  0.3548
 3053TIP3    H1 9123   6.866   4.382   2.586  0.4528 -0.7364  1.7715
 3053TIP3    H2 9124   6.782   4.290   2.500  1.5010 -0.0455 -0.0498
 3054TIP3   OH2 9125   3.616   5.827   2.370 -0.3926 -0.0168  0.0814
 3054TIP3    H1 9126   3.708   5.834   2.395  0.1215 -0.1105 -1.6980
 3054TIP3    H2 9127   3.588   5.742   2.404  0.1684  0.0176  0.6410
 3055TIP3   OH2 9128   2.083   3.087   0.708  0.0325  0.3246 -0.1560
 3055TIP3    H1 9129   2.027   3.051   0.777  0.3357  2.7931  1.5091
 3055TIP3    H2 9130   2.025   3.094   0.632 -0.7320 -1.0249  0.2542
 3056TIP3   OH2 9131   2.368   1.620   3.722  0.1325  0.0423  0.4040
 3056TIP3    H1 9132   2.340   1.530   3.703  0.8825  0.2149 -1.8123
 3056TIP3    H2 9133   2.442   1.610   3.782  0.4402 -0.8475 -0.1045
 3057TIP3   OH2 9134   3.580   5.533   5.022 -0.0593 -0.2503  0.6580
 3057TIP3    H1 9135   3.660   5.524   5.073 -0.2709 -0.5174  0.9439
 3057TIP3    H2 9136   3.601   5.600   4.957  1.1723 -1.9596 -0.7887
 3058TIP3   OH2 9137   6.454   5.379   4.977 -1.0249 -0.2355 -0.3172
 3058TIP3    H1 9138   6.453   5.473   4.960 -1.6232 -0.0523  0.6779
 3058TIP3    H2 9139   6.496   5.341   4.899  1.1068  1.0181  0.1434
 3059TIP3   OH2 9140   1.715   0.386   3.931  0.6878 -0.3170 -0.3149
 3059TIP3    H1 9141   1.761   0.467   3.907 -1.1528  0.3589 -1.8353
 3059TIP3    H2 9142   1.658   0.412   4.003  0.5247 -0.4014 -0.4130
 3060TIP3   OH2 9143   5.008   1.836   3.351 -0.1844 -0.7231 -0.0079
 3060TIP3    H1 9144   5.064   1.869   3.421 -0.3913 -1.6241  0.5863
 3060TIP3    H2 9145   4.981   1.749   3.380 -0.1615 -1.1660 -1.2704
 3061TIP3   OH2 9146   1.802   3.962   3.799 -0.3753  0.3795 -0.1575
 3061TIP3    H1 9147   1.792   3.904   3.724  0.1183 -0.9247  0.7465
 3061TIP3    H2 9148   1.788   3.906   3.875 -2.5689  1.9927  0.7586
 3062TIP3   OH2 9149   4.784   3.723   3.824 -0.7502 -0.1748 -0.3817
 3062TIP3    H1 9150   4.710   3.751   3.770 -0.9357  1.2387  0.5580
 3062TIP3    H2 9151   4.856   3.778   3.795 -0.4414 -0.5126 -0.2592
 3063TIP3   OH2 9152   0.042   5.856   2.221 -0.0333 -0.2790 -0.4666
 3063TIP3    H1 9153  -0.014   5.916   2.271 -0.2689 -0.5328 -0.4250
 3063TIP3    H2 9154   0.073   5.908   2.147  1.5606  0.6003  0.7404
 3064TIP3   OH2 9155   1.835   1.742   0.025 -0.2171  0.4032  0.0494
 3064TIP3    H1 9156   1.909   1.682   0.037  0.2790  0.5414 -1.9538
 3064TIP3    H2 9157   1.826   1.786   0.109  0.6980 -1.0341  0.9471
 3065TIP3   OH2 9158   2.103   3.498   0.457 -0.1092  0.1187  0.5794
 3065TIP3    H1 9159   2.168   3.431   0.479  1.4220  1.5835  0.6683
 3065TIP3    H2 9160   2.127   3.527   0.369 -0.3100  1.0389  0.8210
 3066TIP3   OH2 9161   1.254   3.134   5.474  0.0753  0.3036  0.5267
 3066TIP3    H1 9162   1.200   3.151   5.397 -0.8048  3.0332  1.6086
 3066TIP3    H2 9163   1.219   3.193   5.541  2.1048 -0.4822  2.3973
 3067TIP3   OH2 9164   5.281   6.563   0.487  0.2889  0.0289 -0.1934
 3067TIP3    H1 9165   5.351   6.533   0.429 -0.6036  1.1623 -1.9452
 3067TIP3    H2 9166   5.245   6.482   0.525  1.4291 -0.6786 -0.5628
 3068TIP3   OH2 9167   5.135   6.578   4.587  0.0813  0.3444 -0.5922
 3068TIP3    H1 9168   5.167   6.556   4.675 -0.6061  1.8937  0.0877
 3068TIP3    H2 9169   5.071   6.647   4.602  1.6582  2.3795 -2.4860
 3069TIP3   OH2 9170   2.089   4.889   3.234 -0.2201  0.6252 -0.5018
 3069TIP3    H1 9171   2.048   4.908   3.150 -1.4558 -1.5494 -0.4814
 3069TIP3    H2 9172   2.070   4.965   3.288 -1.5623  1.0068 -1.4630
 3070TIP3   OH2 9173   5.526   3.837   1.832  0.5464  0.6784 -0.3511
 3070TIP3    H1 9174   5.531   3.746   1.803 -0.2611  0.2716  0.7466
 3070TIP3    H2 9175   5.548   3.888   1.754  3.4226 -0.4735 -0.4340
 3071TIP3   OH2 9176   3.785   4.381   0.796 -0.1484 -0.1381 -0.3566
 3071TIP3    H1 9177   3.722   4.310   0.805  0.1074 -0.1658  1.7014
 3071TIP3    H2 9178   3.831   4.362   0.714 -0.4507 -2.0148 -0.1382
 3072TIP3   OH2 9179   1.386   2.511   2.835 -0.1020  0.7029  0.8202
 3072TIP3    H1 9180   1.405   2.481   2.746  0.0654 -0.5234  1.2476
 3072TIP3    H2 9181   1.463   2.484   2.885 -1.6705 -1.9069  2.0412
 3073TIP3   OH2 9182   5.085   2.616   0.101  0.2976 -0.3196  0.0187
 3073TIP3    H1 9183   5.108   2.681   0.035 -0.9982 -1.0387 -1.2239
 3073TIP3    H2 9184   5.053   2.667   0.175  2.0595  0.5157  0.2536
 3074TIP3   OH2 9185   3.612   0.974   3.703 -0.0252 -0.0755  0.4716
 3074TIP3    H1 9186   3.630   1.060   3.742 -1.2954  0.2199  0.4525
 3074TIP3    H2 9187   3.695   0.927   3.710  1.1050  1.6096 -0.6966
 3075TIP3   OH2 9188   4.149   6.784   5.738 -0.0670 -0.0228  0.6458
 3075TIP3    H1 9189   4.206   6.812   5.810 -0.5301 -2.2417  1.9966
 3075TIP3    H2 9190   4.079   6.734   5.782 -1.4441  0.1832 -1.2092
 3076TIP3   OH2 9191   2.903   5.477   0.813 -0.2530  0.1320 -0.6713
 3076TIP3    H1 9192   2.934   5.461   0.724 -1.6946  0.0491 -1.1975
 3076TIP3    H2 9193   2.881   5.390   0.847 -0.1675  0.2073 -0.4218
 3077TIP3   OH2 9194   2.680   5.087   4.160  0.0376 -0.5871  0.1846
 3077TIP3    H1 9195   2.695   4.996   4.184  0.1133 -0.1086  2.0637
 3077TIP3    H2 9196   2.714   5.138   4.233 -0.2314  0.9525 -0.7120
 3078TIP3   OH2 9197   6.585   0.722   1.914 -0.2093 -0.0432 -0.0965
 3078TIP3    H1 9198   6.669   0.720   1.869  0.5539 -0.7427  1.2928
 3078TIP3    H2 9199   6.522   0.694   1.848  0.8512 -0.9429 -0.7669
 3079TIP3   OH2 9200   4.782   5.803   1.449 -0.6497 -0.4518  0.1714
 3079TIP3    H1 9201   4.707   5.798   1.509 -1.1003  4.8412  0.4987
 3079TIP3    H2 9202   4.856   5.824   1.506 -0.0730 -0.1873 -0.6710
 3080TIP3   OH2 9203   4.801   1.665   1.721  0.1185 -0.2584 -0.2146
 3080TIP3    H1 9204   4.760   1.681   1.636 -1.4001  2.2542  0.8861
 3080TIP3    H2 9205   4.748   1.595   1.761 -2.2766  1.8340  0.5188
 3081TIP3   OH2 9206   4.738   5.698   1.733  0.3477  0.1958 -0.1082
 3081TIP3    H1 9207   4.654   5.654   1.723  1.1779 -1.4068 -0.3782
 3081TIP3    H2 9208   4.736   5.735   1.821 -0.7265  0.3913 -0.2091
 3082TIP3   OH2 9209   4.049   3.915   5.317 -0.3406  0.0798 -0.5996
 3082TIP3    H1 9210   4.044   3.833   5.367  1.5309 -0.3741 -1.0708
 3082TIP3    H2 9211   4.071   3.982   5.381 -0.1854 -0.0935 -0.4719
 3083TIP3   OH2 9212   6.482   5.216   4.369 -0.2471 -0.1018  0.5497
 3083TIP3    H1 9213   6.453   5.290   4.317 -0.5490 -1.7853 -1.8240
 3083TIP3    H2 9214   6.575   5.206   4.346 -0.1439 -0.3215  1.0470
 3084TIP3   OH2 9215   6.799   1.488   5.551 -0.3547 -0.5515  0.1863
 3084TIP3    H1 9216   6.711   1.525   5.558  0.1590  1.1054 -1.4605
 3084TIP3    H2 9217   6.836   1.529   5.473  1.2748 -2.5256 -0.1579
 3085TIP3   OH2 9218   4.228   6.233   2.734 -0.3868 -0.2035  0.3646
 3085TIP3    H1 9219   4.134   6.248   2.739 -0.8253 -2.8251  1.2277
 3085TIP3    H2 9220   4.243   6.207   2.643 -0.6180 -0.4624  0.3997
 3086TIP3   OH2 9221   3.943   6.025   2.659 -0.0348  0.8752  0.5035
 3086TIP3    H1 9222   3.941   6.115   2.629 -0.5050  1.3349  1.8111
 3086TIP3    H2 9223   3.976   6.030   2.749 -2.3261  0.0670  1.4883
 3087TIP3   OH2 9224   1.718   2.341   0.655  0.6608 -0.3067 -0.1645
 3087TIP3    H1 9225   1.706   2.284   0.731 -3.2672 -0.9920 -1.0960
 3087TIP3    H2 9226   1.762   2.286   0.591 -1.0879 -1.6930 -0.2620
 3088TIP3   OH2 9227   4.318   2.489   0.563  0.2406 -0.0324 -0.4419
 3088TIP3    H1 9228   4.341   2.463   0.474  0.1312  1.1699 -0.8403
 3088TIP3    H2 9229   4.371   2.433   0.619 -0.2620 -1.3348 -1.2392
 3089TIP3   OH2 9230   5.560   4.517   4.853 -0.4092  0.1645 -0.2449
 3089TIP3    H1 9231   5.638   4.483   4.809  0.9017 -0.0044  2.0504
 3089TIP3    H2 9232   5.533   4.446   4.912 -2.0796  0.3807 -0.6921
 3090TIP3   OH2 9233   1.251   1.558   2.980 -0.3861  0.1962 -0.6111
 3090TIP3    H1 9234   1.161   1.526   2.982 -0.8452  1.4394  1.3751
 3090TIP3    H2 9235   1.252   1.623   2.909 -1.0548  0.1445 -0.6663
 3091TIP3   OH2 9236   0.507   2.344   0.216  0.1907 -0.1208 -0.1078
 3091TIP3    H1 9237   0.434   2.403   0.201 -0.0249 -0.1089  0.9091
 3091TIP3    H2 9238   0.486   2.300   0.299  1.8039  0.6072  0.7328
 3092TIP3   OH2 9239   4.496   4.000   5.483  0.1995  0.7440 -0.5482
 3092TIP3    H1 9240   4.435   4.073   5.474 -0.0636  0.4563 -1.2217
 3092TIP3    H2 9241   4.485   3.950   5.402  0.5926  0.1258 -0.2284
 3093TIP3   OH2 9242   2.918   4.057   4.579 -0.4164  0.5195  0.1974
 3093TIP3    H1 9243   2.838   4.097   4.614 -1.3760  0.4934 -1.8298
 3093TIP3    H2 9244   2.959   4.127   4.528  0.5234  0.3325  0.6697
 3094TIP3   OH2 9245   4.407   0.905   0.272 -0.5131  0.5500 -0.4849
 3094TIP3    H1 9246   4.460   0.825   0.276 -1.9488 -0.4778 -0.9294
 3094TIP3    H2 9247   4.359   0.898   0.189 -1.3673  1.3889 -0.0814
 3095TIP3   OH2 9248   1.781   4.084   1.504 -0.1074  0.5300  0.2120
 3095TIP3    H1 9249   1.764   4.085   1.598  0.8301 -2.8123  0.5648
 3095TIP3    H2 9250   1.694   4.073   1.464 -0.3788  0.6182  0.7637
 3096TIP3   OH2 9251   3.409   5.281   3.952  0.5325  0.1781 -0.1238
 3096TIP3    H1 9252   3.442   5.365   3.921 -0.1700  0.8050  0.7778
 3096TIP3    H2 9253   3.380   5.298   4.041 -3.6596  0.0851 -1.2960
 3097TIP3   OH2 9254   4.648   1.870   3.904 -0.0703 -0.1530 -0.0005
 3097TIP3    H1 9255   4.634   1.938   3.970  2.4463 -0.4176  0.9018
 3097TIP3    H2 9256   4.623   1.789   3.948 -0.4611 -0.1005 -0.1256
 3098TIP3   OH2 9257   0.103   4.867   3.321 -0.1621  0.1837  0.1757
 3098TIP3    H1 9258   0.012   4.859   3.294 -0.8153 -1.3831  2.5323
 3098TIP3    H2 9259   0.109   4.815   3.401  2.0858  2.6685  1.7931
 3099TIP3   OH2 9260   3.402   5.419   0.345  0.0608 -0.0013 -0.6080
 3099TIP3    H1 9261   3.336   5.359   0.309  1.7959 -2.2687 -0.2213
 3099TIP3    H2 9262   3.404   5.492   0.283 -1.8580 -0.5094 -1.3355
 3100TIP3   OH2 9263   0.604   0.915   2.621  0.6317 -0.5091  0.2046
 3100TIP3    H1 9264   0.571   0.974   2.553  2.6391  1.3271  0.7043
 3100TIP3    H2 9265   0.533   0.853   2.636 -0.6917  0.3644 -2.0030
 3101TIP3   OH2 9266   0.410   1.345   1.336  0.3150 -0.3457  0.6273
 3101TIP3    H1 9267   0.366   1.419   1.294 -0.7995 -0.8712  0.8598
 3101TIP3    H2 9268   0.499   1.377   1.352 -0.3795  1.2826  1.5221
 3102TIP3   OH2 9269   4.176   1.975   4.128 -0.3899 -0.1553 -0.1518
 3102TIP3    H1 9270   4.223   2.057   4.112 -1.4511  0.4550 -0.2317
 3102TIP3    H2 9271   4.242   1.907   4.116  0.5039  0.6790 -0.1261
 3103TIP3   OH2 9272   5.982   5.308   0.186 -0.3735  0.0259 -0.4857
 3103TIP3    H1 9273   5.917   5.290   0.117 -0.6888 -0.5923 -0.0329
 3103TIP3    H2 9274   5.969   5.400   0.208 -0.2720  0.2289 -1.2508
 3104TIP3   OH2 9275   4.944   5.419   3.686  0.0345 -0.3184  0.1211
 3104TIP3    H1 9276   5.026   5.395   3.645 -1.0791 -1.1418 -1.7395
 3104TIP3    H2 9277   4.912   5.494   3.636 -0.9667 -0.8388 -0.0632
 3105TIP3   OH2 9278   4.106   0.963   2.329  0.3976 -0.2336 -0.4894
 3105TIP3    H1 9279   4.118   0.868   2.338  0.4338 -0.3958 -2.0794
 3105TIP3    H2 9280   4.192   0.996   2.303  0.2740  0.1924 -0.3716
 3106TIP3   OH2 9281   4.483   4.921   2.957  0.3659  0.4426  0.2152
 3106TIP3    H1 9282   4.541   4.880   3.021 -0.0527 -1.0337 -0.3091
 3106TIP3    H2 9283   4.428   4.980   3.009 -0.3290 -1.1248  1.3409
 3107TIP3   OH2 9284   6.904   1.643   5.369 -0.8844  0.2945  0.3497
 3107TIP3    H1 9285   6.975   1.591   5.331 -0.3467  0.1527  1.5133
 3107TIP3    H2 9286   6.882   1.707   5.301  0.0514  0.0444 -0.2033
 3108TIP3   OH2 9287   0.386   0.749   2.610  0.1810 -0.2911 -0.1016
 3108TIP3    H1 9288   0.373   0.663   2.648 -0.6923 -0.1772 -0.1113
 3108TIP3    H2 9289   0.302   0.794   2.622  0.8060  0.7805  0.4512
 3109TIP3   OH2 9290   3.480   0.256   5.104  0.4833 -0.2088  0.6376
 3109TIP3    H1 9291   3.531   0.324   5.148 -0.7614  0.7794  0.6274
 3109TIP3    H2 9292   3.466   0.291   5.015  0.0891 -0.6214  0.5338
 3110TIP3   OH2 9293   4.572   4.407   4.047 -0.1402  0.1849 -0.5339
 3110TIP3    H1 9294   4.485   4.447   4.039 -0.2788 -0.3733 -2.1551
 3110TIP3    H2 9295   4.632   4.481   4.052 -0.5648  0.6078 -1.4413
 3111TIP3   OH2 9296   2.621   4.256   3.173  0.4179  0.0721  0.0941
 3111TIP3    H1 9297   2.635   4.290   3.085 -1.1620 -0.3005 -0.3271
 3111TIP3    H2 9298   2.588   4.167   3.160  2.6741 -1.0080  1.1380
 3112TIP3   OH2 9299   2.132   6.578   4.111 -0.3612  0.2901  0.3409
 3112TIP3    H1 9300   2.070   6.586   4.183 -0.9004 -1.3914  0.1087
 3112TIP3    H2 9301   2.080   6.545   4.038  0.2916  1.4219 -0.6610
 3113TIP3   OH2 9302   4.936   0.886   5.532  0.0734  0.0819 -0.1109
 3113TIP3    H1 9303   4.918   0.838   5.613 -0.3918  0.5836  0.0856
 3113TIP3    H2 9304   4.853   0.927   5.509  0.3798  0.5140 -0.4623
 3114TIP3   OH2 9305   5.943   1.810   3.418  0.6896 -0.0048  0.4676
 3114TIP3    H1 9306   5.866   1.841   3.371 -0.0403 -0.1293  1.5659
 3114TIP3    H2 9307   5.992   1.759   3.352  0.9926  1.8745 -0.8529
 3115TIP3   OH2 9308   1.874   5.837   4.277 -0.5472 -0.8003  0.4151
 3115TIP3    H1 9309   1.880   5.914   4.221 -0.1689 -1.1522 -0.0339
 3115TIP3    H2 9310   1.824   5.867   4.353 -0.3189 -0.0856  0.2950
 3116TIP3   OH2 9311   4.087   1.879   3.125  0.2584 -0.0510 -0.4363
 3116TIP3    H1 9312   4.106   1.973   3.125  1.2394 -0.2209 -1.4389
 3116TIP3    H2 9313   4.166   1.838   3.162 -0.3614 -0.4664  0.4739
 3117TIP3   OH2 9314   2.085   2.263   4.132  0.5057  0.0368  0.4997
 3117TIP3    H1 9315   2.137   2.279   4.211  0.5578 -1.0998  0.7122
 3117TIP3    H2 9316   2.146   2.221   4.072 -0.0200 -0.8181  0.5570
 3118TIP3   OH2 9317   7.053   3.564   5.324  0.1070 -0.1390 -0.8425
 3118TIP3    H1 9318   7.147   3.556   5.311  0.0768  0.0006 -1.1473
 3118TIP3    H2 9319   7.039   3.537   5.415  0.1279 -2.6643 -1.4933
 3119TIP3   OH2 9320   3.411   2.849   2.953  0.2410  0.5967  0.0154
 3119TIP3    H1 9321   3.428   2.933   2.910 -0.0421  1.1442  0.9484
 3119TIP3    H2 9322   3.373   2.794   2.885  0.4695  1.2065 -0.6160
 3120TIP3   OH2 9323   5.437   3.743   3.209 -0.3857 -0.1468  0.0001
 3120TIP3    H1 9324   5.468   3.829   3.183 -1.6145  0.5205  0.6656
 3120TIP3    H2 9325   5.359   3.760   3.262 -1.8216 -1.7198 -1.4553
 3121TIP3   OH2 9326   1.541   1.125   4.402  0.0695 -0.0496  0.2056
 3121TIP3    H1 9327   1.617   1.084   4.360 -1.3536 -1.8204 -0.7823
 3121TIP3    H2 9328   1.526   1.204   4.349 -0.5934 -1.3034 -1.5915
 3122TIP3   OH2 9329   2.632   2.362   2.827 -0.2031 -0.0341  0.1606
 3122TIP3    H1 9330   2.559   2.411   2.864  1.1159  1.0584  1.4262
 3122TIP3    H2 9331   2.594   2.316   2.752 -1.7072  2.2307 -0.5743
 3123TIP3   OH2 9332   3.655   1.914   2.235  0.7208 -0.2082  0.1623
 3123TIP3    H1 9333   3.624   1.950   2.152  0.2665 -1.3467 -0.1859
 3123TIP3    H2 9334   3.747   1.939   2.240  0.5920  0.3880 -0.3894
 3124TIP3   OH2 9335   5.257   2.742   0.633  0.0288 -0.1040 -0.2484
 3124TIP3    H1 9336   5.256   2.650   0.659  0.4295 -0.1344 -0.3387
 3124TIP3    H2 9337   5.306   2.744   0.551 -1.3132 -0.0207 -1.0749
 3125TIP3   OH2 9338   5.298   2.963   5.710 -0.2461 -0.4306  0.2817
 3125TIP3    H1 9339   5.234   2.914   5.762 -1.7336  0.7741 -0.3362
 3125TIP3    H2 9340   5.376   2.965   5.765 -1.5073  0.1510  2.1744
 3126TIP3   OH2 9341   5.449   6.382   4.682 -0.5880  0.6620 -0.5473
 3126TIP3    H1 9342   5.500   6.463   4.687  0.3048  0.0567  1.1763
 3126TIP3    H2 9343   5.514   6.313   4.669 -1.0887  0.0126  0.2945
 3127TIP3   OH2 9344   5.512   4.766   2.031  0.5362 -0.2536  0.3380
 3127TIP3    H1 9345   5.450   4.747   1.960 -0.2726  0.5059  0.8236
 3127TIP3    H2 9346   5.562   4.684   2.042  0.9255 -0.2661 -1.3361
 3128TIP3   OH2 9347   0.472   2.974   2.491  0.5368 -0.0186 -0.0740
 3128TIP3    H1 9348   0.536   3.039   2.463 -0.3563  1.0779  0.3247
 3128TIP3    H2 9349   0.388   3.020   2.486 -0.4283 -1.7814 -1.8392
 3129TIP3   OH2 9350   1.703   6.035   5.217  0.3332  0.2443 -0.5013
 3129TIP3    H1 9351   1.660   5.990   5.144 -2.4483  0.5059  0.8475
 3129TIP3    H2 9352   1.764   6.096   5.175 -1.9202  1.1587 -2.6884
 3130TIP3   OH2 9353   2.667   2.844   3.490  0.2487  0.5021  0.4473
 3130TIP3    H1 9354   2.729   2.890   3.433  1.0607 -0.0898  0.8200
 3130TIP3    H2 9355   2.722   2.783   3.540 -0.8099 -1.1886 -0.3391
 3131TIP3   OH2 9356   0.875   2.237   4.187 -0.2482  0.6761  0.6111
 3131TIP3    H1 9357   0.919   2.297   4.126 -2.2080 -0.6158 -2.3108
 3131TIP3    H2 9358   0.937   2.165   4.198 -0.0170  0.7213 -0.2751
 3132TIP3   OH2 9359   6.602   4.748   0.919 -0.1724  0.1902 -0.2587
 3132TIP3    H1 9360   6.665   4.805   0.875 -0.8131  1.5719  0.5672
 3132TIP3    H2 9361   6.639   4.735   1.007 -0.2125 -0.4025 -0.3211
 3133TIP3   OH2 9362   7.205   2.325   1.069 -0.6909  0.2325  1.3081
 3133TIP3    H1 9363   7.172   2.280   0.991  0.3589  0.3379  0.7755
 3133TIP3    H2 9364   7.127   2.356   1.114 -1.3759  3.1086 -1.4223
 3134TIP3   OH2 9365   1.607   0.894   4.848 -0.7519 -0.1672 -0.2790
 3134TIP3    H1 9366   1.554   0.817   4.868 -0.2849 -0.5673 -0.5603
 3134TIP3    H2 9367   1.610   0.943   4.930 -0.5155 -0.7786  0.0829
 3135TIP3   OH2 9368   2.602   2.062   4.088 -0.3297 -0.0301  0.1061
 3135TIP3    H1 9369   2.668   2.030   4.027  0.1447  0.4483  0.3657
 3135TIP3    H2 9370   2.528   2.002   4.077  0.7167 -1.5409  0.9242
 3136TIP3   OH2 9371   1.561   6.775   4.244  0.3331 -0.4906 -0.1754
 3136TIP3    H1 9372   1.642   6.826   4.250 -0.3397  0.5859  0.1401
 3136TIP3    H2 9373   1.548   6.761   4.150  1.1591 -1.1667 -0.2079
 3137TIP3   OH2 9374   1.685   4.371   3.802  0.9928  0.3679 -0.2091
 3137TIP3    H1 9375   1.695   4.291   3.750  1.1143  0.1258  0.1802
 3137TIP3    H2 9376   1.660   4.438   3.739 -0.2772 -0.2344 -0.3659
 3138TIP3   OH2 9377   0.823   3.912   2.072  0.0332  0.2688  0.2994
 3138TIP3    H1 9378   0.881   3.941   2.142  0.4208 -0.2939  0.2192
 3138TIP3    H2 9379   0.839   3.818   2.066 -1.7855 -0.1322  1.1116
 3139TIP3   OH2 9380   0.068   5.613   1.244 -0.2784 -0.3944 -0.0448
 3139TIP3    H1 9381  -0.010   5.593   1.297  1.3716 -0.0536  2.6807
 3139TIP3    H2 9382   0.060   5.706   1.225  0.0165 -0.1018  1.2239
 3140TIP3   OH2 9383   6.492   6.677   2.384  0.4097 -0.0524 -0.6159
 3140TIP3    H1 9384   6.399   6.696   2.395  0.5991  0.6005 -0.1119
 3140TIP3    H2 9385   6.495   6.613   2.313 -0.5870 -1.6708  0.7303
 3141TIP3   OH2 9386   3.398   2.231   5.529  0.3149  0.2760  0.4945
 3141TIP3    H1 9387   3.329   2.267   5.473 -0.9116 -1.2195  0.9802
 3141TIP3    H2 9388   3.364   2.146   5.557  2.2395 -0.3612  1.0152
 3142TIP3   OH2 9389   5.173   2.073   5.210 -0.4268 -0.0652  0.3187
 3142TIP3    H1 9390   5.260   2.111   5.201 -0.6590  0.0911 -1.8036
 3142TIP3    H2 9391   5.150   2.086   5.302  0.9432  1.7755  0.4503
 3143TIP3   OH2 9392   1.910   4.333   1.232  0.2481 -0.0020  0.0650
 3143TIP3    H1 9393   1.884   4.408   1.179  0.4115 -1.6065 -2.4698
 3143TIP3    H2 9394   1.851   4.262   1.204  0.9516 -1.1596  1.3777
 3144TIP3   OH2 9395   0.548   4.714   2.441  0.8285 -0.3729  0.1944
 3144TIP3    H1 9396   0.556   4.806   2.416  0.4239 -0.2679  0.4535
 3144TIP3    H2 9397   0.585   4.666   2.367  3.0113  0.0575  0.9159
 3145TIP3   OH2 9398   6.218   2.823   5.170 -0.0090 -0.4167 -0.0028
 3145TIP3    H1 9399   6.134   2.821   5.126  0.7148 -2.6200 -1.4565
 3145TIP3    H2 9400   6.277   2.865   5.107  0.1636  0.4777  0.7262
 3146TIP3   OH2 9401   4.127   4.377   0.033  0.0274  0.4295 -0.2718
 3146TIP3    H1 9402   4.071   4.316  -0.016  0.4519 -0.8543  0.7948
 3146TIP3    H2 9403   4.118   4.460  -0.015 -2.6715  0.2632 -0.2291
 3147TIP3   OH2 9404   6.762   3.512   5.783  0.1208  0.0279  0.2992
 3147TIP3    H1 9405   6.830   3.522   5.850  1.0563 -0.6122 -0.5373
 3147TIP3    H2 9406   6.749   3.418   5.776  0.6395  0.0395 -1.0070
 3148TIP3   OH2 9407   4.897   0.348   5.270  0.2656 -0.3688  0.2094
 3148TIP3    H1 9408   4.868   0.264   5.305  0.7575 -1.3525 -1.6141
 3148TIP3    H2 9409   4.817   0.401   5.263 -0.1566 -0.9316  0.7031
 3149TIP3   OH2 9410   5.930   0.310   2.476 -0.5378  0.1153 -0.8443
 3149TIP3    H1 9411   5.941   0.375   2.406 -1.4191 -2.7862 -3.9625
 3149TIP3    H2 9412   5.854   0.342   2.526 -1.0856  1.3963 -2.3968
 3150TIP3   OH2 9413   3.369   0.633   1.788  0.2205 -0.4639 -0.1818
 3150TIP3    H1 9414   3.326   0.549   1.774  1.4877 -1.0138 -0.9760
 3150TIP3    H2 9415   3.399   0.660   1.701  1.4796 -0.1377  0.3172
 3151TIP3   OH2 9416   1.618   6.731   1.597  0.4075  0.6281  0.1519
 3151TIP3    H1 9417   1.691   6.678   1.566 -0.5623 -0.6398 -0.0631
 3151TIP3    H2 9418   1.658   6.814   1.622  2.3247 -0.8169  2.3259
 3152TIP3   OH2 9419   0.348   0.193   0.767  0.2503  0.3581  0.5085
 3152TIP3    H1 9420   0.430   0.149   0.787 -0.5615 -1.3375  0.2569
 3152TIP3    H2 9421   0.280   0.131   0.793 -0.9288  0.9269 -1.0184
 3153TIP3   OH2 9422   1.888   5.056   0.080 -0.3593  0.0983  0.5224
 3153TIP3    H1 9423   1.842   4.975   0.056 -1.4967  0.3734  1.6390
 3153TIP3    H2 9424   1.923   5.089  -0.002  0.6422 -1.8266  0.1160
 3154TIP3   OH2 9425   3.517   2.928   4.322  0.0050  0.0967  0.1382
 3154TIP3    H1 9426   3.547   3.004   4.372 -1.4503 -0.3982  1.8526
 3154TIP3    H2 9427   3.553   2.852   4.369  0.7447 -0.3321 -1.0694
 3155TIP3   OH2 9428   3.747   0.334   1.140 -0.1262 -0.1296 -0.2392
 3155TIP3    H1 9429   3.789   0.311   1.223 -0.0080 -1.3254 -0.5998
 3155TIP3    H2 9430   3.703   0.417   1.156 -3.3204 -2.0454  2.2349
 3156TIP3   OH2 9431   6.550   3.788   5.357 -0.2392  0.6115 -0.5093
 3156TIP3    H1 9432   6.603   3.748   5.288  0.5134  0.1081  0.3476
 3156TIP3    H2 9433   6.565   3.733   5.434  0.3845  2.1887  0.5497
 3157TIP3   OH2 9434   5.026   4.182   4.576  0.0958 -0.4449  0.3978
 3157TIP3    H1 9435   4.961   4.251   4.562 -1.0819 -1.9954 -2.7387
 3157TIP3    H2 9436   4.996   4.136   4.654  0.5974  2.0881  2.2347
 3158TIP3   OH2 9437   5.600   3.495   5.398  0.0541 -0.2124  0.4436
 3158TIP3    H1 9438   5.588   3.543   5.316  1.0888 -1.2230 -0.3400
 3158TIP3    H2 9439   5.585   3.404   5.375  0.8863 -0.5773  1.2527
 3159TIP3   OH2 9440   3.099   2.834   3.048 -0.0171 -0.0791  0.4000
 3159TIP3    H1 9441   3.134   2.798   2.966  0.1101  1.8424 -0.4330
 3159TIP3    H2 9442   3.176   2.839   3.105  0.1570 -0.1795  0.1794
 3160TIP3   OH2 9443   0.943   4.563   5.632  0.2496 -0.0101 -0.2714
 3160TIP3    H1 9444   0.949   4.656   5.650 -0.5876 -0.2197  1.2303
 3160TIP3    H2 9445   0.989   4.551   5.549  0.9060  1.6279 -0.1601
 3161TIP3   OH2 9446   0.372   6.419   5.514  0.1648  0.4700 -0.1290
 3161TIP3    H1 9447   0.292   6.399   5.563  0.4158  0.9460  0.5063
 3161TIP3    H2 9448   0.437   6.435   5.582  0.5016  1.2495 -0.6248
 3162TIP3   OH2 9449   2.382   4.368   0.784 -0.2480  0.3840  0.2002
 3162TIP3    H1 9450   2.392   4.462   0.774 -0.4185  0.3829 -0.0050
 3162TIP3    H2 9451   2.344   4.339   0.701 -1.2461  0.2970  0.6714
 3163TIP3   OH2 9452   2.304   2.129   0.621  0.0441  0.2535  0.2462
 3163TIP3    H1 9453   2.369   2.196   0.640  1.8011 -1.5808  1.0852
 3163TIP3    H2 9454   2.252   2.122   0.701  1.6135 -1.1919  1.2004
 3164TIP3   OH2 9455   1.930   6.118   1.835  0.5391  0.1529 -0.1045
 3164TIP3    H1 9456   1.975   6.035   1.821 -0.0220 -0.6123  2.1652
 3164TIP3    H2 9457   1.978   6.158   1.908 -0.4361  0.8638  0.1581
 3165TIP3   OH2 9458   1.010   5.608   2.881 -0.2566  0.3164  0.3065
 3165TIP3    H1 9459   1.095   5.566   2.867  0.1540  1.2794 -0.1928
 3165TIP3    H2 9460   1.028   5.676   2.946 -1.0577 -0.6982  1.6320
 3166TIP3   OH2 9461   2.809   3.784   2.646 -0.4868 -0.3093  0.0004
 3166TIP3    H1 9462   2.731   3.740   2.681 -1.1759  1.2210  0.4826
 3166TIP3    H2 9463   2.799   3.777   2.551 -0.5807 -1.1695  0.0634
 3167TIP3   OH2 9464   0.802   0.102   2.801 -0.2325 -0.2214  0.0893
 3167TIP3    H1 9465   0.760   0.063   2.724  0.0378  1.1548 -0.7796
 3167TIP3    H2 9466   0.888   0.129   2.771  0.6453 -1.3902  1.4018
 3168TIP3   OH2 9467   0.761   0.858   4.356 -0.2418  0.1758 -0.2208
 3168TIP3    H1 9468   0.743   0.825   4.444  0.6295 -1.3423 -0.5756
 3168TIP3    H2 9469   0.713   0.799   4.298  1.7509 -0.8594 -0.8987
 3169TIP3   OH2 9470   5.209   2.238   1.461 -0.1162  0.2279  0.1484
 3169TIP3    H1 9471   5.137   2.233   1.524 -0.1527 -0.2565  0.0704
 3169TIP3    H2 9472   5.172   2.284   1.386 -0.2418  0.2962  0.2535
 3170TIP3   OH2 9473   6.995   6.339   2.814  0.4519  0.0057 -0.0474
 3170TIP3    H1 9474   6.992   6.402   2.886 -1.0645 -1.6043  1.3871
 3170TIP3    H2 9475   7.082   6.352   2.775  0.7912  1.8643  1.1632
 3171TIP3   OH2 9476   6.931   6.079   2.877 -1.0045 -0.4717 -0.0835
 3171TIP3    H1 9477   7.018   6.044   2.858 -0.6756  0.5801 -0.6048
 3171TIP3    H2 9478   6.929   6.163   2.832 -1.6883  0.2866  1.3045
 3172TIP3   OH2 9479   6.233   1.869   1.438 -0.0693  0.2280  0.1761
 3172TIP3    H1 9480   6.230   1.795   1.378 -0.9762 -0.0583  0.5523
 3172TIP3    H2 9481   6.228   1.946   1.383  1.0961  0.0306 -0.2367
 3173TIP3   OH2 9482   2.643   1.552   0.620 -0.4857 -0.9061  0.3721
 3173TIP3    H1 9483   2.575   1.601   0.667  0.4853  0.6314  0.2401
 3173TIP3    H2 9484   2.606   1.540   0.532 -0.1856  0.9215 -0.0528
 3174TIP3   OH2 9485   0.265   3.144   2.679  0.2240  0.1749  0.0979
 3174TIP3    H1 9486   0.191   3.092   2.709  0.4344 -0.3329 -0.2527
 3174TIP3    H2 9487   0.341   3.107   2.725  0.2451  0.7770  0.5563
 3175TIP3   OH2 9488   1.559   3.375   1.448  0.4492 -0.6157  0.0161
 3175TIP3    H1 9489   1.562   3.442   1.379  2.7344  1.0653  1.5756
 3175TIP3    H2 9490   1.529   3.296   1.404  0.4614  0.7172 -2.5832
 3176TIP3   OH2 9491   2.450   0.735   1.890  0.4856  0.2286  0.6355
 3176TIP3    H1 9492   2.490   0.690   1.965 -0.4888  1.4901  1.9799
 3176TIP3    H2 9493   2.438   0.825   1.920 -2.4653  0.1489  0.0002
 3177TIP3   OH2 9494   0.853  -0.014   3.391  0.7889 -0.5477 -0.4920
 3177TIP3    H1 9495   0.909  -0.043   3.319 -1.0947 -0.7669 -1.9306
 3177TIP3    H2 9496   0.802   0.058   3.355  1.2171  0.7051  1.2726
 3178TIP3   OH2 9497   1.468   1.221   5.239  0.3535 -0.9099  0.0331
 3178TIP3    H1 9498   1.406   1.222   5.313 -0.3686 -2.3592 -0.5304
 3178TIP3    H2 9499   1.450   1.303   5.193  0.6514 -0.0857  1.3009
 3179TIP3   OH2 9500   6.438   0.615   2.920  0.2361  0.4062 -0.1721
 3179TIP3    H1 9501   6.497   0.683   2.887  2.2474 -0.6918  0.9790
 3179TIP3    H2 9502   6.383   0.661   2.984  1.1098  1.1155  0.1009
 3180TIP3   OH2 9503   2.503   4.315   5.076  0.1604  0.4165  0.0880
 3180TIP3    H1 9504   2.486   4.299   5.169  0.6715 -1.4282 -0.0896
 3180TIP3    H2 9505   2.456   4.245   5.031 -0.6292  1.6795 -1.1152
 3181TIP3   OH2 9506   4.555   5.015   4.628  0.5807 -0.0904 -0.0842
 3181TIP3    H1 9507   4.622   5.015   4.561 -0.8089 -0.2360 -1.5449
 3181TIP3    H2 9508   4.530   4.923   4.637 -0.4646  0.1164 -0.6866
 3182TIP3   OH2 9509   4.177   6.501   2.553 -0.7106  0.1899  0.2954
 3182TIP3    H1 9510   4.249   6.469   2.499 -0.8270 -0.8701  0.7486
 3182TIP3    H2 9511   4.218   6.523   2.637 -1.1319 -1.9540  1.1111
 3183TIP3   OH2 9512   0.513   2.038   3.251  0.3357 -0.4298  0.6658
 3183TIP3    H1 9513   0.558   1.958   3.279  1.0905 -0.1295  0.3500
 3183TIP3    H2 9514   0.507   2.030   3.155  1.7958  0.5642  0.4557
 3184TIP3   OH2 9515   6.339   1.717   5.097  0.2601 -0.4255  0.2605
 3184TIP3    H1 9516   6.330   1.633   5.052  0.3852 -0.5271  0.4234
 3184TIP3    H2 9517   6.325   1.696   5.189 -0.5354 -0.1227  0.2088
 3185TIP3   OH2 9518   1.852   3.257   4.298 -0.1631  0.0217 -0.3642
 3185TIP3    H1 9519   1.775   3.287   4.250 -0.9584 -0.1349  0.7658
 3185TIP3    H2 9520   1.844   3.299   4.384  0.5812 -0.6388  0.0406
 3186TIP3   OH2 9521   6.890   5.649   3.435  0.0151  0.5866  0.0311
 3186TIP3    H1 9522   6.883   5.744   3.437 -1.1052  0.5167  0.9597
 3186TIP3    H2 9523   6.973   5.630   3.480 -0.9830  1.0712  2.2098
 3187TIP3   OH2 9524   7.200   0.310   2.421  0.0003 -0.9821  0.0712
 3187TIP3    H1 9525   7.123   0.367   2.427  0.6986 -0.0970  1.1440
 3187TIP3    H2 9526   7.218   0.286   2.512  2.1563  0.4691  0.1006
 3188TIP3   OH2 9527   3.498   6.031   2.612  0.0253  0.0212  0.3875
 3188TIP3    H1 9528   3.474   6.124   2.610  1.1989  0.3363  0.5255
 3188TIP3    H2 9529   3.445   5.992   2.542  0.1372  0.9426 -0.2273
 3189TIP3   OH2 9530   6.049   4.280   4.310 -0.1455 -0.1089  0.2597
 3189TIP3    H1 9531   6.116   4.275   4.242  0.2326  1.9332  0.4204
 3189TIP3    H2 9532   6.091   4.248   4.389  1.3309  2.7427  0.7697
 3190TIP3   OH2 9533   6.328   4.750   3.104  0.3105 -0.2328 -0.2929
 3190TIP3    H1 9534   6.353   4.714   3.019  0.7992 -0.1805 -0.1746
 3190TIP3    H2 9535   6.384   4.827   3.115 -2.8784  2.6227 -2.0202
 3191TIP3   OH2 9536   7.023   5.102   5.009  0.0599  0.1936  0.1286
 3191TIP3    H1 9537   7.091   5.152   4.965  0.1667 -0.2405 -0.2061
 3191TIP3    H2 9538   7.070   5.029   5.051 -0.2616 -0.4554 -0.6129
 3192TIP3   OH2 9539   7.132   6.632   3.701 -0.5253  0.0796  0.0767
 3192TIP3    H1 9540   7.166   6.544   3.691 -0.3650  0.2911 -1.5494
 3192TIP3    H2 9541   7.207   6.689   3.680 -0.4301  0.6280  1.7813
 3193TIP3   OH2 9542   0.557   5.816   3.123  0.5659  0.0305  0.2504
 3193TIP3    H1 9543   0.625   5.834   3.059 -1.1003  0.1820 -1.5639
 3193TIP3    H2 9544   0.540   5.722   3.114  0.5345 -0.0080  0.6893
 3194TIP3   OH2 9545   0.294   4.641   5.163  0.0292  0.7026  0.3963
 3194TIP3    H1 9546   0.235   4.636   5.088  1.1696 -0.1423 -0.4815
 3194TIP3    H2 9547   0.308   4.735   5.176 -0.9608  0.8935  0.1982
 3195TIP3   OH2 9548   1.710   2.112   3.761  0.1638  0.1475 -0.3099
 3195TIP3    H1 9549   1.783   2.158   3.802 -0.5454  1.3553 -0.3807
 3195TIP3    H2 9550   1.702   2.031   3.811  2.1727 -0.4960 -0.9096
 3196TIP3   OH2 9551   2.682   0.352   2.326  0.7486  0.1981 -0.1228
 3196TIP3    H1 9552   2.706   0.334   2.235 -1.8728  1.2129 -1.1013
 3196TIP3    H2 9553   2.688   0.447   2.334 -1.7568  0.4244 -0.1664
 3197TIP3   OH2 9554   3.359   4.034   2.485  0.1937  0.5054 -0.0381
 3197TIP3    H1 9555   3.386   3.971   2.553 -1.8443 -0.0577  0.2996
 3197TIP3    H2 9556   3.356   4.118   2.530  0.7514  0.4777  0.0633
 3198TIP3   OH2 9557   5.806   6.027   4.115  0.0507 -0.2575  0.2321
 3198TIP3    H1 9558   5.740   5.978   4.164 -0.0861 -0.1196  0.1880
 3198TIP3    H2 9559   5.788   6.119   4.136  0.5695 -0.2446  0.6466
 3199TIP3   OH2 9560   4.382   0.692   5.214 -0.0289 -0.0896  0.2850
 3199TIP3    H1 9561   4.379   0.697   5.118 -1.7394 -1.5508  0.2155
 3199TIP3    H2 9562   4.344   0.775   5.243 -0.7366 -0.1800 -0.3337
 3200TIP3   OH2 9563   1.103   1.436   1.031 -0.2863  0.2953 -0.6568
 3200TIP3    H1 9564   1.075   1.412   1.119 -0.8621 -1.3735 -1.2624
 3200TIP3    H2 9565   1.166   1.368   1.006 -0.2407  0.6594 -1.5943
 3201TIP3   OH2 9566   1.996   1.995   1.218  0.1059 -0.1748 -1.1240
 3201TIP3    H1 9567   1.973   1.902   1.208  1.2875 -0.4142 -1.8600
 3201TIP3    H2 9568   2.092   1.995   1.218  0.1215  0.9597 -0.1074
 3202TIP3   OH2 9569   4.923   2.024   5.111 -0.2808 -0.3394  0.6917
 3202TIP3    H1 9570   4.999   2.073   5.142 -0.7366  0.0611  1.1899
 3202TIP3    H2 9571   4.848   2.071   5.146 -0.7700 -0.6501  0.0779
 3203TIP3   OH2 9572   1.510   2.819   2.694 -0.6811 -0.2648 -0.1061
 3203TIP3    H1 9573   1.560   2.742   2.720 -1.1874 -0.4112  0.4445
 3203TIP3    H2 9574   1.500   2.810   2.599  2.3054  0.9415 -0.6457
 3204TIP3   OH2 9575   3.923   5.931   5.102 -0.2078  0.0927  0.0906
 3204TIP3    H1 9576   3.995   5.954   5.044 -0.4143 -2.0150 -1.0988
 3204TIP3    H2 9577   3.847   5.976   5.065  0.0245  0.3125 -0.1187
 3205TIP3   OH2 9578   0.660   3.452   1.432  0.1910  0.0264 -0.0415
 3205TIP3    H1 9579   0.617   3.371   1.460 -0.0300  1.0941  3.0725
 3205TIP3    H2 9580   0.743   3.454   1.479  0.9950  0.8441 -1.4050
 3206TIP3   OH2 9581   2.115   1.698   4.289 -0.0831  0.3975 -0.7068
 3206TIP3    H1 9582   2.176   1.687   4.216  0.2483  3.6195 -1.0255
 3206TIP3    H2 9583   2.163   1.751   4.353  0.3395 -3.7167  2.8651
 3207TIP3   OH2 9584   4.233   5.021   5.606  0.2645  0.1079 -0.6768
 3207TIP3    H1 9585   4.173   4.980   5.544  1.0744  0.2515 -1.5883
 3207TIP3    H2 9586   4.200   4.995   5.692 -0.4734 -0.6902 -1.1790
 3208TIP3   OH2 9587   2.077   6.580   2.694 -0.0139 -0.1877  0.1828
 3208TIP3    H1 9588   2.044   6.560   2.607 -0.3821  0.6974  0.1056
 3208TIP3    H2 9589   2.136   6.508   2.715 -0.3252 -0.6724 -0.5803
 3209TIP3   OH2 9590   0.043   0.720   4.735  0.6350  0.0351  0.1262
 3209TIP3    H1 9591  -0.000   0.721   4.820 -1.3113 -0.2667 -0.8013
 3209TIP3    H2 9592   0.059   0.812   4.714 -0.1274  0.1962  0.2307
 3210TIP3   OH2 9593   5.672   1.458   5.464  0.4707 -0.1821  0.3199
 3210TIP3    H1 9594   5.596   1.486   5.514 -1.0355 -1.4248 -1.1464
 3210TIP3    H2 9595   5.700   1.535   5.416  0.4973  0.4196  1.2808
 3211TIP3   OH2 9596   1.311   2.102   3.607  0.2407 -0.7469  0.1598
 3211TIP3    H1 9597   1.395   2.129   3.570  1.1349 -1.0981  1.8035
 3211TIP3    H2 9598   1.280   2.178   3.656 -0.2816 -0.6974 -0.2424
 3212TIP3   OH2 9599   5.223   3.865   2.144  0.7394  0.6226 -0.5758
 3212TIP3    H1 9600   5.260   3.894   2.227  0.9996  0.0183 -0.4759
 3212TIP3    H2 9601   5.249   3.933   2.081 -1.2652  2.2228  0.2049
 3213TIP3   OH2 9602   0.965   5.527   1.992 -0.0113 -0.3545  0.2911
 3213TIP3    H1 9603   1.041   5.584   1.998  0.6058 -1.2070  0.6960
 3213TIP3    H2 9604   0.932   5.540   1.903  0.2119  0.5053  0.3273
 3214TIP3   OH2 9605   4.405   0.272   1.930 -0.0308  0.2011  0.4367
 3214TIP3    H1 9606   4.312   0.294   1.933  0.0190  0.4336  0.2938
 3214TIP3    H2 9607   4.450   0.357   1.933  0.1544  0.1628 -0.9325
 3215TIP3   OH2 9608   6.429   0.852   1.187 -0.0902  0.1902 -0.0174
 3215TIP3    H1 9609   6.410   0.900   1.106  1.0619 -0.4392 -0.6900
 3215TIP3    H2 9610   6.445   0.762   1.158 -4.5821 -1.3843  1.4092
 3216TIP3   OH2 9611   4.447   6.666   4.335 -0.4986 -0.2201 -0.1093
 3216TIP3    H1 9612   4.456   6.582   4.289 -2.8096 -0.4510 -0.2781
 3216TIP3    H2 9613   4.418   6.727   4.267 -2.6237 -0.2427  0.7055
 3217TIP3   OH2 9614   5.063   2.227   3.695 -0.0071 -0.3767 -0.5695
 3217TIP3    H1 9615   5.093   2.311   3.661 -1.0854  0.0976 -0.4021
 3217TIP3    H2 9616   5.133   2.197   3.752  0.0380  0.8234  0.0381
 3218TIP3   OH2 9617   2.420   6.346   3.593  0.2098  0.3443 -0.1513
 3218TIP3    H1 9618   2.454   6.261   3.623  0.5347  0.8832  1.0605
 3218TIP3    H2 9619   2.339   6.325   3.548 -0.2000 -0.5368  0.9483
 3219TIP3   OH2 9620   4.722   3.161   4.606  0.0028  0.2020  0.1510
 3219TIP3    H1 9621   4.773   3.097   4.657  1.0532  0.9904  0.1201
 3219TIP3    H2 9622   4.636   3.120   4.596  0.4157 -0.8720  0.7875
 3220TIP3   OH2 9623   1.980   2.517   3.065 -0.1827  0.4314  0.3903
 3220TIP3    H1 9624   2.066   2.480   3.043 -0.6857 -1.0546  0.7764
 3220TIP3    H2 9625   1.926   2.499   2.987 -0.5584 -0.1234  0.7646
 3221TIP3   OH2 9626   0.380   5.887   1.046 -0.0614  0.1888 -0.2780
 3221TIP3    H1 9627   0.395   5.815   1.108  2.0496  0.8218  0.0225
 3221TIP3    H2 9628   0.319   5.946   1.091  1.7852  0.8643  1.4472
 3222TIP3   OH2 9629   3.892   6.488   1.216 -0.1846  0.2410 -0.0822
 3222TIP3    H1 9630   3.861   6.531   1.296  1.1618  0.4307  0.3601
 3222TIP3    H2 9631   3.968   6.539   1.189  0.8931 -1.2919 -0.0718
 3223TIP3   OH2 9632   0.251   0.096   1.095 -0.5434  0.3290 -0.0618
 3223TIP3    H1 9633   0.174   0.103   1.038  0.2602  1.3962 -1.0631
 3223TIP3    H2 9634   0.264   0.002   1.106 -0.6224  0.0737 -1.8094
 3224TIP3   OH2 9635   7.013   3.810   2.961 -0.2099  0.2216  0.1853
 3224TIP3    H1 9636   7.055   3.786   2.878 -1.5699  0.3840 -0.5831
 3224TIP3    H2 9637   7.003   3.726   3.007  3.5286  0.4205  1.7733
 3225TIP3   OH2 9638   4.758   3.862   0.744 -0.2832  0.1218  0.1251
 3225TIP3    H1 9639   4.776   3.780   0.698 -0.2959  0.4041 -0.3860
 3225TIP3    H2 9640   4.692   3.839   0.809 -1.7535  0.1253 -1.3178
 3226TIP3   OH2 9641   3.762   0.159   4.759  0.4011 -0.2220 -0.1954
 3226TIP3    H1 9642   3.700   0.100   4.715 -0.4055  1.0077 -0.7502
 3226TIP3    H2 9643   3.847   0.136   4.721  0.2848 -1.7379  0.3647
 3227TIP3   OH2 9644   4.442   1.462   0.707 -0.7067 -0.1725 -0.2307
 3227TIP3    H1 9645   4.376   1.455   0.775  0.3970  0.2787  0.9241
 3227TIP3    H2 9646   4.487   1.544   0.725 -1.3835  0.7762 -2.4603
 3228TIP3   OH2 9647   1.376   2.135   3.276 -0.3906 -0.1979  0.0435
 3228TIP3    H1 9648   1.345   2.053   3.313 -1.5331  0.3267  0.2947
 3228TIP3    H2 9649   1.324   2.147   3.196  0.7368 -0.3908 -0.7488
 3229TIP3   OH2 9650   5.239   0.319   1.596  0.1571  0.3672 -0.1030
 3229TIP3    H1 9651   5.197   0.246   1.552  0.8726 -0.5179  0.6552
 3229TIP3    H2 9652   5.261   0.380   1.525 -2.2843  0.8446 -0.5321
 3230TIP3   OH2 9653   1.567   1.737   2.776  0.1784  0.3531  0.2509
 3230TIP3    H1 9654   1.607   1.795   2.711 -1.8166  0.5950 -0.8444
 3230TIP3    H2 9655   1.609   1.652   2.761  0.7270  0.7248 -0.3962
 3231TIP3   OH2 9656   1.386   1.239   3.550 -0.5542 -0.3515 -0.0303
 3231TIP3    H1 9657   1.413   1.328   3.574 -0.2613 -0.0667 -1.3275
 3231TIP3    H2 9658   1.291   1.243   3.547 -0.5755 -0.2798  0.6305
 3232TIP3   OH2 9659   3.185   3.718   5.017  0.1161 -0.0400  0.0555
 3232TIP3    H1 9660   3.240   3.658   5.068  0.5245  0.4635  0.2109
 3232TIP3    H2 9661   3.189   3.800   5.065  1.3630  0.7655 -1.3296
 3233TIP3   OH2 9662   3.419   2.960   5.697  0.1095 -0.5731 -0.5189
 3233TIP3    H1 9663   3.344   3.015   5.717  1.5376  1.3163 -0.1345
 3233TIP3    H2 9664   3.409   2.939   5.604  0.1619  1.4503 -1.0270
 3234TIP3   OH2 9665   2.350   0.201   5.628  0.6142  0.1265  0.0886
 3234TIP3    H1 9666   2.322   0.292   5.621 -0.1922 -0.1430 -0.4266
 3234TIP3    H2 9667   2.390   0.182   5.543  1.1160  0.1013  0.3266
 3235TIP3   OH2 9668   2.463   6.228   5.522 -0.0009 -0.7641  0.6939
 3235TIP3    H1 9669   2.414   6.197   5.599  1.8102 -0.1434  2.1626
 3235TIP3    H2 9670   2.488   6.149   5.476 -2.0164 -1.1146  0.0980
 3236TIP3   OH2 9671   5.015   6.384   1.138  0.6933  0.0206  0.1121
 3236TIP3    H1 9672   4.959   6.308   1.148  2.4104 -1.4815 -1.0894
 3236TIP3    H2 9673   5.104   6.349   1.144  1.5329  1.9874 -0.1175
 3237TIP3   OH2 9674   0.848   0.858   2.416  0.2826 -0.3741 -0.5004
 3237TIP3    H1 9675   0.868   0.876   2.324 -0.3867  0.8798 -0.4260
 3237TIP3    H2 9676   0.823   0.943   2.452  1.2694 -0.7000  1.0438
 3238TIP3   OH2 9677   2.087   6.682   0.957 -0.1849  0.8475 -0.2452
 3238TIP3    H1 9678   2.067   6.713   1.046  0.4980  0.7501 -0.0533
 3238TIP3    H2 9679   2.028   6.607   0.945  0.7264 -0.0775  0.7103
 3239TIP3   OH2 9680   1.192   2.819   3.956 -0.0079  0.0250 -0.6826
 3239TIP3    H1 9681   1.281   2.791   3.978  0.0537  1.2185  0.7337
 3239TIP3    H2 9682   1.149   2.740   3.923  1.1064 -0.9663  0.1622
 3240TIP3   OH2 9683   0.139   5.251   1.506 -0.6778  0.0168  0.1604
 3240TIP3    H1 9684   0.223   5.246   1.461  0.6013  0.8625  2.3448
 3240TIP3    H2 9685   0.124   5.163   1.542 -0.4648  0.0134  0.2376
 3241TIP3   OH2 9686   3.006   2.928   4.049  0.3388 -0.1372  0.7083
 3241TIP3    H1 9687   2.952   2.854   4.020 -1.2358  0.4089  2.0844
 3241TIP3    H2 9688   2.948   2.981   4.103  2.2278  0.5486  2.2160
 3242TIP3   OH2 9689   5.026   3.439   4.254  0.4156  0.1854 -0.2979
 3242TIP3    H1 9690   4.979   3.359   4.278  0.8252  0.1219  0.3199
 3242TIP3    H2 9691   5.069   3.467   4.335  1.7018  0.0634 -0.9066
 3243TIP3   OH2 9692   1.181   5.310   2.590  0.5591  0.1464  0.0960
 3243TIP3    H1 9693   1.228   5.342   2.667 -0.1390  1.0291  0.1720
 3243TIP3    H2 9694   1.191   5.380   2.526  2.0912 -1.0567 -1.0356
 3244TIP3   OH2 9695   6.502   1.044   1.760  1.0805 -0.2448  0.4757
 3244TIP3    H1 9696   6.536   1.121   1.713  0.0482 -0.2192 -0.2561
 3244TIP3    H2 9697   6.561   0.973   1.736 -0.0542 -0.4990 -1.8221
 3245TIP3   OH2 9698   6.392   0.184   2.191  0.3082  0.4497 -0.0244
 3245TIP3    H1 9699   6.396   0.111   2.253 -0.5295  0.2657 -0.1782
 3245TIP3    H2 9700   6.337   0.249   2.234  1.4225  1.2019  0.3135
 3246TIP3   OH2 9701   2.067   0.274   3.061 -0.2055 -0.5017  0.0946
 3246TIP3    H1 9702   2.005   0.253   3.131 -0.0299 -0.6154  0.2179
 3246TIP3    H2 9703   2.023   0.244   2.981 -0.1958 -0.8333  0.2090
 3247TIP3   OH2 9704   0.453   6.177   4.236 -0.1231 -0.2103 -0.1137
 3247TIP3    H1 9705   0.393   6.152   4.166 -0.5595 -0.0145  0.1872
 3247TIP3    H2 9706   0.495   6.257   4.204 -1.2460  0.6044  0.3591
 3248TIP3   OH2 9707   0.844   6.259   0.800 -1.0198  0.4312  0.3697
 3248TIP3    H1 9708   0.753   6.286   0.789 -1.0316  0.7588  1.1719
 3248TIP3    H2 9709   0.879   6.256   0.712 -1.0935  2.7996  0.2014
 3249TIP3   OH2 9710   2.633   2.328   0.207 -0.2420 -0.0965 -0.2961
 3249TIP3    H1 9711   2.713   2.367   0.242  0.3216  0.3320 -1.9735
 3249TIP3    H2 9712   2.663   2.259   0.148 -1.1180 -0.2171 -0.6233
 3250TIP3   OH2 9713   5.542   6.122   2.171 -0.3978 -0.1311 -0.5583
 3250TIP3    H1 9714   5.490   6.044   2.188  0.0645 -0.5870 -1.1733
 3250TIP3    H2 9715   5.483   6.181   2.126 -0.0924 -1.1187 -2.3596
 3251TIP3   OH2 9716   0.428   5.143   5.620 -0.4999  0.4417  0.4636
 3251TIP3    H1 9717   0.350   5.180   5.578  0.0112  0.0222 -0.8902
 3251TIP3    H2 9718   0.501   5.191   5.581  0.4221 -3.2862 -3.1014
 3252TIP3   OH2 9719   0.470   5.033   3.484 -0.2903  0.0143 -0.4394
 3252TIP3    H1 9720   0.540   5.031   3.550 -0.9049  0.9135  0.2558
 3252TIP3    H2 9721   0.500   5.094   3.418  0.1383 -0.5690 -0.7964
 3253TIP3   OH2 9722   3.837   4.610   0.178 -0.5368 -0.0808  0.6405
 3253TIP3    H1 9723   3.773   4.626   0.247  0.3270  0.5426  1.3226
 3253TIP3    H2 9724   3.922   4.611   0.224 -0.1166 -2.4700  0.0423
 3254TIP3   OH2 9725   5.627   5.305   4.563 -0.0637 -0.0333  0.6097
 3254TIP3    H1 9726   5.664   5.266   4.485  0.3379  0.5280  0.5168
 3254TIP3    H2 9727   5.544   5.258   4.576 -0.0521 -0.2444 -0.0463
 3255TIP3   OH2 9728   1.700   6.416   1.616  0.3923  0.3030 -0.1184
 3255TIP3    H1 9729   1.771   6.381   1.562  0.3242 -0.6184  0.3670
 3255TIP3    H2 9730   1.643   6.341   1.632 -0.4875  0.9467 -0.1684
 3256TIP3   OH2 9731   5.531   4.055   1.221  0.8263 -0.1402 -0.6213
 3256TIP3    H1 9732   5.552   4.102   1.141  0.4588 -0.5969 -0.9886
 3256TIP3    H2 9733   5.591   3.980   1.222  1.5238  0.4039  0.0444
 3257TIP3   OH2 9734   4.494   5.122   2.226 -0.3777  0.8651 -0.6669
 3257TIP3    H1 9735   4.411   5.168   2.238 -1.0394  0.1217 -2.1342
 3257TIP3    H2 9736   4.475   5.032   2.249  1.1113  1.3211  2.9697
 3258TIP3   OH2 9737   0.817   2.640   5.878 -0.2433  0.0851  0.2852
 3258TIP3    H1 9738   0.802   2.563   5.824 -0.5129 -0.7062  1.4601
 3258TIP3    H2 9739   0.882   2.691   5.830  2.3402 -2.3748  0.9098
 3259TIP3   OH2 9740   3.618   1.962   5.725 -0.4227  0.1008 -0.3013
 3259TIP3    H1 9741   3.618   1.868   5.743 -0.3862 -0.0898 -1.2117
 3259TIP3    H2 9742   3.537   1.978   5.677 -0.3387  0.4931 -0.3201
 3260TIP3   OH2 9743   1.082   5.557   4.547 -0.8046 -0.2766  0.2654
 3260TIP3    H1 9744   1.020   5.626   4.522  0.1782  0.5819  0.1661
 3260TIP3    H2 9745   1.090   5.565   4.642 -1.3807 -0.8572  0.3701
 3261TIP3   OH2 9746   1.429   5.186   0.904  0.2430  0.9455 -0.5876
 3261TIP3    H1 9747   1.369   5.210   0.975  0.0737  0.3700 -0.5369
 3261TIP3    H2 9748   1.487   5.262   0.896  0.6969  0.7392  0.6222
 3262TIP3   OH2 9749   0.118   5.119   3.191  0.1124 -0.1207  0.0431
 3262TIP3    H1 9750   0.116   5.024   3.206  0.8331  0.0436  1.2488
 3262TIP3    H2 9751   0.209   5.138   3.168 -0.0767  0.2517 -0.4040
 3263TIP3   OH2 9752   3.741   3.756   1.791 -0.1949 -0.0778 -0.0222
 3263TIP3    H1 9753   3.735   3.688   1.858 -0.6330 -0.4009 -0.3837
 3263TIP3    H2 9754   3.748   3.837   1.840  3.2686 -0.5324  0.5105
 3264TIP3   OH2 9755   6.690   1.288   1.383  0.2824  0.3514 -0.1444
 3264TIP3    H1 9756   6.737   1.333   1.313 -1.1327 -0.8249 -1.9313
 3264TIP3    H2 9757   6.671   1.202   1.347 -1.6295  0.1618  1.2140
 3265TIP3   OH2 9758   5.277   3.032   1.929 -0.2123  0.2253 -0.2899
 3265TIP3    H1 9759   5.264   2.941   1.905  0.7092 -0.2997  1.0413
 3265TIP3    H2 9760   5.362   3.055   1.893 -0.0187  0.2558  0.1757
 3266TIP3   OH2 9761   6.201   1.487   1.457  0.1959  0.3563 -0.6445
 3266TIP3    H1 9762   6.153   1.512   1.536  2.2598  1.0534  0.4589
 3266TIP3    H2 9763   6.236   1.400   1.477  0.9342  0.6389 -0.6606
 3267TIP3   OH2 9764   5.707   4.425   3.123  0.2381 -0.3103  0.4554
 3267TIP3    H1 9765   5.695   4.369   3.046  2.1397 -2.1801  1.3967
 3267TIP3    H2 9766   5.725   4.512   3.087 -2.3728 -0.2816 -1.0755
 3268TIP3   OH2 9767   6.173   0.491   2.317  0.2364 -0.4511  0.0891
 3268TIP3    H1 9768   6.128   0.436   2.252  1.1326  0.1760 -1.1031
 3268TIP3    H2 9769   6.210   0.429   2.380 -1.8752 -1.0013  0.8715
 3269TIP3   OH2 9770   5.777   5.027   5.177  0.0457 -0.1548  1.0018
 3269TIP3    H1 9771   5.692   5.041   5.135 -0.2552  0.1403  1.6953
 3269TIP3    H2 9772   5.763   4.951   5.234  0.9099 -1.6365 -0.6652
 3270TIP3   OH2 9773   3.433   6.646   0.659 -0.3617  0.2172 -0.2561
 3270TIP3    H1 9774   3.453   6.722   0.714 -0.5404 -0.5710  0.9239
 3270TIP3    H2 9775   3.337   6.641   0.658 -0.3403 -0.4227  0.2864
 3271TIP3   OH2 9776   4.863   2.350   1.486 -0.1157 -0.2301 -0.3827
 3271TIP3    H1 9777   4.912   2.334   1.567 -0.8289 -1.0692 -0.1028
 3271TIP3    H2 9778   4.838   2.442   1.491  2.3193  0.5536 -1.0401
 3272TIP3   OH2 9779   4.294   1.363   0.470 -0.1935 -0.5655 -0.3604
 3272TIP3    H1 9780   4.307   1.279   0.515  0.2068 -0.9955 -1.2694
 3272TIP3    H2 9781   4.363   1.419   0.505  0.9620 -1.3002 -1.3874
 3273TIP3   OH2 9782   3.955   4.260   3.806  0.5259 -0.5981  0.3930
 3273TIP3    H1 9783   3.908   4.341   3.789  0.8851 -0.5476 -0.3911
 3273TIP3    H2 9784   4.045   4.288   3.824  0.5692 -0.7998  0.4998
 3274TIP3   OH2 9785   6.578   3.702   3.922  0.5877  0.3079  0.9415
 3274TIP3    H1 9786   6.487   3.733   3.928  0.4495 -0.3372  2.5682
 3274TIP3    H2 9787   6.629   3.781   3.908 -0.0621  0.8934  1.7862
 3275TIP3   OH2 9788   5.673   0.710   0.224 -0.3588 -0.4524  0.3367
 3275TIP3    H1 9789   5.633   0.627   0.251  0.7358 -0.9174  0.5883
 3275TIP3    H2 9790   5.612   0.747   0.160 -0.3549 -1.9746 -0.5852
 3276TIP3   OH2 9791   3.360   0.729   0.369  0.0157  0.3399  0.3337
 3276TIP3    H1 9792   3.320   0.655   0.322 -1.4316  2.1100 -1.4002
 3276TIP3    H2 9793   3.309   0.736   0.450  0.4794 -0.8076  0.7560
 3277TIP3   OH2 9794   2.180   4.735   0.755  0.0080  0.6037 -0.0282
 3277TIP3    H1 9795   2.144   4.647   0.767  1.8958 -0.3900 -1.1504
 3277TIP3    H2 9796   2.169   4.777   0.841 -3.8293  0.5015 -0.2957
 3278TIP3   OH2 9797   0.871   4.832   1.502 -0.5082 -0.4097 -0.0449
 3278TIP3    H1 9798   0.954   4.880   1.497 -1.0371  0.5302  0.1885
 3278TIP3    H2 9799   0.821   4.861   1.426  0.4638 -3.1290 -1.8908
 3279TIP3   OH2 9800   3.263   4.512   5.496 -0.3720  0.2502  0.3757
 3279TIP3    H1 9801   3.349   4.521   5.456 -1.5699  1.1571 -2.2553
 3279TIP3    H2 9802   3.262   4.423   5.532  1.5113  0.1142  0.2018
 3280TIP3   OH2 9803   3.247   0.095   5.004 -0.1264  0.3842  0.3405
 3280TIP3    H1 9804   3.288   0.156   4.942 -0.4616  1.3723  1.0634
 3280TIP3    H2 9805   3.273   0.127   5.090  0.3642 -1.0026  0.7339
 3281TIP3   OH2 9806   1.319   0.117   3.866 -0.2470 -0.7062  0.2253
 3281TIP3    H1 9807   1.265   0.174   3.811  1.8531  0.5905 -0.6523
 3281TIP3    H2 9808   1.340   0.171   3.942 -0.1268 -1.1448  0.5029
 3282TIP3   OH2 9809   6.024   6.700   1.400 -0.1771 -0.8561 -0.4682
 3282TIP3    H1 9810   6.058   6.630   1.455  1.6877  1.1798  1.1668
 3282TIP3    H2 9811   6.071   6.691   1.317  0.5960 -1.1304 -0.0097
 3283TIP3   OH2 9812   4.685   6.142   3.332  0.8118 -0.4261 -0.2693
 3283TIP3    H1 9813   4.735   6.210   3.288 -0.5059  0.2032 -0.8480
 3283TIP3    H2 9814   4.649   6.088   3.261 -0.5676  0.0525  0.0220
 3284TIP3   OH2 9815   1.434   1.810   4.807 -0.4462  0.0183 -0.0572
 3284TIP3    H1 9816   1.454   1.726   4.766 -1.2305 -0.0731 -0.2799
 3284TIP3    H2 9817   1.479   1.875   4.753  0.9884 -0.3120  0.6920
 3285TIP3   OH2 9818   5.546   0.200   2.296 -0.5834  0.1621 -0.1889
 3285TIP3    H1 9819   5.566   0.236   2.382  2.7512 -1.8169  0.0276
 3285TIP3    H2 9820   5.500   0.118   2.314  2.4900 -1.6734  0.0320
 3286TIP3   OH2 9821   3.938   3.100   0.270 -0.2940  0.5264  0.5362
 3286TIP3    H1 9822   3.886   3.116   0.192  0.5341 -0.2668 -0.2051
 3286TIP3    H2 9823   4.014   3.158   0.261 -0.1637  0.3857  0.7091
 3287TIP3   OH2 9824   1.913   1.572   4.459  0.2195 -0.0994 -0.5588
 3287TIP3    H1 9825   1.832   1.611   4.428 -0.3069  0.0797  0.9713
 3287TIP3    H2 9826   1.981   1.612   4.406 -0.6442  0.1218 -1.5130
 3288TIP3   OH2 9827   1.728   1.206   3.500  0.2501 -0.7460 -0.2345
 3288TIP3    H1 9828   1.746   1.298   3.481  1.3179 -0.6833  0.9116
 3288TIP3    H2 9829   1.638   1.192   3.471  0.2434  0.5164 -0.8956
 3289TIP3   OH2 9830   1.037   1.230   2.242 -0.0611 -0.3755  0.2503
 3289TIP3    H1 9831   1.114   1.270   2.201 -0.6007 -0.2961 -0.7154
 3289TIP3    H2 9832   1.072   1.181   2.316  0.9429 -0.5402 -0.3174
 3290TIP3   OH2 9833   0.829   1.763   4.761  0.4840  0.3458 -0.7613
 3290TIP3    H1 9834   0.769   1.696   4.728  0.4853 -0.2716  0.4317
 3290TIP3    H2 9835   0.786   1.796   4.840  1.2481  0.6093 -0.4459
 3291TIP3   OH2 9836   4.745   1.362   0.178 -0.3865 -0.0774 -0.0398
 3291TIP3    H1 9837   4.811   1.361   0.247  0.1741  0.0086 -0.5609
 3291TIP3    H2 9838   4.764   1.284   0.125 -2.4335 -1.6503  1.3581
 3292TIP3   OH2 9839   5.361   3.327   2.219  0.0965 -0.4826 -0.5091
 3292TIP3    H1 9840   5.362   3.397   2.153 -0.2575  0.3264  0.3231
 3292TIP3    H2 9841   5.452   3.298   2.225  0.0537 -0.9130 -1.7033
 3293TIP3   OH2 9842   0.038   2.576   4.649 -0.0124 -0.1129  0.1791
 3293TIP3    H1 9843   0.011   2.559   4.559  1.4208  0.6317 -0.4290
 3293TIP3    H2 9844   0.130   2.602   4.642  0.5234 -1.3283  2.0075
 3294TIP3   OH2 9845   4.381   2.095   1.677 -0.4602 -0.1245 -0.3475
 3294TIP3    H1 9846   4.457   2.152   1.684 -1.4829  1.2316 -0.0469
 3294TIP3    H2 9847   4.409   2.026   1.616  0.7026  0.8408 -0.9493
 3295TIP3   OH2 9848   4.408   3.986   0.498  0.0590  0.2569 -0.6140
 3295TIP3    H1 9849   4.446   4.073   0.511  2.1010 -0.6358 -0.2482
 3295TIP3    H2 9850   4.348   3.998   0.424 -2.6837  2.7725  1.7474
 3296TIP3   OH2 9851   0.934   0.185   3.159 -0.1111  0.5060  0.2432
 3296TIP3    H1 9852   1.004   0.173   3.223 -0.5718  1.1572  0.8914
 3296TIP3    H2 9853   0.938   0.108   3.103 -0.0153 -0.3230  1.3680
 3297TIP3   OH2 9854   0.492   1.266   3.343  0.2709 -0.2322 -0.1270
 3297TIP3    H1 9855   0.564   1.278   3.406  0.4030  0.1720 -0.3451
 3297TIP3    H2 9856   0.435   1.200   3.382  0.9404 -0.8079 -0.1052
 3298TIP3   OH2 9857   4.068   0.514   1.813  0.3565 -0.3188 -0.4967
 3298TIP3    H1 9858   4.066   0.440   1.873  0.8817  1.0187  1.2325
 3298TIP3    H2 9859   4.137   0.572   1.847  0.2654  0.7860 -2.0386
 3299TIP3   OH2 9860   5.319   0.703   0.218 -0.1901 -0.4881 -0.2571
 3299TIP3    H1 9861   5.304   0.626   0.272  1.4765 -0.9992 -0.4822
 3299TIP3    H2 9862   5.366   0.670   0.141  0.5456  0.7384 -0.3621
 3300TIP3   OH2 9863   0.289   4.333   1.339 -0.0273  0.2006 -0.3173
 3300TIP3    H1 9864   0.265   4.404   1.398 -0.5574 -0.1564 -0.0978
 3300TIP3    H2 9865   0.385   4.336   1.335  0.1833 -0.8891  1.9984
 3301TIP3   OH2 9866   3.331   6.097   5.808 -0.1463  0.9184 -0.4405
 3301TIP3    H1 9867   3.369   6.018   5.769 -1.8799  0.0410 -0.4838
 3301TIP3    H2 9868   3.261   6.064   5.865  0.5309  2.3305  1.2972
 3302TIP3   OH2 9869   3.763   3.130   0.042 -0.0720 -0.3466  0.3710
 3302TIP3    H1 9870   3.683   3.177   0.062  0.2659  0.0557  0.8025
 3302TIP3    H2 9871   3.758   3.111  -0.052 -1.3736 -1.6711  0.6647
 3303TIP3   OH2 9872   2.940   0.603   3.707  0.3865 -0.1799 -0.3782
 3303TIP3    H1 9873   2.914   0.692   3.728 -0.5371 -0.4312 -0.4101
 3303TIP3    H2 9874   2.996   0.576   3.780 -1.2325 -0.3819  0.8542
 3304TIP3   OH2 9875   2.661   0.421   3.297  0.4990 -0.2992  0.1181
 3304TIP3    H1 9876   2.635   0.490   3.358 -1.0517 -1.8368  1.2958
 3304TIP3    H2 9877   2.697   0.468   3.222 -0.0806  1.7593  1.0455
 3305TIP3   OH2 9878   3.017   2.651   1.956  0.2537 -0.2325  0.1703
 3305TIP3    H1 9879   2.923   2.644   1.974 -0.0072  1.1814 -0.5232
 3305TIP3    H2 9880   3.043   2.735   1.995  1.1699 -0.4486  0.0614
 3306TIP3   OH2 9881   4.928   3.627   0.879  0.5185  0.0437 -0.9384
 3306TIP3    H1 9882   4.902   3.693   0.943 -1.1250 -0.6394 -0.8453
 3306TIP3    H2 9883   5.005   3.664   0.837  1.7567  0.4683  1.4898
 3307TIP3   OH2 9884   6.860   4.364   4.678  0.1171  0.0995  0.2952
 3307TIP3    H1 9885   6.925   4.303   4.644  0.5077  0.0217  1.1390
 3307TIP3    H2 9886   6.905   4.449   4.678  0.6738 -0.1456  1.9791
 3308TIP3   OH2 9887   3.414   5.429   3.245  0.0734  0.1211  0.6268
 3308TIP3    H1 9888   3.357   5.466   3.179 -0.6946 -0.9853  0.6482
 3308TIP3    H2 9889   3.355   5.387   3.308  0.8777 -0.6586  0.8844
 3309TIP3   OH2 9890   1.900   5.687   2.514  1.0199  0.3752  0.0540
 3309TIP3    H1 9891   1.870   5.690   2.423 -0.5331 -1.8153  0.4179
 3309TIP3    H2 9892   1.827   5.724   2.565  1.5433  0.8303  0.4888
 3310TIP3   OH2 9893   1.790   0.783   0.890  0.1997 -0.2079  0.0568
 3310TIP3    H1 9894   1.845   0.852   0.852  0.9375 -0.3098  0.9072
 3310TIP3    H2 9895   1.765   0.818   0.976  0.1371 -0.7823  0.2735
 3311TIP3   OH2 9896   5.827   0.052   1.914 -0.0445 -0.2208  0.5850
 3311TIP3    H1 9897   5.841   0.010   1.998  2.2530 -1.3968 -0.2877
 3311TIP3    H2 9898   5.875  -0.004   1.851  2.4184  3.0868 -0.7974
 3312TIP3   OH2 9899   1.141   4.965   3.162 -0.0483 -0.2571 -0.0978
 3312TIP3    H1 9900   1.067   4.952   3.103  0.6019 -0.2859 -0.9269
 3312TIP3    H2 9901   1.218   4.948   3.108  0.6276  1.2633  0.3272
 3313TIP3   OH2 9902   0.715   1.166   1.053 -0.4795 -0.5348 -0.3021
 3313TIP3    H1 9903   0.622   1.175   1.033 -0.9429 -1.1932  1.3798
 3313TIP3    H2 9904   0.757   1.160   0.967 -1.7259  1.7188 -1.1590
 3314TIP3   OH2 9905   0.033   3.978   0.537  0.6158  0.4396  0.5710
 3314TIP3    H1 9906  -0.034   3.992   0.470 -0.1790 -0.7689  1.0803
 3314TIP3    H2 9907   0.104   3.935   0.490  0.4223  0.3810  0.3287
 3315TIP3   OH2 9908   7.204   4.491   3.038  0.3688 -0.2573  0.1382
 3315TIP3    H1 9909   7.184   4.405   3.000  0.1818 -0.4815  0.7362
 3315TIP3    H2 9910   7.144   4.499   3.112 -1.3622  1.4293 -1.3384
 3316TIP3   OH2 9911   4.239   2.417   2.718  0.0353  0.1347 -0.2285
 3316TIP3    H1 9912   4.183   2.344   2.743  0.6509 -0.3726 -0.2894
 3316TIP3    H2 9913   4.324   2.397   2.758  1.2526 -1.0379 -3.1471
 3317TIP3   OH2 9914   3.913   1.943   2.267  0.0235 -0.0459  0.3979
 3317TIP3    H1 9915   3.960   2.026   2.275  1.2116 -0.5556 -0.8874
 3317TIP3    H2 9916   3.960   1.883   2.325 -0.5131  0.0264  0.9196
 3318TIP3   OH2 9917   2.040   5.266   5.049  0.2092 -0.3276 -0.0379
 3318TIP3    H1 9918   2.073   5.220   4.972  0.7235  0.3047 -0.1957
 3318TIP3    H2 9919   1.987   5.338   5.015 -1.0776 -1.1183  0.2111
 3319TIP3   OH2 9920   1.213   1.210   4.590 -0.2725 -0.6020  0.5625
 3319TIP3    H1 9921   1.239   1.297   4.561 -0.0177 -0.7628  0.3060
 3319TIP3    H2 9922   1.245   1.151   4.522 -1.6580 -0.7772  0.0255
 3320TIP3   OH2 9923   0.976   3.840   1.621 -0.4972 -0.0323 -0.0041
 3320TIP3    H1 9924   1.005   3.761   1.576  0.2334 -0.2499  0.8334
 3320TIP3    H2 9925   0.884   3.849   1.596 -0.4906 -0.9448 -0.3869
 3321TIP3   OH2 9926   1.530   4.988   5.489  0.2523  0.2817 -0.1552
 3321TIP3    H1 9927   1.472   4.971   5.563  0.8749 -1.1187  0.0458
 3321TIP3    H2 9928   1.606   4.931   5.504  0.6199  0.3337 -1.6101
 3322TIP3   OH2 9929   6.034   6.645   3.438 -0.1081  0.2160  0.1380
 3322TIP3    H1 9930   6.091   6.571   3.421  0.2074  0.7058 -1.0516
 3322TIP3    H2 9931   6.059   6.675   3.525  0.7422 -0.2065  0.0495
 3323TIP3   OH2 9932   0.132   5.808   3.452  0.1390  0.6408  0.2127
 3323TIP3    H1 9933   0.076   5.873   3.410  0.5115  0.6908 -0.2061
 3323TIP3    H2 9934   0.207   5.798   3.393  0.4422  0.3751  0.6350
 3324TIP3   OH2 9935   1.782   4.916   4.951 -0.4914 -0.1372 -0.3832
 3324TIP3    H1 9936   1.808   4.980   4.884 -0.2666  1.0338  0.7736
 3324TIP3    H2 9937   1.860   4.861   4.962  0.4527  1.3381  0.7625
 3325TIP3   OH2 9938   3.630   0.328   3.344  0.5831  0.5409 -0.7041
 3325TIP3    H1 9939   3.568   0.352   3.413  1.6120  0.7437  0.1718
 3325TIP3    H2 9940   3.658   0.412   3.308 -0.5473  0.4171 -1.9404
 3326TIP3   OH2 9941   1.449   4.620   1.022 -0.1606  0.2132  0.1832
 3326TIP3    H1 9942   1.414   4.678   1.090  0.0566 -0.2743  0.7173
 3326TIP3    H2 9943   1.513   4.674   0.976 -1.3114  0.9891 -0.5588
 3327TIP3   OH2 9944   2.782   3.685   4.354 -0.2363 -0.2958  0.1521
 3327TIP3    H1 9945   2.749   3.630   4.426 -0.3540 -1.6851 -0.9199
 3327TIP3    H2 9946   2.830   3.755   4.398 -0.4885 -0.9794  1.5938
 3328TIP3   OH2 9947   4.238   3.435   0.907 -0.2424 -0.5183 -0.5237
 3328TIP3    H1 9948   4.181   3.508   0.930 -1.7366 -1.7958 -0.0254
 3328TIP3    H2 9949   4.249   3.442   0.812 -1.4867 -0.4073 -0.6718
 3329TIP3   OH2 9950   4.642   0.983   4.989 -0.5382 -0.3263 -0.3024
 3329TIP3    H1 9951   4.626   0.938   4.906 -0.8551  1.6737 -1.3923
 3329TIP3    H2 9952   4.565   0.964   5.042 -1.2556 -0.0625 -1.2227
 3330TIP3   OH2 9953   5.572   1.384   1.924  0.3698  0.3416 -0.1301
 3330TIP3    H1 9954   5.659   1.424   1.929 -0.9017  3.3477  0.3501
 3330TIP3    H2 9955   5.547   1.393   1.833  0.5219 -0.5114 -0.2639
 3331TIP3   OH2 9956   3.615   4.259   4.469  0.4331  0.2852 -0.8498
 3331TIP3    H1 9957   3.533   4.211   4.479  1.0139 -0.4440  0.7109
 3331TIP3    H2 9958   3.652   4.226   4.387  0.3872 -1.3224 -0.2663
 3332TIP3   OH2 9959   0.987   2.047   1.780  0.0223  0.1342  0.1303
 3332TIP3    H1 9960   0.899   2.075   1.756 -0.6955 -0.4497  1.8855
 3332TIP3    H2 9961   0.978   1.955   1.805  1.4788 -0.4357 -1.2263
 3333TIP3   OH2 9962   0.287   6.708   1.094  0.1611  0.1291  0.5376
 3333TIP3    H1 9963   0.289   6.619   1.058  1.5371  0.6376 -0.7564
 3333TIP3    H2 9964   0.261   6.763   1.020 -1.5514  0.7530  1.5383
 3334TIP3   OH2 9965   2.747   0.304   3.704 -0.8705 -0.1088 -0.2106
 3334TIP3    H1 9966   2.706   0.389   3.716 -1.2852 -0.4490  0.9208
 3334TIP3    H2 9967   2.703   0.246   3.767  0.4914 -0.7678  0.1894
 3335TIP3   OH2 9968   4.120   4.563   4.411 -0.1501  0.1494 -0.2276
 3335TIP3    H1 9969   4.027   4.577   4.428  0.0067  0.2306  0.6215
 3335TIP3    H2 9970   4.148   4.642   4.365 -0.1678  0.8415  0.8996
 3336TIP3   OH2 9971   6.536   5.156   3.936 -0.4865 -0.0817  0.6167
 3336TIP3    H1 9972   6.504   5.088   3.996 -1.9875  1.2902  1.4524
 3336TIP3    H2 9973   6.624   5.176   3.967 -0.0061 -1.6367  0.3349
 3337TIP3   OH2 9974   0.348   6.481   0.149 -0.2225 -0.1329 -0.7163
 3337TIP3    H1 9975   0.414   6.413   0.148 -0.3953 -0.3182 -0.0989
 3337TIP3    H2 9976   0.279   6.447   0.206 -0.9372 -0.0276 -1.4936
 3338TIP3   OH2 9977   5.209   2.092   2.688  0.5555  0.1461  0.1992
 3338TIP3    H1 9978   5.236   2.024   2.750 -1.7718 -1.6789 -0.6534
 3338TIP3    H2 9979   5.206   2.047   2.603  0.3485  1.7036 -0.6556
 3339TIP3   OH2 9980   6.853   2.519   1.849 -0.7571 -0.2395 -0.1560
 3339TIP3    H1 9981   6.813   2.548   1.767 -0.1915  2.8865  0.5406
 3339TIP3    H2 9982   6.780   2.482   1.899 -1.6121  0.1513 -1.0747
 3340TIP3   OH2 9983   2.793   1.922   2.066  0.3953 -0.2552 -0.1475
 3340TIP3    H1 9984   2.855   1.889   2.002  1.7019  2.2971 -0.3391
 3340TIP3    H2 9985   2.842   1.923   2.149  0.6422  1.6415 -0.2719
 3341TIP3   OH2 9986   1.073   0.007   5.602 -0.3348  0.4704  0.1340
 3341TIP3    H1 9987   1.077   0.099   5.573 -0.0053  0.2083 -0.6880
 3341TIP3    H2 9988   1.019  -0.036   5.536  0.4955 -0.1610 -0.1484
 3342TIP3   OH2 9989   0.527   4.234   5.602 -0.6007  0.2952  0.3126
 3342TIP3    H1 9990   0.553   4.325   5.620 -0.7775  0.4820 -0.3487
 3342TIP3    H2 9991   0.605   4.183   5.621  0.0747  0.7794 -1.0292
 3343TIP3   OH2 9992   2.048   0.384   5.720  0.0117 -0.3459  0.0019
 3343TIP3    H1 9993   2.077   0.414   5.633 -1.2502 -2.1465 -1.0829
 3343TIP3    H2 9994   2.070   0.458   5.778  0.3915  1.1370 -1.9062
 3344TIP3   OH2 9995   2.966   5.332   5.735 -0.0885  0.2573  0.2556
 3344TIP3    H1 9996   2.998   5.387   5.807  0.2165 -0.0145  0.3307
 3344TIP3    H2 9997   2.901   5.275   5.776 -0.1218  0.2975  0.2589
 3345TIP3   OH2 9998   5.176   1.143   5.112 -0.2165 -0.9903  0.4878
 3345TIP3    H1 9999   5.267   1.118   5.126  0.4927  0.0696 -1.7220
 3345TIP3    H210000   5.139   1.150   5.200  2.0252 -0.7635  1.4834
 3346TIP3   OH210001   5.205   3.269   1.782 -1.0620 -0.7607 -0.0028
 3346TIP3    H110002   5.261   3.195   1.805 -0.7708 -0.6050 -0.2203
 3346TIP3    H210003   5.255   3.347   1.806 -0.0184 -0.5190 -2.6993
 3347TIP3   OH210004   2.833   5.928   0.091  0.6456 -0.3206 -0.3908
 3347TIP3    H110005   2.748   5.956   0.125  0.0971 -0.5142 -1.5426
 3347TIP3    H210006   2.872   5.877   0.162 -0.2210 -0.2658  0.1369
 3348TIP3   OH210007   1.485   2.910   5.765 -0.6843  0.5846  0.0425
 3348TIP3    H110008   1.527   2.944   5.844  1.6427 -1.7294 -0.0949
 3348TIP3    H210009   1.520   2.964   5.694  0.4010  0.0888  0.1836
 3349TIP3   OH210010   7.144   1.879   3.492  0.5101  0.3435  0.4630
 3349TIP3    H110011   7.079   1.868   3.422  1.7841 -1.7932 -0.4821
 3349TIP3    H210012   7.093   1.903   3.569 -1.5003 -1.8917 -0.0781
 3350TIP3   OH210013   3.029   3.430   1.170  0.1720 -0.4414  0.0496
 3350TIP3    H110014   2.979   3.462   1.095  0.7719  0.3754 -0.0149
 3350TIP3    H210015   2.963   3.394   1.230 -0.3743 -0.4518 -0.5433
 3351TIP3   OH210016   6.528   4.116   0.607  0.1334 -0.1719 -0.4650
 3351TIP3    H110017   6.441   4.146   0.580 -0.4468 -0.4308  1.0522
 3351TIP3    H210018   6.514   4.071   0.690  1.7966  0.2391  0.0765
 3352TIP3   OH210019   2.213   5.339   0.204 -0.5237 -0.1358  0.0831
 3352TIP3    H110020   2.121   5.361   0.191 -0.3758  0.2614 -0.3312
 3352TIP3    H210021   2.258   5.381   0.131 -0.0092 -0.2967  0.3022
 3353TIP3   OH210022   1.538   1.249   0.001 -0.1374 -0.2908 -0.6206
 3353TIP3    H110023   1.541   1.206   0.086 -1.8750  1.2558  0.3070
 3353TIP3    H210024   1.486   1.190  -0.054  0.1515 -0.8232 -0.3344
 3354TIP3   OH210025   3.487   3.600   1.270 -0.0320 -0.0691  0.9770
 3354TIP3    H110026   3.556   3.591   1.336  1.8468 -1.1069 -0.9954
 3354TIP3    H210027   3.471   3.694   1.264  3.0805  0.5110 -0.1952
 3355TIP3   OH210028   0.486   2.354   1.224  0.2818 -0.3458  0.4039
 3355TIP3    H110029   0.409   2.367   1.169 -0.2001  0.5822  1.2695
 3355TIP3    H210030   0.450   2.335   1.311  1.0343 -1.3361  0.5246
 3356TIP3   OH210031   2.820   6.241   2.753 -0.2966  0.6046 -0.0606
 3356TIP3    H110032   2.861   6.264   2.836 -0.3314 -0.7716  0.3734
 3356TIP3    H210033   2.874   6.170   2.718 -1.1257  0.1611 -0.4769
 3357TIP3   OH210034   3.131   2.963   4.781  0.1083  0.0276 -0.0462
 3357TIP3    H110035   3.145   2.929   4.869  2.1914 -0.7192 -0.6288
 3357TIP3    H210036   3.188   3.040   4.775  0.5278 -0.3380 -0.9600
 3358TIP3   OH210037   1.169   6.095   1.946  0.0877  0.0152  0.6157
 3358TIP3    H110038   1.207   6.094   2.033  2.2596 -2.2456 -0.2294
 3358TIP3    H210039   1.224   6.155   1.896 -0.5213  0.5130  0.5296
 3359TIP3   OH210040   0.649   6.075   5.236  0.2884 -0.2758 -0.0073
 3359TIP3    H110041   0.667   6.029   5.318 -0.0801 -0.3557  0.0300
 3359TIP3    H210042   0.735   6.104   5.205  0.4373 -0.3296  0.3584
 3360TIP3   OH210043   4.955   3.335   3.498  0.1713  0.1647  0.1312
 3360TIP3    H110044   5.022   3.268   3.483 -1.0085 -0.6217 -2.1105
 3360TIP3    H210045   4.886   3.289   3.545 -0.2328  0.0364 -0.5730
 3361TIP3   OH210046   6.050   1.722   4.164  0.2510 -0.0759 -0.1166
 3361TIP3    H110047   6.000   1.723   4.246  1.8091  2.4700  0.9277
 3361TIP3    H210048   6.053   1.630   4.138  1.5116 -1.3591  3.8734
 3362TIP3   OH210049   3.254   4.831   4.491 -0.0022 -0.0697  0.5949
 3362TIP3    H110050   3.229   4.762   4.553  1.1013 -0.7251  0.3477
 3362TIP3    H210051   3.249   4.788   4.405  0.4204  0.2470  0.4117
 3363TIP3   OH210052   0.814   6.221   4.504  0.2043  0.2982  0.1237
 3363TIP3    H110053   0.785   6.156   4.439 -0.6602  1.4648 -0.6976
 3363TIP3    H210054   0.909   6.213   4.505  0.0705 -1.8724  1.0137
 3364TIP3   OH210055   5.602   2.109   3.047  0.2297 -0.0572 -0.1514
 3364TIP3    H110056   5.547   2.057   3.106  0.3601 -1.0907 -0.9043
 3364TIP3    H210057   5.668   2.149   3.104  0.0357 -0.6086  0.4688
 3365TIP3   OH210058   0.616   2.169   4.294 -0.0087 -0.0664  0.2933
 3365TIP3    H110059   0.558   2.221   4.350 -1.4108 -1.6349  0.3862
 3365TIP3    H210060   0.685   2.230   4.267 -1.8333  1.9689 -0.0276
 3366TIP3   OH210061   2.319   1.251   5.690 -0.0057 -0.4237  0.2685
 3366TIP3    H110062   2.255   1.291   5.632  1.0641  0.7459 -0.1554
 3366TIP3    H210063   2.328   1.313   5.763 -0.5705 -1.3861  1.2020
 3367TIP3   OH210064   3.564   4.081   4.119 -0.0767  0.4786  0.0554
 3367TIP3    H110065   3.476   4.052   4.142  0.2454 -2.1896 -1.5628
 3367TIP3    H210066   3.557   4.109   4.028  0.6238  0.8203  0.1022
 3368TIP3   OH210067   1.172   3.294   3.128 -0.1258 -0.3652 -0.4144
 3368TIP3    H110068   1.205   3.382   3.113  1.9137 -0.8479  0.8599
 3368TIP3    H210069   1.225   3.238   3.072 -1.1398 -0.8498 -0.9206
 3369TIP3   OH210070   6.808   2.977   3.296 -0.4066  0.7831 -0.0427
 3369TIP3    H110071   6.891   2.932   3.312 -1.4750 -0.6231  1.9899
 3369TIP3    H210072   6.823   3.067   3.325  0.0264  0.2045  1.6153
 3370TIP3   OH210073   5.018   0.064   0.150 -0.1810 -0.1421  0.1953
 3370TIP3    H110074   5.104   0.075   0.109 -0.8631  1.8056 -0.8268
 3370TIP3    H210075   5.013  -0.030   0.169  3.4599  0.0437  3.3491
 3371TIP3   OH210076   5.958   5.097   0.947 -0.7064 -0.2720  0.3284
 3371TIP3    H110077   5.937   5.183   0.985  0.9814  0.5977 -0.5792
 3371TIP3    H210078   6.054   5.093   0.949 -0.6914 -1.3986 -1.2386
 3372TIP3   OH210079   0.506   4.714   3.411 -0.7274  0.3380 -0.0093
 3372TIP3    H110080   0.502   4.796   3.361 -1.8474 -0.3729 -1.1335
 3372TIP3    H210081   0.581   4.726   3.469 -1.1580  2.3686  0.2211
 3373TIP3   OH210082   1.485   2.503   5.382  0.3665 -0.0450  0.2325
 3373TIP3    H110083   1.484   2.548   5.467 -1.2610  1.7238 -0.6666
 3373TIP3    H210084   1.398   2.516   5.347  0.3799 -2.4698 -0.8969
 3374TIP3   OH210085   4.993   0.900   1.668 -0.1506  0.0932  0.4963
 3374TIP3    H110086   5.082   0.898   1.703  0.7869  2.3961 -1.5024
 3374TIP3    H210087   4.950   0.971   1.717 -0.0727  0.6472 -0.2153
 3375TIP3   OH210088   6.465   1.152   2.443 -0.3942 -0.1340  0.1362
 3375TIP3    H110089   6.387   1.137   2.389  0.3706 -1.2653 -0.6934
 3375TIP3    H210090   6.531   1.186   2.382  1.0351 -3.0643 -0.1273
 3376TIP3   OH210091   5.778   3.089   5.868 -0.2534  0.0409  0.6091
 3376TIP3    H110092   5.801   3.160   5.929 -1.3992  0.8909  0.0972
 3376TIP3    H210093   5.688   3.108   5.843 -0.7281 -1.8385  0.7406
 3377TIP3   OH210094   1.013   6.401   4.641  0.0992 -0.0565  0.4003
 3377TIP3    H110095   1.100   6.369   4.662  0.8087  0.9967 -0.8175
 3377TIP3    H210096   0.980   6.437   4.723  1.3054  0.6350  0.6063
 3378TIP3   OH210097   3.649   3.785   3.317 -0.1386  0.5788 -0.3283
 3378TIP3    H110098   3.730   3.735   3.307  0.2481  1.4017 -1.5386
 3378TIP3    H210099   3.678   3.872   3.343 -0.5816  1.0086 -1.2186
 3379TIP3   OH210100   2.038   3.733   1.220  0.0642 -0.1035 -0.4621
 3379TIP3    H110101   2.105   3.669   1.196 -0.1438  0.1003 -1.6532
 3379TIP3    H210102   1.972   3.724   1.152 -1.5308 -0.8484  1.0979
 3380TIP3   OH210103   0.733   2.016   0.691 -0.1601 -0.0667  0.0664
 3380TIP3    H110104   0.658   1.969   0.655 -0.0394  0.7471 -1.3130
 3380TIP3    H210105   0.761   2.075   0.621  1.8193 -0.3943  0.5197
 3381TIP3   OH210106   0.140   4.089   3.594  0.6654  0.4601 -0.2809
 3381TIP3    H110107   0.180   4.068   3.679 -1.4163 -0.8162  0.4693
 3381TIP3    H210108   0.098   4.008   3.567 -3.3530  2.1508  0.1682
 3382TIP3   OH210109   0.908   5.915   1.137  0.7994 -0.1369  0.1744
 3382TIP3    H110110   0.937   5.973   1.067 -1.3068  0.6002 -0.1502
 3382TIP3    H210111   0.851   5.969   1.191 -1.3426 -1.8879 -0.1987
 3383TIP3   OH210112   0.412   6.731   4.864 -0.0560  0.1896  0.3106
 3383TIP3    H110113   0.403   6.639   4.885  2.1288  0.0012  0.6720
 3383TIP3    H210114   0.351   6.776   4.923 -1.2033 -1.0026  0.0579
 3384TIP3   OH210115   4.315   2.578   2.105 -0.4286  0.6958 -0.1893
 3384TIP3    H110116   4.310   2.667   2.140 -1.6437  0.3541  0.5808
 3384TIP3    H210117   4.225   2.555   2.084 -0.1558 -0.4084 -0.2486
 3385TIP3   OH210118   6.228   3.478   3.668  0.2682 -0.7543 -0.0366
 3385TIP3    H110119   6.144   3.464   3.713  1.4538 -1.3152  2.1237
 3385TIP3    H210120   6.216   3.438   3.582 -2.5034  1.4002 -0.7944
 3386TIP3   OH210121   5.884   3.369   2.363  0.5133 -0.4076  0.1227
 3386TIP3    H110122   5.869   3.286   2.408 -1.4059 -0.1137  0.1063
 3386TIP3    H210123   5.948   3.347   2.295  0.8759 -1.6087  0.8059
 3387TIP3   OH210124   0.094   0.411   2.663  0.1409 -0.3316  0.2686
 3387TIP3    H110125   0.185   0.430   2.643 -0.1462 -0.5387 -1.3836
 3387TIP3    H210126   0.094   0.321   2.694  0.2399 -1.2969 -2.2799
 3388TIP3   OH210127   2.598   0.206   0.252  0.8330  1.1151 -0.0538
 3388TIP3    H110128   2.577   0.113   0.246  1.2474  1.0452 -0.4686
 3388TIP3    H210129   2.533   0.249   0.197  1.4365  0.9448 -0.9227
 3389TIP3   OH210130   1.293   2.841   5.380 -0.1144  0.2723  0.5361
 3389TIP3    H110131   1.198   2.847   5.376 -0.0612  0.3743 -2.6808
 3389TIP3    H210132   1.312   2.748   5.368  0.2000  0.5091 -0.9666
 3390TIP3   OH210133   4.253   4.355   4.265  0.4427  0.0489 -0.1321
 3390TIP3    H110134   4.210   4.392   4.342  1.5785  0.8029  0.1803
 3390TIP3    H210135   4.248   4.424   4.199 -0.1734 -0.4418 -0.6042
 3391TIP3   OH210136   7.100   0.881   0.189 -0.0508 -0.3790 -0.0159
 3391TIP3    H110137   7.153   0.817   0.237  0.9773 -0.2211 -0.8985
 3391TIP3    H210138   7.159   0.956   0.176 -1.3086  0.9029  1.2404
 3392TIP3   OH210139   5.142   2.998   2.700  0.5573  0.0752 -0.1891
 3392TIP3    H110140   5.067   2.956   2.659  0.4361  0.1675 -0.0623
 3392TIP3    H210141   5.117   3.007   2.792  0.3198  1.0128 -0.3375
 3393TIP3   OH210142   6.186   0.964   4.645  1.0075  0.0140  0.2227
 3393TIP3    H110143   6.199   1.009   4.729  0.6622 -0.0865  0.3309
 3393TIP3    H210144   6.203   0.872   4.664  0.3053 -0.0960  0.3283
 3394TIP3   OH210145   1.945   2.736   4.309 -0.4302  0.0272  0.9487
 3394TIP3    H110146   1.987   2.650   4.307 -0.4720  0.0045 -1.5001
 3394TIP3    H210147   1.941   2.758   4.402  2.8121 -1.0302  1.4714
 3395TIP3   OH210148   6.873   3.966   2.045  0.5678  0.0181 -0.3205
 3395TIP3    H110149   6.884   4.019   2.124 -0.2394  0.2638 -0.3705
 3395TIP3    H210150   6.888   3.876   2.074 -0.0761  0.0735  0.1840
 3396TIP3   OH210151   7.048   0.418   2.902 -0.0797  1.0319  0.2162
 3396TIP3    H110152   6.978   0.355   2.887  0.7958 -0.4186  1.7699
 3396TIP3    H210153   7.098   0.419   2.821  0.2043 -0.7422  0.3320
 3397TIP3   OH210154   5.264   3.122   4.177 -0.5560  0.1679  0.0317
 3397TIP3    H110155   5.314   3.070   4.240 -2.5994 -0.3041  1.3670
 3397TIP3    H210156   5.278   3.213   4.205  0.0295  0.0989 -0.0094
 3398TIP3   OH210157   5.717   0.115   3.534 -0.2657  0.1601 -0.0560
 3398TIP3    H110158   5.764   0.046   3.581 -0.7327  1.0387  1.8047
 3398TIP3    H210159   5.626   0.087   3.536 -0.1329 -0.5622 -1.9094
 3399TIP3   OH210160   6.283   2.608   0.807 -0.1304  0.2902  0.2904
 3399TIP3    H110161   6.236   2.544   0.860 -1.7293  0.9635 -0.2531
 3399TIP3    H210162   6.376   2.585   0.818 -0.6364 -2.0029  0.2065
 3400TIP3   OH210163   6.791   6.077   0.298 -0.1109  0.4624 -0.3937
 3400TIP3    H110164   6.716   6.017   0.292 -0.6320  0.9053  1.3086
 3400TIP3    H210165   6.767   6.139   0.367  1.2338  1.4870 -0.8060
 3401TIP3   OH210166   6.080   3.745   2.243  0.0700 -0.3464 -0.4600
 3401TIP3    H110167   6.131   3.806   2.296 -0.7252 -0.2131  0.1608
 3401TIP3    H210168   6.063   3.671   2.301 -2.4486  0.6239  0.1560
 3402TIP3   OH210169   5.417   5.219   5.538 -0.0705  0.4817  0.5075
 3402TIP3    H110170   5.482   5.154   5.511 -0.5735 -0.7175  2.0142
 3402TIP3    H210171   5.459   5.266   5.610 -0.5317  0.2799  0.9141
 3403TIP3   OH210172   1.025   4.634   2.794 -0.2124  0.3609 -0.0310
 3403TIP3    H110173   0.970   4.651   2.718  0.0453  0.6187 -0.1621
 3403TIP3    H210174   1.079   4.713   2.803  0.2719  0.0350 -0.0254
 3404TIP3   OH210175   3.372   1.552   0.759 -0.8818  0.3145 -0.1191
 3404TIP3    H110176   3.341   1.626   0.812  1.1444 -0.7438  2.8231
 3404TIP3    H210177   3.382   1.480   0.822  0.6415 -1.4050 -2.1818
 3405TIP3   OH210178   3.343   1.971   5.595 -0.4996  0.3902  0.2121
 3405TIP3    H110179   3.311   1.886   5.562  0.6803  0.4015 -1.0249
 3405TIP3    H210180   3.316   1.972   5.687 -1.2108 -0.9851  0.0532
 3406TIP3   OH210181   1.965   4.788   2.131  0.4320  0.5622 -0.2248
 3406TIP3    H110182   1.979   4.736   2.210 -1.6161 -0.9533 -0.7640
 3406TIP3    H210183   2.023   4.749   2.066 -0.8922 -0.9878 -0.5492
 3407TIP3   OH210184   2.923   1.265   3.732  0.8004  0.0883 -0.0605
 3407TIP3    H110185   2.834   1.282   3.764  1.3970  0.0042  1.7737
 3407TIP3    H210186   2.910   1.216   3.651 -0.8253 -1.0523  0.8173
 3408TIP3   OH210187   5.650   3.084   1.370  0.5209 -0.3451  0.0732
 3408TIP3    H110188   5.610   3.110   1.453 -1.6728 -0.5033 -0.8765
 3408TIP3    H210189   5.677   2.993   1.384  0.5573 -0.2432  0.7183
 3409TIP3   OH210190   4.929   0.563   4.949  0.1603 -0.3560 -0.0055
 3409TIP3    H110191   4.849   0.516   4.926 -0.5616  0.0889  1.4626
 3409TIP3    H210192   4.994   0.494   4.962 -0.6178 -0.9102  1.1346
 3410TIP3   OH210193   1.547   4.484   5.287  0.2904 -0.0151  0.5254
 3410TIP3    H110194   1.506   4.408   5.245  0.1896  0.1746  0.2748
 3410TIP3    H210195   1.597   4.526   5.217  0.0882  0.3299  0.5832
 3411TIP3   OH210196   6.759   4.765   5.517  0.4123 -0.3249  0.3949
 3411TIP3    H110197   6.718   4.774   5.603 -0.3511 -0.0286  0.0063
 3411TIP3    H210198   6.693   4.795   5.455  0.9298 -0.5991 -0.3083
 3412TIP3   OH210199   3.319   6.092   0.875  0.2019 -0.1501  0.2200
 3412TIP3    H110200   3.337   6.042   0.795 -0.0472  1.7420 -1.0640
 3412TIP3    H210201   3.322   6.026   0.944  0.5746 -1.8314 -1.3049
 3413TIP3   OH210202   4.032   3.844   2.100  1.0866 -0.5230  0.1047
 3413TIP3    H110203   4.107   3.903   2.102 -0.1052  1.0230  1.1356
 3413TIP3    H210204   3.977   3.878   2.030 -0.2830  0.5082  1.6300
 3414TIP3   OH210205   4.973   1.096   2.980 -0.3498 -0.2075  0.3466
 3414TIP3    H110206   4.960   1.145   2.899  2.0242  0.5672  0.3524
 3414TIP3    H210207   4.970   1.162   3.049  1.2060 -0.2728  0.5126
 3415TIP3   OH210208   1.910   4.247   2.227  0.2550 -0.4748 -0.0601
 3415TIP3    H110209   1.827   4.272   2.185 -0.1557 -0.3210  0.8244
 3415TIP3    H210210   1.902   4.152   2.239  0.4886 -0.5638 -0.5544
 3416TIP3   OH210211   2.840   3.079   4.197 -0.3834  0.0473 -0.1223
 3416TIP3    H110212   2.860   3.156   4.249  0.2569 -0.5982  0.6054
 3416TIP3    H210213   2.777   3.030   4.250 -0.8361  0.0830 -0.6095
 3417TIP3   OH210214   5.779   0.911   1.322 -0.2100 -0.5474  0.4368
 3417TIP3    H110215   5.788   0.909   1.417  0.5526  0.3527  0.3893
 3417TIP3    H210216   5.707   0.972   1.306 -0.1745 -0.5082  0.4260
 3418TIP3   OH210217   5.226   2.610   3.448  0.1757  0.5306 -0.0905
 3418TIP3    H110218   5.142   2.627   3.406  0.7522 -1.1250 -2.0541
 3418TIP3    H210219   5.275   2.691   3.436 -0.4795  0.8650 -0.6007
 3419TIP3   OH210220   1.414  -0.005   2.448 -0.4897  0.3047 -0.1076
 3419TIP3    H110221   1.447   0.084   2.434 -0.9056  0.3309 -0.9440
 3419TIP3    H210222   1.402  -0.011   2.543 -0.4554  1.1389 -0.0400
 3420TIP3   OH210223   5.425   1.021   5.468  0.0338  0.3414  0.5055
 3420TIP3    H110224   5.360   1.061   5.525  0.6725 -0.9164  2.2037
 3420TIP3    H210225   5.435   0.932   5.502  2.8263  0.5659  0.4607
 3421TIP3   OH210226   1.204   4.231   5.223 -0.4780 -0.6702 -0.4282
 3421TIP3    H110227   1.216   4.241   5.317 -0.3249 -0.7306 -0.4417
 3421TIP3    H210228   1.176   4.318   5.193 -0.6582 -0.6866 -0.3062
 3422TIP3   OH210229   1.931   2.091   3.415 -0.6058  0.0570 -0.1749
 3422TIP3    H110230   1.937   2.187   3.411 -0.8205  0.2175  2.0423
 3422TIP3    H210231   1.854   2.075   3.469 -0.1785 -1.3795  0.0268
 3423TIP3   OH210232   6.245   1.208   1.731  0.1560 -0.3794 -0.2750
 3423TIP3    H110233   6.326   1.175   1.771  0.8889  0.4606 -0.9967
 3423TIP3    H210234   6.239   1.298   1.762 -0.1121 -0.2154 -0.7924
 3424TIP3   OH210235   6.129   6.115   5.393  0.4078 -0.2818 -0.0634
 3424TIP3    H110236   6.159   6.024   5.391  0.5222 -0.2352 -1.2113
 3424TIP3    H210237   6.201   6.163   5.435  0.1015 -0.7888  1.0807
 3425TIP3   OH210238   5.476   5.853   1.879  0.0316 -0.0278  0.3662
 3425TIP3    H110239   5.393   5.827   1.840 -0.0806 -0.9397  1.1673
 3425TIP3    H210240   5.535   5.868   1.805 -0.7961  0.4888 -0.1985
 3426TIP3   OH210241   6.309   3.578   2.812 -0.2581 -0.7347  0.2587
 3426TIP3    H110242   6.392   3.552   2.772  0.1459  1.7334 -0.6934
 3426TIP3    H210243   6.296   3.517   2.884  1.6405 -2.0837 -0.4754
 3427TIP3   OH210244   1.582   5.523   2.693  1.0298 -0.1766 -0.1059
 3427TIP3    H110245   1.490   5.533   2.716  1.5863  0.7312  1.9699
 3427TIP3    H210246   1.582   5.475   2.610 -1.2608 -0.8682  0.2542
 3428TIP3   OH210247   5.581   2.071   5.267 -0.3141 -0.0816 -0.4461
 3428TIP3    H110248   5.665   2.055   5.311 -0.9694 -1.2831  0.3883
 3428TIP3    H210249   5.606   2.086   5.175  0.8228 -0.2841 -0.1934
 3429TIP3   OH210250   0.967   4.377   3.664  0.1380  0.0225  0.0374
 3429TIP3    H110251   1.006   4.460   3.692  2.1014 -1.1480  0.9681
 3429TIP3    H210252   1.036   4.312   3.678 -1.1978 -1.7203 -1.0700
 3430TIP3   OH210253   0.601   1.069   4.289  0.4455  0.3504  0.3793
 3430TIP3    H110254   0.671   1.004   4.282  1.1540  1.0784  0.4110
 3430TIP3    H210255   0.539   1.032   4.351  0.1374 -0.8916 -0.6442
 3431TIP3   OH210256   4.031   5.182   4.552 -0.2309  0.9773 -0.6311
 3431TIP3    H110257   3.960   5.151   4.496 -1.0812  0.0700  0.8897
 3431TIP3    H210258   4.107   5.128   4.528 -0.7108  0.2720 -0.5772
 3432TIP3   OH210259   1.481   3.674   2.986  0.3376 -0.0957  0.1133
 3432TIP3    H110260   1.533   3.730   3.043  0.2815  0.0150  0.0554
 3432TIP3    H210261   1.411   3.730   2.953  0.2563 -0.2103  0.0891
 3433TIP3   OH210262   5.517   0.469   0.308  0.0606  0.6452 -0.7283
 3433TIP3    H110263   5.595   0.438   0.262  1.6978  2.1494  0.8856
 3433TIP3    H210264   5.538   0.460   0.401 -2.4386 -0.5958 -0.1871
 3434TIP3   OH210265   2.958   4.336   2.783 -0.2494  0.0316  0.1722
 3434TIP3    H110266   2.875   4.360   2.742  0.0141 -1.7847 -1.5689
 3434TIP3    H210267   2.955   4.241   2.791  1.6962 -0.1063 -0.0704
 3435TIP3   OH210268   4.679   4.555   5.157 -0.2547  0.2869 -0.3670
 3435TIP3    H110269   4.680   4.476   5.212  0.5590  0.6689  0.1892
 3435TIP3    H210270   4.600   4.601   5.184  0.4458  0.7675  0.9474
 3436TIP3   OH210271   0.132   5.615   5.586 -0.2936 -0.2250 -0.2367
 3436TIP3    H110272   0.148   5.554   5.658 -2.1094 -0.4839 -0.0202
 3436TIP3    H210273   0.064   5.573   5.533 -0.0300  0.6340 -1.3073
 3437TIP3   OH210274   1.206   1.831   0.127 -0.9763 -0.5126  0.2196
 3437TIP3    H110275   1.201   1.757   0.067  2.6052  0.1187 -1.1081
 3437TIP3    H210276   1.170   1.905   0.078 -0.8970 -0.6130  0.0092
 3438TIP3   OH210277   5.272   0.713   0.908 -0.3425 -0.3701  0.0985
 3438TIP3    H110278   5.313   0.627   0.915  1.1909  0.3607  0.5509
 3438TIP3    H210279   5.323   0.768   0.967  0.5057  1.5005 -2.2250
 3439TIP3   OH210280   3.238   4.864   0.315  0.3424 -0.3113 -0.0041
 3439TIP3    H110281   3.308   4.814   0.356  1.0891  0.1023 -0.7469
 3439TIP3    H210282   3.246   4.846   0.221 -0.8409 -0.6212 -0.0648
 3440TIP3   OH210283   3.997   6.276   2.558  0.0705 -0.0140 -0.9793
 3440TIP3    H110284   4.025   6.363   2.531  1.7685 -0.7414 -1.6985
 3440TIP3    H210285   3.921   6.257   2.504  0.4715  0.5178 -1.7541
 3441TIP3   OH210286   0.132   0.818   2.625 -0.1221 -0.2967  0.5028
 3441TIP3    H110287   0.134   0.909   2.653 -0.4186 -0.4470  1.0451
 3441TIP3    H210288   0.103   0.770   2.703 -0.5574 -0.7842  0.0493
 3442TIP3   OH210289   1.716   3.470   4.463 -0.3392 -0.1543  0.3805
 3442TIP3    H110290   1.708   3.505   4.552 -1.7022  2.8844 -0.7878
 3442TIP3    H210291   1.790   3.518   4.425 -1.9934  1.3140 -1.1533
 3443TIP3   OH210292   0.993   3.213   3.311 -0.2405  0.3889 -0.1430
 3443TIP3    H110293   1.001   3.277   3.382  1.6206 -0.0294  0.0535
 3443TIP3    H210294   1.073   3.223   3.260 -0.7229 -0.5890 -1.1429
 3444TIP3   OH210295   3.496   4.666   0.194 -0.7253  0.7710  0.6867
 3444TIP3    H110296   3.463   4.591   0.144 -2.2656  0.5689  1.9300
 3444TIP3    H210297   3.475   4.742   0.140 -0.0078  0.3934 -0.1522
 3445TIP3   OH210298   1.813   6.102   2.725  0.7009  0.0129 -0.4990
 3445TIP3    H110299   1.873   6.129   2.795 -0.2744  1.7444 -0.2764
 3445TIP3    H210300   1.856   6.027   2.684  0.8154 -1.7856  2.6045
 3446TIP3   OH210301   3.116   2.093   3.605  0.4930  0.2362 -0.3219
 3446TIP3    H110302   3.153   2.058   3.686  1.6092 -0.9616 -1.3179
 3446TIP3    H210303   3.190   2.131   3.558 -0.0172  0.2990 -1.1046
 3447TIP3   OH210304   6.536   5.427   1.778 -0.4521  0.4235 -0.3107
 3447TIP3    H110305   6.562   5.493   1.843  2.8678 -1.2869  0.3167
 3447TIP3    H210306   6.466   5.378   1.821 -0.0205  0.8664  0.9649
 3448TIP3   OH210307   6.781   5.276   1.588 -0.3205  0.1437  0.1197
 3448TIP3    H110308   6.858   5.240   1.545  0.8502  0.1429  2.0976
 3448TIP3    H210309   6.728   5.199   1.611 -0.0401  0.0047  0.3110
 3449TIP3   OH210310   6.192   5.932   0.893  0.3343  0.2934  0.7065
 3449TIP3    H110311   6.257   5.991   0.933  2.1410 -0.2984 -1.1861
 3449TIP3    H210312   6.201   5.850   0.941  1.7524 -0.0857 -0.1288
 3450TIP3   OH210313   3.454   2.236   1.997  0.0180 -0.0682 -0.1674
 3450TIP3    H110314   3.543   2.218   2.027 -0.0967 -0.8443 -0.2889
 3450TIP3    H210315   3.427   2.157   1.950 -0.7957  0.0909  0.0078
 3451TIP3   OH210316   4.208   1.504   4.305 -0.0688  0.7247  0.0557
 3451TIP3    H110317   4.278   1.559   4.341  1.1830  0.3473 -1.6516
 3451TIP3    H210318   4.195   1.538   4.217 -3.3081  1.8724  0.8510
 3452TIP3   OH210319   0.423   5.646   3.473 -0.4234  0.3026 -0.3272
 3452TIP3    H110320   0.420   5.742   3.470 -0.7898  0.4012  1.6015
 3452TIP3    H210321   0.512   5.624   3.446  0.2412  1.3289  0.9192
 3453TIP3   OH210322   0.230   1.243   2.546 -0.1622 -0.5201 -0.1486
 3453TIP3    H110323   0.305   1.201   2.506  0.8324  0.9124  0.1285
 3453TIP3    H210324   0.226   1.206   2.635  0.3239 -0.4615 -0.1045
 3454TIP3   OH210325   2.103   2.447   2.789  0.0450 -0.0077 -0.7396
 3454TIP3    H110326   2.145   2.380   2.735 -0.4880  0.0030 -1.1804
 3454TIP3    H210327   2.146   2.528   2.765 -0.7469  0.1267 -1.7727
 3455TIP3   OH210328   0.365   0.740   3.656 -0.2329 -0.4047  0.0107
 3455TIP3    H110329   0.369   0.738   3.561 -0.5826 -0.7710 -0.0008
 3455TIP3    H210330   0.337   0.829   3.678  0.3344 -0.1721 -0.2058
 3456TIP3   OH210331   2.147   5.264   0.539 -0.1757 -0.0143  0.0090
 3456TIP3    H110332   2.055   5.278   0.522  0.0687  0.4438 -0.9603
 3456TIP3    H210333   2.174   5.339   0.592 -0.3361 -0.1026  0.2151
 3457TIP3   OH210334   3.500   2.092   3.351  0.0147 -0.4090 -0.6710
 3457TIP3    H110335   3.584   2.084   3.396  1.1538 -0.1869 -2.6582
 3457TIP3    H210336   3.452   2.013   3.377  1.0112 -0.7847  0.1019
 3458TIP3   OH210337   4.461   5.175   3.683 -0.4540  0.0972  0.3119
 3458TIP3    H110338   4.521   5.205   3.752 -1.4921 -0.8320  1.6665
 3458TIP3    H210339   4.457   5.080   3.694  0.2573 -0.2359 -1.8243
 3459TIP3   OH210340   4.058   2.089   1.753  0.1735  0.1972 -0.1424
 3459TIP3    H110341   4.134   2.035   1.776 -0.9727 -0.3446  2.6874
 3459TIP3    H210342   4.084   2.177   1.778  0.6304  0.3804 -1.2062
 3460TIP3   OH210343   3.782   5.747   4.402  0.2173 -0.0342 -0.0441
 3460TIP3    H110344   3.725   5.773   4.473 -0.5103  1.1957 -1.0402
 3460TIP3    H210345   3.764   5.654   4.389 -0.5833  0.0376  0.5281
 3461TIP3   OH210346   1.200   5.484   5.671 -0.2240  0.2427 -0.1405
 3461TIP3    H110347   1.227   5.393   5.662  0.2842  0.3015  0.6278
 3461TIP3    H210348   1.257   5.519   5.739  0.6614  1.5713 -1.5105
 3462TIP3   OH210349   2.583   5.028   2.755 -0.0602  0.0791 -0.7885
 3462TIP3    H110350   2.660   4.978   2.782  0.9872  1.6384 -0.7661
 3462TIP3    H210351   2.556   4.988   2.673 -0.2231 -1.5076 -0.0019
 3463TIP3   OH210352   3.800   0.680   5.005  0.1478  0.5950 -0.3695
 3463TIP3    H110353   3.792   0.586   5.019 -1.0146  0.0636 -3.7169
 3463TIP3    H210354   3.719   0.716   5.040  1.3309  0.7324  2.5540
 3464TIP3   OH210355   2.401   0.391   0.141 -0.3860 -0.6126  0.2788
 3464TIP3    H110356   2.350   0.440   0.076 -1.4638 -3.6168 -1.3519
 3464TIP3    H210357   2.380   0.433   0.224 -2.4110  0.7290 -0.8071
 3465TIP3   OH210358   5.728   3.204   5.577 -0.0759 -0.2740 -0.1834
 3465TIP3    H110359   5.747   3.298   5.581 -0.7471 -0.1502  0.3163
 3465TIP3    H210360   5.807   3.165   5.541  0.4110  0.4252  0.1045
 3466TIP3   OH210361   4.091   5.331   4.223  0.8073  0.1722  0.5471
 3466TIP3    H110362   4.117   5.256   4.169 -0.2763  0.0809  0.1128
 3466TIP3    H210363   4.033   5.382   4.166  2.6670  2.1444  0.3227
 3467TIP3   OH210364   1.608   4.528   4.860  0.0126  0.0618 -0.2535
 3467TIP3    H110365   1.544   4.592   4.889  0.3690  0.0408  0.5857
 3467TIP3    H210366   1.683   4.540   4.918 -0.7224 -2.5761  1.3892
 3468TIP3   OH210367   2.816   6.479   5.734  0.1481 -0.2513 -0.2113
 3468TIP3    H110368   2.762   6.413   5.690 -0.2904 -0.6344  0.8783
 3468TIP3    H210369   2.754   6.545   5.763  0.0064 -1.3938  2.3240
 3469TIP3   OH210370   1.933   1.137   5.724 -0.1920 -0.3330 -0.0673
 3469TIP3    H110371   1.953   1.231   5.723  0.3764 -0.4358  0.6337
 3469TIP3    H210372   1.838   1.132   5.713 -0.2812  0.3422  0.3458
 3470TIP3   OH210373   2.682   0.100   1.582 -0.3873  0.0963  0.1920
 3470TIP3    H110374   2.603   0.111   1.529 -0.4297  0.5917  0.3527
 3470TIP3    H210375   2.747   0.156   1.540 -0.3555  0.3113  0.5255
 3471TIP3   OH210376   3.720   0.556   3.258 -0.2978 -0.2129 -0.3135
 3471TIP3    H110377   3.776   0.633   3.249 -0.6239  0.1873  0.8741
 3471TIP3    H210378   3.700   0.530   3.168  1.4808 -0.1558 -0.7599
 3472TIP3   OH210379   6.947   5.451   5.544 -0.2095  0.3925 -0.0779
 3472TIP3    H110380   6.949   5.418   5.634 -0.1547 -0.3992 -0.3607
 3472TIP3    H210381   6.941   5.372   5.489  2.9418  0.6029 -0.9178
 3473TIP3   OH210382   6.450   1.499   4.313  0.1934  0.3338 -0.3169
 3473TIP3    H110383   6.409   1.498   4.399  2.1568 -0.8630  0.6722
 3473TIP3    H210384   6.539   1.467   4.328  0.9921  1.2549 -2.6016
 3474TIP3   OH210385   2.531   5.715   1.360  0.0444 -0.0578  0.0913
 3474TIP3    H110386   2.442   5.723   1.395  0.0035  0.6493 -0.1498
 3474TIP3    H210387   2.535   5.627   1.324 -0.8118  0.1621 -0.5713
 3475TIP3   OH210388   0.164   0.471   5.513 -0.1598 -0.3902  0.1698
 3475TIP3    H110389   0.102   0.524   5.462  0.1840  0.1336  0.2844
 3475TIP3    H210390   0.175   0.391   5.462  0.1113  0.0851 -0.5457
 3476TIP3   OH210391   0.181   4.556   5.507  0.2931  0.2549  0.4969
 3476TIP3    H110392   0.111   4.582   5.446  2.0169  0.8436 -1.3569
 3476TIP3    H210393   0.175   4.620   5.578 -1.4206 -0.0891  0.7072
 3477TIP3   OH210394   0.696   1.515   2.626 -0.0885 -0.1143  0.3818
 3477TIP3    H110395   0.766   1.575   2.600 -0.8190  0.3500 -0.5847
 3477TIP3    H210396   0.741   1.433   2.644  0.6803  0.0452 -0.6855
 3478TIP3   OH210397   3.034   4.075   4.156 -0.0552  0.3032  0.0281
 3478TIP3    H110398   2.938   4.067   4.155 -0.1176  0.5967  1.2421
 3478TIP3    H210399   3.063   3.998   4.204  0.3681 -0.0625 -0.7989
 3479TIP3   OH210400   0.877   2.861   4.770  0.1633  0.3783 -0.4213
 3479TIP3    H110401   0.946   2.898   4.716  0.3736  0.5842 -0.0196
 3479TIP3    H210402   0.901   2.885   4.860 -0.1677  0.0276 -0.2345
 3480TIP3   OH210403   4.448   3.122   5.774 -0.4195 -0.3088  0.5652
 3480TIP3    H110404   4.428   3.044   5.826 -1.4176  0.7504  1.8464
 3480TIP3    H210405   4.460   3.191   5.839  0.0896  0.6954 -0.5607
 3481TIP3   OH210406   1.023   3.732   2.713  0.7208 -0.1519  0.1674
 3481TIP3    H110407   1.054   3.801   2.656  1.0948 -0.1576  0.3592
 3481TIP3    H210408   0.927   3.737   2.708  0.7090 -1.5232 -2.1053
 3482TIP3   OH210409   0.907   5.607   1.745  0.3649 -0.0405 -0.3515
 3482TIP3    H110410   0.935   5.676   1.685  0.4410 -0.3474 -0.6678
 3482TIP3    H210411   0.825   5.574   1.708  1.1830 -1.2736 -1.1400
 3483TIP3   OH210412   1.834   5.446   0.674 -0.4611 -0.5810 -0.1949
 3483TIP3    H110413   1.856   5.395   0.596 -1.7922 -1.2363 -0.1733
 3483TIP3    H210414   1.911   5.436   0.731  0.2442 -0.6491 -1.1345
 3484TIP3   OH210415   6.916   2.841   3.716  0.4984  0.3092 -0.2128
 3484TIP3    H110416   6.832   2.823   3.674 -0.1982 -2.2465  1.9713
 3484TIP3    H210417   6.967   2.761   3.705  1.8635  1.0877  0.2123
 3485TIP3   OH210418   4.953   2.518   5.032  0.3200  0.1413 -0.4283
 3485TIP3    H110419   4.937   2.611   5.045 -0.2942 -0.1336  1.1116
 3485TIP3    H210420   5.026   2.514   4.971  1.0871  1.6520  0.3286
 3486TIP3   OH210421   1.112   3.819   4.191  0.0097 -0.2541  0.5535
 3486TIP3    H110422   1.120   3.744   4.250 -0.0234 -1.7466 -1.2231
 3486TIP3    H210423   1.050   3.789   4.124 -1.6804  2.1771  0.9183
 3487TIP3   OH210424   4.536   1.895   3.468 -0.1074  0.3819  0.0507
 3487TIP3    H110425   4.460   1.949   3.445 -1.8211 -1.2809  1.3945
 3487TIP3    H210426   4.498   1.819   3.513  2.3061 -1.0931 -0.2294
 3488TIP3   OH210427   1.858   0.753   4.897  0.0160  0.0164  0.1061
 3488TIP3    H110428   1.809   0.823   4.853 -0.5392 -0.0248  0.6529
 3488TIP3    H210429   1.854   0.775   4.990  1.1955  0.1040  0.1487
 3489TIP3   OH210430   3.079   1.111   0.868 -1.1810  0.0504  0.0085
 3489TIP3    H110431   3.031   1.100   0.951 -0.2476 -1.9522  0.3530
 3489TIP3    H210432   3.037   1.049   0.808  0.5421 -1.3729  0.1671
 3490TIP3   OH210433   4.722   4.764   1.434 -0.2777  0.4715 -0.0620
 3490TIP3    H110434   4.729   4.857   1.411  0.1183  0.0882 -1.5933
 3490TIP3    H210435   4.672   4.726   1.362 -1.0928 -0.3949  0.9214
 3491TIP3   OH210436   2.752   0.610   2.382 -0.1689 -0.3410 -0.1587
 3491TIP3    H110437   2.759   0.665   2.304 -0.4980  1.1713  0.8343
 3491TIP3    H210438   2.819   0.643   2.441  0.1519 -1.5386  0.1791
 3492TIP3   OH210439   2.631   6.430   2.710  0.3181  0.7215  0.3380
 3492TIP3    H110440   2.701   6.381   2.753 -1.0616 -0.0824  1.7796
 3492TIP3    H210441   2.618   6.508   2.765 -1.0324  0.0072  1.0841
 3493TIP3   OH210442   0.676   4.691   3.638  0.3307  0.0861 -0.7120
 3493TIP3    H110443   0.665   4.605   3.678 -0.9807  0.1072 -0.9748
 3493TIP3    H210444   0.601   4.742   3.669  1.2216  1.2379 -0.3475
 3494TIP3   OH210445   0.955   5.080   3.609 -0.0188 -0.2151  0.4433
 3494TIP3    H110446   1.035   5.094   3.659  0.3110 -0.0753 -0.1103
 3494TIP3    H210447   0.976   5.007   3.550 -1.1005 -1.8662  1.9798
 3495TIP3   OH210448   5.305   5.040   2.697 -0.8294  0.0311 -0.1195
 3495TIP3    H110449   5.318   5.052   2.791 -1.4857  0.4365 -0.0779
 3495TIP3    H210450   5.213   5.016   2.688 -1.4071  2.2810 -0.8479
 3496TIP3   OH210451   3.254   4.756   4.185  0.3218  0.1881  0.3884
 3496TIP3    H110452   3.183   4.819   4.198  0.4967  0.3341  0.6545
 3496TIP3    H210453   3.213   4.682   4.140  0.2264  0.7158 -0.4082
 3497TIP3   OH210454   2.040   4.838   0.531 -0.7122  0.2569 -0.5119
 3497TIP3    H110455   2.116   4.803   0.577 -0.8253 -0.8668 -1.1495
 3497TIP3    H210456   1.980   4.864   0.601 -0.3428 -0.1981 -0.0174
 3498TIP3   OH210457   1.245   1.938   2.366  0.1449 -0.6440 -0.4748
 3498TIP3    H110458   1.288   1.949   2.281 -0.3171 -3.3118 -1.1336
 3498TIP3    H210459   1.151   1.946   2.346  0.1004  1.0313  0.2398
 3499TIP3   OH210460   2.369   2.259   0.248  0.1568  0.1475 -0.1889
 3499TIP3    H110461   2.450   2.294   0.209 -0.9783  2.1844 -0.8625
 3499TIP3    H210462   2.391   2.250   0.341  1.2191  0.4742 -0.3852
 3500TIP3   OH210463   6.789   4.782   4.013 -0.4830  0.1572 -0.2310
 3500TIP3    H110464   6.838   4.850   3.966  1.7620 -1.1175  0.0712
 3500TIP3    H210465   6.758   4.825   4.093  0.3744  0.9845 -0.3190
 3501TIP3   OH210466   1.585   6.340   4.204 -0.4807  0.0634 -0.1111
 3501TIP3    H110467   1.547   6.275   4.145 -3.3354  0.8945  0.6549
 3501TIP3    H210468   1.611   6.412   4.146  0.4899 -0.7234 -0.7036
 3502TIP3   OH210469   4.020   2.539   4.605  0.4566 -0.1319 -0.5354
 3502TIP3    H110470   4.041   2.596   4.530  1.7932  0.9738  0.6133
 3502TIP3    H210471   4.086   2.470   4.602 -0.3937 -0.9516 -1.1891
 3503TIP3   OH210472   0.644   2.055   4.025 -0.0434  0.1863 -0.0650
 3503TIP3    H110473   0.622   2.093   4.110  0.2075  0.9725 -0.3506
 3503TIP3    H210474   0.561   2.019   3.993 -0.3706  0.8261  0.0432
 3504TIP3   OH210475   4.031   2.901   1.179 -0.5071  0.0832  0.2807
 3504TIP3    H110476   4.005   2.954   1.255 -0.8819  0.1742  0.0917
 3504TIP3    H210477   4.075   2.963   1.120  0.6883 -0.1844  0.8552
 3505TIP3   OH210478   7.147   3.411   3.521  0.2684  0.4194  0.2241
 3505TIP3    H110479   7.071   3.461   3.492 -0.3027 -0.9426 -0.7472
 3505TIP3    H210480   7.191   3.468   3.584 -1.2651  1.4490  0.4200
 3506TIP3   OH210481   0.315   3.151   3.789  0.2918  0.1524  0.2826
 3506TIP3    H110482   0.323   3.180   3.698  1.1369 -0.7154  0.0681
 3506TIP3    H210483   0.402   3.162   3.826 -0.4327  2.1969  1.5450
 3507TIP3   OH210484   0.266   6.614   3.090 -0.3844  0.0278  0.2830
 3507TIP3    H110485   0.322   6.593   3.165 -0.6823 -1.8245  0.0251
 3507TIP3    H210486   0.321   6.598   3.014  0.0879  2.4036  0.0341
 3508TIP3   OH210487   3.781   3.186   5.036  0.4554 -0.1843 -0.0233
 3508TIP3    H110488   3.751   3.105   4.995  0.1531  0.2040 -0.5817
 3508TIP3    H210489   3.707   3.247   5.026  0.1653 -0.2235  1.5581
 3509TIP3   OH210490   0.868   2.163   2.104  0.9496  0.6268 -0.0383
 3509TIP3    H110491   0.926   2.205   2.041 -0.2503  2.8521  0.2467
 3509TIP3    H210492   0.780   2.196   2.082  0.4250  1.1311  2.4550
 3510TIP3   OH210493   0.594   0.556   3.211  0.1369  0.1518  0.0369
 3510TIP3    H110494   0.642   0.486   3.167 -1.2942 -0.8827  0.0772
 3510TIP3    H210495   0.660   0.625   3.224  1.6251 -1.2351  0.1615
 3511TIP3   OH210496   4.072   3.938   2.806  0.0644  0.7209 -0.8052
 3511TIP3    H110497   3.988   3.928   2.851 -0.6067  1.7709 -1.7729
 3511TIP3    H210498   4.049   3.966   2.718  1.4154  0.1009 -1.3820
 3512TIP3   OH210499   5.711   1.398   3.765 -0.2235  0.0848  0.1637
 3512TIP3    H110500   5.689   1.305   3.764  0.8502 -0.1727 -0.3941
 3512TIP3    H210501   5.645   1.440   3.710  1.2390 -0.8196 -2.4299
 3513TIP3   OH210502   3.822   3.844   3.616  0.1876  0.5361 -0.8117
 3513TIP3    H110503   3.899   3.888   3.581  0.3736  0.0094 -1.0684
 3513TIP3    H210504   3.820   3.759   3.572 -0.2443  0.3356 -0.4183
 3514TIP3   OH210505   4.935   1.370   1.818  0.2450  0.2103 -0.2381
 3514TIP3    H110506   4.946   1.449   1.871 -1.2658 -0.4419  1.1293
 3514TIP3    H210507   4.975   1.301   1.871 -0.5010 -0.3086 -0.3469
 3515TIP3   OH210508   7.131   0.271   3.199 -0.1684  0.1798  0.6881
 3515TIP3    H110509   7.177   0.350   3.225  0.6846 -0.1474  0.2052
 3515TIP3    H210510   7.038   0.294   3.204  0.0361  0.8095  1.7820
 3516TIP3   OH210511   4.727   5.573   5.402 -0.4593 -0.3655  0.5362
 3516TIP3    H110512   4.801   5.632   5.409  0.5958 -1.7660  1.6102
 3516TIP3    H210513   4.763   5.494   5.362 -1.4107 -1.0049  0.9158
 3517TIP3   OH210514   3.317   5.901   1.054 -0.4917  0.9871 -0.1365
 3517TIP3    H110515   3.233   5.869   1.020  0.1123 -1.2967  0.3908
 3517TIP3    H210516   3.370   5.823   1.066  1.4752  2.3135  0.2840
 3518TIP3   OH210517   0.132   4.034   4.903  0.9668  0.3006  0.4681
 3518TIP3    H110518   0.119   4.128   4.912 -0.1206  0.5308 -2.3805
 3518TIP3    H210519   0.043   3.997   4.904  0.9965 -0.1105 -2.6378
 3519TIP3   OH210520   1.617   0.566   0.229 -0.0039 -0.3582 -0.1515
 3519TIP3    H110521   1.694   0.510   0.221  2.9129  2.8315  2.5309
 3519TIP3    H210522   1.625   0.629   0.157  0.2361  0.3288  0.4678
 3520TIP3   OH210523   4.258   4.730   5.387  0.8718  0.1676  0.1154
 3520TIP3    H110524   4.272   4.762   5.298  0.0968  0.5057  0.1058
 3520TIP3    H210525   4.339   4.753   5.434  1.0242  0.5691 -0.3395
 3521TIP3   OH210526   5.770   3.875   1.298 -0.2300 -0.2838  0.7518
 3521TIP3    H110527   5.832   3.813   1.259 -0.7379 -0.5402  0.3408
 3521TIP3    H210528   5.717   3.821   1.357 -0.8711 -0.3056  0.1669
 3522TIP3   OH210529   0.239   6.089   5.012 -0.0993  0.0680 -0.1171
 3522TIP3    H110530   0.222   6.022   5.079  0.6042  0.0635  0.0554
 3522TIP3    H210531   0.153   6.128   4.996 -0.6162 -1.1824 -0.5522
 3523TIP3   OH210532   5.756   4.581   1.403 -0.4449 -0.4474  0.0537
 3523TIP3    H110533   5.714   4.657   1.364 -0.0436 -1.2224 -2.0261
 3523TIP3    H210534   5.692   4.548   1.466 -2.2639 -0.5647 -1.7481
 3524TIP3   OH210535   0.936   1.061   0.040 -0.2110  1.0172 -0.1354
 3524TIP3    H110536   0.953   1.141  -0.009  0.1546  0.9355 -0.1487
 3524TIP3    H210537   0.982   1.074   0.123  1.9420 -0.1370 -1.0372
 3525TIP3   OH210538   5.057   1.601   1.584  0.2192 -0.6476  0.2457
 3525TIP3    H110539   5.043   1.568   1.495  0.3010 -3.0304  1.0365
 3525TIP3    H210540   4.970   1.605   1.623  0.2390 -0.1961  0.2444
 3526TIP3   OH210541   5.139   5.330   3.523  0.5151  0.3968  0.0941
 3526TIP3    H110542   5.177   5.263   3.579 -0.4894 -1.2399 -1.1027
 3526TIP3    H210543   5.189   5.324   3.441  0.5509  1.2662  0.0369
 3527TIP3   OH210544   2.121   3.797   4.516 -0.8120  0.2808 -0.1214
 3527TIP3    H110545   2.114   3.706   4.486  0.8416  0.4005 -0.9913
 3527TIP3    H210546   2.135   3.789   4.611  0.0128 -0.4323 -0.2873
 3528TIP3   OH210547   6.506   5.204   3.685  0.1318 -0.1869  0.3814
 3528TIP3    H110548   6.492   5.191   3.778 -0.3934  0.3379  0.3769
 3528TIP3    H210549   6.601   5.204   3.674  0.2428  1.3114  1.1440
 3529TIP3   OH210550   1.119   5.492   1.622 -0.3430 -0.3633  0.0665
 3529TIP3    H110551   1.059   5.461   1.689  0.3723 -2.1829 -0.0799
 3529TIP3    H210552   1.085   5.579   1.597 -1.6227 -0.4152  1.4977
 3530TIP3   OH210553   3.306   4.921   5.387 -0.1009  0.1036 -0.0087
 3530TIP3    H110554   3.303   4.919   5.483  0.7574  0.9270  0.0464
 3530TIP3    H210555   3.285   5.012   5.365 -0.1651 -0.0533 -0.6047
 3531TIP3   OH210556   2.564   4.179   2.675  0.4171 -0.2532  0.2802
 3531TIP3    H110557   2.629   4.132   2.726 -0.5996 -1.4474  0.5310
 3531TIP3    H210558   2.577   4.147   2.585  1.1975  0.6921  0.0487
 3532TIP3   OH210559   2.582   1.694   2.020 -0.0953  0.5585 -0.0892
 3532TIP3    H110560   2.657   1.714   2.076 -0.7643 -0.4882  1.2380
 3532TIP3    H210561   2.579   1.766   1.958  0.5095  1.9527  1.4211
 3533TIP3   OH210562   0.941   4.530   4.039  0.9121  0.5674 -0.0122
 3533TIP3    H110563   0.876   4.586   4.082  0.8418  0.6756 -0.2557
 3533TIP3    H210564   1.021   4.544   4.088  0.5513 -0.2257  0.8331
 3534TIP3   OH210565   0.819   2.903   4.392  0.3638  0.5514 -0.7875
 3534TIP3    H110566   0.745   2.909   4.452  0.6302  0.1621 -0.4160
 3534TIP3    H210567   0.813   2.815   4.355  0.1148  0.8393 -1.4521
 3535TIP3   OH210568   1.317   0.849   5.028 -0.2580 -0.2199 -0.0764
 3535TIP3    H110569   1.314   0.910   4.955 -0.1945  0.2083  0.2747
 3535TIP3    H210570   1.269   0.893   5.098 -0.3608 -0.6484  0.1267
 3536TIP3   OH210571   4.350   3.591   5.089 -0.2076  0.9633  0.3508
 3536TIP3    H110572   4.257   3.577   5.106  0.4804 -2.1593  2.5202
 3536TIP3    H210573   4.362   3.565   4.998 -1.3112  0.4405  0.3404
 3537TIP3   OH210574   6.306   3.233   5.649  0.0176 -0.0798  0.3546
 3537TIP3    H110575   6.314   3.327   5.664  0.6787  0.0757 -0.8113
 3537TIP3    H210576   6.239   3.225   5.580  1.9655 -0.2048 -1.6428
 3538TIP3   OH210577   3.494   5.059   3.843 -0.7172  0.3962  0.2369
 3538TIP3    H110578   3.482   5.141   3.891 -2.3159  0.1356  0.3252
 3538TIP3    H210579   3.410   5.043   3.800 -0.5279 -1.3334  0.4267
 3539TIP3   OH210580   1.790   6.155   3.324 -0.7623 -0.0739 -0.2537
 3539TIP3    H110581   1.884   6.173   3.336 -0.7574 -0.3415  0.1105
 3539TIP3    H210582   1.784   6.060   3.326 -1.0165 -0.0625 -0.4935
 3540TIP3   OH210583   2.946   6.775   5.374 -0.1326  0.1021 -0.0325
 3540TIP3    H110584   2.976   6.699   5.424  0.0278  0.1561 -0.0431
 3540TIP3    H210585   2.853   6.781   5.391 -0.0730  0.1351  0.2823
 3541TIP3   OH210586   2.339   2.314   5.570 -0.0745  0.5553 -0.1888
 3541TIP3    H110587   2.362   2.249   5.636 -1.4140 -0.6219 -0.8377
 3541TIP3    H210588   2.381   2.395   5.601  2.3562 -0.7455  0.2221
 3542TIP3   OH210589   3.958   3.521   4.878  0.2706 -0.1209 -0.0635
 3542TIP3    H110590   3.867   3.551   4.873  0.3675  0.1219 -0.3937
 3542TIP3    H210591   3.953   3.427   4.860  0.0015 -0.2535  0.6546
 3543TIP3   OH210592   2.932   5.197   3.010 -0.4171 -0.7351  0.4549
 3543TIP3    H110593   2.956   5.136   2.940  0.7280  0.4845 -0.2617
 3543TIP3    H210594   3.015   5.222   3.050 -0.5700  1.9789 -0.6989
 3544TIP3   OH210595   2.293   3.191   5.651  0.0254 -0.2891 -0.0848
 3544TIP3    H110596   2.239   3.256   5.696  1.9157 -0.3474  2.5403
 3544TIP3    H210597   2.235   3.117   5.635 -1.0710  0.2771  1.1173
 3545TIP3   OH210598   2.636   5.375   2.251  0.2050 -0.2589 -0.0194
 3545TIP3    H110599   2.675   5.329   2.326  1.9069  1.2966  0.1110
 3545TIP3    H210600   2.545   5.388   2.276  0.2738 -1.4415  0.9525
 3546TIP3   OH210601   2.047   5.460   5.664 -0.1604  0.2782 -0.1290
 3546TIP3    H110602   1.967   5.415   5.640  0.6114 -0.5795 -1.1667
 3546TIP3    H210603   2.019   5.550   5.684 -1.4924 -0.2480  0.4941
 3547TIP3   OH210604   4.104   4.307   0.894 -0.1453 -0.3779  0.0877
 3547TIP3    H110605   4.012   4.324   0.914  0.1061  1.7758 -0.3276
 3547TIP3    H210606   4.109   4.318   0.799  0.4747 -0.8666  0.0627
 3548TIP3   OH210607   6.755   5.459   2.310  0.1313  0.3749  0.8878
 3548TIP3    H110608   6.726   5.535   2.361  1.8250  1.0740  0.8541
 3548TIP3    H210609   6.758   5.489   2.220 -2.1096 -0.6478  0.3879
 3549TIP3   OH210610   1.812   3.695   5.452 -0.1611  0.5433  0.1991
 3549TIP3    H110611   1.776   3.621   5.500  1.1613  0.4854  1.1399
 3549TIP3    H210612   1.855   3.656   5.376  0.1355  0.3846  0.4471
 3550TIP3   OH210613   3.053   2.452   1.651  0.0018 -0.0257  0.2539
 3550TIP3    H110614   3.024   2.501   1.728 -1.4209 -1.6581  0.8129
 3550TIP3    H210615   2.982   2.463   1.587  0.6325  0.3344 -0.4048
 3551TIP3   OH210616   2.140   2.808   5.859 -0.1934  0.2190 -0.0861
 3551TIP3    H110617   2.121   2.902   5.852  0.3427  0.4198  0.9600
 3551TIP3    H210618   2.073   2.775   5.919  0.3037  0.1588  0.4415
 3552TIP3   OH210619   0.143   3.279   1.944  0.3011 -0.1492 -0.0364
 3552TIP3    H110620   0.098   3.231   1.874 -1.1185 -1.0919  1.4760
 3552TIP3    H210621   0.086   3.354   1.962  0.3274 -0.2712  0.5596
 3553TIP3   OH210622   6.275   5.060   5.739 -0.0537 -0.2129  0.7454
 3553TIP3    H110623   6.236   4.978   5.768 -0.3835 -0.1375  0.5254
 3553TIP3    H210624   6.259   5.121   5.810  0.3973 -0.4000  1.0081
 3554TIP3   OH210625   6.187   4.836   3.382  0.5270 -0.4578 -0.0095
 3554TIP3    H110626   6.251   4.858   3.450  0.5622  1.1417 -0.5047
 3554TIP3    H210627   6.239   4.803   3.309  0.5944 -1.0326  0.2908
 3555TIP3   OH210628   5.427   3.723   1.530 -0.2123  0.5167 -0.1326
 3555TIP3    H110629   5.337   3.750   1.545 -0.6361 -0.1618 -1.2982
 3555TIP3    H210630   5.479   3.802   1.542 -1.0015  0.9926  0.1956
 3556TIP3   OH210631   1.671   0.050   2.155 -0.0192 -0.1785 -0.1243
 3556TIP3    H110632   1.611   0.070   2.227 -1.2834 -2.6676 -0.3595
 3556TIP3    H210633   1.758   0.051   2.195 -0.6688 -1.2440  1.4235
 3557TIP3   OH210634   1.109   0.735   1.673 -0.3019  0.2049 -0.1128
 3557TIP3    H110635   1.018   0.724   1.700 -0.2292 -2.2037 -0.6145
 3557TIP3    H210636   1.106   0.742   1.578  0.0649 -0.7578 -0.2093
 3558TIP3   OH210637   5.062   1.365   3.628  0.1731 -0.4920 -0.1446
 3558TIP3    H110638   5.080   1.449   3.669  1.0640 -0.8976  0.3385
 3558TIP3    H210639   5.032   1.310   3.701  1.3885 -1.1058 -0.0752
 3559TIP3   OH210640   3.078   5.483   1.309  0.5189  0.1550 -0.2268
 3559TIP3    H110641   3.142   5.412   1.307 -0.5277 -0.8318  0.1931
 3559TIP3    H210642   3.060   5.496   1.402 -0.2569  0.0676 -0.3575
 3560TIP3   OH210643   4.586   5.119   1.832  0.3906 -0.1889 -0.5649
 3560TIP3    H110644   4.623   5.032   1.816  0.3792 -0.7146  1.9191
 3560TIP3    H210645   4.660   5.170   1.865 -0.4938 -0.6098  2.2983
 3561TIP3   OH210646   4.276   3.023   5.423  0.1409 -0.3031  0.8114
 3561TIP3    H110647   4.318   3.006   5.338 -0.3222 -0.8365  0.6846
 3561TIP3    H210648   4.298   2.945   5.475  1.0897  0.3717  1.4528
 3562TIP3   OH210649   2.198   6.346   4.273  0.0026  0.0282  0.3812
 3562TIP3    H110650   2.179   6.397   4.352  0.7286 -0.5838  0.9582
 3562TIP3    H210651   2.200   6.411   4.202  1.4922  0.8996  1.1835
 3563TIP3   OH210652   3.551   5.690   3.256  1.0668  0.0876  0.2215
 3563TIP3    H110653   3.526   5.601   3.280  0.7816 -0.0753 -0.6431
 3563TIP3    H210654   3.631   5.679   3.204  0.5093  0.2487 -0.6917
 3564TIP3   OH210655   2.596   1.955   3.629  0.5176 -0.7019  0.1845
 3564TIP3    H110656   2.560   2.013   3.561  1.5003 -1.3075 -0.9036
 3564TIP3    H210657   2.673   2.003   3.662 -0.8481  0.3244  2.0786
 3565TIP3   OH210658   3.290   3.920   1.132  0.1451 -0.0757 -0.6899
 3565TIP3    H110659   3.366   3.905   1.188 -0.4185 -0.0713  0.0805
 3565TIP3    H210660   3.289   4.014   1.116  1.4158 -0.3007 -2.3068
 3566TIP3   OH210661   0.629   1.955   5.507  0.0562  0.0694 -0.1163
 3566TIP3    H110662   0.687   1.900   5.559  0.8683 -0.7753 -1.8292
 3566TIP3    H210663   0.541   1.936   5.539  0.2774 -2.4699 -0.8059
 3567TIP3   OH210664   5.098   1.702   0.971 -0.0379 -0.7330 -0.2474
 3567TIP3    H110665   5.095   1.788   1.013  0.5889 -0.4389 -0.7816
 3567TIP3    H210666   5.016   1.697   0.922 -0.0265 -0.3897 -0.3043
 3568TIP3   OH210667   7.155   0.917   1.800  0.0693 -0.0605  0.2599
 3568TIP3    H110668   7.169   0.911   1.895  0.6392  0.5470  0.2224
 3568TIP3    H210669   7.130   0.828   1.774  1.0504 -0.5250  0.8080
 3569TIP3   OH210670   0.168   3.103   2.149  0.6599 -0.0492 -0.1293
 3569TIP3    H110671   0.124   3.102   2.064  1.3354  3.6980 -0.6920
 3569TIP3    H210672   0.258   3.131   2.129  1.1848 -0.3444  1.6900
 3570TIP3   OH210673   5.719   4.162   2.668 -0.2400  0.3049  0.5405
 3570TIP3    H110674   5.737   4.069   2.656  0.6518  0.4292  0.8434
 3570TIP3    H210675   5.803   4.205   2.652 -0.3837  0.9559  1.4437
 3571TIP3   OH210676   7.150   3.259   2.419 -0.3128  0.1711 -0.1470
 3571TIP3    H110677   7.110   3.196   2.479  0.4461 -0.2659 -0.0800
 3571TIP3    H210678   7.081   3.279   2.356 -1.1615  0.7182  0.9161
 3572TIP3   OH210679   4.324   6.331   3.141  0.0929 -0.1541  0.5546
 3572TIP3    H110680   4.401   6.388   3.144 -0.9561  1.7433 -2.7655
 3572TIP3    H210681   4.332   6.285   3.057 -2.1084 -0.2419  0.3410
 3573TIP3   OH210682   4.019   2.751   3.876  0.6845  0.3390  0.3233
 3573TIP3    H110683   3.969   2.719   3.951 -0.5802  3.1575  0.8372
 3573TIP3    H210684   4.109   2.759   3.908  1.3862 -3.5522 -0.2093
 3574TIP3   OH210685   2.165   1.027   3.301  0.4835  0.0435  0.4333
 3574TIP3    H110686   2.092   1.078   3.267 -0.0946 -1.8286 -1.3335
 3574TIP3    H210687   2.129   0.939   3.314  2.0394 -0.5397  1.0496
 3575TIP3   OH210688   1.090   6.717   4.258 -0.0031 -0.2288 -0.1493
 3575TIP3    H110689   1.059   6.689   4.345 -1.1196  0.3799 -0.3300
 3575TIP3    H210690   1.158   6.781   4.277 -1.8426  1.6797  0.3512
 3576TIP3   OH210691   6.997   2.675   1.420  0.2874  0.7465  0.7112
 3576TIP3    H110692   6.990   2.729   1.499 -0.7963  0.2566  0.9575
 3576TIP3    H210693   6.928   2.708   1.362  0.0226  0.0386  0.6154
 3577TIP3   OH210694   6.148   3.087   4.725 -0.0256 -0.2879 -0.0982
 3577TIP3    H110695   6.165   2.993   4.726  1.6906 -0.0079  1.0022
 3577TIP3    H210696   6.054   3.094   4.709 -0.1494 -2.1701 -0.4660
 3578TIP3   OH210697   2.953   1.820   5.009 -0.0928 -0.0831 -0.0466
 3578TIP3    H110698   3.046   1.842   5.021 -0.6276  1.7040  1.1031
 3578TIP3    H210699   2.918   1.814   5.098 -1.1471 -0.5076 -0.4751
 3579TIP3   OH210700   4.443   0.347   4.308  0.3088  0.3882  0.7905
 3579TIP3    H110701   4.500   0.389   4.243  1.5832 -0.4653  1.3021
 3579TIP3    H210702   4.356   0.383   4.291  1.1279  2.3122  0.4743
 3580TIP3   OH210703   0.107   0.355   1.955 -0.1899  0.1651 -0.0367
 3580TIP3    H110704   0.189   0.381   1.914 -1.0157  0.2819 -1.6654
 3580TIP3    H210705   0.067   0.437   1.983 -0.5919  0.2665 -0.8943
 3581TIP3   OH210706   6.337   0.162   3.510 -0.0535  0.2284  0.1201
 3581TIP3    H110707   6.340   0.134   3.601 -1.6210 -1.2209 -0.2294
 3581TIP3    H210708   6.350   0.081   3.460 -1.2644  0.6541 -0.9236
 3582TIP3   OH210709   6.337   5.922   2.230  0.0494  0.4018 -0.1932
 3582TIP3    H110710   6.274   5.936   2.160 -1.1473  0.3876  0.8478
 3582TIP3    H210711   6.349   5.827   2.233 -0.5539  0.3342  0.1712
 3583TIP3   OH210712   6.804   5.479   0.260 -0.3749 -0.2977  0.5898
 3583TIP3    H110713   6.878   5.466   0.320 -0.5386  0.6065  0.9975
 3583TIP3    H210714   6.819   5.566   0.222 -0.7501 -0.4926 -0.0113
 3584TIP3   OH210715   0.849   0.648   1.773 -0.2026 -0.3614 -0.4073
 3584TIP3    H110716   0.788   0.720   1.789 -1.2500 -0.8842 -1.9128
 3584TIP3    H210717   0.848   0.598   1.855 -1.6619 -0.2457 -0.3205
 3585TIP3   OH210718   3.581   5.743   1.385 -0.0006 -0.5996 -0.1832
 3585TIP3    H110719   3.655   5.776   1.334 -1.8011  1.7244 -1.5023
 3585TIP3    H210720   3.562   5.812   1.448 -0.2638 -1.7492  1.0516
 3586TIP3   OH210721   3.918   0.238   3.199 -0.4171 -0.3368 -1.0814
 3586TIP3    H110722   3.906   0.332   3.210  0.3661 -0.4244  1.2014
 3586TIP3    H210723   3.903   0.202   3.287  2.3515 -1.9350 -1.1313
 3587TIP3   OH210724   0.720   2.234   3.838  0.1216 -0.5646  0.7898
 3587TIP3    H110725   0.720   2.149   3.882 -2.7709 -3.1213 -3.3643
 3587TIP3    H210726   0.641   2.278   3.872  0.2647 -0.6180  1.1961
 3588TIP3   OH210727   2.949   4.387   1.358 -0.1807  0.2041 -0.4539
 3588TIP3    H110728   3.004   4.325   1.407  1.3711  1.7425 -0.1214
 3588TIP3    H210729   3.002   4.412   1.283 -1.3245  0.1381 -1.2989
 3589TIP3   OH210730   6.153   1.502   3.443  0.3716  0.4388  0.3870
 3589TIP3    H110731   6.069   1.536   3.411  0.5538  1.8048  1.2720
 3589TIP3    H210732   6.130   1.448   3.519 -0.0375 -2.6011 -1.7426
 3590TIP3   OH210733   2.580   4.933   4.683  0.6170 -0.4613 -0.0597
 3590TIP3    H110734   2.596   4.965   4.772 -0.3199 -1.6763  0.5841
 3590TIP3    H210735   2.491   4.962   4.664  0.6943 -0.4991 -0.4762
 3591TIP3   OH210736   5.672   2.394   4.873  0.0501 -0.0794  0.1127
 3591TIP3    H110737   5.760   2.394   4.836 -0.0818  1.1284 -0.2429
 3591TIP3    H210738   5.665   2.477   4.919 -0.8116 -0.2871  0.3871
 3592TIP3   OH210739   0.032   5.466   1.633  0.1962  0.0424  0.3036
 3592TIP3    H110740   0.070   5.397   1.578  0.2781  0.2772  0.0627
 3592TIP3    H210741   0.080   5.460   1.715 -0.9366 -1.3081  0.9217
 3593TIP3   OH210742   3.305   5.659   2.119  0.3042 -0.5577 -0.3634
 3593TIP3    H110743   3.267   5.730   2.171 -0.2678 -0.1242 -1.3352
 3593TIP3    H210744   3.322   5.589   2.182  1.3123  0.5977  0.6980
 3594TIP3   OH210745   1.460   4.386   5.539  0.3775  0.1597 -0.3286
 3594TIP3    H110746   1.475   4.436   5.458 -1.3902  0.0602 -0.7548
 3594TIP3    H210747   1.385   4.429   5.580 -0.9490 -1.8734 -0.5073
 3595TIP3   OH210748   0.343   6.170   1.825 -0.0129 -0.4289 -0.1086
 3595TIP3    H110749   0.321   6.094   1.772  1.0941 -0.2140 -0.9255
 3595TIP3    H210750   0.367   6.134   1.911 -0.0579 -0.9480 -0.3136
 3596TIP3   OH210751   2.372   5.431   5.226 -0.0022 -0.1410 -0.4238
 3596TIP3    H110752   2.379   5.526   5.226 -0.4137 -0.1108 -0.2093
 3596TIP3    H210753   2.359   5.408   5.319 -1.5831 -0.2860 -0.6602
 3597TIP3   OH210754   5.291   0.126   5.679  0.3719 -0.0501  0.0426
 3597TIP3    H110755   5.229   0.135   5.606 -0.2433 -0.8817  0.4510
 3597TIP3    H210756   5.359   0.068   5.646  0.9327  0.8300 -0.3922
 3598TIP3   OH210757   0.795   1.557   4.329  0.2919 -1.0847  0.9101
 3598TIP3    H110758   0.710   1.525   4.360  1.0429 -3.5681  0.6185
 3598TIP3    H210759   0.777   1.646   4.299 -1.6162 -0.5259  3.3469
 3599TIP3   OH210760   5.705   2.546   1.035 -0.0146 -0.0385  0.1425
 3599TIP3    H110761   5.682   2.476   1.096 -3.9541 -0.6778 -1.7897
 3599TIP3    H210762   5.672   2.625   1.076  0.7706  0.1282  0.4792
 3600TIP3   OH210763   1.529   0.358   2.602 -0.3022 -0.1318  0.1334
 3600TIP3    H110764   1.574   0.274   2.611  2.8041  1.4805  1.0202
 3600TIP3    H210765   1.509   0.384   2.692  1.7386  1.5009  0.1723
 3601TIP3   OH210766   1.024   2.909   1.213  0.4008  0.3012 -0.1724
 3601TIP3    H110767   0.966   2.941   1.283 -0.8957 -1.0662 -0.5576
 3601TIP3    H210768   1.024   2.980   1.149 -0.0790  0.7225  0.2726
 3602TIP3   OH210769   3.343   2.681   3.191  0.2577  0.0424  0.2359
 3602TIP3    H110770   3.347   2.691   3.096  0.3568  0.8862  0.3186
 3602TIP3    H210771   3.403   2.609   3.210  1.2616  0.7212 -0.2373
 3603TIP3   OH210772   0.840   0.259   5.908  0.7341  0.0591  0.1486
 3603TIP3    H110773   0.801   0.288   5.826  0.6798  0.3363  0.2685
 3603TIP3    H210774   0.886   0.178   5.886  0.3455 -0.1102 -0.0571
 3604TIP3   OH210775   6.531   3.951   4.709  0.0122 -0.2538 -0.4167
 3604TIP3    H110776   6.523   4.047   4.708  1.5994 -0.0575  1.0748
 3604TIP3    H210777   6.459   3.921   4.764 -0.9797 -0.0186 -1.5379
 3605TIP3   OH210778   3.846   5.459   4.150  0.5651  0.0525  0.3745
 3605TIP3    H110779   3.760   5.417   4.161  0.0107  1.3873  1.4515
 3605TIP3    H210780   3.855   5.470   4.055 -0.3687 -0.2734  0.2338
 3606TIP3   OH210781   4.973   1.770   4.114  0.5514 -0.5819  0.3503
 3606TIP3    H110782   5.048   1.827   4.102 -0.2223  0.4750  0.3582
 3606TIP3    H210783   4.955   1.734   4.027  0.4938 -0.0861  0.1554
 3607TIP3   OH210784   4.651   4.462   0.577 -0.0830  0.1192 -0.8686
 3607TIP3    H110785   4.728   4.441   0.630 -0.2361 -0.2675 -0.8019
 3607TIP3    H210786   4.670   4.549   0.541 -1.1956  1.7210  2.1004
 3608TIP3   OH210787   3.136   5.020   1.137  0.0667  0.1189 -0.0740
 3608TIP3    H110788   3.175   4.960   1.074 -0.5175 -0.3051 -0.0371
 3608TIP3    H210789   3.176   4.997   1.220  0.8341  0.6739 -0.2788
 3609TIP3   OH210790   3.217   5.367   5.147 -0.0997 -0.0385 -0.3397
 3609TIP3    H110791   3.220   5.295   5.209 -0.7639 -0.0220 -0.2852
 3609TIP3    H210792   3.300   5.413   5.159  2.1795 -2.9707 -3.0158
 3610TIP3   OH210793   0.322   6.109   5.489 -0.1853  0.3501 -0.0656
 3610TIP3    H110794   0.235   6.098   5.527  0.6276 -0.9892  1.5367
 3610TIP3    H210795   0.337   6.203   5.489 -0.4792  0.4502  2.4572
 3611TIP3   OH210796   4.821   1.077   5.736  0.1738  0.1096 -0.5731
 3611TIP3    H110797   4.903   1.036   5.762  0.2362  0.1078 -0.7674
 3611TIP3    H210798   4.826   1.166   5.772  0.3978  0.2099 -0.8451
 3612TIP3   OH210799   1.655   2.149   5.828  0.3733 -0.0126  0.3972
 3612TIP3    H110800   1.714   2.206   5.778 -1.8377  1.6553 -0.4661
 3612TIP3    H210801   1.610   2.097   5.762 -0.0733 -0.2915  0.9166
 3613TIP3   OH210802   4.402   2.116   3.397 -0.1619 -0.0772 -0.1166
 3613TIP3    H110803   4.353   2.154   3.470 -1.0326  0.6028 -1.0141
 3613TIP3    H210804   4.475   2.177   3.383 -0.8194  0.6058 -0.7158
 3614TIP3   OH210805   0.574   4.084   0.171 -0.3914  0.1376  0.0638
 3614TIP3    H110806   0.623   4.070   0.252 -0.9540  1.7571  0.7284
 3614TIP3    H210807   0.573   3.998   0.128  1.2147 -0.4045  1.0272
 3615TIP3   OH210808   4.244   1.823   0.177  0.3980  0.0266  0.1271
 3615TIP3    H110809   4.203   1.810   0.263  0.4980 -1.0062  0.0323
 3615TIP3    H210810   4.200   1.900   0.140 -0.4315 -0.1960  0.6276
 3616TIP3   OH210811   1.392   0.708   0.416 -0.3289 -0.1853 -0.9552
 3616TIP3    H110812   1.299   0.713   0.436  0.0379  2.0951  0.5708
 3616TIP3    H210813   1.402   0.753   0.332 -0.7289 -1.6351 -1.8100
 3617TIP3   OH210814   3.251   2.649   2.357 -0.3067 -0.3071 -0.2507
 3617TIP3    H110815   3.202   2.640   2.275 -1.4625 -0.3407  0.4218
 3617TIP3    H210816   3.258   2.561   2.391  2.3122 -0.6636 -1.4568
 3618TIP3   OH210817   6.564   2.007   0.134 -0.5897  0.1855  0.0023
 3618TIP3    H110818   6.629   2.070   0.166  0.3318 -0.0930 -1.2248
 3618TIP3    H210819   6.614   1.926   0.121 -1.1666 -0.0327 -0.9606
 3619TIP3   OH210820   6.865   4.510   1.596  1.0977 -0.3895  0.1574
 3619TIP3    H110821   6.772   4.508   1.572  1.0417  1.1234  0.1624
 3619TIP3    H210822   6.881   4.425   1.635 -0.4408 -0.4717  0.6841
 3620TIP3   OH210823   4.196   5.899   0.553  0.5704  0.4336 -0.3282
 3620TIP3    H110824   4.124   5.952   0.519 -0.2967 -0.8830 -0.6194
 3620TIP3    H210825   4.183   5.901   0.648  1.7334  2.3529 -0.1689
 3621TIP3   OH210826   0.367   5.170   2.989  0.4700  0.2451  0.5177
 3621TIP3    H110827   0.368   5.141   2.897 -1.7675 -0.9571  0.8106
 3621TIP3    H210828   0.369   5.089   3.039 -1.7300  0.7062  1.4501
 3622TIP3   OH210829   4.296   1.177   4.114  0.5776 -0.1159 -0.2016
 3622TIP3    H110830   4.250   1.208   4.192  0.7288  0.1827 -0.2322
 3622TIP3    H210831   4.255   1.225   4.041  1.1090  0.3408 -0.2028
 3623TIP3   OH210832   5.929   6.272   3.412 -0.1619  0.3307  0.1212
 3623TIP3    H110833   5.914   6.276   3.318  0.6264 -0.1173 -0.0312
 3623TIP3    H210834   6.016   6.309   3.424 -0.0384 -0.1067  0.6124
 3624TIP3   OH210835   3.611   2.538   5.148  0.2104 -0.0040  0.0798
 3624TIP3    H110836   3.673   2.551   5.220  0.3903  0.6584 -0.1885
 3624TIP3    H210837   3.613   2.620   5.099 -0.7031 -0.0526 -0.0680
 3625TIP3   OH210838   7.087   3.343   3.097 -0.4236  0.3845  0.2590
 3625TIP3    H110839   7.006   3.326   3.048 -0.7125  0.3848  0.7315
 3625TIP3    H210840   7.093   3.272   3.160  0.0645  0.2655  0.0832
 3626TIP3   OH210841   6.319   2.046   0.236  0.5680 -0.2469 -0.1365
 3626TIP3    H110842   6.319   2.007   0.323  1.2690  1.2027  0.5290
 3626TIP3    H210843   6.403   2.019   0.197  1.0391  0.5562  0.3115
 3627TIP3   OH210844   7.018   1.078   3.746 -0.9828 -0.1680 -0.3241
 3627TIP3    H110845   7.029   1.173   3.733  0.1644 -0.0411  1.2720
 3627TIP3    H210846   7.058   1.061   3.831 -0.9278 -2.1523 -0.7028
 3628TIP3   OH210847   4.904   3.105   1.526 -0.0712 -0.9979  0.5583
 3628TIP3    H110848   4.834   3.170   1.536 -0.8569 -1.6485 -0.5469
 3628TIP3    H210849   4.957   3.138   1.453  0.3132 -0.9177  0.8715
 3629TIP3   OH210850   2.642   0.825   0.636  0.1284  0.2352  0.0154
 3629TIP3    H110851   2.681   0.886   0.574 -1.7136 -0.6184 -2.0881
 3629TIP3    H210852   2.551   0.817   0.609 -0.5458 -0.8721  2.3213
 3630TIP3   OH210853   5.361   6.125   1.830 -0.0178 -0.1033 -0.5751
 3630TIP3    H110854   5.395   6.047   1.873  1.4045  1.1932  0.7855
 3630TIP3    H210855   5.343   6.186   1.902  0.1712  1.2897 -1.6635
 3631TIP3   OH210856   2.406   1.691   0.617 -0.1360 -0.2299  0.1161
 3631TIP3    H110857   2.344   1.666   0.686 -2.0455  3.1113 -0.1736
 3631TIP3    H210858   2.352   1.708   0.541  1.2255  1.8169 -0.4745
 3632TIP3   OH210859   1.035   2.376   4.836 -0.2397  0.0514  0.2306
 3632TIP3    H110860   0.968   2.314   4.807 -0.8689  0.4020  0.8905
 3632TIP3    H210861   1.032   2.371   4.931 -0.4969  1.2844  0.2998
 3633TIP3   OH210862   4.128   2.251   5.672  0.2858  0.0604  0.4091
 3633TIP3    H110863   4.070   2.175   5.681 -0.7129  0.8915  1.3202
 3633TIP3    H210864   4.092   2.315   5.733  1.6818  0.9219  0.3626
 3634TIP3   OH210865   0.597   2.558   0.913  0.0302  0.2553  0.4135
 3634TIP3    H110866   0.644   2.516   0.841  0.4565 -0.7322  1.2447
 3634TIP3    H210867   0.665   2.607   0.960  0.1512 -0.7849  1.3369
 3635TIP3   OH210868   5.319   5.966   2.139  0.5117  0.0339 -0.3753
 3635TIP3    H110869   5.350   5.903   2.074  0.0134 -2.1403  1.3595
 3635TIP3    H210870   5.227   5.979   2.119  0.6712  0.4250 -0.8772
 3636TIP3   OH210871   2.934   0.984   4.718 -0.1002 -0.0161 -0.5379
 3636TIP3    H110872   2.898   0.907   4.674 -1.2553  0.3463 -0.2736
 3636TIP3    H210873   2.960   1.043   4.647  1.8445 -1.0785 -0.7639
 3637TIP3   OH210874   0.918   5.140   3.954 -0.8262 -0.3056 -0.1821
 3637TIP3    H110875   0.827   5.166   3.946 -0.6288  0.4888  0.0748
 3637TIP3    H210876   0.916   5.063   4.010 -1.2627  0.2155  0.5292
 3638TIP3   OH210877   5.648   1.290   0.424 -0.1448 -0.1774  0.3532
 3638TIP3    H110878   5.709   1.227   0.464 -1.0695 -0.4379  1.4093
 3638TIP3    H210879   5.669   1.373   0.465  1.8284  0.5067 -1.8503
 3639TIP3   OH210880   3.114   0.448   5.086 -0.1195 -0.0087 -0.3413
 3639TIP3    H110881   3.075   0.361   5.093 -2.2020  0.9228  0.6059
 3639TIP3    H210882   3.157   0.462   5.171  0.1785 -0.0882 -0.4772
 3640TIP3   OH210883   1.535   4.938   3.693 -0.6761 -0.3943  0.4080
 3640TIP3    H110884   1.617   4.939   3.742 -0.1960 -0.8042 -0.3566
 3640TIP3    H210885   1.518   5.030   3.672 -0.2257 -0.3426  0.2701
 3641TIP3   OH210886   0.131   2.999   1.849 -0.3400  0.6153 -0.5223
 3641TIP3    H110887   0.148   2.942   1.774 -2.2018  0.7071 -1.0660
 3641TIP3    H210888   0.108   2.939   1.920 -2.4057  0.6104 -1.1231
 3642TIP3   OH210889   6.195   6.197   4.469 -0.6099  0.0492 -0.2929
 3642TIP3    H110890   6.114   6.167   4.428 -1.0978  0.8323  0.0800
 3642TIP3    H210891   6.244   6.116   4.488 -0.3719 -0.3481 -2.3546
 3643TIP3   OH210892   6.167   6.285   2.000 -0.1887  0.3284  1.1729
 3643TIP3    H110893   6.122   6.232   2.066 -0.1322 -1.6952 -0.2972
 3643TIP3    H210894   6.233   6.226   1.963 -0.7406  1.0697 -1.1875
 3644TIP3   OH210895   1.786   4.221   1.968 -0.3200 -0.2586  0.0308
 3644TIP3    H110896   1.796   4.128   1.989  1.0993 -0.5906 -1.8370
 3644TIP3    H210897   1.701   4.227   1.925  0.4872 -1.1731 -1.8288
 3645TIP3   OH210898   1.398   3.291   5.123 -0.3099  0.0114 -0.0485
 3645TIP3    H110899   1.413   3.354   5.053  0.7633  0.1677  0.2937
 3645TIP3    H210900   1.355   3.217   5.081 -1.9183  1.1065 -0.3850
 3646TIP3   OH210901   2.222   2.451   1.549 -0.2209 -0.0359 -0.2395
 3646TIP3    H110902   2.208   2.461   1.455  0.9550  0.9979 -0.3367
 3646TIP3    H210903   2.138   2.472   1.589  0.2130  3.5676 -0.8848
 3647TIP3   OH210904   3.639   0.051   2.982 -0.0164 -0.4031 -0.3457
 3647TIP3    H110905   3.665   0.041   3.074 -0.0967 -2.2099 -0.5005
 3647TIP3    H210906   3.616  -0.037   2.953  2.5580 -0.4023 -2.8652
 3648TIP3   OH210907   2.488   2.655   1.843 -0.0082 -0.0412 -0.2598
 3648TIP3    H110908   2.564   2.599   1.827  1.3381  0.8374  2.4903
 3648TIP3    H210909   2.501   2.688   1.932 -1.9279  2.7557 -0.8969
 3649TIP3   OH210910   7.047   2.119   4.312  0.7930  0.2546 -0.5534
 3649TIP3    H110911   7.108   2.091   4.380  1.9273  0.2743 -1.5145
 3649TIP3    H210912   7.055   2.052   4.244 -0.0415  0.4225 -0.8258
 3650TIP3   OH210913   5.930   5.231   4.017  0.1058 -0.0246  0.0410
 3650TIP3    H110914   5.961   5.273   4.097  1.4622  1.3790 -1.1670
 3650TIP3    H210915   5.964   5.142   4.021  1.4844  0.4967  0.3321
 3651TIP3   OH210916   4.582   5.191   3.241 -0.9654  0.8327 -0.0400
 3651TIP3    H110917   4.498   5.159   3.209 -1.2261  1.0636  0.4060
 3651TIP3    H210918   4.561   5.240   3.321 -0.4622  1.2830 -0.1732
 3652TIP3   OH210919   6.350   3.406   3.018  0.2765  0.3418 -0.6757
 3652TIP3    H110920   6.286   3.404   3.088  0.4416  0.8534 -0.5069
 3652TIP3    H210921   6.350   3.317   2.983 -0.4112  0.2999 -0.5794
 3653TIP3   OH210922   3.706   4.675   1.142 -0.8277 -0.5026 -0.2137
 3653TIP3    H110923   3.685   4.745   1.081 -2.2756 -0.0786  0.7158
 3653TIP3    H210924   3.669   4.596   1.103  1.8762 -1.0712 -1.8745
 3654TIP3   OH210925   5.283   1.148   2.983 -0.5944 -0.3089 -0.1116
 3654TIP3    H110926   5.249   1.237   2.987 -0.6678 -0.3647  0.8736
 3654TIP3    H210927   5.206   1.092   2.981 -0.5546 -0.3644 -0.1046
 3655TIP3   OH210928   6.021   5.220   1.850 -0.3809 -0.0146 -1.0706
 3655TIP3    H110929   6.077   5.143   1.842  0.4706  0.3707  0.7353
 3655TIP3    H210930   6.038   5.271   1.770 -1.5738 -2.0230 -2.6981
 3656TIP3   OH210931   0.081   4.722   2.124  0.2231 -0.2820  0.1086
 3656TIP3    H110932  -0.008   4.718   2.159  0.3571 -1.1695  0.3722
 3656TIP3    H210933   0.121   4.795   2.171 -0.2783 -0.0522  0.1890
 3657TIP3   OH210934   4.280   4.958   2.034 -0.2531 -0.9570  0.0394
 3657TIP3    H110935   4.320   4.913   2.109 -0.7064 -0.9415  0.2942
 3657TIP3    H210936   4.192   4.979   2.063 -0.1757 -0.2445 -0.2242
 3658TIP3   OH210937   4.188   2.608   3.314  0.3239 -1.0705 -0.5146
 3658TIP3    H110938   4.195   2.686   3.370 -0.8705 -0.6149 -0.9698
 3658TIP3    H210939   4.257   2.620   3.248  0.1834 -0.4118 -0.5556
 3659TIP3   OH210940   1.458   6.350   0.810  0.0702 -0.5508 -0.7894
 3659TIP3    H110941   1.408   6.431   0.799  1.2776  0.4268  0.6547
 3659TIP3    H210942   1.506   6.340   0.727  0.2893  0.4810 -0.7979
 3660TIP3   OH210943   2.905   3.643   4.083  0.7823 -0.2884 -0.4765
 3660TIP3    H110944   3.000   3.634   4.073  1.3573  0.2401  3.1387
 3660TIP3    H210945   2.892   3.657   4.177 -2.6969  2.1064 -1.1209
 3661TIP3   OH210946   3.728   3.167   2.920  0.1391  0.5283  0.6133
 3661TIP3    H110947   3.641   3.132   2.940  0.1412 -0.0834 -0.4028
 3661TIP3    H210948   3.788   3.113   2.972  0.2975 -2.1958 -2.1649
 3662TIP3   OH210949   4.577   5.663   4.643  0.8748 -0.7875 -0.2973
 3662TIP3    H110950   4.570   5.616   4.726  0.8159 -0.0164  0.1349
 3662TIP3    H210951   4.605   5.596   4.581  0.0253 -1.5751  0.1437
 3663TIP3   OH210952   6.727   6.314   5.426 -0.4317 -0.2449 -0.1572
 3663TIP3    H110953   6.749   6.405   5.410  1.0677 -0.8784 -2.1437
 3663TIP3    H210954   6.682   6.285   5.346 -2.9200 -0.7135  1.3085
 3664TIP3   OH210955   1.969   0.600   2.763 -0.5559  0.0127 -0.3879
 3664TIP3    H110956   1.879   0.595   2.795  0.1241 -0.5268  1.5752
 3664TIP3    H210957   1.965   0.661   2.689 -2.5198 -0.0468 -0.3875
 3665TIP3   OH210958   6.938   4.001   3.127  0.5104  0.1900 -0.0634
 3665TIP3    H110959   6.944   3.939   3.054 -0.7966 -0.5463  0.4108
 3665TIP3    H210960   6.999   3.967   3.192  0.1853 -0.3315 -0.0166
 3666TIP3   OH210961   2.700   2.950   2.070 -0.2807 -0.3085  0.3781
 3666TIP3    H110962   2.673   2.983   2.155 -0.5737 -0.0154  0.1721
 3666TIP3    H210963   2.689   3.024   2.010 -3.4752 -1.4065 -0.6294
 3667TIP3   OH210964   4.911   0.720   5.176 -0.3525  0.1244  0.1751
 3667TIP3    H110965   4.929   0.685   5.089 -0.2567 -1.3502  0.7577
 3667TIP3    H210966   4.816   0.718   5.183 -0.4191  1.3164 -0.3092
 3668TIP3   OH210967   4.623   0.601   2.815  0.0044 -0.0130  0.6613
 3668TIP3    H110968   4.642   0.686   2.853 -1.5813  0.1823  1.1028
 3668TIP3    H210969   4.559   0.620   2.746  1.4730 -0.5787 -0.9123
 3669TIP3   OH210970   5.943   5.774   2.784 -0.3893 -0.1477 -0.0536
 3669TIP3    H110971   6.038   5.771   2.784 -0.3315  0.8772 -0.6218
 3669TIP3    H210972   5.915   5.690   2.819  0.7310 -0.1404  0.9164
 3670TIP3   OH210973   2.080   2.841   2.252  0.1833  0.3125  0.1585
 3670TIP3    H110974   1.991   2.877   2.257 -1.4485 -3.0838 -1.4231
 3670TIP3    H210975   2.111   2.865   2.165 -0.1532 -0.4962 -0.1875
 3671TIP3   OH210976   3.616   5.097   1.658  0.4314  0.3834  0.1678
 3671TIP3    H110977   3.553   5.104   1.587 -0.0405 -0.7948  0.4516
 3671TIP3    H210978   3.678   5.169   1.643  0.3826  0.1108 -1.4678
 3672TIP3   OH210979   6.287   1.324   4.536  0.2457 -0.2785  0.7693
 3672TIP3    H110980   6.343   1.328   4.614  0.0652 -0.6457  0.9218
 3672TIP3    H210981   6.254   1.413   4.526  1.8245  0.2614 -0.0515
 3673TIP3   OH210982   1.985   6.410   0.924 -0.6388  0.5422 -0.0631
 3673TIP3    H110983   1.974   6.356   0.845 -0.8020 -0.0504  0.3560
 3673TIP3    H210984   1.987   6.346   0.996  1.8161  0.8792  0.2326
 3674TIP3   OH210985   2.690   4.336   5.307 -0.3462 -0.3243 -0.0480
 3674TIP3    H110986   2.710   4.378   5.223 -3.2472  0.4305 -0.4844
 3674TIP3    H210987   2.688   4.408   5.370  0.1654 -0.6489  0.3473
 3675TIP3   OH210988   5.867   1.901   2.718 -0.1027  0.4700  0.1084
 3675TIP3    H110989   5.859   1.989   2.754 -0.3980  0.4163  0.1743
 3675TIP3    H210990   5.950   1.902   2.670 -0.6955  1.1680 -0.9467
 3676TIP3   OH210991   7.106   6.727   1.379  0.5577  0.1753 -0.8295
 3676TIP3    H110992   7.114   6.711   1.473  2.5397 -0.5183 -1.0620
 3676TIP3    H210993   7.142   6.647   1.338  0.5690  0.8291 -2.1532
 3677TIP3   OH210994   1.643   3.764   4.532  0.5567  0.5177 -0.2379
 3677TIP3    H110995   1.601   3.683   4.507  0.2765  0.5855  0.0143
 3677TIP3    H210996   1.733   3.755   4.500  0.2122  0.6009 -1.2668
 3678TIP3   OH210997   0.592   3.541   5.039 -0.6169  0.0299  0.7463
 3678TIP3    H110998   0.642   3.489   4.976  0.4225  2.1006 -0.2465
 3678TIP3    H210999   0.501   3.534   5.010 -0.4216 -0.7390  0.2924
 3679TIP3   OH211000   1.696   6.507   2.805  0.4076  0.5589 -0.1822
 3679TIP3    H111001   1.748   6.464   2.737 -0.3784  0.2354 -0.5886
 3679TIP3    H211002   1.687   6.441   2.874 -2.1027 -0.5720 -1.4558
 3680TIP3   OH211003   4.859   5.519   1.255 -0.4390  0.0623 -0.1679
 3680TIP3    H111004   4.851   5.549   1.164 -0.3000  2.1974  0.4840
 3680TIP3    H211005   4.771   5.531   1.292  0.1133  1.8486  0.6926
 3681TIP3   OH211006   5.515   4.162   4.799 -0.8002  0.4977 -0.6145
 3681TIP3    H111007   5.557   4.182   4.882 -1.1271  2.5084 -0.8738
 3681TIP3    H211008   5.421   4.172   4.816 -0.8466  1.3759 -1.3039
 3682TIP3   OH211009   2.516   1.522   0.345  0.2740 -0.2738  0.0739
 3682TIP3    H111010   2.489   1.456   0.282  0.9129 -1.2433  0.7961
 3682TIP3    H211011   2.611   1.527   0.336  0.1810  1.0857 -0.4735
 3683TIP3   OH211012   5.189   1.736   2.433 -0.4382  0.1515  0.1659
 3683TIP3    H111013   5.134   1.675   2.481 -1.8459  0.0239 -1.5299
 3683TIP3    H211014   5.175   1.715   2.341  0.8484  1.5068 -0.3949
 3684TIP3   OH211015   6.824   5.886   1.535 -0.0955  0.2683  0.1260
 3684TIP3    H111016   6.822   5.949   1.607 -0.6920  0.3581  0.0336
 3684TIP3    H211017   6.732   5.871   1.513 -0.0035 -1.2338  0.6610
 3685TIP3   OH211018   7.001   1.631   4.081 -0.1445 -0.2094 -0.2697
 3685TIP3    H111019   6.918   1.583   4.073  0.0147 -0.5790  0.2675
 3685TIP3    H211020   7.054   1.578   4.141 -0.0438  0.7545  0.5124
 3686TIP3   OH211021   4.383   3.853   4.864  0.3848 -0.4708  0.2296
 3686TIP3    H111022   4.455   3.889   4.917 -2.2924  3.4090  1.6756
 3686TIP3    H211023   4.310   3.845   4.925 -1.5872 -0.1743 -1.9778
 3687TIP3   OH211024   6.242   1.054   0.927  0.3093 -0.1000  0.2129
 3687TIP3    H111025   6.158   1.024   0.961  1.2666 -0.8474  2.0898
 3687TIP3    H211026   6.227   1.145   0.902 -1.1418 -0.3456  0.1334
 3688TIP3   OH211027   6.534   0.762   3.310 -0.0115 -0.0903 -0.4796
 3688TIP3    H111028   6.510   0.670   3.295  0.4993 -0.1070 -1.2769
 3688TIP3    H211029   6.607   0.758   3.371 -0.8998 -0.1287  0.6058
 3689TIP3   OH211030   4.117   6.226   2.224  0.1163  0.0392  0.0426
 3689TIP3    H111031   4.109   6.321   2.219  1.0914  0.0888 -0.9089
 3689TIP3    H211032   4.072   6.193   2.147  0.5483 -0.2133 -0.1067
 3690TIP3   OH211033   6.733   1.198   0.823  0.1655  0.2857  0.3021
 3690TIP3    H111034   6.712   1.201   0.729 -1.0362 -1.3384  0.4811
 3690TIP3    H211035   6.828   1.189   0.826  0.1033 -1.1473 -0.8363
 3691TIP3   OH211036   0.494   1.586   3.405  0.4568 -0.3875 -0.3130
 3691TIP3    H111037   0.526   1.548   3.486 -1.1910 -0.3793  0.3801
 3691TIP3    H211038   0.423   1.528   3.377  1.1595 -0.5289 -1.8991
 3692TIP3   OH211039   6.786   4.050   1.778  0.2255 -0.0453  0.1267
 3692TIP3    H111040   6.778   3.978   1.716 -1.6868 -0.1203  0.3905
 3692TIP3    H211041   6.823   4.010   1.857 -1.7506 -1.0356  0.6295
 3693TIP3   OH211042   3.721   3.464   3.652  0.0895 -0.5807  0.0903
 3693TIP3    H111043   3.634   3.439   3.621 -0.0551 -0.2768  0.2383
 3693TIP3    H211044   3.703   3.527   3.723  0.4364  0.0430 -0.3716
 3694TIP3   OH211045   2.682   5.630   0.067  0.0717 -0.1640  0.3281
 3694TIP3    H111046   2.661   5.683  -0.010  0.4652  0.3983  0.6063
 3694TIP3    H211047   2.614   5.651   0.131 -0.5958 -1.0696 -0.0617
 3695TIP3   OH211048   1.289   1.634   0.659 -0.1496  0.2493  0.3251
 3695TIP3    H111049   1.227   1.643   0.586  0.5968  1.8190 -0.1563
 3695TIP3    H211050   1.363   1.586   0.621 -0.5720 -0.6433  0.5999
 3696TIP3   OH211051   0.047   0.745   2.382 -0.4276 -0.3622  0.5824
 3696TIP3    H111052   0.038   0.825   2.330  0.5528 -0.1221  0.7536
 3696TIP3    H211053   0.072   0.776   2.469  2.3459 -0.8940  0.0671
 3697TIP3   OH211054   1.529   2.309   3.668 -0.1867 -0.1526  0.0477
 3697TIP3    H111055   1.589   2.365   3.619 -0.0846 -0.9832 -0.8074
 3697TIP3    H211056   1.586   2.250   3.716 -0.2355  1.5019  2.2937
 3698TIP3   OH211057   4.311  -0.015   0.200  0.1027  0.8688  0.0023
 3698TIP3    H111058   4.363   0.059   0.166 -2.4615  1.5897 -2.8310
 3698TIP3    H211059   4.230   0.026   0.231 -0.9380 -0.6519 -0.6343
 3699TIP3   OH211060   2.164   5.758   1.233 -0.1349  0.3072 -0.0992
 3699TIP3    H111061   2.166   5.812   1.154  0.1816 -0.1272 -0.3922
 3699TIP3    H211062   2.078   5.715   1.231  0.3096 -0.5830 -0.8128
 3700TIP3   OH211063   0.637   4.646   5.867  0.2616  0.0602 -0.4612
 3700TIP3    H111064   0.582   4.705   5.815 -0.2369 -0.9280 -1.0888
 3700TIP3    H211065   0.668   4.700   5.940 -0.4211  1.0079 -0.8520
 3701TIP3   OH211066   4.174   0.252   0.255 -0.3292  0.1617 -0.2338
 3701TIP3    H111067   4.183   0.345   0.273  1.0614 -0.2469  1.5527
 3701TIP3    H211068   4.233   0.236   0.181 -2.4562  1.0586 -2.2410
 3702TIP3   OH211069   5.701   4.116   2.066 -0.0327  0.2176  0.1558
 3702TIP3    H111070   5.784   4.071   2.079  0.7210  1.2883 -0.7099
 3702TIP3    H211071   5.643   4.079   2.133  1.8683  1.2442  2.5709
 3703TIP3   OH211072   5.380   4.913   5.094  0.3289 -0.0345  0.0392
 3703TIP3    H111073   5.408   4.822   5.078 -0.0133  0.1634 -1.9801
 3703TIP3    H211074   5.425   4.964   5.026 -1.9189  0.8225 -0.9113
 3704TIP3   OH211075   4.584   4.149   4.022 -0.4520 -0.0246  0.1305
 3704TIP3    H111076   4.489   4.148   4.014 -0.4251  0.3688 -0.2690
 3704TIP3    H211077   4.606   4.240   4.038 -0.1292 -0.0802  0.0164
 3705TIP3   OH211078   4.850   4.167   0.305  0.3731  0.1658  0.7125
 3705TIP3    H111079   4.899   4.247   0.290  0.9852 -0.6014 -1.8347
 3705TIP3    H211080   4.778   4.170   0.241  1.8219 -2.3416 -1.2069
 3706TIP3   OH211081   4.994   2.650   5.589  0.6152  0.0712  0.1024
 3706TIP3    H111082   4.976   2.665   5.497 -0.0302 -1.0537  0.0222
 3706TIP3    H211083   5.026   2.559   5.593  2.6004  0.7467  0.7443
 3707TIP3   OH211084   1.039   0.003   2.030  0.2014 -0.0228  0.0192
 3707TIP3    H111085   1.076   0.008   2.118 -0.1610  1.8223  0.1098
 3707TIP3    H211086   1.029   0.094   2.002  0.7876 -0.5593 -2.1625
 3708TIP3   OH211087   6.248   0.021   0.304  0.4336 -0.6978  0.8322
 3708TIP3    H111088   6.167   0.055   0.341 -0.4019 -1.0691 -0.5965
 3708TIP3    H211089   6.239  -0.074   0.306  0.7184 -0.7371  0.4162
 3709TIP3   OH211090   3.284   4.089   2.212 -0.3395 -0.2921  0.8971
 3709TIP3    H111091   3.305   4.181   2.226 -2.2078  0.5082 -0.9343
 3709TIP3    H211092   3.273   4.053   2.300 -1.6291  1.8074  1.6768
 3710TIP3   OH211093   5.445   3.190   2.888 -0.0180  0.1787  0.1769
 3710TIP3    H111094   5.379   3.227   2.830  2.0309  1.2232 -1.6490
 3710TIP3    H211095   5.442   3.096   2.873 -1.5754  0.1160  0.7357
 3711TIP3   OH211096   1.767   4.434   0.379 -0.7615 -0.4204 -0.0082
 3711TIP3    H111097   1.739   4.343   0.379 -0.7810 -0.4495  1.8814
 3711TIP3    H211098   1.694   4.483   0.416 -0.6875  0.3495 -0.8394
 3712TIP3   OH211099   0.928   6.595   2.028 -0.3865  0.1899 -0.4114
 3712TIP3    H111100   0.838   6.575   2.001  0.0419 -1.3303 -0.8323
 3712TIP3    H211101   0.981   6.562   1.956  0.5595  0.1832  0.2826
 3713TIP3   OH211102   0.181   2.197   0.683 -0.3318 -0.4880 -0.6268
 3713TIP3    H111103   0.242   2.266   0.708 -2.5683  1.5393 -0.4017
 3713TIP3    H211104   0.206   2.122   0.736  0.6876  0.9179  0.9837
 3714TIP3   OH211105   2.568   4.748   2.886  0.3868  0.3577 -0.1982
 3714TIP3    H111106   2.485   4.763   2.840  0.0016 -1.2909 -0.0896
 3714TIP3    H211107   2.542   4.717   2.973  1.0996 -0.8965 -0.4078
 3715TIP3   OH211108   6.012   2.894   3.366  0.0267  0.2685 -0.4198
 3715TIP3    H111109   5.929   2.849   3.352  0.1403 -1.4770  3.3935
 3715TIP3    H211110   5.999   2.947   3.444  1.5842  2.7435 -1.6778
 3716TIP3   OH211111   6.780   0.668   4.876  0.1428 -0.0263  0.3518
 3716TIP3    H111112   6.770   0.580   4.910 -0.5026  0.3082  1.0671
 3716TIP3    H211113   6.739   0.724   4.942 -1.2721  0.6417 -1.0199
 3717TIP3   OH211114   4.646   4.984   0.412 -0.2594  0.0341  0.1090
 3717TIP3    H111115   4.573   5.021   0.362 -0.1715  1.8168  1.1932
 3717TIP3    H211116   4.721   4.990   0.353 -0.7037 -0.5220 -0.5271
 3718TIP3   OH211117   1.564   4.320   0.926  0.4659  0.1210  0.1053
 3718TIP3    H111118   1.505   4.245   0.935  0.0796  0.4378  0.2647
 3718TIP3    H211119   1.646   4.291   0.966 -0.1405  0.2919  1.5201
 3719TIP3   OH211120   3.264   1.543   3.332  0.4548  0.1799  0.2155
 3719TIP3    H111121   3.341   1.515   3.283 -0.9387 -1.5703 -1.1119
 3719TIP3    H211122   3.224   1.461   3.363 -1.6295  0.9170 -0.3800
 3720TIP3   OH211123   2.511   3.397   0.606  0.3673 -0.2969  0.4307
 3720TIP3    H111124   2.493   3.470   0.664 -1.5498 -0.4579  0.0888
 3720TIP3    H211125   2.559   3.436   0.533 -1.6270  0.9032 -0.3174
 3721TIP3   OH211126   3.133   5.311   1.068  0.8637 -0.0745 -0.1840
 3721TIP3    H111127   3.134   5.216   1.070 -0.1201 -0.2182 -2.7880
 3721TIP3    H211128   3.045   5.335   1.098  0.1430 -0.1675 -2.1325
 3722TIP3   OH211129   5.852   1.227   3.451 -0.6809  0.1366  0.3741
 3722TIP3    H111130   5.908   1.151   3.435 -0.5848  0.5323 -1.3796
 3722TIP3    H211131   5.778   1.192   3.500  0.1698 -0.7505  1.0736
 3723TIP3   OH211132   0.357   6.758   4.369 -0.1424  0.5147  0.3039
 3723TIP3    H111133   0.270   6.742   4.405  0.0075 -1.5123 -0.1140
 3723TIP3    H211134   0.415   6.761   4.446 -0.4821  1.2484  0.5376
 3724TIP3   OH211135   1.905   3.047   1.203 -0.1068 -0.0805 -0.6332
 3724TIP3    H111136   1.917   3.059   1.109 -0.1870  0.4326 -0.5785
 3724TIP3    H211137   1.985   3.003   1.232  0.4282  0.7945 -0.7495
 3725TIP3   OH211138   6.572   5.043   5.794 -0.0163  0.2605 -0.2601
 3725TIP3    H111139   6.567   5.120   5.851  0.1918  1.6087 -1.9949
 3725TIP3    H211140   6.487   5.039   5.751  0.8577  1.1798 -2.1908
 3726TIP3   OH211141   3.855   5.918   1.951  0.2286 -0.4703 -0.2537
 3726TIP3    H111142   3.763   5.902   1.970  0.1871 -0.1408 -0.1793
 3726TIP3    H211143   3.867   5.887   1.861 -0.2430  0.6003 -0.7044
 3727TIP3   OH211144   4.231   0.564   4.642  0.0993  0.4527 -0.1477
 3727TIP3    H111145   4.180   0.622   4.698 -0.2829 -0.2813  0.2827
 3727TIP3    H211146   4.245   0.485   4.694  0.8903  0.2741 -0.6000
 3728TIP3   OH211147   0.144   1.689   2.478  0.0574  0.5580 -0.2947
 3728TIP3    H111148   0.230   1.683   2.521 -0.1558  1.2436  0.2562
 3728TIP3    H211149   0.152   1.766   2.422 -0.8815  1.9883  1.4307
 3729TIP3   OH211150   2.340   3.096   2.024 -0.3728  0.8711  0.1563
 3729TIP3    H111151   2.348   3.102   1.929 -0.8298 -1.4284 -0.0898
 3729TIP3    H211152   2.429   3.113   2.056  0.5810 -1.4719 -0.9649
 3730TIP3   OH211153   6.295   1.501  -0.003 -0.0352  0.0619 -0.1884
 3730TIP3    H111154   6.386   1.527   0.014  0.4180 -2.0182  0.7855
 3730TIP3    H211155   6.284   1.419   0.044 -2.3271  0.0654 -0.6255
 3731TIP3   OH211156   0.966   2.752   3.395 -0.1886 -0.0908 -0.1137
 3731TIP3    H111157   0.912   2.674   3.407 -1.3499  0.7237  0.1331
 3731TIP3    H211158   1.012   2.763   3.478 -0.5644 -0.1140  0.0982
 3732TIP3   OH211159   7.000   4.713   1.064 -0.3748  0.0340  0.1378
 3732TIP3    H111160   7.090   4.682   1.054 -0.2212  0.4502  0.1985
 3732TIP3    H211161   6.951   4.636   1.092  0.3545  0.2563  2.1483
 3733TIP3   OH211162   6.012   3.488   3.831  0.1573 -0.4526  0.5857
 3733TIP3    H111163   5.943   3.424   3.847  0.1138 -0.8089 -0.8831
 3733TIP3    H211164   5.965   3.571   3.821  0.0373 -0.5096  0.6687
 3734TIP3   OH211165   3.567   6.763   5.055 -0.0343 -0.2181  0.1967
 3734TIP3    H111166   3.621   6.824   5.005  0.9835 -0.8608  0.4974
 3734TIP3    H211167   3.510   6.722   4.990  1.4395 -1.2235 -0.4946
 3735TIP3   OH211168   3.285   0.357   0.980  0.4847 -0.5377  0.4707
 3735TIP3    H111169   3.251   0.334   0.894 -1.8693  0.9306  0.9220
 3735TIP3    H211170   3.377   0.379   0.965  0.3015 -0.9949 -1.5242
 3736TIP3   OH211171   6.290   6.048   0.239  0.3815 -0.2678  0.0053
 3736TIP3    H111172   6.250   5.982   0.296  1.9204 -0.4690  0.9087
 3736TIP3    H211173   6.249   6.033   0.153 -1.3650 -0.5178  0.8299
 3737TIP3   OH211174   1.516   3.485   3.349  0.0365 -0.5420 -0.5794
 3737TIP3    H111175   1.594   3.537   3.329 -0.6102  1.1322  1.0512
 3737TIP3    H211176   1.443   3.536   3.313 -0.5721 -0.5035  0.6510
 3738TIP3   OH211177   1.820   4.047   4.908 -0.2280  0.8689 -0.7096
 3738TIP3    H111178   1.907   4.081   4.926 -0.1403  0.0354  0.4979
 3738TIP3    H211179   1.797   3.995   4.985 -0.5742 -1.3963 -2.2484
 3739TIP3   OH211180   6.966   5.220   1.325  0.5382  0.2841 -0.0244
 3739TIP3    H111181   6.923   5.276   1.260  1.6862 -0.9306 -1.9519
 3739TIP3    H211182   7.051   5.200   1.285  0.8505 -1.3874  1.4049
 3740TIP3   OH211183   0.503   3.385   2.982  0.3690  0.2828 -0.3731
 3740TIP3    H111184   0.497   3.372   3.077 -0.2083 -1.8766 -0.6561
 3740TIP3    H211185   0.491   3.479   2.970 -1.8460  0.3235  1.5432
 3741TIP3   OH211186   0.460   1.886   4.813  0.0214 -0.7671 -0.3665
 3741TIP3    H111187   0.512   1.851   4.886 -1.3063 -1.4706  0.2771
 3741TIP3    H211188   0.487   1.833   4.738  2.4688  0.9120 -0.7835
 3742TIP3   OH211189   0.335   5.454   0.337 -0.5861 -0.1657 -0.3139
 3742TIP3    H111190   0.288   5.377   0.305  1.0512 -1.5527  0.4304
 3742TIP3    H211191   0.301   5.469   0.425 -0.3655 -0.5474 -0.1597
 3743TIP3   OH211192   6.415   5.706   1.717  0.6511 -0.7567  0.2138
 3743TIP3    H111193   6.324   5.683   1.737  0.0894  1.5329  0.5105
 3743TIP3    H211194   6.459   5.705   1.801  0.1423  1.1491  0.5345
 3744TIP3   OH211195   4.895   6.621   3.600 -0.8118  0.3147 -0.0847
 3744TIP3    H111196   4.925   6.658   3.517 -2.1296 -1.3605 -1.3880
 3744TIP3    H211197   4.973   6.580   3.638 -0.6706 -1.0828 -1.7652
 3745TIP3   OH211198   6.891   2.087   1.698 -0.3980  0.0973 -0.5136
 3745TIP3    H111199   6.892   2.103   1.793 -0.6807  1.5526 -0.7316
 3745TIP3    H211200   6.983   2.092   1.672 -0.5048  2.1462 -0.6552
 3746TIP3   OH211201   3.397   0.346   0.177 -0.1333 -0.4899 -0.6025
 3746TIP3    H111202   3.471   0.284   0.178  0.1635 -0.1516  0.6768
 3746TIP3    H211203   3.369   0.351   0.268  0.0318  1.4679 -0.6111
 3747TIP3   OH211204   1.825   2.156   4.854  0.2381  0.1820 -0.3969
 3747TIP3    H111205   1.749   2.108   4.886 -0.7228  1.5200 -0.5746
 3747TIP3    H211206   1.804   2.248   4.870  1.2972  0.6574 -1.5354
 3748TIP3   OH211207   4.466   3.578   2.618  0.5581 -0.1180 -0.5496
 3748TIP3    H111208   4.520   3.544   2.546 -1.2973  0.3248 -2.2716
 3748TIP3    H211209   4.387   3.524   2.615  0.0918  0.4749  0.6185
 3749TIP3   OH211210   3.245   4.158   4.590 -0.0996  0.1786 -0.0257
 3749TIP3    H111211   3.162   4.201   4.570  0.1236  0.5820 -0.1034
 3749TIP3    H211212   3.225   4.100   4.663 -0.4285  0.3354  0.0110
 3750TIP3   OH211213   5.903   4.883   4.961  0.1293  0.4494 -0.1126
 3750TIP3    H111214   5.836   4.951   4.968  0.5696  0.8976 -0.2143
 3750TIP3    H211215   5.918   4.856   5.052 -0.7638 -0.2370 -0.1466
 3751TIP3   OH211216   6.696   3.772   5.085 -0.5219 -0.3986  0.3729
 3751TIP3    H111217   6.611   3.730   5.073  0.1459 -1.1978 -1.8773
 3751TIP3    H211218   6.745   3.712   5.141 -0.7119 -1.0088 -0.1072
 3752TIP3   OH211219   3.127   1.377   5.011  0.2832  0.5857 -0.6634
 3752TIP3    H111220   3.073   1.389   4.933 -0.0845  1.9198 -0.2253
 3752TIP3    H211221   3.202   1.436   4.997  1.2845 -0.7108 -0.9380
 3753TIP3   OH211222   0.442   3.774   2.433 -0.2273 -0.4597 -0.0641
 3753TIP3    H111223   0.453   3.710   2.503 -0.1159  1.5333  1.8403
 3753TIP3    H211224   0.410   3.723   2.359  0.4905 -2.7936  1.1449
 3754TIP3   OH211225   2.904   6.540   4.347 -0.1697  0.2954 -0.0718
 3754TIP3    H111226   2.889   6.458   4.301  0.3387  0.8237 -1.2395
 3754TIP3    H211227   2.849   6.603   4.301  1.8140  1.2451 -1.3140
 3755TIP3   OH211228   2.277   6.314   5.854  1.1264 -0.8230 -0.3893
 3755TIP3    H111229   2.307   6.233   5.895 -0.2428 -1.2163 -0.0898
 3755TIP3    H211230   2.354   6.371   5.851  1.3775 -0.8884  2.4128
 3756TIP3   OH211231   0.869   5.413   4.764  0.3071 -0.5909  0.0287
 3756TIP3    H111232   0.938   5.477   4.783  0.7062 -1.2120  0.7591
 3756TIP3    H211233   0.878   5.348   4.834 -0.3779 -1.2048 -0.4477
 3757TIP3   OH211234   3.265   5.200   5.357 -0.1442  0.0604 -0.7882
 3757TIP3    H111235   3.215   5.221   5.436 -1.4070  1.3387 -1.8659
 3757TIP3    H211236   3.355   5.224   5.378 -0.4351  0.2054  0.3203
 3758TIP3   OH211237   5.617   6.153   4.962  0.3528 -0.2727 -0.3342
 3758TIP3    H111238   5.688   6.217   4.953 -1.3397  1.6933 -0.2967
 3758TIP3    H211239   5.610   6.114   4.875  0.1215  1.0376 -0.9235
 3759TIP3   OH211240   5.380   0.860   1.943  0.4663 -0.3966 -0.1709
 3759TIP3    H111241   5.417   0.945   1.920  0.2416 -0.5357 -1.1040
 3759TIP3    H211242   5.286   0.875   1.952  0.2328 -0.7918 -1.7029
 3760TIP3   OH211243   4.372   4.199   2.239 -0.5132  0.3664 -0.4222
 3760TIP3    H111244   4.322   4.138   2.293 -0.9736  0.5598 -0.6176
 3760TIP3    H211245   4.379   4.278   2.291 -0.1097  0.2265 -0.2587
 3761TIP3   OH211246   2.859   5.053   3.322 -0.7853  0.2495  0.3050
 3761TIP3    H111247   2.820   4.965   3.332 -0.4403 -0.4589 -3.2048
 3761TIP3    H211248   2.789   5.105   3.282 -0.4648  1.1473  0.8906
 3762TIP3   OH211249   1.021   4.119   0.123 -0.2775 -0.1150  0.1174
 3762TIP3    H111250   1.069   4.092   0.045 -0.9468 -0.0085 -0.3322
 3762TIP3    H211251   1.023   4.042   0.180  0.3282 -0.1466  0.0650
 3763TIP3   OH211252   1.249   0.361   4.888  0.8394  0.1404 -0.1926
 3763TIP3    H111253   1.315   0.359   4.818 -0.6018 -0.9251 -1.6136
 3763TIP3    H211254   1.174   0.404   4.848  0.4437  0.7803  1.1925
 3764TIP3   OH211255   1.325   3.987   4.987  0.9084  0.1144  0.4004
 3764TIP3    H111256   1.390   3.942   4.934  0.7761 -0.3370  0.6134
 3764TIP3    H211257   1.324   3.938   5.070 -1.0220 -1.0413 -0.2541
 3765TIP3   OH211258   4.771   0.464   0.736  0.1794  0.0730  0.2226
 3765TIP3    H111259   4.821   0.544   0.755 -0.6745  1.0937 -1.5757
 3765TIP3    H211260   4.800   0.438   0.648  0.3670 -1.5778  0.7403
 3766TIP3   OH211261   3.635   4.878   4.989  0.6303  0.2660  0.6198
 3766TIP3    H111262   3.588   4.828   5.056  1.8707  0.4869  1.6926
 3766TIP3    H211263   3.622   4.969   5.015  0.0386  0.4274 -0.2031
 3767TIP3   OH211264   3.740   0.951   4.561 -0.7033  0.0915  0.2800
 3767TIP3    H111265   3.749   0.875   4.503 -0.3670 -0.0229  0.4801
 3767TIP3    H211266   3.778   0.923   4.644  0.7593  0.9505 -0.0740
 3768TIP3   OH211267   3.303   4.107   4.163  0.1725  0.0497 -0.2252
 3768TIP3    H111268   3.208   4.094   4.151  0.1234 -0.5320  0.6484
 3768TIP3    H211269   3.316   4.200   4.149 -0.9366  0.6026  1.8945
 3769TIP3   OH211270   3.727   1.078   4.882  0.4481  0.2630  0.1001
 3769TIP3    H111271   3.807   1.033   4.853  1.4517  1.0519  1.5014
 3769TIP3    H211272   3.699   1.030   4.960 -0.1254  0.3288 -0.0645
 3770TIP3   OH211273   1.196   2.286   0.064 -0.9512 -0.2705 -0.1123
 3770TIP3    H111274   1.259   2.219   0.036 -0.3119  0.2246  0.1216
 3770TIP3    H211275   1.228   2.315   0.149 -1.0571  0.5386 -0.3419
 3771TIP3   OH211276   5.197   3.080   4.824  0.3386 -0.1723  0.1243
 3771TIP3    H111277   5.282   3.053   4.858 -0.0811 -1.6269  0.0581
 3771TIP3    H211278   5.173   3.012   4.761 -0.0216  1.2003 -1.2926
 3772TIP3   OH211279   6.087   5.891   2.456 -0.4161  0.5888  0.1180
 3772TIP3    H111280   6.014   5.933   2.502 -0.2878  1.0348 -0.0844
 3772TIP3    H211281   6.136   5.963   2.418  1.1069  0.4374  1.6648
 3773TIP3   OH211282   2.444   1.619   5.244 -0.4800  0.1017 -0.0592
 3773TIP3    H111283   2.452   1.628   5.149  1.7863 -0.0665  0.0568
 3773TIP3    H211284   2.475   1.530   5.262 -0.2521  0.3632  0.8906
 3774TIP3   OH211285   5.570   3.020   0.870 -0.4279 -0.0894  0.0566
 3774TIP3    H111286   5.523   3.044   0.951  1.6523 -0.2785  1.3886
 3774TIP3    H211287   5.623   3.096   0.850 -0.1461 -0.4437 -0.5515
 3775TIP3   OH211288   2.068   1.951   1.563 -0.1740  0.4160  0.2265
 3775TIP3    H111289   2.057   2.034   1.518 -0.7384 -0.6850 -1.7473
 3775TIP3    H211290   2.025   1.964   1.648  0.8264  2.4930  0.4827
 3776TIP3   OH211291   1.314   3.898   2.514 -0.0567  0.0696 -0.3148
 3776TIP3    H111292   1.311   3.943   2.429 -0.0200  1.2115  0.2712
 3776TIP3    H211293   1.242   3.936   2.564  0.6877  0.3162  0.6034
 3777TIP3   OH211294   5.784   3.698   3.032  0.6591 -0.2502  0.2619
 3777TIP3    H111295   5.719   3.710   2.962 -0.0670 -1.1891  0.7608
 3777TIP3    H211296   5.866   3.727   2.992  0.1572 -0.1843 -0.7805
 3778TIP3   OH211297   6.051   2.437   2.395 -0.0075 -0.2558 -0.2832
 3778TIP3    H111298   5.974   2.493   2.407  0.0957 -0.2721  0.4420
 3778TIP3    H211299   6.114   2.468   2.460  0.7971  0.0916 -1.2019
 3779TIP3   OH211300   7.097   5.855   1.546  0.2738  0.0383  0.3686
 3779TIP3    H111301   7.118   5.929   1.488  0.2325  0.3480  0.7452
 3779TIP3    H211302   7.002   5.849   1.544  0.3428 -1.1296 -1.0460
 3780TIP3   OH211303   1.592   5.108   3.982  0.3084  0.0444  0.0239
 3780TIP3    H111304   1.517   5.059   4.017  1.7200 -2.1221  0.2142
 3780TIP3    H211305   1.608   5.175   4.047 -0.2778 -0.6931  0.9690
 3781TIP3   OH211306   1.706   0.739   1.877 -0.7761  0.1435 -0.0544
 3781TIP3    H111307   1.778   0.767   1.934  1.2710 -1.5887 -1.6374
 3781TIP3    H211308   1.631   0.792   1.905  0.7289  1.0565  2.5955
 3782TIP3   OH211309   3.681   6.673   3.578  0.3322  0.9023  0.2001
 3782TIP3    H111310   3.634   6.704   3.655  1.3714  1.3110  0.6769
 3782TIP3    H211311   3.732   6.598   3.609  0.3780  0.7657 -0.2011
 3783TIP3   OH211312   5.280   3.264   3.738 -0.1853  0.1346  0.3588
 3783TIP3    H111313   5.256   3.194   3.797  1.1864  0.3965  1.2572
 3783TIP3    H211314   5.340   3.224   3.675  0.6102  0.4941  0.8809
 3784TIP3   OH211315   0.437   3.080   2.139  0.5394 -0.1536  0.0070
 3784TIP3    H111316   0.510   3.081   2.200  0.4719 -0.9063  0.1144
 3784TIP3    H211317   0.390   2.999   2.159 -0.4119  0.3807  0.0410
 3785TIP3   OH211318   0.322   1.017   3.672  0.3829 -0.3046 -0.2715
 3785TIP3    H111319   0.298   1.079   3.603 -0.1079  0.0796  0.2406
 3785TIP3    H211320   0.411   1.041   3.696 -0.4496  1.4644  1.2619
 3786TIP3   OH211321   2.116   0.102   0.183 -0.8061 -0.6081 -0.0180
 3786TIP3    H111322   2.165   0.163   0.238 -0.8858 -0.0919 -0.5012
 3786TIP3    H211323   2.088   0.156   0.108  0.6069 -1.6394 -1.3374
 3787TIP3   OH211324   4.942   5.389   1.483  0.4546  0.2102  0.6558
 3787TIP3    H111325   4.986   5.447   1.545  3.0005 -1.0810  0.1920
 3787TIP3    H211326   4.929   5.442   1.404  1.0441  0.6699  0.8668
 3788TIP3   OH211327   4.039   5.067   2.079  0.0785  0.2739  0.3395
 3788TIP3    H111328   3.989   5.106   2.007 -0.2655 -0.0764  0.3839
 3788TIP3    H211329   3.972   5.039   2.142  0.4000  1.0538  1.0439
 3789TIP3   OH211330   2.795   2.010   3.830 -0.1894 -0.7149  0.6261
 3789TIP3    H111331   2.781   2.104   3.826  0.5805 -0.5613  1.3322
 3789TIP3    H211332   2.871   1.999   3.887 -0.7019 -1.8008  1.1283
 3790TIP3   OH211333   4.514   2.050   4.621  0.9836 -0.4619  0.3212
 3790TIP3    H111334   4.535   2.143   4.627 -0.6055  0.0006 -0.7733
 3790TIP3    H211335   4.453   2.035   4.693 -0.7500 -0.0240 -0.9913
 3791TIP3   OH211336   2.811   5.348   1.090  0.2975 -0.2218  0.7332
 3791TIP3    H111337   2.758   5.411   1.139 -0.8628 -0.4603 -0.1807
 3791TIP3    H211338   2.757   5.325   1.015  0.8136 -2.1181  0.9040
 3792TIP3   OH211339   5.143   6.583   2.462 -0.3896 -0.1461  0.6966
 3792TIP3    H111340   5.122   6.578   2.556 -1.0562 -1.5121  0.5067
 3792TIP3    H211341   5.140   6.492   2.433 -0.5971  0.3021 -0.7397
 3793TIP3   OH211342   2.236   1.613   5.415  0.4206 -1.0448 -0.0557
 3793TIP3    H111343   2.316   1.618   5.363  1.2382 -0.6458  1.2055
 3793TIP3    H211344   2.206   1.704   5.422 -0.1732 -1.1945 -0.5463
 3794TIP3   OH211345   4.672   5.781   3.328 -0.4529  0.4994  0.3912
 3794TIP3    H111346   4.587   5.814   3.359 -0.5141 -0.0120  0.7967
 3794TIP3    H211347   4.712   5.854   3.282 -0.2205  1.3999  1.9633
 3795TIP3   OH211348   2.989   5.836   0.334  0.5960 -0.2840  0.1649
 3795TIP3    H111349   2.968   5.859   0.425 -1.3859  2.0823 -0.7506
 3795TIP3    H211350   3.030   5.915   0.299  0.9119 -1.0048 -1.1265
 3796TIP3   OH211351   4.673   2.155   3.655  0.0138 -0.6840 -0.4977
 3796TIP3    H111352   4.589   2.201   3.650  0.6026  0.4879  0.0143
 3796TIP3    H211353   4.682   2.114   3.569  0.0638  1.2751 -1.5106
 3797TIP3   OH211354   1.124   2.856   0.151 -0.4674 -0.5194  0.0220
 3797TIP3    H111355   1.175   2.923   0.197 -0.5646 -0.9441  0.7662
 3797TIP3    H211356   1.175   2.838   0.072  0.3161 -0.6151  0.5371
 3798TIP3   OH211357   5.341   3.493   1.862 -0.1988  0.2769  0.3381
 3798TIP3    H111358   5.337   3.508   1.956 -1.6304 -0.6536  0.4541
 3798TIP3    H211359   5.394   3.565   1.828 -1.9581  2.2262  1.5253
 3799TIP3   OH211360   2.269   6.128   0.187 -0.0257 -0.5618  0.2521
 3799TIP3    H111361   2.291   6.214   0.150  2.1676 -1.6844 -1.3159
 3799TIP3    H211362   2.193   6.144   0.243 -0.2284  2.2205 -0.6769
 3800TIP3   OH211363   6.257   1.649   4.548 -0.1478  0.1910  0.5456
 3800TIP3    H111364   6.339   1.653   4.597 -1.2947  0.5767  2.5639
 3800TIP3    H211365   6.204   1.720   4.584 -1.1697  0.3013 -1.1026
 3801TIP3   OH211366   5.231   4.050   1.754 -0.1184  0.2640  0.0539
 3801TIP3    H111367   5.265   4.022   1.839 -1.7406  0.4020  0.7905
 3801TIP3    H211368   5.206   3.969   1.710 -0.9579  0.2891  0.4706
 3802TIP3   OH211369   6.904   2.189   2.281  0.0667 -0.1848  0.1738
 3802TIP3    H111370   6.828   2.154   2.235 -1.0713  1.3215  0.8307
 3802TIP3    H211371   6.893   2.159   2.371  0.0071  0.4076  0.3645
 3803TIP3   OH211372   4.012   2.757   2.925 -0.0888  0.1376 -0.6340
 3803TIP3    H111373   4.103   2.743   2.900 -0.1198 -1.4453  0.0061
 3803TIP3    H211374   3.969   2.673   2.906 -1.5910  1.0976 -1.6546
 3804TIP3   OH211375   4.600   6.275   2.610 -0.7422  0.4154  0.1503
 3804TIP3    H111376   4.569   6.299   2.522  1.3999  1.6409 -0.3649
 3804TIP3    H211377   4.616   6.181   2.605 -1.7099  0.2670 -0.4026
 3805TIP3   OH211378   2.804   3.379   0.992 -0.1945  0.5572 -0.3992
 3805TIP3    H111379   2.836   3.320   0.924  0.3657 -0.5186  0.7631
 3805TIP3    H211380   2.753   3.323   1.050 -1.1478  1.5656 -0.2287
 3806TIP3   OH211381   2.940   5.443   5.125 -0.3771  0.3114 -0.1112
 3806TIP3    H111382   3.032   5.427   5.148 -0.0872 -0.2026 -1.5191
 3806TIP3    H211383   2.909   5.357   5.095 -1.3815  0.4395  0.5448
 3807TIP3   OH211384   1.564   0.969   5.231 -0.3099 -0.1096  0.4219
 3807TIP3    H111385   1.485   0.915   5.234  0.2996 -1.0743 -0.1957
 3807TIP3    H211386   1.532   1.057   5.213 -1.2318 -0.5289 -0.0806
 3808TIP3   OH211387   5.112   1.593   4.910  0.1331  0.2358 -0.3453
 3808TIP3    H111388   5.165   1.627   4.838  1.5759 -0.6498  0.2657
 3808TIP3    H211389   5.048   1.662   4.927  0.7100  1.0915 -1.4847
 3809TIP3   OH211390   5.046   4.833   0.076  0.0991  0.0181  0.3351
 3809TIP3    H111391   5.141   4.842   0.080  0.2247 -0.2493 -1.2438
 3809TIP3    H211392   5.017   4.907   0.023 -0.5378 -0.0583  0.5703
 3810TIP3   OH211393   4.355   1.877   5.559  0.0442 -0.1324 -0.0063
 3810TIP3    H111394   4.385   1.805   5.504  1.2460  1.6270 -1.7867
 3810TIP3    H211395   4.312   1.835   5.633 -0.3426 -2.6330 -1.5602
 3811TIP3   OH211396   2.756   4.820   3.383  0.1104  0.4509  0.2726
 3811TIP3    H111397   2.832   4.767   3.357  0.2732 -0.0893  1.7361
 3811TIP3    H211398   2.686   4.757   3.395 -0.9412  1.0598 -2.1437
 3812TIP3   OH211399   2.237   4.915   1.258  0.6601 -0.0462  0.3173
 3812TIP3    H111400   2.156   4.960   1.283  1.1822  1.3586 -0.3621
 3812TIP3    H211401   2.303   4.948   1.319  1.0033 -0.0407 -0.0493
 3813TIP3   OH211402   2.001   2.170   1.425  0.2118  0.6207 -0.1592
 3813TIP3    H111403   2.005   2.108   1.351  1.6115 -2.2079  2.0987
 3813TIP3    H211404   1.911   2.204   1.422 -0.1662 -0.3724 -2.4081
 3814TIP3   OH211405   6.032   4.573   3.876  0.1776 -0.1348  0.2476
 3814TIP3    H111406   6.123   4.603   3.867  0.1036 -0.4116 -2.0970
 3814TIP3    H211407   5.990   4.639   3.931  1.3060  1.1451 -0.3616
 3815TIP3   OH211408   1.607   1.588   0.969 -0.1472 -0.3997  0.6192
 3815TIP3    H111409   1.533   1.634   1.010  0.1705  1.0589 -0.3850
 3815TIP3    H211410   1.567   1.533   0.902 -0.2880  1.7171 -1.1621
 3816TIP3   OH211411   2.947   4.524   2.329 -0.0862  0.2426 -0.1410
 3816TIP3    H111412   2.896   4.587   2.278  0.5177 -0.2648 -1.4166
 3816TIP3    H211413   2.965   4.452   2.268  0.4861 -0.4838  0.8539
 3817TIP3   OH211414   1.521   3.635   0.500 -0.0300 -0.0333  0.3627
 3817TIP3    H111415   1.496   3.704   0.439  0.7640  1.8823  2.0825
 3817TIP3    H211416   1.616   3.644   0.509  0.6416 -3.4464 -1.7161
 3818TIP3   OH211417   0.975   4.939   2.432  0.3493 -0.0774 -0.5119
 3818TIP3    H111418   0.913   4.999   2.472  0.4763  0.8713 -1.6951
 3818TIP3    H211419   1.054   4.947   2.486 -0.9018 -2.4001  1.9288
 3819TIP3   OH211420   0.465   0.246   4.546 -0.1709 -0.2512  0.3500
 3819TIP3    H111421   0.480   0.336   4.515  0.8877 -0.3686  0.4880
 3819TIP3    H211422   0.552   0.208   4.552 -0.7176 -1.8922 -1.4507
 3820TIP3   OH211423   1.114   6.060   0.557  0.0470  0.0511 -0.2130
 3820TIP3    H111424   1.114   5.973   0.517  0.7993 -0.1169  0.1416
 3820TIP3    H211425   1.022   6.086   0.556 -0.2285 -0.8645 -0.0857
 3821TIP3   OH211426   0.657   6.052   1.755  0.1202  0.1026 -0.3985
 3821TIP3    H111427   0.592   6.106   1.800 -0.3780 -1.0857  0.3692
 3821TIP3    H211428   0.737   6.065   1.806 -0.4335 -1.2127  0.8955
 3822TIP3   OH211429   5.677   3.567   3.262  0.2185 -0.4870  0.4751
 3822TIP3    H111430   5.583   3.565   3.249 -0.0420 -1.1257  2.2713
 3822TIP3    H211431   5.710   3.617   3.187 -1.5090 -0.3921 -0.2685
 3823TIP3   OH211432   3.024   5.011   2.014 -0.3213 -0.2056  0.2622
 3823TIP3    H111433   3.039   4.968   1.930 -1.5575 -1.5025  0.6452
 3823TIP3    H211434   3.090   5.080   2.019  0.8482 -1.1766 -1.0226
 3824TIP3   OH211435   3.156   2.184   4.839  0.4353 -0.0412  0.0773
 3824TIP3    H111436   3.182   2.265   4.796 -0.3077  0.3252  0.3023
 3824TIP3    H211437   3.113   2.212   4.920  0.9029 -0.6884  0.5688
 3825TIP3   OH211438   5.084   5.373   5.343 -0.2043 -0.3572 -0.5369
 3825TIP3    H111439   5.144   5.439   5.376  0.0710 -1.9498  2.5149
 3825TIP3    H211440   5.032   5.418   5.277  0.0704  2.8524  1.2625
 3826TIP3   OH211441   3.476   5.647   1.098 -0.1038  0.5353 -0.0337
 3826TIP3    H111442   3.406   5.628   1.160 -0.3399  2.4859  0.3823
 3826TIP3    H211443   3.550   5.593   1.126 -1.6398 -2.2594 -1.0327
 3827TIP3   OH211444   0.960   3.069   5.564  0.4345 -0.0314 -0.1166
 3827TIP3    H111445   0.894   3.118   5.515 -0.9873 -2.2186 -0.4963
 3827TIP3    H211446   1.027   3.134   5.585 -0.7759  1.7948 -1.6086
 3828TIP3   OH211447   6.279   4.203   0.545  0.2820 -0.4406 -0.1803
 3828TIP3    H111448   6.184   4.213   0.545  0.3178 -0.1217 -0.7463
 3828TIP3    H211449   6.313   4.292   0.539  0.6441 -0.3984  1.7528
 3829TIP3   OH211450   3.517   1.000   0.551 -0.4840 -0.1497 -0.2053
 3829TIP3    H111451   3.478   1.005   0.639 -0.3867  0.5289 -0.1984
 3829TIP3    H211452   3.587   1.066   0.552 -0.8619  0.2692 -0.9870
 3830TIP3   OH211453   1.999   5.164   1.908 -0.3082 -0.4428 -0.7893
 3830TIP3    H111454   1.962   5.248   1.934  0.7396  0.6575 -2.6028
 3830TIP3    H211455   1.927   5.118   1.865 -0.3383  0.5224 -1.8269
 3831TIP3   OH211456   6.477   4.062   1.670 -0.2570 -0.2555 -0.3099
 3831TIP3    H111457   6.516   3.975   1.674 -1.6924 -0.9286 -0.4299
 3831TIP3    H211458   6.458   4.075   1.577  0.7619  0.5823 -0.4221
 3832TIP3   OH211459   5.110   0.887   1.980  0.2769 -0.6446 -0.4958
 3832TIP3    H111460   5.018   0.913   1.974  0.4853 -0.1025 -1.9242
 3832TIP3    H211461   5.131   0.894   2.073 -0.5664  1.3177 -0.3924
 3833TIP3   OH211462   2.376   0.682   5.307  0.6394  0.0781 -0.0280
 3833TIP3    H111463   2.419   0.693   5.223  1.4229  0.7818  0.4627
 3833TIP3    H211464   2.286   0.713   5.292  1.1033  1.3381 -0.2928
 3834TIP3   OH211465   6.623   5.668   1.898  0.2474  0.1257  0.1925
 3834TIP3    H111466   6.707   5.664   1.854 -0.5160  0.1876 -1.3113
 3834TIP3    H211467   6.644   5.704   1.985  1.6727  0.7888 -0.3855
 3835TIP3   OH211468   2.457   1.432   0.053 -0.4238  0.2707  0.0095
 3835TIP3    H111469   2.382   1.389   0.092  0.5306 -1.0146  0.4952
 3835TIP3    H211470   2.421   1.510   0.010 -1.6401  1.2904  2.6904
 3836TIP3   OH211471   0.554   1.523   4.972 -0.0725  0.1608 -0.1779
 3836TIP3    H111472   0.499   1.445   4.972  0.4828 -0.2337 -0.2341
 3836TIP3    H211473   0.621   1.506   4.906  1.8854 -0.6460  1.8670
 3837TIP3   OH211474   4.758   2.820   3.262  0.1895 -0.4203 -0.5298
 3837TIP3    H111475   4.787   2.891   3.205 -0.5120  0.8531  0.6481
 3837TIP3    H211476   4.713   2.759   3.203  0.5975  0.2114 -1.5209
 3838TIP3   OH211477   4.093   1.570   4.845 -0.8302  0.1044  0.0648
 3838TIP3    H111478   4.042   1.640   4.886 -0.8572  0.2842 -0.2726
 3838TIP3    H211479   4.062   1.567   4.754 -1.2749 -0.7641  0.2290
 3839TIP3   OH211480   0.241   1.748   4.900  0.4721  0.5015 -0.1612
 3839TIP3    H111481   0.295   1.810   4.852  1.5310 -0.1918  0.1044
 3839TIP3    H211482   0.302   1.701   4.957 -0.2860 -0.7931 -0.3639
 3840TIP3   OH211483   6.857   1.916   0.754  0.4830  0.0545  0.3342
 3840TIP3    H111484   6.793   1.845   0.761  2.4350 -1.7388  1.3461
 3840TIP3    H211485   6.828   1.981   0.817 -0.1292 -0.9117  1.0805
 3841TIP3   OH211486   2.408   5.973   2.537 -0.7770  0.1158 -0.1924
 3841TIP3    H111487   2.359   6.051   2.510 -1.8082 -0.5767 -0.3776
 3841TIP3    H211488   2.358   5.900   2.501 -0.1918 -0.6664  0.5465
 3842TIP3   OH211489   3.993   5.513   4.521 -0.2501  0.0708  0.3158
 3842TIP3    H111490   4.079   5.551   4.534 -0.9854  2.1944 -0.6003
 3842TIP3    H211491   4.006   5.445   4.454  0.8938 -0.5546  1.1493
 3843TIP3   OH211492   0.178   6.446   1.244 -0.0628  0.5006 -0.1167
 3843TIP3    H111493   0.268   6.456   1.213  0.2902  0.9691  1.0271
 3843TIP3    H211494   0.133   6.524   1.212 -0.0717  0.2536 -0.7107
 3844TIP3   OH211495   2.619   0.465  -0.014 -0.0554  0.2461  0.2242
 3844TIP3    H111496   2.680   0.392  -0.016  0.5544  0.7648 -0.3179
 3844TIP3    H211497   2.566   0.449   0.065 -0.9591 -1.5832 -0.6717
 3845TIP3   OH211498   5.341   2.313   2.342  0.2392  0.3734  0.1601
 3845TIP3    H111499   5.245   2.317   2.350  0.1648 -0.7303 -0.0254
 3845TIP3    H211500   5.357   2.235   2.290  1.2268  0.9512 -0.4272
 3846TIP3   OH211501   1.258   3.805   3.846  0.0217 -0.2685 -0.4544
 3846TIP3    H111502   1.218   3.718   3.834 -2.9209  0.4891  2.5204
 3846TIP3    H211503   1.199   3.865   3.800  0.2604  0.4494  0.1630
 3847TIP3   OH211504   7.071   1.078   4.939  0.2297  0.2428  0.2045
 3847TIP3    H111505   6.995   1.062   4.996 -0.5764  1.4042 -0.5025
 3847TIP3    H211506   7.105   0.990   4.920 -0.6793 -0.2760  0.8870
 3848TIP3   OH211507   2.560   3.959   4.209 -0.6208 -0.2677 -0.4890
 3848TIP3    H111508   2.629   3.893   4.208 -0.6711 -0.3571  0.9065
 3848TIP3    H211509   2.602   4.037   4.244 -0.9062  0.0637 -0.8759
 3849TIP3   OH211510   4.724   2.199   3.915  0.1475 -0.1203 -0.1907
 3849TIP3    H111511   4.719   2.185   3.821  2.5671  0.0898 -0.4003
 3849TIP3    H211512   4.636   2.229   3.939 -0.3539  0.4125 -2.4523
 3850TIP3   OH211513   6.291   4.152   1.987 -0.5564 -0.3241 -0.7393
 3850TIP3    H111514   6.294   4.247   1.975 -0.5825 -0.2114  0.0550
 3850TIP3    H211515   6.380   4.128   2.011 -0.6884 -0.4021 -0.3163
 3851TIP3   OH211516   0.056   0.979   4.664 -0.4481  0.5579  0.3105
 3851TIP3    H111517   0.123   1.006   4.727  0.4317 -0.2341 -0.2484
 3851TIP3    H211518   0.084   1.018   4.581 -0.4472 -0.0966 -0.0086
 3852TIP3   OH211519   2.699   3.865   2.020  0.1346  0.3232 -0.3213
 3852TIP3    H111520   2.787   3.866   1.982  0.7486  1.5838  1.0418
 3852TIP3    H211521   2.644   3.827   1.952  1.6298  0.0762 -1.4383
 3853TIP3   OH211522   3.438   5.471   1.555  0.7625  0.5679  0.2008
 3853TIP3    H111523   3.466   5.427   1.636  1.9224 -1.8577 -1.4053
 3853TIP3    H211524   3.342   5.463   1.556  0.6505  1.5785  1.8135
 3854TIP3   OH211525   3.704   4.999   2.762  0.5877 -0.2777  0.0218
 3854TIP3    H111526   3.675   4.950   2.685  2.5094 -1.5633  0.0550
 3854TIP3    H211527   3.691   4.940   2.835 -0.4927  0.6547  0.6166
 3855TIP3   OH211528   0.858   2.490   4.470 -0.7296 -0.3544  0.3204
 3855TIP3    H111529   0.905   2.408   4.486  0.0813  0.1098  0.3523
 3855TIP3    H211530   0.819   2.512   4.555  0.4086  0.1278  0.7445
 3856TIP3   OH211531   0.059   2.280   2.880 -0.0938  0.4134 -0.3264
 3856TIP3    H111532  -0.025   2.268   2.923 -0.2037  0.5289 -0.5101
 3856TIP3    H211533   0.117   2.312   2.949 -0.4195  1.1748 -0.3939
 3857TIP3   OH211534   5.318   2.817   1.330  0.1104  0.2860 -0.0317
 3857TIP3    H111535   5.384   2.749   1.341 -0.0187  0.0115 -0.8740
 3857TIP3    H211536   5.251   2.777   1.275 -1.7773 -0.1355  2.3665
 3858TIP3   OH211537   3.244   2.178   1.638  0.1963  0.7178 -0.4584
 3858TIP3    H111538   3.169   2.145   1.689  0.7397 -0.8874 -0.6492
 3858TIP3    H211539   3.291   2.235   1.699  1.0611 -1.4810  1.0521
 3859TIP3   OH211540   4.546   3.737   4.554 -0.0208  0.0566  0.0302
 3859TIP3    H111541   4.491   3.809   4.584  0.0420  0.7629 -1.4661
 3859TIP3    H211542   4.636   3.770   4.563 -0.0497  1.2009 -2.9879
 3860TIP3   OH211543   2.292   2.241   5.192  0.3736 -0.0448 -0.5134
 3860TIP3    H111544   2.282   2.296   5.114  3.1097  2.0071  0.4192
 3860TIP3    H211545   2.232   2.280   5.256  1.3841  1.1729 -0.2573
 3861TIP3   OH211546   5.236   0.173   3.037  0.5231 -0.2692  0.4335
 3861TIP3    H111547   5.242   0.269   3.033  1.6801 -0.3616 -0.1021
 3861TIP3    H211548   5.145   0.157   3.065 -0.0206  0.9467 -0.5471
 3862TIP3   OH211549   0.094   1.026   2.249  0.4799  0.1745 -0.3847
 3862TIP3    H111550   0.039   1.063   2.317  0.2327 -0.0661 -0.4502
 3862TIP3    H211551   0.146   1.100   2.216  0.7643  0.2427  0.2147
 3863TIP3   OH211552   0.219   2.638   1.421  0.1631 -0.4634  0.4070
 3863TIP3    H111553   0.146   2.648   1.360 -1.0378 -1.9354  1.5154
 3863TIP3    H211554   0.296   2.663   1.370 -0.9130 -0.4830 -1.3305
 3864TIP3   OH211555   0.840   6.174   0.536  0.1881 -0.1469 -0.2912
 3864TIP3    H111556   0.874   6.179   0.447 -1.1490  1.1041 -0.7613
 3864TIP3    H211557   0.747   6.195   0.528 -0.1822 -1.0037  1.2779
 3865TIP3   OH211558   1.421   3.938   0.684 -0.0030  0.5658 -0.3476
 3865TIP3    H111559   1.517   3.943   0.678  0.0224 -0.5599 -1.7375
 3865TIP3    H211560   1.391   3.973   0.600 -0.6653 -1.2096 -0.8910
 3866TIP3   OH211561   2.893   1.760   2.520 -0.3085  0.9357 -0.8808
 3866TIP3    H111562   2.923   1.670   2.528  0.8813  1.1944 -2.0649
 3866TIP3    H211563   2.855   1.781   2.605 -0.4440 -0.6167 -0.5359
 3867TIP3   OH211564   4.702   3.908   4.063 -0.1419  0.3596 -0.1777
 3867TIP3    H111565   4.655   3.987   4.038  0.1767  0.6422  0.0958
 3867TIP3    H211566   4.717   3.919   4.157  1.1186  0.6225 -0.3998
 3868TIP3   OH211567   2.014   1.207   4.614 -0.0055  0.5113  0.5233
 3868TIP3    H111568   2.089   1.188   4.559  1.6637  1.4160  2.3688
 3868TIP3    H211569   1.989   1.122   4.652  0.5513  0.3168  0.4577
 3869TIP3   OH211570   0.284   1.987   4.006 -0.2097 -0.0883 -0.1629
 3869TIP3    H111571   0.218   1.955   3.944  0.6735 -0.6255 -0.8573
 3869TIP3    H211572   0.367   1.957   3.970  0.3128 -0.7577  1.4980
 3870TIP3   OH211573   1.650   4.613   0.617  0.3623  0.6946  0.0250
 3870TIP3    H111574   1.566   4.569   0.629  0.0360  1.7547  2.2525
 3870TIP3    H211575   1.701   4.589   0.695  0.2512  3.9302  1.2629
 3871TIP3   OH211576   4.271   2.590   3.902  0.2615  0.5180 -0.4087
 3871TIP3    H111577   4.301   2.525   3.966 -1.8769 -1.1809 -1.0085
 3871TIP3    H211578   4.310   2.672   3.932  3.1314 -0.9834  0.3576
 3872TIP3   OH211579   5.731   0.177   2.872  0.5358 -0.3107 -0.6530
 3872TIP3    H111580   5.797   0.238   2.903  1.4539 -0.4192 -2.2780
 3872TIP3    H211581   5.653   0.198   2.923  1.3551  0.9530  0.1271
 3873TIP3   OH211582   4.080   6.018   1.125 -0.4173  0.3044 -0.2152
 3873TIP3    H111583   4.007   6.016   1.063  0.4071  0.0672 -1.2103
 3873TIP3    H211584   4.065   6.097   1.177 -1.4340  0.2009 -0.3229
 3874TIP3   OH211585   1.498   5.101   4.412 -0.2130  0.6703 -0.1512
 3874TIP3    H111586   1.421   5.155   4.395 -1.4185 -0.7433  0.5912
 3874TIP3    H211587   1.528   5.129   4.498 -0.0207  1.0794 -0.3500
 3875TIP3   OH211588   1.833   3.439   0.629  0.2527  0.3126  0.0629
 3875TIP3    H111589   1.909   3.407   0.581 -1.0624 -0.3178 -1.6918
 3875TIP3    H211590   1.820   3.528   0.598 -1.8526 -0.7746 -2.5053
 3876TIP3   OH211591   0.870   4.504   1.865  0.2100  0.1763 -0.0413
 3876TIP3    H111592   0.858   4.557   1.786  0.3388 -0.4274 -0.4728
 3876TIP3    H211593   0.942   4.444   1.843  0.2058 -0.0349  0.5114
 3877TIP3   OH211594   2.145   0.204   2.754  0.1792  0.1270 -0.4083
 3877TIP3    H111595   2.057   0.224   2.787 -0.0537  0.1720 -1.0530
 3877TIP3    H211596   2.148   0.245   2.668  0.1532 -1.4775 -1.2083
 3878TIP3   OH211597   5.657   5.042   2.298 -0.0437  0.3306  0.4956
 3878TIP3    H111598   5.623   5.036   2.387 -2.5363 -0.0730 -0.4045
 3878TIP3    H211599   5.598   5.103   2.254  1.7301  1.3014 -0.6700
 3879TIP3   OH211600   0.328   0.607   3.250  0.1713  0.1432 -0.4474
 3879TIP3    H111601   0.421   0.613   3.230 -0.0020  0.0996 -1.3202
 3879TIP3    H211602   0.310   0.683   3.305  0.2694  1.4655 -2.1749
 3880TIP3   OH211603   3.336   1.664   0.098  0.0383  0.5253  0.2047
 3880TIP3    H111604   3.271   1.639   0.164 -1.4635  0.3829 -1.2802
 3880TIP3    H211605   3.298   1.637   0.015  2.1180  0.2574 -0.7132
 3881TIP3   OH211606   1.250   2.334   3.877  0.3975 -0.2964  0.3658
 3881TIP3    H111607   1.182   2.273   3.848  0.2717  0.3699 -0.7802
 3881TIP3    H211608   1.275   2.382   3.798  1.7295 -0.0626  0.9044
 3882TIP3   OH211609   1.285   1.104   0.063  0.3077 -0.6507  0.0223
 3882TIP3    H111610   1.317   1.021   0.100  1.7715  0.2043  0.7351
 3882TIP3    H211611   1.270   1.085  -0.029  3.7151 -0.9241 -0.5822
 3883TIP3   OH211612   4.030   0.217   4.947  0.0581 -0.3886 -0.3224
 3883TIP3    H111613   4.090   0.226   4.873 -0.3811  0.6383 -0.5730
 3883TIP3    H211614   4.030   0.123   4.967  0.1218 -0.6995 -1.6771
 3884TIP3   OH211615   4.312   0.387   5.827  0.1564  0.2537  0.0482
 3884TIP3    H111616   4.352   0.474   5.838  1.5384 -0.5026  1.2514
 3884TIP3    H211617   4.241   0.385   5.891 -0.8770  1.0199 -1.0209
 3885TIP3   OH211618   3.183   6.420   0.580 -0.3984 -0.2288 -0.0696
 3885TIP3    H111619   3.237   6.346   0.551 -0.8488 -0.7515  0.4198
 3885TIP3    H211620   3.129   6.384   0.651 -0.5455  0.5962  0.2387
 3886TIP3   OH211621   4.214   4.474   5.650 -0.1586 -0.8467 -0.3258
 3886TIP3    H111622   4.208   4.528   5.571  0.6480 -1.9653 -1.1951
 3886TIP3    H211623   4.143   4.410   5.641  0.6894 -1.7499 -0.7877
 3887TIP3   OH211624   6.168   2.996   3.589  0.1348  0.1893  0.1899
 3887TIP3    H111625   6.125   3.017   3.672  0.5358  1.0514  0.1881
 3887TIP3    H211626   6.191   3.081   3.552 -0.4565 -0.1776 -1.0395
 3888TIP3   OH211627   6.312   0.118   3.782 -0.2669  0.0461  0.1684
 3888TIP3    H111628   6.310   0.029   3.818 -0.1033 -0.1341 -0.2520
 3888TIP3    H211629   6.305   0.175   3.858 -0.2312 -0.3264  0.4572
 3889TIP3   OH211630   2.883   2.737   3.644 -0.3195 -0.7557 -0.2870
 3889TIP3    H111631   2.965   2.705   3.682  0.6676 -0.1451 -1.8055
 3889TIP3    H211632   2.864   2.674   3.575 -0.3672 -0.1196 -0.8566
 3890TIP3   OH211633   2.337   0.682   2.695  0.1827  0.2767  0.1705
 3890TIP3    H111634   2.253   0.678   2.650  0.4585  0.4040 -0.3602
 3890TIP3    H211635   2.402   0.666   2.626  0.6964  2.0554  0.2027
 3891TIP3   OH211636   1.159   0.138   3.403 -0.0121  0.0521 -0.1303
 3891TIP3    H111637   1.124   0.134   3.492 -0.1236  0.6771 -0.1424
 3891TIP3    H211638   1.151   0.048   3.370 -0.4664 -0.0670  0.2984
 3892TIP3   OH211639   4.694   5.863   1.965  0.2585 -0.3391  0.4755
 3892TIP3    H111640   4.641   5.924   1.914 -0.3261 -1.4625 -0.3179
 3892TIP3    H211641   4.667   5.877   2.056 -0.8308 -0.3453  0.1633
 3893TIP3   OH211642   0.063   0.178   2.931  0.3164 -0.3742 -0.5127
 3893TIP3    H111643  -0.005   0.217   2.985  0.3279 -1.1306  0.0642
 3893TIP3    H211644   0.105   0.113   2.988  1.0136 -0.4516 -1.0982
 3894TIP3   OH211645   3.222   2.386   2.751  0.9034  0.3171 -0.7983
 3894TIP3    H111646   3.128   2.381   2.734  0.8578  0.1837 -0.5038
 3894TIP3    H211647   3.233   2.345   2.837  1.0194  1.7367 -0.1140
 3895TIP3   OH211648   1.504   4.628   1.932 -0.5091 -0.0728  0.1635
 3895TIP3    H111649   1.489   4.541   1.967 -0.4482  0.4770  1.6452
 3895TIP3    H211650   1.435   4.682   1.971 -0.5324  0.5611 -0.7048
 3896TIP3   OH211651   6.754   2.065   2.568  0.0757 -0.6229 -0.1949
 3896TIP3    H111652   6.810   2.001   2.524  0.4972 -1.0212  0.8925
 3896TIP3    H211653   6.774   2.055   2.661 -1.8924 -0.8648  0.2493
 3897TIP3   OH211654   2.445   4.496   2.727  0.0444  0.2475  0.0638
 3897TIP3    H111655   2.376   4.553   2.693 -0.7138 -0.4203  0.4627
 3897TIP3    H211656   2.434   4.498   2.822  1.0066  0.6571  0.1861
 3898TIP3   OH211657   1.821   3.494   1.504 -0.1517 -0.4786 -0.4629
 3898TIP3    H111658   1.773   3.576   1.506 -1.5148 -1.2594  0.3681
 3898TIP3    H211659   1.806   3.460   1.416 -1.3987 -0.8397 -0.1372
 3899TIP3   OH211660   3.642   0.795   0.971  1.0251 -0.1976  0.3457
 3899TIP3    H111661   3.710   0.773   0.908 -0.6752 -0.4755 -1.4731
 3899TIP3    H211662   3.569   0.826   0.918 -0.3758 -0.1462  2.2063
 3900TIP3   OH211663   2.635   1.616   2.784 -0.2456  0.0164  0.2958
 3900TIP3    H111664   2.560   1.640   2.729 -0.2910 -1.0072 -0.1036
 3900TIP3    H211665   2.665   1.533   2.748 -0.1363 -0.5590  1.6804
 3901TIP3   OH211666   2.224   1.490   1.092 -0.1662  0.1121 -0.3500
 3901TIP3    H111667   2.191   1.408   1.056 -0.1786  0.3479 -0.8724
 3901TIP3    H211668   2.302   1.511   1.040 -0.2696  0.5267 -0.3465
 3902TIP3   OH211669   6.766   6.113   1.329  0.0852 -0.4911 -0.6085
 3902TIP3    H111670   6.793   6.036   1.378  1.2867  0.8717  0.9613
 3902TIP3    H211671   6.671   6.120   1.344  0.2876 -0.6118  0.7834
 3903TIP3   OH211672   4.145   5.116   1.133 -0.2411  0.4014  0.3762
 3903TIP3    H111673   4.135   5.135   1.040 -0.1883  1.8005  0.6402
 3903TIP3    H211674   4.060   5.139   1.171  0.6710  2.8292  1.1206
 3904TIP3   OH211675   2.431   1.421   4.022  0.2393 -0.0094 -0.0255
 3904TIP3    H111676   2.461   1.504   4.061 -0.4780  0.2442 -0.0061
 3904TIP3    H211677   2.340   1.413   4.049  0.1688 -0.5797 -0.4176
 3905TIP3   OH211678   2.066   3.716   1.743 -0.0624 -0.5408  0.3149
 3905TIP3    H111679   2.110   3.707   1.828 -0.5200 -0.2585  0.5875
 3905TIP3    H211680   2.137   3.730   1.681  0.1672  1.2682  0.9345
 3906TIP3   OH211681   7.100   2.768   0.646  0.1429  0.0193 -0.5721
 3906TIP3    H111682   7.119   2.771   0.552  1.4095  1.6038 -0.3132
 3906TIP3    H211683   7.015   2.811   0.654  0.3423  0.4888 -0.9285
 3907TIP3   OH211684   0.640   3.324   2.631 -0.5233  0.0770 -0.4435
 3907TIP3    H111685   0.735   3.332   2.641 -0.3255  1.2940 -2.7195
 3907TIP3    H211686   0.616   3.257   2.694  1.5128  1.2678  1.7914
 3908TIP3   OH211687   3.792   3.995   0.015  0.6168  0.9195  0.2927
 3908TIP3    H111688   3.725   3.972  -0.049 -0.1946  0.9635  1.0965
 3908TIP3    H211689   3.756   4.070   0.062  1.1226  0.7878  0.9060
 3909TIP3   OH211690   5.575   5.829   2.404  0.2598  0.1583 -0.0858
 3909TIP3    H111691   5.639   5.765   2.434 -1.9545 -1.6684  1.1095
 3909TIP3    H211692   5.593   5.840   2.311  2.6035  0.1732  0.3096
 3910TIP3   OH211693   7.057   5.828   3.071 -0.2116 -0.0951 -0.5245
 3910TIP3    H111694   7.120   5.822   2.999  0.6388  0.3849  0.1733
 3910TIP3    H211695   7.107   5.858   3.146 -1.1060 -0.5093  0.2725
 3911TIP3   OH211696   1.873   6.775   1.890  0.4347  0.0388  0.0894
 3911TIP3    H111697   1.896   6.841   1.825  2.8286  0.9732  1.7484
 3911TIP3    H211698   1.913   6.694   1.857 -1.4157 -0.3646 -1.3061
 3912TIP3   OH211699   5.738   2.168   0.736 -0.5041 -0.4356  0.2289
 3912TIP3    H111700   5.785   2.177   0.653 -2.1320 -0.1789 -0.6922
 3912TIP3    H211701   5.686   2.248   0.743 -1.8649 -1.3279  0.5360
 3913TIP3   OH211702   0.221   5.230   5.467 -0.2793 -0.1002  0.4829
 3913TIP3    H111703   0.156   5.301   5.471 -0.1340  0.0058  0.9350
 3913TIP3    H211704   0.202   5.186   5.384 -2.4849 -1.5464  1.6450
 3914TIP3   OH211705   3.261   3.265   0.737  0.4752 -0.2416 -0.1675
 3914TIP3    H111706   3.345   3.229   0.765  1.4648  2.3405  0.5288
 3914TIP3    H211707   3.240   3.331   0.804 -1.3153  0.2942 -1.1854
 3915TIP3   OH211708   6.420   3.698   5.048  0.4420 -0.4324  0.5318
 3915TIP3    H111709   6.424   3.688   4.953  0.2075 -0.4599  0.5236
 3915TIP3    H211710   6.375   3.619   5.078 -2.1109  0.8563  0.4015
 3916TIP3   OH211711   2.443   2.000   2.547  0.6169  0.4370  0.0787
 3916TIP3    H111712   2.472   2.091   2.556  1.7372  0.1304 -0.2737
 3916TIP3    H211713   2.480   1.971   2.464  1.1078 -0.6327  0.6515
 3917TIP3   OH211714   0.633   4.636   1.581 -0.5318  0.3664  0.0917
 3917TIP3    H111715   0.727   4.649   1.564 -0.4963 -0.5512 -0.4737
 3917TIP3    H211716   0.631   4.561   1.640 -0.8349  1.4581  1.5157
 3918TIP3   OH211717   4.363   4.528   1.944 -0.4181 -0.1440 -0.2384
 3918TIP3    H111718   4.334   4.522   2.035  1.5320  1.4332  0.5447
 3918TIP3    H211719   4.409   4.446   1.928  0.4292  0.1432  0.6558
 3919TIP3   OH211720   2.553   2.968   3.177 -0.1080  0.4624  0.2416
 3919TIP3    H111721   2.488   3.037   3.186  1.1910  1.7008  0.4464
 3919TIP3    H211722   2.523   2.899   3.236 -1.5113  0.7551 -0.0815
 3920TIP3   OH211723   6.405   6.812   0.052 -0.3635  0.4930 -0.3682
 3920TIP3    H111724   6.388   6.819   0.146 -0.6661 -0.5242 -0.3353
 3920TIP3    H211725   6.355   6.735   0.024  0.5406  0.1751 -1.1599
 3921TIP3   OH211726   1.701   2.870   1.094  0.1158 -0.5913 -0.5947
 3921TIP3    H111727   1.645   2.873   1.172  1.7749 -2.3726  0.7725
 3921TIP3    H211728   1.766   2.939   1.107 -0.3873 -0.0130 -1.0814
 3922TIP3   OH211729   1.199   6.793   1.886  0.4090 -0.2340  0.0087
 3922TIP3    H111730   1.144   6.853   1.937  0.4347  0.6675 -1.0076
 3922TIP3    H211731   1.149   6.711   1.885  0.2014 -0.1442  1.0958
 3923TIP3   OH211732   4.178   6.615   0.254  0.3446 -0.1118  0.6204
 3923TIP3    H111733   4.216   6.527   0.257  1.1078  0.1701 -0.2752
 3923TIP3    H211734   4.227   6.664   0.320 -0.4296 -0.4641  1.4907
 3924TIP3   OH211735   4.320   0.026   2.145 -0.3823 -0.0095  0.0173
 3924TIP3    H111736   4.298   0.032   2.052  0.4327  0.7384 -0.1405
 3924TIP3    H211737   4.316   0.116   2.177  0.2978 -0.1364  0.4849
 3925TIP3   OH211738   6.224   2.402   3.670  0.8190  0.3328 -0.3230
 3925TIP3    H111739   6.146   2.440   3.709 -0.8887 -1.8968 -1.3126
 3925TIP3    H211740   6.285   2.476   3.660 -1.0747  2.1188  0.6421
 3926TIP3   OH211741   3.545   3.395   5.010  0.1401  0.7532  0.5011
 3926TIP3    H111742   3.536   3.342   5.089  2.4512  0.9208  0.9545
 3926TIP3    H211743   3.586   3.476   5.040  1.0663  0.8169 -0.8434
 3927TIP3   OH211744   2.363   3.724   1.657 -0.2330 -0.5571  0.6118
 3927TIP3    H111745   2.350   3.670   1.735  2.4413 -1.1209  0.7371
 3927TIP3    H211746   2.332   3.669   1.585  0.6042 -1.5073  0.9471
 3928TIP3   OH211747   5.966   4.696   3.494  0.5108 -0.1837  0.2615
 3928TIP3    H111748   5.962   4.609   3.535 -0.7713 -0.5054 -0.4890
 3928TIP3    H211749   6.052   4.698   3.452  0.5253 -1.1303  0.2180
 3929TIP3   OH211750   0.112   4.385   0.860 -0.1615 -0.2317  0.3364
 3929TIP3    H111751   0.154   4.468   0.885  2.3331 -1.8088  1.8866
 3929TIP3    H211752   0.019   4.406   0.853  0.4990  2.9965 -0.8257
 3930TIP3   OH211753   0.197   4.408   2.707 -0.3863  0.4242 -0.2045
 3930TIP3    H111754   0.118   4.457   2.728 -0.2613  0.6406 -0.2362
 3930TIP3    H211755   0.169   4.343   2.642 -0.8258 -0.4133  0.7965
 3931TIP3   OH211756   1.962   5.643   5.428  0.2133 -0.6144  0.4025
 3931TIP3    H111757   1.922   5.729   5.440 -3.5849 -1.8974 -1.4526
 3931TIP3    H211758   1.899   5.582   5.465  1.1210 -2.7937 -1.3973
 3932TIP3   OH211759   1.543   0.068   0.310 -0.3127  0.1211 -0.4795
 3932TIP3    H111760   1.618   0.114   0.348 -1.1643  1.3348 -0.2174
 3932TIP3    H211761   1.537  -0.014   0.359  0.7284  0.0722 -0.3989
 3933TIP3   OH211762   4.330   3.453   0.620 -0.2606  0.0997 -0.6401
 3933TIP3    H111763   4.253   3.480   0.570 -1.2051  0.7106  1.0550
 3933TIP3    H211764   4.389   3.528   0.616 -0.7802  0.5593 -0.0244
 3934TIP3   OH211765   0.528   6.525   2.950 -0.0776 -0.0077 -0.6326
 3934TIP3    H111766   0.595   6.550   2.887 -0.9272 -0.5891 -1.8014
 3934TIP3    H211767   0.577   6.499   3.028  1.2534 -2.5929 -2.1850
 3935TIP3   OH211768   3.969   0.582   5.556 -0.5110  0.3468  0.0084
 3935TIP3    H111769   3.973   0.507   5.616 -0.5978 -0.2404 -0.7170
 3935TIP3    H211770   4.013   0.652   5.604 -0.0478 -0.2777  0.5192
 3936TIP3   OH211771   3.884   0.191   0.318 -0.2818 -0.3728 -0.0895
 3936TIP3    H111772   3.978   0.184   0.299 -0.1222 -1.3362  0.9469
 3936TIP3    H211773   3.856   0.270   0.272  1.0222 -0.1201 -0.4889
 3937TIP3   OH211774   0.463   5.226   1.423  0.6280  0.4959  0.7772
 3937TIP3    H111775   0.557   5.233   1.443  0.5609  0.8476  0.9642
 3937TIP3    H211776   0.451   5.281   1.346  1.4637 -3.0883 -2.2330
 3938TIP3   OH211777   2.922   0.073   3.237 -0.4238  0.1715 -0.7315
 3938TIP3    H111778   2.916  -0.023   3.241  0.6525  0.1147  0.7014
 3938TIP3    H211779   2.835   0.102   3.211 -1.5638 -1.1135  1.3538
 3939TIP3   OH211780   3.177   4.644   4.735  0.9608 -0.5281 -0.4241
 3939TIP3    H111781   3.106   4.620   4.675  1.1147  1.7845 -1.6906
 3939TIP3    H211782   3.150   4.610   4.820 -0.8878 -1.1111 -1.1918
 3940TIP3   OH211783   5.166   5.325   2.891 -0.2410  0.3649  0.2316
 3940TIP3    H111784   5.106   5.380   2.941  1.0638  1.6697  0.3951
 3940TIP3    H211785   5.109   5.278   2.829 -1.4754  1.2361  0.6740
 3941TIP3   OH211786   7.021   5.401   0.416 -0.1475 -0.0112  0.0494
 3941TIP3    H111787   6.994   5.395   0.507 -0.0254 -0.6300  0.0542
 3941TIP3    H211788   7.024   5.310   0.386 -1.3926  0.2462 -0.9351
 3942TIP3   OH211789   4.391   3.001   0.003 -0.6283  0.0885 -0.0452
 3942TIP3    H111790   4.430   2.929   0.052 -0.0336 -0.9499 -1.9198
 3942TIP3    H211791   4.304   3.012   0.041  0.0321 -0.2102  1.6257
 3943TIP3   OH211792   5.244   4.463   3.865 -0.0197 -0.8666  0.2934
 3943TIP3    H111793   5.303   4.434   3.796  2.3064  0.4443  1.5982
 3943TIP3    H211794   5.224   4.384   3.914  0.9986 -1.2982  0.0497
 3944TIP3   OH211795   4.986   5.701   0.325  0.8554  0.0511  0.8910
 3944TIP3    H111796   5.016   5.694   0.415 -1.5767  1.0269  1.8640
 3944TIP3    H211797   4.902   5.747   0.331 -1.1783 -2.9039 -1.4895
 3945TIP3   OH211798   2.691   5.661   2.932  0.4446 -0.2789 -0.5248
 3945TIP3    H111799   2.751   5.721   2.976  1.5620 -1.7466  0.0234
 3945TIP3    H211800   2.648   5.613   3.003 -0.6080  0.0158 -0.9444
 3946TIP3   OH211801   5.482   2.089   0.006  0.3411  0.2063  0.3901
 3946TIP3    H111802   5.491   2.154   0.076  0.9193  0.8922 -0.3013
 3946TIP3    H211803   5.396   2.107  -0.033 -0.0660 -0.3010  1.0288
 3947TIP3   OH211804   3.936   5.650   3.834 -0.2667 -0.3545  0.1656
 3947TIP3    H111805   3.858   5.697   3.806 -1.3586 -1.2035  1.6646
 3947TIP3    H211806   3.913   5.557   3.825  1.7350 -0.7220 -2.4682
 3948TIP3   OH211807   2.391   5.885   3.891 -0.1845 -0.5730 -0.7266
 3948TIP3    H111808   2.399   5.853   3.981  2.2300  1.0160 -0.2689
 3948TIP3    H211809   2.356   5.974   3.901  0.4436 -0.2533 -1.2988
 3949TIP3   OH211810   1.282   6.077   3.019 -0.1824 -0.5607  0.2890
 3949TIP3    H111811   1.347   6.093   3.087  0.2309  1.7442 -0.5552
 3949TIP3    H211812   1.285   5.983   3.004  1.0558 -0.8604  2.1212
 3950TIP3   OH211813   0.561   2.950   3.632 -0.3365  0.5929 -0.1487
 3950TIP3    H111814   0.655   2.936   3.632 -0.1116  1.9344 -0.5790
 3950TIP3    H211815   0.540   2.975   3.542 -1.1338  0.1351 -0.0991
 3951TIP3   OH211816   1.901   0.240   2.856 -0.3398  0.0687 -0.5583
 3951TIP3    H111817   1.835   0.217   2.791 -0.7650 -0.0018 -0.1067
 3951TIP3    H211818   1.864   0.316   2.902 -0.1289 -0.0007 -0.2734
 3952TIP3   OH211819   5.647   0.586   1.591  0.2341  0.2569  0.3590
 3952TIP3    H111820   5.673   0.559   1.679  1.4673  2.3006  0.6717
 3952TIP3    H211821   5.554   0.604   1.597  0.5320  1.5232  1.5777
 3953TIP3   OH211822   4.232   6.656   2.979  1.1086 -0.3673  0.0447
 3953TIP3    H111823   4.313   6.620   2.943  1.4205  1.2269 -0.9669
 3953TIP3    H211824   4.254   6.747   3.002 -0.7014  0.5779 -1.5948
 3954TIP3   OH211825   4.472   3.779   3.153 -0.3454 -0.1460  0.6210
 3954TIP3    H111826   4.380   3.766   3.178  0.3671  0.2943  3.8803
 3954TIP3    H211827   4.517   3.701   3.185  0.3189 -1.0168 -2.1693
 3955TIP3   OH211828   7.108   6.626   5.614 -0.2299  0.5311 -0.2396
 3955TIP3    H111829   7.155   6.613   5.696  2.9406  0.4379 -1.9189
 3955TIP3    H211830   7.020   6.655   5.641  1.1665  2.2315  3.1381
 3956TIP3   OH211831   4.548   0.754   2.283  0.4532 -0.2419 -0.0270
 3956TIP3    H111832   4.568   0.777   2.193 -2.4682  0.1008 -0.6874
 3956TIP3    H211833   4.541   0.658   2.282  0.0952 -0.2148 -0.2513
 3957TIP3   OH211834   3.772   2.223   2.054  0.1570 -0.4816 -0.2714
 3957TIP3    H111835   3.848   2.187   2.100  0.2683 -0.5654 -0.5201
 3957TIP3    H211836   3.809   2.285   1.991  0.1737 -1.8253 -1.6601
 3958TIP3   OH211837   2.683   0.624   5.766 -0.8672 -0.2178 -0.1104
 3958TIP3    H111838   2.709   0.626   5.858 -0.3654 -1.6699 -0.1928
 3958TIP3    H211839   2.613   0.689   5.759 -0.9723 -0.1530  1.3062
 3959TIP3   OH211840   4.397   0.613   4.276  0.2135  0.1656  0.4427
 3959TIP3    H111841   4.465   0.641   4.215  0.4706  1.0333  1.1125
 3959TIP3    H211842   4.318   0.660   4.248 -0.2550 -1.2124 -0.6356
 3960TIP3   OH211843   4.743   1.786   4.781 -0.2368  0.5213 -0.0209
 3960TIP3    H111844   4.819   1.781   4.723  0.8844 -0.1611  1.4313
 3960TIP3    H211845   4.747   1.874   4.819 -0.2904  0.5633 -0.1138
 3961TIP3   OH211846   6.191   0.666   3.805 -0.1880 -0.4777 -0.0441
 3961TIP3    H111847   6.097   0.651   3.798 -0.4681 -0.0483  2.0038
 3961TIP3    H211848   6.229   0.616   3.733 -2.1592  1.8926 -2.9863
 3962TIP3   OH211849   2.483   0.435   5.453  0.2459 -0.0817  0.9055
 3962TIP3    H111850   2.418   0.457   5.520  0.7804 -0.0531  1.4279
 3962TIP3    H211851   2.496   0.516   5.404 -0.0186 -0.0542  0.8805
 3963TIP3   OH211852   5.005   5.122   2.762  0.0634  0.8044  0.1941
 3963TIP3    H111853   4.938   5.156   2.703  0.1396  1.3573  0.4257
 3963TIP3    H211854   4.957   5.095   2.840  0.0441  0.6900  0.1428
 3964TIP3   OH211855   3.991   2.689   2.318  0.0065  0.2700  0.5135
 3964TIP3    H111856   3.961   2.609   2.361 -1.2961  0.3965 -0.1148
 3964TIP3    H211857   4.080   2.701   2.351  1.0171 -2.5075 -0.8633
 3965TIP3   OH211858   1.494   5.445   0.275 -0.0922 -0.5251 -0.5800
 3965TIP3    H111859   1.552   5.512   0.310 -0.2929  0.6804 -2.4314
 3965TIP3    H211860   1.431   5.428   0.346  0.4046  0.7030  0.1894
 3966TIP3   OH211861   7.135   3.802   2.116  0.0675 -0.5975 -0.3198
 3966TIP3    H111862   7.150   3.709   2.133 -0.6441 -0.7517 -0.5054
 3966TIP3    H211863   7.109   3.806   2.024 -0.4469 -0.2822 -0.1657
 3967TIP3   OH211864   1.193   5.677   1.998 -0.0979 -0.5511  0.1474
 3967TIP3    H111865   1.232   5.727   1.926  1.2963 -1.1914  0.4175
 3967TIP3    H211866   1.263   5.619   2.027 -1.4677 -2.2040  0.2813
 3968TIP3   OH211867   5.986   3.103   3.748 -0.3885  0.0988 -0.2617
 3968TIP3    H111868   5.917   3.162   3.718 -1.1191 -0.8063 -0.3913
 3968TIP3    H211869   5.972   3.096   3.843 -0.4694 -0.0737 -0.2859
 3969TIP3   OH211870   6.915   0.373   4.109  0.2946 -0.6459 -0.1614
 3969TIP3    H111871   6.913   0.373   4.013 -1.1899 -0.4366 -0.1514
 3969TIP3    H211872   6.939   0.283   4.132  1.8871 -0.4045 -0.7072
 3970TIP3   OH211873   3.300   1.221   5.475 -0.1519 -0.3360  0.5918
 3970TIP3    H111874   3.209   1.242   5.497 -0.4871 -0.0997 -0.9195
 3970TIP3    H211875   3.347   1.303   5.487 -0.1992 -0.3788  1.0724
 3971TIP3   OH211876   1.520   4.589   3.404  0.1412  0.0765  0.1396
 3971TIP3    H111877   1.531   4.677   3.369  0.9974  0.2352  0.7766
 3971TIP3    H211878   1.533   4.598   3.498  1.4428 -0.8927  0.0920
 3972TIP3   OH211879   3.008   1.661   0.681 -0.1444 -0.3066  0.6943
 3972TIP3    H111880   3.067   1.616   0.620  1.3352  0.8311  1.2337
 3972TIP3    H211881   3.048   1.747   0.695 -1.4126  0.1360  1.8673
 3973TIP3   OH211882   6.700   0.099   1.337 -0.5941  0.0613 -0.0176
 3973TIP3    H111883   6.774   0.099   1.276 -0.5623 -0.3349  0.0217
 3973TIP3    H211884   6.704   0.184   1.380  0.2639 -0.2354  0.5058
 3974TIP3   OH211885   0.765   2.428   3.557 -0.3320  0.1174  0.0157
 3974TIP3    H111886   0.803   2.362   3.499 -0.5511  0.1802 -0.2030
 3974TIP3    H211887   0.673   2.431   3.532 -0.2864  0.6378 -0.1037
 3975TIP3   OH211888   0.153   5.897   5.204  0.1328  0.0019  0.0432
 3975TIP3    H111889   0.179   5.905   5.296 -0.2911 -0.4487  0.2055
 3975TIP3    H211890   0.067   5.854   5.207  0.7095 -1.2188 -0.6260
 3976TIP3   OH211891   6.384   0.692   2.329  0.1436  0.8858  0.2654
 3976TIP3    H111892   6.337   0.608   2.332  1.7938 -0.0584  0.7612
 3976TIP3    H211893   6.362   0.728   2.243 -0.8094  0.0794  0.1491
 3977TIP3   OH211894   6.969   4.506   5.492 -0.1939  0.6480 -0.5067
 3977TIP3    H111895   7.018   4.424   5.495 -0.6720  0.3769  0.3018
 3977TIP3    H211896   6.879   4.481   5.513 -0.2432  1.4476  0.3173
 3978TIP3   OH211897   6.395   4.867   4.534  0.0842 -0.2062  0.2422
 3978TIP3    H111898   6.339   4.921   4.477 -0.2211 -0.8477 -0.0812
 3978TIP3    H211899   6.366   4.888   4.623 -0.1416  0.0364  0.1137
 3979TIP3   OH211900   5.983   2.861   2.092  0.0121 -0.1559  0.0517
 3979TIP3    H111901   6.007   2.951   2.113 -0.2225 -0.2739  0.8799
 3979TIP3    H211902   5.971   2.860   1.997  2.5425  0.0564 -0.3192
 3980TIP3   OH211903   3.099   0.741   2.900 -0.0493  0.5289  0.2001
 3980TIP3    H111904   3.164   0.671   2.886  0.6853  1.2352 -0.0441
 3980TIP3    H211905   3.015   0.700   2.882  0.1543 -0.8700  2.1340
 3981TIP3   OH211906   4.423   5.973   1.798  0.2147  0.1239  0.2355
 3981TIP3    H111907   4.507   6.005   1.764  0.2789 -1.3922 -1.1407
 3981TIP3    H211908   4.405   6.031   1.872  3.0134 -0.1486  1.2794
 3982TIP3   OH211909   7.197   0.163   2.173  0.2682 -0.1420  0.2848
 3982TIP3    H111910   7.240   0.242   2.140  0.9472 -0.8374 -0.5149
 3982TIP3    H211911   7.158   0.190   2.257  1.5441  0.7100  0.6205
 3983TIP3   OH211912   4.587   4.697   2.248  0.2962  0.5285 -0.0356
 3983TIP3    H111913   4.677   4.725   2.261  1.2272 -2.0518 -0.4285
 3983TIP3    H211914   4.581   4.675   2.156 -0.0355 -1.4752  0.4256
 3984TIP3   OH211915   4.070   5.199   1.507 -0.2388  0.6885 -0.1279
 3984TIP3    H111916   4.108   5.256   1.441 -0.8225  2.0823  0.7039
 3984TIP3    H211917   4.078   5.111   1.470 -0.3229  1.3968 -1.9217
 3985TIP3   OH211918   3.631   4.145   0.776 -0.5841  0.4038 -0.2122
 3985TIP3    H111919   3.541   4.116   0.784  0.1482 -1.6919  1.1696
 3985TIP3    H211920   3.684   4.067   0.791  1.5200  2.0357  1.8719
 3986TIP3   OH211921   0.053   0.228   0.289  0.3013 -0.2763 -0.5677
 3986TIP3    H111922   0.131   0.282   0.276 -0.4379  1.1709  0.6896
 3986TIP3    H211923  -0.002   0.245   0.213 -0.0495  1.0027 -0.0427
 3987TIP3   OH211924   6.463   4.629   2.449  0.0133  0.4068 -0.5180
 3987TIP3    H111925   6.468   4.578   2.530 -0.6415 -2.9588 -2.3977
 3987TIP3    H211926   6.495   4.715   2.473  1.0830 -0.7889  3.0002
 3988TIP3   OH211927   6.796   4.906   2.381  0.1777 -0.6441 -0.6261
 3988TIP3    H111928   6.703   4.886   2.385  0.0657 -0.2252 -1.0477
 3988TIP3    H211929   6.813   4.925   2.289  0.4049  0.5104 -0.3650
 3989TIP3   OH211930   4.410   4.202   4.547  0.2023  0.2354  0.2158
 3989TIP3    H111931   4.321   4.230   4.527 -0.2623 -0.0629  1.7763
 3989TIP3    H211932   4.464   4.242   4.479 -1.0988  0.5120 -0.6794
 3990TIP3   OH211933   0.752   4.128   2.700  0.4752 -0.0325 -0.4639
 3990TIP3    H111934   0.809   4.152   2.627  2.1440  0.1225  0.8477
 3990TIP3    H211935   0.738   4.210   2.748  0.0347 -0.2805 -0.1588
 3991TIP3   OH211936   6.920   1.154   1.134  0.0385  0.0760  0.2627
 3991TIP3    H111937   6.870   1.236   1.130 -1.8365 -0.8841  1.9087
 3991TIP3    H211938   6.934   1.130   1.042 -2.0298  0.7560 -0.2954
 3992TIP3   OH211939   2.584   4.492   2.019 -0.1219 -1.0680  0.0205
 3992TIP3    H111940   2.636   4.565   1.985 -0.3753 -0.1586  1.5048
 3992TIP3    H211941   2.512   4.483   1.956 -1.4257  1.5667  0.9865
 3993TIP3   OH211942   1.724   2.019   4.371 -0.2159 -0.3632  0.1350
 3993TIP3    H111943   1.764   2.089   4.320  0.1696  0.3087  1.3358
 3993TIP3    H211944   1.630   2.032   4.361 -0.1774 -1.0040 -1.4081
 3994TIP3   OH211945   5.976   5.667   0.944 -0.2882 -0.3641 -0.0545
 3994TIP3    H111946   5.935   5.697   1.025 -1.9575  0.4702 -1.1616
 3994TIP3    H211947   6.007   5.579   0.965  1.1388  0.5773  2.0685
 3995TIP3   OH211948   0.860   1.669   0.150  0.1966 -0.2438 -0.3413
 3995TIP3    H111949   0.907   1.598   0.106  0.6737 -0.6465  0.7785
 3995TIP3    H211950   0.916   1.746   0.140 -0.2424 -0.0369 -1.4097
 3996TIP3   OH211951   1.369   3.677   0.762  0.1931 -0.5185 -0.7733
 3996TIP3    H111952   1.378   3.613   0.690 -1.4971  1.0495 -2.4818
 3996TIP3    H211953   1.382   3.762   0.720 -0.0038  0.4174  0.9724
 3997TIP3   OH211954   5.595   6.620   4.620 -0.2185  0.1119 -0.2578
 3997TIP3    H111955   5.555   6.707   4.615  1.6464  0.9406 -1.9160
 3997TIP3    H211956   5.648   6.622   4.699 -1.1032  0.0312  0.3548
 3998TIP3   OH211957   4.370   4.899   2.292 -0.0728  0.7913  0.4685
 3998TIP3    H111958   4.419   4.838   2.346  0.5247  0.2943 -0.6052
 3998TIP3    H211959   4.325   4.957   2.355  2.9450  2.1528  1.5462
 3999TIP3   OH211960   3.385   1.246   5.749 -0.5022 -0.0204 -0.3254
 3999TIP3    H111961   3.445   1.311   5.786  0.3733 -0.1440 -1.4715
 3999TIP3    H211962   3.428   1.162   5.766 -2.1781 -0.4936  2.2122
 4000TIP3   OH211963   6.458   3.092   3.706  0.1584  0.5410  0.0166
 4000TIP3    H111964   6.511   3.041   3.645 -1.1693  1.3319 -1.9191
 4000TIP3    H211965   6.391   3.133   3.651 -2.5905 -0.5223  2.2974
 4001TIP3   OH211966   0.912   5.349   5.051  0.4799  0.2440 -0.3292
 4001TIP3    H111967   0.892   5.307   5.134 -0.0730 -0.3191 -0.7381
 4001TIP3    H211968   0.973   5.420   5.074  1.8528 -1.0907  0.2870
 4002TIP3   OH211969   6.834   5.722   2.927 -0.5326 -0.3214  0.1491
 4002TIP3    H111970   6.769   5.765   2.983  1.0288  0.7798  1.1911
 4002TIP3    H211971   6.917   5.731   2.974  0.1916 -2.9495 -0.4512
 4003TIP3   OH211972   0.613   6.415   4.586 -0.0616 -0.2787  0.3273
 4003TIP3    H111973   0.694   6.366   4.577 -0.3449 -0.7608  0.3683
 4003TIP3    H211974   0.547   6.349   4.607 -0.1092  0.3325  2.3845
 4004TIP3   OH211975   2.554   3.699   3.669 -0.1767 -0.7247 -0.4968
 4004TIP3    H111976   2.587   3.782   3.634  1.6978 -1.3112 -0.2567
 4004TIP3    H211977   2.465   3.692   3.635 -0.4464  1.4692 -0.3563
 4005TIP3   OH211978   5.436   1.170   1.445  0.5199 -0.1443 -0.2327
 4005TIP3    H111979   5.488   1.162   1.365  2.0493 -0.6823  0.7753
 4005TIP3    H211980   5.418   1.079   1.470 -0.7040  0.0321 -0.4121
 4006TIP3   OH211981   3.258   3.530   1.396 -0.1311  0.2485 -0.2110
 4006TIP3    H111982   3.343   3.536   1.354  0.2739 -1.6938  0.2107
 4006TIP3    H211983   3.200   3.495   1.328 -0.6012  1.4614 -0.4654
 4007TIP3   OH211984   3.585   5.594   2.512 -0.3380 -0.1253 -0.1119
 4007TIP3    H111985   3.513   5.533   2.527 -0.3050 -0.9539 -2.7128
 4007TIP3    H211986   3.649   5.544   2.461  1.3207  1.0927  0.6564
 4008TIP3   OH211987   0.575   4.501   5.649 -0.1142  0.2492  0.7912
 4008TIP3    H111988   0.599   4.557   5.723  0.4376  0.8864  0.1358
 4008TIP3    H211989   0.639   4.521   5.581  1.4985 -2.7326  1.2574
 4009TIP3   OH211990   5.183   0.589   3.805 -0.0399  0.0975  0.0532
 4009TIP3    H111991   5.169   0.494   3.799  1.3611 -0.0898 -1.2806
 4009TIP3    H211992   5.229   0.610   3.723  0.4044  1.7827  0.7054
 4010TIP3   OH211993   0.319   3.803   3.278 -0.1919  0.3528  0.8939
 4010TIP3    H111994   0.388   3.838   3.222 -0.3641  0.1514  0.5519
 4010TIP3    H211995   0.240   3.809   3.224 -0.7455  2.0063  1.7946
 4011TIP3   OH211996   5.677   2.083   4.143  0.0672 -0.5026 -0.9984
 4011TIP3    H111997   5.727   2.164   4.138  0.2531 -0.5857 -0.5484
 4011TIP3    H211998   5.725   2.029   4.205 -0.9063 -0.3421 -0.0644
 4012TIP3   OH211999   6.999   4.107   4.946  0.0299  0.5710 -0.0636
 4012TIP3    H112000   6.949   4.179   4.983 -0.3269  0.1597  0.2650
 4012TIP3    H212001   7.045   4.069   5.021 -0.0692  0.2323 -0.1720
 4013TIP3   OH212002   3.882   2.463   2.451  0.2353 -0.1653 -0.1159
 4013TIP3    H112003   3.893   2.377   2.492  0.4534 -0.7076 -1.2721
 4013TIP3    H212004   3.796   2.459   2.409 -0.8236  1.0475  1.7714
 4014TIP3   OH212005   1.242   3.261   0.838 -0.0585  0.0953  0.1760
 4014TIP3    H112006   1.169   3.228   0.785 -0.6780  2.1473 -0.3500
 4014TIP3    H212007   1.304   3.298   0.774  1.3416 -1.3727  0.6374
 4015TIP3   OH212008   3.017   6.172   1.517  0.3551  0.6269  0.3688
 4015TIP3    H112009   2.922   6.171   1.521  0.1534  2.2848 -1.9417
 4015TIP3    H212010   3.045   6.188   1.607 -1.5054 -0.1089  1.1272
 4016TIP3   OH212011   0.303   5.000   1.248  0.1859 -0.1760  0.0091
 4016TIP3    H112012   0.376   4.995   1.309 -0.2553  0.5066  0.6096
 4016TIP3    H212013   0.340   5.041   1.169 -0.1311  2.9565  1.3297
 4017TIP3   OH212014   4.549   4.955   5.117  0.4698  0.0298 -0.5926
 4017TIP3    H112015   4.615   4.910   5.064 -0.2351 -2.2385  0.3239
 4017TIP3    H212016   4.590   4.965   5.203  0.7008  1.4174 -0.8468
 4018TIP3   OH212017   1.129   4.319   4.242  0.0400  0.0995  1.0585
 4018TIP3    H112018   1.046   4.360   4.266  0.6903  0.5501  2.6476
 4018TIP3    H212019   1.120   4.228   4.270 -0.2458 -0.0956  0.3654
 4019TIP3   OH212020   2.495   5.825   4.171  0.2697 -0.7737  0.1455
 4019TIP3    H112021   2.484   5.920   4.181 -1.0378 -0.6040 -2.1537
 4019TIP3    H212022   2.583   5.808   4.205  0.3012  1.1395  1.1915
 4020TIP3   OH212023   3.316   5.082   0.551  0.5128  0.0671  0.3347
 4020TIP3    H112024   3.276   5.097   0.636  0.3640 -0.1494  0.3027
 4020TIP3    H212025   3.286   4.995   0.525  0.8481 -0.0185  0.2247
 4021TIP3   OH212026   0.115   4.632   4.466  0.7394  0.2099 -0.0630
 4021TIP3    H112027   0.197   4.630   4.515  1.8664 -0.5151 -1.8386
 4021TIP3    H212028   0.086   4.541   4.464  0.4141  0.3160 -0.2550
 4022TIP3   OH212029   6.694   0.283   1.058  0.0979 -0.5028  0.1254
 4022TIP3    H112030   6.763   0.218   1.048 -0.1122 -0.5322 -1.3010
 4022TIP3    H212031   6.637   0.270   0.982 -1.9871 -1.0531  1.6681
 4023TIP3   OH212032   2.823   2.477   1.506 -0.4899  0.1903 -0.0269
 4023TIP3    H112033   2.735   2.459   1.474 -0.5285  0.0660  0.1524
 4023TIP3    H212034   2.847   2.560   1.464  0.0256 -0.6833 -1.5534
 4024TIP3   OH212035   6.255   4.432   5.555 -0.3869 -0.0354  0.3773
 4024TIP3    H112036   6.219   4.428   5.644 -1.7509 -0.3808 -0.1696
 4024TIP3    H212037   6.181   4.459   5.500  0.4846  0.3495 -0.6388
 4025TIP3   OH212038   0.909   5.763  -0.035  0.8074 -0.3932  0.9010
 4025TIP3    H112039   0.860   5.693   0.009  1.8494 -0.9597  1.2042
 4025TIP3    H212040   0.915   5.833   0.031  0.5156 -0.3714  0.9046
 4026TIP3   OH212041   0.487   3.737   1.434  0.6021 -0.8930 -0.0706
 4026TIP3    H112042   0.419   3.792   1.395  2.2021 -0.7318 -2.9521
 4026TIP3    H212043   0.508   3.674   1.366  3.7641 -0.5179  0.3994
 4027TIP3   OH212044   5.865   6.243   4.465 -0.3545 -0.6718 -0.0227
 4027TIP3    H112045   5.856   6.323   4.517  2.5769 -0.7120  0.7282
 4027TIP3    H212046   5.927   6.265   4.396  0.1778 -2.1382 -0.0652
 4028TIP3   OH212047   5.313   2.355   2.606  0.0724 -0.1350  0.0939
 4028TIP3    H112048   5.347   2.348   2.517 -1.1589 -1.9158 -0.2919
 4028TIP3    H212049   5.290   2.265   2.630 -1.0491  0.5249  1.6327
 4029TIP3   OH212050   0.714   2.611   5.084 -0.2678  0.2148 -0.6658
 4029TIP3    H112051   0.732   2.553   5.158 -3.0348 -0.0329 -0.0817
 4029TIP3    H212052   0.716   2.554   5.008 -0.2188 -0.0974 -0.4327
 4030TIP3   OH212053   5.778   5.729   5.415  0.6815 -0.0967  0.1227
 4030TIP3    H112054   5.761   5.684   5.332 -1.3528 -0.9836  0.9369
 4030TIP3    H212055   5.738   5.816   5.404 -2.1963 -1.1915  1.0515
 4031TIP3   OH212056   1.790   2.611   4.767 -0.5237  0.3449 -0.0855
 4031TIP3    H112057   1.706   2.644   4.798 -1.6772 -0.4998 -2.1349
 4031TIP3    H212058   1.774   2.585   4.676  1.7485 -0.6029 -0.2848
 4032TIP3   OH212059   4.660   3.619   1.512 -0.5177  0.0465  0.5168
 4032TIP3    H112060   4.667   3.675   1.434 -0.9057 -1.5140 -0.6864
 4032TIP3    H212061   4.633   3.679   1.581  0.1752  1.5553 -0.4444
 4033TIP3   OH212062   6.327   4.812   5.487  0.3491 -0.2974  0.1796
 4033TIP3    H112063   6.250   4.869   5.480  0.2676 -0.0874  2.2003
 4033TIP3    H212064   6.398   4.863   5.446 -0.6394 -0.7781 -2.3263
 4034TIP3   OH212065   7.036   3.583   3.190  0.3762 -0.2056  0.3991
 4034TIP3    H112066   7.052   3.490   3.178  0.8333  0.0146 -0.8043
 4034TIP3    H212067   6.984   3.588   3.270  0.0708 -1.5139  0.3039
 4035TIP3   OH212068   0.971   5.110   0.496 -0.2360  0.7082  0.0104
 4035TIP3    H112069   1.055   5.066   0.487 -0.0992  0.7091  1.1944
 4035TIP3    H212070   0.952   5.108   0.590 -1.3406  1.1079 -0.1866
 4036TIP3   OH212071   4.966   0.032   4.619 -0.1177  0.0975  0.1650
 4036TIP3    H112072   4.987   0.115   4.577  1.1947 -0.8648 -1.1662
 4036TIP3    H212073   5.001  -0.035   4.560 -2.0996 -1.4693  0.6187
 4037TIP3   OH212074   3.366   0.093   2.467  0.1896  0.1891  0.5456
 4037TIP3    H112075   3.353   0.060   2.378 -0.5792 -0.0540  0.7360
 4037TIP3    H212076   3.459   0.112   2.473  0.4816 -1.0183  0.1012
 4038TIP3   OH212077   6.097   4.221   2.178 -0.3756  0.5948  0.1536
 4038TIP3    H112078   6.142   4.198   2.097  1.5121  2.0211  0.7364
 4038TIP3    H212079   6.028   4.281   2.151 -1.3596 -0.8230 -0.6315
 4039TIP3   OH212080   1.252   1.878   4.500  0.2316  0.9645  0.1644
 4039TIP3    H112081   1.241   1.797   4.450  0.6560  1.9989 -1.7143
 4039TIP3    H212082   1.167   1.892   4.542 -0.0803 -0.0632 -0.0974
 4040TIP3   OH212083   3.359   1.143   2.252  0.1060 -0.1716 -0.0767
 4040TIP3    H112084   3.408   1.213   2.296  0.5735 -0.7222  0.2884
 4040TIP3    H212085   3.381   1.154   2.159  3.4663 -2.2683  0.3170
 4041TIP3   OH212086   6.321   3.839   2.363  0.1004  0.0669  0.1056
 4041TIP3    H112087   6.303   3.900   2.435 -1.5242 -1.7106  1.3026
 4041TIP3    H212088   6.392   3.784   2.396  1.9997  1.6007 -1.2161
 4042TIP3   OH212089   5.324   0.792   5.101  0.4770  0.2415 -0.7407
 4042TIP3    H112090   5.379   0.850   5.046  0.9131  0.1091 -0.4493
 4042TIP3    H212091   5.320   0.710   5.052  0.8216  0.1409 -0.6026
 4043TIP3   OH212092   5.066   2.976   2.960 -0.0701 -0.7982 -0.1327
 4043TIP3    H112093   5.136   3.029   2.998 -1.4812 -0.9872  3.0337
 4043TIP3    H212094   5.092   2.886   2.978  0.2257 -1.0360 -1.6104
 4044TIP3   OH212095   1.869   1.517   2.526  0.0822  0.6876 -0.5661
 4044TIP3    H112096   1.879   1.612   2.521 -0.7760  0.7596 -1.3529
 4044TIP3    H212097   1.819   1.494   2.447  0.2314 -0.4119 -0.3657
 4045TIP3   OH212098   2.503   4.647   4.692  0.9023 -0.8227 -0.1552
 4045TIP3    H112099   2.421   4.668   4.736  0.6032 -1.4431 -0.3963
 4045TIP3    H212100   2.533   4.730   4.656  0.8535 -0.4195  0.7121
 4046TIP3   OH212101   5.182   4.396   1.058 -0.0567  0.5092 -0.2500
 4046TIP3    H112102   5.269   4.419   1.090 -0.0148 -1.0166  0.8754
 4046TIP3    H212103   5.180   4.300   1.064 -1.0880  0.3651 -2.2281
 4047TIP3   OH212104   5.636   2.774   2.804  0.7609  0.3956  0.1688
 4047TIP3    H112105   5.609   2.716   2.733  0.4428  1.7995 -0.9142
 4047TIP3    H212106   5.721   2.741   2.833  0.2548 -1.0186  0.0934
 4048TIP3   OH212107   3.480   6.308   2.612 -0.1362 -0.4053 -0.1119
 4048TIP3    H112108   3.469   6.394   2.653 -0.6602 -1.1622  1.4050
 4048TIP3    H212109   3.559   6.317   2.559 -0.7114  1.2874 -0.7796
 4049TIP3   OH212110   2.331   2.043   3.234 -0.4235 -0.2848  0.2739
 4049TIP3    H112111   2.347   1.952   3.258  0.7799  0.4113  2.3045
 4049TIP3    H212112   2.243   2.042   3.197 -0.0647 -2.4102 -0.6920
 4050TIP3   OH212113   6.975   1.451   2.550 -0.6732  0.4039  0.6551
 4050TIP3    H112114   6.960   1.539   2.584 -1.4164  0.8038 -0.6298
 4050TIP3    H212115   7.058   1.457   2.503 -1.1943  0.7085 -0.2649
 4051TIP3   OH212116   2.038   4.696   5.650  0.1506 -0.7939  0.2403
 4051TIP3    H112117   2.099   4.673   5.580 -0.3598  0.6756 -0.7356
 4051TIP3    H212118   2.019   4.789   5.636 -3.0067 -1.3718 -0.0650
 4052TIP3   OH212119   3.815   5.200   2.505 -0.2275  0.3007 -0.5614
 4052TIP3    H112120   3.866   5.121   2.522 -0.6114  0.0069 -0.7646
 4052TIP3    H212121   3.781   5.226   2.591  0.6258  0.7534 -0.3522
 4053TIP3   OH212122   2.441   4.917   0.712 -0.3088 -0.1801 -0.3666
 4053TIP3    H112123   2.499   4.951   0.779 -0.8814 -1.9855  1.1227
 4053TIP3    H212124   2.357   4.959   0.729 -0.2854 -0.1195 -0.4005
 4054TIP3   OH212125   3.944   6.558   4.279 -0.2566  0.1880  0.3121
 4054TIP3    H112126   4.007   6.517   4.337 -0.9929 -2.3927 -0.5737
 4054TIP3    H212127   3.923   6.490   4.214 -1.8771  1.8621 -1.0310
 4055TIP3   OH212128   1.743   0.040   4.839  0.4924 -0.0116  0.5581
 4055TIP3    H112129   1.809   0.024   4.772 -0.3002 -0.1395 -0.2131
 4055TIP3    H212130   1.782   0.108   4.895  1.3094 -0.1548  0.1777
 4056TIP3   OH212131   4.110   3.289   0.312 -0.3652  0.2979  0.4463
 4056TIP3    H112132   4.201   3.265   0.300 -0.2314  1.7644 -2.1848
 4056TIP3    H212133   4.112   3.357   0.379  0.5811  0.7911 -0.0607
 4057TIP3   OH212134   2.407   1.256   2.073 -0.0680  0.2322  0.6376
 4057TIP3    H112135   2.433   1.318   2.004 -1.1952  1.1264  0.9675
 4057TIP3    H212136   2.347   1.307   2.128 -2.3469 -1.5829  0.0007
 4058TIP3   OH212137   0.126   1.029   5.601 -0.3078  0.2276  0.3347
 4058TIP3    H112138   0.179   1.033   5.522  0.9619 -0.0750  1.1463
 4058TIP3    H212139   0.178   1.074   5.668  0.6897 -3.1079  2.0720
 4059TIP3   OH212140   4.876   3.601   3.115 -0.7476 -0.1460  0.2265
 4059TIP3    H112141   4.932   3.543   3.063 -1.5553  0.2165 -1.1094
 4059TIP3    H212142   4.789   3.590   3.077 -1.7545 -1.1579  2.6379
 4060TIP3   OH212143   5.087   5.267   1.671  0.1802 -0.4105  0.0399
 4060TIP3    H112144   5.031   5.274   1.594  0.7312 -0.1347 -0.3426
 4060TIP3    H212145   5.036   5.307   1.741 -0.2953 -0.5960 -0.1961
 4061TIP3   OH212146   2.296   1.107   3.562  0.4171  0.0324  0.3472
 4061TIP3    H112147   2.289   1.077   3.471 -0.0020 -1.2528  0.7829
 4061TIP3    H212148   2.380   1.072   3.593 -0.8015 -2.2066  1.3568
 4062TIP3   OH212149   1.883   1.670   4.122 -0.1962 -0.0026 -0.3756
 4062TIP3    H112150   1.902   1.662   4.029 -1.5236 -0.6806 -0.6057
 4062TIP3    H212151   1.969   1.686   4.162  0.2825  1.1409 -1.7802
 4063TIP3   OH212152   6.832   3.175   0.760  0.1348 -0.4267 -0.0686
 4063TIP3    H112153   6.876   3.260   0.759  1.2888 -1.0088 -0.5573
 4063TIP3    H212154   6.745   3.193   0.723 -0.8609  1.1253  2.7495
 4064TIP3   OH212155   5.841   3.128   1.058  0.0432  0.7148  0.3029
 4064TIP3    H112156   5.846   3.091   0.970  1.5331  1.0656  0.2025
 4064TIP3    H212157   5.865   3.220   1.047  0.0871  0.7987  1.0501
 4065TIP3   OH212158   4.681   0.756   0.216 -0.3815  0.2257  0.2589
 4065TIP3    H112159   4.739   0.806   0.272  0.7437  0.1179 -0.7771
 4065TIP3    H212160   4.658   0.816   0.145 -0.3996 -0.1860 -0.0880
 4066TIP3   OH212161   4.304   3.733   1.190 -0.4636 -0.5515  0.0099
 4066TIP3    H112162   4.334   3.816   1.227 -0.9131 -0.5779  0.4612
 4066TIP3    H212163   4.209   3.744   1.182 -0.4898 -0.9163 -0.2009
 4067TIP3   OH212164   0.481   3.587   2.644 -0.4604 -0.2266 -0.0727
 4067TIP3    H112165   0.430   3.578   2.724 -1.3682 -1.1299 -0.7101
 4067TIP3    H212166   0.485   3.498   2.608 -1.3330  0.3494 -1.7481
 4068TIP3   OH212167   6.543   3.830   4.382  0.3713  0.0280 -0.5586
 4068TIP3    H112168   6.627   3.785   4.377  0.5117  0.4067 -1.8556
 4068TIP3    H212169   6.489   3.774   4.439  1.3681 -0.4047 -0.0180
 4069TIP3   OH212170   5.948   5.938   0.431 -0.7050 -0.4195 -0.7018
 4069TIP3    H112171   6.039   5.910   0.433 -0.3450  0.6783 -0.9401
 4069TIP3    H212172   5.912   5.906   0.514  0.4051  0.7085  0.2574
 4070TIP3   OH212173   4.385   3.882   5.708  0.0129 -0.7582  0.4488
 4070TIP3    H112174   4.444   3.906   5.637  0.2866 -1.9128  0.2616
 4070TIP3    H212175   4.317   3.949   5.707  1.0330  0.3023  0.3272
 4071TIP3   OH212176   2.930   4.160   1.702  0.6809 -0.5096 -0.3936
 4071TIP3    H112177   2.998   4.206   1.652  0.4527 -1.1699 -1.3259
 4071TIP3    H212178   2.848   4.183   1.657  0.6597 -2.7520 -1.6461
 4072TIP3   OH212179   5.867   5.392   1.608 -0.3222  0.2422  0.0734
 4072TIP3    H112180   5.882   5.309   1.563 -2.8070 -0.0780 -0.2875
 4072TIP3    H212181   5.828   5.367   1.692  1.9286  0.9525  1.4151
 4073TIP3   OH212182   6.351   2.890   4.410 -0.1594 -0.1065  0.0410
 4073TIP3    H112183   6.331   2.983   4.415  0.9615  0.1822 -0.5887
 4073TIP3    H212184   6.286   2.854   4.350 -0.3199  0.3428 -0.0551
 4074TIP3   OH212185   7.068   3.299   0.135 -0.2036  0.4407 -0.1550
 4074TIP3    H112186   7.077   3.276   0.042  2.4448  0.0064  0.1225
 4074TIP3    H212187   7.091   3.392   0.139 -0.0695  0.3980  0.0849
 4075TIP3   OH212188   6.520   1.348   5.723  0.0319  0.3589  0.1733
 4075TIP3    H112189   6.534   1.416   5.789 -1.1765  0.9454 -0.1596
 4075TIP3    H212190   6.491   1.395   5.645  1.8022 -0.2865 -0.9322
 4076TIP3   OH212191   4.566   3.439   2.404 -0.1002  0.7109  0.8454
 4076TIP3    H112192   4.593   3.350   2.428  1.9396  0.3390 -2.2118
 4076TIP3    H212193   4.492   3.426   2.346  0.4475  0.9507  0.0785
 4077TIP3   OH212194   1.984   1.111   3.625  0.1160 -0.0961  0.0202
 4077TIP3    H112195   2.041   1.184   3.601  1.4120 -0.7594  0.9033
 4077TIP3    H212196   1.901   1.130   3.583  1.1946  0.5484 -1.9743
 4078TIP3   OH212197   2.997   1.446   3.960 -0.0301  0.4317 -0.3046
 4078TIP3    H112198   2.969   1.387   3.891  0.7767  0.2442 -0.4892
 4078TIP3    H212199   2.955   1.413   4.039 -0.1617  0.0482 -0.5309
 4079TIP3   OH212200   2.106   6.328   3.095  0.0484 -0.3086 -0.0353
 4079TIP3    H112201   2.073   6.400   3.041  0.5965 -0.6193 -0.8183
 4079TIP3    H212202   2.140   6.369   3.174 -0.6471  0.1756  0.0129
 4080TIP3   OH212203   1.040   0.716   2.905 -0.2495 -0.6756 -0.3722
 4080TIP3    H112204   1.056   0.677   2.819 -0.9325 -0.0621 -0.7896
 4080TIP3    H212205   0.993   0.648   2.954 -1.6108 -0.3538 -1.1596
 4081TIP3   OH212206   4.377   2.385   4.424 -0.2128 -0.0373 -0.3184
 4081TIP3    H112207   4.446   2.425   4.478 -0.9869  1.1850 -0.2084
 4081TIP3    H212208   4.312   2.454   4.412  0.2961  0.0483 -3.5597
 4082TIP3   OH212209   1.139   3.366   2.006 -0.1904 -0.6252 -0.3622
 4082TIP3    H112210   1.230   3.339   1.995  0.0229  0.0488 -0.3318
 4082TIP3    H212211   1.140   3.460   1.984 -0.4644 -0.1021  1.6743
 4083TIP3   OH212212   1.741   3.974   2.357 -0.2066  0.0948 -0.3011
 4083TIP3    H112213   1.738   3.966   2.452 -1.1852 -0.8449 -0.3972
 4083TIP3    H212214   1.823   3.933   2.332 -0.5505 -0.8462  0.0494
 4084TIP3   OH212215   0.646   0.251   5.335  0.1616 -0.0474 -0.2015
 4084TIP3    H112216   0.719   0.285   5.386 -0.7504  1.6679  0.0319
 4084TIP3    H212217   0.687   0.206   5.261  1.4561 -0.6608  0.8595
 4085TIP3   OH212218   5.928   5.576   0.262 -0.4712  0.1682  0.3354
 4085TIP3    H112219   5.989   5.624   0.206 -0.4213  0.2684  0.4744
 4085TIP3    H212220   5.971   5.574   0.347 -0.9029  0.7090  0.5722
 4086TIP3   OH212221   2.806   1.599   0.857 -0.7110 -0.1160  0.5361
 4086TIP3    H112222   2.877   1.637   0.806 -0.9184 -0.5524 -0.0893
 4086TIP3    H212223   2.738   1.579   0.793 -1.4482  0.3797  1.1314
 4087TIP3   OH212224   0.368   4.511   0.986 -0.2464  0.1395 -0.1881
 4087TIP3    H112225   0.356   4.524   1.080 -0.0131  0.3221 -0.1799
 4087TIP3    H212226   0.463   4.515   0.974 -0.2637 -0.0918 -0.4031
 4088TIP3   OH212227   4.839   6.464   0.150  0.2330 -0.3015  0.0402
 4088TIP3    H112228   4.843   6.560   0.147  0.8424 -0.2163  2.1523
 4088TIP3    H212229   4.928   6.435   0.133  0.4911 -0.3849  1.4516
 4089TIP3   OH212230   4.733   5.507   5.678 -0.1981 -0.2440 -0.2165
 4089TIP3    H112231   4.819   5.500   5.635  0.0143  1.3048 -0.1352
 4089TIP3    H212232   4.670   5.492   5.609  0.1500 -0.1421 -0.5618
 4090TIP3   OH212233   1.665   0.787   1.411 -0.2825 -0.1974 -0.4433
 4090TIP3    H112234   1.641   0.695   1.403  0.6799 -0.4838 -0.1131
 4090TIP3    H212235   1.715   0.792   1.492 -1.2705  0.8223  0.1264
 4091TIP3   OH212236   5.685   5.688   0.230  0.2606  0.8963 -0.1215
 4091TIP3    H112237   5.710   5.734   0.311  0.1230  1.4489 -0.3856
 4091TIP3    H212238   5.757   5.628   0.213  1.2559  2.2000 -0.6731
 4092TIP3   OH212239   4.940   1.275   1.570 -0.2005  0.1209  0.3392
 4092TIP3    H112240   5.030   1.302   1.553  1.0645 -2.9538  1.4772
 4092TIP3    H212241   4.921   1.308   1.658  0.3478 -0.3804  0.6539
 4093TIP3   OH212242   3.089   0.501   5.361  0.2013 -0.9694 -0.5886
 4093TIP3    H112243   3.152   0.566   5.393  0.5388 -1.0789 -1.0232
 4093TIP3    H212244   3.010   0.551   5.344 -0.9171 -1.2556  2.8827
 4094TIP3   OH212245   1.155   2.265   5.117 -0.4828 -0.1922  0.0291
 4094TIP3    H112246   1.198   2.202   5.059  1.3385  1.5217 -0.6033
 4094TIP3    H212247   1.192   2.247   5.203 -0.5294 -0.4889 -0.0138
 4095TIP3   OH212248   6.540   2.717   5.039  0.2051  0.1685  0.0354
 4095TIP3    H112249   6.486   2.665   4.980  1.6334  0.6997 -1.8438
 4095TIP3    H212250   6.585   2.779   4.982  1.8941  0.5078  1.6437
 4096TIP3   OH212251   2.949   4.398   1.854 -0.0264  0.0148  0.5554
 4096TIP3    H112252   2.916   4.310   1.873  0.8013 -0.6685 -1.0093
 4096TIP3    H212253   3.036   4.384   1.815 -0.3610  1.4480 -0.8259
 4097TIP3   OH212254   5.129   6.438   5.535 -0.0879 -0.2402 -0.6443
 4097TIP3    H112255   5.074   6.491   5.592 -1.7593 -0.9157 -1.5583
 4097TIP3    H212256   5.102   6.463   5.446  1.2613 -0.4264 -1.1324
 4098TIP3   OH212257   6.867   2.745   4.806 -0.0505 -0.4520  0.0153
 4098TIP3    H112258   6.858   2.694   4.726 -3.3326 -1.7399  0.9937
 4098TIP3    H212259   6.944   2.708   4.850  1.8200  0.2994 -2.4189
 4099TIP3   OH212260   6.675   0.849   1.647  0.2730  0.1931  0.4161
 4099TIP3    H112261   6.590   0.839   1.605  0.9856  0.5960 -1.2189
 4099TIP3    H212262   6.734   0.875   1.576  1.5552  0.9257  1.6878
 4100TIP3   OH212263   4.323   5.511   4.807  0.0552  0.4102  0.7676
 4100TIP3    H112264   4.414   5.493   4.831  1.1663  2.3184 -1.5599
 4100TIP3    H212265   4.282   5.541   4.889  1.7913  0.4414  1.6747
 4101TIP3   OH212266   3.085   5.885   3.880  0.5683  1.0192 -0.1539
 4101TIP3    H112267   3.131   5.802   3.892  0.4376  1.0362  0.5027
 4101TIP3    H212268   3.057   5.910   3.968 -4.2227 -0.9662 -0.7987
 4102TIP3   OH212269   3.664   2.701   0.422  0.1185  0.6325  0.3869
 4102TIP3    H112270   3.644   2.630   0.482  0.7166  0.6102  0.5722
 4102TIP3    H212271   3.580   2.742   0.403 -0.3533 -0.6480 -0.3972
 4103TIP3   OH212272   3.937   4.506   4.716 -0.1879 -0.1772  0.0767
 4103TIP3    H112273   3.912   4.580   4.772  1.5407 -0.0207  0.6925
 4103TIP3    H212274   3.855   4.460   4.699 -1.1659  1.3567  0.4408
 4104TIP3   OH212275   3.171   6.105   4.112  0.3824 -0.3715  0.2624
 4104TIP3    H112276   3.189   6.177   4.173  0.9151  0.0761 -0.3995
 4104TIP3    H212277   3.080   6.119   4.086 -0.0796 -0.9837  1.4787
 4105TIP3   OH212278   0.799   6.446   5.212  0.2006  0.0132  0.7672
 4105TIP3    H112279   0.778   6.539   5.201  1.2962  0.4844  2.3582
 4105TIP3    H212280   0.793   6.431   5.306  1.3947 -1.1841  0.6750
 4106TIP3   OH212281   3.390   4.194   5.857  0.1808  0.7146 -0.0178
 4106TIP3    H112282   3.420   4.190   5.766  1.2175  1.0728  0.2956
 4106TIP3    H212283   3.355   4.283   5.867 -1.4916  0.1641 -0.5065
 4107TIP3   OH212284   1.820   4.994   0.725  0.1137  0.2633 -0.4177
 4107TIP3    H112285   1.797   5.040   0.806 -1.2878 -1.1544  0.0397
 4107TIP3    H212286   1.772   5.040   0.656 -0.1123  0.3855 -0.1777
 4108TIP3   OH212287   2.563   5.517   5.519 -0.4810  0.7262 -0.0496
 4108TIP3    H112288   2.583   5.605   5.551  1.2826  0.2260  0.3155
 4108TIP3    H212289   2.546   5.465   5.598 -2.9960  1.0078 -0.3137
 4109TIP3   OH212290   5.857   0.881   5.328  0.0296  0.1232 -0.6159
 4109TIP3    H112291   5.839   0.906   5.418  2.5004  0.9690 -0.3035
 4109TIP3    H212292   5.773   0.890   5.283 -1.1584  0.0466  1.4966
 4110TIP3   OH212293   5.960   3.003   1.794  0.9000  0.1122  0.1859
 4110TIP3    H112294   5.979   2.977   1.703  0.0374 -0.1722  0.0786
 4110TIP3    H212295   5.890   3.067   1.786 -0.5691 -1.3418  0.7337
 4111TIP3   OH212296   0.976   1.284   1.858 -0.1226 -0.1945 -0.9867
 4111TIP3    H112297   0.944   1.332   1.782  0.3243 -1.1315 -1.7965
 4111TIP3    H212298   1.028   1.348   1.907  0.2936  0.2149 -1.9280
 4112TIP3   OH212299   6.000   2.878   0.452  0.3658  0.4083  0.4617
 4112TIP3    H112300   6.034   2.940   0.516 -1.4433 -0.0573  1.9761
 4112TIP3    H212301   5.946   2.931   0.394  0.4596  0.5577  0.5112
 4113TIP3   OH212302   6.947   0.414   3.844 -0.0051  0.3131 -0.6876
 4113TIP3    H112303   7.000   0.356   3.788 -2.2751 -0.2970 -2.3751
 4113TIP3    H212304   7.004   0.489   3.862  2.7137 -1.8695  0.7463
 4114TIP3   OH212305   2.857   4.528   0.576  0.2576  0.4768 -0.1742
 4114TIP3    H112306   2.840   4.604   0.520 -0.3552  1.4377  1.2494
 4114TIP3    H212307   2.799   4.460   0.541 -0.7412  1.3122 -0.1972
 4115TIP3   OH212308   4.058   4.062   3.643  0.2485  0.0786 -0.4721
 4115TIP3    H112309   4.063   4.085   3.735  1.7201 -1.2439 -0.1853
 4115TIP3    H212310   4.057   4.147   3.597  0.1044  0.7358  0.6995
 4116TIP3   OH212311   0.094   4.421   5.262  0.1084 -0.4140 -0.6674
 4116TIP3    H112312   0.111   4.329   5.243  1.8032 -0.7862  2.1572
 4116TIP3    H212313   0.175   4.466   5.240 -0.1180  0.1202 -0.4362
 4117TIP3   OH212314   5.344   0.429   5.551 -0.3356 -0.2469  0.2279
 4117TIP3    H112315   5.253   0.461   5.548  0.1983  1.3397 -0.3295
 4117TIP3    H212316   5.395   0.507   5.574  1.1192 -0.5692 -1.7002
 4118TIP3   OH212317   2.786   0.398   0.303 -0.3964 -0.2012 -0.1024
 4118TIP3    H112318   2.707   0.344   0.300 -1.2337  1.0080 -0.2268
 4118TIP3    H212319   2.760   0.477   0.350  0.9704 -0.1394  0.5923
 4119TIP3   OH212320   5.197   4.871   5.859  0.0789 -0.1094 -0.2510
 4119TIP3    H112321   5.119   4.875   5.913  0.0876  0.8752 -0.2917
 4119TIP3    H212322   5.222   4.779   5.858  0.2415 -0.1170  1.6569
 4120TIP3   OH212323   6.415  -0.033   1.369 -0.1335  0.4867  0.3236
 4120TIP3    H112324   6.355   0.035   1.340 -0.4641  0.8969  1.8706
 4120TIP3    H212325   6.493   0.014   1.399  0.8477 -0.0208 -1.3428
 4121TIP3   OH212326   6.191   3.353   4.519  0.3323  0.3002  0.0426
 4121TIP3    H112327   6.107   3.307   4.527 -1.6076  3.2399 -1.4385
 4121TIP3    H212328   6.223   3.329   4.432  0.6813 -0.2505  0.3174
 4122TIP3   OH212329   2.720   3.262   5.901 -0.4847 -0.2855 -0.1754
 4122TIP3    H112330   2.803   3.278   5.856 -0.8120  0.1079 -0.6467
 4122TIP3    H212331   2.654   3.267   5.832 -0.7275 -2.5931 -0.1647
 4123TIP3   OH212332   2.096   3.412   1.813 -0.4788  0.5941  0.6737
 4123TIP3    H112333   2.104   3.334   1.868 -0.8162  0.5207  0.6212
 4123TIP3    H212334   2.070   3.378   1.727  0.5746  0.6614  0.3170
 4124TIP3   OH212335   5.271   0.777   0.639  0.1144  0.0135 -0.2496
 4124TIP3    H112336   5.264   0.762   0.733 -2.0654  1.3520 -0.1384
 4124TIP3    H212337   5.340   0.843   0.629  2.2950 -2.0882  0.1069
 4125TIP3   OH212338   4.121   3.722   4.340  0.2781  0.2650 -0.0007
 4125TIP3    H112339   4.143   3.782   4.268 -1.7377  0.8031 -0.2222
 4125TIP3    H212340   4.031   3.744   4.363 -0.1003 -1.8760  0.7498
 4126TIP3   OH212341   6.365   6.813   4.163  0.1576  0.0524  0.0204
 4126TIP3    H112342   6.360   6.719   4.149 -0.8564  0.0364  0.3718
 4126TIP3    H212343   6.277   6.845   4.144  0.4033  0.8813  0.2235
 4127TIP3   OH212344   6.033   3.465   1.349 -0.0751 -0.4633  0.1018
 4127TIP3    H112345   5.954   3.411   1.345  0.9688 -1.9596 -2.1976
 4127TIP3    H212346   6.023   3.514   1.431 -3.2012 -0.8030  0.0697
 4128TIP3   OH212347   3.969   6.512   2.334  0.1372  0.4305 -0.9029
 4128TIP3    H112348   3.875   6.517   2.351 -0.1979  1.6726 -2.8189
 4128TIP3    H212349   4.009   6.547   2.414 -1.1058  1.3852 -0.6598
 4129TIP3   OH212350   0.863   3.558   3.674 -0.0262  0.0523  0.3652
 4129TIP3    H112351   0.853   3.463   3.678 -0.7199  0.0559 -0.8905
 4129TIP3    H212352   0.775   3.591   3.661  0.6143  0.5226 -4.3150
 4130TIP3   OH212353   5.174   4.295   4.219  0.3533 -0.1186 -0.1336
 4130TIP3    H112354   5.203   4.280   4.129 -0.3110  1.1648 -0.5871
 4130TIP3    H212355   5.091   4.247   4.226  0.3557 -0.1362 -0.2288
 4131TIP3   OH212356   1.321   1.760   1.229  0.2774 -0.1153  0.2731
 4131TIP3    H112357   1.359   1.788   1.312  0.1402 -0.4498  0.4492
 4131TIP3    H212358   1.336   1.834   1.170 -1.0493  0.7730  1.0186
 4132TIP3   OH212359   2.469   5.838   2.803 -0.4689  0.0606 -0.3183
 4132TIP3    H112360   2.519   5.790   2.869 -0.7724  0.3193  0.1044
 4132TIP3    H212361   2.403   5.776   2.772  1.0806 -0.8229 -2.0363
 4133TIP3   OH212362   4.222   0.770   2.549  0.0931 -0.7219  0.6574
 4133TIP3    H112363   4.228   0.853   2.597 -0.8215 -0.5237  0.4397
 4133TIP3    H212364   4.281   0.711   2.597  1.3122  0.2318  0.4041
 4134TIP3   OH212365   6.766   3.925   0.968 -0.0946 -0.2938  0.1856
 4134TIP3    H112366   6.728   3.922   1.056 -0.4984 -1.3773 -0.0017
 4134TIP3    H212367   6.848   3.876   0.976 -0.2429 -0.5918 -0.0785
 4135TIP3   OH212368   2.360   6.261   2.502  0.4990  0.2452 -0.4518
 4135TIP3    H112369   2.350   6.340   2.449  0.1332  0.4428 -0.0954
 4135TIP3    H212370   2.312   6.280   2.582 -1.2204 -1.0508 -1.1122
 4136TIP3   OH212371   4.848   5.929   3.121 -0.3414 -0.3125 -0.2500
 4136TIP3    H112372   4.817   6.007   3.074 -1.3991 -0.6345 -0.1189
 4136TIP3    H212373   4.903   5.883   3.058  2.1435  1.6286  0.3614
 4137TIP3   OH212374   1.468   4.461   0.393 -0.0488  0.3395 -0.1412
 4137TIP3    H112375   1.425   4.403   0.455  0.5933 -1.1221 -1.0026
 4137TIP3    H212376   1.416   4.452   0.313  1.0217 -0.4001 -0.7834
 4138TIP3   OH212377   0.853   5.022   0.258 -0.1023 -0.0329 -0.2977
 4138TIP3    H112378   0.842   5.088   0.189  1.4075 -1.4219 -1.9703
 4138TIP3    H212379   0.883   5.071   0.334  0.2091  1.3227 -1.2576
 4139TIP3   OH212380   6.169   5.429   0.763  0.7390 -0.2327  0.3412
 4139TIP3    H112381   6.160   5.354   0.705 -1.5522  0.1929  0.0505
 4139TIP3    H212382   6.249   5.412   0.812  2.3209 -1.0029 -2.3297
 4140TIP3   OH212383   3.088   0.983   1.388  0.1647  0.5616  0.1104
 4140TIP3    H112384   3.157   0.979   1.454  1.6271 -2.4818 -1.4164
 4140TIP3    H212385   3.117   1.048   1.325  1.2137 -0.0102 -0.0121
 4141TIP3   OH212386   4.043   2.585  -0.004  0.1583 -0.7103  0.3013
 4141TIP3    H112387   3.973   2.551   0.052  0.6329 -1.4987  0.4326
 4141TIP3    H212388   4.113   2.609   0.056 -0.9305  2.6105  0.4389
 4142TIP3   OH212389   3.295   4.021   5.045 -0.5109  0.1360 -0.2720
 4142TIP3    H112390   3.347   4.102   5.040  0.2406 -0.4120 -2.5222
 4142TIP3    H212391   3.207   4.048   5.016 -0.7172  0.4486  0.5999
 4143TIP3   OH212392   7.198   3.832   0.119  0.2104  0.3220 -0.5453
 4143TIP3    H112393   7.270   3.891   0.094 -0.4424  0.3618 -2.5017
 4143TIP3    H212394   7.153   3.878   0.190  0.6612  1.4296 -0.9568
 4144TIP3   OH212395   2.133   0.782   2.913 -0.2234  0.1818  0.0159
 4144TIP3    H112396   2.123   0.695   2.872 -0.1370  0.7192 -1.1972
 4144TIP3    H212397   2.096   0.842   2.849  0.2487  1.1030  0.5931
 4145TIP3   OH212398   1.916   3.506   5.802  0.3141  0.2834 -0.0147
 4145TIP3    H112399   1.905   3.584   5.857 -1.5873 -0.8098  1.2746
 4145TIP3    H212400   1.846   3.513   5.737  1.8276  0.9719 -1.6235
 4146TIP3   OH212401   0.922   5.527   1.037 -0.0385  0.1512 -0.4637
 4146TIP3    H112402   0.990   5.520   1.104  0.7062 -0.3893 -1.2420
 4146TIP3    H212403   0.953   5.595   0.977 -0.5976  0.4914 -0.3782
 4147TIP3   OH212404   5.523   2.801   3.663 -0.4551  0.6112 -0.0302
 4147TIP3    H112405   5.580   2.753   3.603  0.5037 -0.2680  1.5099
 4147TIP3    H212406   5.577   2.816   3.740 -1.6724  1.6096  0.6652
 4148TIP3   OH212407   4.601   0.579   5.608 -0.3174 -0.1351 -0.1611
 4148TIP3    H112408   4.550   0.658   5.587 -0.0887 -0.0486 -0.3933
 4148TIP3    H212409   4.600   0.528   5.527  2.2971  1.1322 -1.1282
 4149TIP3   OH212410   6.582   5.134   0.430 -0.1913  0.2132 -0.7258
 4149TIP3    H112411   6.637   5.067   0.469 -3.0213 -0.8392  1.8569
 4149TIP3    H212412   6.503   5.087   0.402 -1.8452  2.2666  0.2304
 4150TIP3   OH212413   4.263   5.101   5.271  0.0933  0.2151  0.4313
 4150TIP3    H112414   4.282   5.083   5.363  1.6288 -0.1474  0.0660
 4150TIP3    H212415   4.235   5.017   5.235  0.4374  0.1365  0.3457
 4151TIP3   OH212416   1.571   5.754   4.346 -0.3554  0.3476 -0.1167
 4151TIP3    H112417   1.640   5.704   4.389  0.0162  0.2970 -0.7560
 4151TIP3    H212418   1.493   5.739   4.399  0.1521  0.5101  0.6885
 4152TIP3   OH212419   2.758   4.746   5.031 -0.7095  0.4062 -0.6021
 4152TIP3    H112420   2.817   4.757   5.106 -2.2843  0.5448  0.6834
 4152TIP3    H212421   2.736   4.652   5.032  0.9054 -0.0378 -2.2386
 4153TIP3   OH212422   0.016   5.244   4.405 -0.1337 -0.3799 -0.4452
 4153TIP3    H112423   0.090   5.214   4.457 -0.9453  0.2087  1.1199
 4153TIP3    H212424   0.055   5.288   4.329  1.1093 -0.3045  0.2240
 4154TIP3   OH212425   2.144   2.906   1.251 -0.2119 -0.4379  0.2300
 4154TIP3    H112426   2.217   2.940   1.303 -1.5152  0.3377  1.6406
 4154TIP3    H212427   2.178   2.903   1.161  0.7090  2.6160  0.3612
 4155TIP3   OH212428   0.810   5.322   0.368 -0.9624  0.0358  0.7785
 4155TIP3    H112429   0.886   5.286   0.413 -1.0066  0.2298  1.0089
 4155TIP3    H212430   0.743   5.328   0.436 -0.2471  2.7772  1.3263
 4156TIP3   OH212431   6.334   2.234   1.986 -0.3048  0.6166 -0.1876
 4156TIP3    H112432   6.409   2.175   1.996 -0.5855  0.0927 -1.0578
 4156TIP3    H212433   6.262   2.176   1.960 -0.9637  1.1414  0.4484
 4157TIP3   OH212434   4.996   4.331   1.621 -0.0266  0.3896  0.0916
 4157TIP3    H112435   4.975   4.424   1.612 -0.1565  0.4137  0.5966
 4157TIP3    H212436   4.921   4.294   1.667  0.9544  0.4611  1.8622
 4158TIP3   OH212437   3.243   5.691   0.731 -0.3245 -0.2506  0.2843
 4158TIP3    H112438   3.249   5.671   0.824 -1.0093  0.3108  0.4574
 4158TIP3    H212439   3.215   5.609   0.690  1.3164 -0.8883  0.3755
 4159TIP3   OH212440   4.335   2.012   1.254  0.3664  0.4625 -0.3494
 4159TIP3    H112441   4.335   1.936   1.196  0.9069 -0.1917  0.4903
 4159TIP3    H212442   4.365   1.979   1.339  0.1952  1.5226  0.1525
 4160TIP3   OH212443   4.605   2.636   3.123  0.8056  0.0716 -0.2666
 4160TIP3    H112444   4.656   2.583   3.062 -1.1584 -1.4602 -0.6638
 4160TIP3    H212445   4.530   2.582   3.146 -0.2887  1.9395  0.8710
 4161TIP3   OH212446   4.522   1.674   4.953 -0.0580  0.6610 -0.3819
 4161TIP3    H112447   4.595   1.615   4.937 -2.6288 -2.9165 -0.1093
 4161TIP3    H212448   4.543   1.717   5.035  1.3907 -0.9043  0.1207
 4162TIP3   OH212449   6.306   0.514   5.820  0.1450  0.2900 -0.0023
 4162TIP3    H112450   6.263   0.554   5.744 -1.1697  0.0202  0.5673
 4162TIP3    H212451   6.319   0.586   5.881  0.4357  0.3575 -0.1430
 4163TIP3   OH212452   5.090   3.650   1.818  0.3982  0.1986  0.4712
 4163TIP3    H112453   5.043   3.582   1.771 -0.8697  0.0207  1.9181
 4163TIP3    H212454   5.152   3.602   1.874  0.3402  0.2932  0.6177
 4164TIP3   OH212455   0.543   5.437   1.198  0.0642  0.0809  0.1310
 4164TIP3    H112456   0.493   5.517   1.215 -3.2367 -1.7536 -0.1101
 4164TIP3    H212457   0.591   5.456   1.118 -2.1994  1.2414 -1.0558
 4165TIP3   OH212458   4.949   5.326   3.065 -0.2412  0.0181  0.2240
 4165TIP3    H112459   4.917   5.401   3.016  0.5813  1.4781  1.8455
 4165TIP3    H212460   4.906   5.331   3.150  0.7882 -0.5871  0.8079
 4166TIP3   OH212461   5.228   4.385   2.102  0.2914 -0.1373  0.0472
 4166TIP3    H112462   5.215   4.366   2.009 -0.2503 -1.9695  0.4677
 4166TIP3    H212463   5.140   4.382   2.139  0.5785 -0.0536  0.7459
 4167TIP3   OH212464   0.442   0.323   3.364  0.4777 -0.4823  0.6500
 4167TIP3    H112465   0.405   0.334   3.452  1.7856 -0.4326  1.2209
 4167TIP3    H212466   0.417   0.403   3.317 -0.8794 -0.8378  0.7075
 4168TIP3   OH212467   5.211   2.417   0.539  0.0906 -0.0074  0.3508
 4168TIP3    H112468   5.252   2.423   0.453  0.7365  1.2950  0.7318
 4168TIP3    H212469   5.117   2.415   0.520  0.2503 -0.8625 -0.4200
 4169TIP3   OH212470   6.507   4.703   0.178 -0.0627 -0.1544  0.6106
 4169TIP3    H112471   6.543   4.790   0.194  1.9374 -0.9967  1.0644
 4169TIP3    H212472   6.476   4.706   0.088 -0.0756  1.0392  0.6375
 4170TIP3   OH212473   4.705   1.032   1.380  0.3486  0.1782 -0.3321
 4170TIP3    H112474   4.746   0.953   1.345  0.9352  0.0606  0.5940
 4170TIP3    H212475   4.712   1.023   1.475  0.1266  1.1907 -0.2055
 4171TIP3   OH212476   2.191   0.179   5.101 -0.1984  0.5654 -0.0008
 4171TIP3    H112477   2.215   0.168   5.010  1.2480  2.0292  0.1583
 4171TIP3    H212478   2.264   0.226   5.140 -0.0222 -1.4356  2.3286
 4172TIP3   OH212479   6.437   1.555   2.740  0.0664 -0.0885 -0.0425
 4172TIP3    H112480   6.396   1.585   2.658 -1.1365 -0.2382  0.4823
 4172TIP3    H212481   6.370   1.570   2.807  1.2758  0.6730  1.0524
 4173TIP3   OH212482   2.992   3.844   3.648  0.7682 -0.8328 -0.2302
 4173TIP3    H112483   2.967   3.890   3.729 -1.4092 -1.4218 -0.4938
 4173TIP3    H212484   2.994   3.912   3.581 -0.2530 -0.7460 -0.1939
 4174TIP3   OH212485   4.814   2.494   4.025  0.1595 -0.4341  0.0212
 4174TIP3    H112486   4.781   2.584   4.018 -0.2109 -0.6702 -1.6121
 4174TIP3    H212487   4.773   2.459   4.105  0.5731  0.9335  0.8684
 4175TIP3   OH212488   4.799   2.392   4.865 -0.1025 -0.6277 -0.0447
 4175TIP3    H112489   4.859   2.354   4.801 -0.7676 -0.2627 -0.9065
 4175TIP3    H212490   4.855   2.443   4.923  0.3644  0.5628 -1.4532
 4176TIP3   OH212491   1.596   3.225   4.535 -0.5338 -0.3631  0.2511
 4176TIP3    H112492   1.625   3.313   4.512 -1.3771 -0.1128  0.1102
 4176TIP3    H212493   1.676   3.173   4.537  0.0412  0.5188  0.8553
 4177TIP3   OH212494   6.071   5.875   4.161 -0.0158  0.1896  0.1745
 4177TIP3    H112495   5.993   5.930   4.173  0.1192  0.3379  0.3800
 4177TIP3    H212496   6.047   5.814   4.092 -0.4177  0.0499  0.4311
 4178TIP3   OH212497   4.187   1.313   3.877  0.4972 -0.0717  0.4560
 4178TIP3    H112498   4.244   1.381   3.841 -0.8567  1.0915  0.4584
 4178TIP3    H212499   4.108   1.359   3.904  0.1905 -1.4099  1.9745
 4179TIP3   OH212500   2.954   5.693   4.646  0.2904 -0.1038  0.5846
 4179TIP3    H112501   2.976   5.626   4.711  0.6244  0.2121  0.7989
 4179TIP3    H212502   2.955   5.645   4.563  0.6334 -0.3488  0.7242
 4180TIP3   OH212503   0.409   6.787   2.097 -0.6926  0.5358  0.5299
 4180TIP3    H112504   0.468   6.712   2.089  0.0587  1.2864 -2.4326
 4180TIP3    H212505   0.322   6.749   2.103 -0.1945 -0.5843  0.8694
 4181TIP3   OH212506   3.295   0.639   0.847  0.0904  0.2883  0.0255
 4181TIP3    H112507   3.362   0.643   0.915 -0.1176 -0.1071  0.2575
 4181TIP3    H212508   3.222   0.689   0.882 -0.7202 -1.4201  0.9041
 4182TIP3   OH212509   7.152   0.700   4.985 -0.0180  0.0585 -0.0396
 4182TIP3    H112510   7.146   0.606   4.969 -0.1761 -0.0351  0.5547
 4182TIP3    H212511   7.077   0.720   5.040 -0.9209  0.8360 -1.4853
 4183TIP3   OH212512   1.666   4.071   4.089  0.1840  0.4164  0.0555
 4183TIP3    H112513   1.601   4.044   4.024  2.1011 -0.6155 -1.5437
 4183TIP3    H212514   1.672   4.166   4.080 -0.0118  0.3496 -0.8422
 4184TIP3   OH212515   4.360   5.111   1.344 -0.2947 -0.0620  0.0705
 4184TIP3    H112516   4.394   5.126   1.432  1.0491  0.5700 -0.5136
 4184TIP3    H212517   4.349   5.199   1.307 -3.2621 -0.2104  0.4271
 4185TIP3   OH212518   7.210   1.820   0.423 -0.5219  0.4040 -0.0278
 4185TIP3    H112519   7.153   1.764   0.371  0.6140 -0.6439 -0.1871
 4185TIP3    H212520   7.177   1.810   0.513 -0.8417  0.1380 -0.1699
 4186TIP3   OH212521   6.462   1.504   3.469  0.2519  0.9337  0.3992
 4186TIP3    H112522   6.497   1.441   3.406  1.3454 -1.3763  3.1213
 4186TIP3    H212523   6.383   1.462   3.503  0.1186  1.7699  1.1590
 4187TIP3   OH212524   1.245   0.439   0.624 -0.1828 -0.1637  0.7350
 4187TIP3    H112525   1.150   0.426   0.619 -0.2119  0.1546  0.4004
 4187TIP3    H212526   1.282   0.365   0.576 -0.3033  0.2939 -0.0862
 4188TIP3   OH212527   0.701   0.413   5.622  0.0716  0.0867  0.2036
 4188TIP3    H112528   0.748   0.330   5.622  0.1308  0.0825  2.4493
 4188TIP3    H212529   0.615   0.391   5.586  0.8291 -0.4449 -1.3692
 4189TIP3   OH212530   4.233   0.794   1.150  0.2744  0.1183  0.9051
 4189TIP3    H112531   4.299   0.770   1.084  0.0947 -1.1845  1.1753
 4189TIP3    H212532   4.237   0.889   1.153  1.2820  0.1315  0.0249
 4190TIP3   OH212533   0.465   2.654   5.202 -0.2892 -0.3316  0.3600
 4190TIP3    H112534   0.540   2.693   5.156 -0.3639 -2.1129 -1.4192
 4190TIP3    H212535   0.391   2.671   5.143 -1.0258  0.0976  1.3857
 4191TIP3   OH212536   0.706   5.409   1.768 -0.5399  0.0830  0.6050
 4191TIP3    H112537   0.738   5.379   1.853 -0.1790 -0.0840  0.4102
 4191TIP3    H212538   0.621   5.449   1.787 -0.4133  0.1344  1.0566
 4192TIP3   OH212539   6.305   3.115   4.979 -0.4533  0.4829 -0.2601
 4192TIP3    H112540   6.295   3.040   4.921  0.4705  1.0875 -1.2456
 4192TIP3    H212541   6.225   3.116   5.032 -0.5224 -1.1078 -0.3039
 4193TIP3   OH212542   5.263   4.045   5.658 -0.2272 -0.1058 -0.4820
 4193TIP3    H112543   5.323   3.972   5.672  1.3535  1.3918  1.0380
 4193TIP3    H212544   5.216   4.022   5.578  3.3005 -0.7705 -2.5757
 4194TIP3   OH212545   0.670   4.956   0.480  0.3922  0.1602 -0.3642
 4194TIP3    H112546   0.720   4.995   0.409  2.4454  0.0179  0.9153
 4194TIP3    H212547   0.731   4.897   0.523 -0.8396  0.0619  1.3812
 4195TIP3   OH212548   3.522   3.732   2.101  0.2839  0.4922 -0.0582
 4195TIP3    H112549   3.526   3.649   2.054 -0.0695  0.2486  0.3315
 4195TIP3    H212550   3.601   3.733   2.155 -0.3479 -0.1972  0.9131
 4196TIP3   OH212551   5.844   5.532   2.842  0.4223  0.1494 -0.1983
 4196TIP3    H112552   5.814   5.574   2.923  0.6066 -1.6780  0.8729
 4196TIP3    H212553   5.907   5.466   2.871 -0.7011 -1.6562 -1.6717
 4197TIP3   OH212554   5.882   2.383   3.954  0.5256  0.0738 -0.7732
 4197TIP3    H112555   5.898   2.323   4.026  0.6260  1.3637  0.3249
 4197TIP3    H212556   5.815   2.340   3.901  1.3373 -1.4466 -0.6006
 4198TIP3   OH212557   1.410   4.536   2.251  0.6335 -0.4808 -0.4080
 4198TIP3    H112558   1.445   4.454   2.216  2.1717  0.9634 -2.5473
 4198TIP3    H212559   1.483   4.597   2.247 -1.0616  1.6306 -1.2189
 4199TIP3   OH212560   0.334   2.066   5.586  0.0544  0.5113  0.0298
 4199TIP3    H112561   0.309   1.986   5.539  0.7215  0.2640  0.0985
 4199TIP3    H212562   0.354   2.037   5.675  0.0325  0.7982  0.1295
 4200TIP3   OH212563   1.195   0.980   4.070 -0.0912 -0.0348  0.1875
 4200TIP3    H112564   1.138   1.022   4.006 -0.1313 -0.0649  0.2033
 4200TIP3    H212565   1.281   1.022   4.058  0.4513 -1.4896 -1.3176
 4201TIP3   OH212566   6.323   5.431   3.573  0.0660 -0.3947  0.1609
 4201TIP3    H112567   6.302   5.355   3.519 -2.5769 -1.0564  1.9451
 4201TIP3    H212568   6.407   5.410   3.613 -0.0787 -1.8740 -0.2578
 4202TIP3   OH212569   2.168   0.657   2.310 -1.0574  0.1088 -0.0718
 4202TIP3    H112570   2.150   0.751   2.303 -2.2105 -0.1160 -0.2440
 4202TIP3    H212571   2.264   0.651   2.308 -0.8754  1.4382  1.8961
 4203TIP3   OH212572   3.882   6.108   4.577  0.7767  0.0278  0.1045
 4203TIP3    H112573   3.966   6.154   4.568 -0.1950  1.6928 -0.9510
 4203TIP3    H212574   3.817   6.169   4.542 -0.5295 -2.4507 -2.0904
 4204TIP3   OH212575   2.924   1.941   2.292 -0.0148 -0.3142  0.0780
 4204TIP3    H112576   2.937   1.899   2.377  0.2065  0.2642  0.3348
 4204TIP3    H212577   3.012   1.962   2.261 -0.1659  1.4586  0.7233
 4205TIP3   OH212578   5.069   6.627   1.792  0.2614  0.0672  0.1398
 4205TIP3    H112579   5.088   6.714   1.828 -1.3177  0.3487  0.3710
 4205TIP3    H212580   5.042   6.575   1.868  0.6234 -0.4593 -0.0876
 4206TIP3   OH212581   5.544   2.175   2.797 -0.3013 -0.1866 -0.8748
 4206TIP3    H112582   5.555   2.167   2.892 -0.9404  0.1150 -0.7690
 4206TIP3    H212583   5.530   2.269   2.783  2.1625  0.1562 -1.5338
 4207TIP3   OH212584   5.988   2.735   0.763  0.0991  0.3113  1.0169
 4207TIP3    H112585   6.003   2.675   0.690 -1.0737  1.2671 -0.0413
 4207TIP3    H212586   5.893   2.741   0.770  0.1998  1.7961  1.3167
 4208TIP3   OH212587   1.086   4.519   2.504  0.3521 -0.5328  0.5487
 4208TIP3    H112588   1.005   4.569   2.495  0.8116  0.2995  0.9251
 4208TIP3    H212589   1.147   4.581   2.544  1.0618 -1.2691  0.6081
 4209TIP3   OH212590   6.063   4.339   3.238 -0.1625 -0.3337  0.0005
 4209TIP3    H112591   6.069   4.415   3.180 -0.6631 -0.3606 -0.0884
 4209TIP3    H212592   6.147   4.294   3.228 -0.5605 -0.8289 -1.3966
 4210TIP3   OH212593   3.836   5.974   4.248 -0.0633  0.0781  0.1892
 4210TIP3    H112594   3.833   5.885   4.281 -0.1605 -0.0366 -0.1342
 4210TIP3    H212595   3.815   5.967   4.155 -0.3336  0.4671  0.2175
 4211TIP3   OH212596   2.721   5.097   1.520 -0.2634  0.0227 -0.3966
 4211TIP3    H112597   2.736   5.011   1.560 -3.2030 -0.2205  0.3826
 4211TIP3    H212598   2.790   5.105   1.454  1.3403 -2.0063  0.9229
 4212TIP3   OH212599   5.039   5.307   4.127  0.2258 -0.0722  0.2217
 4212TIP3    H112600   4.989   5.237   4.169  0.3700  0.0655  0.6361
 4212TIP3    H212601   4.973   5.362   4.085  0.1140 -0.4734 -0.1347
 4213TIP3   OH212602   2.230   2.555   2.240 -0.1334 -0.3560 -0.0947
 4213TIP3    H112603   2.204   2.647   2.239 -0.1007 -0.3130 -2.1943
 4213TIP3    H212604   2.205   2.523   2.327 -2.6067  0.9425 -0.2609
 4214TIP3   OH212605   3.933   1.647   2.904  0.2996 -0.1635  0.3720
 4214TIP3    H112606   3.906   1.713   2.967  0.6414  2.0408 -1.6523
 4214TIP3    H212607   4.011   1.684   2.862  1.7713 -2.8151  0.5511
 4215TIP3   OH212608   4.275   6.429   0.721 -0.5100  0.0088  0.3727
 4215TIP3    H112609   4.360   6.407   0.682 -0.3934 -1.1448  1.2157
 4215TIP3    H212610   4.273   6.378   0.802 -1.1940  1.5190  1.3361
 4216TIP3   OH212611   3.886   5.383   3.091 -0.5479 -0.9302  0.6719
 4216TIP3    H112612   3.931   5.361   3.010 -1.0374  0.2393  0.0574
 4216TIP3    H212613   3.895   5.304   3.145 -0.1560 -1.7141 -0.4816
 4217TIP3   OH212614   3.116   6.291   0.819 -0.1120 -0.0289 -0.0376
 4217TIP3    H112615   3.177   6.220   0.840  0.0827  0.1444 -0.0105
 4217TIP3    H212616   3.135   6.359   0.884  0.0050  0.2246 -0.3368
 4218TIP3   OH212617   6.457   0.520   3.250 -0.5041 -0.0129  0.5852
 4218TIP3    H112618   6.513   0.457   3.296  0.4213  1.6781  1.9028
 4218TIP3    H212619   6.374   0.474   3.240  1.0702 -2.6923 -1.6381
 4219TIP3   OH212620   1.885   6.296   1.389  0.4077 -0.6053 -0.1860
 4219TIP3    H112621   1.939   6.370   1.360  0.9873 -1.2801 -0.9078
 4219TIP3    H212622   1.869   6.246   1.308 -0.6276 -0.8461  0.1629
 4220TIP3   OH212623   2.508   3.205   0.985 -0.2519 -0.6730 -0.0366
 4220TIP3    H112624   2.454   3.218   0.907  1.0068 -0.0997 -0.8383
 4220TIP3    H212625   2.573   3.140   0.959  0.4101 -0.1991  0.4129
 4221TIP3   OH212626   2.555   2.506   5.208 -0.1391  0.0446  0.0850
 4221TIP3    H112627   2.627   2.568   5.221 -0.3429  1.0532 -2.8944
 4221TIP3    H212628   2.478   2.561   5.195 -0.9010 -0.9411  0.3256
 4222TIP3   OH212629   7.028   3.576   1.570 -0.1244 -0.2980  0.0881
 4222TIP3    H112630   7.031   3.662   1.528 -1.6090  0.1410  0.8323
 4222TIP3    H212631   7.047   3.515   1.499  0.0067  0.5759 -0.6597
 4223TIP3   OH212632   0.295   1.574   0.465 -0.7795 -0.2908 -0.5253
 4223TIP3    H112633   0.273   1.649   0.521  0.6341  0.5661 -1.0571
 4223TIP3    H212634   0.324   1.614   0.383 -0.8543 -1.4689 -1.1360
 4224TIP3   OH212635   7.152   3.229   2.833  0.3217 -0.0024  0.3258
 4224TIP3    H112636   7.130   3.155   2.891 -0.2771  0.8280  1.1941
 4224TIP3    H212637   7.172   3.301   2.893  1.2679  0.4454 -0.5116
 4225TIP3   OH212638   6.601   4.089   2.026  0.0473 -0.1625 -0.0318
 4225TIP3    H112639   6.689   4.053   2.033  0.2312  0.1475 -0.6857
 4225TIP3    H212640   6.605   4.148   1.951 -0.8946 -0.6616 -0.4932
 4226TIP3   OH212641   7.164   0.112   5.150 -0.0567  0.4155 -0.4851
 4226TIP3    H112642   7.258   0.122   5.139  0.2143 -0.7112  0.5533
 4226TIP3    H212643   7.133   0.079   5.066  0.3908  1.2448 -0.9816
 4227TIP3   OH212644   2.962   5.689   3.082 -0.3479  0.0274 -0.4275
 4227TIP3    H112645   2.923   5.776   3.093  0.5498  0.3325  0.5029
 4227TIP3    H212646   2.964   5.676   2.988  0.1398  1.3228 -0.6224
 4228TIP3   OH212647   6.820   1.835   2.904  0.0831 -0.3687 -0.1505
 4228TIP3    H112648   6.859   1.748   2.917 -0.6281 -0.5161  1.1896
 4228TIP3    H212649   6.732   1.826   2.940 -0.5392  0.4773 -1.4459
 4229TIP3   OH212650   0.279   0.203   1.349 -0.0844  0.1302  0.3693
 4229TIP3    H112651   0.248   0.166   1.266 -1.6141  2.6504 -0.2756
 4229TIP3    H212652   0.346   0.266   1.323  0.7623 -0.4006  1.2367
 4230TIP3   OH212653   1.822   4.556   2.815  0.0617  0.2597  0.7018
 4230TIP3    H112654   1.772   4.474   2.811  0.7342 -0.1575  0.6360
 4230TIP3    H212655   1.761   4.620   2.851 -0.3181 -0.3941  1.2471
 4231TIP3   OH212656   0.183   5.012   1.618 -0.4931  0.0330 -0.0718
 4231TIP3    H112657   0.154   4.962   1.694 -1.9103  0.9236  0.0010
 4231TIP3    H212658   0.142   4.969   1.543  0.5906 -0.6064 -0.3332
 4232TIP3   OH212659   6.916   0.330   2.320  0.0559  0.1480 -0.2061
 4232TIP3    H112660   6.859   0.407   2.331  0.7796  0.6383  0.2372
 4232TIP3    H212661   6.856   0.258   2.300 -0.9613  0.1959  2.2902
 4233TIP3   OH212662   6.195   5.238   0.565  0.0406  0.5356 -0.1827
 4233TIP3    H112663   6.290   5.247   0.572  0.2540 -1.2392 -0.4356
 4233TIP3    H212664   6.179   5.224   0.471 -0.4424  0.5026 -0.1010
 4234TIP3   OH212665   3.898   6.315   5.294 -0.2500  0.1203 -0.6482
 4234TIP3    H112666   3.940   6.393   5.330  1.4865 -1.4904  1.0237
 4234TIP3    H212667   3.952   6.291   5.220 -1.3489  0.9925 -1.7771
 4235TIP3   OH212668   0.043   0.845   2.037 -0.4530  0.0044 -0.1176
 4235TIP3    H112669  -0.011   0.790   2.093  2.5456 -2.0910  0.9792
 4235TIP3    H212670   0.063   0.922   2.090 -1.4515  0.2980 -0.1510
 4236TIP3   OH212671   5.847   4.481   1.164 -0.6411  0.3205  0.1329
 4236TIP3    H112672   5.831   4.508   1.255  1.6815  3.7714 -0.2724
 4236TIP3    H212673   5.767   4.505   1.118 -0.4898  2.1679  0.7236
 4237TIP3   OH212674   2.052   4.875   4.724  0.7570  0.4122 -0.6562
 4237TIP3    H112675   1.988   4.941   4.752  1.1006  0.6079 -0.3251
 4237TIP3    H212676   2.025   4.851   4.635  0.6093  0.9721 -0.7633
 4238TIP3   OH212677   1.425   3.034   3.450  0.1169 -0.0111 -0.1821
 4238TIP3    H112678   1.333   3.050   3.429  0.2681 -1.1838 -1.9486
 4238TIP3    H212679   1.423   2.959   3.511 -0.1378  1.0341  1.1503
 4239TIP3   OH212680   4.904   4.861   4.259  0.0210 -0.4149 -0.2570
 4239TIP3    H112681   4.940   4.785   4.212  0.0755 -0.9616  0.6394
 4239TIP3    H212682   4.813   4.866   4.230  0.1670 -0.4869 -0.7385
 4240TIP3   OH212683   3.187   1.693   4.539  0.1335  0.0857 -0.0292
 4240TIP3    H112684   3.156   1.620   4.594  0.1943 -0.4788 -0.7173
 4240TIP3    H212685   3.146   1.770   4.577 -1.5887 -0.5573 -0.4795
 4241TIP3   OH212686   2.998   6.612   0.037  0.2646  0.1135  0.5449
 4241TIP3    H112687   2.943   6.542   0.002  0.2112  0.0842  0.6857
 4241TIP3    H212688   3.087   6.582   0.023  0.2530  0.3010  0.0310
 4242TIP3   OH212689   2.504   0.576   2.499  0.1879 -0.1539 -0.0692
 4242TIP3    H112690   2.598   0.568   2.484  0.6436 -0.1649  2.3804
 4242TIP3    H212691   2.468   0.598   2.413  2.0512 -2.8708 -1.7114
 4243TIP3   OH212692   6.028   0.818   0.616 -0.0270  0.2184 -0.4067
 4243TIP3    H112693   5.969   0.784   0.548  0.1988 -1.3041  0.1035
 4243TIP3    H212694   6.037   0.911   0.597  0.5846 -0.2823 -2.8790
 4244TIP3   OH212695   0.064   4.983   0.115  0.9191 -0.0377  0.5054
 4244TIP3    H112696   0.139   5.016   0.065  0.2511 -0.6204 -0.9392
 4244TIP3    H212697   0.087   4.892   0.135  0.7991 -0.0778  0.4619
 4245TIP3   OH212698   0.544   3.752   3.812  0.6006  0.1406  0.1477
 4245TIP3    H112699   0.575   3.805   3.886 -0.7299 -1.5785  2.0575
 4245TIP3    H212700   0.513   3.816   3.748  0.7993  1.6825  1.5207
 4246TIP3   OH212701   3.539   0.040   4.631 -0.1307 -0.3975 -0.3038
 4246TIP3    H112702   3.480  -0.022   4.587 -2.6099  1.7096 -0.1789
 4246TIP3    H212703   3.563   0.102   4.562  0.8715 -0.4350 -0.0076
 4247TIP3   OH212704   5.729   6.545   4.876 -0.4170  0.1421  1.1371
 4247TIP3    H112705   5.786   6.474   4.905 -1.6178 -0.8073  1.2678
 4247TIP3    H212706   5.646   6.529   4.921 -1.7118 -0.1790 -1.2029
 4248TIP3   OH212707   5.505   5.534   0.360  0.0060  0.2306  0.0870
 4248TIP3    H112708   5.571   5.602   0.346 -1.0679  1.2368 -0.2775
 4248TIP3    H212709   5.461   5.526   0.275 -1.6821  1.0704  0.8360
 4249TIP3   OH212710   2.032   4.482   2.966  0.4238  0.0254 -0.4194
 4249TIP3    H112711   1.978   4.486   3.044  1.4250 -1.3784  0.4020
 4249TIP3    H212712   1.977   4.517   2.896 -1.0918 -0.2598  0.5928
 4250TIP3   OH212713   2.102   1.109   3.859 -0.6025  0.1277  0.4583
 4250TIP3    H112714   2.185   1.098   3.813  0.4286  0.5066  2.1554
 4250TIP3    H212715   2.036   1.110   3.789  0.8902  0.8691 -1.0133
 4251TIP3   OH212716   0.638   4.423   4.547 -0.3939  0.3425  0.2787
 4251TIP3    H112717   0.679   4.470   4.620 -0.8401  0.5781  0.3846
 4251TIP3    H212718   0.544   4.432   4.563 -0.5027 -1.4476  0.8543
 4252TIP3   OH212719   1.334   5.866   2.391  0.6517 -0.1473 -0.1069
 4252TIP3    H112720   1.313   5.879   2.483  1.5089 -1.9156  0.3945
 4252TIP3    H212721   1.260   5.903   2.343  0.0545  0.5299  1.2863
 4253TIP3   OH212722   4.837   4.100   1.438  0.1579 -0.3286 -0.7136
 4253TIP3    H112723   4.835   4.189   1.404 -0.2594  0.3295  0.9448
 4253TIP3    H212724   4.813   4.045   1.363 -0.3270  1.0061 -1.5736
 4254TIP3   OH212725   3.449   3.871   5.231  0.0590  0.5195  0.6999
 4254TIP3    H112726   3.380   3.887   5.167  0.3844  1.1064  0.4877
 4254TIP3    H212727   3.405   3.870   5.315 -0.2710  0.4705  0.5257
 4255TIP3   OH212728   3.961   1.968   1.250  0.3140  0.1117  0.2922
 4255TIP3    H112729   3.930   2.014   1.172 -1.1666 -0.4090  0.5373
 4255TIP3    H212730   3.941   2.027   1.322  0.3732 -0.0135  0.4124
 4256TIP3   OH212731   0.804   5.287   3.509 -0.2319 -0.7349  0.0075
 4256TIP3    H112732   0.790   5.249   3.422  1.2048 -2.0807  0.3217
 4256TIP3    H212733   0.849   5.219   3.558 -2.4733 -0.6374  2.3804
 4257TIP3   OH212734   0.450   4.783   0.561 -0.2293  0.3086 -0.0621
 4257TIP3    H112735   0.521   4.836   0.524  1.3264 -2.7739 -1.8634
 4257TIP3    H212736   0.495   4.711   0.606 -2.2123 -0.7083  0.4093
 4258TIP3   OH212737   4.133   1.493   1.341  0.2886 -0.6182  0.2853
 4258TIP3    H112738   4.166   1.479   1.430  0.2440 -1.8001  0.1295
 4258TIP3    H212739   4.143   1.588   1.326  0.5213 -0.4478  1.4496
 4259TIP3   OH212740   6.858   2.931   4.101 -0.0351  0.2320 -0.5829
 4259TIP3    H112741   6.832   2.848   4.141 -1.5013 -0.4132 -2.7194
 4259TIP3    H212742   6.941   2.911   4.058  0.5215  0.3908  0.3861
 4260TIP3   OH212743   0.084   3.411   0.804  0.0458 -0.5977 -0.2194
 4260TIP3    H112744   0.133   3.453   0.874 -0.2384 -0.2899 -0.2051
 4260TIP3    H212745   0.080   3.319   0.830 -0.4771 -0.4020  0.4178
 4261TIP3   OH212746   0.107   6.236   3.013  0.2613 -0.0647 -0.7522
 4261TIP3    H112747   0.103   6.327   2.984  1.5535  0.0771 -0.5417
 4261TIP3    H212748   0.020   6.218   3.046 -0.5478  0.5428 -2.4135
 4262TIP3   OH212749   5.474   5.802   0.582  0.1276  0.2218 -0.9122
 4262TIP3    H112750   5.526   5.861   0.526 -1.8906  1.3721 -1.6711
 4262TIP3    H212751   5.425   5.748   0.520 -1.2624  0.7149 -0.2814
 4263TIP3   OH212752   1.005   0.235   0.233 -0.1894 -0.0740  0.0727
 4263TIP3    H112753   1.089   0.240   0.187  0.3306  1.1439  1.0847
 4263TIP3    H212754   0.998   0.143   0.260 -0.5113 -0.8309 -2.3514
 4264TIP3   OH212755   1.851   0.008   1.496 -0.2177  0.0259  0.1017
 4264TIP3    H112756   1.769  -0.040   1.492 -0.1598  0.0156 -1.5856
 4264TIP3    H212757   1.827   0.095   1.528 -0.7858 -0.1608  0.1791
 4265TIP3   OH212758   5.968   6.523   0.638  0.2307 -0.0594  0.2872
 4265TIP3    H112759   5.990   6.511   0.730  1.5740  0.9966  0.1332
 4265TIP3    H212760   5.951   6.434   0.606 -1.1144 -0.3716  1.7233
 4266TIP3   OH212761   3.491   6.706   0.965 -0.8114 -0.2486  0.0382
 4266TIP3    H112762   3.572   6.656   0.972 -1.6825 -1.7063  0.1785
 4266TIP3    H212763   3.427   6.656   1.016 -1.9282  0.5993 -0.4678
 4267TIP3   OH212764   4.443   6.408   5.504 -0.1466  0.0904 -0.2014
 4267TIP3    H112765   4.398   6.439   5.426 -0.0991  0.9508  0.1018
 4267TIP3    H212766   4.530   6.448   5.499 -0.1834  0.2507  0.3407
 4268TIP3   OH212767   2.216   1.127   4.365  0.4471  0.2909 -0.2717
 4268TIP3    H112768   2.205   1.066   4.292 -0.6351  0.5150 -0.3121
 4268TIP3    H212769   2.180   1.210   4.332  1.3815  0.8101 -0.0211
 4269TIP3   OH212770   4.232   0.893   5.338 -0.4076  0.7773  0.2060
 4269TIP3    H112771   4.204   0.961   5.277  0.1642  1.3946  0.6079
 4269TIP3    H212772   4.154   0.874   5.390 -1.5904 -1.4406 -2.1831
 4270TIP3   OH212773   4.321   1.495   4.987 -0.5957 -0.3501 -0.1440
 4270TIP3    H112774   4.357   1.584   4.989 -2.0749  0.3386 -1.5519
 4270TIP3    H212775   4.236   1.505   4.942 -0.8962 -2.4376 -0.1189
 4271TIP3   OH212776   2.352   5.105   5.212 -0.5665  0.6125 -0.0591
 4271TIP3    H112777   2.317   5.192   5.196  0.5630  1.0563 -0.2195
 4271TIP3    H212778   2.446   5.113   5.195 -0.8192 -1.4098 -3.4658
 4272TIP3   OH212779   1.316   3.218   4.595  0.7055  0.0298  0.6082
 4272TIP3    H112780   1.303   3.149   4.660  1.0442  0.1393  0.7930
 4272TIP3    H212781   1.410   3.217   4.578  0.7840  0.7493  0.9512
 4273TIP3   OH212782   3.842   2.431   5.330  0.3059  0.0480  0.0178
 4273TIP3    H112783   3.783   2.389   5.392 -0.6294 -0.9544 -1.4886
 4273TIP3    H212784   3.919   2.373   5.327 -0.8368 -1.4684 -1.8005
 4274TIP3   OH212785   6.556   3.230   0.706  0.5335 -0.0300 -0.8552
 4274TIP3    H112786   6.487   3.166   0.686  0.5730 -0.0621 -0.8908
 4274TIP3    H212787   6.548   3.296   0.637  0.5022 -0.0049 -0.8271
 4275TIP3   OH212788   5.795   4.808   4.444 -0.1636  0.2114 -0.7612
 4275TIP3    H112789   5.726   4.750   4.478  2.1766 -3.3983 -1.6058
 4275TIP3    H212790   5.766   4.830   4.356 -0.6206 -0.6574 -0.8470
 4276TIP3   OH212791   2.616   3.898   5.281 -0.8688  0.2576 -0.2037
 4276TIP3    H112792   2.545   3.885   5.218  1.0501  0.0047 -2.4279
 4276TIP3    H212793   2.615   3.818   5.334 -0.5830 -0.9909 -1.9961
 4277TIP3   OH212794   3.240   2.331   5.323 -0.2033 -0.5029  0.2915
 4277TIP3    H112795   3.267   2.423   5.322 -2.0265  0.1004  1.2086
 4277TIP3    H212796   3.144   2.335   5.314 -0.1727 -2.4335 -2.0902
 4278TIP3   OH212797   4.321   4.947   3.372  0.2127  0.0606 -0.5719
 4278TIP3    H112798   4.256   4.992   3.426  0.4542  0.4042 -0.5640
 4278TIP3    H212799   4.340   5.009   3.301  0.1067 -0.2728 -0.8955
 4279TIP3   OH212800   5.296   2.540   0.263 -0.0969  0.3571 -0.0397
 4279TIP3    H112801   5.227   2.563   0.201  0.9469 -0.8875 -1.7210
 4279TIP3    H212802   5.311   2.622   0.311 -1.4794  1.1475 -0.8549
 4280TIP3   OH212803   5.006   3.669   3.363 -0.2829  0.3524  0.2554
 4280TIP3    H112804   4.951   3.610   3.313 -0.2109  0.0344  0.5415
 4280TIP3    H212805   4.998   3.638   3.454 -1.0646  1.4215  0.5753
 4281TIP3   OH212806   4.706   2.644   0.695 -0.4725  0.4362 -0.3144
 4281TIP3    H112807   4.629   2.598   0.728 -0.6576 -0.3024 -1.7035
 4281TIP3    H212808   4.690   2.655   0.602  2.1358 -1.9685 -1.1959
 4282TIP3   OH212809   0.209   2.997   5.346 -0.1775  0.2717  0.0910
 4282TIP3    H112810   0.256   2.987   5.428  1.1362  2.4621 -0.3053
 4282TIP3    H212811   0.266   3.052   5.292 -0.7439 -1.4926 -2.5172
 4283TIP3   OH212812   2.823   0.106   0.374 -0.1605 -0.1652  0.4584
 4283TIP3    H112813   2.759   0.161   0.329 -0.5837 -0.4516  0.7006
 4283TIP3    H212814   2.792   0.101   0.464  0.3768 -0.0533  0.6507
 4284TIP3   OH212815   4.814   5.929   1.205  0.4333 -0.6230 -0.2763
 4284TIP3    H112816   4.820   5.898   1.295 -1.4055  0.2706  0.2044
 4284TIP3    H212817   4.867   6.009   1.203  0.1311 -0.4106  0.1275
 4285TIP3   OH212818   2.337   1.759   3.098  0.0224  0.1838  0.1400
 4285TIP3    H112819   2.363   1.758   3.005 -0.2537  0.2034  0.0616
 4285TIP3    H212820   2.253   1.804   3.098 -0.2747 -0.3694  0.3250
 4286TIP3   OH212821   4.368   5.551   1.878 -0.7867  0.2815 -0.1553
 4286TIP3    H112822   4.372   5.481   1.943  0.9869  1.4799  1.1444
 4286TIP3    H212823   4.357   5.631   1.931 -1.1448  1.1232 -1.4660
 4287TIP3   OH212824   0.142   1.576   0.148 -0.3455 -0.0552  0.2742
 4287TIP3    H112825   0.222   1.624   0.168  0.4016 -0.4502 -1.5808
 4287TIP3    H212826   0.108   1.618   0.069 -1.9441  0.0447  0.9734
 4288TIP3   OH212827   3.673   6.012  -0.009  0.0232  0.0978  0.0869
 4288TIP3    H112828   3.588   5.982   0.025  0.4270 -1.0646  0.1113
 4288TIP3    H212829   3.708   6.068   0.059  0.0386 -0.8088  0.8481
 4289TIP3   OH212830   5.070   4.299   5.538 -0.1264 -0.5937 -0.4448
 4289TIP3    H112831   5.077   4.255   5.453  0.1342  0.0757 -0.7745
 4289TIP3    H212832   5.141   4.362   5.539 -0.0357 -0.6978  0.3418
 4290TIP3   OH212833   1.468   3.466   3.635 -0.0555 -0.5432 -0.1613
 4290TIP3    H112834   1.474   3.460   3.540 -1.2509 -0.1519 -0.2842
 4290TIP3    H212835   1.556   3.490   3.664  0.0937  0.2737 -1.2419
 4291TIP3   OH212836   1.248   0.043   0.969  0.7600  0.4372 -0.3639
 4291TIP3    H112837   1.324  -0.013   0.949  0.6029  0.5508 -1.3005
 4291TIP3    H212838   1.173  -0.016   0.964  0.4478  0.9380 -2.6166
 4292TIP3   OH212839   2.145   0.884   4.576  0.5120 -0.5607  0.7130
 4292TIP3    H112840   2.050   0.878   4.569  0.4687  1.4412 -1.2920
 4292TIP3    H212841   2.161   0.933   4.656 -0.4580  3.2716 -1.2230
 4293TIP3   OH212842   4.592   3.416   4.619 -0.0538  0.1833 -0.3650
 4293TIP3    H112843   4.590   3.434   4.525  0.1844  2.2856 -0.0237
 4293TIP3    H212844   4.641   3.334   4.627 -0.2514 -0.1439 -2.0701
 4294TIP3   OH212845   1.114   2.413   2.762 -0.2237 -0.1012 -0.0472
 4294TIP3    H112846   1.199   2.448   2.787  0.1158 -1.0511  0.1548
 4294TIP3    H212847   1.052   2.455   2.822  0.4391 -1.4984  1.6744
 4295TIP3   OH212848   3.736   2.161   0.452  0.3714  0.0951 -0.0628
 4295TIP3    H112849   3.646   2.192   0.441  0.4408  0.7766  1.0867
 4295TIP3    H212850   3.762   2.194   0.538  1.0195 -1.8362  0.5277
 4296TIP3   OH212851   6.892   0.433   3.309  0.1590 -0.2955 -0.4752
 4296TIP3    H112852   6.888   0.489   3.231 -0.6659  2.4216  1.3453
 4296TIP3    H212853   6.915   0.494   3.380 -1.9961 -2.0499  1.8787
 4297TIP3   OH212854   2.248   6.525   3.255 -0.1628  0.0623  0.4900
 4297TIP3    H112855   2.207   6.555   3.336  0.0559 -0.4766  0.8078
 4297TIP3    H212856   2.250   6.602   3.199 -1.4985  0.1405  0.5038
 4298TIP3   OH212857   2.406   1.049   4.544  0.1574  0.4800 -0.3843
 4298TIP3    H112858   2.458   1.000   4.480  0.1273 -0.8947  0.6040
 4298TIP3    H212859   2.324   1.068   4.498  0.1630 -0.4141 -0.7888
 4299TIP3   OH212860   7.161   1.897   2.679 -0.4276  0.1442  0.0518
 4299TIP3    H112861   7.073   1.869   2.653  0.2370 -0.1911 -2.0591
 4299TIP3    H212862   7.193   1.827   2.735 -0.8581 -0.6254 -0.6368
 4300TIP3   OH212863   6.607   2.407   2.490  0.6754  0.5381 -0.3769
 4300TIP3    H112864   6.650   2.362   2.562  0.8123 -1.8354 -1.8339
 4300TIP3    H212865   6.515   2.409   2.514  0.6107 -0.9282 -0.4290
 4301TIP3   OH212866   3.008   6.382   3.907 -0.2509 -0.1374 -0.2423
 4301TIP3    H112867   2.930   6.373   3.851 -0.1544 -0.0173 -0.3973
 4301TIP3    H212868   3.058   6.453   3.867 -0.2756  0.0839  0.1132
 4302TIP3   OH212869   3.417   0.551   4.278  0.4482  0.1057  0.5807
 4302TIP3    H112870   3.425   0.645   4.259  2.8171  0.2426  1.8781
 4302TIP3    H212871   3.472   0.509   4.212 -0.9835 -0.4536 -0.2923
 4303TIP3   OH212872   0.224   4.889   2.498  0.5408  0.1025  0.4857
 4303TIP3    H112873   0.274   4.822   2.451  0.4971  0.1293  0.4012
 4303TIP3    H212874   0.186   4.842   2.572  0.1759 -0.0564  0.1990
 4304TIP3   OH212875   3.572   5.781   0.869 -0.2944 -0.0443  0.0246
 4304TIP3    H112876   3.658   5.824   0.872  0.1537 -0.8237 -1.0148
 4304TIP3    H212877   3.563   5.741   0.955 -0.9855  2.5529  1.2439
 4305TIP3   OH212878   2.921   5.776   0.811  0.3704  0.0225 -0.1545
 4305TIP3    H112879   2.907   5.683   0.795  0.3291  0.1508 -0.8901
 4305TIP3    H212880   3.016   5.785   0.816  0.3634 -0.1131  0.2891
 4306TIP3   OH212881   6.344   3.680   3.270 -0.1252  0.3186 -0.1867
 4306TIP3    H112882   6.403   3.651   3.200 -0.7406  0.3204 -0.7216
 4306TIP3    H212883   6.402   3.704   3.342  0.4550 -1.1207 -0.1412
 4307TIP3   OH212884   5.915   4.309   1.984  0.1410 -0.2629  0.0243
 4307TIP3    H112885   5.962   4.375   1.932  1.4056 -0.7758  0.4761
 4307TIP3    H212886   5.862   4.262   1.920  0.3901  0.2027 -0.5426
 4308TIP3   OH212887   3.424   6.322   1.222 -0.5740  0.6226  0.3992
 4308TIP3    H112888   3.483   6.247   1.229 -0.1258  0.9928  0.6746
 4308TIP3    H212889   3.350   6.290   1.171 -0.2725  0.0640  0.3044
 4309TIP3   OH212890   6.220   4.205   5.307 -0.1206  0.0896  0.3151
 4309TIP3    H112891   6.139   4.199   5.356 -0.4214 -0.6707 -0.2690
 4309TIP3    H212892   6.263   4.120   5.318 -0.7149 -0.5113 -1.6011
 4310TIP3   OH212893   7.073   5.236   3.898 -0.1429  0.0924  0.1907
 4310TIP3    H112894   7.137   5.167   3.881 -1.3786 -1.3785  1.2561
 4310TIP3    H212895   7.116   5.293   3.963 -0.2323 -1.4419  1.6666
 4311TIP3   OH212896   0.312   5.321   4.798  0.7191  0.5113 -0.3143
 4311TIP3    H112897   0.405   5.341   4.810  0.3057  2.4159  0.0844
 4311TIP3    H212898   0.311   5.237   4.753  2.6643  0.8741 -1.1550
 4312TIP3   OH212899   0.433   2.971   1.510 -0.4170  0.1087  0.1861
 4312TIP3    H112900   0.452   2.879   1.492 -0.2754  0.1138  0.3132
 4312TIP3    H212901   0.340   2.980   1.489 -0.5525 -0.1808  0.6477
 4313TIP3   OH212902   3.354   3.452   0.378  0.6580  0.2308  0.3615
 4313TIP3    H112903   3.447   3.437   0.392  0.7241  0.6966  0.4487
 4313TIP3    H212904   3.349   3.534   0.330  0.4457 -1.5276 -2.8945
 4314TIP3   OH212905   1.668   5.887   2.095  0.1694 -0.2823 -0.2575
 4314TIP3    H112906   1.696   5.932   2.175 -1.7896 -1.2006  1.0455
 4314TIP3    H212907   1.573   5.900   2.093 -0.0542 -1.8594 -1.4247
 4315TIP3   OH212908   5.880   3.321   4.183  0.5802  0.0307 -0.5461
 4315TIP3    H112909   5.944   3.391   4.175 -0.5360  0.9532 -1.7173
 4315TIP3    H212910   5.797   3.365   4.200  0.3276 -1.1736  1.8854
 4316TIP3   OH212911   2.630   0.141   3.880 -0.4507 -0.5079  0.1278
 4316TIP3    H112912   2.584   0.147   3.963 -1.3082 -1.6217 -0.2346
 4316TIP3    H212913   2.692   0.069   3.891  0.3349  0.1637  0.2006
 4317TIP3   OH212914   1.591   5.669   4.040  0.2247 -0.3167  0.8036
 4317TIP3    H112915   1.622   5.630   4.121 -0.4649 -0.0160  1.2245
 4317TIP3    H212916   1.620   5.761   4.045  2.0214 -0.7721 -0.2738
 4318TIP3   OH212917   4.113   2.651   1.233 -0.2178 -0.1915 -0.2196
 4318TIP3    H112918   4.107   2.743   1.210 -0.0333  0.5618  2.3765
 4318TIP3    H212919   4.207   2.635   1.246 -0.3947 -0.0372  1.5996
 4319TIP3   OH212920   1.393   6.131   5.478  0.1054 -0.5692 -0.3772
 4319TIP3    H112921   1.403   6.061   5.413  1.5884 -2.0580  1.3651
 4319TIP3    H212922   1.476   6.133   5.524 -0.8779  0.4595  1.4614
 4320TIP3   OH212923   1.379   6.333   2.879  0.0392 -0.0613  0.2513
 4320TIP3    H112924   1.370   6.361   2.787  0.0260  0.3393  0.3734
 4320TIP3    H212925   1.317   6.261   2.888  0.9304 -0.9368 -0.3910
 4321TIP3   OH212926   3.046   1.392   3.092 -0.3546  0.0608  0.0350
 4321TIP3    H112927   3.108   1.447   3.045 -0.0448 -0.4339 -0.1336
 4321TIP3    H212928   3.099   1.325   3.134 -0.4646  1.1494  2.0797
 4322TIP3   OH212929   7.163   2.486   2.257 -0.3464 -0.1595 -0.3531
 4322TIP3    H112930   7.184   2.406   2.209 -0.5320  0.8935 -2.2473
 4322TIP3    H212931   7.096   2.529   2.205 -0.2947  1.2184  0.6641
 4323TIP3   OH212932   2.429   3.147   1.727  0.2692  0.1256  0.4920
 4323TIP3    H112933   2.394   3.204   1.658  2.8953 -0.3116 -1.3675
 4323TIP3    H212934   2.385   3.064   1.714  1.9052 -0.4689 -1.9106
 4324TIP3   OH212935   2.788   2.165   1.880  0.5873 -0.1581 -0.1544
 4324TIP3    H112936   2.801   2.179   1.786  0.8188 -0.4957 -0.1720
 4324TIP3    H212937   2.876   2.157   1.916  0.5159  0.4704  0.1720
 4325TIP3   OH212938   4.778   0.238   1.593  0.0008  0.3330  0.8925
 4325TIP3    H112939   4.845   0.170   1.602  0.1874  0.6143  1.8511
 4325TIP3    H212940   4.829   0.318   1.578 -0.2238  0.2479 -0.4121
 4326TIP3   OH212941   1.318   5.858   5.650  0.1233  0.3142  0.7925
 4326TIP3    H112942   1.328   5.871   5.555  1.0045 -0.3181  0.7874
 4326TIP3    H212943   1.406   5.837   5.681 -0.4993 -1.6056  1.4121
 4327TIP3   OH212944   4.805   0.063   2.061  0.2922 -0.1987  0.1974
 4327TIP3    H112945   4.895   0.057   2.093  0.5705  0.2148 -0.4994
 4327TIP3    H212946   4.768   0.139   2.105  0.9634  0.9292 -1.1322
 4328TIP3   OH212947   6.661   2.669   2.974  0.0183  0.0352  0.0965
 4328TIP3    H112948   6.602   2.671   3.049  0.7410 -0.0958  0.6782
 4328TIP3    H212949   6.669   2.576   2.951 -0.2053  0.0749 -0.1556
 4329TIP3   OH212950   7.136  -0.005   1.970  0.2826  0.2822 -0.5734
 4329TIP3    H112951   7.160   0.031   1.884 -0.9158 -0.5059 -1.2736
 4329TIP3    H212952   7.176   0.055   2.033 -1.5391  2.8129 -1.6612
 4330TIP3   OH212953   5.035   3.866   3.725  0.6367 -0.8389  0.3379
 4330TIP3    H112954   4.998   3.815   3.652 -0.8898  1.0161 -0.2683
 4330TIP3    H212955   5.129   3.863   3.711  0.4616 -1.8338 -0.8100
 4331TIP3   OH212956   0.813   3.006   1.419 -0.2236 -0.0876  0.2222
 4331TIP3    H112957   0.872   2.985   1.491 -0.6036  0.1717  0.6219
 4331TIP3    H212958   0.769   3.086   1.447  2.1697  2.1302 -1.8309
 4332TIP3   OH212959   1.902   3.606   4.335  0.0557  0.0355  0.5009
 4332TIP3    H112960   1.889   3.692   4.295  0.6597  0.1589  0.5698
 4332TIP3    H212961   1.936   3.551   4.264 -0.2073 -0.1131  0.4891
 4333TIP3   OH212962   5.515   1.378   1.627  0.3537  0.1513 -0.3784
 4333TIP3    H112963   5.571   1.451   1.598  1.7134 -0.5489  0.3633
 4333TIP3    H212964   5.517   1.316   1.555 -0.6248  0.7336 -0.9206
 4334TIP3   OH212965   3.552   2.710   5.769  0.2009  0.0288 -0.5730
 4334TIP3    H112966   3.492   2.681   5.838  0.7035  1.1681  0.3692
 4334TIP3    H212967   3.508   2.785   5.728 -0.2594 -0.8546 -1.7761
 4335TIP3   OH212968   0.248   2.164   5.339 -1.0145  0.7892  0.8797
 4335TIP3    H112969   0.281   2.145   5.427 -0.5917  0.1448  0.5795
 4335TIP3    H212970   0.271   2.256   5.325  1.2766  0.2034  0.4175
 4336TIP3   OH212971   3.520   5.864   5.733  0.4051 -0.2410  0.0655
 4336TIP3    H112972   3.540   5.817   5.814  1.2205  0.1567  0.1025
 4336TIP3    H212973   3.496   5.795   5.671  2.0177 -0.7699 -0.0046
 4337TIP3   OH212974   2.947   3.272   0.389 -0.1826 -0.2985  0.0954
 4337TIP3    H112975   3.038   3.257   0.364 -0.4324 -0.0975 -0.9999
 4337TIP3    H212976   2.949   3.282   0.484  0.8979 -0.5399  0.1111
 4338TIP3   OH212977   1.332   0.231   4.114  0.3877 -0.4204 -0.5665
 4338TIP3    H112978   1.407   0.257   4.167  2.4515 -3.3617 -1.7148
 4338TIP3    H212979   1.295   0.156   4.159 -0.9407  0.0571 -0.8176
 4339TIP3   OH212980   2.117   2.472   2.478 -0.2915  0.3679  0.1950
 4339TIP3    H112981   2.044   2.423   2.440 -1.7319  1.5895  1.2508
 4339TIP3    H212982   2.171   2.406   2.521 -1.5452 -0.4602  0.5671
 4340TIP3   OH212983   5.306   6.344   1.674  0.2293 -0.2431 -0.2491
 4340TIP3    H112984   5.300   6.258   1.715 -0.8322  0.8020  1.9625
 4340TIP3    H212985   5.216   6.377   1.673  0.6296  0.8958 -0.9423
 4341TIP3   OH212986   6.188   3.199   0.426 -0.1654 -0.2534  0.4326
 4341TIP3    H112987   6.112   3.250   0.398  0.1933  0.3168  0.4942
 4341TIP3    H212988   6.248   3.203   0.351 -1.5337 -3.5052 -1.0269
 4342TIP3   OH212989   2.814   2.662   5.107 -0.3372 -0.0625  0.2686
 4342TIP3    H112990   2.850   2.655   5.019 -1.5511  2.0360 -0.4675
 4342TIP3    H212991   2.890   2.678   5.163  0.5370 -2.1908 -0.2193
 4343TIP3   OH212992   5.533   1.898   1.931  0.3222  0.4688  0.0404
 4343TIP3    H112993   5.556   1.809   1.906  1.2095  0.3676  1.1275
 4343TIP3    H212994   5.468   1.888   2.000  1.4084  0.5936  1.1267
 4344TIP3   OH212995   1.646   1.154   2.114  0.3467  0.3441  0.2691
 4344TIP3    H112996   1.631   1.246   2.136 -0.4954 -0.3890  3.1066
 4344TIP3    H212997   1.576   1.132   2.052 -0.8007  1.0625  1.2736
 4345TIP3   OH212998   0.011   1.748   5.034  0.5726 -0.6111  0.3374
 4345TIP3    H112999   0.092   1.742   4.984  0.2763 -0.9869 -0.1033
 4345TIP3    H213000  -0.037   1.668   5.013 -0.6784  0.3862 -0.7529
 4346TIP3   OH213001   5.336   5.015   0.758 -0.0635 -0.1311  0.0138
 4346TIP3    H113002   5.422   5.046   0.784 -0.1747  0.9134 -0.7996
 4346TIP3    H213003   5.311   4.953   0.827  0.6862  0.6891  1.0540
 4347TIP3   OH213004   0.578   1.817   4.535  0.7147 -0.4286  0.7391
 4347TIP3    H113005   0.659   1.864   4.515  0.7375 -0.5999  0.4327
 4347TIP3    H213006   0.532   1.812   4.452  0.6895 -0.9076  0.7778
 4348TIP3   OH213007   4.878   0.548   4.137 -0.1260 -0.0708  0.1757
 4348TIP3    H113008   4.939   0.606   4.182 -1.4596  2.5076 -1.1562
 4348TIP3    H213009   4.865   0.588   4.051 -1.6857 -1.9872 -0.5631
 4349TIP3   OH213010   4.147   3.247   1.851  0.5634  0.4435  0.2521
 4349TIP3    H113011   4.077   3.313   1.853  0.1165 -0.0416  1.0808
 4349TIP3    H213012   4.101   3.164   1.859  0.9897 -0.1033 -2.2956
 4350TIP3   OH213013   7.067   6.667   3.972 -0.3524 -0.2681  0.1524
 4350TIP3    H113014   7.108   6.653   3.886 -2.7986 -0.0310 -1.1675
 4350TIP3    H213015   7.023   6.752   3.963  0.6027  0.4934  2.2109
 4351TIP3   OH213016   0.628   1.091   2.242  0.3748 -0.2375 -0.2579
 4351TIP3    H113017   0.704   1.120   2.191 -0.5919  0.8940 -1.1255
 4351TIP3    H213018   0.579   1.035   2.181 -0.5989  0.8250 -0.4998
 4352TIP3   OH213019   6.014   0.991   3.408  0.5174  0.2586  0.1207
 4352TIP3    H113020   6.060   0.909   3.392  0.8220  0.5264 -0.4487
 4352TIP3    H213021   6.070   1.058   3.368  0.5546  0.8123  1.0682
 4353TIP3   OH213022   6.446   4.181   2.441  0.0396  0.6074  0.7203
 4353TIP3    H113023   6.415   4.258   2.395 -0.3515  0.8943  1.4469
 4353TIP3    H213024   6.370   4.151   2.491  0.4400  0.2848  1.1448
 4354TIP3   OH213025   2.284   6.428   2.288 -0.1996 -0.3821  0.2138
 4354TIP3    H113026   2.257   6.417   2.197 -0.5134 -1.5708  0.4402
 4354TIP3    H213027   2.355   6.492   2.284  0.7829 -1.4909 -1.0552
 4355TIP3   OH213028   2.265   4.641   4.442 -0.3818  0.0272 -0.3334
 4355TIP3    H113029   2.285   4.630   4.535  1.0018 -2.4717 -0.8582
 4355TIP3    H213030   2.187   4.586   4.428 -0.2234 -0.0860 -0.7680
 4356TIP3   OH213031   6.148   6.701   5.240  0.0162 -0.4532 -0.0592
 4356TIP3    H113032   6.219   6.671   5.298  0.7203  1.4876  0.1504
 4356TIP3    H213033   6.193   6.726   5.159 -0.8309 -2.0125 -1.0733
 4357TIP3   OH213034   4.383   5.499   2.241  0.4192  0.3166 -0.2213
 4357TIP3    H113035   4.479   5.508   2.242  0.2752  2.5452 -1.1840
 4357TIP3    H213036   4.351   5.586   2.220 -1.8338 -0.5174 -0.5106
 4358TIP3   OH213037   7.174   5.084   4.197 -0.3305  0.2829 -0.6356
 4358TIP3    H113038   7.165   5.003   4.247  2.0909  0.5091  0.2985
 4358TIP3    H213039   7.146   5.153   4.257  1.5852  0.4608  0.1108
 4359TIP3   OH213040   1.950   1.171   0.075  0.3150 -0.0664  0.5642
 4359TIP3    H113041   1.945   1.231   0.000 -1.1812  0.8903  1.3774
 4359TIP3    H213042   1.924   1.086   0.039 -1.6017  0.6226  0.1925
 4360TIP3   OH213043   0.079   6.434   5.261 -0.3671 -0.0661 -0.1494
 4360TIP3    H113044   0.054   6.406   5.349 -1.3368  0.6944 -0.1667
 4360TIP3    H213045   0.153   6.493   5.275  1.3026 -2.0911 -0.0709
 4361TIP3   OH213046   6.791   3.729   3.528  0.4021  0.6831  0.4088
 4361TIP3    H113047   6.862   3.733   3.590  0.0612 -0.8037  0.9565
 4361TIP3    H213048   6.828   3.682   3.452 -0.0309 -0.3248  0.7998
 4362TIP3   OH213049   5.779   3.804   4.238 -0.0191 -0.4526  0.5656
 4362TIP3    H113050   5.826   3.803   4.321  0.0578 -1.4553  0.5296
 4362TIP3    H213051   5.716   3.875   4.247  1.5375  0.9816  0.5815
 4363TIP3   OH213052   6.028   2.688   1.847  0.4959  0.5522  0.0574
 4363TIP3    H113053   6.103   2.738   1.816  0.9996 -0.8257 -1.0720
 4363TIP3    H213054   6.008   2.627   1.775 -2.4090  1.5856 -0.1555
 4364TIP3   OH213055   3.282   5.135   3.616 -0.5416  0.0351  0.1398
 4364TIP3    H113056   3.271   5.224   3.582  0.2559 -0.0326 -0.2990
 4364TIP3    H213057   3.363   5.103   3.577  1.4199  0.5875  3.4254
 4365TIP3   OH213058   2.442   2.899   1.097  0.4955 -0.2020  0.7031
 4365TIP3    H113059   2.415   2.970   1.155 -0.3892 -0.1365  0.2331
 4365TIP3    H213060   2.522   2.931   1.055 -0.3084  0.8744 -0.0898
 4366TIP3   OH213061   6.636   4.128   2.704  0.2375 -0.5091  0.1934
 4366TIP3    H113062   6.706   4.191   2.687 -1.6808  1.8712  0.6162
 4366TIP3    H213063   6.626   4.080   2.622  1.0030  0.5047 -0.5184
 4367TIP3   OH213064   6.398   3.561   4.508  0.2801  0.2672 -0.6346
 4367TIP3    H113065   6.421   3.474   4.476 -0.3837 -0.0001 -0.4027
 4367TIP3    H213066   6.313   3.579   4.468 -1.0346 -0.4742  1.6399
 4368TIP3   OH213067   3.910   6.761   4.091 -0.3405  0.3933 -0.3225
 4368TIP3    H113068   3.935   6.705   4.165 -0.9371  0.7975  0.1964
 4368TIP3    H213069   3.893   6.699   4.020 -1.0452 -0.1113  0.2582
 4369TIP3   OH213070   0.473   1.385   2.257  0.3900  0.0973 -0.0200
 4369TIP3    H113071   0.520   1.312   2.297  1.5830  0.2887 -1.0129
 4369TIP3    H213072   0.474   1.366   2.163 -0.5574  0.6765 -0.1620
 4370TIP3   OH213073   5.770   1.056   3.803  0.1966  0.5469 -0.0746
 4370TIP3    H113074   5.796   0.972   3.766 -0.6746  0.2200  0.0197
 4370TIP3    H213075   5.703   1.089   3.743 -1.0493  0.1320  1.0171
 4371TIP3   OH213076   6.341   0.083   1.040  0.2221 -0.1723  0.0139
 4371TIP3    H113077   6.418   0.122   0.999  0.3584 -0.4698 -0.0116
 4371TIP3    H213078   6.310   0.019   0.976  0.3748 -0.5628  0.3314
 4372TIP3   OH213079   6.699   5.439   4.557 -0.2142 -0.0388 -0.6589
 4372TIP3    H113080   6.625   5.396   4.513 -0.2408 -1.8142  0.9974
 4372TIP3    H213081   6.771   5.377   4.550  0.1078  0.1507  0.7493
 4373TIP3   OH213082   2.768   6.194   3.810  0.1398 -0.1893 -0.0112
 4373TIP3    H113083   2.813   6.161   3.888  0.3996  2.2214  0.9522
 4373TIP3    H213084   2.801   6.140   3.738 -0.3438 -2.7157  1.5349
 4374TIP3   OH213085   0.322   5.959   3.583  0.1441  0.1770 -0.4327
 4374TIP3    H113086   0.236   5.916   3.580  1.4820 -2.7643 -0.3132
 4374TIP3    H213087   0.363   5.923   3.661  1.6751  1.1936 -0.7370
 4375TIP3   OH213088   1.305   6.176   4.055  0.2319 -0.1044  0.0931
 4375TIP3    H113089   1.268   6.255   4.095 -0.8554 -0.5363 -0.0269
 4375TIP3    H213090   1.377   6.208   4.000  0.9111  0.6270  1.3583
 4376TIP3   OH213091   5.634   6.381   0.825 -0.4731 -0.0489 -0.4736
 4376TIP3    H113092   5.728   6.392   0.814 -0.5481  1.0588 -0.0935
 4376TIP3    H213093   5.598   6.469   0.815 -1.3559 -0.2739  0.5396
 4377TIP3   OH213094   2.055   2.356   5.742 -0.0628  0.7737 -0.3364
 4377TIP3    H113095   2.067   2.261   5.733  0.2045  0.6885  0.7467
 4377TIP3    H213096   2.144   2.391   5.736  0.0659  0.7659  1.0408
 4378TIP3   OH213097   2.230   4.997   4.967  0.1665 -0.3910 -0.0138
 4378TIP3    H113098   2.273   5.030   5.046  1.6509 -1.1264 -0.4825
 4378TIP3    H213099   2.187   5.074   4.929  0.5160  0.2298  0.8277
 4379TIP3   OH213100   0.920   0.785   4.896 -0.1892  0.2183  0.1756
 4379TIP3    H113101   0.914   0.784   4.801  0.9863  1.0197  0.0802
 4379TIP3    H213102   0.840   0.741   4.926  1.4022 -4.2197 -1.2570
 4380TIP3   OH213103   2.806   2.203   1.616 -0.2445  0.1126 -0.8393
 4380TIP3    H113104   2.773   2.158   1.538  2.0788 -1.2071 -1.1632
 4380TIP3    H213105   2.888   2.243   1.587  0.8865 -0.7556  0.9748
 4381TIP3   OH213106   3.691   2.784   5.032 -0.0027 -0.2177 -0.0457
 4381TIP3    H113107   3.726   2.830   5.109 -0.2743 -0.2651  0.1056
 4381TIP3    H213108   3.754   2.804   4.963 -0.1361  0.4092  0.0093
 4382TIP3   OH213109   5.117   4.103   2.788  0.1273 -0.2301 -0.3048
 4382TIP3    H113110   5.067   4.023   2.800  1.2329 -0.9861 -0.5650
 4382TIP3    H213111   5.105   4.126   2.695 -0.9162  0.4201 -0.0172
 4383TIP3   OH213112   3.533   1.646   3.005 -0.3223  0.5511 -0.0302
 4383TIP3    H113113   3.544   1.594   2.926 -0.0039  2.0073 -0.9950
 4383TIP3    H213114   3.468   1.713   2.980 -1.7148 -0.1437  1.5680
 4384TIP3   OH213115   1.687   2.310   3.991  0.2768  0.5040 -0.2683
 4384TIP3    H113116   1.741   2.296   4.068  1.0447  2.3564 -0.3990
 4384TIP3    H213117   1.599   2.284   4.018  0.6342  0.5929  1.0576
 4385TIP3   OH213118   3.875   1.429   1.729 -0.6703  0.4170  0.6301
 4385TIP3    H113119   3.797   1.483   1.743 -0.5601  0.2831  1.8910
 4385TIP3    H213120   3.842   1.350   1.685 -0.8936  1.2841 -0.8162
 4386TIP3   OH213121   2.666   4.446   5.721  0.3342  0.0370 -0.1258
 4386TIP3    H113122   2.617   4.483   5.647 -0.7872  1.0746  1.0721
 4386TIP3    H213123   2.669   4.517   5.785  0.3216 -1.1715  1.2672
 4387TIP3   OH213124   3.160   1.314   3.429  0.0965  0.4150  0.0582
 4387TIP3    H113125   3.072   1.281   3.445  0.6923 -0.6701  1.2410
 4387TIP3    H213126   3.208   1.239   3.393  1.0372  0.4335  1.2197
 4388TIP3   OH213127   1.808   1.137   4.271 -0.1471 -0.1662  0.2406
 4388TIP3    H113128   1.833   1.229   4.269  1.8466 -0.6820 -0.8216
 4388TIP3    H213129   1.805   1.110   4.179  1.7618 -1.7323  0.5529
 4389TIP3   OH213130   1.792   3.327   5.060  0.5259  0.3809  0.0423
 4389TIP3    H113131   1.743   3.294   5.136  0.0011  1.4435  0.1921
 4389TIP3    H213132   1.743   3.294   4.984  0.6761 -0.1410  0.1702
 4390TIP3   OH213133   5.594   4.236   5.322 -1.0075 -0.0039  0.5127
 4390TIP3    H113134   5.502   4.251   5.301 -1.4671 -1.2875  1.5320
 4390TIP3    H213135   5.594   4.205   5.412 -0.0370 -3.8917 -0.6084
 4391TIP3   OH213136   6.059   5.832   4.444  0.4745  0.1805  0.4797
 4391TIP3    H113137   6.028   5.911   4.488  1.3571 -0.0930  1.6555
 4391TIP3    H213138   6.001   5.763   4.475 -1.0159  0.4983 -1.4171
 4392TIP3   OH213139   1.212   0.140   1.221 -0.4309 -0.3742  0.0256
 4392TIP3    H113140   1.235   0.137   1.129 -0.1532 -1.3464  0.1145
 4392TIP3    H213141   1.213   0.049   1.249 -3.4158 -0.4119  0.2913
 4393TIP3   OH213142   2.534   6.682   5.487  0.2120  0.6507  0.2639
 4393TIP3    H113143   2.451   6.643   5.459  0.1103  0.7649  0.4047
 4393TIP3    H213144   2.554   6.639   5.570  2.1059 -2.0233 -1.4088
 4394TIP3   OH213145   2.568   6.091   5.082 -0.2091  0.1740 -0.3904
 4394TIP3    H113146   2.545   6.149   5.154  2.1539  1.8741 -0.8911
 4394TIP3    H213147   2.520   6.125   5.007 -0.5454  0.1013 -0.2089
 4395TIP3   OH213148   0.698   0.336   3.098 -0.0946 -0.3076 -0.2210
 4395TIP3    H113149   0.782   0.292   3.110 -1.0180 -2.2634 -0.5193
 4395TIP3    H213150   0.633   0.266   3.104 -1.6693  1.0429 -0.6671
 4396TIP3   OH213151   4.327   2.315   0.804 -0.4083  0.4497 -0.0810
 4396TIP3    H113152   4.337   2.271   0.888  0.1469 -1.5629 -1.1150
 4396TIP3    H213153   4.233   2.334   0.798 -0.9012 -1.6753 -0.0219
 4397TIP3   OH213154   2.146   1.295   0.918 -0.3145 -0.4884  0.0054
 4397TIP3    H113155   2.074   1.252   0.964 -0.2868 -0.1763  0.3447
 4397TIP3    H213156   2.220   1.235   0.928 -0.4365 -0.6468 -0.0461
 4398TIP3   OH213157   6.399   1.170   0.396 -0.4561  0.1753 -0.2234
 4398TIP3    H113158   6.336   1.242   0.392  1.0205  1.5250 -0.5156
 4398TIP3    H213159   6.468   1.195   0.334  0.1853 -1.4180 -0.2028
 4399TIP3   OH213160   5.828   6.759   1.677 -0.8946 -0.4126  0.0205
 4399TIP3    H113161   5.874   6.701   1.738 -0.2031 -0.1971 -0.2855
 4399TIP3    H213162   5.758   6.705   1.641 -3.8860  0.4760  3.8026
 4400TIP3   OH213163   5.162   5.098   5.342 -0.4697 -0.1884  0.0778
 4400TIP3    H113164   5.127   5.183   5.315 -0.9298 -0.0221  1.1628
 4400TIP3    H213165   5.252   5.116   5.369  0.1203 -0.4151 -1.5829
 4401TIP3   OH213166   3.877   0.073   0.788 -0.2955  0.2898 -0.0574
 4401TIP3    H113167   3.852   0.006   0.851 -1.1573  0.1943 -0.4839
 4401TIP3    H213168   3.802   0.078   0.728  0.5121  0.3809 -1.0703
 4402TIP3   OH213169   1.315   1.437   4.917  0.2855  0.2244 -0.8700
 4402TIP3    H113170   1.258   1.360   4.914  0.1419  0.3254 -0.7506
 4402TIP3    H213171   1.266   1.505   4.871 -0.3874  0.7628  0.5782
 4403TIP3   OH213172   6.300   2.783   0.601  0.1615 -0.0859 -0.1388
 4403TIP3    H113173   6.219   2.768   0.553  0.8900  0.0743 -1.4636
 4403TIP3    H213174   6.295   2.722   0.675 -0.3569 -1.3879 -1.1949
 4404TIP3   OH213175   2.113   4.731   4.149 -0.2015  1.3823 -0.3184
 4404TIP3    H113176   2.185   4.745   4.086  0.2069 -1.6910 -0.6851
 4404TIP3    H213177   2.149   4.669   4.212 -1.8202  1.6122  0.8729
 4405TIP3   OH213178   6.296   1.265   1.186  0.8605  0.2059  0.1349
 4405TIP3    H113179   6.377   1.281   1.138  1.7567 -1.2419  1.0853
 4405TIP3    H213180   6.323   1.254   1.277 -0.7393  2.4098  0.9725
 4406TIP3   OH213181   5.244   0.454   3.015 -0.0986  0.1092  1.0929
 4406TIP3    H113182   5.260   0.547   2.998  0.5664  0.0674  1.4665
 4406TIP3    H213183   5.199   0.453   3.100 -0.2158  0.0955  1.0311
 4407TIP3   OH213184   0.949   1.984   2.879  0.4158  0.0370 -0.1110
 4407TIP3    H113185   0.888   2.030   2.938 -0.9911 -1.0939 -0.6167
 4407TIP3    H213186   0.990   2.053   2.828  1.3543  1.0247  1.8568
 4408TIP3   OH213187   6.778   2.319   2.683 -0.0543  0.2704  0.2258
 4408TIP3    H113188   6.754   2.227   2.668 -0.8332  0.6898 -1.2817
 4408TIP3    H213189   6.871   2.323   2.658 -0.3316  0.1358 -0.8500
 4409TIP3   OH213190   2.487   5.828   0.691 -0.3484 -0.7088 -0.4317
 4409TIP3    H113191   2.523   5.844   0.778  0.3770 -1.1487 -0.6349
 4409TIP3    H213192   2.397   5.858   0.696 -0.7954 -2.1476  0.9381
 4410TIP3   OH213193   1.311   2.997   1.856  0.4572 -0.4232 -0.2367
 4410TIP3    H113194   1.220   3.000   1.884  0.3331 -1.9935 -0.3747
 4410TIP3    H213195   1.313   3.047   1.774 -0.0957  0.3110  0.1862
 4411TIP3   OH213196   3.524   3.386   3.463 -0.0585 -0.1582 -0.1302
 4411TIP3    H113197   3.552   3.305   3.420 -1.2822 -0.4568 -0.3889
 4411TIP3    H213198   3.515   3.449   3.391  0.0100 -0.0391 -0.0358
 4412TIP3   OH213199   0.658   2.728   4.073 -0.3329  0.4146 -0.3074
 4412TIP3    H113200   0.590   2.660   4.076 -1.0981  1.0488 -1.8823
 4412TIP3    H213201   0.616   2.801   4.027  0.9291  1.4237  0.0920
 4413TIP3   OH213202   6.848   4.869   3.549  0.1173 -0.0043 -0.3516
 4413TIP3    H113203   6.919   4.804   3.551  0.1753  0.0317  1.7706
 4413TIP3    H213204   6.773   4.822   3.513  0.4246 -0.9895  0.2482
 4414TIP3   OH213205   2.023   4.638   2.368 -0.1096 -0.3542 -0.4106
 4414TIP3    H113206   1.993   4.675   2.451 -1.8329 -1.9936 -0.2426
 4414TIP3    H213207   2.111   4.674   2.356  0.6391 -0.9225  2.6723
 4415TIP3   OH213208   3.852   4.585   4.440 -0.0564  0.4408  0.4433
 4415TIP3    H113209   3.849   4.681   4.448  1.7423  0.7687 -1.7943
 4415TIP3    H213210   3.826   4.553   4.526 -0.5298  2.9404  1.3136
 4416TIP3   OH213211   2.294   6.393   0.883 -0.2754  0.5206 -0.2490
 4416TIP3    H113212   2.319   6.426   0.969  0.9552 -0.7384 -0.0855
 4416TIP3    H213213   2.200   6.373   0.891  0.4284 -2.5655  1.8799
 4417TIP3   OH213214   6.563   4.427   3.530 -0.1631  0.3569  0.3078
 4417TIP3    H113215   6.521   4.343   3.553  2.4891 -0.9290  0.8740
 4417TIP3    H213216   6.576   4.422   3.435  0.1539  0.0375  0.3662
 4418TIP3   OH213217   3.293   1.787   0.920 -0.2160 -0.4112 -0.4875
 4418TIP3    H113218   3.352   1.837   0.975 -2.8833  2.1332  0.3402
 4418TIP3    H213219   3.213   1.777   0.973 -1.8611 -0.3974 -2.7987
 4419TIP3   OH213220   3.332   5.662   1.338 -0.1875  0.3014 -0.0167
 4419TIP3    H113221   3.424   5.689   1.346  1.1977 -3.3979 -1.3888
 4419TIP3    H213222   3.321   5.593   1.403 -1.6678 -0.0456 -0.6020
 4420TIP3   OH213223   1.129   2.997   5.885 -0.0107 -0.1111  0.2691
 4420TIP3    H113224   1.222   3.003   5.904  0.0213  0.8681 -0.1484
 4420TIP3    H213225   1.121   2.919   5.829  0.5334 -0.2752  0.4150
 4421TIP3   OH213226   3.538   4.652   1.771  0.3978 -0.3420 -0.5575
 4421TIP3    H113227   3.588   4.571   1.763  0.8055 -0.1227 -0.2888
 4421TIP3    H213228   3.568   4.706   1.698 -1.2691 -1.1393 -1.9221
 4422TIP3   OH213229   0.100   2.746   5.326  0.1458 -0.1384 -0.0742
 4422TIP3    H113230   0.150   2.827   5.327 -0.6416  0.3489  0.3611
 4422TIP3    H213231   0.070   2.734   5.416 -0.0757 -0.7023 -0.2174
 4423TIP3   OH213232   3.799   0.303   4.524 -0.2439 -0.3413  0.5094
 4423TIP3    H113233   3.786   0.309   4.618 -0.7787 -0.3972  0.4446
 4423TIP3    H213234   3.720   0.259   4.492 -0.3404  0.2070 -0.0320
 4424TIP3   OH213235   3.512   1.360   3.535  0.3964  0.3782 -0.6267
 4424TIP3    H113236   3.606   1.339   3.529  0.1518 -1.6928  1.2939
 4424TIP3    H213237   3.472   1.312   3.463  0.6952  0.6182 -0.9610
 4425TIP3   OH213238   0.251   5.444   3.366  0.2916 -0.9102 -0.2357
 4425TIP3    H113239   0.284   5.457   3.277 -1.1919 -0.0498 -0.6993
 4425TIP3    H213240   0.296   5.511   3.418  0.8307 -1.1242 -0.4198
 4426TIP3   OH213241   2.320   1.061   2.963 -0.1350 -0.1585  0.0556
 4426TIP3    H113242   2.368   1.013   2.895 -0.1266  0.4996 -0.4052
 4426TIP3    H213243   2.231   1.068   2.930 -0.1666  0.0330  0.1806
 4427TIP3   OH213244   6.280   6.418   0.881 -0.2463  0.3730 -0.3940
 4427TIP3    H113245   6.253   6.370   0.803  0.8585  1.0892 -1.2663
 4427TIP3    H213246   6.222   6.388   0.950 -0.9605 -0.6180 -1.3955
 4428TIP3   OH213247   5.362   5.498   1.956 -0.2248 -0.1020  0.4191
 4428TIP3    H113248   5.336   5.568   1.896 -0.0493 -0.1375  0.2987
 4428TIP3    H213249   5.434   5.453   1.910 -0.5362 -0.5483  0.3633
 4429TIP3   OH213250   4.386   1.226   4.584  0.0716  0.4355  0.1297
 4429TIP3    H113251   4.447   1.300   4.577 -0.1444  0.6538  0.5238
 4429TIP3    H213252   4.406   1.171   4.508  2.8558 -1.0754  1.8021
 4430TIP3   OH213253   1.817   0.973   2.213 -0.2525  0.4529 -0.5664
 4430TIP3    H113254   1.750   1.033   2.181 -1.0947  0.7741  1.6691
 4430TIP3    H213255   1.881   1.028   2.257 -0.1808 -0.1233  0.0752
 4431TIP3   OH213256   2.253   3.626   2.810 -0.7055 -0.2433 -0.0594
 4431TIP3    H113257   2.254   3.613   2.715 -1.3183  0.1877 -0.1332
 4431TIP3    H213258   2.171   3.672   2.827 -0.0900  0.6703  0.5496
 4432TIP3   OH213259   4.341   6.477   1.945 -0.0787 -0.3336  0.0860
 4432TIP3    H113260   4.411   6.539   1.966 -0.5092 -0.0024  0.5542
 4432TIP3    H213261   4.277   6.488   2.016 -0.8069 -0.3280 -0.5631
 4433TIP3   OH213262   4.925   6.616   3.078  0.0573  0.1331 -0.2525
 4433TIP3    H113263   4.947   6.642   2.989 -2.2255 -0.9930 -1.2338
 4433TIP3    H213264   4.848   6.668   3.100 -0.9392 -1.3981  0.0491
 4434TIP3   OH213265   2.030   6.246   1.611  0.0050 -0.3460 -0.0919
 4434TIP3    H113266   1.975   6.214   1.682 -1.3102  2.1680  0.1327
 4434TIP3    H213267   1.983   6.220   1.531  1.1138 -2.5214 -0.1279
 4435TIP3   OH213268   6.814   6.656   0.114 -0.2706  0.3284 -0.1860
 4435TIP3    H113269   6.852   6.734   0.154  1.0627 -0.9237  1.1413
 4435TIP3    H213270   6.741   6.632   0.172 -0.8191  0.6925 -0.7137
 4436TIP3   OH213271   2.676   1.054   3.467 -0.1324  0.1146 -0.3350
 4436TIP3    H113272   2.676   1.148   3.446  1.7757 -0.0437 -1.2940
 4436TIP3    H213273   2.597   1.020   3.425 -1.3192  1.4020  0.7559
 4437TIP3   OH213274   5.909   3.366   5.436 -0.0226 -0.0740 -0.9302
 4437TIP3    H113275   5.855   3.328   5.367  0.6101 -0.3067 -1.3005
 4437TIP3    H213276   5.888   3.460   5.435 -0.8175 -0.2383 -0.7019
 4438TIP3   OH213277   5.510   5.659   4.076  0.3282 -0.4391  0.0423
 4438TIP3    H113278   5.589   5.701   4.042  1.0558  0.0679  2.1815
 4438TIP3    H213279   5.439   5.722   4.056  0.6367 -0.3511 -0.8329
 4439TIP3   OH213280   4.152   6.307   1.657  0.1195  0.5218 -0.5125
 4439TIP3    H113281   4.103   6.295   1.575 -0.9489 -0.3657  0.2344
 4439TIP3    H213282   4.162   6.219   1.692  0.1692  0.9435  0.5535
 4440TIP3   OH213283   0.916   2.454   5.218 -0.3047  0.0865  0.0695
 4440TIP3    H113284   0.927   2.447   5.313 -1.3261  1.4995  0.3280
 4440TIP3    H213285   0.961   2.377   5.183 -1.4728 -1.5083  1.8059
 4441TIP3   OH213286   4.612   2.659   1.195 -0.2637 -0.0018  0.1612
 4441TIP3    H113287   4.634   2.588   1.135 -0.7095  1.3050 -1.6287
 4441TIP3    H213288   4.693   2.708   1.205 -0.2943  0.0253  0.2738
 4442TIP3   OH213289   4.602   1.176   4.289  0.7782 -0.0608  0.1181
 4442TIP3    H113290   4.578   1.087   4.315 -0.3872  0.8867  2.6275
 4442TIP3    H213291   4.534   1.203   4.228  0.4530 -0.4803  0.2890
 4443TIP3   OH213292   3.987   3.284   4.754  0.2479 -0.3559 -0.5221
 4443TIP3    H113293   4.079   3.259   4.761  0.1839 -0.8952 -1.4621
 4443TIP3    H213294   3.940   3.202   4.741 -0.3478 -0.0658 -0.2340
 4444TIP3   OH213295   0.081   6.759   2.691  0.5996  0.7548  0.0964
 4444TIP3    H113296   0.026   6.765   2.768  0.2574 -0.6495 -0.0073
 4444TIP3    H213297   0.024   6.787   2.619 -0.2248 -1.2292 -0.0911
 4445TIP3   OH213298   3.968   4.305   5.602  0.2242  0.2587  0.6186
 4445TIP3    H113299   3.920   4.361   5.663  1.2555  1.5141  0.3249
 4445TIP3    H213300   3.914   4.306   5.522 -0.6819 -0.6845  1.1924
 4446TIP3   OH213301   6.852   6.380   3.392  0.4323  0.5304 -0.0528
 4446TIP3    H113302   6.911   6.447   3.358  0.6287  0.3832 -0.0021
 4446TIP3    H213303   6.844   6.400   3.485  1.0459  0.0737  0.1087
 4447TIP3   OH213304   5.184   3.994   4.359  0.2811 -0.9929  0.1766
 4447TIP3    H113305   5.122   4.026   4.424  1.2642 -1.5030  1.4196
 4447TIP3    H213306   5.259   4.053   4.366 -0.6186  0.6220 -2.4530
 4448TIP3   OH213307   5.319   0.322   0.510 -0.3475  0.4298  0.5245
 4448TIP3    H113308   5.263   0.271   0.569 -1.4720  1.1136  0.0867
 4448TIP3    H213309   5.378   0.370   0.569  0.1457 -0.6961  0.9724
 4449TIP3   OH213310   3.466   2.902   1.023  0.3231 -0.4139  0.0977
 4449TIP3    H113311   3.498   2.851   1.097  1.4743 -0.3805 -0.3550
 4449TIP3    H213312   3.385   2.858   0.996  0.9824 -1.6553  0.0775
 4450TIP3   OH213313   0.137   1.927   0.155 -0.2593  0.3426 -0.2028
 4450TIP3    H113314   0.218   1.886   0.125 -0.4580 -0.3062  0.1153
 4450TIP3    H213315   0.069   1.863   0.134 -0.4310 -0.0323  1.3724
 4451TIP3   OH213316   3.253   6.492   5.532 -0.7760 -0.0442  0.1179
 4451TIP3    H113317   3.300   6.534   5.460 -1.6405 -1.7008 -1.4815
 4451TIP3    H213318   3.308   6.419   5.558 -0.1245  0.9501  1.6975
 4452TIP3   OH213319   0.399   0.647   0.822  0.1808 -0.2091 -0.7546
 4452TIP3    H113320   0.335   0.577   0.833 -0.8802  0.7833 -0.3563
 4452TIP3    H213321   0.387   0.676   0.731  0.4261 -0.3657 -0.8364
 4453TIP3   OH213322   0.301   0.442   4.986 -0.0864  0.1012  0.1143
 4453TIP3    H113323   0.272   0.444   4.895  0.8639 -0.8163 -0.2281
 4453TIP3    H213324   0.275   0.527   5.021 -0.4674  0.4695 -1.0099
 4454TIP3   OH213325   7.204   1.071   3.314  0.4433 -0.5046  0.0577
 4454TIP3    H113326   7.147   0.995   3.310  0.2610 -0.3502 -0.3160
 4454TIP3    H213327   7.156   1.134   3.369  0.7924 -0.8226  0.7346
 4455TIP3   OH213328   3.707   0.391   2.180  0.2420 -0.0840  0.1242
 4455TIP3    H113329   3.695   0.297   2.193  0.3259 -0.2423 -0.8379
 4455TIP3    H213330   3.649   0.432   2.243 -0.3553 -0.7889  0.0433
 4456TIP3   OH213331   6.472   3.260   5.157  0.2432  0.0327 -0.2417
 4456TIP3    H113332   6.568   3.253   5.158  0.1440 -1.9842  0.6592
 4456TIP3    H213333   6.444   3.186   5.103 -0.8219  0.2973 -0.0540
 4457TIP3   OH213334   3.745   0.298   3.687 -0.4380  0.2141 -0.0852
 4457TIP3    H113335   3.764   0.349   3.765 -0.4635 -1.1324  0.8360
 4457TIP3    H213336   3.652   0.314   3.670 -0.7286 -0.3696  0.8599
 4458TIP3   OH213337   6.517   4.161   5.693 -0.1436  0.7372  0.3550
 4458TIP3    H113338   6.524   4.212   5.613 -0.4131  0.0112 -0.1412
 4458TIP3    H213339   6.508   4.070   5.664 -2.3121  0.6338  1.1031
 4459TIP3   OH213340   4.154   1.884   0.453  0.1300 -0.6702 -0.4263
 4459TIP3    H113341   4.110   1.961   0.418  0.8289 -0.9239 -1.9936
 4459TIP3    H213342   4.097   1.810   0.429  0.7181 -0.8676 -1.2789
 4460TIP3   OH213343   1.205   1.512   4.633  0.4086 -0.4539  0.1068
 4460TIP3    H113344   1.125   1.481   4.592 -0.1888  1.2479 -0.0746
 4460TIP3    H213345   1.184   1.599   4.666  1.8782 -0.3882  0.9950
 4461TIP3   OH213346   5.444   2.724   1.673  0.5605 -0.0788  0.7580
 4461TIP3    H113347   5.432   2.811   1.712 -0.6383 -1.5625  4.1572
 4461TIP3    H213348   5.355   2.691   1.661  1.0007 -0.8872 -0.4621
 4462TIP3   OH213349   5.890   0.295   0.575  0.3586 -0.7884 -0.0476
 4462TIP3    H113350   5.914   0.346   0.652  1.4894 -3.1522  1.2566
 4462TIP3    H213351   5.794   0.299   0.573  0.3905  2.1880 -0.6614
 4463TIP3   OH213352   4.112   3.994   1.195  0.6763  0.6349  0.1731
 4463TIP3    H113353   4.177   3.997   1.265  0.3034  1.0961  0.5076
 4463TIP3    H213354   4.048   4.061   1.219  0.0115  0.1011 -0.0845
 4464TIP3   OH213355   0.572   1.631   1.928  0.1633  0.2363  0.5014
 4464TIP3    H113356   0.602   1.638   1.837 -2.0081  1.5104 -0.1907
 4464TIP3    H213357   0.652   1.635   1.980  1.3065  2.8311 -1.2516
 4465TIP3   OH213358   0.354   2.554   2.381  0.2374 -0.0116 -0.5050
 4465TIP3    H113359   0.309   2.604   2.449 -1.1057  0.1574 -1.4731
 4465TIP3    H213360   0.295   2.558   2.305  1.5513 -0.4399 -1.5906
 4466TIP3   OH213361   1.089   5.730   1.284  0.1729 -0.3405 -0.7627
 4466TIP3    H113362   1.138   5.661   1.238  0.2503 -1.1271  0.4425
 4466TIP3    H213363   1.029   5.765   1.218  0.1680 -1.5296 -1.4209
 4467TIP3   OH213364   2.647   1.551   3.579 -0.3214  0.2491  0.3923
 4467TIP3    H113365   2.612   1.473   3.622 -3.4431  0.9276 -0.6628
 4467TIP3    H213366   2.581   1.574   3.514  1.8761  2.1336 -1.3432
 4468TIP3   OH213367   4.381   4.604   1.243  0.2662  0.3564 -0.2274
 4468TIP3    H113368   4.331   4.547   1.184 -0.8994  0.9987  0.1065
 4468TIP3    H213369   4.466   4.614   1.201 -0.5625  0.8682 -1.8598
 4469TIP3   OH213370   2.567   5.990   0.923  0.3013  0.4581  0.3421
 4469TIP3    H113371   2.490   6.018   0.972  0.1362  1.1148 -0.2764
 4469TIP3    H213372   2.579   6.057   0.856 -0.0184 -0.8751 -1.1040
 4470TIP3   OH213373   6.402   1.943   5.395  0.5686 -0.1011 -0.2107
 4470TIP3    H113374   6.363   1.922   5.310  2.1510 -0.7108 -0.8098
 4470TIP3    H213375   6.386   2.037   5.406 -0.5220 -0.2152 -0.7040
 4471TIP3   OH213376   4.529   1.598   0.390  0.0876  0.6050 -0.0934
 4471TIP3    H113377   4.483   1.664   0.442 -1.9905 -1.7869  1.3097
 4471TIP3    H213378   4.511   1.623   0.299 -1.1688  1.6389  0.4046
 4472TIP3   OH213379   2.135   2.786   5.396  0.0336  0.4479  0.3163
 4472TIP3    H113380   2.147   2.864   5.342  0.1607 -0.4578 -1.0331
 4472TIP3    H213381   2.089   2.725   5.339 -1.7247  0.1524  1.9531
 4473TIP3   OH213382   0.441   3.521   1.657 -0.4142 -0.4118  0.0023
 4473TIP3    H113383   0.468   3.573   1.581  1.0282 -0.4429  0.4454
 4473TIP3    H213384   0.524   3.497   1.699 -1.1800 -0.1039  1.7667
 4474TIP3   OH213385   1.852   6.722   2.988 -0.3737  0.0430 -0.0162
 4474TIP3    H113386   1.932   6.672   2.973  0.2996  0.8525  0.7749
 4474TIP3    H213387   1.802   6.713   2.907 -0.2897 -1.9007  0.0801
 4475TIP3   OH213388   0.442   2.948   1.040  0.3088 -0.1759  0.1819
 4475TIP3    H113389   0.383   2.874   1.028 -0.4974  0.4640  0.0257
 4475TIP3    H213390   0.503   2.943   0.967  0.0008 -0.4528 -0.0580
 4476TIP3   OH213391   4.976   6.753   2.213 -0.8149 -0.0416  0.5754
 4476TIP3    H113392   4.976   6.744   2.308  0.8113  1.2488  0.7343
 4476TIP3    H213393   4.918   6.827   2.196 -1.2415 -0.3791  0.5222
 4477TIP3   OH213394   3.855   2.956   3.076 -0.0202  0.1475 -0.4184
 4477TIP3    H113395   3.786   2.908   3.122 -0.6207  0.2919 -1.1398
 4477TIP3    H213396   3.895   2.891   3.018  0.3387  0.1044 -0.1234
 4478TIP3   OH213397   0.646   5.533   0.946  0.1308 -0.4401  0.6597
 4478TIP3    H113398   0.638   5.615   0.897 -3.5174  0.9780  3.1334
 4478TIP3    H213399   0.736   5.532   0.979  0.7098  1.7928 -0.6703
 4479TIP3   OH213400   6.453   0.883   0.559 -0.0404 -0.3291 -0.1448
 4479TIP3    H113401   6.533   0.913   0.516  0.3336 -4.1421 -2.6776
 4479TIP3    H213402   6.384   0.896   0.494 -1.0351  0.5123  1.0226
 4480TIP3   OH213403   6.601   3.358   4.109  0.0783 -0.4671  0.7367
 4480TIP3    H113404   6.659   3.425   4.073 -3.0446  2.0258 -0.1734
 4480TIP3    H213405   6.541   3.338   4.038 -0.8085 -2.1966  1.8989
 4481TIP3   OH213406   1.269   1.817   3.658  0.5316  0.1879  0.4784
 4481TIP3    H113407   1.213   1.825   3.735  2.1338 -0.2840  1.7448
 4481TIP3    H213408   1.230   1.877   3.594 -1.5481 -0.3299  1.1789
 4482TIP3   OH213409   1.405   0.844   0.124  0.4791  0.6714  0.5287
 4482TIP3    H113410   1.351   0.805   0.055 -1.1523  1.9076  1.0519
 4482TIP3    H213411   1.492   0.804   0.111  0.5708  1.6526 -2.9360
 4483TIP3   OH213412   2.703   5.877   2.100 -0.1303 -0.0533  0.4467
 4483TIP3    H113413   2.635   5.940   2.076 -0.0520  0.1540  0.7506
 4483TIP3    H213414   2.763   5.876   2.025  0.1946  0.6998  0.6822
 4484TIP3   OH213415   1.764   5.351   3.712 -0.8235 -0.2137 -0.1374
 4484TIP3    H113416   1.845   5.372   3.664 -1.1706  0.1569 -0.5695
 4484TIP3    H213417   1.724   5.281   3.661 -2.5390  1.9480 -1.9651
 4485TIP3   OH213418   3.095   4.728   5.505 -0.5647 -0.6290  0.7117
 4485TIP3    H113419   3.147   4.807   5.521 -1.1448 -0.0473 -0.1443
 4485TIP3    H213420   3.155   4.655   5.521  0.8722  0.0211 -1.2784
 4486TIP3   OH213421   4.185   5.033   4.912  0.0776  0.2329 -0.1107
 4486TIP3    H113422   4.095   5.054   4.936  0.1219 -1.3235  1.5956
 4486TIP3    H213423   4.236   5.106   4.948 -0.1157 -0.9134  2.7709
 4487TIP3   OH213424   5.050   3.162   1.991  0.3621 -0.2039  0.1586
 4487TIP3    H113425   5.044   3.202   1.904  1.1877  1.0663  0.6658
 4487TIP3    H213426   5.141   3.135   1.998  0.2634 -0.4310  0.5896
 4488TIP3   OH213427   4.631   5.636   3.769  0.0854 -0.0111  0.5581
 4488TIP3    H113428   4.559   5.593   3.816  0.6315 -0.9821  0.5343
 4488TIP3    H213429   4.640   5.587   3.688 -0.3720  1.2111 -0.2633
 4489TIP3   OH213430   1.923   4.376   2.472 -0.3033  0.4131 -0.1767
 4489TIP3    H113431   1.935   4.458   2.425  1.9760 -0.2515 -0.8954
 4489TIP3    H213432   1.893   4.314   2.405  0.0978  0.1542 -0.1205
 4490TIP3   OH213433   5.505   3.572   3.693 -0.1946 -0.2152 -0.0785
 4490TIP3    H113434   5.523   3.519   3.615  1.0975  1.0265 -0.6680
 4490TIP3    H213435   5.410   3.577   3.697 -0.3271 -1.7637 -0.5514
 4491TIP3   OH213436   3.975   0.294   5.676  0.0055 -0.3386 -0.7587
 4491TIP3    H113437   3.881   0.310   5.672  0.1251  0.4940 -0.3170
 4491TIP3    H213438   3.983   0.218   5.734 -0.2782  0.8010  0.8378
 4492TIP3   OH213439   3.133   0.763   5.476  0.3383 -0.6607 -0.5282
 4492TIP3    H113440   3.105   0.729   5.561 -0.8121 -0.3543 -0.7746
 4492TIP3    H213441   3.185   0.840   5.497 -0.5520 -0.1598 -0.1096
 4493TIP3   OH213442   6.063   3.228   5.177 -0.7190  0.4870  0.8592
 4493TIP3    H113443   6.082   3.251   5.268 -0.2491 -0.0665  0.9068
 4493TIP3    H213444   6.003   3.154   5.183 -0.8793  0.6045  0.7168
 4494TIP3   OH213445   6.927   3.537   2.292  0.0356  0.1822 -0.0798
 4494TIP3    H113446   6.981   3.503   2.221  0.7805 -2.5130  1.6415
 4494TIP3    H213447   6.984   3.598   2.339  0.3807  0.0031 -0.2658
 4495TIP3   OH213448   4.167   3.564   0.036 -0.1810 -0.3613  0.0146
 4495TIP3    H113449   4.193   3.479   0.001  1.3612  0.3707 -0.7183
 4495TIP3    H213450   4.077   3.576   0.006  0.1045 -1.0709 -1.1901
 4496TIP3   OH213451   3.109   1.626   4.235 -0.0603 -0.0514  0.2645
 4496TIP3    H113452   3.087   1.611   4.144 -0.5514 -0.5980  0.4688
 4496TIP3    H213453   3.156   1.547   4.262  0.7950  0.4427  0.2693
 4497TIP3   OH213454   2.947   5.058   2.272 -0.1451 -0.2917 -0.3137
 4497TIP3    H113455   2.968   4.969   2.299 -0.3391 -0.7412 -1.5652
 4497TIP3    H213456   2.973   5.062   2.179  1.0282  1.3276  0.0233
 4498TIP3   OH213457   4.488   1.450   2.862  0.2008 -0.2806 -0.0586
 4498TIP3    H113458   4.579   1.478   2.865  1.2653 -2.9138 -2.7951
 4498TIP3    H213459   4.448   1.503   2.793 -0.3866  0.8299  1.0969
 4499TIP3   OH213460   3.155   4.958   3.433  0.2267 -0.1103  0.3449
 4499TIP3    H113461   3.215   5.028   3.459  0.1933 -0.8548  2.7522
 4499TIP3    H213462   3.070   5.001   3.428  0.7516  0.7740 -2.2290
 4500TIP3   OH213463   3.142   0.452   5.633 -0.2939 -0.0831  0.4025
 4500TIP3    H113464   3.172   0.366   5.662  2.5709  0.3538 -0.9075
 4500TIP3    H213465   3.122   0.440   5.540 -0.7120  0.4804  0.4162
 4501TIP3   OH213466   3.712   0.019   0.443 -0.2527 -0.6053 -0.1021
 4501TIP3    H113467   3.713  -0.069   0.405  1.0973 -1.6242  2.1185
 4501TIP3    H213468   3.795   0.058   0.416 -0.3478 -0.4281 -0.1464
 4502TIP3   OH213469   4.730   2.907   5.584 -0.3168 -0.1345  0.3664
 4502TIP3    H113470   4.666   2.962   5.539  0.3734 -0.4990 -1.1490
 4502TIP3    H213471   4.720   2.821   5.543  0.5736 -0.3982  0.6702
 4503TIP3   OH213472   3.654   2.520   1.936  0.1930 -0.5175 -0.0850
 4503TIP3    H113473   3.726   2.465   1.904  0.6155 -0.5180  0.8647
 4503TIP3    H213474   3.630   2.573   1.860  1.5002 -0.1810 -0.2913
 4504TIP3   OH213475   4.073   1.177   4.575  0.1682  0.5281  0.5283
 4504TIP3    H113476   4.011   1.232   4.621 -0.6614 -0.0626  0.1453
 4504TIP3    H213477   4.155   1.188   4.623 -0.3778  0.8336  1.4184
 4505TIP3   OH213478   5.977   0.196   3.893  0.2321  0.1900 -0.4903
 4505TIP3    H113479   5.976   0.101   3.883 -1.8052 -0.0573  1.3856
 4505TIP3    H213480   6.033   0.211   3.970  0.2499  0.4754 -0.5590
 4506TIP3   OH213481   0.493   5.844   5.224 -0.2775  0.3123 -0.5435
 4506TIP3    H113482   0.527   5.933   5.225 -0.4539  0.4193  2.2784
 4506TIP3    H213483   0.403   5.852   5.255 -0.6562 -0.7389 -1.3251
 4507TIP3   OH213484   3.392   6.316   3.630  0.3420  0.0726 -0.2843
 4507TIP3    H113485   3.308   6.270   3.638 -1.0446  2.6407  0.8576
 4507TIP3    H213486   3.429   6.283   3.548 -2.2505 -0.3840 -1.3635
 4508TIP3   OH213487   1.860   3.910   1.726  0.6111  0.5337 -0.2464
 4508TIP3    H113488   1.905   3.827   1.711 -1.4008 -0.7176  0.2240
 4508TIP3    H213489   1.829   3.905   1.816  0.0166  1.5855 -0.3769
 4509TIP3   OH213490   1.180   3.579   1.788 -0.0124  0.1883  0.1273
 4509TIP3    H113491   1.252   3.589   1.726  0.3207 -1.0613  0.2772
 4509TIP3    H213492   1.161   3.668   1.818  0.7543  0.6493 -0.7117
 4510TIP3   OH213493   3.847   0.917   1.555 -0.5628 -0.2722  0.0107
 4510TIP3    H113494   3.816   0.895   1.468 -1.8337 -0.1233  0.3989
 4510TIP3    H213495   3.834   0.837   1.606  1.0466 -0.6591 -0.1300
 4511TIP3   OH213496   0.340   3.875   0.624 -0.1054 -0.3689  0.3722
 4511TIP3    H113497   0.367   3.923   0.702 -1.5688 -0.3050  0.8723
 4511TIP3    H213498   0.264   3.824   0.652 -0.7600 -0.2291 -1.0591
 4512TIP3   OH213499   1.963   6.254   2.244 -0.0367  0.1440  0.2532
 4512TIP3    H113500   1.962   6.350   2.248  0.3895  0.1712 -0.2072
 4512TIP3    H213501   1.871   6.229   2.257 -0.0361  0.5775  1.1363
 4513TIP3   OH213502   7.156   5.516   2.574 -0.2081  0.1879  0.2079
 4513TIP3    H113503   7.078   5.542   2.623 -0.1394  2.5264 -0.7896
 4513TIP3    H213504   7.122   5.479   2.492 -0.2632 -0.5116  0.5355
 4514TIP3   OH213505   2.396   1.085   2.295  0.5893 -0.0770 -0.2455
 4514TIP3    H113506   2.444   1.153   2.343  0.9889 -0.5388  0.0233
 4514TIP3    H213507   2.385   1.121   2.208  0.3915  0.5251  0.0222
 4515TIP3   OH213508   0.784   1.640   2.117 -0.1658  0.0239 -0.2828
 4515TIP3    H113509   0.785   1.639   2.213 -2.1928  0.1351 -0.2201
 4515TIP3    H213510   0.783   1.733   2.095  0.2679 -0.0023 -0.4234
 4516TIP3   OH213511   4.918   4.091   0.786  0.0163 -0.5908 -0.0675
 4516TIP3    H113512   4.853   4.022   0.780  1.8224 -2.3665 -0.1437
 4516TIP3    H213513   4.998   4.052   0.750  0.9716  1.7189 -0.6361
 4517TIP3   OH213514   0.081   6.068   2.021 -0.3135  0.6228 -0.4752
 4517TIP3    H113515   0.099   6.018   1.941  1.4203  0.9375 -0.3228
 4517TIP3    H213516  -0.014   6.064   2.030 -0.4898 -0.0750 -2.1215
 4518TIP3   OH213517   1.433   2.859   2.981  0.1915 -0.1858  0.0656
 4518TIP3    H113518   1.430   2.805   2.902 -1.3925 -0.3690  0.2189
 4518TIP3    H213519   1.469   2.802   3.048 -0.8054 -0.8583  0.0519
 4519TIP3   OH213520   3.105   6.509   1.717 -0.5629 -0.4862  0.1456
 4519TIP3    H113521   3.162   6.434   1.736 -0.4263 -0.5064 -0.3262
 4519TIP3    H213522   3.155   6.585   1.746 -0.2506 -0.4959 -0.3452
 4520TIP3   OH213523   2.267   1.884   4.128 -0.1179  0.1613 -0.8441
 4520TIP3    H113524   2.221   1.956   4.085  1.3734  1.9095  0.3416
 4520TIP3    H213525   2.352   1.881   4.084  0.6997  0.6993  0.6491
 4521TIP3   OH213526   3.135   6.162   3.809  0.1832  0.4306  1.1128
 4521TIP3    H113527   3.122   6.231   3.875  0.0447 -0.6719  2.2693
 4521TIP3    H213528   3.127   6.080   3.858 -2.4526 -0.5284 -0.6723
 4522TIP3   OH213529   4.890   4.437   0.020  0.1307 -0.0588 -0.1255
 4522TIP3    H113530   4.881   4.521   0.066  0.1965 -0.5467  0.8017
 4522TIP3    H213531   4.806   4.393   0.034  0.8759 -1.0965  1.3772
 4523TIP3   OH213532   1.773   5.185   4.425  0.0536 -0.5473 -0.9437
 4523TIP3    H113533   1.767   5.250   4.355  1.2856  0.8293  0.1716
 4523TIP3    H213534   1.706   5.120   4.403  0.4303 -0.2029 -3.4196
 4524TIP3   OH213535   0.085   1.507   4.456 -0.0617  0.3106  0.3696
 4524TIP3    H113536   0.086   1.537   4.546  1.1254  0.8346  0.1936
 4524TIP3    H213537   0.163   1.451   4.447  0.8886  1.7445 -0.7891
 4525TIP3   OH213538   5.842   1.762   0.692  0.0342 -0.5837 -0.0328
 4525TIP3    H113539   5.817   1.788   0.603  0.6782 -0.5916 -0.2222
 4525TIP3    H213540   5.848   1.845   0.740 -0.3149 -0.5795  0.0035
 4526TIP3   OH213541   0.307   4.129   3.095  0.0658  0.2663 -0.0183
 4526TIP3    H113542   0.305   4.224   3.092 -1.0445  0.4255  2.9375
 4526TIP3    H213543   0.215   4.103   3.099  0.3216 -1.0095 -1.2760
 4527TIP3   OH213544   1.629   1.914   2.009 -0.0309 -0.0534  0.5398
 4527TIP3    H113545   1.667   1.831   1.982  0.3255 -0.2766  1.6841
 4527TIP3    H213546   1.702   1.963   2.046 -0.5945  0.0003  1.6251
 4528TIP3   OH213547   2.783   6.457   2.117 -0.3128 -0.1708 -0.4364
 4528TIP3    H113548   2.840   6.490   2.048 -0.2345 -0.4436 -0.5060
 4528TIP3    H213549   2.755   6.535   2.165  0.8573 -0.1073  0.1794
 4529TIP3   OH213550   3.598   3.460   5.429 -0.0990  0.2785  0.1390
 4529TIP3    H113551   3.668   3.415   5.382  1.0164  1.0846  0.9656
 4529TIP3    H213552   3.589   3.544   5.382 -0.8027  0.0046 -0.2158
 4530TIP3   OH213553   3.459   0.812   4.226  0.3669 -0.1345 -0.1713
 4530TIP3    H113554   3.545   0.840   4.194  0.9937 -1.2198  0.5266
 4530TIP3    H213555   3.411   0.894   4.240  1.5831  0.5237  0.2674
 4531TIP3   OH213556   5.377   1.178   1.782  0.3993 -0.2489  0.2249
 4531TIP3    H113557   5.430   1.241   1.734  2.1550 -0.3172  1.9823
 4531TIP3    H213558   5.382   1.206   1.874 -1.0206 -1.3910  0.6987
 4532TIP3   OH213559   0.656   6.668   4.515 -0.3469 -0.0219 -0.5178
 4532TIP3    H113560   0.648   6.736   4.581  1.2728  0.5840 -0.8911
 4532TIP3    H213561   0.649   6.586   4.564  0.7566  0.4137  0.4286
 4533TIP3   OH213562   1.060   0.547   0.062 -0.6350 -0.0820 -0.0438
 4533TIP3    H113563   1.063   0.551   0.157 -2.5739  0.6541  0.0285
 4533TIP3    H213564   1.035   0.635   0.034 -1.8601 -0.7375 -1.1130
 4534TIP3   OH213565   5.656   2.602   5.657 -0.9920 -0.0275 -0.0735
 4534TIP3    H113566   5.602   2.616   5.580  0.1410 -1.2714 -1.1702
 4534TIP3    H213567   5.709   2.682   5.665  0.5173 -0.7386 -2.0408
 4535TIP3   OH213568   1.229   6.704   2.630 -0.0494 -0.0563 -0.1822
 4535TIP3    H113569   1.304   6.649   2.653  1.0194  0.7920 -1.4596
 4535TIP3    H213570   1.154   6.658   2.667  1.1258 -0.6912  1.5499
 4536TIP3   OH213571   6.182   0.337   5.548 -0.1435 -0.0786 -0.2058
 4536TIP3    H113572   6.239   0.353   5.473  0.3999  0.0571  0.2314
 4536TIP3    H213573   6.183   0.420   5.596 -0.1330 -0.3076  0.1881
 4537TIP3   OH213574   2.819   4.804   5.565 -0.1897 -0.4427 -0.0503
 4537TIP3    H113575   2.816   4.860   5.643  1.5181 -0.0234 -0.2633
 4537TIP3    H213576   2.908   4.769   5.564 -0.3628 -0.8856 -1.5190
 4538TIP3   OH213577   6.116   1.996   4.473 -0.5985  0.0530 -0.5518
 4538TIP3    H113578   6.032   2.009   4.429 -0.2803  0.4074 -1.0655
 4538TIP3    H213579   6.180   2.035   4.414 -0.1045  0.0588 -0.0209
 4539TIP3   OH213580   1.686   0.290  -0.017  0.2399  0.8740 -0.2013
 4539TIP3    H113581   1.698   0.195  -0.014 -2.7193  0.4075  0.1388
 4539TIP3    H213582   1.689   0.318   0.074 -0.2939  0.8698 -0.1792
 4540TIP3   OH213583   0.895   1.208   0.832  0.3990 -0.0644  0.2341
 4540TIP3    H113584   0.980   1.172   0.855  0.8602  1.7991  1.7732
 4540TIP3    H213585   0.912   1.301   0.814 -1.0926  0.0314 -0.9305
 4541TIP3   OH213586   5.391   4.023   2.006 -0.1274  0.0645  0.5649
 4541TIP3    H113587   5.439   4.106   2.009 -0.5766  0.3029  1.3781
 4541TIP3    H213588   5.456   3.960   1.976 -0.0477  0.8812 -1.0999
 4542TIP3   OH213589   0.997   1.470   2.905 -0.5609 -0.4061 -0.0196
 4542TIP3    H113590   0.963   1.551   2.869 -1.3956 -0.9556 -0.4999
 4542TIP3    H213591   0.949   1.401   2.859  0.3989 -1.1839  0.1005
 4543TIP3   OH213592   4.698   2.545   2.144  0.2042  0.2032  0.0814
 4543TIP3    H113593   4.676   2.629   2.103 -0.0667  0.4767  0.7697
 4543TIP3    H213594   4.792   2.550   2.161  0.2384  0.2568 -0.1255
 4544TIP3   OH213595   1.155   4.475   5.112  0.2812  0.4204  0.6799
 4544TIP3    H113596   1.168   4.452   5.020  1.2289  1.1074  0.6209
 4544TIP3    H213597   1.149   4.571   5.112  1.9370  0.5681  1.4749
 4545TIP3   OH213598   0.787   5.857   2.973 -0.0254  0.3121  0.0598
 4545TIP3    H113599   0.873   5.874   3.010 -0.8600  1.6170  1.5150
 4545TIP3    H213600   0.766   5.936   2.922 -1.0084  0.7220  1.0540
 4546TIP3   OH213601   2.278   5.675   1.455 -0.7838  0.2097  0.3896
 4546TIP3    H113602   2.281   5.579   1.462  0.0362  0.1738 -0.3174
 4546TIP3    H213603   2.230   5.692   1.375 -1.7837  0.4223  1.0187
 4547TIP3   OH213604   5.317   4.664   1.555  0.3297  0.2950  0.0379
 4547TIP3    H113605   5.241   4.613   1.526 -0.2612  0.6419  0.9289
 4547TIP3    H213606   5.313   4.744   1.504  0.4595  0.0438 -0.3689
 4548TIP3   OH213607   0.808   6.551   0.563  0.3377  0.4019  0.1964
 4548TIP3    H113608   0.899   6.522   0.550  0.0715 -0.5468  0.3603
 4548TIP3    H213609   0.812   6.610   0.638  0.9361  0.9993 -0.2904
 4549TIP3   OH213610   3.192   2.617   5.608 -0.0214  0.0248 -0.2162
 4549TIP3    H113611   3.174   2.559   5.683 -1.3195 -0.8036 -1.1316
 4549TIP3    H213612   3.150   2.700   5.632  0.0966 -0.0439  0.2380
 4550TIP3   OH213613   6.752   3.068   3.025  0.0903 -0.6018  0.4195
 4550TIP3    H113614   6.758   3.036   3.115  0.3058  1.2176  1.0926
 4550TIP3    H213615   6.750   3.163   3.034  1.3259 -0.3378 -1.5602
 4551TIP3   OH213616   1.112   3.626   3.400 -0.0924 -0.0835  0.3789
 4551TIP3    H113617   1.110   3.629   3.304 -1.8653 -1.6524  0.3211
 4551TIP3    H213618   1.159   3.546   3.421 -1.0057 -0.5167  0.7900
 4552TIP3   OH213619   7.180   5.716   1.975 -0.3316 -0.1609 -0.1956
 4552TIP3    H113620   7.202   5.779   2.044  0.4292 -0.2865 -0.3183
 4552TIP3    H213621   7.153   5.771   1.901 -0.9505 -0.0218  0.1240
 4553TIP3   OH213622   2.532   5.669   4.796  0.4269  0.4148  0.3671
 4553TIP3    H113623   2.614   5.623   4.817  0.0196 -0.0236  1.0339
 4553TIP3    H213624   2.509   5.715   4.877 -0.9386 -0.9499  0.8112
 4554TIP3   OH213625   1.052   6.593   1.116 -0.4019  0.0831  0.2550
 4554TIP3    H113626   1.064   6.651   1.041  0.0370 -0.4741 -0.1129
 4554TIP3    H213627   1.119   6.622   1.179 -0.0424 -0.1494 -0.0120
 4555TIP3   OH213628   4.122   5.697   4.278  0.0832  0.1854  0.2108
 4555TIP3    H113629   4.028   5.679   4.288 -0.4881  1.5660 -1.9958
 4555TIP3    H213630   4.159   5.675   4.363 -2.3378  0.2270  1.3738
 4556TIP3   OH213631   3.325   5.568   4.489 -0.8356  0.2564 -0.1364
 4556TIP3    H113632   3.353   5.561   4.581 -0.0050 -0.7788 -0.4419
 4556TIP3    H213633   3.230   5.558   4.492 -0.9389  1.3507  0.7085
 4557TIP3   OH213634   7.091   2.057   0.231  0.3618 -0.3979  0.4082
 4557TIP3    H113635   7.017   2.072   0.173  0.2203 -0.7117  0.5033
 4557TIP3    H213636   7.055   2.007   0.304 -0.2177  2.7784  2.4857
 4558TIP3   OH213637   6.220   4.441   4.784 -0.3455  0.4113  0.4445
 4558TIP3    H113638   6.277   4.504   4.828 -0.9758  0.2561  1.5254
 4558TIP3    H213639   6.151   4.422   4.848  1.1875 -3.3598  1.2020
 4559TIP3   OH213640   5.353   0.287   3.498 -0.2528 -0.1396 -0.2792
 4559TIP3    H113641   5.266   0.310   3.531 -0.8526 -2.3415 -0.1699
 4559TIP3    H213642   5.413   0.310   3.569 -0.5961  2.2161 -0.6923
 4560TIP3   OH213643   1.430   6.612   2.823  0.2927 -0.2864  0.5619
 4560TIP3    H113644   1.512   6.563   2.833  0.4556  0.0689  1.0666
 4560TIP3    H213645   1.451   6.699   2.856 -0.0204  0.0972 -0.2333
 4561TIP3   OH213646   7.056   2.346   1.901  0.1169 -0.4760 -0.0658
 4561TIP3    H113647   6.982   2.388   1.856  0.0308 -2.3790 -1.8697
 4561TIP3    H213648   7.020   2.264   1.934  1.5114 -1.7825 -1.5945
 4562TIP3   OH213649   3.252   2.203   2.464 -0.3764  0.1688  0.1134
 4562TIP3    H113650   3.168   2.248   2.479 -1.2535 -0.8590 -1.4422
 4562TIP3    H213651   3.232   2.111   2.480  0.5438 -0.0504  0.0026
 4563TIP3   OH213652   4.968   1.373   2.495 -0.2179 -0.2457  1.0987
 4563TIP3    H113653   4.934   1.418   2.417  1.7521  0.8160  0.7769
 4563TIP3    H213654   5.056   1.345   2.469  0.1809 -0.5582  2.7057
 4564TIP3   OH213655   2.483   5.920   5.407 -0.7259  0.0553  0.7908
 4564TIP3    H113656   2.495   5.898   5.499 -0.0292 -2.5463  0.1363
 4564TIP3    H213657   2.475   5.836   5.363 -0.8708  1.2363 -1.5650
 4565TIP3   OH213658   3.602   5.943   4.864  0.4803  0.4097 -0.6554
 4565TIP3    H113659   3.508   5.958   4.879  0.6526  0.5812  0.3436
 4565TIP3    H213660   3.645   5.996   4.931  1.2450 -0.6336 -0.2991
 4566TIP3   OH213661   4.988   6.693   3.349  0.2422  0.3195  0.7180
 4566TIP3    H113662   4.944   6.669   3.267  0.6960 -1.2747  0.8996
 4566TIP3    H213663   5.036   6.772   3.329  0.3624 -0.0609 -0.5684
 4567TIP3   OH213664   6.073   0.673   4.457 -0.0062  0.1759  0.0656
 4567TIP3    H113665   6.087   0.590   4.502 -0.1972 -1.2077 -2.2640
 4567TIP3    H213666   5.993   0.709   4.496 -0.4604 -1.2079  0.4491
 4568TIP3   OH213667   4.634   4.577   2.018  0.0493 -0.3774 -0.3677
 4568TIP3    H113668   4.680   4.493   2.022 -0.1241 -0.5619 -1.7595
 4568TIP3    H213669   4.581   4.572   1.938 -2.2470 -0.0791  1.0317
 4569TIP3   OH213670   6.611   2.137   5.629 -0.3596 -0.0629  0.4442
 4569TIP3    H113671   6.637   2.183   5.549 -0.0074 -0.0804  0.5496
 4569TIP3    H213672   6.524   2.172   5.649 -0.3739  0.0725  0.1559
 4570TIP3   OH213673   3.076   4.580   4.061 -0.3361 -0.4518  0.1491
 4570TIP3    H113674   3.099   4.505   4.006 -2.1086 -0.7768 -0.2246
 4570TIP3    H213675   3.021   4.634   4.004 -0.3637  0.3451  0.9192
 4571TIP3   OH213676   5.178   4.345   3.287 -0.4477 -0.3657 -0.1505
 4571TIP3    H113677   5.229   4.306   3.358  0.2818  1.1390  0.2092
 4571TIP3    H213678   5.088   4.343   3.318 -0.3884 -1.3911  0.0027
 4572TIP3   OH213679   0.897   0.402   5.367 -0.5640  0.3481 -0.4595
 4572TIP3    H113680   0.901   0.372   5.276  1.3313 -0.1713 -0.2504
 4572TIP3    H213681   0.832   0.473   5.366 -0.3811  0.5477 -2.2717
 4573TIP3   OH213682   4.018   4.424   1.844  0.1170 -0.2796 -0.0565
 4573TIP3    H113683   4.101   4.403   1.802  1.2385  0.4123  1.7117
 4573TIP3    H213684   3.999   4.514   1.816  0.9610  0.2516  0.9829
 4574TIP3   OH213685   5.031   4.142   3.726  0.2353  0.0057  0.5283
 4574TIP3    H113686   5.056   4.184   3.644  2.3882  0.7467  1.4664
 4574TIP3    H213687   5.057   4.050   3.716 -0.7032 -0.2014 -0.0639
 4575TIP3   OH213688   6.530   6.054   2.368 -0.2715 -0.0023 -0.5118
 4575TIP3    H113689   6.461   6.019   2.311 -0.5156 -0.2142 -0.0864
 4575TIP3    H213690   6.519   6.149   2.362 -0.8393 -0.0383 -0.1639
 4576TIP3   OH213691   5.767   3.657   5.794  0.0475  0.0969  0.6411
 4576TIP3    H113692   5.691   3.646   5.738 -0.4198 -1.5631  1.5624
 4576TIP3    H213693   5.732   3.660   5.883  1.1139 -1.9190  1.1737
 4577TIP3   OH213694   1.848   3.891   0.368  0.2997  0.1982  0.1263
 4577TIP3    H113695   1.836   3.939   0.450  1.0660  2.4644 -1.0001
 4577TIP3    H213696   1.904   3.948   0.315  2.3365 -2.5580 -0.8816
 4578TIP3   OH213697   1.790   4.796   5.286  0.1087 -0.3634  0.0766
 4578TIP3    H113698   1.728   4.855   5.243  0.3708 -0.4556 -0.4286
 4578TIP3    H213699   1.876   4.837   5.273  0.0587  0.3504  1.7359
 4579TIP3   OH213700   6.925   2.691   4.556  0.2398  0.1337  0.1363
 4579TIP3    H113701   6.988   2.757   4.586  1.0755 -0.6105  0.0656
 4579TIP3    H213702   6.963   2.657   4.476 -0.3145 -0.2538  0.0338
 4580TIP3   OH213703   3.612   4.357   4.133  0.0473 -0.4968  0.5154
 4580TIP3    H113704   3.583   4.267   4.118 -0.8902  0.1230 -1.9305
 4580TIP3    H213705   3.581   4.405   4.056  0.4620  1.9457  1.7797
 4581TIP3   OH213706   5.297   3.330   2.682 -0.6437 -0.1557 -0.4303
 4581TIP3    H113707   5.222   3.301   2.631 -0.9824 -1.1772  0.6078
 4581TIP3    H213708   5.261   3.388   2.748 -0.3902  0.0656 -0.4822
 4582TIP3   OH213709   0.079   2.139   3.813  0.0991  0.8111 -0.2695
 4582TIP3    H113710   0.065   2.176   3.726 -0.4743  2.7725  0.5955
 4582TIP3    H213711   0.117   2.053   3.796 -2.6931 -0.1280 -2.5063
 4583TIP3   OH213712   2.884   2.375   0.305  0.4151  0.6026  0.4221
 4583TIP3    H113713   2.974   2.350   0.285  0.6489 -0.7233  2.8461
 4583TIP3    H213714   2.892   2.448   0.367 -0.2421  1.4884 -0.4897
 4584TIP3   OH213715   6.706   5.587   5.481 -0.0016  0.5011 -0.7514
 4584TIP3    H113716   6.757   5.507   5.491 -0.9579 -0.2124 -1.3352
 4584TIP3    H213717   6.761   5.645   5.429  0.0718 -0.3923 -1.7003
 4585TIP3   OH213718   4.954   2.217   2.386  0.1074  0.0941  0.0883
 4585TIP3    H113719   4.970   2.211   2.481 -0.7186 -0.2408  0.2135
 4585TIP3    H213720   4.942   2.310   2.370  0.5594  0.1848  0.2590
 4586TIP3   OH213721   6.127   6.743   0.561  0.4528  0.1951  0.5305
 4586TIP3    H113722   6.218   6.720   0.542  0.3036 -0.5018  0.6267
 4586TIP3    H213723   6.087   6.661   0.590 -0.3793  0.3377 -0.1545
 4587TIP3   OH213724   6.611   5.954   4.749 -0.1355 -0.0986 -0.3608
 4587TIP3    H113725   6.689   5.978   4.798  1.0731 -0.6162 -1.9802
 4587TIP3    H213726   6.621   5.861   4.730 -2.0704 -0.6673  0.9805
 4588TIP3   OH213727   4.430   0.339   4.584 -0.0154 -0.8374  0.2206
 4588TIP3    H113728   4.474   0.420   4.610  0.0715 -1.8033  3.5978
 4588TIP3    H213729   4.427   0.342   4.489  0.7541  2.6969  0.2001
 4589TIP3   OH213730   4.912   2.846   1.537 -0.0089 -0.0745 -0.1048
 4589TIP3    H113731   4.896   2.940   1.546  1.5987  0.2345 -0.2854
 4589TIP3    H213732   4.909   2.812   1.626  1.5971  0.5425  0.2117
 4590TIP3   OH213733   5.290   6.691   1.404 -0.2832  0.1241  0.2531
 4590TIP3    H113734   5.350   6.765   1.398  0.2714 -0.2713  0.8753
 4590TIP3    H213735   5.204   6.731   1.414 -0.3108  0.7255 -1.8615
 4591TIP3   OH213736   2.282   5.471   0.689 -0.1315  0.2680  0.4432
 4591TIP3    H113737   2.226   5.467   0.767 -0.5055 -2.6499  0.1092
 4591TIP3    H213738   2.367   5.438   0.718  0.6151  1.8977  0.2348
 4592TIP3   OH213739   6.792   3.094   2.688 -0.0426 -0.2306 -0.2566
 4592TIP3    H113740   6.749   3.014   2.720  0.0477  0.1464  0.8640
 4592TIP3    H213741   6.876   3.063   2.654  0.5383 -0.4897  1.3246
 4593TIP3   OH213742   2.125   3.719   0.606 -0.1244 -0.2280  0.0332
 4593TIP3    H113743   2.209   3.764   0.602  0.0522 -0.5714 -0.1665
 4593TIP3    H213744   2.134   3.645   0.546  0.0459 -1.2647  1.2768
 4594TIP3   OH213745   3.784   3.409   0.906 -0.0846  0.3814 -0.0439
 4594TIP3    H113746   3.698   3.410   0.948  0.2872  1.4002  0.7225
 4594TIP3    H213747   3.808   3.501   0.897  2.0768  0.1410  2.1923
 4595TIP3   OH213748   4.820   1.288   5.084 -0.1783 -0.3246  0.4781
 4595TIP3    H113749   4.889   1.354   5.078 -0.6985  0.1028 -1.8912
 4595TIP3    H213750   4.739   1.338   5.089 -0.4198 -0.8255  2.8981
 4596TIP3   OH213751   4.970   2.220   4.062  0.4989 -0.5306  0.1716
 4596TIP3    H113752   4.911   2.194   3.991  0.2562  1.4245 -0.4067
 4596TIP3    H213753   4.947   2.311   4.080  1.5039 -0.5606  1.8294
 4597TIP3   OH213754   1.379   3.465   4.905  0.0134 -0.2958 -0.4058
 4597TIP3    H113755   1.307   3.502   4.957 -1.4474 -0.9554 -1.8666
 4597TIP3    H213756   1.396   3.530   4.838 -0.2365 -0.7707 -0.9378
 4598TIP3   OH213757   1.076   0.312   4.157  0.0523  0.0187  0.1937
 4598TIP3    H113758   1.052   0.389   4.106  0.4592  0.2913  0.4081
 4598TIP3    H213759   1.167   0.294   4.132 -0.3265 -0.9329 -0.5307
 4599TIP3   OH213760   3.410   0.670   5.893  0.1601  0.0808  0.4259
 4599TIP3    H113761   3.336   0.701   5.841 -0.5136  1.3550  2.0344
 4599TIP3    H213762   3.383   0.583   5.923  1.6762 -1.9023 -3.3733
 4600TIP3   OH213763   4.906   5.657   3.500 -0.7683  0.8839 -0.3900
 4600TIP3    H113764   4.980   5.704   3.538  0.8797 -1.6170 -0.2763
 4600TIP3    H213765   4.884   5.707   3.421  1.1054  1.6642 -0.4697
 4601TIP3   OH213766   0.176   2.734   5.057 -0.5850  0.6318  0.5224
 4601TIP3    H113767   0.110   2.678   5.015  1.2319 -1.3611  0.1852
 4601TIP3    H213768   0.158   2.727   5.151 -1.7945  1.3787  0.3657
 4602TIP3   OH213769   0.396   0.651   2.930 -0.1248 -0.4072 -0.3532
 4602TIP3    H113770   0.362   0.564   2.952  0.4810 -0.4554  0.4370
 4602TIP3    H213771   0.490   0.639   2.925 -0.0296  0.2326 -0.1408
 4603TIP3   OH213772   6.386   2.360   2.636  0.4007 -0.3164  0.4266
 4603TIP3    H113773   6.391   2.407   2.719  0.8865  1.1891 -0.3956
 4603TIP3    H213774   6.379   2.268   2.660  0.3391  0.0990  2.1233
 4604TIP3   OH213775   0.280   2.506   0.222 -0.6182  0.2780 -0.6781
 4604TIP3    H113776   0.194   2.547   0.218 -0.5653  0.5014  0.3232
 4604TIP3    H213777   0.304   2.509   0.314  0.6610  0.6168 -1.0095
 4605TIP3   OH213778   0.832   6.682   0.810 -0.0922 -0.1418  0.4735
 4605TIP3    H113779   0.755   6.675   0.868  0.8510 -0.6262  1.7220
 4605TIP3    H213780   0.903   6.709   0.868  0.4573  1.4998 -0.8787
 4606TIP3   OH213781   2.078   4.112   0.427  0.1548  0.1089  0.1965
 4606TIP3    H113782   2.128   4.189   0.453 -0.8429  1.1734 -0.8675
 4606TIP3    H213783   2.085   4.111   0.332 -1.8867  0.3766 -0.0032
 4607TIP3   OH213784   1.340   4.025   4.124 -0.2836 -0.2857  0.2263
 4607TIP3    H113785   1.396   4.003   4.050  0.3631  2.3670 -0.1623
 4607TIP3    H213786   1.251   4.002   4.094 -0.0632  0.9635 -1.4895
 4608TIP3   OH213787   4.001   6.305   3.443  0.2075  0.4733  0.1065
 4608TIP3    H113788   4.022   6.335   3.354  2.1702  0.1373  0.4228
 4608TIP3    H213789   3.951   6.224   3.430  1.1881 -0.0209 -0.7004
 4609TIP3   OH213790   5.472   5.321   2.958 -0.2696  0.3737  0.0016
 4609TIP3    H113791   5.427   5.236   2.952  0.3995  0.0885 -1.3626
 4609TIP3    H213792   5.402   5.385   2.943 -0.3765 -0.0542 -1.6357
 4610TIP3   OH213793   0.376   4.276   4.925  0.3330 -0.5310 -0.0905
 4610TIP3    H113794   0.416   4.224   4.994  0.5453  0.3160  0.4342
 4610TIP3    H213795   0.282   4.274   4.944  0.0281 -2.6998 -1.4451
 4611TIP3   OH213796   2.912   1.484   4.551 -0.2170 -0.4546  0.1427
 4611TIP3    H113797   2.862   1.487   4.469  0.1535 -2.0969 -0.1729
 4611TIP3    H213798   2.990   1.433   4.530  0.6156  0.3425  1.1629
 4612TIP3   OH213799   7.004   0.671   3.406 -0.4356 -0.2328 -0.1806
 4612TIP3    H113800   7.016   0.703   3.316  1.5023 -2.2550 -0.7441
 4612TIP3    H213801   6.944   0.733   3.446 -0.6983  1.2151 -2.6241
 4613TIP3   OH213802   6.608   6.330   2.247  0.3608 -0.4493  0.3106
 4613TIP3    H113803   6.676   6.379   2.202  0.1276 -0.7157 -0.3436
 4613TIP3    H213804   6.526   6.359   2.206  0.1744 -0.9325  0.3375
 4614TIP3   OH213805   2.920   6.270   0.217 -0.0514 -0.4208 -0.0686
 4614TIP3    H113806   2.844   6.251   0.273  1.2535 -0.0409  1.9436
 4614TIP3    H213807   2.959   6.348   0.256  1.9477 -1.1994 -0.3852
 4615TIP3   OH213808   5.151   3.855   3.247  0.2736 -0.7994  0.1490
 4615TIP3    H113809   5.085   3.787   3.260 -3.2448  1.3806 -3.4699
 4615TIP3    H213810   5.139   3.882   3.155  2.2124  3.7637  0.9571
 4616TIP3   OH213811   0.071   1.829   1.597 -0.1727 -0.3476  0.1943
 4616TIP3    H113812   0.095   1.878   1.675  0.1213  0.5762 -0.4637
 4616TIP3    H213813   0.122   1.748   1.603  0.7890  0.2490  0.3604
 4617TIP3   OH213814   4.461   4.353   0.105  0.3941  0.8382 -0.1377
 4617TIP3    H113815   4.387   4.344   0.164  0.7889  1.3353  0.4446
 4617TIP3    H213816   4.447   4.436   0.060  0.0579  0.4269 -0.7997
 4618TIP3   OH213817   0.909   4.979   4.178  0.3211 -0.1561  0.1351
 4618TIP3    H113818   0.857   4.900   4.160 -1.2905  0.4677  1.7571
 4618TIP3    H213819   0.848   5.039   4.220  2.2741  0.7550  1.8618
 4619TIP3   OH213820   7.154   6.376   1.419  0.0421  0.0478 -0.1705
 4619TIP3    H113821   7.219   6.376   1.488  0.6164  2.6388 -0.6153
 4619TIP3    H213822   7.199   6.412   1.342 -1.5945  0.9581 -0.7742
 4620TIP3   OH213823   5.625   1.336   0.835 -0.4031 -0.0537 -0.6580
 4620TIP3    H113824   5.704   1.299   0.875 -1.6243 -1.8372  0.2143
 4620TIP3    H213825   5.586   1.389   0.904  0.1342  1.0316 -1.1699
 4621TIP3   OH213826   1.640   2.470   1.090 -0.7152  0.1882  0.3886
 4621TIP3    H113827   1.624   2.506   1.002  1.2766 -0.1937 -0.1775
 4621TIP3    H213828   1.733   2.484   1.105 -0.4610 -2.0922  1.3559
 4622TIP3   OH213829   1.867   1.498   0.433  0.5866  0.7434 -0.0619
 4622TIP3    H113830   1.901   1.442   0.502  1.9841  0.1419 -1.1941
 4622TIP3    H213831   1.905   1.584   0.450  0.4844  0.7341  0.2190
 4623TIP3   OH213832   3.627   5.386   3.007  0.6796  0.5114  0.0206
 4623TIP3    H113833   3.712   5.373   3.049  0.5788  0.0037  0.0724
 4623TIP3    H213834   3.629   5.477   2.977  2.1321 -0.1095 -1.9492
 4624TIP3   OH213835   1.183   2.929   2.470  0.1694 -0.2115  0.4437
 4624TIP3    H113836   1.158   2.938   2.378  0.4042  0.0026  0.4016
 4624TIP3    H213837   1.267   2.974   2.477 -0.7034  1.3600  1.1549
 4625TIP3   OH213838   0.697   3.336   3.614 -0.6906  0.1292 -0.6100
 4625TIP3    H113839   0.724   3.404   3.551  0.5814 -0.0694 -0.3107
 4625TIP3    H213840   0.661   3.266   3.560  2.1527 -0.8752 -1.3601
 4626TIP3   OH213841   2.987   0.496   4.841 -0.2837 -0.1490  0.4542
 4626TIP3    H113842   3.013   0.459   4.925 -3.5816 -0.2970  1.5605
 4626TIP3    H213843   2.993   0.590   4.852 -0.6554 -0.1705  0.8534
 4627TIP3   OH213844   5.497   4.419   0.722 -0.5352  0.4855  0.1204
 4627TIP3    H113845   5.476   4.505   0.758  0.8868  0.9109  0.0129
 4627TIP3    H213846   5.415   4.370   0.725 -1.2529  1.6904  0.6201
 4628TIP3   OH213847   2.241   4.398   0.512 -0.4318 -0.4674 -0.7473
 4628TIP3    H113848   2.160   4.445   0.491 -1.1196 -1.6708 -0.8354
 4628TIP3    H213849   2.284   4.387   0.427  1.2526  2.5967 -0.4418
 4629TIP3   OH213850   0.026   4.837   1.829 -0.1475 -0.6706  0.2646
 4629TIP3    H113851  -0.035   4.782   1.779 -0.8689  0.0841  0.2929
 4629TIP3    H213852   0.020   4.804   1.918 -0.1061 -0.9399  0.1711
 4630TIP3   OH213853   2.517   4.176   5.446 -0.1022 -0.4430 -0.3453
 4630TIP3    H113854   2.589   4.216   5.397 -0.6251 -0.6827 -1.3355
 4630TIP3    H213855   2.489   4.102   5.392 -2.0426  0.5072 -0.7340
 4631TIP3   OH213856   1.124   4.761   5.096  1.2182  0.3712 -0.0777
 4631TIP3    H113857   1.099   4.807   5.175 -0.6068  0.5897 -0.7354
 4631TIP3    H213858   1.092   4.816   5.024 -1.9190 -2.1671 -0.9067
 4632TIP3   OH213859   1.046   3.830   2.294 -0.1911  0.0125 -0.1069
 4632TIP3    H113860   0.963   3.821   2.341 -0.6541  0.7840 -0.7685
 4632TIP3    H213861   1.055   3.748   2.246 -0.3405 -0.2554  0.3134
 4633TIP3   OH213862   5.390   6.050   0.239  0.2464  0.1730 -0.7794
 4633TIP3    H113863   5.344   5.971   0.268 -0.4154  0.8164 -0.0410
 4633TIP3    H213864   5.454   6.018   0.175 -0.3615 -0.8944 -0.8749
 4634TIP3   OH213865   1.136   2.329   1.744 -0.4752 -0.0571 -0.1419
 4634TIP3    H113866   1.052   2.319   1.789 -0.4716 -1.0477 -0.3163
 4634TIP3    H213867   1.183   2.396   1.793 -0.6497 -0.7858  1.0477
 4635TIP3   OH213868   6.424   0.997   3.426  0.3639  0.4280 -0.3905
 4635TIP3    H113869   6.459   0.984   3.514 -2.3120 -2.0884  0.4579
 4635TIP3    H213870   6.457   0.922   3.376 -1.3376 -0.3899 -0.3517
 4636TIP3   OH213871   0.240   2.777   0.356 -0.7401  0.4334  0.4304
 4636TIP3    H113872   0.167   2.837   0.339 -0.0994  1.1412  0.1264
 4636TIP3    H213873   0.315   2.834   0.370  0.0053 -0.3089 -0.4235
 4637TIP3   OH213874   6.064   4.974   2.946 -0.0748  0.2451 -0.6327
 4637TIP3    H113875   6.039   4.955   3.036  2.8705 -1.1253  0.0194
 4637TIP3    H213876   6.024   4.904   2.894 -2.2673  1.3643 -0.5691
 4638TIP3   OH213877   2.320   2.057   0.064  0.5260 -0.2938 -0.4519
 4638TIP3    H113878   2.350   2.137   0.107  0.2226 -0.6207  0.3882
 4638TIP3    H213879   2.307   2.082  -0.027 -2.0993  1.3426  0.2854
 4639TIP3   OH213880   2.793   2.237   4.491  0.0827 -0.3549  0.9340
 4639TIP3    H113881   2.865   2.174   4.482  1.0377  0.8566 -0.2119
 4639TIP3    H213882   2.830   2.309   4.541  0.0464  0.8325 -0.7156
 4640TIP3   OH213883   3.116   2.882   4.390 -0.0890 -0.0300  0.0530
 4640TIP3    H113884   3.197   2.911   4.430  0.5195 -1.5696  0.0266
 4640TIP3    H213885   3.069   2.962   4.368  1.9249  0.9510 -0.9640
 4641TIP3   OH213886   2.015   2.112   5.043 -0.6695 -0.7872 -0.7383
 4641TIP3    H113887   1.950   2.107   4.972 -0.1797  0.9481 -1.3452
 4641TIP3    H213888   1.996   2.195   5.087 -0.0044 -1.1326  0.2276
 4642TIP3   OH213889   1.064   5.466   5.439  0.3916 -0.1503  0.4353
 4642TIP3    H113890   1.109   5.483   5.521 -0.9331  0.6390  1.0442
 4642TIP3    H213891   1.014   5.546   5.421  0.8945 -0.1777 -1.3177
 4643TIP3   OH213892   2.808   3.102   1.240 -0.5576 -0.3311  0.3880
 4643TIP3    H113893   2.831   3.194   1.252  1.4278 -0.9218  1.6431
 4643TIP3    H213894   2.885   3.062   1.200 -1.2248 -1.5168  0.2324
 4644TIP3   OH213895   4.122   3.667   2.706 -0.8595 -0.3578  0.0154
 4644TIP3    H113896   4.079   3.738   2.753  0.0179 -0.0222  0.3370
 4644TIP3    H213897   4.158   3.611   2.775  0.1271 -0.0595 -0.2387
 4645TIP3   OH213898   3.515   1.477   3.223  0.0948 -0.3555 -0.2744
 4645TIP3    H113899   3.535   1.518   3.138  0.7412 -1.9370 -0.9338
 4645TIP3    H213900   3.549   1.388   3.214  3.7160  0.4535  3.0046
 4646TIP3   OH213901   4.253   4.316   2.788 -0.0988 -0.1271  1.0226
 4646TIP3    H113902   4.330   4.360   2.824  0.2630  0.1245 -0.0250
 4646TIP3    H213903   4.263   4.224   2.815  0.6537 -0.1252  0.7627
 4647TIP3   OH213904   1.530   1.273   1.154  0.1423 -0.1715 -0.0633
 4647TIP3    H113905   1.464   1.339   1.133  0.0001 -0.3904 -0.3081
 4647TIP3    H213906   1.521   1.208   1.085 -0.1161 -0.7472  0.5035
 4648TIP3   OH213907   4.152   5.522   5.040 -0.1253 -0.1687  0.5763
 4648TIP3    H113908   4.059   5.513   5.020 -0.0190 -0.6225  0.2863
 4648TIP3    H213909   4.170   5.451   5.102  0.0167 -0.0460  0.6761
 4649TIP3   OH213910   3.712   0.477   1.482 -0.4711  0.0017 -0.0806
 4649TIP3    H113911   3.629   0.430   1.498  0.2541 -1.9694 -1.6414
 4649TIP3    H213912   3.758   0.473   1.566 -1.5466  0.2809  0.5402
 4650TIP3   OH213913   0.460   4.295   2.689 -0.1333  0.2728 -0.5506
 4650TIP3    H113914   0.498   4.230   2.630  1.5418  0.0260  0.7306
 4650TIP3    H213915   0.385   4.330   2.641 -0.3510 -1.7238 -1.7668
 4651TIP3   OH213916   1.278   4.743   1.211 -0.4170 -0.2102  0.5624
 4651TIP3    H113917   1.271   4.838   1.203 -1.1644 -0.1481  1.7193
 4651TIP3    H213918   1.188   4.711   1.203 -0.1870 -0.8045  0.3211
 4652TIP3   OH213919   2.582   3.804   2.374 -0.1949  0.6760 -0.2709
 4652TIP3    H113920   2.580   3.889   2.330 -0.1446 -0.2473 -2.1246
 4652TIP3    H213921   2.675   3.783   2.382 -0.2133  0.6841 -0.0310
 4653TIP3   OH213922   4.624   3.827   1.349 -0.3717  0.7872 -0.2270
 4653TIP3    H113923   4.614   3.896   1.283 -0.9236  1.4940  0.5809
 4653TIP3    H213924   4.584   3.863   1.428 -0.3001 -0.3056  0.3237
 4654TIP3   OH213925   2.040   5.942   2.618  0.4776  0.0056 -0.4485
 4654TIP3    H113926   2.073   5.972   2.533 -1.8916 -1.0160 -1.8301
 4654TIP3    H213927   2.017   5.850   2.603 -3.5572  0.7793  0.0774
 4655TIP3   OH213928   1.687   3.127   1.680  0.6177  0.3632  0.3431
 4655TIP3    H113929   1.661   3.214   1.710  0.8293  0.5797 -0.0901
 4655TIP3    H213930   1.714   3.140   1.589 -2.3016 -0.6711 -0.7876
 4656TIP3   OH213931   0.588   4.979   4.776  0.2596  0.5395 -0.3307
 4656TIP3    H113932   0.566   4.900   4.825 -0.7715  0.3632 -1.0522
 4656TIP3    H213933   0.586   5.049   4.842  1.6270 -0.0582  0.4060
 4657TIP3   OH213934   4.301   0.500   0.582  0.6189 -0.5240 -0.3130
 4657TIP3    H113935   4.343   0.525   0.499 -0.2589 -0.2243 -0.6842
 4657TIP3    H213936   4.240   0.431   0.558  2.0730 -2.1485  0.5015
 4658TIP3   OH213937   6.687   5.275   0.138  0.0520 -0.4205  0.0355
 4658TIP3    H113938   6.721   5.354   0.181 -1.6054 -0.4267  1.4775
 4658TIP3    H213939   6.707   5.204   0.199 -1.0939 -0.6570  0.1497
 4659TIP3   OH213940   1.037   1.874   5.468 -0.3861 -0.4378  0.4347
 4659TIP3    H113941   1.105   1.875   5.401  1.2643 -1.2574  2.0150
 4659TIP3    H213942   1.007   1.965   5.473  0.6777 -0.0269 -0.2042
 4660TIP3   OH213943   6.650   4.930   4.614  0.3156 -0.0259 -0.2399
 4660TIP3    H113944   6.713   4.882   4.561  0.9679 -0.4927  0.9106
 4660TIP3    H213945   6.565   4.909   4.576  0.7315 -0.6944 -0.8222
 4661TIP3   OH213946   3.080   5.946   2.369 -0.1831 -0.3068  0.0773
 4661TIP3    H113947   3.046   5.858   2.383 -1.4649  0.2577  0.7125
 4661TIP3    H213948   3.175   5.936   2.368 -0.2539 -1.4650  1.8328
 4662TIP3   OH213949   5.166   0.214   2.451  0.2664  0.3946 -0.1779
 4662TIP3    H113950   5.153   0.221   2.546 -0.8553 -1.7026 -0.1181
 4662TIP3    H213951   5.150   0.303   2.418 -0.6558  0.8812  1.4563
 4663TIP3   OH213952   4.085   6.122   1.976 -0.6258  0.1927  0.2871
 4663TIP3    H113953   4.005   6.069   1.974 -1.1069  0.8665  0.9251
 4663TIP3    H213954   4.123   6.111   1.889 -1.5864  0.1077 -0.1439
 4664TIP3   OH213955   0.585   3.236   3.841 -0.6166  0.0349 -0.2750
 4664TIP3    H113956   0.568   3.323   3.878  1.5735  1.6834 -2.7516
 4664TIP3    H213957   0.634   3.254   3.761  0.5042 -3.5670 -0.5525
 4665TIP3   OH213958   4.291   2.879   0.467 -0.0251  0.3431 -0.1351
 4665TIP3    H113959   4.342   2.937   0.412  1.3708 -0.7783 -0.0931
 4665TIP3    H213960   4.309   2.908   0.556 -0.9022  1.0677 -0.1858
 4666TIP3   OH213961   5.862   6.749   4.774  0.3965 -0.2790 -0.1497
 4666TIP3    H113962   5.810   6.684   4.822 -1.6252 -0.2661 -2.1644
 4666TIP3    H213963   5.946   6.705   4.760  0.9628 -0.4198  2.9376
 4667TIP3   OH213964   2.860   4.942   0.108  0.0726 -0.6361 -0.0928
 4667TIP3    H113965   2.942   4.990   0.107  0.4920 -1.3334 -0.0352
 4667TIP3    H213966   2.820   4.960   0.022  0.0230  0.1373  0.0912
 4668TIP3   OH213967   1.698   2.076   1.591  0.3149 -0.0743  0.3405
 4668TIP3    H113968   1.732   1.990   1.612  2.0991  0.6008  0.3960
 4668TIP3    H213969   1.604   2.069   1.605  0.3815 -2.0887  0.0229
 4669TIP3   OH213970   1.806   4.701   4.223 -0.4340 -0.2838  0.2439
 4669TIP3    H113971   1.730   4.644   4.237 -2.3129  1.6043 -1.5060
 4669TIP3    H213972   1.774   4.789   4.242  1.0115  0.6816 -1.4327
 4670TIP3   OH213973   4.267   3.194   0.628 -0.1194  0.1379  0.2501
 4670TIP3    H113974   4.277   3.287   0.610 -0.0733  0.3438  1.2590
 4670TIP3    H213975   4.178   3.186   0.664  0.5563  0.1322  2.0262
 4671TIP3   OH213976   1.084   4.590   3.795  0.5870  0.3345  0.8162
 4671TIP3    H113977   1.166   4.593   3.843  0.5026  0.5465  0.9465
 4671TIP3    H213978   1.019   4.564   3.860  0.6639 -0.5146  0.5628
 4672TIP3   OH213979   3.603   4.788   3.882  0.2938 -0.5754  0.4174
 4672TIP3    H113980   3.666   4.787   3.809  0.0520 -0.9127  0.2067
 4672TIP3    H213981   3.561   4.873   3.876 -0.2410 -0.8744 -0.2997
 4673TIP3   OH213982   6.507   4.009   3.151  0.0296  0.2539  0.2458
 4673TIP3    H113983   6.578   4.070   3.133 -1.2483  1.7034 -0.0909
 4673TIP3    H213984   6.507   3.948   3.077  1.9674 -0.8767  1.0810
 4674TIP3   OH213985   0.929   0.263   1.333  0.0799  0.2219  0.1797
 4674TIP3    H113986   1.006   0.251   1.278 -0.6917  0.1950 -0.9415
 4674TIP3    H213987   0.891   0.175   1.339 -1.1029  0.5964 -1.2119
 4675TIP3   OH213988   7.025   4.226   5.789 -0.5077 -0.3155 -0.1927
 4675TIP3    H113989   7.103   4.258   5.745 -1.8264  1.6002 -1.2842
 4675TIP3    H213990   6.970   4.303   5.801 -2.2020 -1.5709  0.6505
 4676TIP3   OH213991   4.657   6.041   5.774  0.2543 -0.1743 -0.1055
 4676TIP3    H113992   4.707   6.121   5.755 -0.6227  0.3059 -0.4638
 4676TIP3    H213993   4.566   6.069   5.772 -0.0198 -0.9511  0.9611
 4677TIP3   OH213994   1.122   5.648   0.891  0.4179 -0.5678 -0.3733
 4677TIP3    H113995   1.198   5.686   0.934 -0.4115 -0.8324  1.4658
 4677TIP3    H213996   1.083   5.720   0.842  1.1410 -0.1078 -0.2872
 4678TIP3   OH213997   5.692   5.191   4.334 -0.3649 -0.2245 -0.0352
 4678TIP3    H113998   5.754   5.118   4.339  0.0915  0.1858  0.5600
 4678TIP3    H213999   5.647   5.179   4.251 -0.1273 -1.0455 -0.0584
 4679TIP3   OH214000   2.660   6.477   3.579 -0.8438  0.6206 -0.9634
 4679TIP3    H114001   2.577   6.430   3.590 -0.3188 -0.3071 -0.8156
 4679TIP3    H214002   2.715   6.417   3.529 -0.2243  1.1787 -0.9714
 4680TIP3   OH214003   2.405   3.733   2.582 -0.0804  0.0634  0.2849
 4680TIP3    H114004   2.343   3.689   2.524  1.0426 -1.1448 -0.0710
 4680TIP3    H214005   2.464   3.779   2.522  1.2414 -1.3992  0.3774
 4681TIP3   OH214006   2.139   2.946   5.610  0.1635 -0.2001  0.1848
 4681TIP3    H114007   2.119   2.873   5.550  1.5808  1.6284 -2.7264
 4681TIP3    H214008   2.059   2.998   5.610  0.3328  0.0825 -0.6402
 4682TIP3   OH214009   1.631   0.799   5.703 -0.0129  0.3629  0.7557
 4682TIP3    H114010   1.648   0.866   5.636 -0.3524 -1.3653 -1.1625
 4682TIP3    H214011   1.564   0.743   5.664  0.8042 -1.5324  1.9428
 4683TIP3   OH214012   4.558   5.402   1.065 -0.6499  0.7889  0.0716
 4683TIP3    H114013   4.510   5.392   1.148  0.0030 -0.8461  0.3068
 4683TIP3    H214014   4.638   5.351   1.078  0.1404  1.6919 -1.0761
 4684TIP3   OH214015   2.815   6.802   3.781 -0.0815  0.8721 -0.0081
 4684TIP3    H114016   2.782   6.724   3.825  2.6314 -0.4045 -0.0426
 4684TIP3    H214017   2.791   6.790   3.689 -2.7351  1.8811  0.4535
 4685TIP3   OH214018   0.989   1.111   3.948  0.3224  0.1850  0.2970
 4685TIP3    H114019   0.923   1.123   4.016  0.0510  0.4581 -0.0142
 4685TIP3    H214020   0.991   1.194   3.901  1.6392  0.5621  0.9600
 4686TIP3   OH214021   3.024   6.593   1.449  0.3270 -0.0111 -0.1125
 4686TIP3    H114022   3.069   6.516   1.414 -0.0398  0.7954 -2.5424
 4686TIP3    H214023   3.037   6.588   1.544  1.4723 -2.3045 -0.3354
 4687TIP3   OH214024   7.038   3.187   1.084 -0.1307  0.3029 -0.6440
 4687TIP3    H114025   6.986   3.142   1.018 -1.3352 -1.2852  1.2592
 4687TIP3    H214026   6.979   3.251   1.123  0.5907  1.2926 -1.1393
 4688TIP3   OH214027   1.326   4.818   3.018  0.4606 -0.1379 -0.1958
 4688TIP3    H114028   1.280   4.815   2.934 -1.3940  0.4243  0.7557
 4688TIP3    H214029   1.304   4.736   3.061  0.5648  0.0097  0.1471
 4689TIP3   OH214030   4.907   4.064   4.783  0.2343  0.1960 -0.3939
 4689TIP3    H114031   4.924   3.971   4.797 -1.7775  0.1202  2.2425
 4689TIP3    H214032   4.825   4.066   4.734 -0.6106  0.5384  0.9887
 4690TIP3   OH214033   1.341   1.252   2.662 -0.6157  0.7652 -0.0838
 4690TIP3    H114034   1.366   1.190   2.731  0.8070  1.3272 -0.0480
 4690TIP3    H214035   1.267   1.211   2.618  0.2860 -0.9724 -0.0676
 4691TIP3   OH214036   3.364   1.134   3.326 -0.2954  0.0353  0.2238
 4691TIP3    H114037   3.432   1.096   3.272 -0.9001  0.1686 -0.6481
 4691TIP3    H214038   3.336   1.062   3.383 -0.0183 -0.2536 -0.0019
 4692TIP3   OH214039   1.068   0.943   3.340  0.3877  0.4339 -0.2595
 4692TIP3    H114040   1.111   0.857   3.348  1.9784  1.3446  2.2568
 4692TIP3    H214041   0.979   0.929   3.372  1.0370 -0.0799  1.4512
 4693TIP3   OH214042   6.476   5.733   4.064  0.1350 -0.3494 -0.2368
 4693TIP3    H114043   6.515   5.681   4.134  0.8096 -0.4273 -0.6622
 4693TIP3    H214044   6.543   5.797   4.041 -0.2821  0.0190 -0.4498
 4694TIP3   OH214045   1.101   3.979   0.662 -0.2416  0.0215 -0.1172
 4694TIP3    H114046   1.121   3.899   0.612 -1.0864  0.5140 -1.2872
 4694TIP3    H214047   1.014   4.005   0.631 -0.9905  0.1170  1.9489
 4695TIP3   OH214048   0.632   3.700   4.271  0.2308  0.4461  0.2164
 4695TIP3    H114049   0.654   3.739   4.186 -0.2712 -0.6743 -0.4481
 4695TIP3    H214050   0.708   3.648   4.294 -0.9491 -2.1208 -1.3023
 4696TIP3   OH214051   4.735   6.775   4.894  0.5011  0.1540 -0.1810
 4696TIP3    H114052   4.653   6.792   4.847 -0.9447  0.0201  2.0989
 4696TIP3    H214053   4.764   6.690   4.861 -1.1783 -0.5588  0.0192
 4697TIP3   OH214054   5.118   3.364   5.608  0.1321  0.0862 -0.3550
 4697TIP3    H114055   5.080   3.367   5.696  2.1620 -1.7594  0.6643
 4697TIP3    H214056   5.097   3.276   5.576  2.1531 -0.4207 -0.3693
 4698TIP3   OH214057   6.307   3.629   1.758  0.1169  0.4293  0.2189
 4698TIP3    H114058   6.322   3.700   1.820  2.1489  1.9704 -1.9014
 4698TIP3    H214059   6.392   3.586   1.748 -0.0354  0.4782 -1.7538
 4699TIP3   OH214060   0.028   6.538   2.253 -0.7157  0.5815 -0.5724
 4699TIP3    H114061   0.076   6.555   2.334 -1.0091 -0.6681 -0.1221
 4699TIP3    H214062   0.096   6.521   2.187 -0.5051 -0.1384 -0.1788
 4700TIP3   OH214063   4.771   3.909   4.330 -0.6693  0.0580 -0.7050
 4700TIP3    H114064   4.820   3.828   4.348  1.1834  0.7668 -2.1617
 4700TIP3    H214065   4.779   3.960   4.411  0.2558 -0.2344 -0.5880
 4701TIP3   OH214066   2.137   0.789   5.291  0.2535  0.0757 -0.4544
 4701TIP3    H114067   2.113   0.878   5.264  0.2753  0.2884  0.1971
 4701TIP3    H214068   2.085   0.774   5.370  1.9776  0.4258  0.8091
 4702TIP3   OH214069   5.141   3.481   4.482  0.4119  0.0191  0.4655
 4702TIP3    H114070   5.177   3.554   4.533  2.1657 -0.9565  0.7070
 4702TIP3    H214071   5.181   3.403   4.521  0.3635 -0.9054 -1.2346
 4703TIP3   OH214072   4.568   5.326   4.726  0.1107 -0.0344 -0.3883
 4703TIP3    H114073   4.607   5.359   4.645  1.3064  0.5271  0.3811
 4703TIP3    H214074   4.580   5.397   4.789 -1.0437 -0.3555  0.2294
 4704TIP3   OH214075   1.569   6.657   0.068 -0.3096 -0.1203 -0.4524
 4704TIP3    H114076   1.571   6.744   0.028 -0.2927 -0.7695 -1.9335
 4704TIP3    H214077   1.643   6.656   0.128 -0.4168  0.9401 -0.2820
 4705TIP3   OH214078   6.429   5.204   1.933 -0.3213 -0.1148  0.0833
 4705TIP3    H114079   6.344   5.230   1.969  0.1197 -0.8329  1.7736
 4705TIP3    H214080   6.443   5.115   1.968  1.0583 -0.0532 -0.2750
 4706TIP3   OH214081   4.929   2.691   5.335  0.0596 -0.1983  0.2028
 4706TIP3    H114082   4.901   2.756   5.270 -1.4329 -1.4226 -0.4641
 4706TIP3    H214083   4.850   2.674   5.387  0.8780 -0.2369  1.4837
 4707TIP3   OH214084   5.917   1.445   4.311 -0.5098  0.1752 -0.7728
 4707TIP3    H114085   5.901   1.390   4.235 -1.6853 -1.1201  0.3677
 4707TIP3    H214086   6.012   1.456   4.313 -0.0057 -3.2195 -0.1430
 4708TIP3   OH214087   2.920   6.743   2.661 -0.2473 -0.4422  0.1422
 4708TIP3    H114088   2.932   6.781   2.574  1.0554  1.5243  1.1004
 4708TIP3    H214089   2.828   6.758   2.681 -0.5531 -0.8936 -0.8835
 4709TIP3   OH214090   2.004   3.968   2.259  0.2776 -0.7076  0.4268
 4709TIP3    H114091   2.096   3.993   2.253  0.0427 -0.1030 -1.1586
 4709TIP3    H214092   2.006   3.880   2.299  1.6427 -1.3137 -0.8671
 4710TIP3   OH214093   3.809   3.382   2.759 -0.1560  0.1195 -0.0421
 4710TIP3    H114094   3.785   3.299   2.799 -0.6849 -0.2182 -1.0376
 4710TIP3    H214095   3.905   3.380   2.756 -0.1749 -1.4327 -1.9819
 4711TIP3   OH214096   6.238   2.454   4.202  0.0556  0.7849  0.4301
 4711TIP3    H114097   6.256   2.420   4.114 -1.4476 -1.4253  0.8915
 4711TIP3    H214098   6.321   2.443   4.249  0.1342 -0.6266  0.0257
 4712TIP3   OH214099   4.857   3.620   4.477  0.0231  0.2319 -0.3749
 4712TIP3    H114100   4.928   3.653   4.422 -0.7921 -0.6852 -2.0376
 4712TIP3    H214101   4.849   3.528   4.454 -0.4813 -0.1451  1.1785
 4713TIP3   OH214102   3.952   5.425   5.702  0.3340  0.3520 -0.0211
 4713TIP3    H114103   4.018   5.481   5.744  1.8825 -1.5508  0.2375
 4713TIP3    H214104   3.956   5.343   5.752 -1.6301 -0.1213 -0.5796
 4714TIP3   OH214105   5.405   2.274   5.228  0.0993 -0.1399 -0.2071
 4714TIP3    H114106   5.457   2.342   5.187  0.8943 -1.2755 -1.1708
 4714TIP3    H214107   5.469   2.210   5.260 -0.6434 -1.7094 -1.6780
 4715TIP3   OH214108   3.087   5.202   3.290 -0.1701  0.0569 -0.3694
 4715TIP3    H114109   3.016   5.138   3.294 -1.0676  1.0011 -0.7354
 4715TIP3    H214110   3.151   5.162   3.231 -0.3013 -0.8921  0.1126
 4716TIP3   OH214111   5.202   6.225   1.413  0.6128  0.7445  0.4480
 4716TIP3    H114112   5.153   6.291   1.463  0.4138 -0.0861  1.3683
 4716TIP3    H214113   5.274   6.200   1.471  1.0935  0.6399 -0.1787
 4717TIP3   OH214114   4.862   3.066   2.317  0.2953 -0.0725  0.1572
 4717TIP3    H114115   4.944   3.115   2.310  0.9275 -1.1793 -0.4207
 4717TIP3    H214116   4.807   3.120   2.374  0.7555  1.5777 -0.8840
 4718TIP3   OH214117   6.110   4.645   0.251 -0.0015 -0.6182  0.4345
 4718TIP3    H114118   6.098   4.740   0.251 -0.3367 -0.6593  0.5717
 4718TIP3    H214119   6.203   4.632   0.231 -0.3438 -0.3028 -1.6081
 4719TIP3   OH214120   6.890   3.473   3.450  0.1613  0.1975 -0.2760
 4719TIP3    H114121   6.848   3.396   3.411 -0.3250  0.0279  0.5763
 4719TIP3    H214122   6.850   3.482   3.536  0.5650  1.1247 -0.1724
 4720TIP3   OH214123   1.432   3.258   0.217 -0.3124  0.0312  1.0553
 4720TIP3    H114124   1.499   3.317   0.250 -0.4502  0.0462  1.3148
 4720TIP3    H214125   1.409   3.294   0.131 -0.7067  0.6208  1.3938
 4721TIP3   OH214126   1.252   1.036   4.331  0.2256 -0.4001 -0.2482
 4721TIP3    H114127   1.219   1.017   4.243  1.6831 -0.0766 -0.8969
 4721TIP3    H214128   1.337   0.991   4.334  0.3551 -0.0962  0.8651
 4722TIP3   OH214129   5.895   2.158   0.964 -0.1651 -0.2563  0.4392
 4722TIP3    H114130   5.866   2.069   0.983  0.6377 -0.7363 -0.5171
 4722TIP3    H214131   5.848   2.182   0.884  0.7740 -0.4150 -0.1774
 4723TIP3   OH214132   1.999   1.633   1.591 -0.2803 -0.7359  0.3269
 4723TIP3    H114133   2.028   1.547   1.622  2.0662 -0.2095 -0.2067
 4723TIP3    H214134   2.042   1.643   1.506  0.4749  1.4546  0.9215
 4724TIP3   OH214135   2.442   0.105   4.358 -0.1593 -0.7022 -0.0590
 4724TIP3    H114136   2.394   0.026   4.384  1.1407 -1.5565 -0.1467
 4724TIP3    H214137   2.463   0.091   4.266  3.4129 -2.1648  0.7902
 4725TIP3   OH214138   4.454   0.672   4.927 -0.1484 -0.4935 -0.0040
 4725TIP3    H114139   4.384   0.607   4.932  0.2773 -0.8942  1.6905
 4725TIP3    H214140   4.449   0.707   4.839 -3.1581  0.2709  0.3584
 4726TIP3   OH214141   2.554   4.111   1.192 -0.3176 -0.3202  0.0555
 4726TIP3    H114142   2.518   4.165   1.122  1.0597 -0.9822 -1.2112
 4726TIP3    H214143   2.506   4.028   1.184 -0.6857 -0.1398  0.3850
 4727TIP3   OH214144   4.680   2.385   5.451  0.2147 -0.0436 -0.3397
 4727TIP3    H114145   4.693   2.410   5.360 -0.3086  1.8883  0.0582
 4727TIP3    H214146   4.590   2.352   5.455  0.5784 -1.1266 -0.6847
 4728TIP3   OH214147   5.131   3.526   4.995 -0.6474 -0.2409 -0.3921
 4728TIP3    H114148   5.181   3.486   4.924  0.5352 -0.1055  0.3325
 4728TIP3    H214149   5.146   3.620   4.986 -0.1279 -0.2508  0.2868
 4729TIP3   OH214150   4.000   1.179   0.478  0.2128  0.0301 -1.4945
 4729TIP3    H114151   3.953   1.228   0.411  0.9389 -0.9058 -2.7311
 4729TIP3    H214152   4.086   1.161   0.440  0.6311 -0.5710 -0.3350
 4730TIP3   OH214153   1.904   2.326   2.364  0.2761  0.4672 -0.0814
 4730TIP3    H114154   1.821   2.278   2.369  0.0708  0.9061  1.0352
 4730TIP3    H214155   1.943   2.297   2.281 -1.2715  0.7211 -0.9408
 4731TIP3   OH214156   5.021   5.302   4.756 -0.0094  0.0765 -0.0620
 4731TIP3    H114157   5.009   5.394   4.733  0.7506 -0.4091 -2.7144
 4731TIP3    H214158   5.115   5.289   4.753 -0.0780 -0.6784  0.8105
 4732TIP3   OH214159   1.035   2.161   1.254  0.2729  0.2428 -0.2566
 4732TIP3    H114160   0.951   2.127   1.223  0.4297  0.7740 -1.3116
 4732TIP3    H214161   1.058   2.230   1.191  0.3129  1.8273  1.4050
 4733TIP3   OH214162   5.634   1.336   5.854 -0.0039 -0.2809 -0.5963
 4733TIP3    H114163   5.543   1.347   5.882  0.2812  0.4977  0.0534
 4733TIP3    H214164   5.678   1.416   5.881  1.1951 -1.2220  0.3974
 4734TIP3   OH214165   1.429   3.671   4.003 -0.8882  0.4173 -0.4257
 4734TIP3    H114166   1.367   3.726   3.954 -0.2529  1.5911  0.0391
 4734TIP3    H214167   1.380   3.591   4.023 -2.4271  1.4942  0.3329
 4735TIP3   OH214168   0.661   2.889   0.885  0.1088 -0.2040 -0.1905
 4735TIP3    H114169   0.695   2.919   0.800 -0.6454  1.6543  0.1195
 4735TIP3    H214170   0.737   2.851   0.929  0.6355 -0.6928 -1.4663
 4736TIP3   OH214171   4.057   1.832   5.024 -0.0525  0.1866 -0.0336
 4736TIP3    H114172   3.984   1.884   4.990 -0.6367 -0.2931  0.4634
 4736TIP3    H214173   4.133   1.890   5.017 -0.1041  0.0902 -2.2385
 4737TIP3   OH214174   4.856   6.346   3.225 -0.1420  0.8968  0.1975
 4737TIP3    H114175   4.935   6.370   3.273 -0.1535  0.5952  0.3720
 4737TIP3    H214176   4.871   6.377   3.136  0.7391 -0.3184 -0.1151
 4738TIP3   OH214177   4.170   1.532   5.673 -0.2814  0.0478  0.4775
 4738TIP3    H114178   4.201   1.498   5.589 -0.9402  0.9023 -0.1334
 4738TIP3    H214179   4.156   1.454   5.727  0.4840 -0.4882 -0.0871
 4739TIP3   OH214180   5.581   6.313   3.502  0.0676  0.1229  0.0540
 4739TIP3    H114181   5.593   6.251   3.573 -0.6299  0.7041  0.6934
 4739TIP3    H214182   5.545   6.261   3.430  1.9801 -0.7246 -0.3422
 4740TIP3   OH214183   6.814   4.875   1.877 -0.2789 -0.2084  0.2241
 4740TIP3    H114184   6.888   4.854   1.820  0.3503 -1.7106  1.5399
 4740TIP3    H214185   6.756   4.799   1.872 -1.9291  1.0499 -0.9920
 4741TIP3   OH214186   7.066   4.849   3.208  0.2130 -0.2550 -0.0995
 4741TIP3    H114187   7.004   4.889   3.147 -0.1945  0.8633  0.9878
 4741TIP3    H214188   7.019   4.849   3.292  1.6386  0.5024  0.7213
 4742TIP3   OH214189   0.759   0.467   1.401  0.2325  0.5319  0.2277
 4742TIP3    H114190   0.785   0.376   1.392  0.8654  0.5169  1.8067
 4742TIP3    H214191   0.835   0.517   1.371  0.8768  0.4955  1.6918
 4743TIP3   OH214192   5.083   0.576   1.866 -0.0247 -0.3943 -0.3626
 4743TIP3    H114193   4.988   0.586   1.877  0.3267  1.2836  2.1943
 4743TIP3    H214194   5.112   0.660   1.829  0.6180 -0.1852  0.5688
 4744TIP3   OH214195   3.045   3.347   5.181  0.2693 -0.3262 -0.1768
 4744TIP3    H114196   2.986   3.322   5.109 -0.0788 -0.1235  0.0340
 4744TIP3    H214197   3.127   3.302   5.162  0.5112  0.5536 -1.2493
 4745TIP3   OH214198   0.387   6.474   3.527 -0.9018 -0.2985 -0.1828
 4745TIP3    H114199   0.329   6.493   3.601 -0.7112 -0.6873  0.0677
 4745TIP3    H214200   0.338   6.412   3.473 -0.9851 -0.1209 -0.3124
 4746TIP3   OH214201   1.536   6.381   5.710 -0.4072 -0.2240 -0.4332
 4746TIP3    H114202   1.609   6.443   5.714 -0.3951 -0.2731  0.2079
 4746TIP3    H214203   1.573   6.303   5.668 -0.6455  0.4912 -2.0512
 4747TIP3   OH214204   3.916   6.219   3.132  0.1681  0.0099  0.0557
 4747TIP3    H114205   3.846   6.283   3.148  1.4251  1.2268  0.9697
 4747TIP3    H214206   3.906   6.154   3.201  0.1799  0.3993  0.4246
 4748TIP3   OH214207   4.473   4.729   4.125 -0.9009  0.1717  0.0979
 4748TIP3    H114208   4.507   4.746   4.213 -1.1437 -0.9023  0.4129
 4748TIP3    H214209   4.517   4.794   4.070 -1.0731  1.1371  1.0708
 4749TIP3   OH214210   2.168   3.318   3.660  0.0033 -0.1433  0.2144
 4749TIP3    H114211   2.246   3.273   3.629 -0.0193 -0.9427  1.2838
 4749TIP3    H214212   2.200   3.381   3.725 -0.0374  0.9527 -0.7949
 4750TIP3   OH214213   4.602   4.073   3.699  0.0394 -0.3593 -0.1553
 4750TIP3    H114214   4.642   4.131   3.764  0.3635  0.2057 -0.8519
 4750TIP3    H214215   4.559   4.131   3.637  2.6883 -0.6298 -2.4490
 4751TIP3   OH214216   6.787   5.801   1.166  0.3770  0.3835 -0.0575
 4751TIP3    H114217   6.716   5.835   1.111  0.8369  0.9716 -0.2929
 4751TIP3    H214218   6.862   5.857   1.147  0.6028  0.4769  1.0133
 4752TIP3   OH214219   4.439   2.201   2.649  0.3806 -0.0348  0.2707
 4752TIP3    H114220   4.424   2.269   2.715  0.5175  3.0966 -2.6167
 4752TIP3    H214221   4.535   2.199   2.639  0.3506 -0.3913  0.0536
 4753TIP3   OH214222   1.062   4.904   3.436 -0.0643  0.3664  0.1226
 4753TIP3    H114223   1.061   4.809   3.442  1.2059  0.3068 -0.1965
 4753TIP3    H214224   1.075   4.923   3.343  0.9473  0.8032  0.3317
 4754TIP3   OH214225   0.788   5.230   4.233 -0.5185  0.5361  0.3546
 4754TIP3    H114226   0.726   5.303   4.227  1.7920  2.5135 -1.5765
 4754TIP3    H214227   0.864   5.266   4.278  0.5166 -0.7937 -0.2546
 4755TIP3   OH214228   6.888   1.572   0.265  0.2766  1.1332  0.1824
 4755TIP3    H114229   6.923   1.516   0.196  0.9660  0.6300  0.9272
 4755TIP3    H214230   6.942   1.553   0.341  0.0599  2.3042  0.6395
 4756TIP3   OH214231   2.838   1.408   2.767 -0.3374 -0.2243  0.6200
 4756TIP3    H114232   2.854   1.386   2.675 -2.1604  0.3803  0.1132
 4756TIP3    H214233   2.918   1.380   2.812  1.0774  0.4481 -1.2903
 4757TIP3   OH214234   1.066   2.973   1.585 -0.1550 -0.3522 -0.5399
 4757TIP3    H114235   1.010   3.001   1.658 -0.2956 -0.8794 -0.4434
 4757TIP3    H214236   1.053   2.878   1.580  0.6849 -0.4692 -0.5609
 4758TIP3   OH214237   2.740   1.531   5.454 -0.3175 -0.4039  0.4249
 4758TIP3    H114238   2.690   1.449   5.462 -0.8490  0.0324  2.0623
 4758TIP3    H214239   2.674   1.598   5.436 -0.3748  0.1402  2.3609
 4759TIP3   OH214240   6.659   4.103   1.206 -0.6391 -0.0710 -0.4512
 4759TIP3    H114241   6.750   4.095   1.234 -0.6930  0.8783  0.0595
 4759TIP3    H214242   6.640   4.197   1.213 -1.9264 -0.3660  0.3489
 4760TIP3   OH214243   2.477   5.271   3.267  0.3686 -0.5388  0.4009
 4760TIP3    H114244   2.426   5.257   3.187 -0.1567 -2.7337  1.0503
 4760TIP3    H214245   2.479   5.185   3.309  2.3884  0.0964  1.7313
 4761TIP3   OH214246   5.701   5.307   0.350 -0.8400 -0.1584 -0.5549
 4761TIP3    H114247   5.714   5.316   0.256 -1.2870  0.7579 -0.5326
 4761TIP3    H214248   5.621   5.355   0.368 -0.8091 -0.4098  0.2850
 4762TIP3   OH214249   4.871   6.514   5.305  0.0678  0.0217  0.3895
 4762TIP3    H114250   4.875   6.504   5.210 -1.3926  0.7734  0.2271
 4762TIP3    H214251   4.875   6.608   5.319  0.1820 -0.0812  1.0750
 4763TIP3   OH214252   6.464   1.220   3.055 -0.6185 -0.1731  0.0328
 4763TIP3    H114253   6.509   1.141   3.084 -0.6640  0.5502  2.2493
 4763TIP3    H214254   6.514   1.250   2.980  1.7567 -0.2133  1.5080
 4764TIP3   OH214255   3.560   3.046   1.767  0.5825  0.8265  0.5035
 4764TIP3    H114256   3.467   3.055   1.744  0.7062  3.1142  0.7289
 4764TIP3    H214257   3.559   2.995   1.848 -0.4032  0.1840  0.1204
 4765TIP3   OH214258   3.688   3.879   0.256 -0.0282  0.0581  0.2331
 4765TIP3    H114259   3.780   3.854   0.260  0.3901  1.5107  0.2917
 4765TIP3    H214260   3.678   3.919   0.170 -0.1661  1.4545  0.8689
 4766TIP3   OH214261   3.572   3.062   4.887 -0.1416  0.3353 -0.2068
 4766TIP3    H114262   3.626   3.125   4.839 -0.7000  0.6201 -0.4701
 4766TIP3    H214263   3.528   3.011   4.818 -0.7480  0.5739 -0.0003
 4767TIP3   OH214264   1.693   3.556   3.780  0.2038 -0.1198  0.9932
 4767TIP3    H114265   1.774   3.511   3.803  0.8310  0.4529 -0.0335
 4767TIP3    H214266   1.694   3.635   3.833  1.3693  0.9164 -0.4753
 4768TIP3   OH214267   0.882   6.442   4.178  0.1591 -0.2659  0.2593
 4768TIP3    H114268   0.790   6.418   4.185  0.3616 -1.0244  0.5162
 4768TIP3    H214269   0.883   6.537   4.172 -0.5459 -0.0983  2.1965
 4769TIP3   OH214270   4.335   6.205   5.716 -0.5607 -0.3534  0.0859
 4769TIP3    H114271   4.324   6.170   5.804  0.9482  0.1645  0.5137
 4769TIP3    H214272   4.287   6.144   5.660 -1.3950 -0.7905  1.2390
 4770TIP3   OH214273   4.344   5.395   2.953  0.5064 -0.4106 -0.5642
 4770TIP3    H114274   4.324   5.487   2.965 -1.1014 -0.9657  1.7459
 4770TIP3    H214275   4.290   5.367   2.879 -1.1072 -0.0293  0.4120
 4771TIP3   OH214276   1.215   0.423   2.438  0.0629 -0.0086  0.2386
 4771TIP3    H114277   1.230   0.402   2.530 -1.7540  1.1355  0.8522
 4771TIP3    H214278   1.141   0.484   2.439 -0.5293 -0.5832 -2.0269
 4772TIP3   OH214279   0.924   5.685   5.276  0.0864  0.4051  0.4946
 4772TIP3    H114280   0.951   5.775   5.259 -0.8960  0.6787  0.3569
 4772TIP3    H214281   0.856   5.667   5.211 -0.1878 -0.2174  0.9401
 4773TIP3   OH214282   0.119   3.941   0.837  0.3837 -0.3028 -0.4092
 4773TIP3    H114283   0.069   3.922   0.757 -1.1724  0.6983  0.2628
 4773TIP3    H214284   0.085   3.879   0.901 -0.3490  0.6642  0.1675
 4774TIP3   OH214285   3.088   2.865   5.703 -0.6012 -0.3089  0.4250
 4774TIP3    H114286   3.013   2.918   5.732 -0.5921 -0.2497  0.3396
 4774TIP3    H214287   3.142   2.925   5.653 -1.0197 -0.6045 -0.4085
 4775TIP3   OH214288   3.089   6.308   2.584 -0.0498 -0.2027  0.2921
 4775TIP3    H114289   3.013   6.252   2.595 -0.2538  0.3626  2.0375
 4775TIP3    H214290   3.084   6.337   2.493 -1.5572 -0.6887  0.1877
 4776TIP3   OH214291   2.260   2.345   2.996 -0.6070 -0.0575  0.2212
 4776TIP3    H114292   2.216   2.338   2.911  1.4906 -2.6365 -0.7640
 4776TIP3    H214293   2.241   2.263   3.041  2.1825 -0.8295  0.1818
 4777TIP3   OH214294   5.464   3.404   0.268 -0.1177  0.1223  0.6203
 4777TIP3    H114295   5.547   3.356   0.262  0.7469  1.3723  1.8200
 4777TIP3    H214296   5.397   3.336   0.270  0.7967 -0.8975 -1.0995
 4778TIP3   OH214297   6.268   5.753   1.083 -0.1371  0.2237 -0.2049
 4778TIP3    H114298   6.326   5.760   1.159  0.2367  1.3193 -0.5786
 4778TIP3    H214299   6.180   5.752   1.121  0.0757 -0.9743  0.3344
 4779TIP3   OH214300   3.268   3.713   3.480  0.1004  0.3043  0.7175
 4779TIP3    H114301   3.207   3.659   3.531  0.5692 -1.3884 -0.4521
 4779TIP3    H214302   3.218   3.739   3.403  0.6995 -0.6964 -0.0172
 4780TIP3   OH214303   1.239   5.881   0.761  0.6011 -0.0536  0.0289
 4780TIP3    H114304   1.154   5.886   0.717  1.1192 -0.8464 -1.0825
 4780TIP3    H214305   1.219   5.905   0.852 -0.9119 -0.7868 -0.0733
 4781TIP3   OH214306   0.216   6.121   0.219 -0.0413 -0.0244  0.1966
 4781TIP3    H114307   0.150   6.114   0.150  0.1809  1.5644 -0.1981
 4781TIP3    H214308   0.298   6.136   0.172  0.4657 -0.9839  0.7358
 4782TIP3   OH214309   5.560   5.292   5.236  0.1318  0.1797  0.0755
 4782TIP3    H114310   5.615   5.352   5.286  1.4628 -0.4899 -0.5462
 4782TIP3    H214311   5.527   5.229   5.301  0.3024  0.4258  0.4049
 4783TIP3   OH214312   3.349   4.170   3.690 -0.9224 -0.3162  0.4449
 4783TIP3    H114313   3.336   4.259   3.658  1.8638  0.3659  0.9018
 4783TIP3    H214314   3.311   4.114   3.623 -0.7865  1.1915 -0.9429
 4784TIP3   OH214315   0.117   3.037   0.421  0.4864  0.1100  0.3840
 4784TIP3    H114316   0.028   3.062   0.444  1.1208  1.2903  1.7684
 4784TIP3    H214317   0.161   3.025   0.505  1.9893  0.9875 -0.2260
 4785TIP3   OH214318   3.424   0.681   1.521 -0.1319  0.2029  0.1978
 4785TIP3    H114319   3.405   0.645   1.434  0.3066  0.4875 -0.0205
 4785TIP3    H214320   3.456   0.769   1.504 -0.0628  0.2695  0.6511
 4786TIP3   OH214321   3.234   2.730   3.435  0.9164 -0.3853 -0.0073
 4786TIP3    H114322   3.145   2.693   3.431  1.5921 -2.1987  0.6666
 4786TIP3    H214323   3.272   2.710   3.350  0.5116  0.9463 -0.5293
 4787TIP3   OH214324   6.276   3.733   0.941 -0.4179 -0.3011  0.3008
 4787TIP3    H114325   6.241   3.818   0.915  0.7135 -0.0078 -0.3613
 4787TIP3    H214326   6.270   3.732   1.037 -0.6956  0.4096  0.2941
 4788TIP3   OH214327   4.385   4.470   2.299  0.9439  0.5604 -0.0050
 4788TIP3    H114328   4.316   4.526   2.263  1.6912  1.4623 -0.0771
 4788TIP3    H214329   4.464   4.524   2.295  1.8310 -0.7427 -0.6846
 4789TIP3   OH214330   5.562   5.086   2.542 -0.3126  0.0133 -0.0215
 4789TIP3    H114331   5.470   5.081   2.570 -0.1767  2.7000  1.3023
 4789TIP3    H214332   5.588   5.176   2.565  1.9715  0.1049 -2.5385
 4790TIP3   OH214333   6.982   4.191   0.348 -0.0512  0.3597 -0.0468
 4790TIP3    H114334   7.039   4.247   0.401  0.9928 -1.0326  0.3643
 4790TIP3    H214335   6.916   4.160   0.409  2.2638 -2.8099  1.0926
 4791TIP3   OH214336   5.312   2.739   4.845 -0.3598 -0.1416 -0.1718
 4791TIP3    H114337   5.379   2.805   4.864 -0.8994  0.4524 -0.3398
 4791TIP3    H214338   5.360   2.670   4.800 -0.0069  0.6509 -1.0415
 4792TIP3   OH214339   2.372   2.279   1.386  0.2641  0.5211 -0.1693
 4792TIP3    H114340   2.326   2.333   1.322 -0.1094 -0.0381 -0.3784
 4792TIP3    H214341   2.304   2.253   1.449  0.6766  1.3077  0.6394
 4793TIP3   OH214342   3.381   0.762   2.274  0.1388  0.4206 -0.2973
 4793TIP3    H114343   3.375   0.770   2.179  0.1730  1.7536 -0.2088
 4793TIP3    H214344   3.447   0.828   2.299  0.5014 -0.2628  0.6022
 4794TIP3   OH214345   0.293   2.674   4.581  0.5743  0.1530 -0.0201
 4794TIP3    H114346   0.312   2.746   4.641  0.9222  0.4902 -0.5273
 4794TIP3    H214347   0.375   2.627   4.571  0.1676 -0.8157  0.9312
 4795TIP3   OH214348   2.807   3.588   3.172  0.4174  0.2843 -0.7494
 4795TIP3    H114349   2.851   3.503   3.169 -2.5089 -1.4873  0.7942
 4795TIP3    H214350   2.842   3.630   3.250  0.4843 -0.4023 -0.4000
 4796TIP3   OH214351   4.142   6.250   0.141 -0.1877  0.1673  0.4271
 4796TIP3    H114352   4.110   6.332   0.103  0.6410  0.1374 -0.3936
 4796TIP3    H214353   4.096   6.241   0.224 -0.5990  1.2519  0.3254
 4797TIP3   OH214354   0.180   1.900   3.772 -0.0262  0.4872  0.1242
 4797TIP3    H114355   0.128   1.833   3.817  1.2531  0.9314  2.3909
 4797TIP3    H214356   0.225   1.853   3.702 -0.8232 -0.5653  0.2973
 4798TIP3   OH214357   6.991   5.499   2.091 -0.2635  0.1572 -0.0037
 4798TIP3    H114358   7.055   5.564   2.062 -0.0936 -0.1899 -0.4288
 4798TIP3    H214359   6.927   5.495   2.019  0.7540 -1.5072 -0.8945
 4799TIP3   OH214360   5.649   3.823   0.879  0.2532  0.1357  0.2503
 4799TIP3    H114361   5.595   3.880   0.824 -1.4036 -0.2609  1.3856
 4799TIP3    H214362   5.696   3.883   0.937 -2.9880  0.4796  2.8287
 4800TIP3   OH214363   1.097   0.186   3.677 -0.3111 -0.0668  0.0503
 4800TIP3    H114364   1.076   0.279   3.688 -0.3121 -0.0816  0.1756
 4800TIP3    H214365   1.013   0.141   3.684 -0.5042  0.0295 -1.3418
 4801TIP3   OH214366   3.262   5.249   1.408 -0.1193  0.2335  0.3286
 4801TIP3    H114367   3.336   5.189   1.396 -1.0101 -0.5216 -2.0139
 4801TIP3    H214368   3.206   5.204   1.471  1.1354  0.5658  1.7208
 4802TIP3   OH214369   5.378   3.351   1.152 -0.1868 -0.1154 -0.3557
 4802TIP3    H114370   5.318   3.388   1.217  1.7183 -0.5644  1.8119
 4802TIP3    H214371   5.447   3.417   1.144 -0.3037 -0.1413 -1.8822
 4803TIP3   OH214372   1.466   2.854   3.662  0.3109  0.2406 -0.3017
 4803TIP3    H114373   1.484   2.761   3.672 -0.4379  0.2212  0.9899
 4803TIP3    H214374   1.549   2.897   3.682 -0.0566 -0.0273  2.0559
 4804TIP3   OH214375   2.494   5.716   2.501  0.3805  0.4477  0.5469
 4804TIP3    H114376   2.563   5.677   2.555  0.7813 -0.4124 -0.5407
 4804TIP3    H214377   2.538   5.740   2.420 -0.4219  0.7140  0.1780
 4805TIP3   OH214378   1.521   2.397   1.326  0.2432 -0.0659 -0.2624
 4805TIP3    H114379   1.458   2.342   1.280  0.7620 -1.4645  0.6316
 4805TIP3    H214380   1.585   2.421   1.260 -0.2209 -0.1680 -0.7570
 4806TIP3   OH214381   0.967   1.494   1.625  0.0528 -0.1451 -0.4379
 4806TIP3    H114382   1.041   1.542   1.587 -0.5617 -0.0683 -1.6037
 4806TIP3    H214383   0.901   1.562   1.642  0.5538 -0.0753  1.4654
 4807TIP3   OH214384   4.286   3.463   3.840  0.2802 -0.2891 -0.0691
 4807TIP3    H114385   4.240   3.546   3.826 -0.3667 -0.5620  0.3613
 4807TIP3    H214386   4.305   3.461   3.934 -1.1014 -1.3085  0.2192
 4808TIP3   OH214387   5.325   0.245   2.119 -0.2116  0.1466 -0.1243
 4808TIP3    H114388   5.312   0.326   2.070  0.4820 -0.2057 -0.9049
 4808TIP3    H214389   5.408   0.257   2.165  0.7759 -0.7511 -1.5842
 4809TIP3   OH214390   2.288   4.544   2.986  0.1435 -0.2694  0.0296
 4809TIP3    H114391   2.281   4.637   2.962  0.3316  0.0295  1.0917
 4809TIP3    H214392   2.198   4.514   2.991 -0.1837  0.8318  3.2450
 4810TIP3   OH214393   5.109   6.591   4.203 -0.5067 -0.4324 -0.1925
 4810TIP3    H114394   5.052   6.636   4.265  0.7808 -0.4445  1.0594
 4810TIP3    H214395   5.189   6.644   4.201 -0.2653 -0.7941 -1.3590
 4811TIP3   OH214396   3.608   3.879   4.560 -0.4305  0.2736  0.3723
 4811TIP3    H114397   3.553   3.954   4.538 -0.4383  0.4985  1.1325
 4811TIP3    H214398   3.561   3.804   4.524 -0.4733  0.6166 -0.3052
 4812TIP3   OH214399   3.609   0.499   5.246 -0.2707  0.0959  0.0163
 4812TIP3    H114400   3.595   0.583   5.201  0.7344 -0.6695 -1.8115
 4812TIP3    H214401   3.638   0.524   5.334 -2.2241  1.6408  0.3114
 4813TIP3   OH214402   4.642   2.493   5.171 -0.0384  0.1020  0.8689
 4813TIP3    H114403   4.563   2.483   5.117 -0.1809 -1.3126  1.3229
 4813TIP3    H214404   4.698   2.551   5.119 -0.2226 -1.1106 -0.7497
 4814TIP3   OH214405   4.408   0.643   1.524  0.3981 -0.3153  0.4222
 4814TIP3    H114406   4.423   0.727   1.568  1.4333 -0.2032 -0.0999
 4814TIP3    H214407   4.325   0.656   1.477  1.1721  0.8948 -0.6894
 4815TIP3   OH214408   6.116   2.715   1.429 -0.4464  0.2954 -0.2063
 4815TIP3    H114409   6.086   2.654   1.496 -2.5378  0.9477 -0.4724
 4815TIP3    H214410   6.095   2.672   1.346 -0.0325  0.4868 -0.4137
 4816TIP3   OH214411   0.815   3.554   2.961 -0.5859 -0.2369 -0.1295
 4816TIP3    H114412   0.895   3.512   2.927 -0.5697 -0.0376 -0.3385
 4816TIP3    H214413   0.770   3.587   2.883 -2.0080 -2.2958 -0.2626
 4817TIP3   OH214414   2.605   6.289   4.034 -0.4072  0.4733  0.3052
 4817TIP3    H114415   2.617   6.378   4.002  0.3234  0.1193 -0.4332
 4817TIP3    H214416   2.573   6.240   3.958 -0.2583 -0.0166  0.5511
 4818TIP3   OH214417   0.264   2.375   1.053  0.2041  0.3038  0.1966
 4818TIP3    H114418   0.309   2.325   0.985  0.6976  1.7086 -0.5677
 4818TIP3    H214419   0.171   2.363   1.035  0.3197  1.4381 -1.3915
 4819TIP3   OH214420   0.490   3.917   1.781 -0.1645 -0.7568 -0.1545
 4819TIP3    H114421   0.583   3.922   1.759 -0.1716 -0.4583 -0.1236
 4819TIP3    H214422   0.446   3.966   1.712 -0.4561 -2.2848 -1.0803
 4820TIP3   OH214423   5.601   3.583   1.738 -0.0188  0.0585 -0.2005
 4820TIP3    H114424   5.592   3.520   1.666  0.1324  1.0075 -1.0813
 4820TIP3    H214425   5.687   3.564   1.776 -0.0774 -0.4237 -0.3033
 4821TIP3   OH214426   2.917   1.321   1.949  0.1155  0.2919  0.1420
 4821TIP3    H114427   2.930   1.416   1.947  1.0851  0.1917  0.9721
 4821TIP3    H214428   3.003   1.285   1.925 -0.2759 -0.3861 -0.2907
 4822TIP3   OH214429   5.599   5.678   5.645  0.0831  0.2674  0.2393
 4822TIP3    H114430   5.654   5.695   5.569 -0.1472 -1.4831 -0.3533
 4822TIP3    H214431   5.554   5.762   5.661  1.1501  1.0487 -0.6821
 4823TIP3   OH214432   1.764   0.684   0.469 -0.0986  0.4301  0.0420
 4823TIP3    H114433   1.690   0.624   0.464 -0.1598  0.4620  0.4813
 4823TIP3    H214434   1.839   0.628   0.486 -0.1419  0.4661  0.3612
 4824TIP3   OH214435   0.686   5.627   3.979  0.0013 -0.0118  0.6871
 4824TIP3    H114436   0.646   5.546   4.012 -0.4563 -0.4699 -0.9069
 4824TIP3    H214437   0.761   5.642   4.037 -1.2156 -0.3097  2.4109
 4825TIP3   OH214438   2.988   2.183   0.726  0.7379 -0.3563 -0.0163
 4825TIP3    H114439   2.896   2.170   0.701  1.3551 -0.8993 -2.2357
 4825TIP3    H214440   2.994   2.148   0.815 -1.5534  1.3439  0.9157
 4826TIP3   OH214441   4.836   6.747   5.499 -0.3622 -0.3745  0.3397
 4826TIP3    H114442   4.808   6.816   5.560 -0.2345  1.8373 -1.9543
 4826TIP3    H214443   4.931   6.755   5.496 -0.2354 -1.4809  0.9128
 4827TIP3   OH214444   5.472   4.531   2.820  0.2605 -0.7300  0.1712
 4827TIP3    H114445   5.471   4.612   2.770 -1.2834 -0.2510  0.9062
 4827TIP3    H214446   5.557   4.531   2.864  0.6272  0.0486 -0.5097
 4828TIP3   OH214447   0.924   2.548   2.935 -0.3626  0.2516 -0.0128
 4828TIP3    H114448   0.867   2.565   2.860  0.4229  0.1853 -0.6383
 4828TIP3    H214449   0.922   2.629   2.986 -1.9889 -0.1675  0.6541
 4829TIP3   OH214450   5.898   2.734   0.138  0.0700  0.1950 -0.1933
 4829TIP3    H114451   5.988   2.761   0.119  0.4247  0.5392  1.7282
 4829TIP3    H214452   5.843   2.797   0.091  0.8167  0.1187 -1.2029
 4830TIP3   OH214453   4.196   1.255   0.799 -0.5398 -0.0284 -0.3578
 4830TIP3    H114454   4.263   1.205   0.753  0.7457  1.0008  0.3498
 4830TIP3    H214455   4.147   1.189   0.849  0.5963 -0.6929 -0.0927
 4831TIP3   OH214456   2.725   5.752   4.293  0.3408 -0.1377 -0.2308
 4831TIP3    H114457   2.692   5.771   4.381  1.1273  1.0595 -0.1717
 4831TIP3    H214458   2.736   5.657   4.292 -1.1150 -0.3393  0.4365
 4832TIP3   OH214459   3.198   5.528   3.693 -0.6211  0.0852 -0.7059
 4832TIP3    H114460   3.275   5.563   3.648 -0.1746 -1.3080 -1.0620
 4832TIP3    H214461   3.124   5.555   3.639 -0.0709 -1.7846 -2.4678
 4833TIP3   OH214462   4.986   5.955   1.602 -0.4516  0.0469  1.3512
 4833TIP3    H114463   5.074   5.979   1.572 -1.5842 -0.1278 -2.5718
 4833TIP3    H214464   4.935   6.035   1.596 -1.4280 -0.6535 -0.2240
 4834TIP3   OH214465   2.887   5.233   3.660  0.1055 -0.4092  0.3719
 4834TIP3    H114466   2.835   5.227   3.739  3.0898  0.1956  2.5647
 4834TIP3    H214467   2.887   5.326   3.637  2.0796  0.0160  1.8548
 4835TIP3   OH214468   3.586   4.634   2.404 -0.1287 -0.0028 -1.0493
 4835TIP3    H114469   3.634   4.561   2.443 -1.0229  0.3713  0.8333
 4835TIP3    H214470   3.646   4.669   2.338  1.4567 -0.6466 -0.0108
 4836TIP3   OH214471   7.050   0.097   5.853 -0.4157  0.4162 -0.0699
 4836TIP3    H114472   7.076   0.027   5.914  1.1845  1.5457  0.6141
 4836TIP3    H214473   7.092   0.072   5.770 -2.4073 -1.0029 -0.7193
 4837TIP3   OH214474   6.879   6.393   0.943 -0.3008 -0.3332 -0.2480
 4837TIP3    H114475   6.868   6.479   0.984  1.2401 -0.9340  1.6016
 4837TIP3    H214476   6.864   6.331   1.014 -0.6480 -1.5870 -1.3788
 4838TIP3   OH214477   1.319   5.580   5.326 -0.5446 -0.0253 -0.1606
 4838TIP3    H114478   1.371   5.550   5.401  0.6837 -0.4283 -1.1423
 4838TIP3    H214479   1.232   5.545   5.342  0.0917 -1.4675  0.2997
 4839TIP3   OH214480   1.010   3.035   4.555  0.6289 -0.1308 -0.1976
 4839TIP3    H114481   1.094   3.016   4.513  0.3419 -0.7400 -0.5154
 4839TIP3    H214482   0.950   2.970   4.519  0.7989 -2.0343  2.6354
 4840TIP3   OH214483   6.477   5.292   2.568 -0.1947  0.1088  0.5505
 4840TIP3    H114484   6.485   5.313   2.475  1.5969  0.5691  0.7628
 4840TIP3    H214485   6.404   5.232   2.573 -0.6588  0.4834 -1.0897
 4841TIP3   OH214486   0.020   0.743   3.625  0.2900  0.8863  0.5444
 4841TIP3    H114487   0.104   0.789   3.628 -0.1737  1.8184  0.0369
 4841TIP3    H214488  -0.019   0.772   3.542 -0.1129 -0.2864  0.3127
 4842TIP3   OH214489   1.283   4.396   1.516  0.1529 -0.3840 -0.3549
 4842TIP3    H114490   1.280   4.460   1.587 -1.7434 -0.5842 -0.1816
 4842TIP3    H214491   1.368   4.353   1.525  0.9353  1.2388  0.2906
 4843TIP3   OH214492   3.654   1.746   1.605 -0.0920 -0.4541 -0.7083
 4843TIP3    H114493   3.611   1.831   1.601 -0.5956 -0.5930  1.0472
 4843TIP3    H214494   3.706   1.742   1.525 -0.9796  0.9951 -1.3977
 4844TIP3   OH214495   2.661   0.404   4.077  0.1417 -0.7075  0.1531
 4844TIP3    H114496   2.572   0.408   4.112  0.5776 -1.8549  1.4682
 4844TIP3    H214497   2.701   0.328   4.119  1.2253 -1.2247 -1.6959
 4845TIP3   OH214498   6.565   4.478   2.702 -0.0676 -0.7387  0.4189
 4845TIP3    H114499   6.624   4.535   2.752 -0.2188 -0.9034  0.7843
 4845TIP3    H214500   6.622   4.437   2.637 -0.3413  1.6795 -1.5267
 4846TIP3   OH214501   5.734   1.683   2.363 -0.5121 -0.4406 -0.0238
 4846TIP3    H114502   5.656   1.730   2.334  0.5963  1.0201 -0.7414
 4846TIP3    H214503   5.722   1.673   2.457 -1.2351  0.4371 -0.0067
 4847TIP3   OH214504   0.624   5.571   2.537 -0.2126 -1.1921 -0.0713
 4847TIP3    H114505   0.674   5.588   2.457 -1.5538  3.0136 -0.2759
 4847TIP3    H214506   0.690   5.562   2.606  0.9339 -0.1248 -0.9884
 4848TIP3   OH214507   0.601   5.084   3.966  0.2941 -0.2259 -0.3433
 4848TIP3    H114508   0.520   5.133   3.954  0.4202  0.2382  0.6712
 4848TIP3    H214509   0.596   5.050   4.055  1.6158  0.5563  0.0471
 4849TIP3   OH214510   1.934   5.893   3.070 -0.4252 -0.0646 -0.4796
 4849TIP3    H114511   1.908   5.969   3.020 -1.6947  0.3459  0.7328
 4849TIP3    H214512   1.853   5.862   3.112  0.6873  0.2890  2.1657
 4850TIP3   OH214513   1.800   6.308   0.763  0.3030 -0.2971  0.1628
 4850TIP3    H114514   1.798   6.402   0.747  1.9156 -0.3365 -0.3598
 4850TIP3    H214515   1.749   6.297   0.844 -1.5259  0.7629 -0.7735
 4851TIP3   OH214516   7.002   0.890   0.632  0.2491 -0.0576  0.1974
 4851TIP3    H114517   6.998   0.984   0.616  1.4289 -0.1804 -0.8919
 4851TIP3    H214518   7.078   0.859   0.584  0.0878 -1.5314  0.8086
 4852TIP3   OH214519   5.177   6.250   2.789  0.1295  0.1039  0.3279
 4852TIP3    H114520   5.131   6.169   2.811  1.7757 -0.8927  0.2937
 4852TIP3    H214521   5.262   6.221   2.755  0.7091  1.8455  0.1819
 4853TIP3   OH214522   7.158   4.782   5.179  0.3355 -0.2606 -0.2213
 4853TIP3    H114523   7.194   4.836   5.250  0.4046 -0.7226  0.1033
 4853TIP3    H214524   7.072   4.754   5.212  0.2437 -0.2368 -0.4419
 4854TIP3   OH214525   2.098   5.080   4.451 -0.1703  0.2147  0.6522
 4854TIP3    H114526   2.063   4.994   4.430  2.8732 -1.6089  2.3711
 4854TIP3    H214527   2.151   5.066   4.529  2.2843  3.1904 -0.2915
 4855TIP3   OH214528   2.821   0.588   5.351  0.9570  0.0950  0.5400
 4855TIP3    H114529   2.778   0.664   5.390 -0.3348  0.2220 -0.9934
 4855TIP3    H214530   2.764   0.563   5.278  1.5011 -2.1809  0.8191
 4856TIP3   OH214531   0.694   3.452   5.296  0.0975  0.2699 -0.2800
 4856TIP3    H114532   0.693   3.357   5.287 -2.3910  0.1443  0.5586
 4856TIP3    H214533   0.672   3.485   5.209 -0.0051  0.0265 -0.3474
 4857TIP3   OH214534   5.968   3.666   3.575  0.4562 -0.0859  0.0623
 4857TIP3    H114535   5.923   3.586   3.548  0.6439 -0.5540  1.0921
 4857TIP3    H214536   5.950   3.728   3.505 -0.6157 -0.6910 -0.2226
 4858TIP3   OH214537   1.068   4.983   1.383 -0.2239  0.0824  0.2604
 4858TIP3    H114538   1.156   4.992   1.420 -0.7704  0.4617  1.5322
 4858TIP3    H214539   1.044   5.070   1.353 -0.7889  0.3555  1.4387
 4859TIP3   OH214540   2.824   6.314   1.218  0.1233  0.1846  0.1574
 4859TIP3    H114541   2.850   6.263   1.142 -0.6925  0.6866 -0.4760
 4859TIP3    H214542   2.905   6.349   1.253  0.3688  1.4124 -1.5327
 4860TIP3   OH214543   4.534   6.797   2.847  0.4112 -0.1349 -0.4509
 4860TIP3    H114544   4.492   6.766   2.928  0.5918 -2.0004 -1.0278
 4860TIP3    H214545   4.600   6.731   2.828 -0.8725 -0.7756 -3.1140
 4861TIP3   OH214546   0.344   6.010   4.758  0.2082 -0.2388 -0.5030
 4861TIP3    H114547   0.428   6.049   4.781  0.1981  0.4183 -1.5374
 4861TIP3    H214548   0.299   6.001   4.842 -0.1754  2.8903 -0.2347
 4862TIP3   OH214549   1.988   6.524   3.880 -0.0825 -0.7088 -0.1831
 4862TIP3    H114550   1.899   6.532   3.843  0.8961  0.2312 -2.5291
 4862TIP3    H214551   2.046   6.535   3.805  2.1098  1.0864  1.6365
 4863TIP3   OH214552   5.965   0.255   1.350 -0.4350  0.4549  0.4321
 4863TIP3    H114553   5.942   0.348   1.339 -1.4600  0.0677 -1.1327
 4863TIP3    H214554   5.966   0.221   1.261 -1.1108 -1.2719  1.0506
 4864TIP3   OH214555   3.702   4.095   3.119  0.6480  0.2937  0.4716
 4864TIP3    H114556   3.713   4.055   3.205 -1.4323 -1.5146 -0.0182
 4864TIP3    H214557   3.608   4.112   3.112  0.8169  0.7342 -1.2859
 4865TIP3   OH214558   1.353   4.961   2.273  0.5756 -0.3631 -0.4767
 4865TIP3    H114559   1.354   4.880   2.325 -0.4253 -0.5745 -0.7675
 4865TIP3    H214560   1.274   5.007   2.301  1.5649  0.9473  0.2921
 4866TIP3   OH214561   1.831   4.332   1.589  0.7756  0.1677 -0.4407
 4866TIP3    H114562   1.884   4.297   1.661  0.5908  1.1817  0.2205
 4866TIP3    H214563   1.838   4.267   1.520  1.2574 -0.6639  0.3668
 4867TIP3   OH214564   6.097   5.460   5.740 -0.3117 -0.0366  0.5702
 4867TIP3    H114565   6.065   5.516   5.669 -0.3134 -1.9167 -1.0002
 4867TIP3    H214566   6.143   5.520   5.799 -2.6264  2.0195  0.4480
 4868TIP3   OH214567   0.609   0.565   1.621 -0.0431 -0.3833 -0.2014
 4868TIP3    H114568   0.651   0.538   1.539 -0.3910 -0.9350 -0.2046
 4868TIP3    H214569   0.680   0.568   1.685 -0.1242 -2.4247  0.0694
 4869TIP3   OH214570   6.565   0.390   1.767  0.5307  0.1629  0.6623
 4869TIP3    H114571   6.490   0.445   1.788 -1.1282 -1.3297 -0.9557
 4869TIP3    H214572   6.564   0.321   1.833 -0.1329 -0.3585  0.1335
 4870TIP3   OH214573   2.757   3.115   0.478  0.1381 -0.4283 -0.0845
 4870TIP3    H114574   2.816   3.182   0.442 -1.2237 -0.7892 -3.2945
 4870TIP3    H214575   2.803   3.032   0.463 -0.1535 -0.5315 -0.4300
 4871TIP3   OH214576   5.688   4.892   4.198 -0.0158 -0.4938  0.3425
 4871TIP3    H114577   5.648   4.809   4.171  1.3228 -1.3719  0.9213
 4871TIP3    H214578   5.648   4.958   4.143  0.4896 -1.8237 -1.7272
 4872TIP3   OH214579   3.476   2.369   0.817  0.0019 -0.1008 -0.4225
 4872TIP3    H114580   3.540   2.414   0.762  0.4055 -2.5513 -2.1476
 4872TIP3    H214581   3.406   2.344   0.756 -0.8378 -0.6386  0.7143
 4873TIP3   OH214582   3.189   2.312   4.254  0.0882 -0.5298  0.7386
 4873TIP3    H114583   3.174   2.230   4.302  0.6883 -1.0638  0.0357
 4873TIP3    H214584   3.269   2.296   4.204 -0.8295 -0.2320 -0.9245
 4874TIP3   OH214585   4.133   5.708   3.973 -0.2026 -0.0725  0.0920
 4874TIP3    H114586   4.122   5.675   4.062 -0.2928  0.1169  0.1507
 4874TIP3    H214587   4.048   5.694   3.931  0.7448 -3.3927 -1.0541
 4875TIP3   OH214588   3.261   0.163   5.282  0.2074 -0.4875  0.0498
 4875TIP3    H114589   3.306   0.085   5.316 -0.0593 -0.3202  0.7929
 4875TIP3    H214590   3.331   0.216   5.244  0.3096 -1.4070 -1.1194
 4876TIP3   OH214591   6.228   1.796   3.816 -0.0144 -0.0293 -0.4560
 4876TIP3    H114592   6.298   1.830   3.872  1.4361  2.0322 -3.2674
 4876TIP3    H214593   6.273   1.738   3.755 -1.2428 -0.8342 -0.6244
 4877TIP3   OH214594   7.131   6.662   0.648 -0.3846  0.4328  0.1710
 4877TIP3    H114595   7.217   6.699   0.628 -0.7260  1.5548  0.6938
 4877TIP3    H214596   7.130   6.579   0.602  0.6782  0.7599 -0.4898
 4878TIP3   OH214597   2.197   1.317   2.383  0.4801  0.1733  0.3016
 4878TIP3    H114598   2.191   1.379   2.456 -0.7862 -0.3208  0.6321
 4878TIP3    H214599   2.223   1.371   2.309 -2.2991  1.4950  0.1738
 4879TIP3   OH214600   4.172   4.700   3.300  0.2903  0.0236 -0.2202
 4879TIP3    H114601   4.213   4.785   3.315 -1.2308  0.8611 -0.6593
 4879TIP3    H214602   4.244   4.638   3.306  1.4232  1.3256  0.1917
 4880TIP3   OH214603   3.013   1.987   0.954  0.1195 -0.2358  0.0475
 4880TIP3    H114604   3.056   1.984   1.040 -0.8921  1.2971  0.6531
 4880TIP3    H214605   2.920   1.970   0.974  0.0784 -1.3108 -0.9515
 4881TIP3   OH214606   1.826   6.742   3.267  0.4141 -0.2411 -0.2573
 4881TIP3    H114607   1.793   6.820   3.312  0.1280 -0.5199  0.0196
 4881TIP3    H214608   1.828   6.767   3.175 -0.6845 -0.2446 -0.3029
 4882TIP3   OH214609   5.567   0.668   2.012 -0.1055  0.4561  0.2672
 4882TIP3    H114610   5.505   0.731   1.975  0.2189  0.7301  0.1851
 4882TIP3    H214611   5.584   0.607   1.941  1.0366  1.3657 -0.2869
 4883TIP3   OH214612   3.057   0.585   3.983  0.1608  0.2847  0.0553
 4883TIP3    H114613   3.078   0.548   4.069  1.0534  1.4943  0.3994
 4883TIP3    H214614   2.979   0.638   3.999  0.2748  0.4382  0.1109
 4884TIP3   OH214615   1.588   0.431   2.113  0.3657  0.3978 -0.1365
 4884TIP3    H114616   1.541   0.499   2.162  0.1823  0.4323 -0.3590
 4884TIP3    H214617   1.680   0.453   2.124  0.4463 -0.6844  1.8181
 4885TIP3   OH214618   7.092   6.182   3.169  0.3308 -0.4130 -0.0309
 4885TIP3    H114619   7.084   6.240   3.246  1.7031  0.0201 -0.1974
 4885TIP3    H214620   7.003   6.179   3.133 -0.2042 -0.1079  1.1985
 4886TIP3   OH214621   5.612   6.587   2.763  0.1915  0.2822  0.1496
 4886TIP3    H114622   5.610   6.672   2.720 -0.7098 -0.2839 -0.9603
 4886TIP3    H214623   5.582   6.525   2.697 -1.2997 -0.6064  1.5690
 4887TIP3   OH214624   2.416   4.354   3.729  0.1602 -0.2926  0.0333
 4887TIP3    H114625   2.421   4.365   3.634  0.3869  0.9063  0.1654
 4887TIP3    H214626   2.355   4.281   3.741 -1.1015  0.5277 -1.0159
 4888TIP3   OH214627   2.649   1.019   3.175  0.6287  0.1707 -0.5310
 4888TIP3    H114628   2.570   1.072   3.184  0.3270 -0.1856 -1.0002
 4888TIP3    H214629   2.618   0.936   3.138  0.6136 -1.5976  3.0523
 4889TIP3   OH214630   5.907   4.785   2.795  0.4952 -0.1285  0.0053
 4889TIP3    H114631   5.906   4.787   2.699 -0.6837  2.4118 -0.0251
 4889TIP3    H214632   5.831   4.731   2.818  0.4133 -0.2406 -0.5021
 4890TIP3   OH214633   4.548   3.901   0.068 -0.6526 -0.1995 -0.0769
 4890TIP3    H114634   4.520   3.865   0.152 -3.3537 -1.1417 -1.2714
 4890TIP3    H214635   4.635   3.863   0.053 -0.5070 -0.7060  1.8668
 4891TIP3   OH214636   0.030   3.050   3.531  0.3524 -0.3193  0.2095
 4891TIP3    H114637   0.115   3.007   3.526 -0.3166 -1.6165 -0.4571
 4891TIP3    H214638   0.012   3.058   3.624  0.7614 -0.9279  0.3413
 4892TIP3   OH214639   5.875   2.328   4.715  0.0440  0.0666  0.1767
 4892TIP3    H114640   5.823   2.259   4.674 -0.6324 -0.4676  1.8541
 4892TIP3    H214641   5.880   2.396   4.649 -2.0270 -0.2574 -0.3844
 4893TIP3   OH214642   1.810   0.439   3.001 -0.3000 -0.6393 -0.2504
 4893TIP3    H114643   1.726   0.458   2.959 -0.8340 -1.7518  0.2832
 4893TIP3    H214644   1.837   0.522   3.040 -0.9944 -0.2012 -0.6852
 4894TIP3   OH214645   6.679   1.699   1.573  0.3471  0.7249  0.2138
 4894TIP3    H114646   6.586   1.676   1.578  0.1746  1.6353  2.4976
 4894TIP3    H214647   6.722   1.618   1.546 -0.9529 -0.2032  0.8162
 4895TIP3   OH214648   3.415   4.449   0.040  0.5203 -0.2562 -0.2123
 4895TIP3    H114649   3.409   4.395   0.119 -0.2490 -1.4702 -1.0647
 4895TIP3    H214650   3.392   4.390  -0.032  0.3880  1.0274 -1.2780
 4896TIP3   OH214651   4.312   5.124   3.103  0.4596 -0.2565 -0.3344
 4896TIP3    H114652   4.232   5.072   3.092  0.9741 -1.1030 -0.1612
 4896TIP3    H214653   4.291   5.209   3.064 -0.7474 -0.2409  0.3024
 4897TIP3   OH214654   6.591   6.716   4.388  0.2407 -0.0581 -0.1637
 4897TIP3    H114655   6.626   6.692   4.302 -1.6961 -2.2249 -0.4432
 4897TIP3    H214656   6.539   6.640   4.415  0.0587  0.9286  2.5384
 4898TIP3   OH214657   4.343   5.947   5.875 -0.2747  0.3075  0.2141
 4898TIP3    H114658   4.271   5.903   5.920  1.0317 -2.1272  0.0631
 4898TIP3    H214659   4.347   5.905   5.789 -0.4112  2.3654 -0.8634
 4899TIP3   OH214660   1.214   5.003   2.582 -0.4435 -0.2265 -0.3647
 4899TIP3    H114661   1.283   4.983   2.519 -0.0102 -1.1678  0.4020
 4899TIP3    H214662   1.187   5.093   2.560  2.5680  1.0547  0.7212
 4900TIP3   OH214663   2.025   2.064   5.685 -0.3505  0.4097 -0.5499
 4900TIP3    H114664   1.953   2.001   5.691  0.2792 -0.3164 -0.5157
 4900TIP3    H214665   2.019   2.098   5.595  0.8387 -1.5808 -1.4246
 4901TIP3   OH214666   5.650   0.925   4.043 -0.4819  0.0900 -0.5012
 4901TIP3    H114667   5.581   0.952   3.982 -0.4777 -1.1157 -1.0807
 4901TIP3    H214668   5.730   0.928   3.992 -0.2332  0.6479 -0.0780
 4902TIP3   OH214669   1.570   5.995   0.894 -0.1792  0.2175 -0.1857
 4902TIP3    H114670   1.655   5.966   0.861  0.4365  2.3068 -0.5316
 4902TIP3    H214671   1.589   6.073   0.945 -1.7176 -0.2153  1.1142
 4903TIP3   OH214672   6.279   2.797   1.757  0.5671  0.5145  0.1105
 4903TIP3    H114673   6.311   2.804   1.847  0.2136 -1.2353  0.4110
 4903TIP3    H214674   6.357   2.781   1.704  0.8378  2.0363  0.0047
 4904TIP3   OH214675   5.508   3.325   3.919 -0.0219  0.5610 -0.2695
 4904TIP3    H114676   5.437   3.290   3.866  0.9646 -2.4154  0.1629
 4904TIP3    H214677   5.497   3.283   4.004  1.0162  1.7390  0.4863
 4905TIP3   OH214678   7.060   5.027   1.054  0.9297  0.3639 -0.8071
 4905TIP3    H114679   7.106   5.051   1.134  0.2871  0.5388 -0.4854
 4905TIP3    H214680   7.032   4.936   1.069 -0.0002  0.6959 -0.4404
 4906TIP3   OH214681   4.665   2.384   2.366 -0.2465 -0.1584  0.0430
 4906TIP3    H114682   4.588   2.344   2.325 -0.1790 -0.0801 -0.1641
 4906TIP3    H214683   4.710   2.428   2.293  0.0758 -0.3358  0.1330
 4907TIP3   OH214684   4.806   0.405   0.479 -0.0009  0.0549 -0.3338
 4907TIP3    H114685   4.844   0.473   0.424  0.1741  0.3159  0.1048
 4907TIP3    H214686   4.862   0.328   0.464 -0.2330 -0.0166 -0.8725
 4908TIP3   OH214687   0.478   6.488   2.392  0.3024 -0.8051  0.4069
 4908TIP3    H114688   0.413   6.500   2.461 -0.3139  1.7351 -0.5294
 4908TIP3    H214689   0.539   6.561   2.403  0.1812 -0.3226 -1.7038
 4909TIP3   OH214690   6.761   5.944   2.350  0.0476  0.0938 -0.3724
 4909TIP3    H114691   6.829   6.010   2.363 -1.2143  1.2038  0.8846
 4909TIP3    H214692   6.679   5.991   2.362 -0.9184 -1.5178 -0.4046
 4910TIP3   OH214693   4.808   2.711   4.340 -0.2145 -0.5159  0.7532
 4910TIP3    H114694   4.809   2.700   4.435  1.1086 -1.3535  0.6577
 4910TIP3    H214695   4.737   2.654   4.310 -1.0974  0.2726  1.2747
 4911TIP3   OH214696   4.932   4.213   5.019  0.1148 -0.6190  0.4046
 4911TIP3    H114697   4.948   4.293   4.969 -1.0103  0.6609  1.9707
 4911TIP3    H214698   4.887   4.155   4.958  0.5353  0.1286 -0.6338
 4912TIP3   OH214699   6.545   1.332   2.092 -0.0483 -0.2919 -0.4490
 4912TIP3    H114700   6.453   1.319   2.073 -0.8587  3.5613  0.0250
 4912TIP3    H214701   6.588   1.332   2.007 -0.8927  0.2556 -0.8854
 4913TIP3   OH214702   5.029   6.739   5.233 -0.3051 -0.0747  0.1438
 4913TIP3    H114703   5.056   6.772   5.147 -1.6040 -0.8704 -0.6086
 4913TIP3    H214704   5.060   6.649   5.235  0.8385  0.3149  1.0662
 4914TIP3   OH214705   3.640   1.973   0.220 -0.0658  0.2553 -0.0768
 4914TIP3    H114706   3.586   1.902   0.254  0.3786  0.0462  0.2000
 4914TIP3    H214707   3.604   2.052   0.260  0.3447  0.0299  0.7742
 4915TIP3   OH214708   5.827   0.854   3.632  0.1507  0.4042  0.1749
 4915TIP3    H114709   5.877   0.885   3.557  1.7735 -0.7005  0.7423
 4915TIP3    H214710   5.746   0.821   3.595  1.1317 -0.5924 -1.1910
 4916TIP3   OH214711   4.946   4.464   5.729  0.1494  0.2373  0.3156
 4916TIP3    H114712   4.984   4.415   5.657 -0.5487 -0.5547  0.4636
 4916TIP3    H214713   4.880   4.521   5.688  0.7557  0.8543  0.1777
 4917TIP3   OH214714   2.114   1.197   0.518  0.2946  0.1491 -0.0073
 4917TIP3    H114715   2.176   1.141   0.472  0.0764 -0.7994  0.8049
 4917TIP3    H214716   2.029   1.175   0.482  0.2187  0.0203  0.2450
 4918TIP3   OH214717   6.556   4.350   3.199  0.5397 -0.3567  0.6773
 4918TIP3    H114718   6.491   4.280   3.193 -0.8040  0.7180  2.0981
 4918TIP3    H214719   6.615   4.335   3.124 -2.3823 -0.3248 -1.8100
 4919TIP3   OH214720   1.351   0.822   3.753 -0.1400 -0.1300  0.2180
 4919TIP3    H114721   1.258   0.810   3.732 -0.3833  1.1124  0.5249
 4919TIP3    H214722   1.389   0.857   3.672  0.2183 -1.2784 -0.1298
 4920TIP3   OH214723   0.290   0.848   3.379  0.3952 -0.2558 -0.0499
 4920TIP3    H114724   0.222   0.913   3.364  1.3479  0.8992  0.5086
 4920TIP3    H214725   0.368   0.899   3.401  0.3311 -1.5536  4.1293
 4921TIP3   OH214726   1.731   0.301   1.522  0.0509 -0.0680  0.4326
 4921TIP3    H114727   1.740   0.352   1.602 -0.2293 -0.6237  0.8257
 4921TIP3    H214728   1.649   0.253   1.533  0.3382 -0.6455  0.1014
 4922TIP3   OH214729   0.534   2.423   3.887  0.4679  0.5466  0.5966
 4922TIP3    H114730   0.484   2.437   3.968 -0.3132 -0.3322  0.2874
 4922TIP3    H214731   0.484   2.469   3.820  0.9569  1.0243  0.5555
 4923TIP3   OH214732   2.819   5.835   5.124 -0.0802  0.8236 -0.8542
 4923TIP3    H114733   2.825   5.768   5.193 -0.0549 -0.1272 -1.7509
 4923TIP3    H214734   2.800   5.916   5.171 -1.5841 -0.0552  0.1502
 4924TIP3   OH214735   5.185   1.489   3.051  0.2546 -0.4232 -0.2984
 4924TIP3    H114736   5.193   1.583   3.067 -0.3579 -0.5834  1.0077
 4924TIP3    H214737   5.147   1.483   2.963  0.5566  0.5365 -0.5001
 4925TIP3   OH214738   4.068   0.538   0.810 -0.4820 -0.4508  0.9050
 4925TIP3    H114739   4.042   0.458   0.856  0.7666 -1.7677 -0.5294
 4925TIP3    H214740   4.123   0.506   0.738 -0.8384  1.6444 -0.3606
 4926TIP3   OH214741   6.882   1.145   3.084  0.0448  0.1368  0.2962
 4926TIP3    H114742   6.835   1.111   3.008 -1.3399  0.6392  0.8990
 4926TIP3    H214743   6.885   1.240   3.071 -1.6446  0.4203  1.5975
 4927TIP3   OH214744   5.111   2.502   3.669 -0.0145  0.5333  0.1544
 4927TIP3    H114745   5.137   2.553   3.591  1.0279  2.0306  1.4235
 4927TIP3    H214746   5.191   2.495   3.721 -0.6666 -0.5765  1.0497
 4928TIP3   OH214747   4.273   5.348   1.643  0.3180 -0.0580  0.4092
 4928TIP3    H114748   4.218   5.287   1.691 -0.1766  0.2481  0.2325
 4928TIP3    H214749   4.357   5.303   1.634 -0.7693 -1.8252 -2.0065
 4929TIP3   OH214750   1.355   1.507   3.675  0.1676  0.4616 -0.0937
 4929TIP3    H114751   1.372   1.465   3.760 -1.5797 -0.3930 -0.1303
 4929TIP3    H214752   1.358   1.601   3.694  0.0135  0.2864  0.8739
 4930TIP3   OH214753   0.748   2.471   1.162 -0.1681  0.7008 -0.1402
 4930TIP3    H114754   0.663   2.469   1.204 -0.0250  0.4688  0.1373
 4930TIP3    H214755   0.811   2.460   1.233  0.0810  0.4441 -0.3978
 4931TIP3   OH214756   4.852   0.928   0.374 -0.1332  0.0030 -0.2766
 4931TIP3    H114757   4.919   0.984   0.333 -0.4822  0.0546 -0.7836
 4931TIP3    H214758   4.813   0.983   0.442 -0.5722  0.4322 -0.8680
 4932TIP3   OH214759   3.788   4.882   3.212  0.2639  0.2100 -0.0167
 4932TIP3    H114760   3.859   4.859   3.273  0.9696 -0.5627 -1.0999
 4932TIP3    H214761   3.708   4.854   3.257  0.5418  1.6785  1.5046
 4933TIP3   OH214762   4.749   4.809   0.002  0.1063  0.5954  0.3648
 4933TIP3    H114763   4.750   4.728   0.052  0.4233 -0.3265 -1.0997
 4933TIP3    H214764   4.836   4.846   0.014 -0.2313  1.0488  1.5259
 4934TIP3   OH214765   6.334   4.329   1.214 -0.1667  0.4522 -0.3318
 4934TIP3    H114766   6.276   4.253   1.205  0.2873  0.3025 -2.2995
 4934TIP3    H214767   6.290   4.399   1.166  0.6208  0.7119 -0.6982
 4935TIP3   OH214768   3.335   4.136   0.007  0.4933 -0.1348  0.0957
 4935TIP3    H114769   3.327   4.078  -0.069 -0.6680  0.4070 -0.2133
 4935TIP3    H214770   3.308   4.082   0.082  3.0894 -1.1523  0.4092
 4936TIP3   OH214771   5.987   1.422   1.644 -0.4174  0.1933  0.2403
 4936TIP3    H114772   5.925   1.483   1.604  0.4990  0.8739 -0.1807
 4936TIP3    H214773   5.967   1.426   1.737  0.7232  2.4918  0.4744
 4937TIP3   OH214774   0.090   0.880   0.553 -0.1508 -0.6867 -0.2927
 4937TIP3    H114775   0.085   0.920   0.640 -1.4018 -1.8857  0.2173
 4937TIP3    H214776   0.160   0.816   0.561 -0.4906 -1.0344 -0.0516
 4938TIP3   OH214777   4.880   1.624   3.459  0.2750 -0.5346 -0.6232
 4938TIP3    H114778   4.889   1.529   3.464  0.6569 -0.4488  1.4969
 4938TIP3    H214779   4.789   1.638   3.433  0.5540 -1.4600 -2.1952
 4939TIP3   OH214780   6.189   5.009   1.778 -0.0577 -0.0377  0.0998
 4939TIP3    H114781   6.255   5.052   1.723 -0.4579  0.3535 -0.0792
 4939TIP3    H214782   6.184   4.920   1.744  0.3314 -0.0516  0.0713
 4940TIP3   OH214783   3.558   6.028   1.455  0.3553 -0.3249 -0.1495
 4940TIP3    H114784   3.466   6.040   1.477  0.6700  0.5664  0.7887
 4940TIP3    H214785   3.563   6.043   1.361 -0.1275  1.9372  0.1240
 4941TIP3   OH214786   5.850   5.019   0.495 -0.2046 -0.7724  0.1590
 4941TIP3    H114787   5.846   4.990   0.587 -0.9574 -0.1133  0.3459
 4941TIP3    H214788   5.779   5.083   0.487  0.5294 -0.0236 -0.6052
 4942TIP3   OH214789   5.739   5.473   0.706  0.2530  0.4595  0.1852
 4942TIP3    H114790   5.788   5.506   0.631  1.4915 -1.2483  0.1847
 4942TIP3    H214791   5.650   5.461   0.672  0.6387  0.3346 -0.8398
 4943TIP3   OH214792   6.951   1.083   0.329  0.7551  0.1110  0.4992
 4943TIP3    H114793   7.002   1.006   0.306  1.3994  0.5193  0.5393
 4943TIP3    H214794   6.948   1.135   0.249 -0.5479 -0.4247  0.1810
 4944TIP3   OH214795   1.031   1.962   0.501  0.5956 -0.6312 -0.2162
 4944TIP3    H114796   0.937   1.944   0.511  1.0165 -3.9242 -1.1917
 4944TIP3    H214797   1.057   1.998   0.586 -1.1926 -1.4255  0.7314
 4945TIP3   OH214798   4.454   4.722   3.457 -0.6812 -0.4037  0.5460
 4945TIP3    H114799   4.442   4.655   3.389 -3.0314 -0.7691  1.2088
 4945TIP3    H214800   4.410   4.799   3.421 -1.2726 -0.3735  1.3121
 4946TIP3   OH214801   5.599   0.048   1.381  0.6036  0.8074  0.1366
 4946TIP3    H114802   5.568   0.097   1.457  0.2504  0.0549  0.4951
 4946TIP3    H214803   5.694   0.055   1.384  0.6951 -0.4910  1.5573
 4947TIP3   OH214804   1.890   3.147   0.477 -0.7649  0.4199  0.1141
 4947TIP3    H114805   1.921   3.067   0.435 -0.4934  1.1181 -1.0620
 4947TIP3    H214806   1.814   3.119   0.528 -1.5190 -0.3661 -1.3662
 4948TIP3   OH214807   3.397   5.925   3.585 -0.5817 -0.0897 -0.6282
 4948TIP3    H114808   3.372   5.901   3.496 -1.9482 -2.0319  0.2194
 4948TIP3    H214809   3.476   5.874   3.603  0.7824  1.6861 -1.3027
 4949TIP3   OH214810   7.133   6.374   0.805  0.1477 -0.5147 -0.2182
 4949TIP3    H114811   7.043   6.373   0.836 -0.4682 -0.6469 -1.9144
 4949TIP3    H214812   7.127   6.403   0.714  1.9299  0.5485 -0.0518
 4950TIP3   OH214813   3.419   0.796   2.594  0.3470  0.0346 -0.4453
 4950TIP3    H114814   3.385   0.883   2.574 -0.1697  0.2531  1.2212
 4950TIP3    H214815   3.341   0.744   2.612  0.7334 -0.2486  0.4610
 4951TIP3   OH214816   1.076   1.027   1.912  0.2451 -0.0979 -0.2207
 4951TIP3    H114817   1.054   1.119   1.897  0.0995 -0.3383 -1.5625
 4951TIP3    H214818   1.082   0.989   1.825  0.7342 -1.2726  0.3043
 4952TIP3   OH214819   6.607   4.285   4.142  0.6344 -0.6014  0.3807
 4952TIP3    H114820   6.643   4.360   4.094  1.8567 -0.2324  1.7872
 4952TIP3    H214821   6.536   4.253   4.088  1.4133  0.3154 -1.2449
 4953TIP3   OH214822   3.866   2.942   3.416 -0.1532 -0.3468  0.3409
 4953TIP3    H114823   3.880   2.931   3.510  1.4308  1.0109  0.3191
 4953TIP3    H214824   3.866   3.037   3.403 -1.4923 -0.4790 -0.9027
 4954TIP3   OH214825   5.170   2.389   4.883 -0.6494  0.1247  0.3837
 4954TIP3    H114826   5.217   2.430   4.810 -0.9924 -0.3090 -0.0962
 4954TIP3    H214827   5.127   2.313   4.843 -0.0211 -0.7068  1.2493
 4955TIP3   OH214828   5.358   5.234   3.809 -0.6857 -0.1223  0.3022
 4955TIP3    H114829   5.317   5.287   3.877 -0.7352 -1.0776  1.0280
 4955TIP3    H214830   5.289   5.175   3.780  0.2428 -2.0504  1.8415
 4956TIP3   OH214831   2.296   0.485   4.924 -0.3199  0.1996  0.5903
 4956TIP3    H114832   2.238   0.410   4.911 -0.4687  0.3845  0.1671
 4956TIP3    H214833   2.335   0.471   5.010 -0.4871 -0.2680  0.5903
 4957TIP3   OH214834   1.096   6.550   0.519  0.1706 -0.0788  0.0404
 4957TIP3    H114835   1.119   6.602   0.441  0.5326  0.9181  0.7942
 4957TIP3    H214836   1.125   6.461   0.497  0.8745  0.3121 -0.7112
 4958TIP3   OH214837   6.820   3.292   4.789 -0.0133  0.5995  0.1585
 4958TIP3    H114838   6.751   3.339   4.742  1.0378  1.5344 -0.5161
 4958TIP3    H214839   6.872   3.252   4.720  1.5401  1.9601  0.4854
 4959TIP3   OH214840   2.133   4.346   4.711  0.5408  0.1630 -0.6672
 4959TIP3    H114841   2.157   4.302   4.792  0.1607  1.5185  0.2224
 4959TIP3    H214842   2.216   4.379   4.676  0.7753 -0.8800 -1.1412
 4960TIP3   OH214843   1.585   3.277   5.549  0.2532  0.1563 -0.3015
 4960TIP3    H114844   1.599   3.185   5.571  4.9831  0.8987  0.7942
 4960TIP3    H214845   1.598   3.281   5.454 -0.5483 -0.3395 -0.4426
 4961TIP3   OH214846   0.814   6.233   4.808 -0.4504  0.2246 -0.3874
 4961TIP3    H114847   0.861   6.238   4.724  0.8203  2.7205  0.3434
 4961TIP3    H214848   0.884   6.224   4.873 -1.3856 -1.0800  0.4785
 4962TIP3   OH214849   4.343   4.776   5.136 -0.2319  0.2909  0.7924
 4962TIP3    H114850   4.397   4.697   5.131 -0.9835 -0.1589 -0.8050
 4962TIP3    H214851   4.403   4.847   5.115 -0.3795 -0.2958 -1.9424
 4963TIP3   OH214852   6.940   0.571   1.506  0.0207  0.7518 -0.2424
 4963TIP3    H114853   6.970   0.500   1.449 -0.0924  0.7295 -0.2744
 4963TIP3    H214854   6.868   0.533   1.556  1.2208  0.2191  1.1919
 4964TIP3   OH214855   2.887   3.089   2.594 -0.2073 -0.1039  0.3415
 4964TIP3    H114856   2.832   3.018   2.562 -0.4080  0.3371 -0.3129
 4964TIP3    H214857   2.851   3.110   2.680 -1.7222  0.8409 -0.4795
 4965TIP3   OH214858   4.629   4.710   0.418  0.3422 -0.6320  0.3635
 4965TIP3    H114859   4.656   4.797   0.388  0.3864 -0.1004  1.8578
 4965TIP3    H214860   4.534   4.712   0.417  0.2875  0.2450  2.4686
 4966TIP3   OH214861   1.555   1.146   4.685  0.1312  0.5763  0.3152
 4966TIP3    H114862   1.550   1.083   4.757  3.0841  1.3960  1.3831
 4966TIP3    H214863   1.516   1.101   4.611 -0.6431 -1.3121  1.7974
 4967TIP3   OH214864   0.200   2.240   2.640  0.6284 -0.0332 -0.2821
 4967TIP3    H114865   0.166   2.320   2.599  0.2331 -0.3993 -0.6753
 4967TIP3    H214866   0.169   2.245   2.730  1.9764  1.0574  0.1644
 4968TIP3   OH214867   1.066   5.857   3.094 -0.4105  0.3367  0.1571
 4968TIP3    H114868   1.113   5.914   3.034  1.7095 -0.9454  0.4933
 4968TIP3    H214869   1.069   5.903   3.178  1.9468 -0.4890  0.6048
 4969TIP3   OH214870   6.830   1.679   3.386  0.1650  0.1182  0.0709
 4969TIP3    H114871   6.825   1.596   3.339  3.9760 -0.6687  0.7651
 4969TIP3    H214872   6.841   1.654   3.478 -0.6848  1.4625  0.5565
 4970TIP3   OH214873   1.518   1.906   0.244  0.0311 -0.0719  0.8520
 4970TIP3    H114874   1.484   1.829   0.197 -0.4786 -0.3567  1.6521
 4970TIP3    H214875   1.610   1.886   0.261  0.7710  0.8726 -1.6874
 4971TIP3   OH214876   2.452   1.898   2.295 -0.0425  0.4145 -0.3585
 4971TIP3    H114877   2.487   1.972   2.246  2.4008 -0.3861  0.0544
 4971TIP3    H214878   2.528   1.843   2.315 -1.6457 -1.8228  0.0468
 4972TIP3   OH214879   6.708   5.943   0.726 -0.5709  0.5275 -0.0722
 4972TIP3    H114880   6.800   5.925   0.747 -0.0671  1.9016 -0.9872
 4972TIP3    H214881   6.682   5.870   0.669  0.2206  0.5904 -0.5278
 4973TIP3   OH214882   6.494   3.653   3.038 -0.2336 -0.3180  0.9825
 4973TIP3    H114883   6.552   3.682   2.967 -2.1603  0.9870 -0.1443
 4973TIP3    H214884   6.464   3.567   3.010  0.6659 -0.7409  1.2815
 4974TIP3   OH214885   4.213   3.081   3.975 -0.6292  0.0477 -0.1928
 4974TIP3    H114886   4.306   3.093   3.994 -0.3125 -1.8500 -0.3054
 4974TIP3    H214887   4.198   3.132   3.896  0.1015  1.0705  0.3025
 4975TIP3   OH214888   0.779   2.148   3.045 -0.1119 -0.5729 -0.0916
 4975TIP3    H114889   0.734   2.199   2.977  0.3880 -1.4637 -1.1237
 4975TIP3    H214890   0.707   2.109   3.095 -0.5613 -1.9586 -1.7044
 4976TIP3   OH214891   3.824   0.789   3.595  0.0065 -0.0475  0.2429
 4976TIP3    H114892   3.765   0.784   3.520  0.9580  1.7631 -0.7038
 4976TIP3    H214893   3.833   0.699   3.625 -0.8719 -0.7384 -1.4368
 4977TIP3   OH214894   6.284   1.637   0.389  0.0968  0.0437  0.5338
 4977TIP3    H114895   6.348   1.567   0.378 -0.0896 -0.2351  1.1606
 4977TIP3    H214896   6.226   1.606   0.458  0.0806  0.8540  0.9078
 4978TIP3   OH214897   2.806   0.603   3.482 -0.5850 -0.1017 -0.2771
 4978TIP3    H114898   2.846   0.585   3.567 -1.6963 -0.7369  0.1349
 4978TIP3    H214899   2.878   0.595   3.419  0.3999  1.0998  0.6653
 4979TIP3   OH214900   6.058   1.965   1.102 -0.4096  0.7640  0.4584
 4979TIP3    H114901   6.080   1.875   1.078 -0.0684  0.4973  1.6968
 4979TIP3    H214902   5.969   1.959   1.138 -0.5365  0.9975  0.1950
 4980TIP3   OH214903   6.826   0.943   1.406 -0.0607  0.5158  0.1236
 4980TIP3    H114904   6.869   1.023   1.435  1.2915  0.0714 -0.5614
 4980TIP3    H214905   6.758   0.972   1.346 -1.1313  1.2716  1.6566
 4981TIP3   OH214906   0.278   1.420   1.063  0.0924  0.0025 -0.2190
 4981TIP3    H114907   0.254   1.482   1.131  1.7888  1.1592 -0.6048
 4981TIP3    H214908   0.296   1.474   0.986 -0.2851 -1.1447 -1.1545
 4982TIP3   OH214909   0.201   2.601   2.162 -0.5901  0.2889 -0.2375
 4982TIP3    H114910   0.232   2.567   2.078  0.3552 -2.0140  0.9542
 4982TIP3    H214911   0.108   2.578   2.164 -0.1025 -1.9326  0.2913
 4983TIP3   OH214912   0.637   1.745   1.098  0.4750 -0.2281  0.1912
 4983TIP3    H114913   0.606   1.679   1.036 -0.3836  0.6258 -0.2988
 4983TIP3    H214914   0.726   1.764   1.069  0.6460 -0.9796  0.1885
 4984TIP3   OH214915   0.947   0.861   4.149  0.2094 -0.3856  0.0431
 4984TIP3    H114916   0.900   0.860   4.232 -2.6852  1.0186 -1.4274
 4984TIP3    H214917   1.014   0.928   4.159 -0.9433  0.6830  0.8923
 4985TIP3   OH214918   6.801   1.958   3.985 -0.2954  0.5049 -0.3202
 4985TIP3    H114919   6.835   2.038   3.945 -2.2631  0.7539 -1.6193
 4985TIP3    H214920   6.848   1.951   4.068  1.5419  1.7664 -1.1916
 4986TIP3   OH214921   3.276   0.402   1.706 -0.5801  0.2455 -0.6793
 4986TIP3    H114922   3.335   0.406   1.631 -0.7755 -2.3298 -1.0409
 4986TIP3    H214923   3.291   0.316   1.745 -1.2732  1.0763  1.6190
 4987TIP3   OH214924   6.861   4.294   2.864 -0.5452  0.4177  0.1253
 4987TIP3    H114925   6.848   4.300   2.769  0.5288 -0.2242 -0.0795
 4987TIP3    H214926   6.862   4.384   2.894 -0.4604  0.6485 -0.5456
 4988TIP3   OH214927   5.054   6.274   0.126 -0.1419 -0.2649 -0.3501
 4988TIP3    H114928   5.066   6.200   0.185 -0.5356 -0.3188 -0.3325
 4988TIP3    H214929   5.128   6.331   0.144  0.2277 -0.7074 -0.4441
 4989TIP3   OH214930   3.447   4.571   3.982 -0.0681 -0.1164 -0.8925
 4989TIP3    H114931   3.421   4.662   3.973  1.9047  0.4936 -0.8746
 4989TIP3    H214932   3.493   4.551   3.901  0.4042 -0.7831 -0.4715
 4990TIP3   OH214933   3.982   1.750   4.448 -0.0592  0.1694 -0.2681
 4990TIP3    H114934   3.923   1.692   4.495  0.4165 -0.1838 -0.0950
 4990TIP3    H214935   4.061   1.753   4.502  0.9103 -1.0830 -1.5512
 4991TIP3   OH214936   0.319   0.233   5.152 -0.1955 -0.0417 -0.8144
 4991TIP3    H114937   0.322   0.157   5.094 -1.9752 -0.3158 -0.6135
 4991TIP3    H214938   0.305   0.308   5.093  3.7725  0.5850 -1.2708
 4992TIP3   OH214939   1.579   6.247   4.918 -0.3142 -0.3481  0.2521
 4992TIP3    H114940   1.574   6.161   4.877 -1.7319 -0.2447  0.1545
 4992TIP3    H214941   1.516   6.243   4.990  1.2577 -0.1339  1.7217
 4993TIP3   OH214942   3.759   4.761   2.238 -0.2870 -0.2897 -0.0629
 4993TIP3    H114943   3.735   4.734   2.149 -0.3299 -1.1199  0.1938
 4993TIP3    H214944   3.804   4.845   2.226 -0.3079 -0.3842 -0.8684
 4994TIP3   OH214945   0.850   2.139   0.930 -0.1998  0.2143  0.0077
 4994TIP3    H114946   0.815   2.123   1.017 -0.0678  0.1991  0.0595
 4994TIP3    H214947   0.799   2.082   0.872  0.4220 -0.5805  0.2250
 4995TIP3   OH214948   7.062   3.875   1.551  0.0941 -0.1060  0.1590
 4995TIP3    H114949   6.976   3.899   1.518 -0.2089 -1.3886 -0.0439
 4995TIP3    H214950   7.113   3.956   1.547 -0.6986  0.3625 -1.0164
 4996TIP3   OH214951   5.924   1.658   0.047 -0.2628 -0.0262  0.2362
 4996TIP3    H114952   5.899   1.740   0.089  0.1591 -1.3237  3.3383
 4996TIP3    H214953   5.851   1.599   0.064  0.4586 -0.9502  0.2378
 4997TIP3   OH214954   2.163   6.095   2.406  0.4314 -0.0973 -0.2617
 4997TIP3    H114955   2.232   6.161   2.413  0.0563  0.3587 -0.7856
 4997TIP3    H214956   2.092   6.139   2.359 -0.7546 -0.1080  1.4105
 4998TIP3   OH214957   1.298   1.205   3.803 -0.0940 -0.1647  0.3459
 4998TIP3    H114958   1.220   1.149   3.809  0.2312 -0.5307  1.3869
 4998TIP3    H214959   1.360   1.154   3.753 -1.3317  1.1313 -2.7494
 4999TIP3   OH214960   0.582   6.604   0.918 -0.2543 -0.1164 -0.0929
 4999TIP3    H114961   0.539   6.627   0.836 -0.7090  0.5787  0.3310
 4999TIP3    H214962   0.513   6.568   0.973 -0.6415  2.1952  1.0606
 5000TIP3   OH214963   6.228   5.491   3.998 -0.3348  0.4727 -0.6786
 5000TIP3    H114964   6.291   5.550   3.956  0.5351 -0.8280 -1.2601
 5000TIP3    H214965   6.204   5.429   3.930 -0.3814 -0.5095  0.2083
 5001TIP3   OH214966   6.346   4.757   5.754  0.5136  0.4325 -0.1128
 5001TIP3    H114967   6.281   4.688   5.768 -1.8534  2.7473  1.1614
 5001TIP3    H214968   6.333   4.785   5.663  0.0837  0.5508 -0.0134
 5002TIP3   OH214969   2.385   4.072   5.663 -0.1245 -0.0061  0.2077
 5002TIP3    H114970   2.428   4.102   5.743  0.1471 -4.1506  1.9074
 5002TIP3    H214971   2.455   4.071   5.597  0.5610  0.1391  0.9154
 5003TIP3   OH214972   7.002   4.932   5.826  0.1455 -0.4575  0.0771
 5003TIP3    H114973   7.068   4.872   5.860 -0.3139 -0.8529  0.2972
 5003TIP3    H214974   6.922   4.908   5.874 -0.1401  0.0409 -0.1501
 5004TIP3   OH214975   4.788   5.554   0.691 -0.0513  0.0324  0.3018
 5004TIP3    H114976   4.766   5.462   0.707 -1.3297  0.5915  2.0594
 5004TIP3    H214977   4.712   5.590   0.646  0.5142  0.2192 -0.5294
 5005TIP3   OH214978   6.473   3.544   4.751  0.1111 -0.0161  0.2130
 5005TIP3    H114979   6.415   3.481   4.794 -0.7233  1.3718  1.2136
 5005TIP3    H214980   6.434   3.557   4.665 -0.0105 -0.4565  0.1954
 5006TIP3   OH214981   4.129   2.645   0.366  0.3608  0.2574 -0.5145
 5006TIP3    H114982   4.179   2.717   0.405 -0.1173  0.2992  0.0543
 5006TIP3    H214983   4.170   2.629   0.281  0.7903  0.8613 -0.4252
 5007TIP3   OH214984   0.978   0.396   0.633 -0.6470 -0.4326 -0.3926
 5007TIP3    H114985   0.919   0.452   0.583 -0.6390  1.2315  1.3344
 5007TIP3    H214986   0.935   0.311   0.635 -1.7133  0.0600 -1.3203
 5008TIP3   OH214987   1.340   2.577   1.006  0.4337 -0.3456 -0.1984
 5008TIP3    H114988   1.321   2.647   1.068 -0.4526 -1.3329  0.6930
 5008TIP3    H214989   1.318   2.497   1.053  2.3984 -1.3136 -0.8200
 5009TIP3   OH214990   3.010   2.318   2.500 -0.5199  0.1185 -0.7234
 5009TIP3    H114991   2.959   2.264   2.440 -1.6205 -2.1730  2.0268
 5009TIP3    H214992   2.945   2.379   2.537  0.0591  1.2457 -1.5316
 5010TIP3   OH214993   2.085   0.806   3.498  0.9415  0.2563 -0.0266
 5010TIP3    H114994   2.017   0.871   3.481 -0.9238 -1.7344 -0.6400
 5010TIP3    H214995   2.121   0.831   3.584 -0.5389  1.4068  0.2982
 5011TIP3   OH214996   3.935   3.821   4.938 -0.2363 -0.4136  0.0641
 5011TIP3    H114997   4.026   3.815   4.967 -0.8307  0.3898  2.2482
 5011TIP3    H214998   3.908   3.729   4.927  0.1606 -0.7544  1.7117
 5012TIP3   OH214999   5.319   0.500   1.996 -0.4605 -0.4160 -0.4967
 5012TIP3    H115000   5.355   0.589   2.005 -0.3708 -0.4926 -0.0905
 5012TIP3    H215001   5.236   0.513   1.950 -1.8523  0.2070  2.0340
 5013TIP3   OH215002   2.239   5.989   5.324 -0.1462 -0.5860 -0.0928
 5013TIP3    H115003   2.179   5.949   5.387  0.2644  1.1967  1.5087
 5013TIP3    H215004   2.326   5.960   5.352  0.1738  1.4102  1.1856
 5014TIP3   OH215005   4.914   0.567   3.237  0.4607  0.1686 -0.4148
 5014TIP3    H115006   4.999   0.526   3.252 -0.0116 -0.7375 -0.1674
 5014TIP3    H215007   4.901   0.559   3.142  0.2148 -0.5709 -0.3218
 5015TIP3   OH215008   3.626   1.948   0.918  0.2724  0.0368 -0.1418
 5015TIP3    H115009   3.608   1.943   1.012 -0.2886 -1.6279 -0.3020
 5015TIP3    H215010   3.709   1.995   0.912 -0.1821  1.0637  1.1053
 5016TIP3   OH215011   2.424   4.508   2.245  0.1616 -0.1750 -0.0341
 5016TIP3    H115012   2.405   4.414   2.246  1.6707 -0.5179  1.1316
 5016TIP3    H215013   2.494   4.518   2.180  0.0485  0.1309 -0.1106
 5017TIP3   OH215014   3.970   4.181   4.070  0.5285  0.0019  0.9101
 5017TIP3    H115015   3.946   4.265   4.109 -0.2209  0.3978 -0.3447
 5017TIP3    H215016   3.978   4.199   3.976  1.6786 -1.0419  0.7751
 5018TIP3   OH215017   4.160   0.915   4.513 -0.0157  0.1180  0.1091
 5018TIP3    H115018   4.113   0.998   4.516  1.4601  1.0856 -1.5421
 5018TIP3    H215019   4.096   0.852   4.481 -1.5199  0.2748  2.5400
 5019TIP3   OH215020   0.525   6.716   1.735  0.5065  0.3742  0.0554
 5019TIP3    H115021   0.618   6.729   1.718  0.4672  2.1655  0.9497
 5019TIP3    H215022   0.514   6.741   1.826 -0.6257 -1.2412  0.3988
 5020TIP3   OH215023   0.979   5.011   0.798  0.5817 -0.0857 -0.3802
 5020TIP3    H115024   0.992   4.936   0.856  0.5909 -0.7004 -1.1545
 5020TIP3    H215025   0.947   5.081   0.855  0.6272 -0.6602  0.3638
 5021TIP3   OH215026   3.641   4.471   5.696 -0.0285 -0.0493 -0.2970
 5021TIP3    H115027   3.678   4.525   5.626 -0.8062 -0.9308 -1.4220
 5021TIP3    H215028   3.612   4.391   5.652 -0.7121 -0.5498  1.0065
 5022TIP3   OH215029   0.258   3.251   3.148  0.1980 -0.3388  0.5629
 5022TIP3    H115030   0.344   3.251   3.191  1.1714 -1.2288 -1.2552
 5022TIP3    H215031   0.235   3.158   3.141  0.5927 -0.3248 -1.7150
 5023TIP3   OH215032   3.275   3.392   1.021  0.5430  0.0421  0.1467
 5023TIP3    H115033   3.201   3.367   1.077  0.8142 -1.9731 -0.3326
 5023TIP3    H215034   3.274   3.488   1.023 -0.7916  0.0549  1.8248
 5024TIP3   OH215035   5.192   4.416   1.457 -0.1713 -0.8324  0.2079
 5024TIP3    H115036   5.150   4.437   1.374  0.0739  0.6610  0.4335
 5024TIP3    H215037   5.126   4.367   1.506 -0.5020 -1.2598 -0.6505
 5025TIP3   OH215038   1.685   2.604   1.620 -0.3706  0.3328  0.3235
 5025TIP3    H115039   1.639   2.612   1.537 -0.2905 -1.0591  0.1228
 5025TIP3    H215040   1.672   2.513   1.647  1.0450  0.2885  0.9672
 5026TIP3   OH215041   1.580   3.080   4.183  0.0256  0.1369 -0.5453
 5026TIP3    H115042   1.542   3.024   4.252  0.4063 -0.1880 -0.5975
 5026TIP3    H215043   1.577   3.168   4.220 -2.4260  0.4134 -1.2281
 5027TIP3   OH215044   5.875   4.501   0.785  0.1109  0.2947  0.1530
 5027TIP3    H115045   5.798   4.521   0.837  0.2218  1.5279 -0.1362
 5027TIP3    H215046   5.946   4.551   0.826  0.1575  1.4662 -1.2910
 5028TIP3   OH215047   2.315   2.678   4.484  0.1620 -0.2221  0.6040
 5028TIP3    H115048   2.356   2.639   4.407  1.8887  0.6125  1.0411
 5028TIP3    H215049   2.303   2.606   4.545  1.6535 -0.3950  0.7184
 5029TIP3   OH215050   1.982   2.040   2.833  0.0473  0.3000  0.7054
 5029TIP3    H115051   1.888   2.027   2.832  0.0072  0.5919  0.3973
 5029TIP3    H215052   2.007   2.045   2.740  0.2848  0.7848  0.7914
 5030TIP3   OH215053   4.823   0.303   1.896  0.4326  0.0912 -0.0354
 5030TIP3    H115054   4.761   0.261   1.955 -1.5294  1.6677 -0.8815
 5030TIP3    H215055   4.795   0.277   1.809  1.7179 -0.1230 -0.4139
 5031TIP3   OH215056   6.229   0.209   4.051 -0.0250  0.3640  0.4321
 5031TIP3    H115057   6.252   0.121   4.080 -2.0681 -0.7883 -1.1645
 5031TIP3    H215058   6.235   0.263   4.130  0.8819 -1.2524  1.5342
 5032TIP3   OH215059   4.019   6.185   0.369  0.1901 -0.1465  0.3095
 5032TIP3    H115060   3.998   6.107   0.420 -2.5628 -0.4215 -1.0091
 5032TIP3    H215061   4.004   6.258   0.430  1.1100 -0.5770  1.0663
 5033TIP3   OH215062   1.619   1.620   5.728 -0.3537 -0.1034  0.3616
 5033TIP3    H115063   1.601   1.537   5.772 -0.2340 -0.6382 -0.5714
 5033TIP3    H215064   1.625   1.684   5.799 -3.6857 -0.2423  0.9522
 5034TIP3   OH215065   3.970   2.535   4.192 -0.0753  0.3737  0.1550
 5034TIP3    H115066   4.042   2.564   4.249  0.3188 -1.2435  0.5235
 5034TIP3    H215067   3.933   2.617   4.158  0.3570  1.3592  1.8939
 5035TIP3   OH215068   3.219   3.251   0.453 -0.0094  0.1381 -0.1444
 5035TIP3    H115069   3.253   3.237   0.541  1.5054 -1.2084 -0.9084
 5035TIP3    H215070   3.270   3.325   0.419 -0.4149  0.4892 -0.0008
 5036TIP3   OH215071   3.802   2.872   5.282 -0.6988  0.0096  0.6309
 5036TIP3    H115072   3.823   2.787   5.321 -0.0138 -0.3043 -0.3874
 5036TIP3    H215073   3.883   2.922   5.287 -0.5965 -0.0405 -0.3908
 5037TIP3   OH215074   6.088   5.877   3.796  0.1155  0.8183 -0.3672
 5037TIP3    H115075   6.055   5.865   3.707 -0.5692  1.3246 -0.1974
 5037TIP3    H215076   6.057   5.800   3.844 -0.0565  0.8491 -0.4261
 5038TIP3   OH215077   6.984   4.956   5.454  0.4238  0.4874 -0.2814
 5038TIP3    H115078   6.938   4.880   5.420  0.3722  1.1797 -1.8055
 5038TIP3    H215079   6.916   5.008   5.498  0.6160 -0.7463  1.5840
 5039TIP3   OH215080   2.543   6.605   4.370 -0.3931  0.3985  0.4883
 5039TIP3    H115081   2.454   6.630   4.395  0.4465  1.2671  2.9175
 5039TIP3    H215082   2.584   6.579   4.452  1.3991 -0.7634 -0.7009
 5040TIP3   OH215083   1.051   2.392   3.397  0.0715 -0.5244  0.0760
 5040TIP3    H115084   1.137   2.431   3.377 -0.0512 -0.4623 -0.3378
 5040TIP3    H215085   1.049   2.312   3.345 -0.2306 -0.3897 -0.1217
 5041TIP3   OH215086   0.444   5.596   0.119  0.0080 -0.4017  0.2852
 5041TIP3    H115087   0.415   5.543   0.194 -1.2784  1.0626  0.8796
 5041TIP3    H215088   0.366   5.642   0.090  0.7454 -0.0430 -1.2377
 5042TIP3   OH215089   1.699   5.915   1.811 -0.5244 -0.2723 -0.2650
 5042TIP3    H115090   1.690   5.894   1.904 -0.7810 -0.1998 -0.2717
 5042TIP3    H215091   1.614   5.892   1.773 -0.2722 -0.7133 -0.5646
 5043TIP3   OH215092   1.265   1.872   3.343  0.1400  0.1387 -0.4274
 5043TIP3    H115093   1.279   1.778   3.334  1.4710  0.2064  0.6387
 5043TIP3    H215094   1.235   1.900   3.257  0.9715 -1.0581 -1.1385
 5044TIP3   OH215095   4.242   1.221   2.124 -0.1133  0.9599  0.4666
 5044TIP3    H115096   4.201   1.308   2.115 -1.2577  0.5010  0.9644
 5044TIP3    H215097   4.316   1.235   2.183  1.8299  2.2193 -2.0675
 5045TIP3   OH215098   1.779   3.150   1.433 -0.2201 -0.2915  0.1158
 5045TIP3    H115099   1.798   3.082   1.369  1.1042 -0.8582  1.0641
 5045TIP3    H215100   1.808   3.231   1.391  0.1401 -0.5843 -0.2019
 5046TIP3   OH215101   2.074   1.611   0.052  0.2745  0.2357 -0.4625
 5046TIP3    H115102   2.094   1.541   0.113 -1.4040 -0.5504 -0.7533
 5046TIP3    H215103   2.152   1.666   0.052  1.2323 -1.0598  0.5483
 5047TIP3   OH215104   7.019   2.455   2.993  0.0873 -0.3609  0.3621
 5047TIP3    H115105   6.962   2.455   2.916  0.3923  0.4559  0.1351
 5047TIP3    H215106   6.958   2.462   3.067 -0.1007  1.2683  0.0934
 5048TIP3   OH215107   1.999   1.852   3.295  0.3000  0.0397 -0.5814
 5048TIP3    H115108   2.075   1.827   3.347  1.7372  0.3344 -2.4227
 5048TIP3    H215109   1.965   1.930   3.338  1.7244  0.5422 -0.3241
 5049TIP3   OH215110   4.718   6.624   1.719  0.4869  0.8721 -0.2614
 5049TIP3    H115111   4.678   6.650   1.636 -0.5020 -0.2881 -0.1671
 5049TIP3    H215112   4.795   6.680   1.727 -0.0808  1.8501 -1.3659
 5050TIP3   OH215113   0.699   4.094   2.369  0.0834  0.7188 -0.7242
 5050TIP3    H115114   0.792   4.093   2.346  0.7533  1.2168  1.7009
 5050TIP3    H215115   0.663   4.167   2.317  1.5345  1.9393 -0.1029
 5051TIP3   OH215116   1.682   6.031   4.405  0.0101  0.4268 -0.4011
 5051TIP3    H115117   1.641   5.946   4.389  0.5339  0.3065 -1.1566
 5051TIP3    H215118   1.700   6.032   4.499 -0.6308 -0.0096 -0.2695
 5052TIP3   OH215119   0.974   1.439   0.045 -0.4176  0.4726  0.3351
 5052TIP3    H115120   1.014   1.403   0.124 -2.8884 -1.0027  1.0164
 5052TIP3    H215121   0.987   1.372  -0.022 -0.2978  0.7463  0.0788
 5053TIP3   OH215122   4.549   6.703   0.437 -0.1798  0.0647  0.1511
 5053TIP3    H115123   4.454   6.702   0.436 -0.2089 -1.8483  0.3872
 5053TIP3    H215124   4.572   6.715   0.529 -0.2295 -0.7329  0.2748
 5054TIP3   OH215125   0.737   6.554   3.559  0.0266 -0.2688 -0.1926
 5054TIP3    H115126   0.650   6.592   3.565  1.1146  2.2939  1.1613
 5054TIP3    H215127   0.725   6.461   3.578 -2.2269  0.3122  1.6347
 5055TIP3   OH215128   1.177   2.232   5.565 -0.0669  0.3465 -0.3414
 5055TIP3    H115129   1.235   2.257   5.637  1.7544 -0.8824 -1.2856
 5055TIP3    H215130   1.129   2.156   5.598  0.7368 -0.1923 -0.3857
 5056TIP3   OH215131   7.060   3.016   2.198  0.0554 -0.6770  0.0812
 5056TIP3    H115132   7.135   2.989   2.251  0.5362  1.3217  0.5071
 5056TIP3    H215133   7.072   2.972   2.114  1.2344 -1.0844  0.4436
 5057TIP3   OH215134   5.097   5.640   1.215 -0.3605  0.5516  0.0005
 5057TIP3    H115135   5.018   5.586   1.223  0.5037 -0.6446  0.9999
 5057TIP3    H215136   5.112   5.647   1.121 -0.4158 -1.1332 -0.1636
 5058TIP3   OH215137   4.914   6.264   2.281 -0.0453  0.5751 -0.0041
 5058TIP3    H115138   4.857   6.251   2.205  0.2428 -1.1897  0.0423
 5058TIP3    H215139   4.876   6.338   2.327 -0.5086  1.3723 -1.6024
 5059TIP3   OH215140   5.109   0.293   4.273  0.3342  0.3799  0.1032
 5059TIP3    H115141   5.026   0.254   4.301 -0.2469  0.5779 -1.2516
 5059TIP3    H215142   5.107   0.381   4.311  1.1563 -0.4667  2.2571
 5060TIP3   OH215143   4.496   2.378   2.023 -0.5025 -0.6241 -0.4297
 5060TIP3    H115144   4.432   2.443   2.052 -0.6184  0.1638 -2.3058
 5060TIP3    H215145   4.581   2.419   2.039 -0.5736 -0.0200 -1.4841
 5061TIP3   OH215146   5.942   2.421   2.741 -0.5658 -0.1744 -0.6311
 5061TIP3    H115147   5.891   2.407   2.661 -1.0508 -0.3418 -0.3016
 5061TIP3    H215148   5.953   2.516   2.746 -0.7633 -0.1436 -0.7597
 5062TIP3   OH215149   0.354   5.246   2.082  0.0384  0.0174  0.2086
 5062TIP3    H115150   0.390   5.312   2.022 -3.1234 -0.4753 -2.5179
 5062TIP3    H215151   0.298   5.297   2.142 -0.9441  0.0458 -0.7074
 5063TIP3   OH215152   2.204   3.644   0.221  0.1150 -0.0111  0.1511
 5063TIP3    H115153   2.218   3.621   0.130 -0.3025  1.2688 -0.2566
 5063TIP3    H215154   2.250   3.727   0.233  2.4481 -1.4139  1.8345
 5064TIP3   OH215155   1.781   6.354   2.572 -0.9089 -0.0997  0.3244
 5064TIP3    H115156   1.747   6.380   2.487  0.0049 -1.5953 -0.5359
 5064TIP3    H215157   1.849   6.289   2.553  1.8020  2.0195  1.9774
 5065TIP3   OH215158   0.204   2.317   4.003 -0.3041 -0.7883 -0.2451
 5065TIP3    H115159   0.171   2.250   3.944 -0.3238 -0.7522 -0.2749
 5065TIP3    H215160   0.231   2.388   3.946 -0.5005 -0.6759 -0.2000
 5066TIP3   OH215161   6.608   5.355   3.378  0.4791 -0.0081  0.0043
 5066TIP3    H115162   6.684   5.358   3.320  0.7265 -0.1262  0.3181
 5066TIP3    H215163   6.543   5.305   3.329  0.6869 -0.1073 -0.1740
 5067TIP3   OH215164   0.115   3.347   5.630 -0.5583 -0.2494 -0.7455
 5067TIP3    H115165   0.088   3.437   5.644 -0.2927 -0.3184  0.2807
 5067TIP3    H215166   0.196   3.354   5.579  1.0500  0.2546  1.7295
 5068TIP3   OH215167   7.096   6.063   4.041  0.1085 -0.3252  0.1484
 5068TIP3    H115168   7.022   6.028   4.090 -0.7484 -1.0866 -1.6327
 5068TIP3    H215169   7.151   5.987   4.023 -0.5980 -0.4187 -1.7623
 5069TIP3   OH215170   4.688   5.851   4.813 -0.1233 -0.1583 -0.4653
 5069TIP3    H115171   4.661   5.937   4.782 -0.7882 -0.5025 -0.8662
 5069TIP3    H215172   4.666   5.792   4.741  0.0878 -0.6978 -0.0925
 5070TIP3   OH215173   0.770   4.001   4.348  0.0320 -0.5399 -0.9075
 5070TIP3    H115174   0.776   3.913   4.312 -1.0176 -0.5025 -1.2251
 5070TIP3    H215175   0.845   4.048   4.311 -0.1016 -0.9620 -1.7368
 5071TIP3   OH215176   0.041   2.601   1.851  0.0618 -0.0011  0.0603
 5071TIP3    H115177   0.130   2.585   1.820  0.8125  1.8073  1.1559
 5071TIP3    H215178   0.001   2.514   1.852  2.0071 -0.9549  0.1162
 5072TIP3   OH215179   6.515   3.098   0.177  0.1102  0.3116 -0.2620
 5072TIP3    H115180   6.598   3.084   0.131  0.6943  1.4159  0.4071
 5072TIP3    H215181   6.542   3.122   0.266 -0.9678 -0.8735  0.4221
 5073TIP3   OH215182   5.455   0.731   2.818  0.1609 -0.4441  0.1577
 5073TIP3    H115183   5.509   0.787   2.763 -0.1255 -1.0335 -0.7446
 5073TIP3    H215184   5.518   0.677   2.867  0.4006 -0.8831 -0.6232
 5074TIP3   OH215185   2.672   3.356   0.022  0.5506 -0.3541 -0.7680
 5074TIP3    H115186   2.654   3.329   0.113  0.2954 -1.1468 -1.0407
 5074TIP3    H215187   2.641   3.446   0.017 -2.0911 -1.1788 -0.8029
 5075TIP3   OH215188   1.781   5.444   5.254  0.0918 -0.1892 -0.1209
 5075TIP3    H115189   1.691   5.411   5.245 -0.5563  1.6043 -0.5807
 5075TIP3    H215190   1.782   5.525   5.203  2.6538 -1.3621 -2.1679
 5076TIP3   OH215191   0.445   5.737   2.380  0.2486 -0.2753 -0.4823
 5076TIP3    H115192   0.501   5.660   2.378 -1.9343 -1.9832 -0.1045
 5076TIP3    H215193   0.453   5.771   2.469  0.6278 -0.5482 -0.4115
 5077TIP3   OH215194   4.135   2.428   3.686 -0.0892 -0.4027  0.2362
 5077TIP3    H115195   4.176   2.476   3.758  0.5507 -0.8976  0.2060
 5077TIP3    H215196   4.066   2.486   3.655  0.1277  0.1387  0.7529
 5078TIP3   OH215197   3.232   6.574   2.107 -0.2268 -0.2870 -0.1833
 5078TIP3    H115198   3.219   6.547   2.198  0.1581 -0.4467 -0.1772
 5078TIP3    H215199   3.176   6.514   2.057 -2.3598  1.3233  0.1167
 5079TIP3   OH215200   3.909   4.211   5.088 -0.0865  0.0026 -0.0685
 5079TIP3    H115201   3.827   4.166   5.071 -0.7951  0.9611  0.7093
 5079TIP3    H215202   3.973   4.169   5.030 -0.9757 -1.1859 -0.1963
 5080TIP3   OH215203   6.652   4.652   1.856 -0.3029  0.1100  0.1411
 5080TIP3    H115204   6.664   4.587   1.925  0.7512 -0.2959 -0.3989
 5080TIP3    H215205   6.658   4.602   1.775 -0.0528  0.8045 -0.2739
 5081TIP3   OH215206   6.984   2.368   4.474  0.3454  0.0838 -0.3749
 5081TIP3    H115207   7.028   2.440   4.430 -0.2841  0.5706 -0.2319
 5081TIP3    H215208   7.010   2.290   4.425  0.7497  0.4526 -0.7553
 5082TIP3   OH215209   5.707   6.812   5.872 -0.5863 -0.4944 -0.5698
 5082TIP3    H115210   5.775   6.776   5.929 -1.0336  2.1860  1.8953
 5082TIP3    H215211   5.647   6.738   5.857 -0.4993 -1.3684  2.6211
 5083TIP3   OH215212   1.729   6.655   5.669 -0.0581 -0.2163  0.5461
 5083TIP3    H115213   1.812   6.629   5.710  0.0108 -2.4495 -0.8132
 5083TIP3    H215214   1.700   6.731   5.719  2.6875  0.5127  1.2018
 5084TIP3   OH215215   5.779   2.867   5.684 -0.4720 -0.1727 -0.0363
 5084TIP3    H115216   5.771   2.957   5.718  0.8229 -0.5363  1.3772
 5084TIP3    H215217   5.853   2.871   5.623 -1.5328  0.0579 -1.3497
 5085TIP3   OH215218   0.630   3.073   1.207  0.1424 -0.3270  0.2867
 5085TIP3    H115219   0.585   3.010   1.150  0.2567  0.7601 -1.0607
 5085TIP3    H215220   0.695   3.020   1.253 -0.6350 -1.4232  0.1751
 5086TIP3   OH215221   6.264   1.220   0.088 -0.4926  0.3235 -0.0541
 5086TIP3    H115222   6.252   1.137   0.041  0.0802  0.1910  0.0204
 5086TIP3    H215223   6.181   1.235   0.133 -0.4052 -0.5158  0.4131
 5087TIP3   OH215224   3.537   3.750   0.614 -0.0013 -0.1061 -0.3405
 5087TIP3    H115225   3.574   3.810   0.550 -0.5312 -1.6859 -2.2102
 5087TIP3    H215226   3.443   3.749   0.595 -0.2523 -0.2005  0.8280
 5088TIP3   OH215227   3.919   2.971   4.216  0.1247  0.0704  0.1391
 5088TIP3    H115228   3.887   3.022   4.290 -0.4403  1.2031 -0.8656
 5088TIP3    H215229   4.015   2.974   4.224  0.1161  1.6486 -0.1241
 5089TIP3   OH215230   6.624   4.555   4.730 -0.1489 -0.1643 -0.3763
 5089TIP3    H115231   6.556   4.524   4.791 -1.3680  2.2466 -0.3838
 5089TIP3    H215232   6.701   4.503   4.752 -0.9403 -0.3867  2.2726
 5090TIP3   OH215233   4.936   4.491   1.000 -0.5046 -0.2716  0.2168
 5090TIP3    H115234   4.935   4.565   0.939 -0.3981 -1.0701 -0.7841
 5090TIP3    H215235   5.029   4.474   1.016 -0.4375 -1.4564 -1.1870
 5091TIP3   OH215236   6.123   6.156   4.738  0.4671 -0.4673  0.4751
 5091TIP3    H115237   6.050   6.097   4.720 -1.0935  0.9309  1.9348
 5091TIP3    H215238   6.154   6.184   4.652 -0.0489 -1.8215 -0.1853
 5092TIP3   OH215239   1.870   0.199   2.314  0.2812 -0.2277 -0.1824
 5092TIP3    H115240   1.929   0.272   2.297 -1.3519  1.1047 -0.3809
 5092TIP3    H215241   1.783   0.239   2.319 -0.5745 -2.0596  0.4940
 5093TIP3   OH215242   5.676   6.268   3.009 -0.2848  0.3572  0.3587
 5093TIP3    H115243   5.673   6.190   2.954  0.4271 -0.0864  0.9212
 5093TIP3    H215244   5.588   6.275   3.046 -0.5943  0.3208 -0.3683
 5094TIP3   OH215245   4.831   1.671   0.302 -0.4911  0.0152 -0.0410
 5094TIP3    H115246   4.752   1.688   0.353 -0.7849 -1.9389  0.2206
 5094TIP3    H215247   4.806   1.603   0.240  0.6434  0.3281 -0.8954
 5095TIP3   OH215248   4.251   4.229   3.780 -0.3482 -0.2518 -0.3570
 5095TIP3    H115249   4.274   4.188   3.864  0.1516  0.6495 -0.0421
 5095TIP3    H215250   4.326   4.209   3.723 -0.4347 -0.3814 -0.4276
 5096TIP3   OH215251   3.381   4.137   2.976 -0.2742  0.0209 -0.0124
 5096TIP3    H115252   3.311   4.072   2.970 -0.6038  0.4548 -1.1861
 5096TIP3    H215253   3.403   4.157   2.885 -0.5432  1.9247  0.2955
 5097TIP3   OH215254   1.416   3.523   5.287  0.3455 -0.0865 -0.2094
 5097TIP3    H115255   1.377   3.451   5.238  0.8310 -1.1046  0.8380
 5097TIP3    H215256   1.494   3.547   5.238  0.5819 -0.7908 -0.1909
 5098TIP3   OH215257   4.730   6.145   4.835 -0.0349  0.2156  0.0052
 5098TIP3    H115258   4.821   6.140   4.864  0.2580 -0.1994 -0.9272
 5098TIP3    H215259   4.726   6.225   4.783 -0.7096  1.2950  1.6492
 5099TIP3   OH215260   1.108   1.242   3.494  0.0513 -0.2206  0.3064
 5099TIP3    H115261   1.017   1.214   3.485 -0.2382  0.8842 -0.4958
 5099TIP3    H215262   1.149   1.217   3.411  0.4902 -0.7323  0.6737
 5100TIP3   OH215263   6.589   0.039   5.151  0.2690 -0.0441  0.0293
 5100TIP3    H115264   6.600  -0.031   5.087  0.0051  0.1458 -0.2259
 5100TIP3    H215265   6.500   0.071   5.136 -0.0482 -0.4363  0.9236
 5101TIP3   OH215266   2.901   4.696   3.866 -0.1864  0.4216  0.3046
 5101TIP3    H115267   2.837   4.655   3.807 -0.3552 -0.7674  1.2921
 5101TIP3    H215268   2.915   4.783   3.828 -0.8967 -0.0143 -1.0352
 5102TIP3   OH215269   2.378   5.536   4.585  0.2251 -0.2444  0.2703
 5102TIP3    H115270   2.296   5.493   4.609 -1.1104  2.7517  1.6021
 5102TIP3    H215271   2.399   5.591   4.660  2.6296  0.2629 -0.6854
 5103TIP3   OH215272   6.845   2.487   5.830  0.0292  0.5012 -0.1212
 5103TIP3    H115273   6.913   2.429   5.794 -1.1007  0.1546 -1.8018
 5103TIP3    H215274   6.770   2.430   5.844 -0.0087  0.9095  1.6056
 5104TIP3   OH215275   2.919   4.109   3.143 -0.6724 -0.6781  0.2217
 5104TIP3    H115276   2.976   4.046   3.100  0.2667 -0.3644  0.9692
 5104TIP3    H215277   2.976   4.182   3.166 -1.4135 -0.2679  0.8314
 5105TIP3   OH215278   2.686   1.158   4.308  0.0530 -0.3785 -0.0274
 5105TIP3    H115279   2.637   1.230   4.348 -1.4973 -1.2462 -0.2813
 5105TIP3    H215280   2.742   1.200   4.243  0.7296  0.7961  1.2603
 5106TIP3   OH215281   5.938   1.969   3.019 -0.3303  0.4636  0.1163
 5106TIP3    H115282   5.920   2.056   2.982 -1.9331 -0.7795 -2.3761
 5106TIP3    H215283   5.869   1.956   3.084 -0.1773  1.0070  0.3866
 5107TIP3   OH215284   1.222   6.308   0.499  0.6260 -0.0639  0.1005
 5107TIP3    H115285   1.293   6.286   0.559  0.6017 -1.8488 -0.4671
 5107TIP3    H215286   1.167   6.229   0.496 -1.5540  1.3442  0.7264
 5108TIP3   OH215287   1.071   4.233   1.508  0.3301 -0.6586  0.3290
 5108TIP3    H115288   1.028   4.210   1.591 -2.2938  0.8808 -0.4876
 5108TIP3    H215289   1.157   4.266   1.535  0.6988 -2.8378  2.1535
 5109TIP3   OH215290   6.916   1.774   5.667  0.2947 -0.6664 -0.3161
 5109TIP3    H115291   6.892   1.693   5.622  0.4931 -0.6862 -0.3850
 5109TIP3    H215292   6.999   1.800   5.627  0.4819 -0.6972  0.0584
 5110TIP3   OH215293   6.248   3.828   2.895  0.3216  0.6240  0.1974
 5110TIP3    H115294   6.259   3.743   2.852  1.3190  0.7311  0.2156
 5110TIP3    H215295   6.336   3.851   2.924 -0.0189  1.4641  0.5778
 5111TIP3   OH215296   0.348   5.730   0.737 -0.3098 -0.4474  0.1992
 5111TIP3    H115297   0.316   5.779   0.813 -0.0015 -1.0008  0.7041
 5111TIP3    H215298   0.424   5.779   0.707 -1.0140  0.3139 -0.3708
 5112TIP3   OH215299   4.133   4.243   0.283 -0.5948 -0.6875  0.4964
 5112TIP3    H115300   4.115   4.303   0.211 -0.1978 -2.4136 -1.1396
 5112TIP3    H215301   4.048   4.229   0.325 -0.7517  0.6816  0.6832
 5113TIP3   OH215302   0.029   2.814   2.324  0.0670  0.2449  0.6795
 5113TIP3    H115303  -0.046   2.790   2.377 -0.6124 -0.9408 -0.7500
 5113TIP3    H215304   0.105   2.787   2.375 -0.3403  2.5675  2.7028
 5114TIP3   OH215305   4.304   5.767   2.069 -0.0865  0.2154 -0.0757
 5114TIP3    H115306   4.331   5.856   2.049  0.7932 -0.0752 -0.2193
 5114TIP3    H215307   4.208   5.768   2.059  0.0560  0.7200 -1.8672
 5115TIP3   OH215308   4.410   3.619   1.687  0.1923  0.1769 -0.3545
 5115TIP3    H115309   4.486   3.580   1.731 -1.8945 -2.1523  1.4547
 5115TIP3    H215310   4.375   3.681   1.750  0.0584  0.5892 -0.8272
 5116TIP3   OH215311   4.040   2.379   0.893 -0.0835 -0.0085 -0.5499
 5116TIP3    H115312   3.995   2.463   0.886 -2.0634 -1.0031 -0.7537
 5116TIP3    H215313   4.028   2.352   0.984 -0.6582 -0.6575 -0.8053
 5117TIP3   OH215314   5.855   1.965   4.337  0.0199 -0.1545  0.0574
 5117TIP3    H115315   5.878   1.874   4.355  1.7122  0.4769  1.2471
 5117TIP3    H215316   5.831   2.001   4.423  0.4135  0.8061 -0.2290
 5118TIP3   OH215317   1.068   3.504   2.905  0.1731  0.3038  0.0489
 5118TIP3    H115318   1.088   3.587   2.861  0.9489  0.0378 -0.1076
 5118TIP3    H215319   1.152   3.459   2.911  0.3343  0.8338  2.8837
 5119TIP3   OH215320   7.129   6.572   0.138  0.5393  0.0618 -0.1451
 5119TIP3    H115321   7.162   6.506   0.077  2.4776  0.5525  0.2925
 5119TIP3    H215322   7.064   6.525   0.191 -0.7943 -0.5013 -2.1698
 5120TIP3   OH215323   1.606   4.249   4.885 -0.2011 -0.7435 -0.1259
 5120TIP3    H115324   1.693   4.235   4.923  0.0186  0.6660 -0.0489
 5120TIP3    H215325   1.595   4.344   4.885 -1.7392 -0.8950 -0.1670
 5121TIP3   OH215326   5.652   2.596   3.434 -0.1696  0.0670 -0.5441
 5121TIP3    H115327   5.566   2.562   3.459 -0.0496 -0.2875 -0.6161
 5121TIP3    H215328   5.715   2.539   3.479  0.0274  0.5385 -0.2100
 5122TIP3   OH215329   4.455   4.726   0.838  0.2806  0.3718  0.5246
 5122TIP3    H115330   4.400   4.701   0.763  0.1333 -1.3523  1.1525
 5122TIP3    H215331   4.502   4.804   0.808 -0.5195  0.3207 -0.9929
 5123TIP3   OH215332   0.718   6.588   2.747 -0.4958  0.5479 -0.1274
 5123TIP3    H115333   0.809   6.605   2.771 -0.3565  0.3365 -0.5075
 5123TIP3    H215334   0.717   6.497   2.718 -0.9853  0.2926  0.6419
 5124TIP3   OH215335   7.041   1.564   0.491 -0.0065 -0.1993 -0.1264
 5124TIP3    H115336   7.083   1.479   0.501  0.8743  0.3943  1.7060
 5124TIP3    H215337   7.024   1.593   0.581 -1.4028  1.0328 -0.7380
 5125TIP3   OH215338   5.548   6.045   1.308 -0.4508  0.3375  0.9911
 5125TIP3    H115339   5.495   6.075   1.382 -1.2463  1.0892  0.1601
 5125TIP3    H215340   5.486   6.043   1.235  0.8382  2.1048 -0.2231
 5126TIP3   OH215341   5.589   0.211   0.553  0.0104  0.4413 -0.3835
 5126TIP3    H115342   5.567   0.225   0.461 -1.6846 -0.4863 -0.1478
 5126TIP3    H215343   5.611   0.118   0.559  0.3314  0.5426  0.1249
 5127TIP3   OH215344   5.703   4.519   1.974  0.5690 -0.0614  0.2498
 5127TIP3    H115345   5.652   4.453   1.928 -1.6641  1.4704  0.3547
 5127TIP3    H215346   5.752   4.563   1.905  0.2400 -0.2937 -0.1384
 5128TIP3   OH215347   1.007   1.198   3.050  0.6127 -0.1034 -0.2067
 5128TIP3    H115348   0.920   1.163   3.070  0.1111  1.5236  0.6050
 5128TIP3    H215349   1.009   1.200   2.954 -0.2976 -0.0478 -0.2403
 5129TIP3   OH215350   0.891   6.218   0.288  0.7254 -0.3193 -0.4066
 5129TIP3    H115351   0.841   6.283   0.239  1.4295  0.2132 -0.4415
 5129TIP3    H215352   0.982   6.235   0.263  0.9152 -1.4389 -0.5649
 5130TIP3   OH215353   3.309   1.802   3.233  0.0938  0.3823 -0.0126
 5130TIP3    H115354   3.300   1.851   3.316 -0.5350 -0.1914  0.2639
 5130TIP3    H215355   3.297   1.711   3.258  2.0131 -0.0072 -0.4122
 5131TIP3   OH215356   0.175   4.469   4.155 -0.1032 -0.4107 -0.1098
 5131TIP3    H115357   0.213   4.554   4.135  3.3868 -2.2983 -2.4297
 5131TIP3    H215358   0.214   4.444   4.239  0.2919 -0.4771 -0.3128
 5132TIP3   OH215359   0.590   5.080   4.491 -0.2459  0.1968  0.1339
 5132TIP3    H115360   0.579   5.033   4.574  0.6793 -0.7518 -0.2581
 5132TIP3    H215361   0.616   5.168   4.517  1.4759 -0.4705  0.8792
 5133TIP3   OH215362   3.276   5.120   3.059 -0.1709 -0.3832  0.0644
 5133TIP3    H115363   3.217   5.061   3.012 -1.1330  0.9957 -0.5657
 5133TIP3    H215364   3.289   5.194   2.998  1.2167 -0.0711  0.6970
 5134TIP3   OH215365   2.122   1.504   4.638  0.4993  0.1301  0.0636
 5134TIP3    H115366   2.207   1.489   4.597  0.6369  1.7308 -0.3055
 5134TIP3    H215367   2.061   1.507   4.564  0.6872  2.6302 -0.0535
 5135TIP3   OH215368   2.579   6.126   3.634  0.4572 -0.1878 -0.4198
 5135TIP3    H115369   2.647   6.168   3.687  0.0460  0.2453 -0.2238
 5135TIP3    H215370   2.587   6.033   3.654  0.7191 -0.0937 -0.0754
 5136TIP3   OH215371   7.055   1.572   1.810  0.4631 -0.4481  0.1903
 5136TIP3    H115372   7.095   1.522   1.740 -1.2614 -1.7076  0.0275
 5136TIP3    H215373   7.027   1.654   1.769 -0.4568 -1.1391 -0.6180
 5137TIP3   OH215374   2.769   4.219   4.207  0.4908  0.7227  0.1427
 5137TIP3    H115375   2.790   4.295   4.262  2.3918  0.9566 -0.8107
 5137TIP3    H215376   2.779   4.251   4.117  0.2318 -0.3761 -0.2980
 5138TIP3   OH215377   1.075   2.103   0.741  0.1215  0.0161 -0.0346
 5138TIP3    H115378   1.069   2.104   0.837  0.3744 -1.8000  0.0392
 5138TIP3    H215379   0.994   2.144   0.711  0.1244  0.7859  0.9390
 5139TIP3   OH215380   0.074   4.930   1.392  0.0611 -0.0973 -0.2020
 5139TIP3    H115381   0.142   4.940   1.325 -0.2110 -0.1623 -0.4894
 5139TIP3    H215382   0.013   4.867   1.355  0.2630 -0.6575  0.3991
 5140TIP3   OH215383   2.691   2.119   0.664 -0.1754  0.3128 -0.4880
 5140TIP3    H115384   2.707   2.025   0.675  1.5383  0.4464 -1.4978
 5140TIP3    H215385   2.643   2.126   0.582  1.1896  0.3960 -1.3132
 5141TIP3   OH215386   0.022   0.109   0.698  0.6224 -0.6737 -0.0995
 5141TIP3    H115387   0.104   0.074   0.664  0.5486 -0.8933 -0.0552
 5141TIP3    H215388   0.024   0.202   0.677  0.2269 -0.9363 -1.3908
 5142TIP3   OH215389   6.475   3.639   2.504  0.2714  0.6222  0.0691
 5142TIP3    H115390   6.515   3.653   2.590  0.9363  1.9655 -0.4152
 5142TIP3    H215391   6.537   3.583   2.457  0.1462  0.2921  0.2942
 5143TIP3   OH215392   5.574   5.337   5.712  0.3022  0.1134 -1.0420
 5143TIP3    H115393   5.658   5.341   5.757 -0.4701 -0.6610  0.5449
 5143TIP3    H215394   5.517   5.396   5.760 -0.1479  0.4369 -1.9450
 5144TIP3   OH215395   4.948   4.133   4.192 -0.2771  0.1088 -0.3238
 5144TIP3    H115396   4.885   4.083   4.244 -1.7282  1.5185 -0.6568
 5144TIP3    H215397   5.015   4.069   4.169 -2.0695 -1.7119 -0.7941
 5145TIP3   OH215398   3.944   6.265   0.948  0.1989 -0.2886  0.3731
 5145TIP3    H115399   3.990   6.333   0.996  1.5731 -0.2364 -0.9368
 5145TIP3    H215400   3.936   6.300   0.859  0.6217 -1.6888 -0.2456
 5146TIP3   OH215401   3.728   2.020   2.683  0.6916  0.0986 -0.3565
 5146TIP3    H115402   3.795   2.019   2.751  0.8056  1.2863 -0.4337
 5146TIP3    H215403   3.675   2.098   2.703  1.1031  0.8316 -1.9694
 5147TIP3   OH215404   1.747   2.286   1.445  0.0962 -0.0887  0.5586
 5147TIP3    H115405   1.713   2.218   1.504 -0.8032 -0.4284 -0.3144
 5147TIP3    H215406   1.672   2.344   1.431  0.1747 -0.2264 -0.5275
 5148TIP3   OH215407   5.584   2.497   0.345 -0.2230  0.1695 -0.3482
 5148TIP3    H115408   5.500   2.536   0.322 -1.0626 -2.6211 -2.5472
 5148TIP3    H215409   5.633   2.493   0.263  1.8588  1.1034  0.7617
 5149TIP3   OH215410   6.642   5.225   2.302  0.2793 -0.2285 -0.4627
 5149TIP3    H115411   6.679   5.309   2.329 -3.1394  1.1731  0.4061
 5149TIP3    H215412   6.628   5.234   2.208  0.5303 -0.0866 -0.4868
 5150TIP3   OH215413   1.652   4.183   3.168  0.0955 -0.2507 -0.0099
 5150TIP3    H115414   1.624   4.117   3.231  1.5352 -0.7050  0.1804
 5150TIP3    H215415   1.707   4.243   3.218 -1.5134  1.3760 -0.0797
 5151TIP3   OH215416   7.091   4.875   4.382 -0.1367  0.0912 -0.0496
 5151TIP3    H115417   7.027   4.895   4.451  0.2894  0.5651  0.2111
 5151TIP3    H215418   7.078   4.781   4.364 -0.7140  0.1202  0.1938
 5152TIP3   OH215419   3.062   2.969   1.133 -0.2901  0.2371  0.1305
 5152TIP3    H115420   3.103   2.894   1.176 -2.3148 -1.0318  0.0006
 5152TIP3    H215421   3.108   2.977   1.049 -0.2547 -1.0760  0.0095
 5153TIP3   OH215422   1.656   0.298   0.477 -0.3840  0.2249 -0.3456
 5153TIP3    H115423   1.747   0.324   0.487 -0.2784  0.4376 -1.6576
 5153TIP3    H215424   1.615   0.320   0.561  1.1695 -1.7037  1.0080
 5154TIP3   OH215425   1.617   1.766   5.493  0.0576  0.0225 -0.0230
 5154TIP3    H115426   1.623   1.676   5.526 -1.7367  0.8844  3.0558
 5154TIP3    H215427   1.560   1.759   5.416 -1.9245 -1.3185  1.4354
 5155TIP3   OH215428   0.425   6.752   1.310  0.6918  0.6576  0.0140
 5155TIP3    H115429   0.367   6.709   1.246 -0.2041 -0.4918  1.5239
 5155TIP3    H215430   0.417   6.845   1.291 -2.4918  0.6356  0.7727
 5156TIP3   OH215431   5.527   5.922   4.633  0.1991  0.2736  0.6181
 5156TIP3    H115432   5.481   5.896   4.553 -0.0376  2.6429 -0.0854
 5156TIP3    H215433   5.607   5.871   4.632 -1.0302 -1.7813  0.3468
 5157TIP3   OH215434   5.248   4.171   4.857 -0.0495  1.0713  0.6382
 5157TIP3    H115435   5.177   4.125   4.813  1.3118  0.3530 -0.9185
 5157TIP3    H215436   5.219   4.262   4.860 -1.5406  0.6108  1.1422
 5158TIP3   OH215437   4.824   3.778   4.699  0.0684  0.0833 -0.1646
 5158TIP3    H115438   4.819   3.715   4.627  1.6817 -0.7544  0.4050
 5158TIP3    H215439   4.763   3.745   4.765  0.0719 -0.2508 -0.3279
 5159TIP3   OH215440   5.696   5.628   0.969 -0.4320  0.3696 -0.2689
 5159TIP3    H115441   5.751   5.607   0.893 -1.0127  0.6040 -0.7686
 5159TIP3    H215442   5.724   5.716   0.996 -1.0868  0.8263 -1.0233
 5160TIP3   OH215443   0.492   6.402   1.297 -0.7352  0.7025  0.0172
 5160TIP3    H115444   0.491   6.336   1.227  1.8460  0.2307  0.3103
 5160TIP3    H215445   0.459   6.356   1.374 -2.0528  0.7470 -0.5035
 5161TIP3   OH215446   5.657   1.352   2.495  0.0283 -0.3701 -0.4205
 5161TIP3    H115447   5.736   1.383   2.539 -1.1791  1.8416  0.3445
 5161TIP3    H215448   5.595   1.337   2.566 -0.7932 -0.3650 -1.1195
 5162TIP3   OH215449   3.877   3.791   4.434  0.4793  0.7415  0.0295
 5162TIP3    H115450   3.806   3.838   4.392  0.3398  0.2284 -0.3146
 5162TIP3    H215451   3.887   3.833   4.520  0.8383  1.8691 -0.5460
 5163TIP3   OH215452   2.310   3.980   1.449  0.0922 -0.2680  0.1780
 5163TIP3    H115453   2.216   3.993   1.453 -0.0984 -1.3443 -0.4450
 5163TIP3    H215454   2.325   3.935   1.366  1.3167  1.1081 -0.3822
 5164TIP3   OH215455   1.169   4.240   1.130 -0.4802  0.6606 -0.0406
 5164TIP3    H115456   1.084   4.267   1.164 -0.5843  0.3174 -0.0349
 5164TIP3    H215457   1.150   4.187   1.053 -0.3911 -1.6142  1.4140
 5165TIP3   OH215458   1.226   2.284   0.337  0.2969  0.7058 -0.3390
 5165TIP3    H115459   1.149   2.303   0.391 -0.4372  0.1035 -1.1361
 5165TIP3    H215460   1.268   2.210   0.380 -0.2325  0.2852 -0.5394
 5166TIP3   OH215461   2.147   4.381   3.503 -0.0985 -0.1052 -0.6208
 5166TIP3    H115462   2.055   4.404   3.518  0.0392 -0.7695  1.6508
 5166TIP3    H215463   2.194   4.464   3.513 -0.1847 -0.2602  1.3961
 5167TIP3   OH215464   6.653   4.697   2.249  0.2781 -0.1935  0.2374
 5167TIP3    H115465   6.608   4.657   2.324  1.4098  1.0166  1.6406
 5167TIP3    H215466   6.665   4.626   2.186  1.5464 -1.9067  2.2786
 5168TIP3   OH215467   5.713   1.019   0.723 -0.0536  0.3799  0.0419
 5168TIP3    H115468   5.761   1.062   0.793 -0.9269  2.3331 -0.4835
 5168TIP3    H215469   5.764   1.039   0.644  0.0792 -0.4381 -0.0790
 5169TIP3   OH215470   0.845   2.422   1.474 -0.3963 -0.1429  0.2380
 5169TIP3    H115471   0.870   2.514   1.483  0.0714 -0.1675 -0.7142
 5169TIP3    H215472   0.790   2.405   1.550  0.5277  0.5792  1.0948
 5170TIP3   OH215473   5.168   5.665   5.260 -0.0289  0.0759  0.2934
 5170TIP3    H115474   5.178   5.735   5.195 -0.7343  1.2120  1.3616
 5170TIP3    H215475   5.207   5.588   5.218 -1.3696  0.4980 -1.8863
 5171TIP3   OH215476   5.078   3.062   0.202  0.3339  0.4428  0.8447
 5171TIP3    H115477   4.987   3.036   0.191  0.2499  0.8085  0.6553
 5171TIP3    H215478   5.080   3.106   0.287 -0.0783  2.1593  0.0110
 5172TIP3   OH215479   1.597   5.954   2.404  0.2600  0.0628  0.4077
 5172TIP3    H115480   1.508   5.920   2.413 -0.2711  1.0209 -0.8411
 5172TIP3    H215481   1.651   5.894   2.455 -0.9630 -1.1498  0.3436
 5173TIP3   OH215482   0.831   2.973   3.284  0.5909  0.1089  0.2250
 5173TIP3    H115483   0.918   2.997   3.252  0.9575  0.4235  1.3942
 5173TIP3    H215484   0.849   2.920   3.362 -0.2698  0.9866  1.0362
 5174TIP3   OH215485   6.537   5.952   0.293 -0.1300 -0.2418  0.3798
 5174TIP3    H115486   6.511   5.919   0.379 -0.3463 -0.1037  0.3675
 5174TIP3    H215487   6.460   5.999   0.261  0.1674  0.2392  0.3776
 5175TIP3   OH215488   1.279   6.271   1.418  0.0751  0.6970 -0.3300
 5175TIP3    H115489   1.244   6.221   1.344  0.8697  0.7103 -0.7209
 5175TIP3    H215490   1.336   6.336   1.379  0.0344  1.1006  0.2620
 5176TIP3   OH215491   4.745   2.098   1.425  0.5490  0.0830  0.1616
 5176TIP3    H115492   4.734   2.051   1.508  0.9011  0.6484  0.5375
 5176TIP3    H215493   4.782   2.183   1.451  2.9310 -0.5990 -0.7637
 5177TIP3   OH215494   1.479   3.581   0.203  0.1742 -0.1400 -0.1554
 5177TIP3    H115495   1.555   3.529   0.227 -2.0606 -3.1126  1.1461
 5177TIP3    H215496   1.477   3.576   0.107  0.9618 -1.0842 -0.1466
 5178TIP3   OH215497   2.601   1.656   5.827  0.0102  0.2718 -0.1734
 5178TIP3    H115498   2.670   1.717   5.803 -0.3774  0.6636 -0.3099
 5178TIP3    H215499   2.524   1.686   5.779 -0.1615 -0.3997 -0.3410
 5179TIP3   OH215500   6.991   0.892   3.240 -0.2327 -0.6789 -0.0149
 5179TIP3    H115501   6.935   0.864   3.168 -0.0176 -0.8897 -0.0973
 5179TIP3    H215502   6.929   0.925   3.306 -0.3664  0.5017 -0.7148
 5180TIP3   OH215503   0.568   4.837   5.070 -0.0314 -0.1149  0.4180
 5180TIP3    H115504   0.632   4.770   5.094 -0.1037 -0.1123  0.6212
 5180TIP3    H215505   0.585   4.909   5.130  1.1765  0.7475 -0.9167
 5181TIP3   OH215506   5.997   2.549   5.153 -0.1062  0.3552  0.3555
 5181TIP3    H115507   6.092   2.546   5.165  0.1985 -0.9629 -1.8671
 5181TIP3    H215508   5.964   2.471   5.196  0.1661 -0.6350 -1.1786
 5182TIP3   OH215509   3.426   0.537   3.342 -0.1671  0.1344  0.1320
 5182TIP3    H115510   3.354   0.574   3.393  0.7482 -0.6330  2.0863
 5182TIP3    H215511   3.505   0.566   3.388  0.7245 -0.2447 -1.1202
 5183TIP3   OH215512   2.450   1.507   0.958 -0.6606  0.0792  0.1792
 5183TIP3    H115513   2.486   1.422   0.933 -0.7922  0.0625  0.0461
 5183TIP3    H215514   2.501   1.533   1.035 -0.3126  0.0928 -0.0543
 5184TIP3   OH215515   3.300   0.453   3.963  0.4414 -0.2719 -0.2570
 5184TIP3    H115516   3.232   0.517   3.984  2.0630  1.3813  0.1982
 5184TIP3    H215517   3.252   0.377   3.929 -1.8858 -0.5137  3.0645
 5185TIP3   OH215518   1.562   5.669   1.895  0.5616 -0.0933  0.2376
 5185TIP3    H115519   1.543   5.701   1.807 -0.1010 -2.2100 -0.4334
 5185TIP3    H215520   1.496   5.602   1.912  0.5587  0.3713  2.4433
 5186TIP3   OH215521   3.957   3.246   3.377 -0.3658 -0.2442 -0.4966
 5186TIP3    H115522   3.890   3.293   3.327  0.5846  0.0498 -1.5228
 5186TIP3    H215523   4.035   3.250   3.323  0.2674 -1.3326  0.2914
 5187TIP3   OH215524   3.300   6.353   5.891 -0.1274 -0.0870  0.9646
 5187TIP3    H115525   3.389   6.345   5.923  0.1211 -0.8126  0.1304
 5187TIP3    H215526   3.295   6.292   5.817 -0.2631  2.4303 -1.2518
 5188TIP3   OH215527   7.157   6.089   1.388  0.4477 -0.3601  0.2365
 5188TIP3    H115528   7.162   6.164   1.329  0.2405 -2.2439 -2.3531
 5188TIP3    H215529   7.218   6.111   1.459 -1.8625  3.5166  1.3132
 5189TIP3   OH215530   6.004   0.152   1.642 -0.0417 -0.3193 -0.6363
 5189TIP3    H115531   5.979   0.244   1.653  1.4622  0.2958 -1.9413
 5189TIP3    H215532   6.093   0.147   1.676 -0.2930 -1.4221 -0.1083
 5190TIP3   OH215533   7.102   4.234   3.015 -0.2636  0.2708  0.2058
 5190TIP3    H115534   7.098   4.144   3.047  0.7932  0.3646  0.6776
 5190TIP3    H215535   7.020   4.247   2.968 -0.0731 -1.2190 -0.6199
 5191TIP3   OH215536   6.773   1.400   5.221  0.4156  0.5040  0.5572
 5191TIP3    H115537   6.867   1.381   5.221  0.2692 -0.2736  0.5923
 5191TIP3    H215538   6.757   1.441   5.306  0.6142  0.0487  0.8167
 5192TIP3   OH215539   4.881   4.883   0.575  0.0106 -0.1831  0.5249
 5192TIP3    H115540   4.804   4.860   0.523  1.2597  0.3330 -1.6972
 5192TIP3    H215541   4.853   4.957   0.628 -1.0786 -0.1345 -0.0943
 5193TIP3   OH215542   6.848   0.364   4.952 -0.2489 -0.7298 -0.1380
 5193TIP3    H115543   6.855   0.306   5.028 -0.9644 -0.2405  0.3111
 5193TIP3    H215544   6.775   0.328   4.902 -0.2291 -0.6383 -0.2308
 5194TIP3   OH215545   5.099   0.290   3.553 -0.0262 -0.0063  0.6773
 5194TIP3    H115546   5.090   0.195   3.565 -1.6027  0.0473  0.0527
 5194TIP3    H215547   5.032   0.328   3.609  1.5551  0.8628  2.0969
 5195TIP3   OH215548   3.422   1.316   2.828  0.3976  0.2630 -0.4687
 5195TIP3    H115549   3.332   1.348   2.841  0.4942  0.6403 -0.6907
 5195TIP3    H215550   3.471   1.395   2.805  0.6208 -0.0672 -1.1386
 5196TIP3   OH215551   4.073   2.915   1.633  0.1087 -0.4963  0.5397
 5196TIP3    H115552   4.045   2.960   1.552  1.1891  0.8448  0.8861
 5196TIP3    H215553   4.114   2.834   1.602  1.2422  0.3774 -0.3382
 5197TIP3   OH215554   3.338   2.038   2.791  0.7092  0.2115  0.4825
 5197TIP3    H115555   3.346   2.004   2.880  0.7097 -0.0751  0.3751
 5197TIP3    H215556   3.426   2.070   2.770  0.9552 -0.5904  0.2409
 5198TIP3   OH215557   3.435   2.310   3.197 -0.2293 -0.3331  0.9170
 5198TIP3    H115558   3.493   2.368   3.246  0.8368  0.8950 -1.6337
 5198TIP3    H215559   3.432   2.230   3.249  1.3330  0.6361  2.6314
 5199TIP3   OH215560   0.926   6.451   3.850  0.4167 -0.3517  0.1033
 5199TIP3    H115561   0.917   6.407   3.934  1.0364  1.6821  1.2791
 5199TIP3    H215562   0.838   6.450   3.812  0.2538 -1.8174  0.4440
 5200TIP3   OH215563   1.708   5.946   5.740 -0.0461  0.6276 -0.1864
 5200TIP3    H115564   1.678   5.937   5.649  0.5735 -1.7395 -0.2238
 5200TIP3    H215565   1.647   5.892   5.790  0.0591  1.3281  0.7247
 5201TIP3   OH215566   3.831   5.612   0.098  0.5338  0.3732 -0.2791
 5201TIP3    H115567   3.839   5.626   0.193  0.5375  3.2909 -0.6464
 5201TIP3    H215568   3.907   5.558   0.076  0.0103 -1.1832  1.4798
 5202TIP3   OH215569   6.441   3.850   5.691 -0.4223  0.2499 -0.0394
 5202TIP3    H115570   6.493   3.848   5.772  0.6507 -0.1959 -0.7175
 5202TIP3    H215571   6.468   3.772   5.643 -1.0809  0.4849 -0.8092
 5203TIP3   OH215572   4.309   2.087   3.128  0.1805  0.1392  0.1582
 5203TIP3    H115573   4.342   2.099   3.217  1.4118  0.0732 -0.2779
 5203TIP3    H215574   4.351   2.007   3.097 -1.1397 -0.4922 -0.0961
 5204TIP3   OH215575   4.331   0.061   5.224 -0.0391  0.1284 -0.0934
 5204TIP3    H115576   4.245   0.058   5.181 -2.1602  0.1600  3.6279
 5204TIP3    H215577   4.347  -0.029   5.251  0.0307  0.4415  0.9729
 5205TIP3   OH215578   3.611   5.518   4.340  0.1867 -0.2117  0.2710
 5205TIP3    H115579   3.649   5.472   4.415 -1.7546 -3.2965 -0.4422
 5205TIP3    H215580   3.529   5.556   4.375 -0.1062 -0.5933  0.0038
 5206TIP3   OH215581   0.954   3.533   5.328 -0.0660 -0.6067  0.1518
 5206TIP3    H115582   0.869   3.491   5.321 -0.3491  0.1063 -0.9951
 5206TIP3    H215583   0.976   3.558   5.238  1.3656 -0.8032  0.4238
 5207TIP3   OH215584   6.353   0.949   2.922 -0.8881  0.5403  0.1436
 5207TIP3    H115585   6.386   0.972   2.835  0.3669  0.7198  0.6462
 5207TIP3    H215586   6.423   0.975   2.982 -1.1289 -0.8682  1.0862
 5208TIP3   OH215587   5.962   3.091   2.511 -0.5697 -0.7008 -0.5810
 5208TIP3    H115588   5.995   3.079   2.600 -1.3340  1.4730  0.0585
 5208TIP3    H215589   6.041   3.090   2.456  0.0126 -1.0042  0.2397
 5209TIP3   OH215590   6.123   6.818   1.644  0.2548  0.7863 -0.2440
 5209TIP3    H115591   6.073   6.804   1.563  1.6386  0.2963 -1.0618
 5209TIP3    H215592   6.119   6.735   1.690 -0.7999  1.1629  0.3612
 5210TIP3   OH215593   3.073   3.653   1.923 -0.1515 -0.5588  0.2161
 5210TIP3    H115594   3.122   3.594   1.867 -0.8002 -0.6674 -0.2539
 5210TIP3    H215595   3.001   3.684   1.868 -1.1723 -1.1634  1.1673
 5211TIP3   OH215596   6.361   0.221   5.167  0.0603  0.2208 -0.2776
 5211TIP3    H115597   6.348   0.300   5.221 -0.5001  0.6003 -0.9516
 5211TIP3    H215598   6.377   0.255   5.079 -0.5541 -0.4347 -0.6462
 5212TIP3   OH215599   1.003   5.882   5.498  0.0287 -0.0352  0.2202
 5212TIP3    H115600   1.035   5.914   5.582  3.4422 -0.1816 -0.8408
 5212TIP3    H215601   0.959   5.800   5.518  2.6296 -1.1868  1.7726
 5213TIP3   OH215602   0.319   5.558   4.002  0.4710  0.7216 -0.2700
 5213TIP3    H115603   0.310   5.626   4.069  0.8661  1.1118 -0.6068
 5213TIP3    H215604   0.362   5.602   3.929  0.7109  0.1114 -0.5031
 5214TIP3   OH215605   6.434   1.602   1.590 -0.0216  0.2632  0.1834
 5214TIP3    H115606   6.369   1.671   1.594 -0.6041 -0.2971  0.5580
 5214TIP3    H215607   6.391   1.531   1.542  0.5722  0.1594 -0.2082
 5215TIP3   OH215608   1.342   6.075   1.618  0.5692  0.7539  0.4867
 5215TIP3    H115609   1.418   6.114   1.662 -0.4616  1.8214  1.3964
 5215TIP3    H215610   1.313   6.143   1.557  1.0740 -0.1360 -0.7853
 5216TIP3   OH215611   4.014   1.296   5.778 -0.2062  0.1790 -0.0446
 5216TIP3    H115612   3.971   1.286   5.693  2.2196  1.5631 -1.5567
 5216TIP3    H215613   4.100   1.258   5.766 -0.1808 -0.6127  2.2147
 5217TIP3   OH215614   1.864   2.566   0.573 -0.3555  0.0746 -0.3676
 5217TIP3    H115615   1.827   2.610   0.497 -2.0319  0.6730  0.7342
 5217TIP3    H215616   1.804   2.493   0.590  0.9385 -1.0921 -0.5906
 5218TIP3   OH215617   4.412   3.980   1.031  0.1324 -0.4421 -0.9598
 5218TIP3    H115618   4.367   3.950   0.952  0.2599 -0.2996 -1.0864
 5218TIP3    H215619   4.344   4.023   1.082 -0.2401 -1.6451 -0.4016
 5219TIP3   OH215620   6.479   1.867   0.415  0.4934  0.3708 -0.5361
 5219TIP3    H115621   6.422   1.792   0.402  0.8813 -0.3618  1.7134
 5219TIP3    H215622   6.567   1.830   0.426  0.9545  1.2789 -0.9447
 5220TIP3   OH215623   5.277   2.002   1.330  0.6633 -0.4654  0.2853
 5220TIP3    H115624   5.239   2.072   1.384  1.4370 -0.5420  0.9572
 5220TIP3    H215625   5.345   2.045   1.279  0.6589 -0.5986  0.1661
 5221TIP3   OH215626   6.442   6.031   0.737 -0.1690  0.5752  0.0400
 5221TIP3    H115627   6.376   5.963   0.720 -0.0926  0.2642  0.9120
 5221TIP3    H215628   6.523   5.983   0.752 -0.0662  0.8746  0.4548
 5222TIP3   OH215629   0.967   2.958   2.836  0.0640  0.1931 -0.0643
 5222TIP3    H115630   0.992   2.968   2.928  0.9156 -2.7017  0.1378
 5222TIP3    H215631   1.030   2.894   2.801  0.2134  1.7413 -2.8987
 5223TIP3   OH215632   2.051   5.453   2.880  0.1114 -0.2111  0.5202
 5223TIP3    H115633   2.052   5.549   2.887  1.7787 -0.2601  1.4030
 5223TIP3    H215634   1.981   5.425   2.939 -0.4196  0.4468  0.2238
 5224TIP3   OH215635   2.715   1.748   1.717  0.1288  0.1681  0.1587
 5224TIP3    H115636   2.673   1.830   1.740 -0.1501  0.1462 -0.2594
 5224TIP3    H215637   2.674   1.722   1.634  1.3446  0.4357 -0.5612
 5225TIP3   OH215638   2.912   4.961   2.530 -0.3612 -0.3311 -0.0330
 5225TIP3    H115639   2.932   5.013   2.452 -0.1525  0.6115  0.6317
 5225TIP3    H215640   2.897   5.026   2.599  1.1046 -1.1738  1.1231
 5226TIP3   OH215641   1.619   3.568   2.437 -0.3684 -0.0232  0.7641
 5226TIP3    H115642   1.709   3.586   2.409 -0.3041  0.1777  1.1061
 5226TIP3    H215643   1.567   3.581   2.357 -0.0579 -0.4368  0.4942
 5227TIP3   OH215644   4.523   0.959   5.802 -0.3105  0.4516 -0.0994
 5227TIP3    H115645   4.557   1.049   5.801 -0.0741  0.3623 -0.4184
 5227TIP3    H215646   4.592   0.908   5.844 -0.0874  0.2876 -0.6528
 5228TIP3   OH215647   0.766   5.829   3.782  0.0183 -1.0570  0.4845
 5228TIP3    H115648   0.710   5.805   3.855  0.5458 -1.6715  0.6978
 5228TIP3    H215649   0.789   5.745   3.740  1.6206 -0.9279  1.0408
 5229TIP3   OH215650   0.226   2.321   4.705 -0.1792 -0.4596 -0.3060
 5229TIP3    H115651   0.152   2.381   4.690 -0.9921 -1.6302 -1.1501
 5229TIP3    H215652   0.267   2.353   4.785 -1.6740  0.1671  0.2397
 5230TIP3   OH215653   4.738   0.375   4.883 -0.0595  0.2704 -0.0185
 5230TIP3    H115654   4.744   0.293   4.834  0.0466  0.4650 -0.3350
 5230TIP3    H215655   4.695   0.351   4.965 -0.3355 -0.0402 -0.2512
 5231TIP3   OH215656   3.248   6.685   2.981  0.1654  0.0539  0.3866
 5231TIP3    H115657   3.301   6.752   2.937  0.4850  0.1056  0.8436
 5231TIP3    H215658   3.309   6.613   2.997  0.2391  0.3102  1.3614
 5232TIP3   OH215659   6.896   3.646   1.241 -0.2705 -0.1493  0.1798
 5232TIP3    H115660   6.915   3.552   1.241  0.4206 -0.0399  1.4289
 5232TIP3    H215661   6.955   3.683   1.175 -0.4322 -0.5656 -0.2009
 5233TIP3   OH215662   1.481   2.949   1.256  0.2096 -0.0830 -0.0714
 5233TIP3    H115663   1.405   2.905   1.218  0.8881  0.8575 -2.7156
 5233TIP3    H215664   1.496   2.903   1.339 -0.7127 -3.0315 -1.3994
 5234TIP3   OH215665   4.901   5.195   5.025 -0.0758  0.8775  0.3050
 5234TIP3    H115666   4.890   5.100   5.029  1.2791  0.7371  2.8644
 5234TIP3    H215667   4.956   5.209   4.948 -0.2008 -0.4183 -0.0487
 5235TIP3   OH215668   1.101   3.151   5.232 -0.4134  0.8022  0.0111
 5235TIP3    H115669   1.072   3.091   5.164  1.2777  0.2851 -0.3158
 5235TIP3    H215670   1.099   3.237   5.189 -0.1078  0.5855 -0.4497
 5236TIP3   OH215671   6.390   5.440   1.082  0.0432  0.0011  0.0727
 5236TIP3    H115672   6.378   5.370   1.147 -0.8071 -1.6803 -1.7919
 5236TIP3    H215673   6.461   5.409   1.026 -0.7595  0.3234 -1.1536
 5237TIP3   OH215674   3.471   4.932   0.758 -0.4369  0.5850  0.1569
 5237TIP3    H115675   3.419   4.854   0.743 -1.0329  0.8781  0.6467
 5237TIP3    H215676   3.479   4.973   0.672  0.0521 -0.1093 -0.1383
 5238TIP3   OH215677   0.376   0.360   0.534  0.1960 -0.2237 -0.2821
 5238TIP3    H115678   0.469   0.337   0.531  0.4007  0.1549  1.8451
 5238TIP3    H215679   0.340   0.304   0.603 -0.4032  2.0025  1.2937
 5239TIP3   OH215680   6.038   2.558   3.826  0.0605 -0.5989  0.2616
 5239TIP3    H115681   5.978   2.498   3.870  1.0870 -1.3554  0.6501
 5239TIP3    H215682   5.984   2.636   3.808 -0.8263 -0.9448  1.3109
 5240TIP3   OH215683   3.689   3.803   2.554  0.3868  0.3820 -0.4094
 5240TIP3    H115684   3.729   3.716   2.549 -0.6099 -0.0977 -0.3824
 5240TIP3    H215685   3.762   3.864   2.550  1.1381 -0.4722 -0.0160
 5241TIP3   OH215686   2.099   2.127   2.438 -0.0852 -0.4134 -0.0449
 5241TIP3    H115687   2.067   2.165   2.356 -1.9399 -1.5219  0.1140
 5241TIP3    H215688   2.143   2.046   2.411  0.1363 -0.3012 -0.0225
 5242TIP3   OH215689   3.230   0.116   3.879  0.0644 -0.3505 -0.0656
 5242TIP3    H115690   3.145   0.128   3.921  0.8787 -0.8255  1.8030
 5242TIP3    H215691   3.210   0.109   3.785 -2.0297 -1.2128  0.4019
 5243TIP3   OH215692   1.845   5.342   2.227  0.8424  0.2781  0.3262
 5243TIP3    H115693   1.845   5.383   2.313  1.7501  0.2002  0.3691
 5243TIP3    H215694   1.876   5.253   2.242  0.3696  0.0516  0.0085
 5244TIP3   OH215695   3.506   5.713   1.681  0.0619  0.0332  0.2846
 5244TIP3    H115696   3.515   5.659   1.603  0.2875  2.0473 -1.1732
 5244TIP3    H215697   3.421   5.690   1.716  0.1852 -1.3048 -0.2302
 5245TIP3   OH215698   2.590   3.212   5.647  0.4982 -0.8817  0.2767
 5245TIP3    H115699   2.516   3.151   5.649 -0.0851 -0.3873 -2.1164
 5245TIP3    H215700   2.553   3.293   5.610  2.0517 -0.3771 -0.2777
 5246TIP3   OH215701   2.300   6.694   1.884  0.4932 -0.1512 -0.3658
 5246TIP3    H115702   2.332   6.741   1.961  1.3401 -1.1870 -0.0721
 5246TIP3    H215703   2.269   6.764   1.825  2.2328  0.8434 -0.1770
 5247TIP3   OH215704   1.081   5.289   2.058 -0.1914 -0.1486 -0.3767
 5247TIP3    H115705   1.032   5.207   2.068  0.6988 -0.7710 -0.9319
 5247TIP3    H215706   1.014   5.357   2.054 -0.9160 -0.6365  1.8283
 5248TIP3   OH215707   6.395   0.444   1.526  0.1576 -0.4237  0.4292
 5248TIP3    H115708   6.434   0.374   1.578 -1.4332 -1.7799 -0.1233
 5248TIP3    H215709   6.422   0.426   1.436 -1.0405 -0.9459  0.1478
 5249TIP3   OH215710   4.422   5.137   4.389  0.5748  0.1152  0.4476
 5249TIP3    H115711   4.358   5.073   4.421 -0.2138  0.6147 -0.1169
 5249TIP3    H215712   4.506   5.092   4.399 -0.1093 -2.0674 -2.2813
 5250TIP3   OH215713   0.925   1.112   1.237  0.7070 -0.3776 -0.2129
 5250TIP3    H115714   0.842   1.147   1.205 -0.7682 -2.3267  1.1670
 5250TIP3    H215715   0.953   1.175   1.304 -1.2838 -1.1041  1.4252
 5251TIP3   OH215716   6.149   5.930   3.247 -0.0183 -0.7552 -0.6453
 5251TIP3    H115717   6.170   5.955   3.157  2.4090 -2.0885 -0.5422
 5251TIP3    H215718   6.232   5.899   3.283 -1.1704 -1.3389  1.7030
 5252TIP3   OH215719   5.043   4.542   0.629  0.2134  0.4172 -0.1583
 5252TIP3    H115720   4.982   4.469   0.630 -0.4311  0.7725  3.9492
 5252TIP3    H215721   4.993   4.615   0.665  1.5356  2.3160 -1.9171
 5253TIP3   OH215722   2.616   2.150   4.689  0.3114  0.2683 -0.2289
 5253TIP3    H115723   2.687   2.170   4.628 -0.9837  0.0860 -1.8632
 5253TIP3    H215724   2.658   2.101   4.760  1.6967 -0.4238 -1.4826
 5254TIP3   OH215725   5.474   1.863   2.264  0.4450 -0.4174 -0.0805
 5254TIP3    H115726   5.473   1.832   2.355  1.3639  0.0608  0.1100
 5254TIP3    H215727   5.420   1.942   2.265 -0.0757 -0.7727 -0.0881
 5255TIP3   OH215728   3.844   4.323   1.077  0.4536 -0.1805  0.0876
 5255TIP3    H115729   3.831   4.364   0.992  0.8740 -0.3802 -0.0756
 5255TIP3    H215730   3.760   4.284   1.098 -0.8325  2.9659  1.4570
 5256TIP3   OH215731   0.877   5.871   2.481 -0.5121  0.6900  0.5113
 5256TIP3    H115732   0.816   5.859   2.553 -0.5627 -3.3584  0.0380
 5256TIP3    H215733   0.827   5.847   2.403  1.3323 -2.0860  0.0373
 5257TIP3   OH215734   2.319   2.943   0.674 -0.1947  0.2545 -0.2204
 5257TIP3    H115735   2.236   2.992   0.680  0.4006  1.2526  0.2102
 5257TIP3    H215736   2.386   3.009   0.689  0.7046 -0.4879 -0.8723
 5258TIP3   OH215737   4.230   5.881   1.325  0.7052 -0.3233  0.3314
 5258TIP3    H115738   4.142   5.882   1.361  0.9030 -1.0560  0.8454
 5258TIP3    H215739   4.219   5.912   1.235  0.0994  0.7499  0.7547
 5259TIP3   OH215740   1.431   1.531   4.293  0.1586 -0.5154  0.0476
 5259TIP3    H115741   1.440   1.617   4.252  0.8316 -0.6120 -0.0266
 5259TIP3    H215742   1.341   1.504   4.274 -0.1814  0.3366  0.4094
 5260TIP3   OH215743   1.277   4.445   0.190 -0.2110 -0.1695  0.0109
 5260TIP3    H115744   1.296   4.423   0.099 -1.5222  0.1158 -0.3625
 5260TIP3    H215745   1.185   4.474   0.188 -0.8131 -1.7865  1.6967
 5261TIP3   OH215746   4.627   3.716   3.437 -0.0541 -0.1572  0.5775
 5261TIP3    H115747   4.553   3.688   3.492  1.0880 -1.6808  1.4352
 5261TIP3    H215748   4.666   3.634   3.406  1.2240  0.6058  0.0896
 5262TIP3   OH215749   4.978   5.749   2.912 -0.0800 -0.0156 -0.3760
 5262TIP3    H115750   5.073   5.739   2.919  0.2935  1.7862 -1.9868
 5262TIP3    H215751   4.948   5.669   2.869  0.6309 -0.7601  0.4617
 5263TIP3   OH215752   1.728   2.668   2.890 -0.3980  1.2613 -0.1423
 5263TIP3    H115753   1.709   2.598   2.953  0.5964  1.5525  0.4979
 5263TIP3    H215754   1.722   2.625   2.805 -1.8682  0.8825  0.1153
 5264TIP3   OH215755   5.780   4.396   3.389 -0.4038  0.1938 -0.2356
 5264TIP3    H115756   5.750   4.409   3.299 -0.1550 -0.5284 -0.4287
 5264TIP3    H215757   5.876   4.396   3.382 -0.3717 -1.8611 -0.2899
 5265TIP3   OH215758   2.142   4.499   5.231  0.2212 -0.3172 -0.1774
 5265TIP3    H115759   2.204   4.514   5.159  0.0996  0.1147 -0.1975
 5265TIP3    H215760   2.058   4.487   5.187  0.0757  0.3622 -0.0882
 5266TIP3   OH215761   7.170   1.297   1.320  0.1679  0.2156 -0.1025
 5266TIP3    H115762   7.105   1.256   1.263 -1.7060 -0.3484  2.2857
 5266TIP3    H215763   7.158   1.391   1.307 -1.3487  0.1304  0.4410
 5267TIP3   OH215764   4.074   4.728   3.680 -0.2499  0.4055  0.2650
 5267TIP3    H115765   4.123   4.655   3.718 -0.0668  0.3825 -0.0084
 5267TIP3    H215766   4.106   4.805   3.726  0.9586  0.5473 -0.7494
 5268TIP3   OH215767   2.375   0.260   0.602 -0.2074  0.1764 -0.2619
 5268TIP3    H115768   2.332   0.238   0.684 -0.2167  0.8315 -0.0800
 5268TIP3    H215769   2.468   0.267   0.624 -0.0709 -0.6703 -0.5328
 5269TIP3   OH215770   4.143   0.691   3.976  0.1926 -0.3765  0.0870
 5269TIP3    H115771   4.184   0.759   4.030 -0.2806 -0.5473  0.6786
 5269TIP3    H215772   4.061   0.670   4.022 -0.4261 -0.2389 -0.9220
 5270TIP3   OH215773   5.583   6.286   5.256  0.4387 -0.6953  0.3858
 5270TIP3    H115774   5.552   6.245   5.176 -1.3113 -0.5947  0.9656
 5270TIP3    H215775   5.678   6.282   5.250  0.3399 -2.2150 -0.9058
 5271TIP3   OH215776   1.412   4.081   0.924  0.7053  0.7382  0.2035
 5271TIP3    H115777   1.445   4.025   0.854  2.0638  1.1069  0.5139
 5271TIP3    H215778   1.317   4.072   0.920  0.8297 -2.8397  1.1958
 5272TIP3   OH215779   0.138   1.046   4.432 -0.6177  0.5963  0.7823
 5272TIP3    H115780   0.112   1.119   4.376 -0.3875  0.9711  1.1509
 5272TIP3    H215781   0.205   0.999   4.381 -0.3758  0.9619  0.7606
 5273TIP3   OH215782   0.679   2.763   2.429  0.0237 -0.4644  0.5685
 5273TIP3    H115783   0.749   2.792   2.489 -1.1076 -1.0427  2.2526
 5273TIP3    H215784   0.625   2.841   2.416  0.0177 -0.4529  0.6610
 5274TIP3   OH215785   7.019   2.896   3.464 -0.1850 -0.3992 -0.3579
 5274TIP3    H115786   7.111   2.919   3.476 -0.6041  2.1930 -1.3812
 5274TIP3    H215787   6.981   2.905   3.552  0.0546  1.2987 -0.3838
 5275TIP3   OH215788   0.701   1.428   1.499 -0.9190  0.1277  0.0846
 5275TIP3    H115789   0.762   1.423   1.425  1.5669  0.6523  1.9577
 5275TIP3    H215790   0.681   1.337   1.519 -0.3825 -0.0800 -0.2902
 5276TIP3   OH215791   3.228   4.813   2.741 -0.0861 -0.1004 -0.4954
 5276TIP3    H115792   3.310   4.764   2.749  1.0573  1.7602 -0.2708
 5276TIP3    H215793   3.191   4.783   2.658  0.4734 -1.4320 -0.3039
 5277TIP3   OH215794   6.532   2.896   4.604  0.0961 -0.1862  0.0071
 5277TIP3    H115795   6.475   2.891   4.528  0.2829  1.6503 -0.2931
 5277TIP3    H215796   6.579   2.979   4.594  0.6288 -0.2281  1.7697
 5278TIP3   OH215797   4.723   2.409   4.274 -0.1076  0.0439 -0.3178
 5278TIP3    H115798   4.646   2.465   4.274  0.7938  1.3934 -1.9445
 5278TIP3    H215799   4.708   2.347   4.345 -2.5900  0.3465 -0.4872
 5279TIP3   OH215800   2.119   4.657   0.149  0.8310  0.1284 -0.3519
 5279TIP3    H115801   2.119   4.749   0.177 -1.2749  0.3540 -0.8983
 5279TIP3    H215802   2.047   4.617   0.199 -0.1992 -0.4767 -2.2079
 5280TIP3   OH215803   3.579   1.173   1.234 -0.0387  0.8127  0.3922
 5280TIP3    H115804   3.651   1.193   1.295 -0.2131 -0.5082  1.0472
 5280TIP3    H215805   3.622   1.132   1.159 -0.1706 -0.7412  1.1421
 5281TIP3   OH215806   4.118   3.508   1.535 -1.0976 -0.1629  0.2345
 5281TIP3    H115807   4.201   3.521   1.490 -1.1945 -0.4376 -0.0252
 5281TIP3    H215808   4.138   3.524   1.627 -1.4782  3.1519 -0.1424
 5282TIP3   OH215809   6.398   2.403   1.698 -0.0460  0.1660  0.2273
 5282TIP3    H115810   6.479   2.451   1.715  1.0271 -1.1101 -1.0538
 5282TIP3    H215811   6.407   2.323   1.749  0.1310 -0.5824 -0.9422
 5283TIP3   OH215812   2.234   5.711   3.717  0.0218 -0.0249  0.3273
 5283TIP3    H115813   2.272   5.758   3.792  1.0405  0.2349 -0.3307
 5283TIP3    H215814   2.304   5.710   3.652 -1.1926  0.7162 -1.0480
 5284TIP3   OH215815   3.964   1.809   2.003  0.5180 -0.1141  0.1796
 5284TIP3    H115816   3.959   1.724   2.047 -1.8098  0.0828  0.4450
 5284TIP3    H215817   3.948   1.873   2.072  0.4418  0.4248 -0.3295
 5285TIP3   OH215818   3.526   5.347   1.328  0.9233  0.0063  0.0377
 5285TIP3    H115819   3.531   5.396   1.410  0.5023  1.4979 -0.7736
 5285TIP3    H215820   3.440   5.304   1.331  0.9745 -0.0654  0.4479
 5286TIP3   OH215821   1.716   4.896   2.839  0.6143  0.0925  0.2792
 5286TIP3    H115822   1.647   4.953   2.873 -0.1403  0.8133 -2.2821
 5286TIP3    H215823   1.697   4.810   2.877 -2.0339  0.1628 -0.6942
 5287TIP3   OH215824   3.074   5.756   5.597  0.4300 -0.7011 -0.3977
 5287TIP3    H115825   3.155   5.754   5.648  0.2568 -0.6652 -0.1187
 5287TIP3    H215826   3.093   5.703   5.520  0.7919 -0.5095 -0.4403
 5288TIP3   OH215827   1.795   1.863   3.088 -0.0424 -1.0374  0.1058
 5288TIP3    H115828   1.860   1.847   3.156  0.4165  2.4384  0.6960
 5288TIP3    H215829   1.725   1.911   3.133 -0.4583 -0.0304 -1.5280
 5289TIP3   OH215830   6.778   4.302   4.413 -0.4997 -0.0166  0.2242
 5289TIP3    H115831   6.687   4.295   4.384 -0.2466  2.8479 -1.7003
 5289TIP3    H215832   6.773   4.333   4.503 -1.3940 -0.9761  0.5161
 5290TIP3   OH215833   0.079   2.459   3.528  0.5899 -0.6536  0.2939
 5290TIP3    H115834   0.174   2.467   3.527  0.7202 -1.7704  1.4642
 5290TIP3    H215835   0.063   2.365   3.534 -0.6009 -0.4810  0.0725
 5291TIP3   OH215836   3.576   1.515   1.100  0.1331  0.1905 -0.1339
 5291TIP3    H115837   3.605   1.570   1.027 -0.5979 -0.9313 -1.3028
 5291TIP3    H215838   3.502   1.466   1.066 -0.6285  0.0838  1.5750
 5292TIP3   OH215839   5.352   6.350   1.049  0.1422  0.1250  0.6646
 5292TIP3    H115840   5.336   6.437   1.086  2.7900  0.5793  0.9423
 5292TIP3    H215841   5.352   6.364   0.954 -1.5781 -0.0423  0.6110
 5293TIP3   OH215842   3.888   4.233   0.407  0.3092 -0.1783 -0.5144
 5293TIP3    H115843   3.870   4.159   0.465 -0.1081  0.2294 -0.1129
 5293TIP3    H215844   3.803   4.276   0.396  0.3134 -0.4542 -1.7246
 5294TIP3   OH215845   1.128   5.915   4.596  0.1332  0.3458 -0.2612
 5294TIP3    H115846   1.221   5.909   4.619  0.2023 -1.9522 -0.9095
 5294TIP3    H215847   1.128   5.932   4.501 -0.1075  0.2158 -0.2858
 5295TIP3   OH215848   4.646   4.151   0.134  0.1346  0.2689 -0.7595
 5295TIP3    H115849   4.596   4.071   0.118 -0.5509  0.9836 -2.5400
 5295TIP3    H215850   4.582   4.221   0.121  0.6474  1.1288  1.0706
 5296TIP3   OH215851   0.539   0.386   0.106 -0.3042 -0.4180  0.3117
 5296TIP3    H115852   0.457   0.405   0.152 -0.4439 -0.3725  0.0484
 5296TIP3    H215853   0.598   0.457   0.133 -0.3247 -0.4944  0.5629
 5297TIP3   OH215854   3.046   6.613   3.207 -0.5577  0.1204 -0.0294
 5297TIP3    H115855   2.971   6.653   3.251 -0.9487 -0.8902  0.2467
 5297TIP3    H215856   3.099   6.576   3.278 -0.0184  0.4616 -0.2523
 5298TIP3   OH215857   5.025   2.924   0.589 -0.5672 -0.3915 -0.0789
 5298TIP3    H115858   5.087   2.853   0.609 -1.0544 -1.2954 -1.5966
 5298TIP3    H215859   4.962   2.921   0.660 -1.1479 -2.1907 -0.6179
 5299TIP3   OH215860   0.181   6.337   5.748 -0.1058 -0.1335  0.2282
 5299TIP3    H115861   0.102   6.283   5.751  0.1148 -0.6410 -1.6251
 5299TIP3    H215862   0.152   6.424   5.776 -1.4641 -0.1816 -0.8790
 5300TIP3   OH215863   1.225   2.602   1.417  0.4424 -0.2232 -0.5296
 5300TIP3    H115864   1.179   2.550   1.351 -0.1569 -0.0696 -0.2421
 5300TIP3    H215865   1.158   2.619   1.484  0.0945  2.4862 -1.4804
 5301TIP3   OH215866   0.924   5.635   5.639 -0.5338  0.0625  0.1484
 5301TIP3    H115867   1.011   5.628   5.680 -1.6526 -0.0739  2.6851
 5301TIP3    H215868   0.875   5.694   5.697 -2.3395 -0.3971 -0.8437
 5302TIP3   OH215869   3.282   1.563   2.304 -0.5775  0.4537  0.3015
 5302TIP3    H115870   3.233   1.506   2.245 -0.0064 -0.2526  0.4962
 5302TIP3    H215871   3.356   1.594   2.251  0.5255 -1.0097  0.9094
 5303TIP3   OH215872   7.093   3.807   1.847  0.2175  0.0165 -0.3795
 5303TIP3    H115873   7.047   3.847   1.774 -1.2247  0.3146  0.6600
 5303TIP3    H215874   7.050   3.723   1.861 -0.2381  0.4134  0.7716
 5304TIP3   OH215875   2.935   2.710   3.239  0.0902 -0.0734 -0.2592
 5304TIP3    H115876   2.904   2.640   3.180  0.8272 -1.1407  0.5819
 5304TIP3    H215877   2.998   2.759   3.186  1.3608 -1.5161 -0.1664
 5305TIP3   OH215878   3.034   0.471   0.172  0.3007 -0.2249  0.1877
 5305TIP3    H115879   2.946   0.481   0.207 -1.0340 -0.7435 -2.7646
 5305TIP3    H215880   3.038   0.380   0.144  0.8789  0.3712 -1.8324
 5306TIP3   OH215881   4.054   4.644   1.383 -0.1559 -0.3180  0.1670
 5306TIP3    H115882   4.000   4.576   1.423 -1.3356  1.0355  0.9936
 5306TIP3    H215883   4.140   4.634   1.424 -0.0716 -1.7706 -0.3056
 5307TIP3   OH215884   4.564   5.472   1.673  0.0038  0.0570  0.3745
 5307TIP3    H115885   4.618   5.408   1.718 -1.5355 -0.8995  0.9176
 5307TIP3    H215886   4.483   5.476   1.724 -0.5531  1.2509 -0.5570
 5308TIP3   OH215887   7.190   1.103   2.510 -0.2428 -0.5470  0.1259
 5308TIP3    H115888   7.131   1.137   2.577 -0.8846  0.2569 -0.8058
 5308TIP3    H215889   7.275   1.142   2.530 -0.7330  0.8076 -0.2970
 5309TIP3   OH215890   2.741   3.745   1.206  0.0121  0.2135  0.3686
 5309TIP3    H115891   2.738   3.814   1.140  0.8879  0.7876  0.8885
 5309TIP3    H215892   2.831   3.713   1.202 -0.6897 -1.7713 -0.6898
 5310TIP3   OH215893   1.704   1.994   2.866 -0.2137  0.1038 -0.1335
 5310TIP3    H115894   1.740   1.938   2.935  0.3686  1.6743  0.9095
 5310TIP3    H215895   1.630   2.038   2.908  0.4473  1.4501 -0.3251
 5311TIP3   OH215896   1.129   2.690   4.384 -0.6708 -0.2949 -0.2263
 5311TIP3    H115897   1.044   2.647   4.397 -0.4083 -0.5427  0.8082
 5311TIP3    H215898   1.110   2.766   4.328 -1.3111 -1.1722 -1.2229
 5312TIP3   OH215899   1.681   0.226   3.167  0.4674 -0.8703 -0.1740
 5312TIP3    H115900   1.635   0.258   3.245  1.1374 -0.7540  0.1765
 5312TIP3    H215901   1.734   0.300   3.138  0.8932 -1.1965 -0.2289
 5313TIP3   OH215902   4.633   5.976   3.612 -0.0343  0.6084  0.2893
 5313TIP3    H115903   4.691   5.943   3.681 -1.3662  0.0578  1.1915
 5313TIP3    H215904   4.558   5.916   3.613 -0.9734  1.7233 -0.3307
 5314TIP3   OH215905   1.991   2.524   1.650  0.1325  0.1553 -0.1062
 5314TIP3    H115906   1.955   2.557   1.568 -1.2310 -0.9714 -0.0238
 5314TIP3    H215907   2.016   2.602   1.699 -0.3457  0.9091 -1.0286
 5315TIP3   OH215908   6.222   5.691   5.857  0.1837  0.6542 -0.3614
 5315TIP3    H115909   6.187   5.773   5.822  2.6784  1.5404 -0.9497
 5315TIP3    H215910   6.209   5.697   5.952 -1.1244  0.9394 -0.5318
 5316TIP3   OH215911   6.444   3.040   3.187  0.5336 -0.1682 -0.2758
 5316TIP3    H115912   6.470   3.115   3.133 -1.0925  2.3712  2.2123
 5316TIP3    H215913   6.357   3.017   3.155  0.3015  0.1836  0.0949
 5317TIP3   OH215914   2.857   6.326   4.156 -0.2384  0.3056  0.0046
 5317TIP3    H115915   2.894   6.356   4.073  0.5793 -2.0165 -0.5298
 5317TIP3    H215916   2.771   6.292   4.132  1.0900 -3.0316 -0.5373
 5318TIP3   OH215917   5.905   3.380   0.103 -0.2349 -0.1939 -0.1871
 5318TIP3    H115918   5.932   3.301   0.056 -0.8794 -0.3497 -0.3169
 5318TIP3    H215919   5.896   3.447   0.035  2.5679  0.6673  0.1916
 5319TIP3   OH215920   4.418   4.577   3.229 -0.1828  0.0298  0.0047
 5319TIP3    H115921   4.455   4.622   3.154 -1.0316 -0.4778 -0.7319
 5319TIP3    H215922   4.454   4.488   3.224  0.5291  0.2612  0.7652
 5320TIP3   OH215923   4.150   4.705   2.329 -0.4215  0.7519 -0.3055
 5320TIP3    H115924   4.160   4.648   2.405 -1.5375  0.4256 -0.3836
 5320TIP3    H215925   4.144   4.793   2.367 -1.0453  0.5853  0.0056
 5321TIP3   OH215926   5.573   6.100   0.057 -0.8947  0.0668  0.1571
 5321TIP3    H115927   5.558   6.173  -0.004 -0.4485  0.3397  0.3680
 5321TIP3    H215928   5.602   6.028   0.001  1.4882  0.8926  0.2077
 5322TIP3   OH215929   4.119   1.373   1.078  0.0974 -0.2891  0.3770
 5322TIP3    H115930   4.026   1.355   1.071  0.0844 -0.0295 -0.1645
 5322TIP3    H215931   4.128   1.417   1.163  0.0985 -2.4746  1.5889
 5323TIP3   OH215932   4.051   3.956   3.320 -0.0272  0.1343  0.5844
 5323TIP3    H115933   4.079   4.045   3.296  0.1023 -0.2030 -0.5787
 5323TIP3    H215934   4.011   3.921   3.240  0.1110 -0.9267  0.9680
 5324TIP3   OH215935   5.586   3.190   2.163 -0.1064 -0.0434 -0.3848
 5324TIP3    H115936   5.627   3.155   2.242 -1.5219 -1.7494 -0.3459
 5324TIP3    H215937   5.584   3.115   2.103 -3.1512 -0.1052 -0.3508
 5325TIP3   OH215938   1.225   5.525   3.415 -0.0506 -0.5500 -0.0877
 5325TIP3    H115939   1.239   5.470   3.492  0.2985  0.3391  0.4945
 5325TIP3    H215940   1.203   5.463   3.345 -1.9622 -1.2591  1.0740
 5326TIP3   OH215941   5.515   1.942   1.644  0.0474 -0.6163 -0.3447
 5326TIP3    H115942   5.462   2.021   1.629  2.6941  1.0984 -1.5766
 5326TIP3    H215943   5.520   1.934   1.739 -1.2796 -0.0670 -0.2024
 5327TIP3   OH215944   1.609   3.315   4.850  0.1056  0.1593  0.1254
 5327TIP3    H115945   1.645   3.396   4.814  0.2357  1.2404  2.4705
 5327TIP3    H215946   1.514   3.323   4.838  0.0952  0.8226  0.5622
 5328TIP3   OH215947   0.745   4.718   4.513 -0.1575 -0.0359 -0.6647
 5328TIP3    H115948   0.830   4.762   4.522 -1.3433  2.0606  1.5325
 5328TIP3    H215949   0.731   4.676   4.598 -1.7952  0.6781 -0.5391
 5329TIP3   OH215950   3.383   3.315   3.158  0.4714  0.0019 -0.1098
 5329TIP3    H115951   3.388   3.411   3.166  0.7345 -0.0554  0.5046
 5329TIP3    H215952   3.408   3.298   3.067 -2.3699  0.6852 -1.1145
 5330TIP3   OH215953   2.252   1.612   0.353  0.1423  0.2177 -0.5402
 5330TIP3    H115954   2.220   1.666   0.280 -0.4353 -1.7878 -1.8438
 5330TIP3    H215955   2.344   1.596   0.332  0.3004  0.6072 -0.1757
 5331TIP3   OH215956   2.754   3.586   5.693  0.3296  0.4919 -0.4466
 5331TIP3    H115957   2.773   3.653   5.759  0.4143  0.5045 -0.4830
 5331TIP3    H215958   2.791   3.622   5.612 -1.9710  1.6613 -1.0622
 5332TIP3   OH215959   1.259   2.299   3.084  0.7468  0.1067  0.2899
 5332TIP3    H115960   1.254   2.394   3.075  1.2953  0.0393 -0.8412
 5332TIP3    H215961   1.174   2.274   3.121 -0.3493  0.8055 -1.6346
 5333TIP3   OH215962   4.479   4.372   5.584 -0.1286  0.0633 -0.1216
 5333TIP3    H115963   4.403   4.337   5.539  0.1936  0.7867 -1.2859
 5333TIP3    H215964   4.445   4.445   5.636 -0.1613  0.7544 -1.0930
 5334TIP3   OH215965   3.258   6.234   4.389  0.5356  0.1555  0.2565
 5334TIP3    H115966   3.220   6.185   4.462 -1.8099  0.6699 -0.4977
 5334TIP3    H215967   3.243   6.326   4.412  0.6565  0.3483 -0.4142
 5335TIP3   OH215968   2.163   4.997   2.022  0.2874 -0.1100 -0.5619
 5335TIP3    H115969   2.168   4.921   1.964 -0.3625  0.4077 -1.3078
 5335TIP3    H215970   2.090   5.049   1.988 -1.5275 -0.8211  1.9663
 5336TIP3   OH215971   6.527   5.940   3.017  0.4627 -0.2319  0.2223
 5336TIP3    H115972   6.622   5.947   3.027  0.4501 -1.3878  1.2845
 5336TIP3    H215973   6.515   5.885   2.940  0.5856  2.1557 -1.6534
 5337TIP3   OH215974   1.325   6.440   5.525 -0.3999  0.4217  0.2629
 5337TIP3    H115975   1.372   6.405   5.450 -1.7695  0.1573 -0.4955
 5337TIP3    H215976   1.393   6.450   5.593  0.5012 -1.2410 -0.3291
 5338TIP3   OH215977   5.632   3.200   4.862 -0.2807 -1.0006  0.0167
 5338TIP3    H115978   5.587   3.249   4.930  1.6408  1.5104 -0.3777
 5338TIP3    H215979   5.724   3.201   4.889  0.5357  0.0562 -2.5136
 5339TIP3   OH215980   3.629   6.272   0.935  1.0455 -0.4651 -0.0704
 5339TIP3    H115981   3.543   6.285   0.895  0.3024 -0.1336  1.5542
 5339TIP3    H215982   3.668   6.360   0.936  1.5886 -0.6758 -1.1495
 5340TIP3   OH215983   0.931   5.080   2.086  0.2315 -0.1799 -0.2294
 5340TIP3    H115984   0.878   5.120   2.155  1.0698  0.3810  0.1076
 5340TIP3    H215985   0.877   5.008   2.053 -2.1334  2.1399 -1.9801
 5341TIP3   OH215986   6.301   4.157   5.901 -0.5958  0.3672 -0.6441
 5341TIP3    H115987   6.353   4.184   5.825 -0.1073  1.5061  0.0692
 5341TIP3    H215988   6.338   4.072   5.925  2.0649  1.7812  0.7489
 5342TIP3   OH215989   4.293   1.534   0.914 -0.0604 -0.4571  0.1672
 5342TIP3    H115990   4.220   1.589   0.942  0.1324  0.2460 -0.6478
 5342TIP3    H215991   4.274   1.448   0.949 -0.8876 -0.1016  0.6159
 5343TIP3   OH215992   4.715   5.012   1.331  0.3682 -0.3953 -0.1997
 5343TIP3    H115993   4.774   5.062   1.275  0.6833 -0.8621 -0.2932
 5343TIP3    H215994   4.720   5.056   1.416 -0.2182  0.3965 -0.5638
 5344TIP3   OH215995   0.166   3.658   4.826 -0.0133 -0.2692 -0.2132
 5344TIP3    H115996   0.210   3.732   4.783 -1.6203  0.6253 -0.3717
 5344TIP3    H215997   0.169   3.680   4.919  3.5116 -2.2288  0.3336
 5345TIP3   OH215998   2.414   4.169   0.259  0.4424  0.1699  0.1265
 5345TIP3    H115999   2.393   4.257   0.229  0.0363 -0.7046 -2.4019
 5345TIP3    H216000   2.502   4.153   0.224  0.1658 -0.7089 -0.1955
 5346TIP3   OH216001   6.160   6.684   3.726  0.6082  0.2591 -0.5948
 5346TIP3    H116002   6.139   6.757   3.784 -0.4797 -1.0003  0.7057
 5346TIP3    H216003   6.164   6.608   3.785 -2.0121 -1.3487 -2.2903
 5347TIP3   OH216004   4.466   1.902   1.502 -0.6780 -0.2466 -0.3152
 5347TIP3    H116005   4.453   1.816   1.543 -0.9566  0.3450  0.8776
 5347TIP3    H216006   4.556   1.926   1.525  0.1336 -1.0982 -2.3895
 5348TIP3   OH216007   0.553   5.425   5.177 -0.2570  0.4110 -0.2279
 5348TIP3    H116008   0.620   5.493   5.170  0.4568 -0.2653 -0.1141
 5348TIP3    H216009   0.479   5.458   5.126 -0.5110  1.9522  1.0423
 5349TIP3   OH216010   6.163   4.983   4.436 -0.0309 -0.4312  0.7338
 5349TIP3    H116011   6.178   5.044   4.363  0.3244  0.9819  1.9389
 5349TIP3    H216012   6.128   5.038   4.506 -1.2299 -1.9295  1.3406
 5350TIP3   OH216013   4.557   2.832   3.467 -0.1779 -0.1050  0.0576
 5350TIP3    H116014   4.570   2.766   3.535  0.7074 -0.0055 -0.0115
 5350TIP3    H216015   4.616   2.807   3.396  1.0825  1.4089  0.5090
 5351TIP3   OH216016   2.643   6.514   3.889  0.0050  0.1928 -0.3768
 5351TIP3    H116017   2.665   6.481   3.802 -2.0250 -0.0872 -0.8244
 5351TIP3    H216018   2.554   6.548   3.881 -1.3340 -2.2560  2.1856
 5352TIP3   OH216019   4.109   3.298   2.765 -0.4983 -0.1568  0.3646
 5352TIP3    H116020   4.130   3.351   2.841 -1.9896 -0.7185  1.2186
 5352TIP3    H216021   4.107   3.208   2.798 -1.1385 -0.4183 -0.3369
 5353TIP3   OH216022   4.216   5.888   2.542  0.1454 -0.6342  0.5888
 5353TIP3    H116023   4.185   5.978   2.550  0.8580 -0.4050  0.8102
 5353TIP3    H216024   4.305   5.890   2.576  0.0135 -1.5186  0.9950
 5354TIP3   OH216025   6.239   3.452   3.985  0.0446 -0.3585  0.1813
 5354TIP3    H116026   6.291   3.390   3.934 -0.4590 -1.4650  0.9731
 5354TIP3    H216027   6.164   3.473   3.929  1.8138  2.1694 -1.4741
 5355TIP3   OH216028   3.343   5.847   3.291 -0.0300  0.1662  0.4353
 5355TIP3    H116029   3.406   5.780   3.265 -0.9331  0.0132 -1.6181
 5355TIP3    H216030   3.271   5.798   3.331 -0.4682 -0.0748 -0.6145
 5356TIP3   OH216031   5.223   4.827   0.329 -0.4931 -0.0200  0.4603
 5356TIP3    H116032   5.310   4.838   0.293 -0.3135 -0.5016  0.7282
 5356TIP3    H216033   5.213   4.899   0.392 -0.5809  0.4707 -0.1100
 5357TIP3   OH216034   2.325   6.771   4.141 -0.1406 -0.0554  0.0434
 5357TIP3    H116035   2.284   6.857   4.154 -0.5493 -0.3650  0.8746
 5357TIP3    H216036   2.251   6.710   4.139  0.0409 -0.2744 -1.8268
 5358TIP3   OH216037   4.359   0.111   5.488  0.2242  0.5579 -0.0644
 5358TIP3    H116038   4.271   0.112   5.526  0.9243 -0.1950  1.6796
 5358TIP3    H216039   4.345   0.091   5.396 -1.4111 -0.0754  0.2896
 5359TIP3   OH216040   2.094   1.859   5.063 -0.2086  0.6526  0.2902
 5359TIP3    H116041   2.100   1.833   4.971 -1.2098 -0.3285  0.4885
 5359TIP3    H216042   2.049   1.944   5.061  0.0441  0.7783 -0.1377
 5360TIP3   OH216043   6.371   1.101   5.850  0.3407  0.1687  0.6761
 5360TIP3    H116044   6.296   1.055   5.813 -0.3461  0.0892  2.1399
 5360TIP3    H216045   6.381   1.179   5.794 -0.0589 -0.4334 -0.2619
 5361TIP3   OH216046   0.791   5.095   2.556  0.1940  0.3953 -0.2019
 5361TIP3    H116047   0.703   5.129   2.572  0.2118  0.4214 -0.1582
 5361TIP3    H216048   0.844   5.173   2.540  0.1932  0.3752 -0.3069
 5362TIP3   OH216049   4.500   5.982   4.235  0.0534 -0.1655  0.3981
 5362TIP3    H116050   4.574   5.945   4.284 -0.3646 -1.3977  0.1327
 5362TIP3    H216051   4.535   5.997   4.148 -0.0188 -0.8762  0.2341
 5363TIP3   OH216052   2.609   1.850   5.234  0.3442 -0.0401  0.1500
 5363TIP3    H116053   2.579   1.765   5.267 -0.1204 -0.1457 -0.5338
 5363TIP3    H216054   2.530   1.905   5.235  0.8167  0.6863  1.4787
 5364TIP3   OH216055   3.489   3.617   1.721 -0.0174  0.0744 -0.2846
 5364TIP3    H116056   3.442   3.700   1.711  0.7311  0.9007  2.3073
 5364TIP3    H216057   3.570   3.641   1.765  1.2466 -1.7973 -1.4404
 5365TIP3   OH216058   3.822   3.596   3.428  0.4301 -0.1938  0.5691
 5365TIP3    H116059   3.778   3.545   3.496 -1.0599 -0.5309 -0.5888
 5365TIP3    H216060   3.809   3.546   3.348  0.5151  1.1084 -0.2838
 5366TIP3   OH216061   6.190   4.094   1.162 -0.1547  0.1350  0.1047
 5366TIP3    H116062   6.179   4.120   1.070 -0.7384  0.4771  0.2645
 5366TIP3    H216063   6.100   4.092   1.197 -0.2491 -2.7939 -0.0762
 5367TIP3   OH216064   2.364   1.872   1.507  0.2837 -0.0151  0.3078
 5367TIP3    H116065   2.436   1.935   1.495  1.1712 -1.0051  0.2874
 5367TIP3    H216066   2.285   1.925   1.501  0.9085  0.7447 -2.2060
 5368TIP3   OH216067   1.496   2.804   1.872 -0.3358  0.1620  0.1001
 5368TIP3    H116068   1.430   2.873   1.872 -0.7273 -0.1736 -1.1004
 5368TIP3    H216069   1.555   2.828   1.801  0.6976  0.3125  0.9860
 5369TIP3   OH216070   7.140   0.615   3.846  0.1489  0.2160  0.0475
 5369TIP3    H116071   7.226   0.637   3.882  0.3205  0.1530 -0.3163
 5369TIP3    H216072   7.135   0.666   3.764 -0.1496  0.2032  0.0592
 5370TIP3   OH216073   6.471   3.893   4.118 -0.4364  0.0075 -0.2383
 5370TIP3    H116074   6.500   3.882   4.209 -0.1898  0.6008 -0.2442
 5370TIP3    H216075   6.418   3.814   4.101 -0.3686 -0.1800  0.3692
 5371TIP3   OH216076   4.392   6.346   0.352 -0.2691  0.3503  0.2363
 5371TIP3    H116077   4.485   6.347   0.376 -0.4130 -0.7418  0.9252
 5371TIP3    H216078   4.392   6.359   0.257  0.6315 -0.3390  0.1213
 5372TIP3   OH216079   3.471   1.220   4.890  0.3981 -0.0862  0.3809
 5372TIP3    H116080   3.551   1.179   4.857 -0.0180 -0.1690 -0.5550
 5372TIP3    H216081   3.500   1.305   4.922  1.1825 -0.8768  1.8637
 5373TIP3   OH216082   1.177   1.112   5.224 -0.2432 -0.7355 -0.1004
 5373TIP3    H116083   1.116   1.076   5.160 -0.3700  0.8674 -0.9345
 5373TIP3    H216084   1.169   1.207   5.213  0.8688 -0.4663  1.2338
 5374TIP3   OH216085   5.307   6.784   0.288 -0.0141  0.1003  0.4387
 5374TIP3    H116086   5.396   6.804   0.317  0.7250 -0.5834 -1.2229
 5374TIP3    H216087   5.274   6.720   0.351  1.0442 -0.3830  0.5217
 5375TIP3   OH216088   0.019   3.274   1.703 -0.2731 -0.4314 -0.0956
 5375TIP3    H116089   0.043   3.256   1.612 -0.9972 -0.3721 -0.3074
 5375TIP3    H216090   0.037   3.367   1.714  0.2865 -0.5442 -0.0226
 5376TIP3   OH216091   1.200   2.585   4.636 -0.9501 -0.1444 -0.5271
 5376TIP3    H116092   1.174   2.653   4.574 -1.8255 -0.3840 -0.4394
 5376TIP3    H216093   1.117   2.548   4.667 -0.5270 -0.0373  0.7807
 5377TIP3   OH216094   7.230   1.650   0.886  0.4732  0.0054 -0.5731
 5377TIP3    H116095   7.185   1.722   0.930 -0.5390  1.1116 -3.2430
 5377TIP3    H216096   7.176   1.574   0.903  0.8835  0.0606  1.2226
 5378TIP3   OH216097   5.747   1.544   4.016 -0.3781  0.5186  0.3129
 5378TIP3    H116098   5.732   1.486   3.941  1.0858  0.1413  0.2953
 5378TIP3    H216099   5.816   1.604   3.987  0.5162  0.0987  1.4891
 5379TIP3   OH216100   1.490   2.697   1.404 -0.0332  0.6741  0.6707
 5379TIP3    H116101   1.411   2.643   1.393  0.4626 -0.1084  0.8862
 5379TIP3    H216102   1.467   2.758   1.474  0.4071 -1.2297  2.5446
 5380TIP3   OH216103   7.015   4.530   3.254  0.2735  0.7076 -0.0231
 5380TIP3    H116104   7.014   4.607   3.310  0.1206  0.8403 -0.2046
 5380TIP3    H216105   6.959   4.467   3.299 -0.1421  0.9431 -0.2027
 5381TIP3   OH216106   4.801   3.213   0.699  0.0492  0.6444  0.2699
 5381TIP3    H116107   4.815   3.307   0.683  1.0687  0.6627  1.1509
 5381TIP3    H216108   4.819   3.202   0.793 -0.6152 -0.3449  0.2985
 5382TIP3   OH216109   2.484   2.068   2.996 -0.1953 -0.3554 -0.1161
 5382TIP3    H116110   2.573   2.081   3.027  0.1651 -2.5074 -0.0688
 5382TIP3    H216111   2.429   2.079   3.074  0.0583  0.4809 -0.0462
 5383TIP3   OH216112   0.201   5.331   3.926  0.0334  0.0995 -0.6944
 5383TIP3    H116113   0.289   5.315   3.893  0.6350 -0.7106  1.1755
 5383TIP3    H216114   0.206   5.418   3.966  0.3730 -0.4696  0.5441
 5384TIP3   OH216115   0.130   5.904   4.344 -0.2416 -0.4292  0.5848
 5384TIP3    H116116   0.123   5.997   4.363  1.3624 -0.2310  0.3703
 5384TIP3    H216117   0.174   5.867   4.422  0.7261 -0.6795 -0.0594
 5385TIP3   OH216118   3.661   1.368   5.314 -0.0114 -0.1166  0.2330
 5385TIP3    H116119   3.646   1.463   5.311  0.4695 -0.0631 -0.8982
 5385TIP3    H216120   3.586   1.331   5.269  0.4398 -0.1839 -0.4793
 5386TIP3   OH216121   2.544   6.620   5.759 -0.0441  0.2648 -0.1826
 5386TIP3    H116122   2.545   6.704   5.804 -0.4698 -0.0307  0.3956
 5386TIP3    H216123   2.521   6.557   5.827  2.7257 -0.6891 -0.0361
 5387TIP3   OH216124   3.024   4.699   0.144  0.4700 -0.2384 -0.1112
 5387TIP3    H116125   3.069   4.742   0.217  0.4770 -1.3747  0.5894
 5387TIP3    H216126   2.961   4.764   0.112  1.4499  0.7787 -0.0263
 5388TIP3   OH216127   4.871   4.994   0.227 -0.2958 -0.0604 -0.1317
 5388TIP3    H116128   4.918   4.914   0.203  0.8142  0.4459  0.3138
 5388TIP3    H216129   4.939   5.060   0.236 -1.1255  0.7512  0.2929
 5389TIP3   OH216130   6.340   6.245   5.521  0.5861  0.1900  0.1286
 5389TIP3    H116131   6.295   6.239   5.605 -1.3712 -1.1547 -0.9231
 5389TIP3    H216132   6.420   6.194   5.532  0.5170  0.3138  1.2588
 5390TIP3   OH216133   1.905   4.744   3.063 -0.0945 -0.9271 -0.2826
 5390TIP3    H116134   1.811   4.748   3.080 -0.2747 -0.6271 -1.2742
 5390TIP3    H216135   1.944   4.726   3.148 -1.0737 -1.4223  0.0760
 5391TIP3   OH216136   4.993   5.463   2.477  0.0923 -0.1011  0.3343
 5391TIP3    H116137   4.983   5.546   2.429  1.3219 -0.3423 -0.3920
 5391TIP3    H216138   5.083   5.437   2.460  1.5460  1.0564  4.8391
 5392TIP3   OH216139   0.489   0.244   4.831 -0.3664  0.0344 -0.4321
 5392TIP3    H116140   0.458   0.330   4.860  0.4635  0.6750 -1.3775
 5392TIP3    H216141   0.468   0.241   4.738 -1.0439 -1.1030 -0.2527
 5393TIP3   OH216142   6.821   2.468   2.330 -0.2115  0.0805 -0.0896
 5393TIP3    H116143   6.846   2.376   2.314  0.4695 -0.1484  2.0137
 5393TIP3    H216144   6.739   2.462   2.378 -0.3260  0.5797 -0.2264
 5394TIP3   OH216145   5.701   1.510   0.576  0.3745  0.0976  0.5113
 5394TIP3    H116146   5.753   1.584   0.606  0.0135  0.2136  0.8598
 5394TIP3    H216147   5.627   1.507   0.636 -0.6229  0.6247 -0.6521
 5395TIP3   OH216148   0.351   3.280   3.527  0.1219 -0.1317  0.3738
 5395TIP3    H116149   0.268   3.328   3.524 -0.0787 -0.2215  2.7184
 5395TIP3    H216150   0.380   3.277   3.435 -1.0795  2.2858 -0.1773
 5396TIP3   OH216151   5.491   5.427   0.632  0.3579 -0.1187 -0.6646
 5396TIP3    H116152   5.407   5.388   0.656  0.7389 -0.7768 -0.3529
 5396TIP3    H216153   5.470   5.488   0.562 -0.5277  0.5023  0.1168
 5397TIP3   OH216154   0.122   0.965   5.202 -0.1606  0.1870  0.2910
 5397TIP3    H116155   0.175   0.965   5.282 -0.6523  2.1509  0.6738
 5397TIP3    H216156   0.144   1.048   5.159 -1.7296  0.2980 -0.3415
 5398TIP3   OH216157   2.358   5.466   2.303  0.0677  0.2746 -0.4866
 5398TIP3    H116158   2.403   5.541   2.264 -1.8171  1.1038 -1.1933
 5398TIP3    H216159   2.282   5.504   2.347  1.3344 -0.7648  2.9504
 5399TIP3   OH216160   4.543   3.109   5.526 -0.3629 -0.3738 -0.2481
 5399TIP3    H116161   4.539   3.128   5.620 -1.2027 -2.6188  0.2204
 5399TIP3    H216162   4.456   3.078   5.504 -0.1130 -0.0767 -1.7491
 5400TIP3   OH216163   1.118   5.105   2.280 -0.5075  0.3488  0.3282
 5400TIP3    H116164   1.040   5.049   2.279 -0.1170 -0.1989  0.4007
 5400TIP3    H216165   1.120   5.144   2.193  0.3035 -1.2780 -0.4202
 5401TIP3   OH216166   1.577   0.861   0.716  0.2888 -0.0826 -0.0082
 5401TIP3    H116167   1.535   0.789   0.668 -0.0128  0.6040 -0.7968
 5401TIP3    H216168   1.651   0.820   0.760 -0.3257 -1.0256  0.1755
 5402TIP3   OH216169   4.675   2.791   2.707 -0.1278 -0.1446 -0.0995
 5402TIP3    H116170   4.672   2.871   2.655  0.6859  0.9776  1.4844
 5402TIP3    H216171   4.615   2.731   2.663 -2.1983  1.9625 -0.3344
 5403TIP3   OH216172   0.492   6.622   3.287  0.0116  0.0262  0.0434
 5403TIP3    H116173   0.557   6.564   3.248 -0.8057 -0.8514 -0.0825
 5403TIP3    H216174   0.474   6.582   3.373  0.7922  1.1547  0.7474
 5404TIP3   OH216175   0.316   5.124   2.367 -0.3895  0.6528  0.0165
 5404TIP3    H116176   0.242   5.172   2.329 -0.8002 -1.4015 -2.0151
 5404TIP3    H216177   0.275   5.057   2.422  0.0723  0.7853  0.5316
 5405TIP3   OH216178   4.848   3.479   0.681  0.0740  0.0282  0.2813
 5405TIP3    H116179   4.836   3.529   0.761 -0.2019 -0.2021  0.3892
 5405TIP3    H216180   4.942   3.464   0.675  0.1571  0.5675  0.2380
 5406TIP3   OH216181   5.378   2.540   1.391  0.0548  0.0885  0.1218
 5406TIP3    H116182   5.312   2.534   1.322 -1.5434 -2.0824  1.7291
 5406TIP3    H216183   5.454   2.494   1.356 -1.3387 -2.5568  0.3550
 5407TIP3   OH216184   1.727   6.471   4.372 -0.2083 -0.4805  0.3858
 5407TIP3    H116185   1.664   6.434   4.310  1.9449 -0.2066 -2.1905
 5407TIP3    H216186   1.711   6.424   4.454 -2.4850 -1.6884 -0.6648
 5408TIP3   OH216187   2.290   2.132   5.777 -0.0012  0.0294  0.1921
 5408TIP3    H116188   2.312   2.134   5.871 -0.4596 -0.6872  0.3148
 5408TIP3    H216189   2.200   2.103   5.774  0.6823 -2.1596 -0.5912
 5409TIP3   OH216190   3.689   1.160   5.765 -0.2163  0.3118 -0.7844
 5409TIP3    H116191   3.741   1.204   5.698 -0.8094  0.9823 -0.8179
 5409TIP3    H216192   3.636   1.230   5.803  1.1682  0.2714  1.4359
 5410TIP3   OH216193   6.526   4.288   1.826  0.5241 -0.7552 -0.0253
 5410TIP3    H116194   6.504   4.206   1.782  3.1371 -0.7121 -1.6306
 5410TIP3    H216195   6.543   4.350   1.755  1.6446  0.2758  1.0763
 5411TIP3   OH216196   6.225   3.742   1.469  0.0178  0.3865  0.2991
 5411TIP3    H116197   6.189   3.702   1.549 -1.3637 -0.0661 -0.5085
 5411TIP3    H216198   6.307   3.695   1.454  0.3560  0.5494  1.4935
 5412TIP3   OH216199   5.730   3.243   5.255  0.3806  0.2534 -0.3410
 5412TIP3    H116200   5.731   3.268   5.162 -1.6330 -1.2521 -0.8353
 5412TIP3    H216201   5.677   3.164   5.258 -1.1594  1.2727  2.3464
 5413TIP3   OH216202   3.270   5.578   3.039  0.2221  0.6515 -0.4487
 5413TIP3    H116203   3.178   5.598   3.060  0.2420  0.3855 -0.0846
 5413TIP3    H216204   3.299   5.652   2.986 -0.3788  0.4479 -1.0733
 5414TIP3   OH216205   7.126   6.660   4.245  0.2913 -0.4769  0.0785
 5414TIP3    H116206   7.087   6.636   4.161 -0.2929 -0.1162  0.2437
 5414TIP3    H216207   7.207   6.608   4.249 -1.1560 -2.8724  0.6489
 5415TIP3   OH216208   7.164   3.921   4.637  0.3727  0.4137  0.0837
 5415TIP3    H116209   7.149   3.908   4.730  0.5319  3.9438  0.7255
 5415TIP3    H216210   7.129   3.842   4.596 -1.7581 -0.2786  2.9310
 5416TIP3   OH216211   6.023   3.654   0.881  0.0437  0.0560 -0.2323
 5416TIP3    H116212   6.118   3.652   0.875  0.3027  2.7165  1.4750
 5416TIP3    H216213   5.996   3.564   0.861  2.6907 -0.3348 -2.8210
 5417TIP3   OH216214   3.576   6.330   2.951 -0.1995  0.0723 -0.1649
 5417TIP3    H116215   3.650   6.314   2.893 -0.2743  1.4914 -0.6903
 5417TIP3    H216216   3.527   6.401   2.909 -1.7705 -0.7250  0.2544
 5418TIP3   OH216217   1.008   2.732   3.123  0.0674 -0.2157  0.2530
 5418TIP3    H116218   0.989   2.719   3.216 -0.9052 -1.5387 -0.0978
 5418TIP3    H216219   1.046   2.820   3.118  3.0402 -1.2158  2.3190
 5419TIP3   OH216220   1.095   0.999   3.692 -0.2682 -0.8103 -0.3602
 5419TIP3    H116221   1.004   1.021   3.673 -0.3767 -1.5730 -0.7542
 5419TIP3    H216222   1.091   0.942   3.768  0.0980  1.4002  1.4275
 5420TIP3   OH216223   5.117   6.228   5.765 -0.1435 -0.5670 -0.2111
 5420TIP3    H116224   5.082   6.163   5.704 -0.9099 -0.1760 -0.2005
 5420TIP3    H216225   5.117   6.310   5.716  0.4031 -0.4868 -0.0820
 5421TIP3   OH216226   3.897   0.931   0.232  0.1443 -0.2704  0.3252
 5421TIP3    H116227   3.904   0.868   0.160 -0.3697 -2.1658  1.8259
 5421TIP3    H216228   3.838   0.889   0.295  2.1307  0.3195  2.7623
 5422TIP3   OH216229   7.136   4.860   0.774 -0.1629  0.6251 -0.2307
 5422TIP3    H116230   7.218   4.823   0.807 -1.4386  0.9521  3.9951
 5422TIP3    H216231   7.147   4.955   0.785 -1.7228  0.5813  2.5540
 5423TIP3   OH216232   0.149   5.398   2.180 -0.0215 -0.4315 -0.6742
 5423TIP3    H116233   0.088   5.376   2.251  2.5638 -0.2313  1.7906
 5423TIP3    H216234   0.168   5.491   2.193  2.6625 -1.0313  0.3065
 5424TIP3   OH216235   4.316   1.959   1.906  0.8280  0.5256 -0.3206
 5424TIP3    H116236   4.361   1.981   1.987  0.8193 -0.2719 -0.0987
 5424TIP3    H216237   4.354   2.019   1.841  1.4785  0.5530  0.0731
 5425TIP3   OH216238   6.218   5.868   5.058  0.0517 -0.0366 -0.1842
 5425TIP3    H116239   6.132   5.889   5.094 -1.0474 -1.1830 -1.9590
 5425TIP3    H216240   6.265   5.951   5.056 -0.9924  0.6075  0.8249
 5426TIP3   OH216241   5.038   4.198   5.271 -0.1181 -1.0972 -0.4441
 5426TIP3    H116242   5.125   4.209   5.233 -0.8314 -1.1031 -2.1443
 5426TIP3    H216243   4.980   4.246   5.213 -1.2960 -1.2637  0.5514
 5427TIP3   OH216244   2.832   4.250   3.611  0.3152 -0.1850 -0.5210
 5427TIP3    H116245   2.750   4.227   3.656 -0.4860  3.4060  0.1983
 5427TIP3    H216246   2.823   4.343   3.592  2.6083 -0.5165 -4.1289
 5428TIP3   OH216247   4.406   6.416   2.396 -0.2457 -0.4735  0.3427
 5428TIP3    H116248   4.471   6.471   2.439  0.7815 -1.6507  0.3638
 5428TIP3    H216249   4.451   6.378   2.321 -1.3662 -0.1725 -0.5144
 5429TIP3   OH216250   2.418   5.437   1.430  0.1323 -0.1616 -0.2679
 5429TIP3    H116251   2.413   5.372   1.500  1.5287  0.7275  0.7087
 5429TIP3    H216252   2.447   5.387   1.354 -1.8247 -1.2239 -0.3773
 5430TIP3   OH216253   2.571   0.815   4.379  0.5352 -0.4902 -0.1481
 5430TIP3    H116254   2.480   0.832   4.356  0.3815 -0.1807  0.6572
 5430TIP3    H216255   2.573   0.723   4.403  0.3239 -0.3832  0.2996
 5431TIP3   OH216256   3.836   2.235   4.585 -0.3427  0.1609  0.3532
 5431TIP3    H116257   3.914   2.180   4.592 -0.6297 -0.1562  1.1322
 5431TIP3    H216258   3.764   2.174   4.576 -0.6129  0.4203  0.7413
 5432TIP3   OH216259   3.433   5.030   1.428  0.0986 -0.4475 -0.1548
 5432TIP3    H116260   3.380   4.967   1.477  0.7209 -0.5722  0.3747
 5432TIP3    H216261   3.472   4.978   1.357 -2.5925  0.1688 -2.2728
 5433TIP3   OH216262   2.365   2.713   5.197  0.2446  0.1725 -0.4500
 5433TIP3    H116263   2.410   2.793   5.173  0.1059  0.7088  0.9442
 5433TIP3    H216264   2.297   2.702   5.131  1.9528 -0.3117 -2.2175
 5434TIP3   OH216265   2.122   1.067   5.132  0.2631 -0.7283  0.2885
 5434TIP3    H116266   2.049   1.091   5.076  0.2556 -2.5214 -0.5561
 5434TIP3    H216267   2.199   1.071   5.076  0.2808 -2.3558  0.1317
 5435TIP3   OH216268   0.225   6.332   3.354 -0.1476 -0.2407 -0.1317
 5435TIP3    H116269   0.212   6.263   3.419  0.1017 -0.1002  0.0661
 5435TIP3    H216270   0.138   6.347   3.317 -0.2519 -0.4630  0.0261
 5436TIP3   OH216271   3.682   5.495   2.258  0.3160  0.3569 -0.1755
 5436TIP3    H116272   3.681   5.581   2.217 -3.1797 -0.8286 -3.1085
 5436TIP3    H216273   3.721   5.437   2.192  1.1109 -0.6283  1.0941
 5437TIP3   OH216274   3.055   3.044   2.377 -0.1596  0.0242 -0.5810
 5437TIP3    H116275   3.110   3.117   2.349 -1.1294  0.5009 -1.3161
 5437TIP3    H216276   3.018   3.073   2.460  0.1996 -0.0371 -0.3976
 5438TIP3   OH216277   6.539   2.119   0.486  0.0695 -0.5265 -0.3071
 5438TIP3    H116278   6.512   2.034   0.450 -0.5292 -1.6043  2.4509
 5438TIP3    H216279   6.464   2.176   0.472 -0.0156 -0.8147 -1.0601
 5439TIP3   OH216280   0.305   2.840   4.822 -0.1057  0.1745  0.2469
 5439TIP3    H116281   0.321   2.934   4.833  2.8054 -0.4003  2.3658
 5439TIP3    H216282   0.278   2.810   4.909  2.1717 -1.3555  0.5328
 5440TIP3   OH216283   1.334   3.389   0.608 -0.6186  0.3237  0.4341
 5440TIP3    H116284   1.284   3.450   0.553 -0.9554  0.6288  1.0600
 5440TIP3    H216285   1.425   3.416   0.596 -0.4546 -0.9502 -1.5926
 5441TIP3   OH216286   2.416   2.566   2.921  0.0410  0.1289 -0.0609
 5441TIP3    H116287   2.352   2.625   2.880 -0.8417  0.1662  1.3120
 5441TIP3    H216288   2.364   2.493   2.952  0.6222  0.2691  1.2930
 5442TIP3   OH216289   2.108   4.213   1.404 -0.2665  0.9249 -0.2325
 5442TIP3    H116290   2.082   4.125   1.377  0.7923  0.8869 -1.1589
 5442TIP3    H216291   2.043   4.271   1.363  0.0584  0.7012 -1.0716
 5443TIP3   OH216292   1.040   0.661   2.017 -0.8988  0.4503 -0.0610
 5443TIP3    H116293   1.073   0.592   2.076 -1.1004  0.5816  0.2085
 5443TIP3    H216294   1.116   0.687   1.965 -0.4773  1.0203  0.8176
 5444TIP3   OH216295   1.913   5.328   0.429 -0.2980 -0.0628  0.0823
 5444TIP3    H116296   1.904   5.371   0.344 -1.9924  0.6646  0.5781
 5444TIP3    H216297   1.846   5.259   0.428 -2.5567  1.9107  1.8884
 5445TIP3   OH216298   5.407   0.870   1.080  0.1347  0.7396  0.4270
 5445TIP3    H116299   5.320   0.907   1.096  0.3822  1.3717  0.3126
 5445TIP3    H216300   5.464   0.946   1.071  0.3793  0.3799 -1.3726
 5446TIP3   OH216301   0.865   4.482   4.374 -0.3465  0.5073  0.1903
 5446TIP3    H116302   0.834   4.572   4.366  1.4873  1.3307  1.5878
 5446TIP3    H216303   0.802   4.439   4.431 -0.0892  1.5580  1.3171
 5447TIP3   OH216304   1.495   6.631   0.940 -0.1896  0.3611 -0.6135
 5447TIP3    H116305   1.570   6.588   0.898 -0.0970  0.6721 -0.7663
 5447TIP3    H216306   1.422   6.613   0.881 -0.5468 -1.1300  0.2153
 5448TIP3   OH216307   3.952   3.753   0.283 -0.0344 -0.0512  0.0931
 5448TIP3    H116308   3.998   3.785   0.207  0.3919 -0.9722 -0.0517
 5448TIP3    H216309   3.925   3.664   0.259 -1.4775  0.2888  0.3447
 5449TIP3   OH216310   1.251   4.551   3.073  0.3437  0.1879 -0.2491
 5449TIP3    H116311   1.204   4.579   3.151  1.2829 -0.7561  0.6837
 5449TIP3    H216312   1.322   4.495   3.106 -0.8702 -2.5355 -1.9149
 5450TIP3   OH216313   3.911   0.260   1.398  0.3607  0.7168  0.0837
 5450TIP3    H116314   3.953   0.313   1.466  2.6823  0.9069 -1.4231
 5450TIP3    H216315   3.848   0.206   1.447  0.7758  1.9876  2.1640
 5451TIP3   OH216316   5.545   5.210   3.517  0.7774 -0.5355 -0.8031
 5451TIP3    H116317   5.501   5.293   3.535  1.9014 -0.1485  0.2688
 5451TIP3    H216318   5.560   5.210   3.423  0.6720  0.4179 -0.8234
 5452TIP3   OH216319   5.182   5.870   0.222  0.2603  0.6375 -0.3841
 5452TIP3    H116320   5.135   5.949   0.247  1.4085  1.4484 -0.7013
 5452TIP3    H216321   5.121   5.799   0.242 -0.2723  1.4850  1.1841
 5453TIP3   OH216322   0.881   5.468   0.159 -0.6135  0.2191  0.6558
 5453TIP3    H116323   0.804   5.497   0.109 -1.4510 -0.9946  1.2004
 5453TIP3    H216324   0.844   5.425   0.236  0.6304 -0.1277  1.0704
 5454TIP3   OH216325   5.286   6.010   5.249  0.1152 -0.3300 -0.3174
 5454TIP3    H116326   5.267   6.080   5.187  0.4835 -0.4756 -0.6057
 5454TIP3    H216327   5.365   5.968   5.213  0.0831 -0.6856  0.0218
 5455TIP3   OH216328   3.754   1.253   3.421 -0.7506 -0.3169  0.7806
 5455TIP3    H116329   3.695   1.215   3.357 -0.7719 -0.8240  1.1028
 5455TIP3    H216330   3.840   1.219   3.398 -0.5809  0.3783  0.3443
 5456TIP3   OH216331   1.020   3.920   3.763 -0.0190 -0.2697  0.2813
 5456TIP3    H116332   1.038   3.907   3.670  0.3868 -1.5417  0.5181
 5456TIP3    H216333   0.938   3.970   3.765  1.3117  2.1207 -0.7652
 5457TIP3   OH216334   4.588   2.753   5.355 -0.1679 -0.5488 -0.4210
 5457TIP3    H116335   4.593   2.672   5.304  1.2586  0.3269 -1.7527
 5457TIP3    H216336   4.517   2.803   5.314  1.4821  0.4864 -2.1401
 5458TIP3   OH216337   4.117   2.666   1.517 -0.1806 -0.4815 -0.4301
 5458TIP3    H116338   4.108   2.708   1.432  0.3917 -1.2847 -0.9077
 5458TIP3    H216339   4.121   2.572   1.497 -2.4364 -0.8797  0.6716
 5459TIP3   OH216340   3.523   4.797   4.278  0.0558  0.6120  0.2691
 5459TIP3    H116341   3.544   4.711   4.315  1.3403  0.5596 -0.5159
 5459TIP3    H216342   3.439   4.785   4.235  0.6965 -0.5466 -0.7169
 5460TIP3   OH216343   6.283   0.521   0.225  0.2247  0.1708  0.1145
 5460TIP3    H116344   6.223   0.590   0.199 -1.1493 -0.2961  1.8158
 5460TIP3    H216345   6.367   0.546   0.188 -0.7343  1.5368 -1.2272
 5461TIP3   OH216346   0.690   3.318   5.594  0.3187 -0.1357  0.0697
 5461TIP3    H116347   0.597   3.331   5.613  0.6303  1.2219  0.7804
 5461TIP3    H216348   0.708   3.379   5.522  1.4224  2.3685  2.2966
 5462TIP3   OH216349   2.479   6.621   0.866 -0.3372  0.1509  0.0050
 5462TIP3    H116350   2.402   6.609   0.809 -1.1096 -1.4332  1.2662
 5462TIP3    H216351   2.442   6.629   0.954  0.8445  2.1452  0.3677
 5463TIP3   OH216352   6.813   6.464   4.639 -0.3484  0.1693  0.2798
 5463TIP3    H116353   6.867   6.492   4.565 -1.7241  0.9926 -0.4609
 5463TIP3    H216354   6.868   6.477   4.716  0.5627  0.7963 -0.4615
 5464TIP3   OH216355   0.560   5.237   2.420  0.3718  1.3987  0.8734
 5464TIP3    H116356   0.499   5.170   2.391 -0.2100  1.9734  0.7340
 5464TIP3    H216357   0.507   5.317   2.425  0.7798  1.6139  2.1432
 5465TIP3   OH216358   0.709   3.549   1.083 -0.0430  0.2514  0.3686
 5465TIP3    H116359   0.746   3.472   1.127 -0.4547  0.2239  0.6709
 5465TIP3    H216360   0.785   3.603   1.061  0.2512 -0.2807  0.0847
 5466TIP3   OH216361   5.925   0.617   5.014  0.7066  0.1743  0.0028
 5466TIP3    H116362   5.993   0.550   5.012  0.9866  0.4611 -0.2377
 5466TIP3    H216363   5.912   0.636   5.107 -2.1703 -3.0139  0.4705
 5467TIP3   OH216364   4.679   5.308   0.726 -0.1075 -0.1042  0.6330
 5467TIP3    H116365   4.695   5.301   0.632  0.3999 -1.3923  0.7978
 5467TIP3    H216366   4.584   5.312   0.734 -0.1370  0.5285  0.0382
 5468TIP3   OH216367   3.719   1.165   3.942  0.5257  0.1966  0.1885
 5468TIP3    H116368   3.728   1.236   4.006  1.3818  2.2639 -2.0597
 5468TIP3    H216369   3.808   1.150   3.911  0.5093 -2.5791  1.1918
 5469TIP3   OH216370   1.862   1.729   0.909  0.2433  0.0207 -0.7192
 5469TIP3    H116371   1.891   1.746   0.999 -1.1476  1.2660 -0.4612
 5469TIP3    H216372   1.795   1.661   0.917 -0.5253  0.7600 -0.6726
 5470TIP3   OH216373   0.657   6.490   1.539  0.1528  0.1721  0.0227
 5470TIP3    H116374   0.601   6.469   1.464  0.0604  1.4835 -0.3011
 5470TIP3    H216375   0.660   6.586   1.541  2.8489  0.1731 -0.3407
 5471TIP3   OH216376   4.549   5.609   5.170 -0.4001  0.0159 -0.3048
 5471TIP3    H116377   4.604   5.604   5.248 -1.6268  0.2532  0.6053
 5471TIP3    H216378   4.555   5.700   5.142 -2.8737  0.9798  1.7915
 5472TIP3   OH216379   5.120   0.108   5.470 -0.2625 -0.5081  0.6214
 5472TIP3    H116380   5.071   0.029   5.491  0.3503 -1.4900 -1.3921
 5472TIP3    H216381   5.062   0.180   5.496 -1.3959 -1.6180  1.2493
 5473TIP3   OH216382   1.895   6.320   4.141 -0.2731 -0.5121  0.6174
 5473TIP3    H116383   1.892   6.379   4.065 -0.6577  0.7113  1.5632
 5473TIP3    H216384   1.809   6.327   4.181 -0.7599 -2.6675  0.0990
 5474TIP3   OH216385   0.958   0.195   4.874  0.0517  0.2999 -0.9567
 5474TIP3    H116386   1.002   0.118   4.837 -0.5026 -0.2450 -0.5135
 5474TIP3    H216387   0.999   0.270   4.831 -0.1564 -0.2864 -2.2213
 5475TIP3   OH216388   6.697   1.757   2.142  0.5259 -0.3166 -0.4369
 5475TIP3    H116389   6.614   1.716   2.164  0.5414 -0.3313 -0.4058
 5475TIP3    H216390   6.750   1.685   2.106  0.9509 -0.5679  0.6701
 5476TIP3   OH216391   2.890   5.742   3.730  0.2505 -0.7981  0.0133
 5476TIP3    H116392   2.885   5.833   3.701  1.7512 -1.0624 -1.2076
 5476TIP3    H216393   2.900   5.748   3.825  0.4925  0.3237 -0.0678
 5477TIP3   OH216394   1.737   3.434   4.066 -0.2217 -0.0071  0.2916
 5477TIP3    H116395   1.691   3.400   3.989  0.3159  0.1515 -0.1042
 5477TIP3    H216396   1.670   3.440   4.133 -0.6746 -0.2577 -0.1343
 5478TIP3   OH216397   7.068   0.744   5.832  0.3377 -0.0835 -0.0777
 5478TIP3    H116398   7.103   0.742   5.921 -0.7302 -1.7638  0.3611
 5478TIP3    H216399   6.974   0.757   5.844  0.3609  1.0302 -1.0453
 5479TIP3   OH216400   4.699   5.186   0.134  0.0359  0.5068 -0.0379
 5479TIP3    H116401   4.781   5.141   0.156  0.2771  1.1217  0.3545
 5479TIP3    H216402   4.726   5.264   0.087 -0.4698 -0.5914 -2.2606
 5480TIP3   OH216403   6.530   0.086   4.780  0.0842  0.0019 -0.1445
 5480TIP3    H116404   6.455   0.120   4.829  0.5489  1.7392 -0.5526
 5480TIP3    H216405   6.557   0.007   4.828  0.5378  1.5998  2.4503
 5481TIP3   OH216406   2.769   2.098   2.847  0.4199 -0.2091  0.1373
 5481TIP3    H116407   2.863   2.104   2.861  0.5340 -1.4401  0.0251
 5481TIP3    H216408   2.737   2.188   2.854  1.6335  0.2492 -0.0845
 5482TIP3   OH216409   1.978   1.842   3.679  0.9580  0.0637 -0.6745
 5482TIP3    H116410   1.983   1.938   3.680 -0.1741  0.1399  0.0666
 5482TIP3    H216411   2.044   1.815   3.616  0.5902  1.3909 -1.6686
 5483TIP3   OH216412   5.586   5.038   1.954 -0.0842  0.2769 -0.6077
 5483TIP3    H116413   5.523   5.079   2.012  0.8430 -0.3653  0.9079
 5483TIP3    H216414   5.598   4.950   1.990  0.6340 -0.0876 -1.6802
 5484TIP3   OH216415   6.579   1.280   5.072 -0.5783 -0.0532  0.2273
 5484TIP3    H116416   6.505   1.237   5.114 -0.5153  0.1143  0.5165
 5484TIP3    H216417   6.633   1.310   5.145  0.7837 -1.8779  0.0532
 5485TIP3   OH216418   1.220   0.514   2.189  0.2324  0.2634  0.2871
 5485TIP3    H116419   1.275   0.589   2.215  2.4805 -1.5248  0.9963
 5485TIP3    H216420   1.232   0.450   2.259  1.0885 -2.0711 -1.8614
 5486TIP3   OH216421   0.873   3.463   1.569 -0.1696 -0.0700 -0.1655
 5486TIP3    H116422   0.928   3.534   1.536 -0.4511  0.3166  0.1781
 5486TIP3    H216423   0.934   3.405   1.614 -0.1379  0.8470  1.0494
 5487TIP3   OH216424   2.327   1.471   4.446 -0.5144 -0.0450 -0.1805
 5487TIP3    H116425   2.415   1.433   4.455 -0.1339  0.5652 -1.2736
 5487TIP3    H216426   2.291   1.429   4.368  0.0123  1.9872 -1.5789
 5488TIP3   OH216427   4.616   2.922   2.967  0.1343 -0.5070 -0.0807
 5488TIP3    H116428   4.536   2.894   3.012  0.2299 -1.4743 -0.4719
 5488TIP3    H216429   4.618   2.869   2.888  1.9853 -1.7038  0.6919
 5489TIP3   OH216430   2.060   5.108   1.644 -0.4870 -0.1617 -0.0505
 5489TIP3    H116431   2.055   5.138   1.734  0.6687  0.8894 -0.3036
 5489TIP3    H216432   2.147   5.068   1.637  0.3819  1.7381 -1.2073
 5490TIP3   OH216433   5.166   0.486   3.320  0.1850  0.1016  0.3262
 5490TIP3    H116434   5.229   0.534   3.373  0.3580 -0.8731  1.0499
 5490TIP3    H216435   5.159   0.401   3.363  1.4119 -1.2933 -2.0067
 5491TIP3   OH216436   6.761   6.282   1.872 -0.3325 -0.0342  0.0526
 5491TIP3    H116437   6.760   6.367   1.828  0.4664  0.7389  1.4676
 5491TIP3    H216438   6.781   6.302   1.963  0.3344 -1.7749  0.3343
 5492TIP3   OH216439   3.876   1.341   1.994  0.1309 -0.3713 -0.8441
 5492TIP3    H116440   3.882   1.379   1.906 -1.9777  0.7825 -0.5662
 5492TIP3    H216441   3.915   1.254   1.985 -0.1312 -0.3368 -2.9559
 5493TIP3   OH216442   7.061   6.162   4.341  0.3479  0.7402 -0.4565
 5493TIP3    H116443   7.066   6.202   4.254 -2.0984 -1.3247 -1.6836
 5493TIP3    H216444   6.990   6.098   4.334  2.0919 -1.7545  2.1600
 5494TIP3   OH216445   2.765   1.048   1.292  0.1274  0.7461 -0.1891
 5494TIP3    H116446   2.820   1.088   1.359  1.2061 -2.4542  1.0357
 5494TIP3    H216447   2.694   1.005   1.340  0.0628 -0.3358 -1.1779
 5495TIP3   OH216448   4.084   5.461   1.850 -0.6145  0.1589  0.2979
 5495TIP3    H116449   4.052   5.511   1.925 -0.2847 -1.0320  1.2748
 5495TIP3    H216450   4.179   5.468   1.855 -0.5357 -0.9302  0.7516
 5496TIP3   OH216451   1.743   5.658   2.274  0.1869 -0.3030  0.3348
 5496TIP3    H116452   1.752   5.706   2.191  0.1289  2.8625  2.0327
 5496TIP3    H216453   1.649   5.652   2.288  0.2023 -0.6242  0.3101
 5497TIP3   OH216454   0.500   4.098   4.269  0.3357 -0.1503 -0.4152
 5497TIP3    H116455   0.450   4.018   4.285  0.7702  0.0733  2.8402
 5497TIP3    H216456   0.590   4.075   4.291  0.7270  0.8414 -0.9221
 5498TIP3   OH216457   6.552   2.592   1.213  0.6949  0.0342 -0.2345
 5498TIP3    H116458   6.524   2.522   1.154 -0.9454  0.7983 -0.4009
 5498TIP3    H216459   6.555   2.552   1.300  0.2107 -0.3484 -0.3977
 5499TIP3   OH216460   0.866   4.261   5.205 -0.3526 -0.4874  0.4324
 5499TIP3    H116461   0.871   4.211   5.124 -2.1777 -1.8014  1.0675
 5499TIP3    H216462   0.957   4.268   5.234  0.0641 -2.8216 -0.0863
 5500TIP3   OH216463   5.315   2.987   0.733  0.2547 -0.1250  0.3251
 5500TIP3    H116464   5.295   2.905   0.688 -0.7821  0.2762  0.0153
 5500TIP3    H216465   5.390   2.967   0.789 -0.6628 -1.5742  1.0857
 5501TIP3   OH216466   0.857   2.704   0.973 -0.3993 -0.0001 -0.1626
 5501TIP3    H116467   0.865   2.656   1.055 -0.7639  0.6366  0.2572
 5501TIP3    H216468   0.947   2.712   0.941 -0.1467  0.5569  0.6599
 5502TIP3   OH216469   4.367   2.827   3.083 -0.2755  0.0681  0.4736
 5502TIP3    H116470   4.339   2.766   3.014  0.9353 -1.5573  1.3338
 5502TIP3    H216471   4.286   2.869   3.113 -0.6661  2.2902 -3.1467
 5503TIP3   OH216472   1.718   4.875   2.092  0.1454 -0.2905  0.1347
 5503TIP3    H116473   1.810   4.856   2.114 -0.2292 -1.7335  0.5817
 5503TIP3    H216474   1.694   4.948   2.149  0.1104 -1.9741  2.4145
 5504TIP3   OH216475   3.795   2.163   5.763  0.1415 -0.1792  0.0055
 5504TIP3    H116476   3.722   2.105   5.743  1.1617 -1.6458  0.3980
 5504TIP3    H216477   3.871   2.123   5.720  1.2731 -0.3480  2.0103
 5505TIP3   OH216478   4.162   1.786   5.751  0.6671 -0.1316 -0.0040
 5505TIP3    H116479   4.180   1.692   5.743 -2.4006 -0.6861 -1.6917
 5505TIP3    H216480   4.175   1.805   5.844  2.3708 -1.9156  0.1942
 5506TIP3   OH216481   6.814   0.221   5.172  0.3832  0.5573 -0.5360
 5506TIP3    H116482   6.729   0.182   5.192 -0.4207  2.3116 -0.3405
 5506TIP3    H216483   6.875   0.182   5.235 -0.8933  1.4870  1.3650
 5507TIP3   OH216484   3.532   2.439   1.355 -0.0200 -0.7114 -0.5018
 5507TIP3    H116485   3.556   2.504   1.289  0.0748 -1.1978 -0.9476
 5507TIP3    H216486   3.450   2.472   1.392  0.4895  0.1303 -0.0871
 5508TIP3   OH216487   6.068   5.706   0.057 -0.6274 -0.3230 -0.0412
 5508TIP3    H116488   6.124   5.652   0.001 -1.6755 -1.8416  0.2987
 5508TIP3    H216489   6.018   5.760  -0.004 -2.3413 -2.5346 -0.7439
 5509TIP3   OH216490   6.925   0.401   5.470  0.2910 -0.4052 -0.0426
 5509TIP3    H116491   6.967   0.484   5.448  0.6034 -0.1630  1.3909
 5509TIP3    H216492   6.833   0.423   5.484  0.2142 -0.4541 -0.4452
 5510TIP3   OH216493   5.959   6.790   2.306  0.4331 -0.1805  0.4572
 5510TIP3    H116494   6.053   6.799   2.325  0.0378  0.8042  2.2011
 5510TIP3    H216495   5.931   6.719   2.364 -0.2161  0.7646  1.3481
 5511TIP3   OH216496   2.860   1.728   3.473 -0.4962  0.2923  0.2940
 5511TIP3    H116497   2.774   1.701   3.506 -0.1832  1.1481  1.9229
 5511TIP3    H216498   2.922   1.702   3.541  0.2798  1.5059  0.0946
 5512TIP3   OH216499   6.531   3.984   3.698 -0.3799 -0.1593  0.3982
 5512TIP3    H116500   6.571   3.925   3.634 -2.3528  0.1566 -1.2467
 5512TIP3    H216501   6.475   3.927   3.751 -1.0296 -0.0382 -0.1347
 5513TIP3   OH216502   3.976   6.327   3.885 -0.5697 -0.0939 -0.3635
 5513TIP3    H116503   4.027   6.330   3.966 -0.7344 -0.9979 -0.2129
 5513TIP3    H216504   4.035   6.362   3.818 -0.1528 -0.0791  0.0065
 5514TIP3   OH216505   2.532   0.868   4.722 -0.2990  0.0758 -0.2161
 5514TIP3    H116506   2.485   0.947   4.696 -2.4981 -1.4290 -1.0920
 5514TIP3    H216507   2.623   0.885   4.699 -0.6162  2.5165  0.1144
 5515TIP3   OH216508   5.089   0.828   4.665  0.3393  0.1211 -0.1582
 5515TIP3    H116509   5.147   0.760   4.630  1.2078  0.8691 -0.2016
 5515TIP3    H216510   5.138   0.909   4.654  0.2322  0.5061  1.8842
 5516TIP3   OH216511   0.322   2.453   5.740  0.2543  0.2813  0.2306
 5516TIP3    H116512   0.368   2.483   5.818  1.4143  1.0036 -0.7048
 5516TIP3    H216513   0.391   2.428   5.679 -0.6252 -0.0779 -0.6452
 5517TIP3   OH216514   6.666   5.124   2.732  0.1019 -0.5910  0.3710
 5517TIP3    H116515   6.631   5.062   2.795  0.1296 -0.2855  0.6886
 5517TIP3    H216516   6.592   5.181   2.710 -0.1486 -1.2719 -0.5780
 5518TIP3   OH216517   4.238   6.670   2.255 -0.3771 -0.1233  0.5002
 5518TIP3    H116518   4.316   6.636   2.299  0.8917 -1.2980 -2.3596
 5518TIP3    H216519   4.208   6.597   2.200  0.6710  2.2188 -3.6574
 5519TIP3   OH216520   0.516   4.507   4.894 -0.4423  0.2423  0.3698
 5519TIP3    H116521   0.440   4.451   4.879 -1.4844  1.9108 -0.9902
 5519TIP3    H216522   0.508   4.533   4.986 -1.3448  0.1231  0.3404
 5520TIP3   OH216523   1.360   3.631   1.042 -0.3146 -0.2282  0.1207
 5520TIP3    H116524   1.302   3.558   1.060 -1.4635  0.4952 -0.5155
 5520TIP3    H216525   1.373   3.629   0.947  0.4784 -0.2089  0.2206
 5521TIP3   OH216526   6.979   3.417   0.785 -0.4614  0.5343  0.9139
 5521TIP3    H116527   7.067   3.442   0.814  0.5823 -2.8314  0.9972
 5521TIP3    H216528   6.978   3.432   0.691 -0.0167  1.1146  1.0008
 5522TIP3   OH216529   1.420   5.960   0.244  0.8783 -0.5847  0.0015
 5522TIP3    H116530   1.512   5.940   0.228  1.1188  0.6967 -0.3366
 5522TIP3    H216531   1.419   6.053   0.265 -0.2663 -0.7343  0.7120
 5523TIP3   OH216532   6.010   4.351   5.781  0.2490 -0.6238 -0.2870
 5523TIP3    H116533   5.937   4.325   5.724  0.4537 -0.5522 -0.5834
 5523TIP3    H216534   6.064   4.272   5.788 -0.6023 -1.1143  1.1001
 5524TIP3   OH216535   5.044   3.701   0.051 -0.1534 -0.2512  0.0103
 5524TIP3    H116536   5.125   3.736   0.088  0.0424  0.6570 -1.1738
 5524TIP3    H216537   5.066   3.684  -0.041 -1.2791 -0.0618 -0.3060
 5525TIP3   OH216538   4.879   5.121   4.585  0.1495  0.3052 -0.6522
 5525TIP3    H116539   4.928   5.160   4.512  1.1214 -0.1060 -0.2504
 5525TIP3    H216540   4.892   5.182   4.658 -0.5222  0.5402 -0.7322
 5526TIP3   OH216541   2.788   1.514   4.323  0.0524  0.2313  0.3837
 5526TIP3    H116542   2.742   1.513   4.239  2.5022 -0.9655 -1.0289
 5526TIP3    H216543   2.830   1.600   4.326  4.0946 -1.3345 -2.1990
 5527TIP3   OH216544   4.441   6.554   4.736 -0.0185 -0.3964  0.0761
 5527TIP3    H116545   4.354   6.560   4.696  0.5531 -1.8491 -1.4954
 5527TIP3    H216546   4.424   6.524   4.825 -1.3770  3.5084  1.3188
 5528TIP3   OH216547   1.596   0.358   4.923 -0.2350  0.2426  0.3346
 5528TIP3    H116548   1.647   0.349   5.003  2.1675 -1.1787 -1.2089
 5528TIP3    H216549   1.589   0.269   4.889 -0.2770  0.8925 -1.5042
 5529TIP3   OH216550   3.807   3.132   1.063 -0.2142 -0.1193  0.1394
 5529TIP3    H116551   3.814   3.227   1.073 -3.7326  0.2415  0.4549
 5529TIP3    H216552   3.783   3.101   1.150  0.3467 -1.2550 -0.1002
 5530TIP3   OH216553   3.990   3.477   5.344  0.0191  0.3741  0.0509
 5530TIP3    H116554   4.062   3.415   5.355 -0.4150  0.0440  1.2886
 5530TIP3    H216555   3.912   3.421   5.339 -0.1794  0.7235 -1.2554
 5531TIP3   OH216556   3.849   3.598   3.994 -0.1424  0.8076 -0.1504
 5531TIP3    H116557   3.881   3.581   4.083 -2.5562 -0.6626  0.5348
 5531TIP3    H216558   3.802   3.518   3.970  0.4857  1.1570 -2.8069
 5532TIP3   OH216559   4.049   6.228   5.032 -0.1993 -0.2884 -0.1977
 5532TIP3    H116560   4.001   6.310   5.038  1.0376  0.5226 -0.9588
 5532TIP3    H216561   4.014   6.185   4.953  0.9849  0.7818 -1.3530
 5533TIP3   OH216562   5.217   0.357   1.150  0.1511  0.2610  0.1866
 5533TIP3    H116563   5.222   0.277   1.098  1.1762  0.5124 -0.1288
 5533TIP3    H216564   5.166   0.417   1.096 -2.6950 -0.8784  1.4241
 5534TIP3   OH216565   2.513   0.571   4.451 -0.0940 -0.5175 -0.0812
 5534TIP3    H116566   2.454   0.611   4.515  0.4567 -0.8138  0.6209
 5534TIP3    H216567   2.509   0.478   4.471  0.6720 -0.5315  0.0298
 5535TIP3   OH216568   1.205   6.569   2.998  0.1909 -0.2571 -0.3507
 5535TIP3    H116569   1.167   6.496   3.047  0.5756  0.3441  0.8870
 5535TIP3    H216570   1.282   6.532   2.956  1.1811 -0.2966  1.3879
 5536TIP3   OH216571   5.820   2.145   1.463 -0.3023  0.3933  0.4257
 5536TIP3    H116572   5.809   2.053   1.490  1.4826  0.0054 -0.0066
 5536TIP3    H216573   5.769   2.195   1.526  0.9996 -0.7197  2.4831
 5537TIP3   OH216574   5.923   0.144   5.282  0.4726  0.0643 -0.5013
 5537TIP3    H116575   5.829   0.130   5.296  0.5654  0.0644  0.1538
 5537TIP3    H216576   5.947   0.080   5.215  0.1680 -0.4853 -0.0931
 5538TIP3   OH216577   1.505   2.567   0.579  0.1697  0.4870 -0.3412
 5538TIP3    H116578   1.582   2.556   0.636 -0.2157  0.2199  0.1353
 5538TIP3    H216579   1.481   2.659   0.589 -0.2681  0.3012  0.4266
 5539TIP3   OH216580   4.761   1.834   2.238  0.3793 -0.8528  0.4205
 5539TIP3    H116581   4.799   1.851   2.324  0.4474 -1.1345  0.4459
 5539TIP3    H216582   4.808   1.758   2.205  0.5248 -0.5965  0.0247
 5540TIP3   OH216583   5.171   3.466   5.354 -0.3863  0.1555  0.2845
 5540TIP3    H116584   5.158   3.561   5.343 -0.0929  0.2581  0.8289
 5540TIP3    H216585   5.169   3.452   5.448  2.9198  0.1069  0.4428
 5541TIP3   OH216586   1.083   5.429   3.187 -0.4378 -0.3797  0.2785
 5541TIP3    H116587   1.018   5.498   3.203 -1.8734 -1.5917 -0.1137
 5541TIP3    H216588   1.060   5.395   3.101  0.4749 -1.1075  0.3177
 5542TIP3   OH216589   0.200   4.259   3.978  0.3134  0.1069  0.0779
 5542TIP3    H116590   0.188   4.332   4.039  0.4697  2.3660 -2.4205
 5542TIP3    H216591   0.294   4.242   3.979  0.3400  0.2643  0.2993
 5543TIP3   OH216592   1.932   6.541   2.135 -0.0317 -0.0263 -0.5658
 5543TIP3    H116593   1.854   6.492   2.108  0.6685 -0.9459 -0.9902
 5543TIP3    H216594   1.908   6.633   2.123 -1.6002 -0.2144  0.8699
 5544TIP3   OH216595   4.659   3.365   1.141 -0.3383 -0.8423  0.4434
 5544TIP3    H116596   4.618   3.445   1.108  0.4005 -1.2430 -1.6106
 5544TIP3    H216597   4.585   3.306   1.160 -0.8380 -1.2386 -2.3504
 5545TIP3   OH216598   3.018   2.796   2.497 -0.1761  0.1047  0.3068
 5545TIP3    H116599   2.933   2.764   2.467 -0.0470  0.1628 -0.1219
 5545TIP3    H216600   3.026   2.884   2.459  0.2539 -0.0607  0.0070
 5546TIP3   OH216601   1.935   6.060   4.152 -0.2017  0.4888  0.1485
 5546TIP3    H116602   2.029   6.047   4.167  0.2296 -1.0915 -3.1683
 5546TIP3    H216603   1.927   6.154   4.133  0.7141  0.6133  0.3278
 5547TIP3   OH216604   4.350   1.124   5.541 -0.1899 -0.0415 -0.7054
 5547TIP3    H116605   4.283   1.130   5.609 -0.5362  0.8300 -1.1050
 5547TIP3    H216606   4.428   1.090   5.586 -0.5931 -0.0564 -0.0156
 5548TIP3   OH216607   5.253   4.512   5.454 -0.6333 -0.0396 -0.0012
 5548TIP3    H116608   5.329   4.527   5.510 -0.8181 -0.8031  0.4862
 5548TIP3    H216609   5.288   4.511   5.365 -0.3043  1.0235  0.1098
 5549TIP3   OH216610   3.364   3.598   4.208 -0.4020 -0.1358 -0.2043
 5549TIP3    H116611   3.443   3.557   4.174  0.2714  1.0828 -0.1935
 5549TIP3    H216612   3.366   3.687   4.173 -1.3104  0.1923  0.5090
 5550TIP3   OH216613   3.604   4.543   1.484  0.0779  0.7238 -0.1381
 5550TIP3    H116614   3.617   4.616   1.544 -1.5212  1.1578 -0.2807
 5550TIP3    H216615   3.542   4.576   1.419  0.1268 -0.4350 -0.8043
 5551TIP3   OH216616   5.091   5.163   0.290  0.1781  0.1128  0.1114
 5551TIP3    H116617   5.128   5.127   0.372  1.1782  0.9748  0.0582
 5551TIP3    H216618   5.048   5.244   0.316  1.6592  1.1009 -0.3788
 5552TIP3   OH216619   5.986   5.643   5.573  0.0012 -0.5257  0.5768
 5552TIP3    H116620   6.055   5.673   5.514  0.2058 -0.3990  0.8833
 5552TIP3    H216621   5.905   5.663   5.526  0.0902  1.3420  1.1296
 5553TIP3   OH216622   2.501   0.451   1.537  0.5115  0.5858 -0.1543
 5553TIP3    H116623   2.477   0.425   1.626  0.1315 -1.5229 -0.8145
 5553TIP3    H216624   2.597   0.456   1.539  0.6377 -1.2402 -0.0231
 5554TIP3   OH216625   2.623   6.557   0.132  0.2294 -0.6900  0.1595
 5554TIP3    H116626   2.600   6.542   0.224  2.4703  1.4239  1.1769
 5554TIP3    H216627   2.675   6.481   0.108 -2.1929 -2.3528 -0.1570
 5555TIP3   OH216628   6.332   2.154   4.909 -0.1059 -0.5448  0.4530
 5555TIP3    H116629   6.384   2.111   4.841  0.6182 -0.2656  0.8218
 5555TIP3    H216630   6.261   2.196   4.861  1.0420  0.6363 -0.2815
 5556TIP3   OH216631   5.164   4.503   0.113 -0.1432 -0.2775  0.0335
 5556TIP3    H116632   5.236   4.493   0.051 -0.4999  1.1411 -0.6398
 5556TIP3    H216633   5.095   4.545   0.062 -0.9580 -0.3799  1.0371
 5557TIP3   OH216634   3.280   4.003   3.505 -0.4499  0.2796  0.0206
 5557TIP3    H116635   3.186   4.021   3.510 -0.4973 -0.1139  0.6170
 5557TIP3    H216636   3.286   3.908   3.503  0.0050  0.2350  1.9260
 5558TIP3   OH216637   2.115   5.175   1.385 -0.4700  0.5435  0.2400
 5558TIP3    H116638   2.102   5.162   1.479 -2.9365 -1.8471 -0.3069
 5558TIP3    H216639   2.032   5.211   1.354 -0.2750 -0.1751 -1.2363
 5559TIP3   OH216640   4.698   3.730   5.058  0.0183  0.4983 -0.0810
 5559TIP3    H116641   4.618   3.782   5.064 -1.1671 -1.1963 -0.4726
 5559TIP3    H216642   4.690   3.682   4.976  0.6402 -0.9400  0.6540
 5560TIP3   OH216643   5.871   2.018   4.782 -0.4789  0.3360 -0.2484
 5560TIP3    H116644   5.923   1.946   4.747  0.0404 -0.1759  1.4857
 5560TIP3    H216645   5.800   1.975   4.830 -0.1177  0.9716  0.8743
 5561TIP3   OH216646   2.167   5.619   0.074 -0.4010  0.1670  0.1900
 5561TIP3    H116647   2.104   5.633   0.004 -0.1174  1.6196  0.2073
 5561TIP3    H216648   2.249   5.656   0.042 -0.1519  0.4310  1.1060
 5562TIP3   OH216649   2.272   2.577   0.214 -0.1182 -0.3502  0.3111
 5562TIP3    H116650   2.207   2.643   0.238 -0.7363 -0.9655  0.3478
 5562TIP3    H216651   2.293   2.533   0.296  0.2091 -0.2817  0.2674
 5563TIP3   OH216652   7.041   2.051   1.188 -0.7179  0.0509  0.2741
 5563TIP3    H116653   7.085   2.061   1.103 -1.9215 -2.1271 -0.6859
 5563TIP3    H216654   7.102   1.998   1.239 -1.2779 -1.2091 -0.3291
 5564TIP3   OH216655   1.555   2.687   3.176 -0.4743 -0.1428  0.2231
 5564TIP3    H116656   1.533   2.594   3.183 -0.4091 -0.0571  1.8426
 5564TIP3    H216657   1.605   2.706   3.254 -0.5399  1.2862 -0.0535
 5565TIP3   OH216658   6.007   5.757   1.217 -0.2864  0.5091  0.1944
 5565TIP3    H116659   5.962   5.832   1.256 -0.9619 -0.2391  0.8924
 5565TIP3    H216660   6.019   5.696   1.290 -1.4994 -0.8895 -0.7435
 5566TIP3   OH216661   6.221   3.436   3.323 -0.1245  0.2536 -0.0961
 5566TIP3    H116662   6.139   3.455   3.278 -0.3838  0.6275  0.5272
 5566TIP3    H216663   6.264   3.522   3.331 -0.5498  0.3596  1.2754
 5567TIP3   OH216664   7.143   0.010   3.211  0.0001 -0.0827 -0.1269
 5567TIP3    H116665   7.161   0.104   3.204 -1.9634  0.4370  0.8930
 5567TIP3    H216666   7.126  -0.004   3.304 -1.8571 -0.9869 -0.5485
 5568TIP3   OH216667   2.646   3.767   4.727 -0.8155  0.1574  0.0107
 5568TIP3    H116668   2.612   3.821   4.798 -1.8024 -0.3738 -0.0383
 5568TIP3    H216669   2.598   3.795   4.650 -2.1393 -1.4934  0.1796
 5569TIP3   OH216670   0.415   5.185   4.145  0.5279 -0.5495 -0.3542
 5569TIP3    H116671   0.387   5.183   4.236  0.3051 -1.7081 -0.4306
 5569TIP3    H216672   0.347   5.136   4.098  0.1931  0.7183 -1.2863
 5570TIP3   OH216673   7.138   6.101   0.467 -0.7393  0.3996  0.3091
 5570TIP3    H116674   7.114   6.063   0.382 -0.8786  0.8912  0.1184
 5570TIP3    H216675   7.166   6.027   0.520  0.2435  0.1897 -0.4692
 5571TIP3   OH216676   1.221   3.424   1.472 -0.5388  0.7093 -0.0757
 5571TIP3    H116677   1.272   3.484   1.527  0.0022  1.1898 -1.0762
 5571TIP3    H216678   1.241   3.451   1.383 -0.0502 -1.1232 -0.5681
 5572TIP3   OH216679   0.146   4.090   2.810  0.0902 -0.4909 -0.1970
 5572TIP3    H116680   0.082   4.077   2.739  2.1015 -0.5453 -2.1188
 5572TIP3    H216681   0.114   4.167   2.857 -1.6423 -0.8152 -0.7860
 5573TIP3   OH216682   4.872   3.598   4.070 -0.0372 -1.0132  0.1128
 5573TIP3    H116683   4.862   3.509   4.038  1.8631 -2.2063  2.5027
 5573TIP3    H216684   4.952   3.596   4.122  0.1821  2.1581  0.0981
 5574TIP3   OH216685   1.569   0.142   1.684 -0.0892  0.4611 -0.1794
 5574TIP3    H116686   1.492   0.089   1.665  0.1589  0.3710 -0.9565
 5574TIP3    H216687   1.613   0.095   1.755  0.1748 -0.4382 -0.9209
 5575TIP3   OH216688   0.617   2.169   5.150  0.2534 -0.0731 -0.1719
 5575TIP3    H116689   0.681   2.101   5.130  0.8857  0.5488 -0.2821
 5575TIP3    H216690   0.537   2.141   5.104  1.2061  0.4926 -2.2731
 5576TIP3   OH216691   2.636   6.182   2.530  0.0429 -0.7154  0.0924
 5576TIP3    H116692   2.688   6.210   2.605  0.0216 -0.8338  0.1521
 5576TIP3    H216693   2.555   6.232   2.538 -0.1003 -0.9852  0.3447
 5577TIP3   OH216694   0.276   2.361   5.009 -0.1622  0.2008 -0.5049
 5577TIP3    H116695   0.271   2.389   5.101  0.2887  0.5608 -0.5850
 5577TIP3    H216696   0.345   2.294   5.009 -0.4318 -0.0749 -0.5131
 5578TIP3   OH216697   5.218   2.133   4.105 -0.1719 -0.4125 -0.3998
 5578TIP3    H116698   5.228   2.113   4.012 -1.4195  0.0855 -0.6603
 5578TIP3    H216699   5.127   2.160   4.114 -0.3208 -1.3167  1.1408
 5579TIP3   OH216700   6.741   4.377   0.409  0.5148 -0.0462 -0.9313
 5579TIP3    H116701   6.732   4.289   0.445 -3.0293  0.3447 -0.5082
 5579TIP3    H216702   6.825   4.408   0.442  0.3619 -2.0660  1.6988
 5580TIP3   OH216703   4.347   3.985   1.355 -0.2367  0.0169  0.1383
 5580TIP3    H116704   4.397   3.939   1.422  0.7333  0.9252  0.0611
 5580TIP3    H216705   4.342   4.075   1.386 -2.2471 -0.1254  0.3645
 5581TIP3   OH216706   1.858   1.460   1.225 -0.0423 -0.2319  0.4191
 5581TIP3    H116707   1.866   1.384   1.283 -3.7980  0.0635  1.5603
 5581TIP3    H216708   1.834   1.423   1.140  2.1250 -0.4483 -0.1671
 5582TIP3   OH216709   3.649   1.689   0.862 -0.4175 -0.0061  0.1833
 5582TIP3    H116710   3.647   1.784   0.868  1.8248  0.0795  0.7377
 5582TIP3    H216711   3.707   1.671   0.788  2.0234 -0.8355  2.1501
 5583TIP3   OH216712   5.465   6.191   3.277 -0.0320  0.1566  0.2149
 5583TIP3    H116713   5.416   6.273   3.287 -1.5617 -0.8449  1.2349
 5583TIP3    H216714   5.416   6.141   3.212 -0.7389 -1.0824  1.6432
 5584TIP3   OH216715   0.820   2.077   3.410  0.1576 -0.1056  0.2166
 5584TIP3    H116716   0.797   2.011   3.344  1.5634  0.6215 -1.0859
 5584TIP3    H216717   0.739   2.094   3.457 -1.2544  0.2481 -2.1951
 5585TIP3   OH216718   4.257   4.384   1.704 -0.6451 -0.7362 -0.4672
 5585TIP3    H116719   4.301   4.426   1.778  0.0644 -2.4437  0.1245
 5585TIP3    H216720   4.279   4.440   1.629  0.7342 -0.3526  0.1872
 5586TIP3   OH216721   2.955   2.698   4.271  0.2403 -0.1941  0.0721
 5586TIP3    H116722   3.018   2.759   4.309  1.9543 -0.5996 -1.9280
 5586TIP3    H216723   2.966   2.709   4.176 -1.8224 -1.2038 -0.3408
 5587TIP3   OH216724   1.732   2.273   3.164 -0.0477 -0.7903  0.8340
 5587TIP3    H116725   1.811   2.294   3.215 -1.1929  0.0487  2.3470
 5587TIP3    H216726   1.714   2.181   3.183  0.4383 -0.9320  0.6299
 5588TIP3   OH216727   1.352   5.333   0.470  0.0538 -0.3783  0.1927
 5588TIP3    H116728   1.305   5.255   0.499 -0.7318  0.3343  0.8948
 5588TIP3    H216729   1.340   5.396   0.541  1.7322 -0.0202  0.2073
 5589TIP3   OH216730   3.674   5.904   2.765  0.2700 -0.0739  0.0082
 5589TIP3    H116731   3.740   5.948   2.712  0.4599 -1.3338 -0.8337
 5589TIP3    H216732   3.590   5.927   2.724  0.3082  0.1185  0.0368
 5590TIP3   OH216733   6.459   2.411   0.470 -0.7416  0.1665  0.4751
 5590TIP3    H116734   6.374   2.367   0.468  0.7463 -2.9396 -0.5871
 5590TIP3    H216735   6.490   2.408   0.380  0.8657  0.5125  0.9916
 5591TIP3   OH216736   1.351   0.746   2.257  0.0962  0.7233  0.2358
 5591TIP3    H116737   1.372   0.791   2.339  1.8949  0.6195 -0.1359
 5591TIP3    H216738   1.330   0.817   2.196  0.0702  0.8762  0.4204
 5592TIP3   OH216739   1.369   6.344   2.596 -0.1775  0.1141  0.1910
 5592TIP3    H116740   1.406   6.421   2.552 -0.7934  0.3444  0.0609
 5592TIP3    H216741   1.439   6.279   2.594 -0.2172  0.0818 -1.2368
 5593TIP3   OH216742   1.062   3.886   3.477 -0.1700 -0.3779  0.1597
 5593TIP3    H116743   0.994   3.922   3.420  1.6253  1.1885 -1.1286
 5593TIP3    H216744   1.072   3.795   3.447 -0.9541 -0.3056 -0.3507
 5594TIP3   OH216745   0.907   1.021   2.733 -0.4064 -0.2307  0.4139
 5594TIP3    H116746   0.882   0.937   2.771  1.9366 -1.0630  0.2787
 5594TIP3    H216747   0.841   1.037   2.665 -1.5091 -1.4054  1.1551
 5595TIP3   OH216748   0.507   6.613   0.650  0.0346  0.5491 -0.2476
 5595TIP3    H116749   0.512   6.652   0.563  0.7371  0.5525 -0.2095
 5595TIP3    H216750   0.583   6.556   0.656  0.3094  0.9801  0.5732
 5596TIP3   OH216751   2.846   4.360   3.947  0.2640 -0.6243 -0.2856
 5596TIP3    H116752   2.794   4.440   3.958  0.4271 -0.4343 -0.8760
 5596TIP3    H216753   2.932   4.392   3.918  0.0845 -1.0598 -1.3257
 5597TIP3   OH216754   5.768   2.794   3.305 -0.3202  0.2350 -0.0427
 5597TIP3    H116755   5.703   2.823   3.240  0.5383  1.2419 -0.4777
 5597TIP3    H216756   5.719   2.735   3.363 -1.4395  0.3947 -0.7935
 5598TIP3   OH216757   7.027   0.853   4.622  0.1458  0.1343  0.6327
 5598TIP3    H116758   6.969   0.906   4.567  1.3188  2.3883  1.4664
 5598TIP3    H216759   7.108   0.904   4.629  1.1649 -1.5340  1.9391
 5599TIP3   OH216760   6.007   0.801   3.024 -0.4636 -0.8404  0.2030
 5599TIP3    H116761   6.046   0.873   2.973 -0.9393  0.0248  1.0330
 5599TIP3    H216762   6.076   0.735   3.028  1.0276  0.7059  1.7358
 5600TIP3   OH216763   4.662   2.295   0.235 -0.0588 -0.2241  0.5722
 5600TIP3    H116764   4.752   2.263   0.237  0.4040  1.0064  2.4412
 5600TIP3    H216765   4.610   2.219   0.212  1.4075 -1.0857 -0.0337
 5601TIP3   OH216766   6.162   3.618   4.409 -0.0861 -0.3217 -0.0831
 5601TIP3    H116767   6.152   3.698   4.357 -0.3494 -0.9796 -1.0689
 5601TIP3    H216768   6.095   3.626   4.476 -1.0444 -0.3366 -1.0058
 5602TIP3   OH216769   2.541   2.415   0.883  0.2130 -0.0827 -0.0068
 5602TIP3    H116770   2.567   2.499   0.922  0.2688  0.0135 -0.2489
 5602TIP3    H216771   2.594   2.408   0.803 -0.0558 -0.1753 -0.1799
 5603TIP3   OH216772   0.867   4.185   4.945  0.1604 -0.2040  0.2386
 5603TIP3    H116773   0.906   4.124   4.882 -2.1760 -1.5640 -0.0041
 5603TIP3    H216774   0.831   4.256   4.891 -0.5034 -0.5887  0.1734
 5604TIP3   OH216775   6.966   4.082   1.211 -0.2928 -0.2318  0.0357
 5604TIP3    H116776   6.952   4.147   1.279 -1.1982  0.8872 -1.1736
 5604TIP3    H216777   6.952   4.130   1.129  0.7688 -1.5285 -0.9483
 5605TIP3   OH216778   5.958   5.170   1.461  0.4854  0.5032 -0.3976
 5605TIP3    H116779   5.955   5.079   1.492  1.9859  0.8015  0.7535
 5605TIP3    H216780   5.988   5.163   1.370 -2.2116 -0.2815 -1.3080
 5606TIP3   OH216781   4.496   4.233   5.131 -0.5388 -0.3381 -0.0443
 5606TIP3    H116782   4.559   4.242   5.203  1.2933  0.8145 -1.6867
 5606TIP3    H216783   4.452   4.318   5.128 -1.6205 -0.8678  0.5863
 5607TIP3   OH216784   0.665   1.783   4.989 -0.0986  0.1862  0.0668
 5607TIP3    H116785   0.631   1.694   4.983 -1.2611  0.5102  1.2002
 5607TIP3    H216786   0.710   1.787   5.074  1.9068  0.0809 -0.9474
 5608TIP3   OH216787   6.874   3.535   3.780  0.2791  0.5879  0.4130
 5608TIP3    H116788   6.894   3.497   3.866 -0.4754 -0.8468 -0.0150
 5608TIP3    H216789   6.951   3.589   3.760  0.7217  0.4968  1.7193
 5609TIP3   OH216790   3.111   5.492   1.935 -0.0719 -0.4695  0.1567
 5609TIP3    H116791   3.042   5.558   1.946 -0.2267 -0.6321  0.1599
 5609TIP3    H216792   3.157   5.491   2.018 -0.4310 -0.7761  0.3550
 5610TIP3   OH216793   6.512   4.982   0.113  0.1760  0.0962 -0.5492
 5610TIP3    H116794   6.463   4.982   0.195 -1.2791  0.7025 -1.3811
 5610TIP3    H216795   6.598   5.017   0.136 -0.4800  1.0542  0.5724
 5611TIP3   OH216796   3.127   5.686   0.065 -0.8762 -0.3251 -0.5991
 5611TIP3    H116797   3.206   5.657   0.111 -0.2100 -1.1498 -2.1714
 5611TIP3    H216798   3.055   5.646   0.114 -0.2870 -0.0979  0.4783
 5612TIP3   OH216799   3.802   4.024   4.260 -0.3292  0.0368  0.1791
 5612TIP3    H116800   3.853   4.085   4.207  0.0605  1.4208  2.0513
 5612TIP3    H216801   3.719   4.016   4.213  0.4673  0.1378 -1.3239
 5613TIP3   OH216802   5.822   3.382   3.062  0.1902  0.2399  0.5764
 5613TIP3    H116803   5.849   3.424   2.981  0.9680  0.0848  0.7444
 5613TIP3    H216804   5.768   3.448   3.106 -0.7450  0.0993 -0.3321
 5614TIP3   OH216805   1.217   1.726   4.239  0.0594 -0.1547  0.2059
 5614TIP3    H116806   1.184   1.815   4.254  0.9023 -0.0256  1.4197
 5614TIP3    H216807   1.296   1.739   4.187 -0.5690 -0.3090 -0.8098
 5615TIP3   OH216808   5.568   1.646   2.124 -0.5557 -0.0469 -0.1820
 5615TIP3    H116809   5.520   1.703   2.184 -0.3723  0.0184 -0.0966
 5615TIP3    H216810   5.638   1.609   2.177  0.6084  1.2517 -0.7312
 5616TIP3   OH216811   5.097   0.247   1.896  0.1714 -0.1376  0.0709
 5616TIP3    H116812   5.114   0.339   1.877  0.5308  0.1456  1.6219
 5616TIP3    H216813   5.005   0.244   1.923  0.3833 -0.0931  0.8068
 5617TIP3   OH216814   2.514   0.029   0.497 -0.2385 -0.2427  0.0508
 5617TIP3    H116815   2.475   0.116   0.500  0.4399  0.0737 -0.2050
 5617TIP3    H216816   2.602   0.040   0.532  0.1013 -0.6909 -0.6410
 5618TIP3   OH216817   0.609   1.816   5.279 -0.5585  0.1451  0.1967
 5618TIP3    H116818   0.601   1.896   5.332 -0.2943  0.3249 -0.0318
 5618TIP3    H216819   0.703   1.805   5.266 -0.6641  0.8247 -1.3180
 5619TIP3   OH216820   0.733   6.413   0.167 -0.2353 -0.2746 -0.1587
 5619TIP3    H116821   0.772   6.491   0.206  0.1771  0.0978 -1.2629
 5619TIP3    H216822   0.731   6.432   0.073 -1.9720 -0.7900 -0.2612
 5620TIP3   OH216823   3.627   2.672   4.479  0.0518  0.3607  0.1284
 5620TIP3    H116824   3.694   2.704   4.539  0.6899  0.1641 -0.4598
 5620TIP3    H216825   3.672   2.606   4.426 -0.9188 -0.6315  0.4998
 5621TIP3   OH216826   3.391   2.684   3.728  0.1807  0.1286  0.6077
 5621TIP3    H116827   3.395   2.603   3.780  0.5547 -1.0215 -1.1116
 5621TIP3    H216828   3.313   2.673   3.674  0.3478  0.8499  0.2105
 5622TIP3   OH216829   6.319   2.871   4.858  0.3714 -0.1556  0.5358
 5622TIP3    H116830   6.410   2.875   4.830  0.1304  2.3427 -0.0814
 5622TIP3    H216831   6.275   2.823   4.787  1.0995 -0.9804  0.6212
 5623TIP3   OH216832   4.277   3.206   4.771 -0.4617  0.6377  0.2860
 5623TIP3    H116833   4.292   3.199   4.866 -0.0202  1.5666  0.2895
 5623TIP3    H216834   4.326   3.132   4.735  2.6781  2.4469  0.4788
 5624TIP3   OH216835   6.453   3.337   4.354 -0.7567 -0.3870  0.1900
 5624TIP3    H116836   6.493   3.345   4.267 -1.0665  0.7883  0.1423
 5624TIP3    H216837   6.401   3.257   4.349 -0.8263 -0.2914 -0.7304
 5625TIP3   OH216838   5.653   4.682   0.834  0.5828 -0.1829 -0.0788
 5625TIP3    H116839   5.573   4.681   0.781 -0.4252  0.5417  1.3659
 5625TIP3    H216840   5.685   4.772   0.828  2.0823 -0.7589 -1.7062
 5626TIP3   OH216841   1.483   5.816   1.680  0.0014 -0.6178  0.2000
 5626TIP3    H116842   1.416   5.870   1.722  1.0226  0.0631  1.0116
 5626TIP3    H216843   1.477   5.837   1.587 -1.3949 -1.1285  0.1558
 5627TIP3   OH216844   2.963   3.692   5.511 -0.5961 -0.1388  0.2842
 5627TIP3    H116845   2.999   3.742   5.584 -0.2102  0.4470 -0.2985
 5627TIP3    H216846   2.996   3.736   5.433 -0.8961 -0.8344 -0.2470
 5628TIP3   OH216847   1.817   2.944   2.220 -0.2648  0.1012  0.4488
 5628TIP3    H116848   1.760   2.881   2.265  1.2387 -2.1060 -0.5889
 5628TIP3    H216849   1.782   2.949   2.131 -0.9076  1.4805  0.7538
 5629TIP3   OH216850   4.153   3.518   1.826 -0.2787  0.2786  0.3730
 5629TIP3    H116851   4.223   3.455   1.840  0.5739  0.6982 -1.5839
 5629TIP3    H216852   4.196   3.603   1.831 -1.1021  0.6455  1.3852
 5630TIP3   OH216853   4.901   3.840   1.885  0.0987 -0.2605 -0.4298
 5630TIP3    H116854   4.962   3.772   1.856  0.5592  0.4695 -1.2177
 5630TIP3    H216855   4.924   3.917   1.833 -0.2160  0.5960  0.6624
 5631TIP3   OH216856   3.745   0.618   4.595 -0.3464 -0.0741 -0.2558
 5631TIP3    H116857   3.661   0.622   4.640 -0.2540  1.5925 -0.1855
 5631TIP3    H216858   3.793   0.549   4.641 -0.9069  0.3865  1.0686
 5632TIP3   OH216859   1.585   4.137   5.588 -0.7122  0.0332 -0.3377
 5632TIP3    H116860   1.660   4.166   5.640 -0.5113 -2.6479  1.0311
 5632TIP3    H216861   1.541   4.218   5.562  0.6401  1.5769  1.8323
 5633TIP3   OH216862   5.999   2.435   5.708  0.1991 -0.2034 -0.5736
 5633TIP3    H116863   6.012   2.469   5.620  0.0521 -0.9130 -0.8762
 5633TIP3    H216864   5.907   2.456   5.728  0.6848  1.4771  0.0992
 5634TIP3   OH216865   0.553   4.546   4.132 -0.1395  0.6726 -0.1557
 5634TIP3    H116866   0.544   4.499   4.050 -0.8995  1.4046 -0.4977
 5634TIP3    H216867   0.486   4.613   4.130  0.3361  1.2036  0.7242
 5635TIP3   OH216868   4.969   3.135   4.153  0.2011 -0.1674  0.3038
 5635TIP3    H116869   5.064   3.139   4.159  0.1471 -1.0135  2.8475
 5635TIP3    H216870   4.938   3.141   4.244 -2.1956  0.2811 -0.4506
 5636TIP3   OH216871   1.931   6.416   0.433 -1.0222 -0.2451  0.3383
 5636TIP3    H116872   1.845   6.456   0.444 -1.7211 -0.5597 -2.9715
 5636TIP3    H216873   1.991   6.491   0.432 -1.1688 -0.0385  2.8492
 5637TIP3   OH216874   3.379   6.351   4.104  0.0351  0.2088 -0.0175
 5637TIP3    H116875   3.336   6.424   4.150  2.2404  1.1335  0.7393
 5637TIP3    H216876   3.404   6.291   4.174  0.8582  0.2043 -0.3075
 5638TIP3   OH216877   2.039   3.318   1.519  0.2474 -0.0073 -0.5390
 5638TIP3    H116878   1.952   3.284   1.539 -0.2829  2.0313  0.8030
 5638TIP3    H216879   2.029   3.357   1.432  0.5438 -2.0068 -1.5368
 5639TIP3   OH216880   4.416   5.255   0.705 -0.7914 -0.2537 -0.1322
 5639TIP3    H116881   4.368   5.277   0.625 -0.7737 -0.1757 -0.1215
 5639TIP3    H216882   4.372   5.305   0.773 -1.3356 -0.9556  0.0512
 5640TIP3   OH216883   2.575   4.941   5.405 -0.6799 -0.4838 -0.0982
 5640TIP3    H116884   2.584   5.032   5.376  1.2068 -0.8733 -0.9133
 5640TIP3    H216885   2.634   4.934   5.480 -1.0387 -0.9696  0.1449
 5641TIP3   OH216886   6.383   6.570   4.033 -0.0280 -0.5656  0.0276
 5641TIP3    H116887   6.460   6.586   3.979 -0.0499  0.6854  0.3470
 5641TIP3    H216888   6.320   6.529   3.973  0.0660  0.4912 -0.8339
 5642TIP3   OH216889   2.755   5.954   5.428 -0.2319  0.4257 -0.0211
 5642TIP3    H116890   2.663   5.945   5.405  0.5095 -0.4073 -3.1043
 5642TIP3    H216891   2.767   5.896   5.504 -1.9319 -0.5602 -0.4507
 5643TIP3   OH216892   0.974   4.946   1.055  0.3730 -0.4380  0.1984
 5643TIP3    H116893   1.019   5.028   1.077 -0.7631  0.1727  0.2900
 5643TIP3    H216894   1.045   4.885   1.035  1.2134  0.7749 -0.6457
 5644TIP3   OH216895   3.134   4.274   1.553  0.0555 -0.8552 -0.0548
 5644TIP3    H116896   3.186   4.196   1.571 -0.2843 -1.0646  0.0315
 5644TIP3    H216897   3.195   4.347   1.565  1.0715 -1.1916 -2.5755
 5645TIP3   OH216898   0.285   3.453   3.957 -0.2077 -0.3832  0.2086
 5645TIP3    H116899   0.229   3.379   3.935 -0.0726 -0.3648 -0.2039
 5645TIP3    H216900   0.303   3.496   3.873  0.5128 -0.4594  0.3109
 5646TIP3   OH216901   0.610   4.964   4.207  0.3976 -0.0760  0.2472
 5646TIP3    H116902   0.635   5.030   4.272 -0.2811  0.8481 -0.4015
 5646TIP3    H216903   0.518   4.947   4.224  0.3909 -0.3453 -0.0408
 5647TIP3   OH216904   1.722   5.307   4.176  0.1081  0.1635  0.5547
 5647TIP3    H116905   1.733   5.399   4.198  1.2268 -0.0463  0.9567
 5647TIP3    H216906   1.789   5.289   4.110  0.6533 -0.6193  1.3014
 5648TIP3   OH216907   3.754   1.731   4.888  0.1166  0.3838 -0.2576
 5648TIP3    H116908   3.673   1.680   4.885 -0.4656  1.2678 -0.1377
 5648TIP3    H216909   3.727   1.817   4.921  1.2246  0.4847  0.4485
 5649TIP3   OH216910   2.145   2.415   1.279 -0.0002 -0.0934  0.4331
 5649TIP3    H116911   2.107   2.345   1.225 -0.7192  0.2895  0.4324
 5649TIP3    H216912   2.202   2.463   1.219  0.4132 -0.6060  0.4063
 5650TIP3   OH216913   1.710   4.548   3.198  0.0162 -0.5794 -0.5154
 5650TIP3    H116914   1.774   4.508   3.256 -0.2187 -0.5285 -0.2197
 5650TIP3    H216915   1.626   4.538   3.243 -0.0189  0.4372 -0.3274
 5651TIP3   OH216916   6.573   2.743   5.312 -0.1017 -0.1361 -0.0148
 5651TIP3    H116917   6.559   2.758   5.219 -0.2885  0.0578  0.0459
 5651TIP3    H216918   6.542   2.823   5.355 -1.2720 -0.7446  0.3210
 5652TIP3   OH216919   4.953   0.827   3.048  0.1033  0.2908  0.3684
 5652TIP3    H116920   5.032   0.795   3.090 -1.0090  0.0338  2.3784
 5652TIP3    H216921   4.965   0.922   3.044 -0.5363  0.5628  3.1200
 5653TIP3   OH216922   3.100   0.622   5.843 -0.0501 -0.5116  0.0010
 5653TIP3    H116923   3.147   0.555   5.794  0.1080  0.6168 -1.4707
 5653TIP3    H216924   3.015   0.630   5.798 -0.2284 -0.0282  0.4115
 5654TIP3   OH216925   0.117   5.495   1.910  0.1469  0.1959  0.0611
 5654TIP3    H116926   0.104   5.439   1.987 -1.4292  0.1639 -0.1945
 5654TIP3    H216927   0.061   5.571   1.925  1.9507  1.5509  0.2032
 5655TIP3   OH216928   4.713   2.742   5.011 -0.4830 -0.1609 -0.1221
 5655TIP3    H116929   4.734   2.810   5.076 -1.5366 -0.2426  0.3119
 5655TIP3    H216930   4.783   2.750   4.946  0.5770 -0.0488  0.9851
 5656TIP3   OH216931   4.540   0.467   1.696  0.8515 -0.8881 -0.2010
 5656TIP3    H116932   4.568   0.398   1.635  0.1341 -0.4389 -1.0706
 5656TIP3    H216933   4.461   0.502   1.656  0.0619 -0.9198  1.2777
 5657TIP3   OH216934   3.520   3.666   3.579  0.1803  0.2552  0.0921
 5657TIP3    H116935   3.570   3.717   3.515 -0.6756 -0.4786 -1.2000
 5657TIP3    H216936   3.429   3.687   3.561 -0.2819 -2.4651 -1.1995
 5658TIP3   OH216937   6.052   0.702   1.701  0.1273  0.2740  0.2949
 5658TIP3    H116938   5.999   0.646   1.757 -2.7829  2.4733 -0.0141
 5658TIP3    H216939   6.064   0.782   1.751  2.7963  0.1096  0.0812
 5659TIP3   OH216940   7.230   6.100   5.789 -0.3293 -0.7291 -0.4399
 5659TIP3    H116941   7.236   6.011   5.822  0.6711  0.0286  1.6039
 5659TIP3    H216942   7.160   6.141   5.840  1.2717  0.4839  0.9064
 5660TIP3   OH216943   5.201   1.864   3.586 -0.4045  0.0894 -0.2928
 5660TIP3    H116944   5.179   1.775   3.558  0.2163 -0.0058 -0.4993
 5660TIP3    H216945   5.259   1.852   3.661 -0.1391  0.3166 -0.4607
 5661TIP3   OH216946   1.671   6.787   5.139  0.8117 -0.1757 -0.3761
 5661TIP3    H116947   1.636   6.703   5.111  0.3477  0.1523 -0.7900
 5661TIP3    H216948   1.605   6.822   5.199  0.6606  0.2166 -0.7660
 5662TIP3   OH216949   5.920   5.902   5.187  0.3103  0.1456  0.6691
 5662TIP3    H116950   5.830   5.881   5.162  0.6071 -0.6834  0.2822
 5662TIP3    H216951   5.913   5.927   5.279  0.1578 -3.5555  1.8396
 5663TIP3   OH216952   4.097   3.549   3.429  0.3007  0.0653 -0.6778
 5663TIP3    H116953   4.008   3.528   3.458  0.9975 -0.8600  0.9334
 5663TIP3    H216954   4.117   3.632   3.472  0.0101  0.5791 -1.5235
 5664TIP3   OH216955   2.055   2.024   4.545 -0.7085 -0.2242 -0.4035
 5664TIP3    H116956   2.096   1.953   4.495 -1.2461 -2.7764  2.5175
 5664TIP3    H216957   2.128   2.075   4.579 -0.2460 -0.4382 -1.0552
 5665TIP3   OH216958   0.169   2.734   3.718 -0.1044 -0.0110 -0.0532
 5665TIP3    H116959   0.175   2.825   3.746 -2.1465  0.2587 -0.3225
 5665TIP3    H216960   0.225   2.729   3.640 -0.1074  1.0476 -0.1358
 5666TIP3   OH216961   6.288   3.978   2.632  0.3981  0.0590  0.1840
 5666TIP3    H116962   6.308   4.043   2.699 -0.2703  0.0478  0.3992
 5666TIP3    H216963   6.229   3.916   2.675 -1.6292  1.1022 -0.9442
 5667TIP3   OH216964   6.050   4.329   0.643  0.0979  0.3372  0.3512
 5667TIP3    H116965   6.055   4.425   0.637  0.5019  0.3977  1.4202
 5667TIP3    H216966   5.983   4.313   0.709 -0.5855 -0.1507 -0.4422
 5668TIP3   OH216967   3.381   1.492   5.490 -0.1446  0.0011 -0.5666
 5668TIP3    H116968   3.368   1.532   5.576 -0.4014 -0.7195 -0.2628
 5668TIP3    H216969   3.438   1.553   5.444  0.8485 -0.1030  0.4823
 5669TIP3   OH216970   5.611   5.988   0.388  0.1367  0.0469 -0.1393
 5669TIP3    H116971   5.566   6.027   0.314  0.9678 -2.2261 -1.9721
 5669TIP3    H216972   5.689   6.042   0.400  0.4066 -0.0060 -1.4930
 5670TIP3   OH216973   6.183   1.357   0.468 -0.4165 -0.1388  0.2860
 5670TIP3    H116974   6.139   1.416   0.408 -1.4813  0.4519  1.6105
 5670TIP3    H216975   6.175   1.398   0.554  1.3364 -0.8065  0.8283
 5671TIP3   OH216976   1.417   0.704   5.550 -0.5750  0.6633 -0.5327
 5671TIP3    H116977   1.369   0.628   5.585 -0.6581  0.2584 -1.4980
 5671TIP3    H216978   1.355   0.746   5.490  0.2639  0.1261 -1.8110
 5672TIP3   OH216979   0.691   1.514   0.325  0.7313  0.4294 -0.4420
 5672TIP3    H116980   0.738   1.577   0.269  2.5498  0.0093  0.5264
 5672TIP3    H216981   0.723   1.428   0.296  0.8179  0.1462  0.4569
 5673TIP3   OH216982   7.207   0.172   0.983 -0.3030 -0.2363 -0.1485
 5673TIP3    H116983   7.206   0.148   0.890  0.7491  0.9562 -0.4901
 5673TIP3    H216984   7.159   0.255   0.987  0.2094  0.0451  0.2643
 5674TIP3   OH216985   4.983   1.488   5.123 -0.2666 -0.1128  0.3338
 5674TIP3    H116986   4.948   1.577   5.121  0.8354  0.3196 -0.5475
 5674TIP3    H216987   5.064   1.493   5.073 -0.1074 -1.5857  0.4096
 5675TIP3   OH216988   5.124   5.798   4.890  0.1729  0.1720 -0.0164
 5675TIP3    H116989   5.123   5.702   4.891  1.1390  0.1623  0.3148
 5675TIP3    H216990   5.055   5.823   4.952  0.1263 -0.3066  0.1288
 5676TIP3   OH216991   2.885   4.140   0.499  0.2228  0.3256 -0.3737
 5676TIP3    H116992   2.832   4.203   0.450  1.5870  1.1732 -0.8319
 5676TIP3    H216993   2.938   4.194   0.557  1.9177 -0.2939 -1.2510
 5677TIP3   OH216994   1.660   4.108   1.171  0.1649 -0.0683  0.9016
 5677TIP3    H116995   1.670   4.019   1.203  0.4084  0.2507  1.7451
 5677TIP3    H216996   1.570   4.131   1.192 -0.8885 -1.1284 -2.0086
 5678TIP3   OH216997   6.885   5.604   2.668 -0.4781 -0.0569 -0.5466
 5678TIP3    H116998   6.882   5.623   2.762  1.9672 -0.1270 -0.3759
 5678TIP3    H216999   6.865   5.511   2.661  2.5408 -0.9030  0.3806
 5679TIP3   OH217000   5.710   5.645   2.575 -0.2700 -0.1607 -0.3695
 5679TIP3    H117001   5.714   5.587   2.651 -0.7849 -0.7024 -0.7453
 5679TIP3    H217002   5.792   5.628   2.528 -0.0510  0.0151 -0.0531
 5680TIP3   OH217003   5.959   4.357   4.938  0.2762  0.3550 -0.0266
 5680TIP3    H117004   6.008   4.275   4.939  2.0898  1.3610  0.9718
 5680TIP3    H217005   6.006   4.413   5.001 -2.0406  1.5048  0.7794
 5681TIP3   OH217006   3.484   1.379   0.575  0.0286  0.0431  0.2386
 5681TIP3    H117007   3.479   1.447   0.643 -0.3538 -0.8797  1.1519
 5681TIP3    H217008   3.411   1.320   0.595  0.2584 -0.5527 -0.6435
 5682TIP3   OH217009   3.692   6.294   0.281 -0.3109 -0.3844 -0.4507
 5682TIP3    H117010   3.648   6.224   0.330 -0.6929 -0.8658 -1.4566
 5682TIP3    H217011   3.749   6.249   0.220 -0.6281  0.1702 -1.1797
 5683TIP3   OH217012   0.506   6.601   0.360  0.2609  0.2496  0.1312
 5683TIP3    H117013   0.437   6.588   0.294 -0.8882 -0.1533  1.3729
 5683TIP3    H217014   0.560   6.671   0.324 -0.7640  0.5467 -0.8990
 5684TIP3   OH217015   3.751   3.340   3.970 -0.5246 -0.2953 -0.3830
 5684TIP3    H117016   3.712   3.337   3.883  0.9457  0.0644 -1.0971
 5684TIP3    H217017   3.819   3.273   3.968 -1.0268 -0.8555  0.7896
 5685TIP3   OH217018   4.457   5.621   2.628  0.5154  0.1876  0.1599
 5685TIP3    H117019   4.391   5.559   2.660  1.5540 -1.2720 -0.3866
 5685TIP3    H217020   4.486   5.584   2.545  2.2072  0.6309  0.5096
 5686TIP3   OH217021   3.748   5.654   1.783 -0.4237 -0.0022  0.0152
 5686TIP3    H117022   3.711   5.654   1.871 -0.6764  2.4226 -0.0232
 5686TIP3    H217023   3.673   5.670   1.725 -0.0633 -0.1666 -0.5035
 5687TIP3   OH217024   6.034   1.743   2.922 -0.1278 -0.0176 -0.3865
 5687TIP3    H117025   5.999   1.811   2.979  1.0817 -0.1554  0.5449
 5687TIP3    H217026   6.061   1.789   2.843  0.3165  0.5353  0.0771
 5688TIP3   OH217027   2.555   6.252   4.454 -0.3651  0.4698  0.0971
 5688TIP3    H117028   2.630   6.310   4.464  0.9454 -1.1085 -0.2146
 5688TIP3    H217029   2.565   6.186   4.523 -0.6112 -0.6239 -0.8687
 5689TIP3   OH217030   6.740   1.749   0.474 -0.2417 -0.2306  0.3886
 5689TIP3    H117031   6.723   1.746   0.568  0.5785  0.0272  0.5560
 5689TIP3    H217032   6.801   1.676   0.459 -2.1688 -1.7705 -0.3552
 5690TIP3   OH217033   6.440   3.068   1.186 -0.3910 -0.5528  0.0509
 5690TIP3    H117034   6.435   3.162   1.205 -0.5999 -0.5394 -0.0640
 5690TIP3    H217035   6.521   3.058   1.136  0.5935 -0.7118  1.6209
 5691TIP3   OH217036   6.564   1.263   2.796  0.2561  0.1962  0.2346
 5691TIP3    H117037   6.533   1.173   2.796  0.7029  0.0157  1.6387
 5691TIP3    H217038   6.630   1.266   2.727 -2.2183  0.3987 -2.2939
 5692TIP3   OH217039   4.290   1.542   3.764  0.3672  0.2006 -0.0295
 5692TIP3    H117040   4.233   1.584   3.699 -0.6875 -1.0365  0.0670
 5692TIP3    H217041   4.379   1.564   3.736 -0.1235  2.1457 -0.2047
 5693TIP3   OH217042   5.335   3.377   3.174 -0.5091 -0.3322 -0.1414
 5693TIP3    H117043   5.345   3.454   3.231 -0.3356  0.1791 -0.8466
 5693TIP3    H217044   5.402   3.388   3.108  0.5424 -1.9129  0.6155
 5694TIP3   OH217045   5.982   3.107   4.313  0.5819 -0.0530  0.0385
 5694TIP3    H117046   5.982   3.164   4.390  1.3338 -2.1311  1.6802
 5694TIP3    H217047   5.944   3.160   4.244  2.6469  2.9382  1.0237
 5695TIP3   OH217048   3.156   4.563   4.991  0.2147  0.0443  0.3416
 5695TIP3    H117049   3.227   4.611   5.035  1.1174  0.6947 -1.6941
 5695TIP3    H217050   3.100   4.533   5.062  0.7657  2.3025  1.8514
 5696TIP3   OH217051   3.465   1.634   2.527  0.3609 -0.2572  0.0471
 5696TIP3    H117052   3.369   1.631   2.530  0.3799 -0.9050  0.1894
 5696TIP3    H217053   3.486   1.726   2.515 -0.2522  0.0158  1.0079
 5697TIP3   OH217054   3.605   0.588   0.318  0.4003  0.4331  0.3329
 5697TIP3    H117055   3.517   0.621   0.300  0.4443  0.0738 -0.6085
 5697TIP3    H217056   3.657   0.614   0.242  0.9072 -0.0733  0.4918
 5698TIP3   OH217057   5.327   2.454   5.600  0.0918  0.1196  0.5157
 5698TIP3    H117058   5.256   2.391   5.616  0.2664 -0.4900 -0.9737
 5698TIP3    H217059   5.296   2.506   5.526  1.0587  0.0723  0.0737
 5699TIP3   OH217060   3.165   2.508   0.677  0.3541  0.0016 -0.1429
 5699TIP3    H117061   3.165   2.414   0.656  1.2020  0.2405 -1.3220
 5699TIP3    H217062   3.251   2.539   0.649  0.4208  0.9765  1.0483
 5700TIP3   OH217063   1.488   3.151   1.972 -0.0264  0.3237 -0.8286
 5700TIP3    H117064   1.417   3.103   1.928  0.5351 -0.3424 -1.0254
 5700TIP3    H217065   1.472   3.242   1.950 -1.6883  0.3687  0.3488
 5701TIP3   OH217066   6.165   0.638   4.078  0.0164 -0.0469  0.4101
 5701TIP3    H117067   6.242   0.666   4.128 -0.9719  0.9090  1.4379
 5701TIP3    H217068   6.188   0.657   3.987 -0.1075  3.0749  0.9245
 5702TIP3   OH217069   5.368   3.868   2.809 -0.0582  0.3141 -0.0591
 5702TIP3    H117070   5.446   3.904   2.852  0.6504  2.6657 -2.9741
 5702TIP3    H217071   5.399   3.788   2.767  0.5655  0.6511 -0.2656
 5703TIP3   OH217072   0.811   4.319   5.509 -0.0483  0.0663 -0.2050
 5703TIP3    H117073   0.879   4.305   5.443  0.6840  1.6266  0.1844
 5703TIP3    H217074   0.842   4.393   5.561 -2.0695  0.8809 -0.0456
 5704TIP3   OH217075   2.363   3.342   5.374 -0.7999 -0.8399 -0.2593
 5704TIP3    H117076   2.292   3.388   5.328  0.0365  1.9909  1.0731
 5704TIP3    H217077   2.332   3.333   5.464  0.3031  0.0562  0.2401
 5705TIP3   OH217078   2.902   0.682   5.633  0.1679 -0.7316  0.0272
 5705TIP3    H117079   2.906   0.618   5.562 -1.9217  0.9181 -1.7288
 5705TIP3    H217080   2.816   0.667   5.673  0.4332 -0.2349  0.7960
 5706TIP3   OH217081   3.787   3.291   5.299  0.2253  0.0636  0.0884
 5706TIP3    H117082   3.820   3.237   5.371 -1.6513 -0.9527  0.2581
 5706TIP3    H217083   3.791   3.234   5.223 -2.0061 -0.4788  0.3178
 5707TIP3   OH217084   6.127   1.558   2.494 -0.2540 -0.6569 -0.2783
 5707TIP3    H117085   6.109   1.489   2.430 -2.3319 -1.0656  0.6441
 5707TIP3    H217086   6.132   1.512   2.578  0.4858  0.0889  0.0973
 5708TIP3   OH217087   2.408   0.521   0.389  0.1608 -0.3238  0.1129
 5708TIP3    H117088   2.446   0.526   0.477  0.0079 -1.5576  0.2626
 5708TIP3    H217089   2.430   0.605   0.349  1.8962 -0.4840  0.6661
 5709TIP3   OH217090   0.692   1.884   1.658  0.3921 -0.3103  0.0167
 5709TIP3    H117091   0.771   1.855   1.703 -0.2151 -0.1108  1.2579
 5709TIP3    H217092   0.650   1.803   1.628  0.7823 -0.4486 -0.1590
 5710TIP3   OH217093   4.002   1.094   3.325  0.4848  0.4406  0.7983
 5710TIP3    H117094   4.017   1.151   3.249  1.1372 -1.2437 -0.3786
 5710TIP3    H217095   4.079   1.037   3.328 -1.4883 -2.4902  0.0066
 5711TIP3   OH217096   0.251   5.602   4.766 -0.0707  0.5011 -0.5840
 5711TIP3    H117097   0.259   5.507   4.771 -0.2030  0.4619 -1.0426
 5711TIP3    H217098   0.238   5.630   4.857 -1.3029 -0.0352 -0.5685
 5712TIP3   OH217099   5.284   6.088   2.405  0.2371 -0.2063  0.0529
 5712TIP3    H117100   5.301   6.020   2.470 -0.0629 -1.0863 -0.7696
 5712TIP3    H217101   5.308   6.048   2.321 -0.3983  0.5309 -0.4992
 5713TIP3   OH217102   6.273   1.455   1.832 -0.0746 -0.3927  0.0155
 5713TIP3    H117103   6.225   1.522   1.880 -1.4667 -1.1053 -0.3468
 5713TIP3    H217104   6.319   1.503   1.764  1.2216  0.5215  1.4630
 5714TIP3   OH217105   5.297   5.685   1.765  0.6326  0.2982  0.2011
 5714TIP3    H117106   5.350   5.650   1.693 -0.1009 -0.0915 -0.1508
 5714TIP3    H217107   5.208   5.684   1.732  0.4153  1.0833  0.7493
 5715TIP3   OH217108   7.181   4.545   2.696  0.1677 -0.4406  0.2836
 5715TIP3    H117109   7.212   4.628   2.731 -0.2088 -0.5029  0.7918
 5715TIP3    H217110   7.100   4.527   2.745 -1.0765  0.0743 -1.4694
 5716TIP3   OH217111   6.737   5.219   4.282  0.1526 -0.0069  0.2224
 5716TIP3    H117112   6.820   5.259   4.310  0.7598 -0.9925 -0.1178
 5716TIP3    H217113   6.753   5.191   4.192 -0.4946 -0.3749  0.2182
 5717TIP3   OH217114   0.742   0.793   3.892 -0.3384  0.0587  0.3842
 5717TIP3    H117115   0.819   0.849   3.882 -0.2244 -0.0442  0.6498
 5717TIP3    H217116   0.752   0.756   3.980 -1.6168  1.4374  1.1508
 5718TIP3   OH217117   5.059   4.894   3.821 -0.6244  0.0719  0.0554
 5718TIP3    H117118   5.007   4.829   3.774 -1.3362 -0.3436  1.3583
 5718TIP3    H217119   5.144   4.852   3.836 -1.0795 -0.5869  0.8883
 5719TIP3   OH217120   0.386   5.080   0.446 -0.1216 -0.3247  0.6947
 5719TIP3    H117121   0.463   5.024   0.434 -1.1255 -1.4944 -0.7001
 5719TIP3    H217122   0.351   5.055   0.531  1.1892  0.4559  1.4999
 5720TIP3   OH217123   2.525   3.447   3.833 -0.1149 -0.0776 -0.1565
 5720TIP3    H117124   2.520   3.355   3.807  0.1307 -0.1207 -0.0560
 5720TIP3    H217125   2.436   3.471   3.858 -0.2233 -0.2221 -0.4090
 5721TIP3   OH217126   2.905   1.348   0.286  0.3879  0.2907 -0.0033
 5721TIP3    H117127   2.926   1.307   0.202  2.4737  0.3841  0.4214
 5721TIP3    H217128   2.990   1.374   0.322 -0.5066  0.7777  1.8827
 5722TIP3   OH217129   0.138   6.476   4.321 -0.0728 -0.2308 -0.3649
 5722TIP3    H117130   0.227   6.449   4.346  0.0593 -0.0275 -0.6101
 5722TIP3    H217131   0.109   6.410   4.258  1.1532  1.4095 -2.7973
 5723TIP3   OH217132   3.120   5.269   2.467  0.4304 -0.1141 -0.1303
 5723TIP3    H117133   3.134   5.176   2.487 -0.8658 -0.5124 -1.0237
 5723TIP3    H217134   3.168   5.315   2.536  1.0734 -1.4392  0.3407
 5724TIP3   OH217135   2.824   2.192   3.141  0.1445 -0.0231  0.7478
 5724TIP3    H117136   2.867   2.154   3.064 -1.0373  0.7418 -0.3135
 5724TIP3    H217137   2.864   2.145   3.215  2.7313  0.5761 -0.1472
 5725TIP3   OH217138   1.845   6.517   0.137  0.5798  0.3106 -0.1057
 5725TIP3    H117139   1.893   6.464   0.200  0.4498  1.1688  0.7478
 5725TIP3    H217140   1.866   6.607   0.160  0.5221  0.6473 -1.2996
 5726TIP3   OH217141   6.815   0.932   4.814  0.7157 -0.0974 -0.1678
 5726TIP3    H117142   6.818   0.837   4.831  1.7841  0.0378  0.5048
 5726TIP3    H217143   6.871   0.945   4.737  0.2241 -0.0627 -0.5199
 5727TIP3   OH217144   6.790   4.623   2.773 -0.3139  0.3808 -0.1453
 5727TIP3    H117145   6.835   4.686   2.717 -0.2533 -0.2530 -0.8230
 5727TIP3    H217146   6.832   4.633   2.859  0.6584  0.2725 -0.5947
 5728TIP3   OH217147   3.309   4.595   2.194  0.3497 -0.1519  0.2054
 5728TIP3    H117148   3.276   4.675   2.236  3.0847  0.1172  2.1660
 5728TIP3    H217149   3.395   4.620   2.160  0.1082 -1.6106 -1.6274
 5729TIP3   OH217150   4.952   2.144   1.044 -0.1895  0.0062 -0.1181
 5729TIP3    H117151   4.997   2.217   0.999 -0.0913 -2.5251 -4.7475
 5729TIP3    H217152   4.871   2.133   0.995 -1.6625 -1.1698  2.4335
 5730TIP3   OH217153   7.060   3.682   0.641  0.0908 -0.4693 -0.4528
 5730TIP3    H117154   7.048   3.613   0.576 -0.5221 -1.2537  0.4700
 5730TIP3    H217155   7.155   3.697   0.643  0.1072 -0.3027 -1.6340
 5731TIP3   OH217156   3.607   0.326   5.496  0.1377  0.6579  0.8940
 5731TIP3    H117157   3.614   0.421   5.485  1.5192  0.3686 -1.3113
 5731TIP3    H217158   3.596   0.292   5.407 -4.0877 -1.0624  1.8275
 5732TIP3   OH217159   3.075   0.968   5.210  0.0459 -0.4662 -0.3466
 5732TIP3    H117160   3.034   1.053   5.226  1.6262  0.5287 -1.2593
 5732TIP3    H217161   3.129   0.982   5.132  0.6121 -2.2286 -0.3131
 5733TIP3   OH217162   5.738   4.211   0.785  0.1662 -0.2163  0.3076
 5733TIP3    H117163   5.703   4.170   0.706 -0.3975  0.5904  0.1301
 5733TIP3    H217164   5.719   4.304   0.774  0.5331 -0.0354  1.1663
 5734TIP3   OH217165   0.168   3.921   5.321 -0.6857  0.1296  0.1319
 5734TIP3    H117166   0.169   3.831   5.353 -3.7960 -0.0250  0.1247
 5734TIP3    H217167   0.248   3.960   5.356 -1.0234 -1.6444  3.2630
 5735TIP3   OH217168   2.486   4.108   1.829  0.2663 -0.3246  0.1970
 5735TIP3    H117169   2.456   4.189   1.788 -0.1890 -0.7047 -0.2309
 5735TIP3    H217170   2.537   4.064   1.761  0.7114 -0.2879  0.5055
 5736TIP3   OH217171   5.531   0.063   5.890 -0.2249  0.6177 -0.4542
 5736TIP3    H117172   5.600   0.127   5.906 -0.9682  0.9933  1.6437
 5736TIP3    H217173   5.526   0.055   5.795  1.8093  1.5285 -0.6829
 5737TIP3   OH217174   2.461   1.520   2.519  0.1876  0.5892  0.0596
 5737TIP3    H117175   2.411   1.587   2.472  1.8275  1.1298 -0.9818
 5737TIP3    H217176   2.514   1.477   2.452 -0.1445 -1.1694  0.8519
 5738TIP3   OH217177   5.004   5.631   3.851  0.2240  0.2948 -0.0573
 5738TIP3    H117178   5.096   5.634   3.828 -0.0508  0.5052 -1.1582
 5738TIP3    H217179   4.970   5.554   3.807 -0.0723  0.0697  0.5591
 5739TIP3   OH217180   5.709   4.939   1.742 -0.1200 -0.4470 -0.1619
 5739TIP3    H117181   5.791   4.915   1.785 -0.6267 -0.3648  0.8809
 5739TIP3    H217182   5.661   4.990   1.808 -1.6430 -1.7416 -0.2150
 5740TIP3   OH217183   1.590   1.910   3.911 -0.4345  0.0942  0.0619
 5740TIP3    H117184   1.541   1.864   3.842  0.0238 -1.8494  0.9704
 5740TIP3    H217185   1.537   1.988   3.929 -2.0659 -0.8246 -0.5023
 5741TIP3   OH217186   5.463   6.039   3.985  0.0660 -0.5546 -0.3054
 5741TIP3    H117187   5.414   6.055   4.065 -1.9748 -1.4607 -1.2956
 5741TIP3    H217188   5.516   6.117   3.972  2.2011 -1.2536  3.0608
 5742TIP3   OH217189   5.001   0.076   5.850  0.1700 -0.5150  0.2107
 5742TIP3    H117190   5.079   0.091   5.903 -0.1479 -1.3271  0.9231
 5742TIP3    H217191   4.998   0.151   5.790  0.5967  0.3516  1.2510
 5743TIP3   OH217192   4.903   1.291   4.713  0.6488  0.3239  0.2369
 5743TIP3    H117193   4.812   1.282   4.740  0.0038 -1.5424 -2.2027
 5743TIP3    H217194   4.944   1.208   4.738  1.6993  1.0784  1.1582
 5744TIP3   OH217195   4.274   1.771   2.244 -0.1085 -0.4092  0.2193
 5744TIP3    H117196   4.354   1.823   2.253  1.5544 -2.6473 -0.6317
 5744TIP3    H217197   4.217   1.804   2.313  1.8386  0.7467  1.3996
 5745TIP3   OH217198   4.917   5.182   5.758 -0.0993  0.5876 -0.1798
 5745TIP3    H117199   5.011   5.162   5.766 -0.2591  0.3428  1.3513
 5745TIP3    H217200   4.914   5.276   5.740  0.4350  0.5472 -0.5270
 5746TIP3   OH217201   1.050   3.732   4.853 -0.3590  0.3455 -0.4378
 5746TIP3    H117202   1.026   3.804   4.795  0.8336  0.0843 -1.2882
 5746TIP3    H217203   1.087   3.666   4.795  1.8828  0.5179  0.6999
 5747TIP3   OH217204   2.675   0.381   5.638 -0.5089 -0.9996 -0.2338
 5747TIP3    H117205   2.630   0.386   5.553 -0.8865  1.6606  0.0407
 5747TIP3    H217206   2.674   0.471   5.671  2.1627 -1.4335  1.2975
 5748TIP3   OH217207   2.176   3.723   5.433 -0.2748  0.0332 -0.2246
 5748TIP3    H117208   2.219   3.640   5.453 -0.2827 -0.0850 -0.6818
 5748TIP3    H217209   2.092   3.719   5.480 -0.1960 -0.1356 -0.0990
 5749TIP3   OH217210   2.935   0.122   1.039 -0.3225 -0.2218 -0.3995
 5749TIP3    H117211   2.912   0.029   1.042 -1.8514  0.1345  1.5438
 5749TIP3    H217212   2.859   0.163   0.998  0.3464  0.1743 -1.2429
 5750TIP3   OH217213   6.691   3.026   3.896 -0.1258  0.2031  0.3072
 5750TIP3    H117214   6.727   2.979   3.972 -2.0500  0.1337  1.2312
 5750TIP3    H217215   6.600   2.997   3.891  0.3653 -1.2620 -3.2031
 5751TIP3   OH217216   5.597   4.811   2.898  0.5009  0.0637 -0.4534
 5751TIP3    H117217   5.588   4.796   2.804 -1.1942 -0.0837 -0.2910
 5751TIP3    H217218   5.634   4.899   2.904 -0.8864  0.7269 -1.2443
 5752TIP3   OH217219   4.728   4.203   4.355 -0.2585 -0.1476  0.3096
 5752TIP3    H117220   4.652   4.261   4.354 -0.5596 -0.4639  2.0335
 5752TIP3    H217221   4.766   4.212   4.268 -0.3000  2.6215  0.4913
 5753TIP3   OH217222   2.676   2.691   2.920 -0.2857  0.3229 -0.3424
 5753TIP3    H117223   2.580   2.689   2.929 -0.3125  3.4526  2.1106
 5753TIP3    H217224   2.707   2.624   2.981 -0.8837 -0.3851 -0.7935
 5754TIP3   OH217225   0.933   0.501   4.324 -0.0048  0.4013  0.0306
 5754TIP3    H117226   0.893   0.424   4.364  0.5636 -0.3544 -0.8103
 5754TIP3    H217227   0.997   0.466   4.263 -0.3448  1.5258 -1.0175
 5755TIP3   OH217228   5.472   3.192   3.562 -0.0592 -0.0389  0.4600
 5755TIP3    H117229   5.470   3.145   3.479 -0.3923 -0.7122  0.8427
 5755TIP3    H217230   5.561   3.180   3.595  0.1988  0.5766  0.0149
 5756TIP3   OH217231   6.769   2.823   2.518 -0.1282  0.4880  0.5989
 5756TIP3    H117232   6.720   2.822   2.435 -0.2649 -0.0040  0.6798
 5756TIP3    H217233   6.711   2.781   2.581 -0.0198  0.8547  0.9485
 5757TIP3   OH217234   2.172   1.396   0.209 -0.6372 -0.2639 -0.1425
 5757TIP3    H117235   2.113   1.340   0.259  0.4270  0.0943  1.6441
 5757TIP3    H217236   2.207   1.457   0.275 -1.1961  2.0483 -1.8506
 5758TIP3   OH217237   5.581   4.535   5.623 -0.0845 -0.4507  0.3605
 5758TIP3    H117238   5.528   4.612   5.603  0.5894  0.0949  0.6485
 5758TIP3    H217239   5.586   4.534   5.719 -0.2469 -0.9639  0.3658
 5759TIP3   OH217240   1.875   4.803   0.897  0.2043 -0.3434 -0.5781
 5759TIP3    H117241   1.863   4.866   0.827 -0.3728 -0.0032 -0.1817
 5759TIP3    H217242   1.787   4.775   0.920  0.4547 -1.2860 -0.7333
 5760TIP3   OH217243   5.846   5.262   5.745  0.3842 -0.0830  0.9251
 5760TIP3    H117244   5.903   5.330   5.780 -1.1901  2.1741 -0.5995
 5760TIP3    H217245   5.888   5.235   5.663  0.1125  0.3756  0.6317
 5761TIP3   OH217246   4.640   0.723   3.633 -0.2176 -0.6344  0.0321
 5761TIP3    H117247   4.664   0.696   3.545  0.8256 -1.0980  0.4434
 5761TIP3    H217248   4.633   0.641   3.683  2.1272 -0.2727  1.0821
 5762TIP3   OH217249   1.438   5.271   1.192 -0.4727  0.1076  0.2080
 5762TIP3    H117250   1.390   5.307   1.267  0.6821 -0.4158  1.2400
 5762TIP3    H217251   1.503   5.339   1.171  0.4591 -0.5137  0.9472
 5763TIP3   OH217252   5.863   0.726   0.949 -0.2788 -0.3512 -0.4121
 5763TIP3    H117253   5.796   0.679   0.899 -0.3594  0.9230 -1.5714
 5763TIP3    H217254   5.902   0.787   0.885  0.8130  0.1193  0.6622
 5764TIP3   OH217255   6.031   3.212   3.142  0.1823  0.3372  0.5342
 5764TIP3    H117256   6.061   3.280   3.202  1.2591 -0.1879  0.6125
 5764TIP3    H217257   5.971   3.257   3.082 -0.0552  1.0897  1.3278
 5765TIP3   OH217258   2.180   5.016   3.500  0.1542  0.6738  0.1359
 5765TIP3    H117259   2.119   5.086   3.521  0.1477  0.4708  0.8164
 5765TIP3    H217260   2.198   4.973   3.584  1.0091  0.5532 -0.0968
 5766TIP3   OH217261   0.945   4.700   3.570 -0.7366 -0.0090 -0.7429
 5766TIP3    H117262   0.873   4.717   3.630 -0.7865  0.2106 -0.8668
 5766TIP3    H217263   1.019   4.678   3.626 -1.4454 -2.4639 -0.6271
 5767TIP3   OH217264   5.981   2.428   3.270 -0.8583  0.2371  0.0573
 5767TIP3    H117265   5.944   2.435   3.359 -1.2707 -0.8596 -0.0096
 5767TIP3    H217266   6.068   2.391   3.283 -0.3000  1.5465  0.1125
 5768TIP3   OH217267   0.465   5.484   2.745  0.0059 -0.5208 -0.2183
 5768TIP3    H117268   0.391   5.453   2.692  0.8966 -1.9054 -0.7092
 5768TIP3    H217269   0.528   5.517   2.681 -0.4637  1.3802  0.2424
 5769TIP3   OH217270   6.711   4.454   0.123 -0.1791 -0.4493 -0.2984
 5769TIP3    H117271   6.801   4.454   0.090 -0.0244 -0.2051  0.1248
 5769TIP3    H217272   6.719   4.436   0.216 -0.4617  0.8400  0.0000
 5770TIP3   OH217273   6.814   1.070   2.821  0.0253  0.8021 -0.6607
 5770TIP3    H117274   6.785   1.020   2.744 -0.2944 -0.7791  0.4323
 5770TIP3    H217275   6.856   1.148   2.785 -1.5217  0.8956 -2.3924
 5771TIP3   OH217276   6.841   1.811   1.236 -0.5370 -0.4506  0.3129
 5771TIP3    H117277   6.873   1.816   1.326  0.3788  1.1945 -0.0524
 5771TIP3    H217278   6.784   1.887   1.226  2.1840  1.5666 -1.4468
 5772TIP3   OH217279   5.000   5.161   2.200 -0.1983 -0.0921  0.4462
 5772TIP3    H117280   5.035   5.130   2.284 -1.4766 -0.8111  0.7408
 5772TIP3    H217281   4.905   5.155   2.211 -0.4006  1.0375 -0.6072
 5773TIP3   OH217282   6.935   6.696   2.582  0.0033 -0.2783 -0.1899
 5773TIP3    H117283   7.012   6.744   2.550  0.1282 -0.4091 -0.0874
 5773TIP3    H217284   6.860   6.747   2.551  0.1358  0.0117 -0.0374
 5774TIP3   OH217285   1.067   6.670   0.151  0.2260 -0.0310  0.2470
 5774TIP3    H117286   1.002   6.650   0.218  0.8468 -0.8997  0.6175
 5774TIP3    H217287   1.109   6.751   0.180  1.0034 -0.7884  1.3348
 5775TIP3   OH217288   6.405   6.142   2.661 -0.4256 -0.1186  0.8561
 5775TIP3    H117289   6.463   6.067   2.676  0.5409  0.7362  1.5128
 5775TIP3    H217290   6.420   6.166   2.570 -1.3063 -1.1716  0.4093
 5776TIP3   OH217291   0.341   2.004   1.448  0.3118 -0.9713 -0.2691
 5776TIP3    H117292   0.365   1.976   1.359 -0.0718 -0.8930 -0.4001
 5776TIP3    H217293   0.423   2.001   1.497  0.2750 -2.4672 -0.2446
 5777TIP3   OH217294   4.562   0.491   5.342  0.1996 -0.7242 -0.3619
 5777TIP3    H117295   4.598   0.565   5.294  1.1797 -0.0513  1.3076
 5777TIP3    H217296   4.468   0.496   5.328  0.3582  0.1844 -1.1551
 5778TIP3   OH217297   0.095   1.299   3.122  0.5052 -0.4532  0.2349
 5778TIP3    H117298   0.106   1.204   3.114 -0.9382 -0.7312  1.1252
 5778TIP3    H217299   0.014   1.317   3.073  0.9713  0.3796 -0.2353
 5779TIP3   OH217300   0.944   5.588   4.115  0.1836 -0.0494  0.4545
 5779TIP3    H117301   0.999   5.538   4.175  0.7839 -1.4204 -1.1710
 5779TIP3    H217302   0.972   5.679   4.127  1.2550 -0.4603  1.2382
 5780TIP3   OH217303   6.179   2.118   1.296  0.2950 -0.3585  0.2365
 5780TIP3    H117304   6.115   2.186   1.318  0.5217 -0.1097  0.1422
 5780TIP3    H217305   6.158   2.093   1.206 -0.2823 -0.9796  0.5366
 5781TIP3   OH217306   5.644   2.804   1.477  0.1808  0.2940  0.1836
 5781TIP3    H117307   5.720   2.829   1.530  0.4678  0.5987 -0.3698
 5781TIP3    H217308   5.584   2.763   1.540 -0.8704  3.3849  1.4003
 5782TIP3   OH217309   1.899   5.768   0.311  0.3339  0.3481 -0.4382
 5782TIP3    H117310   1.985   5.798   0.281  0.7079  1.6190  1.6990
 5782TIP3    H217311   1.919   5.705   0.380 -0.4629  0.1968 -0.3437
 5783TIP3   OH217312   4.628   4.785   3.132  0.1009  0.4549 -0.1139
 5783TIP3    H117313   4.594   4.818   3.215  0.7077  0.7662  0.0159
 5783TIP3    H217314   4.713   4.745   3.155 -0.2058 -0.4007 -0.4112
 5784TIP3   OH217315   2.756   2.672   2.011 -0.1235  0.0462 -0.1978
 5784TIP3    H117316   2.742   2.763   1.984  0.5382  1.0618  2.5140
 5784TIP3    H217317   2.694   2.660   2.083  1.5137 -0.8023  1.1046
 5785TIP3   OH217318   6.594   3.295   2.645 -0.0684  0.5843 -0.4948
 5785TIP3    H117319   6.604   3.201   2.661  0.4183  0.8519  0.9519
 5785TIP3    H217320   6.672   3.319   2.595  1.7686  0.8199  2.2328
 5786TIP3   OH217321   5.409   2.002   4.258 -0.3639 -0.1726  0.1104
 5786TIP3    H117322   5.350   2.057   4.206 -0.0166 -0.7809 -0.9393
 5786TIP3    H217323   5.497   2.034   4.237 -0.2184 -0.4522  0.2865
 5787TIP3   OH217324   1.553   6.152   2.596  0.2318 -0.3666 -0.6780
 5787TIP3    H117325   1.565   6.073   2.542 -1.6000 -2.1278  1.3370
 5787TIP3    H217326   1.636   6.161   2.642  1.3851  0.4546 -2.7724
 5788TIP3   OH217327   0.330   1.317   0.375  0.4259 -0.0360  0.0839
 5788TIP3    H117328   0.363   1.403   0.349 -0.3679  0.0824 -0.5902
 5788TIP3    H217329   0.334   1.265   0.294  1.1829 -0.7278  0.5592
 5789TIP3   OH217330   5.416   3.923   5.312 -0.5762  0.3895  0.1577
 5789TIP3    H117331   5.327   3.935   5.347 -1.2345  0.3847 -1.4117
 5789TIP3    H217332   5.407   3.942   5.219  0.9163 -0.4396 -0.1761
 5790TIP3   OH217333   3.540   5.114   3.101  0.2934 -0.1229  0.1360
 5790TIP3    H117334   3.579   5.197   3.074  0.9265 -0.9163 -1.5701
 5790TIP3    H217335   3.445   5.132   3.100  0.4548  0.9334  1.1721
 5791TIP3   OH217336   3.558   1.746   4.059 -0.3557 -0.3453 -0.6284
 5791TIP3    H117337   3.498   1.674   4.077 -0.8011  0.0881 -0.4004
 5791TIP3    H217338   3.527   1.783   3.976 -0.9666  0.4580 -0.0555
 5792TIP3   OH217339   0.756   3.130   2.916 -0.1488  0.0913 -0.1011
 5792TIP3    H117340   0.820   3.087   2.858  0.1605  1.2128 -0.6159
 5792TIP3    H217341   0.806   3.200   2.959  0.1403 -1.8084  2.9936
 5793TIP3   OH217342   3.575   4.075   5.390 -0.3563  0.1041  0.1951
 5793TIP3    H117343   3.571   4.022   5.310  0.2002  0.8293 -0.3298
 5793TIP3    H217344   3.622   4.020   5.453 -0.1293 -0.1821 -0.2223
 5794TIP3   OH217345   5.994   5.978   2.975  0.1965 -0.0102 -0.1849
 5794TIP3    H117346   5.972   5.932   2.894  1.9745 -2.4546  0.5990
 5794TIP3    H217347   6.073   6.028   2.953  0.9793 -1.0733  0.0941
 5795TIP3   OH217348   5.462   0.787   1.345  0.6294  0.4606 -1.2745
 5795TIP3    H117349   5.454   0.692   1.337  0.6874  0.2756  0.3891
 5795TIP3    H217350   5.439   0.821   1.259 -3.5011 -0.8480 -0.9206
 5796TIP3   OH217351   0.489   0.273   5.858 -0.1776 -0.1064  0.1133
 5796TIP3    H117352   0.490   0.286   5.764 -1.6546  2.0784  0.3362
 5796TIP3    H217353   0.404   0.234   5.876 -0.7753  1.4181  0.7166
 5797TIP3   OH217354   1.127   4.922   0.213  0.2095 -0.1368 -0.4746
 5797TIP3    H117355   1.145   4.957   0.300  0.7551  1.6234 -1.2387
 5797TIP3    H217356   1.034   4.938   0.198  0.1098 -0.4652 -0.2216
 5798TIP3   OH217357   1.742   6.237   3.845 -0.3278  0.3749  0.1678
 5798TIP3    H117358   1.651   6.243   3.817 -0.4031  0.4535  0.4275
 5798TIP3    H217359   1.747   6.156   3.895 -0.0099 -0.1808 -0.7384
 5799TIP3   OH217360   3.488   6.119   4.274 -0.0416 -0.1883  0.3166
 5799TIP3    H117361   3.407   6.139   4.320 -0.6451  0.3881 -0.9532
 5799TIP3    H217362   3.469   6.040   4.223 -0.4736  1.0291 -1.5003
 5800TIP3   OH217363   2.063   2.854   4.533 -0.0151 -0.4240 -0.9292
 5800TIP3    H117364   2.077   2.947   4.551 -0.9759 -0.3488 -0.5024
 5800TIP3    H217365   2.147   2.823   4.499 -0.1750  1.0024 -2.7903
 5801TIP3   OH217366   0.203   6.731   1.784 -0.1081  0.4734 -0.1293
 5801TIP3    H117367   0.261   6.659   1.809 -0.3007  0.4525  0.2702
 5801TIP3    H217368   0.251   6.779   1.718  0.1532  0.1571 -0.1712
 5802TIP3   OH217369   5.479   4.416   4.447 -0.6817 -0.0012  0.2859
 5802TIP3    H117370   5.495   4.510   4.441  0.1985 -0.0378  1.6624
 5802TIP3    H217371   5.398   4.408   4.497 -0.6972  0.0123  0.2632
 5803TIP3   OH217372   4.397   5.848   4.611  0.5281  0.2626 -0.2440
 5803TIP3    H117373   4.476   5.795   4.621  1.5740  1.7157 -0.3125
 5803TIP3    H217374   4.327   5.786   4.593  1.9162 -0.9722 -1.6212
 5804TIP3   OH217375   5.211   0.845   3.177  0.2917 -0.4612  0.1222
 5804TIP3    H117376   5.278   0.792   3.220 -0.3912 -1.2973  0.1901
 5804TIP3    H217377   5.218   0.931   3.219  1.5646 -0.4182 -0.1395
 5805TIP3   OH217378   3.941   2.405   5.857 -0.1430  0.1173  0.2666
 5805TIP3    H117379   3.882   2.474   5.887  0.2380 -0.4916  2.6944
 5805TIP3    H217380   3.895   2.324   5.877  0.2670 -0.3402 -0.6187
 5806TIP3   OH217381   4.645   3.971   3.041  0.1677 -0.5060 -0.0040
 5806TIP3    H117382   4.620   3.994   2.952 -0.9892 -0.8961  0.1962
 5806TIP3    H217383   4.574   3.913   3.071  0.7151 -0.6552  1.0420
 5807TIP3   OH217384   1.493   1.612   2.119 -0.0701  0.3304  0.2321
 5807TIP3    H117385   1.437   1.548   2.162  1.0717  0.1778  1.5558
 5807TIP3    H217386   1.572   1.615   2.173  0.2846  2.1637 -0.3231
 5808TIP3   OH217387   2.372   5.245   2.162  0.7042 -0.4286  0.1416
 5808TIP3    H117388   2.341   5.317   2.217 -3.8949  0.0872 -2.6101
 5808TIP3    H217389   2.458   5.273   2.130  0.1573  2.6764  1.1133
 5809TIP3   OH217390   0.017   3.321   0.400  0.1295 -0.4020 -0.1042
 5809TIP3    H117391   0.110   3.328   0.423  0.4332  1.1946 -1.5252
 5809TIP3    H217392   0.008   3.380   0.324 -2.0384 -0.5543 -0.0084
 5810TIP3   OH217393   4.526   3.729   0.335  0.2668 -0.2130  0.0354
 5810TIP3    H117394   4.432   3.720   0.324  0.2888  0.6235 -1.0393
 5810TIP3    H217395   4.539   3.736   0.430 -0.3891 -3.5112  0.4729
 5811TIP3   OH217396   4.621   6.062   1.038 -0.6159 -0.8565  0.0259
 5811TIP3    H117397   4.686   5.996   1.063  1.5855  1.0616 -0.3212
 5811TIP3    H217398   4.544   6.011   1.014  0.6710 -3.2481  0.5994
 5812TIP3   OH217399   1.349   0.827   1.261 -0.0647 -0.2924  0.0919
 5812TIP3    H117400   1.322   0.915   1.235  1.6136 -0.3968 -2.3048
 5812TIP3    H217401   1.374   0.785   1.180  1.1000 -2.3188  1.4269
 5813TIP3   OH217402   1.252   4.450   0.955 -0.1264  0.8169 -0.0484
 5813TIP3    H117403   1.224   4.382   1.016  0.0992 -0.6420 -1.4805
 5813TIP3    H217404   1.314   4.503   1.004 -0.9882  0.5646  1.3891
 5814TIP3   OH217405   0.349   2.850   2.213  0.0977 -0.7865 -0.0902
 5814TIP3    H117406   0.328   2.862   2.306  1.7838 -0.6745  0.3123
 5814TIP3    H217407   0.301   2.771   2.188 -1.1958 -0.2568  0.5764
 5815TIP3   OH217408   0.982   4.111   2.272 -0.3519  0.5509 -0.0599
 5815TIP3    H117409   1.006   4.019   2.284 -0.3646  0.4194 -1.0076
 5815TIP3    H217410   1.013   4.154   2.351 -0.0044 -0.2004  0.2233
 5816TIP3   OH217411   2.292   0.349   1.843 -0.5090 -0.4482 -0.2447
 5816TIP3    H117412   2.387   0.336   1.844 -0.4942 -0.4516 -1.1156
 5816TIP3    H217413   2.268   0.359   1.935  0.2003 -1.4024  0.0501
 5817TIP3   OH217414   1.348   2.473   2.181  0.2412 -0.2967  0.8500
 5817TIP3    H117415   1.328   2.525   2.260 -2.1009 -0.5600  0.4964
 5817TIP3    H217416   1.311   2.387   2.200 -0.3762 -0.3513 -0.5315
 5818TIP3   OH217417   0.146   2.719   4.105  0.0519  0.1273 -0.2349
 5818TIP3    H117418   0.181   2.633   4.083 -0.4929  0.0856 -0.9969
 5818TIP3    H217419   0.219   2.779   4.093  0.6385 -0.3097  1.0157
 5819TIP3   OH217420   1.468   0.350   3.275  0.1416 -0.3241 -0.8111
 5819TIP3    H117421   1.516   0.370   3.356 -0.6602 -0.2519 -0.3481
 5819TIP3    H217422   1.492   0.422   3.215 -0.4013  0.4327 -0.1449
 5820TIP3   OH217423   2.173   3.966   3.274 -0.1467 -0.8114  0.2314
 5820TIP3    H117424   2.202   3.884   3.232  1.6398 -1.2871  2.2357
 5820TIP3    H217425   2.253   4.004   3.310 -1.2386  0.8395  1.0318
 5821TIP3   OH217426   0.713   0.214   3.379  0.0851  0.4456 -0.2744
 5821TIP3    H117427   0.764   0.266   3.442 -0.9136 -0.6788  1.5477
 5821TIP3    H217428   0.637   0.268   3.358  0.4880  0.8790 -0.6221
 5822TIP3   OH217429   1.718   6.007   4.672 -0.0849  0.2482 -0.0887
 5822TIP3    H117430   1.798   5.979   4.714  0.5370  0.9278 -0.7827
 5822TIP3    H217431   1.648   5.972   4.727  0.6710  2.0051  2.1521
 5823TIP3   OH217432   2.707   1.035   0.833  0.0580  0.0876  0.5024
 5823TIP3    H117433   2.783   1.051   0.778 -1.1640  1.8715 -0.7508
 5823TIP3    H217434   2.664   0.959   0.794  1.3953 -1.2691  1.5267
 5824TIP3   OH217435   6.742   2.500   4.411  0.3809 -0.3686  0.5248
 5824TIP3    H117436   6.780   2.489   4.324 -0.5476 -1.6411  0.2587
 5824TIP3    H217437   6.816   2.490   4.471  0.4303 -3.6400  0.0626
 5825TIP3   OH217438   6.533   2.920   1.402  0.5321 -0.0969  0.0573
 5825TIP3    H117439   6.460   2.872   1.440  0.4401  0.6052  0.8057
 5825TIP3    H217440   6.492   2.992   1.354  0.7200  0.2710  0.4386
 5826TIP3   OH217441   2.504   3.125   0.614  0.5023  1.2237  0.3839
 5826TIP3    H117442   2.574   3.097   0.555 -0.4171  1.8153 -1.0378
 5826TIP3    H217443   2.532   3.212   0.643 -0.7755  2.6318 -2.2484
 5827TIP3   OH217444   5.388   6.415   2.973  0.5093 -0.8321 -0.3867
 5827TIP3    H117445   5.310   6.387   3.021  1.7472 -1.5922  1.2658
 5827TIP3    H217446   5.354   6.451   2.891 -1.5575 -1.2606  0.2310
 5828TIP3   OH217447   7.005   3.571   1.936  0.5600 -0.2456  0.2152
 5828TIP3    H117448   7.064   3.524   1.995  1.1147  0.1904  0.0177
 5828TIP3    H217449   6.965   3.502   1.883  0.9931 -0.5402  0.2595
 5829TIP3   OH217450   6.374   6.414   2.168 -0.0071  0.7860  0.1495
 5829TIP3    H117451   6.311   6.398   2.098 -1.2407 -2.0258  1.7303
 5829TIP3    H217452   6.322   6.458   2.236 -0.4537 -1.7356  1.5478
 5830TIP3   OH217453   0.652   5.851   2.649 -0.1521 -0.3358  0.0103
 5830TIP3    H117454   0.558   5.865   2.662 -0.7445 -1.1818 -2.7042
 5830TIP3    H217455   0.675   5.780   2.709 -1.0537  0.4053  1.2597
 5831TIP3   OH217456   5.904   3.693   1.133  0.2013  0.1721 -0.0252
 5831TIP3    H117457   5.914   3.715   1.040 -0.8209 -1.4103 -0.5607
 5831TIP3    H217458   5.992   3.673   1.163  0.6668  1.5350 -0.3945
 5832TIP3   OH217459   4.773   0.375   1.241  1.0938  0.2800 -0.2478
 5832TIP3    H117460   4.745   0.369   1.150  2.1827 -1.7496 -0.4994
 5832TIP3    H217461   4.781   0.284   1.270  1.2042  0.8711  1.7518
 5833TIP3   OH217462   6.816   5.002   3.771  0.3803 -0.1586  0.5007
 5833TIP3    H117463   6.902   4.964   3.793  0.2646 -0.7530 -0.0469
 5833TIP3    H217464   6.796   4.966   3.685 -0.2608  0.2646  0.4734
 5834TIP3   OH217465   2.561   5.032   3.361  0.0581 -0.0578 -0.0116
 5834TIP3    H117466   2.623   4.961   3.349 -0.5923 -0.7283  0.5248
 5834TIP3    H217467   2.542   5.033   3.454 -0.2010  0.6041 -0.0636
 5835TIP3   OH217468   7.163   0.610   0.240  0.4095 -0.6721 -0.1376
 5835TIP3    H117469   7.131   0.579   0.324  0.1356  0.2861  0.1327
 5835TIP3    H217470   7.164   0.533   0.184  2.2369 -1.7004  1.2047
 5836TIP3   OH217471   1.919   0.793   5.457  0.0005 -0.1671  0.5548
 5836TIP3    H117472   1.971   0.841   5.522  0.5122 -0.6767  0.5256
 5836TIP3    H217473   1.899   0.710   5.499  0.7995 -0.7211 -0.1389
 5837TIP3   OH217474   0.022   4.076   1.520  0.2201 -0.3416 -0.1552
 5837TIP3    H117475   0.114   4.068   1.548  0.0192 -0.1043  0.6145
 5837TIP3    H217476   0.011   4.170   1.502 -0.0004 -0.2906  0.2342
 5838TIP3   OH217477   5.482   6.208   0.649 -0.5586 -0.2132  0.6705
 5838TIP3    H117478   5.513   6.274   0.712 -0.1436  0.9357 -0.6852
 5838TIP3    H217479   5.537   6.131   0.667  1.3410  0.9189  0.0778
 5839TIP3   OH217480   1.040   3.888   0.282  0.1281 -0.4427 -0.0921
 5839TIP3    H117481   1.060   3.847   0.367 -0.6022  0.4484  0.5332
 5839TIP3    H217482   1.100   3.846   0.221  0.9751 -0.8122  0.9474
 5840TIP3   OH217483   7.021   6.488   4.790  0.1538 -0.0227 -0.1586
 5840TIP3    H117484   7.024   6.579   4.822 -1.1779  0.4244 -1.1770
 5840TIP3    H217485   7.093   6.482   4.727 -1.6756  1.4079 -2.5696
 5841TIP3   OH217486   6.235   6.627   1.203 -0.1594 -0.1590 -0.1421
 5841TIP3    H117487   6.222   6.657   1.113 -0.1223  1.1419  0.2652
 5841TIP3    H217488   6.184   6.546   1.209 -0.6806  0.0811 -1.1463
 5842TIP3   OH217489   5.724   2.794   4.216  0.3034 -0.0314 -0.4590
 5842TIP3    H117490   5.765   2.824   4.297 -0.7186 -0.4158  0.2253
 5842TIP3    H217491   5.760   2.707   4.202 -1.2751 -0.9631  0.9231
 5843TIP3   OH217492   2.917   5.940   4.253  0.3666  0.8158  0.0531
 5843TIP3    H117493   2.990   5.900   4.300 -0.2064  0.2403  0.4794
 5843TIP3    H217494   2.846   5.875   4.260 -0.6708  2.0030  0.9829
 5844TIP3   OH217495   0.556   1.609   5.480  0.4679 -0.0122 -0.2314
 5844TIP3    H117496   0.558   1.670   5.555  0.3014 -0.8354  0.4558
 5844TIP3    H217497   0.579   1.663   5.405  0.1931  0.9394  0.3467
 5845TIP3   OH217498   2.676   5.302   5.423  0.1379  0.0372 -0.1030
 5845TIP3    H117499   2.617   5.377   5.419  0.9347  0.6346 -0.8351
 5845TIP3    H217500   2.759   5.337   5.454  0.1160 -0.8195  1.0211
 5846TIP3   OH217501   5.008   6.094   0.957  0.0505  0.2248 -0.1412
 5846TIP3    H117502   5.070   6.129   0.893 -0.3632  1.0063 -0.1353
 5846TIP3    H217503   5.051   6.104   1.041 -0.1270  0.8884 -0.1236
 5847TIP3   OH217504  -0.007   4.094   4.103 -0.0467 -0.0755 -0.3589
 5847TIP3    H117505   0.044   4.169   4.072 -0.7333 -0.1383 -1.6770
 5847TIP3    H217506   0.025   4.080   4.192 -1.0863  2.8344  0.5929
 5848TIP3   OH217507   1.828   0.939   2.965  0.6309 -0.6334 -0.3704
 5848TIP3    H117508   1.737   0.921   2.991  0.2168  1.2731 -0.3589
 5848TIP3    H217509   1.865   0.986   3.040  0.9515  0.4844 -1.2111
 5849TIP3   OH217510   5.955   0.294   4.313  0.0794  0.2464  0.3971
 5849TIP3    H117511   5.965   0.335   4.227  0.4957 -1.8597 -0.6262
 5849TIP3    H217512   5.861   0.278   4.322  0.1156 -0.2188 -0.0203
 5850TIP3   OH217513   3.967   1.095   3.849  0.3135  0.4268 -0.1969
 5850TIP3    H117514   3.989   1.039   3.775  1.8528 -1.7077  1.7220
 5850TIP3    H217515   4.012   1.177   3.832  0.9937 -0.1740 -1.4128
 5851TIP3   OH217516   4.300   3.232   5.045  0.1142 -0.8870 -0.5646
 5851TIP3    H117517   4.208   3.255   5.060 -0.0168  0.5707 -3.1221
 5851TIP3    H217518   4.348   3.280   5.113 -0.9247 -0.9640  0.2556
 5852TIP3   OH217519   1.716   6.165   2.286 -0.3097 -1.0477 -0.6140
 5852TIP3    H117520   1.663   6.099   2.331  0.2739 -0.7313  0.5824
 5852TIP3    H217521   1.662   6.244   2.285 -0.3552 -1.0770 -0.5112
 5853TIP3   OH217522   6.491   5.541   0.121  0.4424  0.0998  0.1954
 5853TIP3    H117523   6.579   5.579   0.131  0.7594 -0.5876  0.0365
 5853TIP3    H217524   6.467   5.513   0.209 -0.6080  2.3751  0.7255
 5854TIP3   OH217525   3.218   6.057   4.618 -0.4337 -0.3471  0.3194
 5854TIP3    H117526   3.135   6.021   4.649 -0.7819 -0.4217 -0.6644
 5854TIP3    H217527   3.266   5.982   4.585 -1.1813  0.0327 -1.7806
 5855TIP3   OH217528   3.807   2.523   2.967  0.2240 -0.3392 -0.1911
 5855TIP3    H117529   3.747   2.562   2.904  0.5831 -0.1071 -0.3922
 5855TIP3    H217530   3.783   2.431   2.970  0.9551 -0.5956 -1.5322
 5856TIP3   OH217531   2.273   2.542   1.071 -0.4493  0.0539 -0.1094
 5856TIP3    H117532   2.348   2.570   1.123  0.6051 -0.2683 -1.4082
 5856TIP3    H217533   2.237   2.622   1.034 -0.4850  0.1617  0.1547
 5857TIP3   OH217534   1.874   4.262   5.539  0.7202 -0.0006  0.0228
 5857TIP3    H117535   1.957   4.272   5.492 -0.1120 -1.4696 -1.9270
 5857TIP3    H217536   1.854   4.349   5.572  2.9169  0.4342  0.3742
 5858TIP3   OH217537   2.776   5.617   4.967 -0.5845 -0.4517  0.5967
 5858TIP3    H117538   2.764   5.691   5.025 -0.7436 -0.3355  0.4157
 5858TIP3    H217539   2.852   5.570   5.003  0.1467  0.3545  0.1218
 5859TIP3   OH217540   0.758   1.913   2.064  0.2586 -0.4456  0.4450
 5859TIP3    H117541   0.667   1.940   2.070  0.1279 -0.4951 -0.8964
 5859TIP3    H217542   0.809   1.993   2.077 -0.0477 -0.0333 -0.7592
 5860TIP3   OH217543   5.514   4.832   2.639  0.6453  0.3389 -0.9826
 5860TIP3    H117544   5.441   4.891   2.659  3.0085  3.2851 -0.3786
 5860TIP3    H217545   5.510   4.820   2.544 -2.0351 -1.6852 -0.7152
 5861TIP3   OH217546   4.179   2.055   2.196 -0.3960  0.1616  0.1963
 5861TIP3    H117547   4.196   1.971   2.151 -2.6549 -1.1682  1.6330
 5861TIP3    H217548   4.219   2.044   2.282 -0.0035  0.8896  0.1073
 5862TIP3   OH217549   1.145   3.004   3.453  0.7093  0.2224 -1.3813
 5862TIP3    H117550   1.072   3.065   3.441  0.9455  0.7919 -0.1289
 5862TIP3    H217551   1.139   2.979   3.545  0.0015 -2.4849 -2.0843
 5863TIP3   OH217552   0.114   5.711   1.593  0.7361  0.1279 -0.2189
 5863TIP3    H117553   0.043   5.764   1.558 -0.2312 -1.1835 -0.2894
 5863TIP3    H217554   0.075   5.625   1.610  2.1411 -0.4345  0.3501
 5864TIP3   OH217555   0.873   0.887   0.486 -0.4124 -0.6074  0.1397
 5864TIP3    H117556   0.819   0.808   0.493 -0.5360 -0.6315 -0.8389
 5864TIP3    H217557   0.820   0.957   0.523 -1.6927 -0.3840 -1.9436
 5865TIP3   OH217558   3.665   1.705   4.378 -0.6738  0.3886 -0.0173
 5865TIP3    H117559   3.711   1.660   4.306 -2.5060  0.7415 -1.4916
 5865TIP3    H217560   3.625   1.634   4.429  2.1087  0.0101  1.8380
 5866TIP3   OH217561   5.276   2.483   5.115 -0.2041 -0.1450 -0.4260
 5866TIP3    H117562   5.241   2.441   5.037  1.3729 -2.5417  0.0402
 5866TIP3    H217563   5.263   2.419   5.185  0.6218  0.9201  0.7483
 5867TIP3   OH217564   1.699   2.436   0.193 -0.2151 -0.1359 -0.0659
 5867TIP3    H117565   1.635   2.407   0.258 -0.3385  1.2744  0.4923
 5867TIP3    H217566   1.716   2.527   0.216 -1.5170  0.9933 -2.9647
 5868TIP3   OH217567   2.027   1.172   2.223  0.4974 -0.5488  0.3607
 5868TIP3    H117568   1.996   1.245   2.169  1.5794 -0.3063  0.0479
 5868TIP3    H217569   2.087   1.212   2.286  0.7877 -1.1101  0.4493
 5869TIP3   OH217570   2.802   5.772   3.991 -0.0473 -0.1264 -0.0638
 5869TIP3    H117571   2.717   5.737   3.966  0.0147 -0.4503  0.1763
 5869TIP3    H217572   2.851   5.696   4.024  1.0840 -0.3541 -2.1335
 5870TIP3   OH217573   6.076   4.736   4.387  0.0218  0.4402  0.0363
 5870TIP3    H117574   5.988   4.748   4.423  0.4746  0.5711  1.1564
 5870TIP3    H217575   6.124   4.814   4.416  1.0214 -0.5443  1.1245
 5871TIP3   OH217576   1.257   5.895   3.940  0.2396 -0.5396  0.3482
 5871TIP3    H117577   1.249   5.985   3.970  0.5276 -0.3743 -0.0598
 5871TIP3    H217578   1.172   5.855   3.960 -0.2343  0.0888 -0.3396
 5872TIP3   OH217579   6.351   3.123   4.545 -0.1895 -0.0766 -0.7021
 5872TIP3    H117580   6.276   3.114   4.604 -1.0472 -0.5292 -1.8253
 5872TIP3    H217581   6.364   3.218   4.539 -1.0895  0.0393 -0.9939
 5873TIP3   OH217582   3.971   3.368   1.193  0.1227  0.3239  0.3537
 5873TIP3    H117583   3.881   3.364   1.225 -0.5036 -2.0862 -1.4023
 5873TIP3    H217584   3.962   3.382   1.098  1.5544 -0.3609  0.0862
 5874TIP3   OH217585   4.093   0.261   4.544  0.5246  0.1675 -0.1507
 5874TIP3    H117586   4.157   0.289   4.610  1.4864 -0.0524 -0.9653
 5874TIP3    H217587   4.014   0.312   4.563  1.6949  2.2223 -0.5521
 5875TIP3   OH217588   1.885   0.749   4.049 -0.3629  0.0177 -0.0303
 5875TIP3    H117589   1.898   0.732   3.956  1.3022 -1.7972  0.4724
 5875TIP3    H217590   1.894   0.664   4.090 -1.9905  0.6264  1.7532
 5876TIP3   OH217591   5.625   0.739   0.725  0.4171 -0.1398 -0.2206
 5876TIP3    H117592   5.573   0.767   0.800 -0.5335 -1.7359 -0.2395
 5876TIP3    H217593   5.660   0.820   0.688  2.7973  0.6564  3.2030
 5877TIP3   OH217594   6.362   4.169   2.813 -0.5146  0.3345 -0.2042
 5877TIP3    H117595   6.342   4.258   2.842  0.5651  0.7312 -0.5958
 5877TIP3    H217596   6.452   4.175   2.779  0.5962 -1.4616  2.1479
 5878TIP3   OH217597   3.318   0.251   0.455 -0.1357 -0.6663 -0.2220
 5878TIP3    H117598   3.306   0.305   0.533 -1.9475  1.1767 -1.6448
 5878TIP3    H217599   3.249   0.185   0.460  1.3539 -2.2067  0.9395
 5879TIP3   OH217600   3.571   4.724   3.250  0.0825  0.0948  0.7857
 5879TIP3    H117601   3.496   4.690   3.299 -0.4013  1.7848  1.2888
 5879TIP3    H217602   3.546   4.714   3.158 -0.6086  0.3058  0.9465
 5880TIP3   OH217603   0.933   3.582   0.896  0.1020  0.0350 -0.1514
 5880TIP3    H117604   0.926   3.623   0.810  1.0224 -0.4034 -0.4443
 5880TIP3    H217605   0.935   3.488   0.879 -1.8991 -0.1727  0.5109
 5881TIP3   OH217606   0.162   3.270   4.997 -0.1264  0.2651 -0.1565
 5881TIP3    H117607   0.138   3.268   4.905  0.0237  0.0088 -0.1924
 5881TIP3    H217608   0.123   3.190   5.034  0.0409  0.2264 -0.0590
 5882TIP3   OH217609   1.134   3.409   4.707 -0.2832 -0.3696  0.2118
 5882TIP3    H117610   1.205   3.360   4.667 -1.2920 -1.2491 -0.5627
 5882TIP3    H217611   1.072   3.343   4.736 -1.6923  0.4027 -0.8835
 5883TIP3   OH217612   3.284   5.898   5.399 -0.1902  0.4346 -0.3873
 5883TIP3    H117613   3.204   5.943   5.372 -1.3084 -0.4210  1.3182
 5883TIP3    H217614   3.325   5.869   5.318 -0.2743  3.0175 -1.4553
 5884TIP3   OH217615   1.322   1.837   2.116  0.3562 -0.0428 -0.1144
 5884TIP3    H117616   1.395   1.776   2.102 -0.0656 -0.6683  0.3849
 5884TIP3    H217617   1.355   1.921   2.082  0.2338 -0.9500 -2.6619
 5885TIP3   OH217618   5.041   5.696   1.714  0.2046 -0.2341  0.0429
 5885TIP3    H117619   4.951   5.727   1.721  0.3449  0.1375  0.2996
 5885TIP3    H217620   5.075   5.738   1.635  0.3117  0.0552  0.2403
 5886TIP3   OH217621   6.984   5.882   0.777 -0.1780 -0.6444  0.4801
 5886TIP3    H117622   6.994   5.943   0.850 -2.9975 -0.5963  0.9560
 5886TIP3    H217623   7.031   5.803   0.804  0.5083  0.0726  1.4333
 5887TIP3   OH217624   4.243   2.117   3.859 -0.0591  0.0901  0.1620
 5887TIP3    H117625   4.280   2.032   3.835 -1.4039 -0.8355  1.1990
 5887TIP3    H217626   4.318   2.169   3.888  0.6318 -1.2207  0.8143
 5888TIP3   OH217627   5.453   2.516   4.736  0.1301 -0.4140  0.0275
 5888TIP3    H117628   5.500   2.461   4.798  1.9058 -0.7003 -1.4731
 5888TIP3    H217629   5.496   2.499   4.652 -0.7173  1.6275 -0.8826
 5889TIP3   OH217630   1.572   3.704   1.757 -0.1607 -0.2670 -0.1787
 5889TIP3    H117631   1.653   3.675   1.801 -0.0547  1.4827  0.9063
 5889TIP3    H217632   1.543   3.779   1.809 -1.6322  0.1225 -1.4940
 5890TIP3   OH217633   3.876   3.097   1.953 -0.5234 -0.4761  0.1314
 5890TIP3    H117634   3.845   3.026   1.896 -1.2039 -0.1272  0.0591
 5890TIP3    H217635   3.911   3.052   2.030  0.9465 -0.9889 -0.7932
 5891TIP3   OH217636   2.018   0.643   1.220  0.4566  0.5090  0.1913
 5891TIP3    H117637   2.035   0.727   1.264  0.5111  0.2392  0.6958
 5891TIP3    H217638   2.019   0.579   1.291 -0.4664  0.1914 -0.0691
 5892TIP3   OH217639   1.194   4.385   2.885  0.2727  0.7423 -0.0541
 5892TIP3    H117640   1.130   4.409   2.818  1.9767  1.1875 -1.6113
 5892TIP3    H217641   1.191   4.456   2.948  0.2897  1.5188 -0.9152
 5893TIP3   OH217642   0.266   3.936   0.060  0.3310 -0.5300 -0.0025
 5893TIP3    H117643   0.263   4.023   0.019 -0.7473 -0.8553 -0.6446
 5893TIP3    H217644   0.348   3.898   0.030  0.8530  0.2860  0.3441
 5894TIP3   OH217645   4.011   2.892   0.440 -0.5702 -0.0415  0.1772
 5894TIP3    H117646   4.105   2.877   0.439 -0.7749 -1.7628 -1.7026
 5894TIP3    H217647   3.998   2.965   0.379 -0.4692  0.1163  0.3437
 5895TIP3   OH217648  -0.001   5.522   3.330  0.5436  0.2883  0.0464
 5895TIP3    H117649  -0.028   5.574   3.407 -0.4265 -1.1413  0.7156
 5895TIP3    H217650   0.087   5.491   3.352  1.1718  1.6637 -0.3952
 5896TIP3   OH217651   5.693   2.887   0.034 -0.3045 -0.5898  0.4848
 5896TIP3    H117652   5.647   2.828  -0.024  0.3470  1.4424 -2.3210
 5896TIP3    H217653   5.624   2.935   0.080 -0.8267 -2.9029  2.2864
 5897TIP3   OH217654   5.999   4.778   4.092 -0.0327 -0.4432 -0.6583
 5897TIP3    H117655   6.061   4.746   4.158 -0.7421 -0.6099 -0.0558
 5897TIP3    H217656   6.026   4.869   4.077 -0.6566  0.0285  0.8620
 5898TIP3   OH217657   2.773   5.586   1.973 -0.0332 -0.6238  0.6553
 5898TIP3    H117658   2.823   5.616   2.049 -2.0771  0.2956  1.7120
 5898TIP3    H217659   2.762   5.664   1.919 -1.8410 -0.3583  1.3521
 5899TIP3   OH217660   5.707   0.277   2.056  0.1917 -0.6611 -0.7403
 5899TIP3    H117661   5.661   0.245   2.133  0.3051  0.1323 -0.3291
 5899TIP3    H217662   5.719   0.200   2.001  0.0317 -1.2220 -0.0057
 5900TIP3   OH217663   0.713   0.648   5.000  0.1815 -0.0663  0.0953
 5900TIP3    H117664   0.639   0.652   5.061  0.7370 -2.2904  1.0341
 5900TIP3    H217665   0.698   0.567   4.951  1.8867 -0.4522  0.1738
 5901TIP3   OH217666   7.116   1.452   4.245 -0.0224  0.3497  0.1833
 5901TIP3    H117667   7.121   1.362   4.277  2.9465 -0.1900 -1.4075
 5901TIP3    H217668   7.167   1.503   4.309 -0.0619  0.5497  0.0566
 5902TIP3   OH217669   1.049   2.147   3.849 -0.3534  0.5325  0.3251
 5902TIP3    H117670   1.032   2.073   3.791  1.3218  0.8319 -0.6238
 5902TIP3    H217671   1.005   2.221   3.807  0.4315  0.6418 -0.3496
 5903TIP3   OH217672   5.498   1.703   5.003  0.2951  0.8737  0.6258
 5903TIP3    H117673   5.440   1.663   4.939  0.9092  1.0851 -0.0812
 5903TIP3    H217674   5.451   1.782   5.032 -0.3407  0.3460  1.0559
 5904TIP3   OH217675   4.478   3.558   0.038 -0.2564  0.2158  0.5346
 5904TIP3    H117676   4.384   3.545   0.045 -0.0344 -1.3474  0.8055
 5904TIP3    H217677   4.487   3.631  -0.024 -1.6726  1.5372  1.7973
 5905TIP3   OH217678   1.567   3.883   4.886  0.2734  0.2432 -0.2944
 5905TIP3    H117679   1.608   3.946   4.827  0.9418  0.0985  0.0006
 5905TIP3    H217680   1.627   3.878   4.961 -1.0277  1.1886  0.8808
 5906TIP3   OH217681   5.244   2.139   3.460  0.2919 -0.6941 -0.1309
 5906TIP3    H117682   5.272   2.067   3.516 -0.6038  1.9964  4.3033
 5906TIP3    H217683   5.148   2.135   3.461  0.2406  0.1422 -0.3965
 5907TIP3   OH217684   2.827   4.699   4.385 -0.1825  0.2271 -0.1412
 5907TIP3    H117685   2.788   4.765   4.443 -2.1305 -1.5821  0.7198
 5907TIP3    H217686   2.785   4.714   4.300  0.7582  1.2280 -0.4537
 5908TIP3   OH217687   5.044   4.996   1.063 -0.6764 -0.0976 -0.0320
 5908TIP3    H117688   5.055   5.007   1.157  0.8429 -0.0144 -0.1986
 5908TIP3    H217689   5.085   5.073   1.025 -0.6350 -0.4852 -0.7959
 5909TIP3   OH217690   5.669   1.074   4.274 -0.4247 -0.0507  0.3055
 5909TIP3    H117691   5.662   1.022   4.193 -1.8522  1.4355 -0.5909
 5909TIP3    H217692   5.751   1.122   4.264 -0.5295  0.0307 -0.2088
 5910TIP3   OH217693   4.583   5.345   2.800 -0.4694  0.6097 -0.1783
 5910TIP3    H117694   4.520   5.343   2.871  0.2733 -0.7558  0.4665
 5910TIP3    H217695   4.568   5.264   2.751  1.3354 -0.1937  0.5079
 5911TIP3   OH217696   1.269   0.200   0.500 -0.2141  0.2219  0.1979
 5911TIP3    H117697   1.289   0.106   0.498  1.5463  0.5332  1.3506
 5911TIP3    H217698   1.317   0.237   0.426 -0.3333  0.3191  0.1680
 5912TIP3   OH217699   4.021   4.360   0.631 -0.6336 -0.2812  0.3322
 5912TIP3    H117700   3.998   4.295   0.564  1.7887 -1.1504  0.2418
 5912TIP3    H217701   3.989   4.443   0.597 -0.2021 -0.8322 -1.5151
 5913TIP3   OH217702   4.342   2.965   0.725 -0.3121  0.3215  0.0033
 5913TIP3    H117703   4.319   3.055   0.700 -1.2890  0.2351  0.5164
 5913TIP3    H217704   4.424   2.973   0.773 -0.4469  0.9579  0.1410
 5914TIP3   OH217705   5.460   2.129   1.149 -0.1440 -0.6238  0.2994
 5914TIP3    H117706   5.461   2.077   1.069  0.9387  1.4941 -1.1532
 5914TIP3    H217707   5.545   2.111   1.190  0.5454  0.4595 -0.5818
 5915TIP3   OH217708   4.907   4.822   5.635  0.1619  0.9848 -0.1547
 5915TIP3    H117709   4.916   4.773   5.717 -1.2108 -1.2711 -1.2524
 5915TIP3    H217710   4.997   4.849   5.614  1.2657 -2.1392 -0.0171
 5916TIP3   OH217711   0.612   3.834   3.457 -0.0964  0.7791 -0.0003
 5916TIP3    H117712   0.657   3.834   3.372 -0.8878  0.2371 -0.4343
 5916TIP3    H217713   0.530   3.880   3.440  0.3994  2.0658  0.8630
 5917TIP3   OH217714   1.351   4.273   0.550 -0.5885  0.0969  0.0848
 5917TIP3    H117715   1.293   4.234   0.485 -0.7285  1.5008 -0.6530
 5917TIP3    H217716   1.407   4.201   0.578 -2.0490 -1.0770  0.1359
 5918TIP3   OH217717   1.167   3.050   4.093 -0.1144 -0.1048  0.3542
 5918TIP3    H117718   1.075   3.038   4.114 -0.1255 -0.1682  0.2693
 5918TIP3    H217719   1.191   2.971   4.044 -0.2192  0.2633 -0.3096
 5919TIP3   OH217720   5.109   6.382   3.040  0.3275 -0.3427 -0.5732
 5919TIP3    H117721   5.068   6.462   3.073  1.0181  0.1848 -0.9685
 5919TIP3    H217722   5.049   6.350   2.972 -1.6468 -2.0044  1.7779
 5920TIP3   OH217723   1.303   6.700   3.735 -0.4187 -0.0041 -0.2202
 5920TIP3    H117724   1.246   6.631   3.702 -1.7109  0.3618  1.1123
 5920TIP3    H217725   1.280   6.708   3.828 -2.2677  3.9318 -0.7983
 5921TIP3   OH217726   2.337   0.324   2.468  0.2712 -0.2630  0.5956
 5921TIP3    H117727   2.405   0.386   2.493  1.3395 -2.2380  3.0750
 5921TIP3    H217728   2.259   0.354   2.516  0.8998 -1.0109  2.1434
 5922TIP3   OH217729   6.674   1.387   4.380  0.0069  0.1262 -0.2506
 5922TIP3    H117730   6.711   1.413   4.465  0.4506  2.8926 -1.1928
 5922TIP3    H217731   6.748   1.391   4.320 -0.4019 -1.3734 -0.8998
 5923TIP3   OH217732   2.948   3.161   1.877  0.4178 -0.3458 -0.4059
 5923TIP3    H117733   2.877   3.161   1.941  0.7426  0.8049 -0.0233
 5923TIP3    H217734   2.904   3.161   1.792 -0.0184 -1.6988 -0.2035
 5924TIP3   OH217735   6.740   1.026   3.855  0.4136  0.4247 -0.0130
 5924TIP3    H117736   6.820   1.042   3.804  0.8626 -0.9798  0.2169
 5924TIP3    H217737   6.765   0.960   3.919 -0.7565  0.4916  0.5346
 5925TIP3   OH217738   2.929   5.567   3.320 -1.0475 -0.4082 -0.0340
 5925TIP3    H117739   2.879   5.493   3.284  1.8580 -2.0045 -1.1000
 5925TIP3    H217740   2.947   5.622   3.244  1.2046 -1.3982 -0.2906
 5926TIP3   OH217741   0.858   4.821   0.593  0.3942 -0.4370 -0.0312
 5926TIP3    H117742   0.875   4.853   0.682  2.2134 -0.0484 -0.4695
 5926TIP3    H217743   0.938   4.775   0.569  0.1981  0.0237 -1.7029
 5927TIP3   OH217744   3.670   5.617   0.369 -0.0424  0.1851  0.1443
 5927TIP3    H117745   3.656   5.531   0.331  0.3642  0.6934 -1.1970
 5927TIP3    H217746   3.642   5.608   0.461 -1.3250 -0.9927 -0.3300
 5928TIP3   OH217747   6.288   4.188   4.208  0.1432  0.4359  0.4527
 5928TIP3    H117748   6.304   4.133   4.132 -1.9160  0.8603 -0.3526
 5928TIP3    H217749   6.303   4.130   4.283 -1.2715 -1.0595 -0.3521
 5929TIP3   OH217750   3.292   1.182   0.706  0.2657  0.0411 -0.2406
 5929TIP3    H117751   3.208   1.163   0.748  0.5998  0.1169  0.4937
 5929TIP3    H217752   3.271   1.193   0.614 -0.7600  1.4762  0.1220
 5930TIP3   OH217753   6.691   0.520   2.268 -0.0015  0.0163 -0.5385
 5930TIP3    H117754   6.653   0.601   2.303 -0.2250 -0.7139  0.9866
 5930TIP3    H217755   6.634   0.496   2.195 -0.6080  0.6131 -0.2714
 5931TIP3   OH217756   3.551   4.637   3.566 -1.1517 -0.2446  0.0576
 5931TIP3    H117757   3.585   4.722   3.539 -1.3175 -0.5094 -1.0541
 5931TIP3    H217758   3.473   4.658   3.618 -2.5210  0.2886 -2.0806
 5932TIP3   OH217759   0.987   1.356   3.756 -0.1855  0.5636  0.1856
 5932TIP3    H117760   1.025   1.425   3.810  0.8549  0.0792  0.1098
 5932TIP3    H217761   1.055   1.336   3.691  0.3327 -1.7982  1.3419
 5933TIP3   OH217762   2.113   0.980   1.876  0.6879 -0.1800 -0.1915
 5933TIP3    H117763   2.021   1.006   1.887  0.7427  0.8244 -1.8515
 5933TIP3    H217764   2.110   0.907   1.815  0.9995 -0.1772 -0.2100
 5934TIP3   OH217765   1.975   2.654   3.388 -0.0355  0.2216 -0.2593
 5934TIP3    H117766   2.034   2.586   3.421 -0.8175  0.2406  1.2712
 5934TIP3    H217767   2.033   2.716   3.344  0.8902 -0.5804 -0.2151
 5935TIP3   OH217768   4.746   0.111   4.802 -0.0019  0.3944 -0.4771
 5935TIP3    H117769   4.819   0.074   4.752 -0.2100  0.6796 -0.9909
 5935TIP3    H217770   4.737   0.051   4.877  0.6723  0.2826 -0.4733
 5936TIP3   OH217771   4.000   5.063   3.725  0.2600 -0.2377 -0.2655
 5936TIP3    H117772   4.050   5.082   3.805  1.2170 -0.3222 -0.8353
 5936TIP3    H217773   3.921   5.117   3.734  0.8788  0.6198  0.2198
 5937TIP3   OH217774   3.744   4.354   3.002  0.5604 -0.3020  0.3773
 5937TIP3    H117775   3.729   4.264   3.032  1.5734 -0.6503 -0.1354
 5937TIP3    H217776   3.816   4.347   2.939  0.5777  0.8530  0.2516
 5938TIP3   OH217777   1.189   1.754   0.389 -0.2638 -0.3723  0.8083
 5938TIP3    H117778   1.152   1.830   0.435  0.4688  0.4469  0.0637
 5938TIP3    H217779   1.189   1.779   0.297 -0.9912 -1.7013  0.4190
 5939TIP3   OH217780   7.211   3.089   4.082  0.1229  0.2088 -0.3346
 5939TIP3    H117781   7.167   3.166   4.118  1.7197  0.9924  0.0600
 5939TIP3    H217782   7.227   3.033   4.158  1.0776  0.6103 -0.2240
 5940TIP3   OH217783   6.234   2.962   1.476 -0.4797  0.2934  0.2463
 5940TIP3    H117784   6.201   2.874   1.462 -1.5211  0.2428  2.6927
 5940TIP3    H217785   6.169   3.019   1.434 -0.9968 -0.0147  0.6277
 5941TIP3   OH217786   4.570   0.712   4.101  0.5130  0.2385  0.9019
 5941TIP3    H117787   4.610   0.739   4.018 -0.4066  2.5607  1.1327
 5941TIP3    H217788   4.619   0.758   4.168 -0.8093  1.0375  1.3698
 5942TIP3   OH217789   3.930   3.094   3.922  0.4641  0.1022  0.5561
 5942TIP3    H117790   3.898   3.013   3.962 -1.5347  0.6487  0.1944
 5942TIP3    H217791   4.024   3.095   3.940  0.6024 -2.4468  0.3049
 5943TIP3   OH217792   6.294   1.648   0.845 -0.2692 -0.4728  0.6282
 5943TIP3    H117793   6.342   1.567   0.858 -1.9109 -1.6122 -0.0946
 5943TIP3    H217794   6.209   1.621   0.810 -1.4098  1.4436  1.6912
 5944TIP3   OH217795   4.490  -0.022   1.260 -0.4554  0.4422  0.1049
 5944TIP3    H117796   4.445   0.049   1.306  1.6151 -0.2273  3.5230
 5944TIP3    H217797   4.583  -0.001   1.266  0.1291 -1.6542 -0.4149
 5945TIP3   OH217798   0.407   0.347   2.167 -1.1617  0.7732 -0.2749
 5945TIP3    H117799   0.495   0.325   2.198 -1.4485  0.7222  0.5315
 5945TIP3    H217800   0.374   0.264   2.131 -1.2849  0.5037  0.4326
 5946TIP3   OH217801   5.433   5.035   5.316  0.5841  0.0463 -0.0230
 5946TIP3    H117802   5.392   4.982   5.248  1.2830 -0.0744 -0.3492
 5946TIP3    H217803   5.514   4.990   5.338 -0.2188 -0.6260  1.8242
 5947TIP3   OH217804   6.806   6.584   1.606  0.8925 -0.6696  0.4958
 5947TIP3    H117805   6.786   6.668   1.564  0.9408 -0.0294  1.7132
 5947TIP3    H217806   6.902   6.578   1.602  0.8563 -0.9659 -0.1186
 5948TIP3   OH217807   0.966   1.942   4.588  0.0768 -0.4890 -0.2716
 5948TIP3    H117808   0.917   1.927   4.507  2.3178 -0.8765 -1.6587
 5948TIP3    H217809   0.910   1.906   4.657 -2.2508  0.5700 -1.5177
 5949TIP3   OH217810   6.241   0.188   5.786  0.1307  0.0100 -0.2911
 5949TIP3    H117811   6.219   0.112   5.732 -0.1895  0.7984 -1.2918
 5949TIP3    H217812   6.221   0.264   5.731  4.6140  0.8921 -1.0591
 5950TIP3   OH217813   4.531   2.886   2.451 -0.1407  0.0431 -0.3799
 5950TIP3    H117814   4.499   2.795   2.452  2.8948 -1.1649 -0.8286
 5950TIP3    H217815   4.547   2.905   2.359 -0.0465  0.7508 -0.2218
 5951TIP3   OH217816   3.946   0.443   4.729 -0.3920 -0.8008  0.3907
 5951TIP3    H117817   3.930   0.384   4.803 -1.1693 -0.8653  0.1752
 5951TIP3    H217818   3.985   0.521   4.768  0.0060 -1.1804  0.7629
 5952TIP3   OH217819   4.880   0.451   2.597 -0.0194  0.0628  0.2839
 5952TIP3    H117820   4.935   0.519   2.636  1.3587  0.2010 -1.7465
 5952TIP3    H217821   4.866   0.480   2.507 -0.5474 -1.6565 -0.2245
 5953TIP3   OH217822   5.380   0.492   0.955  0.4109  0.1122 -0.0041
 5953TIP3    H117823   5.475   0.498   0.959  0.5277 -1.7362  2.0338
 5953TIP3    H217824   5.354   0.468   1.044 -1.8436 -0.6524 -0.7924
 5954TIP3   OH217825   1.808   1.651   3.281  0.1415  0.1371 -0.3166
 5954TIP3    H117826   1.757   1.671   3.202  0.3016  0.2584 -0.3906
 5954TIP3    H217827   1.862   1.729   3.294  2.1123 -0.9069 -1.6497
 5955TIP3   OH217828   0.827   4.736   0.302  0.3726  0.3213 -0.0567
 5955TIP3    H117829   0.838   4.831   0.300  2.1054  0.1547 -0.1095
 5955TIP3    H217830   0.869   4.709   0.383 -0.5347 -0.3655  0.1946
 5956TIP3   OH217831   7.175   6.136   4.992 -0.0020  0.1672 -0.0580
 5956TIP3    H117832   7.154   6.108   5.081 -1.0227 -2.2918 -0.9830
 5956TIP3    H217833   7.103   6.195   4.967 -0.3931 -0.1571  0.3058
 5957TIP3   OH217834   3.869   2.588   0.270  0.1510  0.7036 -0.0854
 5957TIP3    H117835   3.948   2.636   0.296 -0.0084  0.5067  0.7773
 5957TIP3    H217836   3.798   2.630   0.319 -0.2044  0.5404 -0.4556
 5958TIP3   OH217837   1.408   1.728   2.469  0.0776 -0.2381 -0.0838
 5958TIP3    H117838   1.369   1.664   2.528 -1.3608  0.8383  0.1814
 5958TIP3    H217839   1.334   1.775   2.433  1.0411  0.3993 -1.3053
 5959TIP3   OH217840   3.635   4.017   1.618  0.3205 -0.8988  0.0531
 5959TIP3    H117841   3.711   3.962   1.603 -0.5410 -1.9826 -0.4755
 5959TIP3    H217842   3.570   3.958   1.656 -1.0164 -0.5480 -1.5704
 5960TIP3   OH217843   2.415   2.193   1.043 -0.4904 -0.1453  0.7541
 5960TIP3    H117844   2.381   2.127   0.983 -1.8655 -1.1709  2.5467
 5960TIP3    H217845   2.400   2.276   0.998  0.9363 -0.9587 -1.3910
 5961TIP3   OH217846   7.009   1.091   0.883  0.4473  0.2866 -0.6364
 5961TIP3    H117847   7.018   1.110   0.790  1.8698  0.3419 -0.5087
 5961TIP3    H217848   7.065   1.155   0.926  1.0148 -0.7073  0.1508
 5962TIP3   OH217849   3.212   0.801   1.142  0.1906 -0.5681 -0.3950
 5962TIP3    H117850   3.154   0.767   1.074  0.5293 -0.1681 -0.8926
 5962TIP3    H217851   3.158   0.804   1.221 -0.1470 -1.2298 -0.5944
 5963TIP3   OH217852   4.013   2.304   0.386 -0.3132 -0.0220 -0.0871
 5963TIP3    H117853   4.091   2.360   0.394  1.7238 -2.8099  1.0462
 5963TIP3    H217854   3.973   2.306   0.472 -0.9307  0.5553 -0.3755
 5964TIP3   OH217855   3.245   2.214   0.705  0.4587 -0.7749  0.2887
 5964TIP3    H117856   3.296   2.132   0.707 -0.0279 -1.0991 -0.2608
 5964TIP3    H217857   3.154   2.186   0.708  0.2561 -0.3146 -0.8073
 5965TIP3   OH217858   5.896   5.968   0.151 -0.1966  0.0539 -0.3018
 5965TIP3    H117859   5.945   5.903   0.101  1.0030  0.8004 -0.1438
 5965TIP3    H217860   5.907   5.942   0.242  0.7269  0.7422 -0.2019
 5966TIP3   OH217861   1.339   3.105   3.034 -0.4061  0.5316  0.5767
 5966TIP3    H117862   1.408   3.143   3.088 -0.8216  0.8353  0.9045
 5966TIP3    H217863   1.369   3.017   3.014 -0.5628  0.1636  1.9012
 5967TIP3   OH217864   4.260   1.612   2.473 -0.3450  0.0778 -0.3409
 5967TIP3    H117865   4.272   1.517   2.480 -0.6880  0.0920  0.6298
 5967TIP3    H217866   4.280   1.632   2.382 -2.0432 -1.1992 -1.0460
 5968TIP3   OH217867   6.497   5.341   5.692 -0.0301 -0.2370 -0.0428
 5968TIP3    H117868   6.482   5.378   5.779 -0.3020 -0.3533 -0.0415
 5968TIP3    H217869   6.446   5.396   5.632  3.3793  2.5722 -0.7388
 5969TIP3   OH217870   4.988   0.630   2.755  0.7920  0.5041 -0.2801
 5969TIP3    H117871   5.070   0.653   2.799  0.2048  0.9297  0.6027
 5969TIP3    H217872   4.959   0.712   2.715 -0.3423  0.8989  1.2949
 5970TIP3   OH217873   6.510   3.492   0.273  0.3200  0.0629  0.2258
 5970TIP3    H117874   6.422   3.462   0.248  0.2933 -1.0916  1.6410
 5970TIP3    H217875   6.520   3.575   0.225 -1.3732  0.0261 -0.2775
 5971TIP3   OH217876   2.757   2.402   5.470  0.1999  1.1387  0.0121
 5971TIP3    H117877   2.730   2.494   5.463  0.5533  1.3371  1.1801
 5971TIP3    H217878   2.689   2.354   5.422  0.1693  2.0263 -0.8669
 5972TIP3   OH217879   6.763   4.097   0.494 -0.7577 -0.1436  0.3178
 5972TIP3    H117880   6.675   4.089   0.532  0.0127 -1.7732  1.8455
 5972TIP3    H217881   6.804   4.012   0.508  1.6216  1.0286  1.0231
 5973TIP3   OH217882   5.196   0.840   3.921 -0.3743 -0.3315  0.7562
 5973TIP3    H117883   5.290   0.841   3.904 -0.2652 -0.8713  1.2716
 5973TIP3    H217884   5.163   0.766   3.869 -0.7094  0.5316 -0.3097
 5974TIP3   OH217885   1.082   0.255   2.288  0.6667  0.0651  0.2132
 5974TIP3    H117886   1.156   0.296   2.333  0.5786  0.5960 -0.1178
 5974TIP3    H217887   1.084   0.163   2.317  0.6056  0.3979  1.3008
 5975TIP3   OH217888   0.690   0.170   1.146 -0.2157  1.0079 -0.3419
 5975TIP3    H117889   0.646   0.251   1.119 -0.8270  0.5652 -0.7165
 5975TIP3    H217890   0.781   0.182   1.120  0.1172  2.3153  1.2637
 5976TIP3   OH217891   5.557   0.500   1.338 -0.0567 -0.5751  0.6897
 5976TIP3    H117892   5.632   0.552   1.367 -1.4741  0.8528  1.9504
 5976TIP3    H217893   5.592   0.411   1.331  2.1919  0.2900 -0.5601
 5977TIP3   OH217894   4.205   0.883   4.166 -0.6773 -0.2627  0.4508
 5977TIP3    H117895   4.259   0.915   4.238 -1.1004 -0.3653  0.8142
 5977TIP3    H217896   4.130   0.942   4.162 -1.1914 -0.8858  0.7837
 5978TIP3   OH217897   4.237   5.430   3.273  0.5601 -0.3276  0.2704
 5978TIP3    H117898   4.305   5.373   3.310  1.2543 -0.1314 -0.6650
 5978TIP3    H217899   4.172   5.439   3.344  0.6144 -1.9632  0.5781
 5979TIP3   OH217900   3.874   5.769   4.796  0.3466  0.1061  0.0175
 5979TIP3    H117901   3.885   5.862   4.816  0.2567  0.4014 -1.1930
 5979TIP3    H217902   3.818   5.768   4.718 -2.3618 -1.0859  1.8031
 5980TIP3   OH217903   4.312   5.859   3.137 -0.0063  0.1511 -0.0506
 5980TIP3    H117904   4.323   5.799   3.063 -1.3536 -0.2579  0.0477
 5980TIP3    H217905   4.220   5.886   3.133 -0.2212 -0.1658  1.6780
 5981TIP3   OH217906   1.653   3.747   2.772  0.0105  0.6315 -0.4283
 5981TIP3    H117907   1.580   3.697   2.808  0.3477  0.7377  0.4204
 5981TIP3    H217908   1.731   3.704   2.807  0.3395  0.9680 -0.7398
 5982TIP3   OH217909  -0.004   3.235   5.855 -0.2237 -0.1653  0.1301
 5982TIP3    H117910   0.026   3.291   5.784 -1.0356  0.0390 -0.0703
 5982TIP3    H217911   0.070   3.230   5.915 -1.1209  3.9521  1.9444
 5983TIP3   OH217912   0.200   0.031   0.490  0.0768 -0.6024  0.1853
 5983TIP3    H117913   0.239  -0.019   0.418  0.4313  1.2117 -0.9488
 5983TIP3    H217914   0.151   0.100   0.447 -0.1741  0.1959  1.6981
 5984TIP3   OH217915   1.522   1.400   2.510  0.2204 -0.4496 -0.6718
 5984TIP3    H117916   1.538   1.488   2.543  0.8813  0.2108 -2.6090
 5984TIP3    H217917   1.471   1.358   2.579  0.2247  1.3107  0.4801
 5985TIP3   OH217918   6.283   3.224   3.485  0.5522 -0.3102 -0.1189
 5985TIP3    H117919   6.249   3.273   3.410 -0.7737  1.3944  1.4962
 5985TIP3    H217920   6.374   3.252   3.492  0.4474  0.1729 -0.5850
 5986TIP3   OH217921   1.547   3.834   1.024  0.3823  0.4330  0.2901
 5986TIP3    H117922   1.465   3.784   1.023  0.2209  0.6941 -0.8937
 5986TIP3    H217923   1.519   3.926   1.030  0.4691  0.6583 -1.8655
 5987TIP3   OH217924   0.824   0.474   4.672  0.0016 -0.1806 -0.2544
 5987TIP3    H117925   0.782   0.436   4.749  0.1701 -1.3635 -0.7237
 5987TIP3    H217926   0.772   0.442   4.598  1.6965 -1.7358 -0.8589
 5988TIP3   OH217927   1.910   4.337   4.512 -0.3678  0.1584 -0.4854
 5988TIP3    H117928   1.847   4.275   4.548 -1.2096  1.4018  0.2855
 5988TIP3    H217929   1.989   4.325   4.565 -0.2850 -0.6818 -0.7768
 5989TIP3   OH217930   2.476   2.663   2.475 -0.1723 -0.4460  0.1005
 5989TIP3    H117931   2.403   2.616   2.513 -0.7103 -0.5824 -1.0662
 5989TIP3    H217932   2.444   2.753   2.464  0.2677 -0.2012  0.7264
 5990TIP3   OH217933   2.825   1.795   5.701  0.6212  0.2406  0.3135
 5990TIP3    H117934   2.913   1.762   5.685  0.8421 -0.0403  1.8707
 5990TIP3    H217935   2.794   1.824   5.616  1.4595 -1.5031 -0.6560
 5991TIP3   OH217936   4.763   3.453   5.140 -0.1090 -0.5316  0.1209
 5991TIP3    H117937   4.805   3.449   5.226 -0.1156 -0.7048  0.1163
 5991TIP3    H217938   4.747   3.547   5.125  1.7679 -0.2591 -0.5870
 5992TIP3   OH217939   6.798   5.568   4.096 -0.1989 -0.3062  0.2964
 5992TIP3    H117940   6.770   5.497   4.039 -0.2472  0.8440 -1.1699
 5992TIP3    H217941   6.731   5.571   4.165 -1.7084  0.0534 -1.1403
 5993TIP3   OH217942   1.035   6.269   4.302 -0.6259  0.0542  0.4934
 5993TIP3    H117943   0.967   6.333   4.281 -0.1689  0.2148 -0.5333
 5993TIP3    H217944   1.110   6.320   4.331 -0.4298 -0.0426  0.1597
 5994TIP3   OH217945   6.582   5.682   4.661 -0.0691 -0.3454 -0.0499
 5994TIP3    H117946   6.649   5.617   4.640 -0.4726 -1.0423  0.7771
 5994TIP3    H217947   6.516   5.671   4.592 -1.0990 -2.2107  1.1740
 5995TIP3   OH217948   0.186   2.858   2.785 -0.2141  0.4759  0.1484
 5995TIP3    H117949   0.249   2.882   2.853 -0.4479  0.0237  0.5339
 5995TIP3    H217950   0.136   2.785   2.823 -0.8293  0.6892 -0.2257
 5996TIP3   OH217951   4.299   4.245   5.439  0.1406  0.0367  0.0091
 5996TIP3    H117952   4.242   4.269   5.366  0.2369  0.9226  0.2156
 5996TIP3    H217953   4.243   4.194   5.497  0.5180 -2.3014 -1.5126
 5997TIP3   OH217954   0.058   4.185   2.503 -0.0902  0.1691 -0.2578
 5997TIP3    H117955  -0.015   4.211   2.448 -0.9688  0.6826  1.0968
 5997TIP3    H217956   0.124   4.151   2.442 -1.0034  0.7382 -1.5959
 5998TIP3   OH217957   4.722   4.579   5.635 -0.6727 -0.1007 -0.0842
 5998TIP3    H117958   4.642   4.526   5.635 -1.7376  1.3954  1.0901
 5998TIP3    H217959   4.743   4.591   5.543 -1.3661 -1.1460 -0.3983
 5999TIP3   OH217960   6.110   5.957   5.749 -0.1802 -0.1584  0.3109
 5999TIP3    H117961   6.113   6.029   5.812 -0.3183  0.8962 -0.8361
 5999TIP3    H217962   6.019   5.928   5.749 -0.2230 -0.0261  0.4616
 6000TIP3   OH217963   2.516   2.646   3.744 -0.4023 -0.0587  0.2801
 6000TIP3    H117964   2.525   2.552   3.726 -1.6793 -0.6518  2.4252
 6000TIP3    H217965   2.445   2.674   3.687 -0.9860 -0.7348  0.6601
 6001TIP3   OH217966   4.290   5.377   4.408 -0.2035 -0.3379 -0.4793
 6001TIP3    H117967   4.214   5.359   4.353 -0.1702  2.0948 -1.4048
 6001TIP3    H217968   4.336   5.293   4.412 -1.0541 -1.0061 -2.8485
 6002TIP3   OH217969   1.970   2.709   5.188  0.1362 -0.7590 -0.1610
 6002TIP3    H117970   1.906   2.772   5.153  1.1599  0.8813  0.7878
 6002TIP3    H217971   2.020   2.681   5.112 -1.3011 -1.6323 -0.8327
 6003TIP3   OH217972   3.351   2.073   0.262 -0.3563  0.2994  0.3421
 6003TIP3    H117973   3.344   2.007   0.331  0.0966 -0.4731 -0.3351
 6003TIP3    H217974   3.407   2.032   0.196  0.7904  1.7670  0.3672
 6004TIP3   OH217975   0.083   4.989   5.841 -0.0855  0.1725 -0.1591
 6004TIP3    H117976  -0.013   4.989   5.839 -0.1125  1.1005 -2.3539
 6004TIP3    H217977   0.108   4.909   5.794  0.1867  0.6171 -0.7804
 6005TIP3   OH217978   4.884   2.422   3.274 -0.5024 -0.5499  0.1532
 6005TIP3    H117979   4.834   2.463   3.344  2.2561  0.1740  1.8262
 6005TIP3    H217980   4.909   2.337   3.308  1.0319 -0.1159  0.1978
 6006TIP3   OH217981   6.745   0.400   5.867  0.0803  0.3132  0.1194
 6006TIP3    H117982   6.797   0.321   5.851 -0.3074  0.3740 -1.5873
 6006TIP3    H217983   6.657   0.367   5.885  0.2497  0.3045  0.9778
 6007TIP3   OH217984   2.262   6.161   1.384 -0.4083  0.1628  0.0165
 6007TIP3    H117985   2.266   6.250   1.418  1.3339  0.2135 -0.2560
 6007TIP3    H217986   2.351   6.127   1.393 -0.8791 -1.3116 -0.5368
 6008TIP3   OH217987   2.296   1.953   0.886  0.0702  0.0306 -0.1541
 6008TIP3    H117988   2.225   1.895   0.860  0.3689  0.0694 -1.0954
 6008TIP3    H217989   2.369   1.895   0.907  0.3232  0.0424 -0.9562
 6009TIP3   OH217990   6.715   1.149   5.493  0.0466 -0.1270 -0.5340
 6009TIP3    H117991   6.659   1.226   5.490 -0.5840 -0.5928 -1.1152
 6009TIP3    H217992   6.797   1.180   5.530 -0.1048  0.8696 -1.0075
 6010TIP3   OH217993   5.393   0.539   2.275  0.0731 -0.0511 -0.1827
 6010TIP3    H117994   5.404   0.633   2.258  2.5693 -0.3163 -0.4525
 6010TIP3    H217995   5.395   0.499   2.188  0.7398 -0.4612  0.0134
 6011TIP3   OH217996   3.993   0.037   4.661  0.6748 -0.0318  0.2056
 6011TIP3    H117997   4.062  -0.022   4.690  0.3488 -2.7419 -3.7333
 6011TIP3    H217998   4.037   0.098   4.602  0.0743 -0.4141 -0.6597
 6012TIP3   OH217999   3.241   4.837   3.857  0.5833 -0.1486 -0.1093
 6012TIP3    H118000   3.182   4.912   3.855  2.1566  1.1547 -0.0994
 6012TIP3    H218001   3.193   4.769   3.903 -0.6663  1.0533  0.4178
 6013TIP3   OH218002   1.045   5.413   4.307  0.0857 -0.5535 -0.2480
 6013TIP3    H118003   1.070   5.463   4.384 -0.1264 -0.7137 -0.0761
 6013TIP3    H218004   1.126   5.370   4.279 -0.3434 -2.6501  1.4515
 6014TIP3   OH218005   5.409   6.139   4.315 -0.1011 -0.3067 -0.1374
 6014TIP3    H118006   5.354   6.061   4.322 -0.2027 -0.4147 -1.6349
 6014TIP3    H218007   5.347   6.212   4.320 -0.0476 -0.3277  0.9092
 6015TIP3   OH218008   0.687   1.168   0.310  0.2639  0.0354 -0.0038
 6015TIP3    H118009   0.683   1.182   0.405 -0.2413  2.3664 -0.3045
 6015TIP3    H218010   0.777   1.192   0.287 -0.1866  1.5368 -0.3358
 6016TIP3   OH218011   1.936   5.454   0.179  0.4039  0.0889 -0.2742
 6016TIP3    H118012   1.867   5.477   0.118 -0.0465  0.8568  0.5038
 6016TIP3    H218013   2.007   5.515   0.159 -0.0555  0.8932  0.5004
 6017TIP3   OH218014   4.778   2.796   4.030  0.6441  0.0927 -0.3161
 6017TIP3    H118015   4.795   2.863   3.964  0.7854 -0.2000 -0.5796
 6017TIP3    H218016   4.831   2.823   4.106  0.7727  0.2291 -0.4544
 6018TIP3   OH218017   0.868   6.506   5.498  0.3204 -0.1897  0.2221
 6018TIP3    H118018   0.928   6.434   5.516 -0.2076 -0.3817  1.2939
 6018TIP3    H218019   0.784   6.476   5.533  0.4100  1.5147  2.0277
 6019TIP3   OH218020   1.673   1.264   2.806 -0.3866 -0.5426  0.7788
 6019TIP3    H118021   1.611   1.232   2.872  0.2803 -0.5682  1.4108
 6019TIP3    H218022   1.658   1.359   2.803  0.8443 -0.2384  2.3762
 6020TIP3   OH218023   7.161   1.277   3.955  0.2990 -0.1863 -0.3223
 6020TIP3    H118024   7.084   1.298   3.903  0.9578  0.2458 -1.1543
 6020TIP3    H218025   7.226   1.342   3.929  0.6093  0.1338  1.1643
 6021TIP3   OH218026   2.649   5.681   0.921 -0.1932  0.0954 -0.0590
 6021TIP3    H118027   2.703   5.758   0.905 -0.0752 -0.3370 -1.9503
 6021TIP3    H218028   2.668   5.623   0.847 -1.3774 -1.1183  0.5603
 6022TIP3   OH218029   5.122   1.759   0.667  0.1196  0.5480  0.3471
 6022TIP3    H118030   5.039   1.737   0.710  0.3882  0.9154  1.0826
 6022TIP3    H218031   5.119   1.714   0.583 -0.3787 -0.2834  0.8002
 6023TIP3   OH218032   7.143   4.507   1.785 -0.0891 -0.3622  0.1683
 6023TIP3    H118033   7.066   4.451   1.778  0.1209 -0.5426 -0.7506
 6023TIP3    H218034   7.212   4.449   1.818 -0.3440 -0.1875  1.0459
 6024TIP3   OH218035   4.307   6.601   1.454  0.3678  0.0084  0.1930
 6024TIP3    H118036   4.331   6.691   1.432  0.1487  0.2407  0.8569
 6024TIP3    H218037   4.280   6.606   1.546 -1.6068 -0.3530 -0.3252
 6025TIP3   OH218038   2.774   2.279   5.711 -0.2649 -0.1127  0.6939
 6025TIP3    H118039   2.688   2.315   5.735  1.1418  3.9942  0.3480
 6025TIP3    H218040   2.785   2.303   5.619  0.9776 -1.2424  0.5267
 6026TIP3   OH218041   1.407   6.424   3.948  0.2463 -0.1971 -0.3358
 6026TIP3    H118042   1.472   6.481   3.989 -0.0970 -0.7611  1.0576
 6026TIP3    H218043   1.324   6.472   3.956 -0.0301 -0.8071  0.7758
 6027TIP3   OH218044   0.565   3.991   2.049 -0.2929 -0.3730  0.6715
 6027TIP3    H118045   0.646   3.944   2.066 -0.8761 -1.5776  0.1951
 6027TIP3    H218046   0.524   3.945   1.976 -1.5614  0.0133  1.1017
 6028TIP3   OH218047   6.657   4.075   5.104 -0.0323  0.0287  0.7146
 6028TIP3    H118048   6.690   4.105   5.019 -1.3787 -0.5309 -0.0443
 6028TIP3    H218049   6.686   3.984   5.109  0.6640  0.2688  1.2046
 6029TIP3   OH218050   4.446   0.084   4.898 -0.3274  0.2468 -0.6869
 6029TIP3    H118051   4.425   0.000   4.939  1.2310 -0.7510 -1.7775
 6029TIP3    H218052   4.467   0.061   4.807 -3.3792  2.3183 -2.0647
 6030TIP3   OH218053   5.124   1.505   5.625  0.3722  0.1160 -0.0461
 6030TIP3    H118054   5.162   1.592   5.609  1.3735 -0.3898 -0.4984
 6030TIP3    H218055   5.171   1.447   5.566  0.5130 -0.9384  1.0663
 6031TIP3   OH218056   2.849   6.262   3.377  0.1999 -0.4321 -0.6181
 6031TIP3    H118057   2.893   6.254   3.292  0.0520 -1.3770 -0.6189
 6031TIP3    H218058   2.920   6.275   3.440  0.4783 -1.6088 -0.6625
 6032TIP3   OH218059   2.091   0.905   5.656 -0.5071  0.3395 -0.1385
 6032TIP3    H118060   2.077   0.999   5.665 -1.5514  0.3951 -1.8413
 6032TIP3    H218061   2.182   0.891   5.680 -0.5742  1.6494  0.9574
 6033TIP3   OH218062   3.817   1.741   0.592 -0.2177 -0.5102  0.4449
 6033TIP3    H118063   3.889   1.678   0.603 -0.3168 -0.6316  0.3973
 6033TIP3    H218064   3.776   1.716   0.509  2.8212  2.6760 -2.3349
 6034TIP3   OH218065   0.806   0.204   2.344  0.2207  0.4659 -0.4606
 6034TIP3    H118066   0.812   0.190   2.250 -0.8249 -0.4818 -0.3998
 6034TIP3    H218067   0.894   0.234   2.369  1.3675 -1.9752 -1.2906
 6035TIP3   OH218068   3.137   2.246   0.251 -0.3952  0.3913  0.4090
 6035TIP3    H118069   3.219   2.206   0.224 -0.1817  1.0384  0.0890
 6035TIP3    H218070   3.092   2.177   0.301 -1.3208 -1.2490 -2.4739
 6036TIP3   OH218071   3.768   2.613   5.884  0.0116  0.1746  0.1380
 6036TIP3    H118072   3.758   2.601   5.790  1.7743 -0.2842 -0.0215
 6036TIP3    H218073   3.685   2.652   5.912 -0.9015 -0.5315 -1.4377
 6037TIP3   OH218074   2.665   4.588   5.444 -0.2441 -0.1681 -0.0972
 6037TIP3    H118075   2.691   4.674   5.477  4.4107  0.6153 -4.4691
 6037TIP3    H218076   2.602   4.607   5.375  2.3718  0.3081 -2.5665
 6038TIP3   OH218077   0.103   3.652   5.705 -0.2627 -0.1539 -0.0656
 6038TIP3    H118078   0.171   3.693   5.758 -0.9038  1.3468 -0.3690
 6038TIP3    H218079   0.021   3.670   5.752 -0.5680 -1.0355 -0.2439
 6039TIP3   OH218080   0.847   5.476   2.671  0.3789  0.2961  0.4584
 6039TIP3    H118081   0.901   5.505   2.745 -0.1691  1.4724  0.4247
 6039TIP3    H218082   0.779   5.422   2.712  1.4514 -1.0734  0.5161
 6040TIP3   OH218083   6.675   0.459   5.542  0.0076  0.4824  0.2878
 6040TIP3    H118084   6.631   0.387   5.589 -0.1749  1.1203  1.1225
 6040TIP3    H218085   6.703   0.519   5.611  1.0349  0.7373 -0.3307
 6041TIP3   OH218086   1.794   2.688   2.396  0.0482 -0.1701 -0.4103
 6041TIP3    H118087   1.726   2.627   2.367 -0.9495  1.3894 -1.5143
 6041TIP3    H218088   1.867   2.671   2.336  0.2609 -1.1010  0.0834
 6042TIP3   OH218089   0.424   2.229   0.474 -0.2132  0.0553 -0.5139
 6042TIP3    H118090   0.345   2.183   0.502 -0.3527  0.2187 -0.6307
 6042TIP3    H218091   0.446   2.286   0.548  2.0016 -2.6963  1.1351
 6043TIP3   OH218092   5.527   4.069   2.275 -0.5124 -0.5347  0.9563
 6043TIP3    H118093   5.580   4.144   2.301 -0.6028 -0.5922  1.3063
 6043TIP3    H218094   5.437   4.095   2.294 -0.8436  0.3268 -1.4070
 6044TIP3   OH218095   2.235   5.120   0.753 -0.3446 -0.0084  0.0131
 6044TIP3    H118096   2.157   5.153   0.797 -0.3836 -1.6087  1.2005
 6044TIP3    H218097   2.223   5.144   0.661 -0.4952  2.9938  0.6869
 6045TIP3   OH218098   0.752   0.307   0.868  0.3198 -0.4950  1.1651
 6045TIP3    H118099   0.833   0.264   0.893  2.6093  2.6179 -0.3183
 6045TIP3    H218100   0.728   0.360   0.945  0.7466  0.0212  0.9430
 6046TIP3   OH218101   3.897   5.520   4.940 -0.2920  0.1145 -0.0559
 6046TIP3    H118102   3.891   5.447   4.879  0.4963  1.3379 -1.6544
 6046TIP3    H218103   3.869   5.597   4.890 -2.4722  0.7741  1.9762
 6047TIP3   OH218104   6.165   1.992   0.803  0.6296 -0.0188 -0.6806
 6047TIP3    H118105   6.192   2.084   0.804  0.5895 -0.0020  0.8188
 6047TIP3    H218106   6.138   1.973   0.893  3.0020 -2.1934 -0.2989
 6048TIP3   OH218107   1.772   0.607   2.476  0.2720  0.3575 -0.3847
 6048TIP3    H118108   1.738   0.634   2.561  1.3718 -0.9679  0.5278
 6048TIP3    H218109   1.695   0.573   2.429 -0.2281  0.4758  0.3356
 6049TIP3   OH218110   1.667   2.679   5.568  0.2417 -0.2793  1.1411
 6049TIP3    H118111   1.685   2.766   5.603 -0.1999  0.9947 -1.5164
 6049TIP3    H218112   1.585   2.653   5.610 -0.8881  1.6724  0.2882
 6050TIP3   OH218113   4.831   3.323   2.110 -0.7912 -0.4963  0.1163
 6050TIP3    H118114   4.754   3.316   2.054 -0.2523 -0.3051 -0.6707
 6050TIP3    H218115   4.886   3.250   2.083 -0.0641  0.2076 -0.3571
 6051TIP3   OH218116   0.520   0.907   3.155 -0.3385 -0.0988  1.2247
 6051TIP3    H118117   0.428   0.900   3.130 -0.2050  1.1143  0.3253
 6051TIP3    H218118   0.568   0.870   3.081 -0.0116  2.0263  0.2960
 6052TIP3   OH218119   5.595   3.854   3.718  0.0530  0.6829  0.4473
 6052TIP3    H118120   5.584   3.869   3.625 -3.2903  0.4723  0.6725
 6052TIP3    H218121   5.565   3.764   3.732  2.8838 -0.1979  1.4597
 6053TIP3   OH218122   0.458   0.727   4.759  0.1143 -0.5369 -0.6636
 6053TIP3    H118123   0.499   0.801   4.804  3.4002 -2.1773 -0.6036
 6053TIP3    H218124   0.385   0.702   4.815  0.8268  0.7689  0.9250
 6054TIP3   OH218125   6.104   3.842  -0.021 -0.5298  0.3476  0.2925
 6054TIP3    H118126   6.056   3.843   0.061  0.1613 -0.3102  0.7213
 6054TIP3    H218127   6.164   3.916  -0.015 -1.8772  1.5727 -0.5175
 6055TIP3   OH218128   5.794   3.396   1.592  0.4161  0.3081 -0.3755
 6055TIP3    H118129   5.862   3.463   1.595 -0.1440  0.9807 -1.9749
 6055TIP3    H218130   5.811   3.348   1.511 -2.2409  1.9008 -2.0336
 6056TIP3   OH218131   4.320   3.315   2.566  0.0779  0.2962 -0.4172
 6056TIP3    H118132   4.338   3.222   2.554 -0.3618  0.2482 -0.7486
 6056TIP3    H218133   4.259   3.318   2.640  0.4585  0.3607 -0.1021
 6057TIP3   OH218134   4.410   2.339   5.495  0.0034 -0.1918  0.2402
 6057TIP3    H118135   4.453   2.335   5.581  0.0069 -0.4359  0.2278
 6057TIP3    H218136   4.357   2.259   5.491  0.1246 -0.2578 -0.0506
 6058TIP3   OH218137   0.822   1.111   3.414 -0.2630  0.2123 -0.5667
 6058TIP3    H118138   0.809   1.202   3.440  0.7620  1.4645 -3.9307
 6058TIP3    H218139   0.799   1.109   3.321 -0.0755 -2.9554 -0.6515
 6059TIP3   OH218140   5.888  -0.001   1.457 -0.6527  0.0313  0.4493
 6059TIP3    H118141   5.911   0.075   1.404  1.4489 -0.5945  0.3836
 6059TIP3    H218142   5.931   0.013   1.541 -1.2041 -0.5520  0.8434
 6060TIP3   OH218143   6.677   2.034   1.237 -0.1080 -0.1781 -0.9697
 6060TIP3    H118144   6.583   2.029   1.217 -0.3194 -0.2165 -0.0530
 6060TIP3    H218145   6.681   2.024   1.332  0.9995 -2.8232 -1.1975
 6061TIP3   OH218146   0.591   1.102   3.711 -0.1488  0.3600 -0.3462
 6061TIP3    H118147   0.647   1.179   3.722  0.0815  0.5026 -2.1701
 6061TIP3    H218148   0.652   1.028   3.709 -0.0729  0.4358 -1.5027
 6062TIP3   OH218149   1.250   6.097   4.970  0.2171 -0.2199  0.3236
 6062TIP3    H118150   1.344   6.098   4.988  0.0820  0.0519  1.0313
 6062TIP3    H218151   1.237   6.168   4.907  0.5328 -0.4783 -0.0386
 6063TIP3   OH218152   2.263   6.067   3.079 -0.0210 -0.0142  0.2240
 6063TIP3    H118153   2.267   6.161   3.096 -0.2650 -0.0356  0.4103
 6063TIP3    H218154   2.201   6.058   3.006 -0.7038 -0.1007  0.8045
 6064TIP3   OH218155   5.125   6.779   3.786 -0.1395  0.0382  0.1709
 6064TIP3    H118156   5.102   6.695   3.825  0.0604 -0.0420  0.1159
 6064TIP3    H218157   5.217   6.771   3.763 -0.6258 -0.5194 -1.8323
 6065TIP3   OH218158   5.987   4.180   3.005 -0.4470 -0.1388  0.4179
 6065TIP3    H118159   5.987   4.200   3.098  2.1038 -0.0647  0.4944
 6065TIP3    H218160   6.063   4.227   2.970  0.4586 -2.4871 -1.0827
 6066TIP3   OH218161   6.549   4.275   0.935 -0.1695 -0.3059 -0.2724
 6066TIP3    H118162   6.520   4.270   1.026 -0.5032 -0.8599 -0.4062
 6066TIP3    H218163   6.520   4.193   0.896  1.7295 -0.9755 -0.3757
 6067TIP3   OH218164   3.424   2.811   1.432  0.8251 -0.2360  0.8632
 6067TIP3    H118165   3.501   2.861   1.460  1.3058  0.0027 -0.8086
 6067TIP3    H218166   3.445   2.782   1.344 -0.8861 -0.4208  0.4885
 6068TIP3   OH218167   1.367   4.267   4.749  0.0077 -0.2101 -0.2384
 6068TIP3    H118168   1.352   4.221   4.666  0.6424  1.5169 -1.3652
 6068TIP3    H218169   1.459   4.249   4.769 -0.4114 -1.4635  0.6647
 6069TIP3   OH218170   3.481   0.627   3.688  0.3391 -0.1468 -0.6536
 6069TIP3    H118171   3.406   0.675   3.654 -1.1556  0.2175  2.7158
 6069TIP3    H218172   3.473   0.539   3.651 -1.3379  0.1089 -0.9400
 6070TIP3   OH218173   3.526   5.506   5.729  0.2561  0.0360  0.0286
 6070TIP3    H118174   3.546   5.576   5.790 -0.5379  0.3123 -0.0108
 6070TIP3    H218175   3.443   5.469   5.760  0.0215 -0.0514 -0.6624
 6071TIP3   OH218176   2.514   4.015   3.078 -0.2344  0.1945  0.3524
 6071TIP3    H118177   2.576   3.948   3.105 -0.4192  0.8905  2.7639
 6071TIP3    H218178   2.444   3.968   3.033  0.2333 -1.0941  0.9377
 6072TIP3   OH218179   0.078   1.988   1.836 -0.1749  0.4073 -0.6865
 6072TIP3    H118180   0.126   2.056   1.789 -1.8697  2.4544  0.3782
 6072TIP3    H218181   0.094   2.007   1.928 -1.8209  0.2548 -0.3449
 6073TIP3   OH218182   3.697   2.120   3.907 -0.1973  0.0171  0.4307
 6073TIP3    H118183   3.736   2.192   3.957 -0.1803  0.3247 -0.0148
 6073TIP3    H218184   3.765   2.052   3.906 -0.7240 -0.5508  2.0013
 6074TIP3   OH218185   4.430   1.425   0.159  0.6285  0.2437 -0.7391
 6074TIP3    H118186   4.512   1.439   0.207  0.4370  1.9885 -0.8342
 6074TIP3    H218187   4.419   1.330   0.158  1.3021  0.0600  1.5336
 6075TIP3   OH218188   0.078   6.154   1.622  0.6652  0.0879 -0.0512
 6075TIP3    H118189   0.108   6.074   1.665 -0.5499 -0.1276  0.4495
 6075TIP3    H218190   0.003   6.182   1.674  0.4705  1.0078 -0.8018
 6076TIP3   OH218191   3.419   1.234   5.232  0.1089 -0.5207  0.4917
 6076TIP3    H118192   3.401   1.199   5.319  0.0770  1.3418  1.2834
 6076TIP3    H218193   3.359   1.186   5.174 -1.4447 -0.3041  1.8363
 6077TIP3   OH218194   6.848   2.022   5.747 -0.8293 -0.4433  0.6879
 6077TIP3    H118195   6.856   1.931   5.719  0.3804 -0.2926  0.4773
 6077TIP3    H218196   6.754   2.036   5.757 -1.0571 -1.5913  0.3186
 6078TIP3   OH218197   3.614   4.240   0.503 -0.8185 -0.4867 -0.4026
 6078TIP3    H118198   3.588   4.215   0.592 -0.1022  0.1735  0.0051
 6078TIP3    H218199   3.572   4.325   0.488  0.5296  0.2863  0.0250
 6079TIP3   OH218200   6.893   4.613   3.036 -0.0454 -0.1086 -0.5894
 6079TIP3    H118201   6.831   4.676   3.072 -1.4510 -1.5110 -0.4539
 6079TIP3    H218202   6.950   4.591   3.110  1.0077  1.5426 -0.8343
 6080TIP3   OH218203   0.550   2.703   5.765  0.2906 -0.0917 -0.3786
 6080TIP3    H118204   0.645   2.717   5.771  0.1316  0.6177  0.6593
 6080TIP3    H218205   0.530   2.640   5.833 -0.1782  0.8675  0.3999
 6081TIP3   OH218206   5.304   5.627   0.825  0.1738 -0.4047  0.6959
 6081TIP3    H118207   5.301   5.703   0.883 -0.3649  0.4390 -0.4235
 6081TIP3    H218208   5.362   5.653   0.754 -0.3668 -0.8790  0.0748
 6082TIP3   OH218209   0.868   3.703   5.073 -0.3597 -0.0806 -0.5996
 6082TIP3    H118210   0.794   3.694   5.013  0.2987 -1.7441 -1.2262
 6082TIP3    H218211   0.916   3.780   5.042 -0.3298 -0.6012 -1.8815
 6083TIP3   OH218212   0.321   5.895   4.112 -0.5568  0.2103  0.4483
 6083TIP3    H118213   0.279   5.946   4.180 -1.2103 -0.2462  0.3989
 6083TIP3    H218214   0.292   5.934   4.030  1.3090  1.6335  0.3910
 6084TIP3   OH218215   4.201   3.487   5.645 -0.1778 -0.2941 -0.8251
 6084TIP3    H118216   4.281   3.446   5.614  0.5990 -0.5894  1.3873
 6084TIP3    H218217   4.143   3.414   5.668  0.7470 -0.2853  1.9529
 6085TIP3   OH218218   5.298   4.247   5.260  0.2505  0.3059  0.0195
 6085TIP3    H118219   5.303   4.342   5.252  0.7958  0.2953  0.1666
 6085TIP3    H218220   5.319   4.229   5.352 -1.9948  0.1727  0.5650
 6086TIP3   OH218221   3.813   5.651   3.199 -0.3390  0.0066  0.3538
 6086TIP3    H118222   3.797   5.715   3.130  1.1354  0.8828  0.7763
 6086TIP3    H218223   3.859   5.579   3.154  1.7794  1.1335  0.5625
 6087TIP3   OH218224   5.701   3.667   1.454  0.0755  0.8313  0.2185
 6087TIP3    H118225   5.627   3.652   1.513  0.3814 -1.1455  0.1616
 6087TIP3    H218226   5.777   3.677   1.513 -0.1040  2.2700  0.2508
 6088TIP3   OH218227   6.744   2.770   1.312 -0.0762  0.0677  0.0155
 6088TIP3    H118228   6.681   2.704   1.282 -1.0135  0.3461  1.2793
 6088TIP3    H218229   6.690   2.841   1.345  0.9303  0.9398 -0.1709
 6089TIP3   OH218230   5.856   1.168   5.458 -0.1850  0.1470  0.0637
 6089TIP3    H118231   5.765   1.151   5.433  0.3197 -0.7560 -1.2577
 6089TIP3    H218232   5.849   1.223   5.536 -1.8592  0.2171 -0.0930
 6090TIP3   OH218233   6.855  -0.026   2.539 -0.0981  0.5346 -0.7056
 6090TIP3    H118234   6.824   0.054   2.497 -1.6579 -0.1934 -1.0012
 6090TIP3    H218235   6.817  -0.023   2.627 -0.8794 -0.2716 -0.9998
 6091TIP3   OH218236   0.515   4.344   3.421 -0.3409  0.4877  0.0754
 6091TIP3    H118237   0.515   4.349   3.326 -2.6742  0.8439  0.0354
 6091TIP3    H218238   0.596   4.387   3.447 -0.4133  1.8275 -1.7046
 6092TIP3   OH218239   3.438   4.471   0.524 -0.5663  0.0151  0.1345
 6092TIP3    H118240   3.401   4.520   0.597 -0.5569  0.9536 -0.4644
 6092TIP3    H218241   3.459   4.538   0.459  0.8910 -0.6335 -0.1056
 6093TIP3   OH218242   2.865   1.557   1.142 -0.1086 -0.7268  0.5857
 6093TIP3    H118243   2.828   1.550   1.054 -2.4112 -0.1393  1.4121
 6093TIP3    H218244   2.959   1.563   1.129 -0.3101 -1.6629 -1.7659
 6094TIP3   OH218245   0.506   2.299   4.714  0.5570  0.1262  0.0845
 6094TIP3    H118246   0.498   2.376   4.658  0.0746  0.4314  0.5547
 6094TIP3    H218247   0.427   2.248   4.696  0.0524  0.5655  0.9705
 6095TIP3   OH218248   0.690   2.885   5.022 -0.5293  0.2926 -0.0132
 6095TIP3    H118249   0.703   2.790   5.025 -0.0940  0.2693 -1.5742
 6095TIP3    H218250   0.773   2.919   4.989  0.3143  1.5248  3.0439
 6096TIP3   OH218251   4.263   5.725   5.243  0.2455 -0.8021 -0.0211
 6096TIP3    H118252   4.244   5.730   5.149  0.8839 -0.7645 -0.1553
 6096TIP3    H218253   4.336   5.663   5.249  2.2953  1.4842  0.1173
 6097TIP3   OH218254   1.017   5.190   1.744  0.7600  0.4085  0.0403
 6097TIP3    H118255   1.022   5.183   1.840  0.5980 -1.7951 -0.0595
 6097TIP3    H218256   0.935   5.146   1.721  1.3058 -0.0122 -1.1818
 6098TIP3   OH218257   5.071   1.202   1.994  0.4196  0.0867  0.5458
 6098TIP3    H118258   5.165   1.189   1.985  0.4148 -0.0302  0.6524
 6098TIP3    H218259   5.053   1.187   2.087  0.3739  0.6444  0.6288
 6099TIP3   OH218260   6.915   4.285   1.709  0.2629  0.2869  0.4247
 6099TIP3    H118261   6.834   4.242   1.734 -0.6789  1.6340 -0.1800
 6099TIP3    H218262   6.982   4.217   1.713 -1.1501 -1.1991 -0.4509
 6100TIP3   OH218263   1.730   5.724   3.654  0.0765 -0.0192  0.3217
 6100TIP3    H118264   1.775   5.758   3.577  0.2357 -0.1422  0.3582
 6100TIP3    H218265   1.800   5.683   3.706  0.1690  1.0321  1.0701
 6101TIP3   OH218266   6.002   1.755   2.346 -0.3629 -0.4151  0.1249
 6101TIP3    H118267   6.055   1.684   2.380 -1.3389 -1.0205  0.4162
 6101TIP3    H218268   5.912   1.732   2.370 -0.6064  1.3950  1.0941
 6102TIP3   OH218269   4.356   3.427   4.117  0.0994 -0.0799 -0.2754
 6102TIP3    H118270   4.391   3.338   4.116 -0.8659 -0.4612 -1.2946
 6102TIP3    H218271   4.350   3.449   4.210  0.8890 -0.8506 -0.0311
 6103TIP3   OH218272   4.714   4.091   4.587  0.0590  0.2161 -0.0177
 6103TIP3    H118273   4.744   4.129   4.504  0.8293  0.0728  0.1923
 6103TIP3    H218274   4.649   4.153   4.619 -0.7924 -0.0904 -1.0864
 6104TIP3   OH218275   3.245   3.160   5.150  0.9091 -0.3235 -0.4457
 6104TIP3    H118276   3.283   3.099   5.087 -1.9439  0.1540 -2.8144
 6104TIP3    H218277   3.185   3.107   5.202  0.3392 -0.0391 -0.7980
 6105TIP3   OH218278   5.029   0.001   1.269 -0.0599  0.4470 -0.3940
 6105TIP3    H118279   5.122  -0.011   1.288  0.0821 -1.6686 -2.0006
 6105TIP3    H218280   5.027   0.056   1.191 -0.3740  3.3038  1.4870
 6106TIP3   OH218281   1.040   2.023   3.593 -0.1003 -0.1211 -0.3896
 6106TIP3    H118282   0.970   2.040   3.530 -0.4449  1.0182  0.2723
 6106TIP3    H218283   1.120   2.049   3.548 -0.3447  0.6691 -0.3849
 6107TIP3   OH218284   0.522   5.915   0.635  0.0267  0.6548  0.2046
 6107TIP3    H118285   0.467   5.991   0.616 -1.2454 -0.7049 -2.0060
 6107TIP3    H218286   0.575   5.903   0.556  0.8282 -0.2601  0.8528
 6108TIP3   OH218287   6.111   3.817   3.176 -0.0555 -0.4499 -0.4840
 6108TIP3    H118288   6.126   3.842   3.085  2.7975  0.3804  0.1019
 6108TIP3    H218289   6.181   3.755   3.196  0.1332  0.3108  1.4540
 6109TIP3   OH218290   0.628   4.582   2.651  0.1832 -0.0592  0.5767
 6109TIP3    H118291   0.583   4.623   2.577 -0.1152  0.4845  1.0533
 6109TIP3    H218292   0.558   4.539   2.700  0.4302 -0.7414  0.3455
 6110TIP3   OH218293   4.548   6.478   3.172  0.8376  0.1166  0.2036
 6110TIP3    H118294   4.609   6.484   3.245  2.3515  2.0128 -1.0866
 6110TIP3    H218295   4.490   6.553   3.182  0.5924 -0.0185 -0.1475
 6111TIP3   OH218296   3.566   3.400   1.064 -0.4558 -0.2522  0.3440
 6111TIP3    H118297   3.486   3.352   1.041 -0.5959 -0.2441  0.8171
 6111TIP3    H218298   3.535   3.487   1.090 -0.2448 -0.0714 -0.0067
 6112TIP3   OH218299   6.380   5.653   0.814  0.0900  0.1354 -0.3774
 6112TIP3    H118300   6.295   5.624   0.782 -0.8519  1.3374  0.9237
 6112TIP3    H218301   6.371   5.656   0.909  1.8685 -0.4955 -0.1319
 6113TIP3   OH218302   2.867   1.002   2.105  0.4925  0.7652  0.2005
 6113TIP3    H118303   2.823   1.009   2.021  1.2864 -1.4417 -0.4774
 6113TIP3    H218304   2.957   0.978   2.083  0.7225  0.1482  1.6728
 6114TIP3   OH218305   3.026   0.338   2.416  0.4321 -0.4734  0.2581
 6114TIP3    H118306   2.982   0.260   2.382  1.4476 -0.6792 -0.6284
 6114TIP3    H218307   3.110   0.340   2.371  0.1582  1.5083 -0.2638
 6115TIP3   OH218308   4.658   4.232   5.731 -0.1635  0.4734  0.3287
 6115TIP3    H118309   4.725   4.200   5.670 -0.1508 -1.0593  1.1135
 6115TIP3    H218310   4.588   4.265   5.675  1.4012  2.5709 -0.5265
 6116TIP3   OH218311   6.292   1.283   2.038 -0.3943  0.0499  0.1621
 6116TIP3    H118312   6.213   1.292   2.091 -0.3633  0.6051  0.1187
 6116TIP3    H218313   6.270   1.327   1.956 -0.8527 -1.7746 -0.7589
 6117TIP3   OH218314   3.184   5.683   2.644  0.2025 -0.0884 -0.1058
 6117TIP3    H118315   3.211   5.601   2.684  0.1104  0.0216  0.1837
 6117TIP3    H218316   3.152   5.659   2.557  0.8981 -0.2657 -0.3206
 6118TIP3   OH218317   3.305   2.517   1.491 -0.0649  0.2060 -0.2254
 6118TIP3    H118318   3.293   2.612   1.490 -2.1668 -0.0107  0.6410
 6118TIP3    H218319   3.258   2.488   1.569 -0.2256 -1.6525 -0.9795
 6119TIP3   OH218320   2.575   3.418   1.484 -0.0849 -0.2260  0.3040
 6119TIP3    H118321   2.514   3.348   1.460  0.1869 -0.5644  0.5867
 6119TIP3    H218322   2.571   3.423   1.579  2.8348 -2.6413  0.7050
 6120TIP3   OH218323   4.305   1.745   3.522 -0.4345 -0.3095 -0.2216
 6120TIP3    H118324   4.292   1.764   3.430  0.8558 -1.8673 -0.7761
 6120TIP3    H218325   4.237   1.795   3.567 -0.7536  0.9092 -1.9483
 6121TIP3   OH218326   5.430   6.129   1.544 -0.2805 -0.2502  0.0498
 6121TIP3    H118327   5.523   6.140   1.564 -0.4925  0.3250  0.7511
 6121TIP3    H218328   5.389   6.118   1.630 -0.8960 -0.2240 -0.2412
 6122TIP3   OH218329   3.566   1.955   1.182 -0.1225 -0.1624 -0.6560
 6122TIP3    H118330   3.629   1.891   1.212 -1.6261 -0.1694  2.9166
 6122TIP3    H218331   3.578   2.030   1.240 -2.9174  0.0653 -0.2370
 6123TIP3   OH218332   2.652   1.733   2.372 -0.9018  1.0558 -0.2592
 6123TIP3    H118333   2.717   1.744   2.442 -1.7824  1.1882  0.5601
 6123TIP3    H218334   2.627   1.641   2.376 -1.3783  1.1936 -0.0094
 6124TIP3   OH218335   3.888   5.808   2.456  0.2709  0.2521  0.0644
 6124TIP3    H118336   3.898   5.833   2.548  0.0231  0.3265  0.0710
 6124TIP3    H218337   3.924   5.881   2.407 -1.5814  1.2138  0.0492
 6125TIP3   OH218338   6.224   2.143   2.665  0.1003  0.3603  0.0154
 6125TIP3    H118339   6.265   2.159   2.580 -0.2297 -0.4003 -0.3005
 6125TIP3    H218340   6.183   2.057   2.656 -0.2294  0.4187  0.8366
 6126TIP3   OH218341   5.486   4.918   3.543  0.7793 -0.3337 -0.3657
 6126TIP3    H118342   5.537   4.879   3.615 -3.2759 -2.3213  1.7809
 6126TIP3    H218343   5.479   5.011   3.566 -0.0552 -0.8474  1.7059
 6127TIP3   OH218344   6.925   6.233   2.314 -0.6371  0.3997  0.1925
 6127TIP3    H118345   6.872   6.256   2.390 -0.7992  0.4847  0.0567
 6127TIP3    H218346   6.915   6.308   2.255 -1.3299 -0.0925 -0.3422
 6128TIP3   OH218347   2.339   1.978   0.393  0.2596  0.2369  0.0731
 6128TIP3    H118348   2.326   2.015   0.480  0.7058  0.9751 -0.1622
 6128TIP3    H218349   2.303   2.044   0.333  2.4109  1.0464 -0.4389
 6129TIP3   OH218350   2.704   4.215   1.560 -0.3593 -0.0403  0.5019
 6129TIP3    H118351   2.618   4.257   1.560 -0.7924 -0.9198  0.7856
 6129TIP3    H218352   2.703   4.158   1.483 -0.1156 -0.2216  0.6340
 6130TIP3   OH218353   4.308   2.530   5.335 -0.2615 -0.4195 -0.1390
 6130TIP3    H118354   4.341   2.473   5.404 -0.3028  1.0722  1.1719
 6130TIP3    H218355   4.214   2.512   5.333 -0.0853 -1.3676 -0.7105
 6131TIP3   OH218356   0.916   4.549   3.033 -0.1178 -0.5849  0.6519
 6131TIP3    H118357   0.991   4.575   3.085 -0.4252  0.7199  0.4834
 6131TIP3    H218358   0.938   4.577   2.944 -0.2551 -1.3680  0.3695
 6132TIP3   OH218359   5.792   3.225   1.814 -0.0177  0.1409 -0.1948
 6132TIP3    H118360   5.860   3.244   1.879 -1.6136  0.4503  1.4522
 6132TIP3    H218361   5.790   3.303   1.758  1.6593 -0.3044 -0.9609
 6133TIP3   OH218362   5.625   4.796   5.825 -0.1050 -0.3950  0.0998
 6133TIP3    H118363   5.677   4.809   5.746 -0.4391 -1.4729 -0.3184
 6133TIP3    H218364   5.555   4.861   5.819 -1.0905 -1.5038 -1.3578
 6134TIP3   OH218365   1.532   1.815   3.509 -0.2660  0.1403 -0.1733
 6134TIP3    H118366   1.516   1.766   3.429  1.4060  0.7715 -0.9254
 6134TIP3    H218367   1.444   1.841   3.538 -0.8933  0.0772 -1.8952
 6135TIP3   OH218368   2.780   1.590   3.052  0.1675  0.2075 -0.8199
 6135TIP3    H118369   2.799   1.513   3.106 -0.9809 -0.0363 -0.7482
 6135TIP3    H218370   2.728   1.555   2.979  0.9305  0.6788 -1.6068
 6136TIP3   OH218371   4.391   0.167   1.413  0.2061 -0.0266 -0.1649
 6136TIP3    H118372   4.443   0.247   1.407  0.1074 -0.0054 -0.7969
 6136TIP3    H218373   4.301   0.196   1.397  0.1567 -0.2417 -0.2850
 6137TIP3   OH218374   5.196   6.127   1.143 -0.0986 -0.1213  0.2012
 6137TIP3    H118375   5.244   6.207   1.121 -2.5358  1.1678 -0.7833
 6137TIP3    H218376   5.194   6.127   1.239  0.6013  0.5800  0.2311
 6138TIP3   OH218377   5.545   5.794   2.752 -0.3799  0.1973  0.0789
 6138TIP3    H118378   5.596   5.747   2.686 -1.0356  1.0743 -1.0888
 6138TIP3    H218379   5.608   5.851   2.795  0.1054 -0.5726  0.4086
 6139TIP3   OH218380   1.430   3.658   2.019  1.0292 -0.4323  0.3976
 6139TIP3    H118381   1.438   3.737   1.966  2.6942 -1.0657 -0.3585
 6139TIP3    H218382   1.474   3.681   2.101 -0.7119  0.2241  1.2132
 6140TIP3   OH218383   0.529   3.329   1.217 -0.0984 -0.2155  0.1806
 6140TIP3    H118384   0.560   3.245   1.252 -0.9115 -0.1753  1.0644
 6140TIP3    H218385   0.548   3.392   1.287 -0.5189  0.1270 -0.0100
 6141TIP3   OH218386   1.123   0.138   0.715  0.6852  0.5030  0.1943
 6141TIP3    H118387   1.194   0.086   0.754  1.6499  0.7411 -1.1516
 6141TIP3    H218388   1.161   0.172   0.634 -0.3206  2.3292  0.4476
 6142TIP3   OH218389   2.482   6.128   4.218 -0.0930 -0.0908  0.4216
 6142TIP3    H118390   2.490   6.190   4.291  0.1286  0.2109  0.1454
 6142TIP3    H218391   2.518   6.176   4.143 -0.4683 -0.3418  0.0834
 6143TIP3   OH218392   2.660   5.940   0.476  0.0476 -0.4416  0.0338
 6143TIP3    H118393   2.588   5.897   0.522  1.4222 -2.9960 -0.0146
 6143TIP3    H218394   2.738   5.915   0.525  1.1572  0.0566 -1.4175
 6144TIP3   OH218395   0.119   3.497   3.008 -0.8354  0.2505  0.0672
 6144TIP3    H118396   0.032   3.458   3.020 -0.0066 -1.6407  0.2301
 6144TIP3    H218397   0.180   3.431   3.040  0.7252  1.2642 -0.6690
 6145TIP3   OH218398   0.269   0.841   3.060 -0.0697 -0.2571  0.5356
 6145TIP3    H118399   0.311   0.785   2.995  0.1926 -0.3201  0.7535
 6145TIP3    H218400   0.230   0.780   3.122  1.9563 -0.2648  1.9076
 6146TIP3   OH218401   4.773   0.040   2.629 -0.4376 -0.2194 -0.1046
 6146TIP3    H118402   4.786   0.101   2.557  0.3532  0.3128  0.4761
 6146TIP3    H218403   4.681   0.014   2.623 -0.3439 -0.3123 -1.3942
 6147TIP3   OH218404   5.600   3.938   1.580  0.1493 -0.1656 -0.6164
 6147TIP3    H118405   5.691   3.946   1.606 -0.4107  1.4751  0.9759
 6147TIP3    H218406   5.592   3.992   1.501  0.3688  0.4190 -0.2427
 6148TIP3   OH218407   4.599   0.738   1.720  0.2506 -0.0740  0.0159
 6148TIP3    H118408   4.671   0.757   1.660  0.4021  1.0711  0.5439
 6148TIP3    H218409   4.593   0.642   1.720  2.1298 -0.2250  0.3842
 6149TIP3   OH218410   4.425   0.750   4.654  0.7609 -0.2801  0.1575
 6149TIP3    H118411   4.502   0.730   4.600 -0.1962  1.4762 -2.0479
 6149TIP3    H218412   4.366   0.676   4.639  1.5681 -1.1319  1.0349
 6150TIP3   OH218413   3.417   2.545   2.069  0.4923  0.1785 -0.3334
 6150TIP3    H118414   3.438   2.631   2.105 -1.9187  0.4695  0.6049
 6150TIP3    H218415   3.484   2.529   2.003  1.9101  2.0690  0.5563
 6151TIP3   OH218416   3.349   2.267   3.556 -0.0648 -0.1977 -0.1166
 6151TIP3    H118417   3.431   2.250   3.509  0.0537  0.4822 -0.1572
 6151TIP3    H218418   3.375   2.278   3.647  0.0786  1.4160 -0.3268
 6152TIP3   OH218419   6.846   2.416   1.518  0.1148 -0.4392  0.4898
 6152TIP3    H118420   6.913   2.469   1.561 -0.7468  0.4133  0.8113
 6152TIP3    H218421   6.894   2.341   1.483  1.7593  1.4999 -1.7744
 6153TIP3   OH218422   1.726   5.652   5.719 -0.2504 -0.1805  0.2084
 6153TIP3    H118423   1.664   5.696   5.778 -0.1817 -0.2067  0.3010
 6153TIP3    H218424   1.812   5.679   5.752 -0.0960 -2.5984  2.0286
 6154TIP3   OH218425   0.648   5.278   2.799 -0.1507 -0.9662  0.1159
 6154TIP3    H118426   0.595   5.205   2.765 -0.2245 -0.5956 -0.5947
 6154TIP3    H218427   0.585   5.348   2.813  0.1490 -0.4859 -0.8371
 6155TIP3   OH218428   6.653   4.741   3.399 -0.0063 -0.2907  0.1909
 6155TIP3    H118429   6.575   4.731   3.453 -0.7317  0.6631 -0.6451
 6155TIP3    H218430   6.628   4.707   3.313  0.8315 -0.9047  0.1692
 6156TIP3   OH218431   0.511   5.020   0.747 -0.1674 -0.2321  0.2302
 6156TIP3    H118432   0.592   5.035   0.699 -0.7406  0.7304 -0.4766
 6156TIP3    H218433   0.494   5.102   0.792 -0.7497 -0.4227  0.3686
 6157TIP3   OH218434   6.258   0.848   5.413 -0.5563 -0.2760  0.0403
 6157TIP3    H118435   6.200   0.921   5.436 -0.0634  0.0336  0.3231
 6157TIP3    H218436   6.336   0.862   5.466  0.1115 -0.2308 -0.9322
 6158TIP3   OH218437   4.083   0.658   4.858 -0.1219  0.0046  0.2796
 6158TIP3    H118438   4.002   0.659   4.909 -0.1485 -2.4183  0.3921
 6158TIP3    H218439   4.150   0.635   4.922  0.4485  0.6026 -0.0968
 6159TIP3   OH218440   1.300   5.239   1.873  0.2510  0.1513 -0.1135
 6159TIP3    H118441   1.292   5.144   1.885 -1.0985  0.0612 -1.4703
 6159TIP3    H218442   1.224   5.275   1.918 -1.1567  0.2852 -2.4294
 6160TIP3   OH218443   4.119   6.060   4.364 -0.0731 -0.3076 -0.1043
 6160TIP3    H118444   4.034   6.028   4.335 -0.5730 -1.1153  2.1362
 6160TIP3    H218445   4.110   6.075   4.458  2.1661 -0.1091  0.1494
 6161TIP3   OH218446   5.947   5.615   5.122 -0.5190  0.0720  0.0672
 6161TIP3    H118447   5.995   5.657   5.194 -2.0610  0.1263  1.1129
 6161TIP3    H218448   6.016   5.581   5.065  0.7607  1.6129  0.6098
 6162TIP3   OH218449   2.559   1.367   3.770 -0.3332 -0.5582 -0.2023
 6162TIP3    H118450   2.528   1.373   3.860 -2.2098 -0.3157 -0.8227
 6162TIP3    H218451   2.532   1.279   3.741 -1.6289  0.1197 -1.1506
 6163TIP3   OH218452   0.726   5.310   4.569 -0.0102  0.2338  0.2817
 6163TIP3    H118453   0.769   5.328   4.652 -1.6326  0.3869  1.1396
 6163TIP3    H218454   0.741   5.389   4.516 -0.4315  0.8752  1.0916
 6164TIP3   OH218455   1.505   4.129   4.293  1.0699  0.6253 -0.5484
 6164TIP3    H118456   1.431   4.082   4.254 -0.6727  2.6692  0.0784
 6164TIP3    H218457   1.576   4.119   4.230 -0.2988  0.1450 -2.0822
 6165TIP3   OH218458   1.451   3.905   1.926  0.0491 -0.4702 -0.2817
 6165TIP3    H118459   1.513   3.964   1.969 -0.0933 -0.7776  0.3500
 6165TIP3    H218460   1.404   3.962   1.865 -0.3687  0.1669  0.6102
 6166TIP3   OH218461   4.385   0.042   3.939  0.2973 -0.5979  0.2047
 6166TIP3    H118462   4.315  -0.008   3.897 -0.3780 -0.5295  1.2196
 6166TIP3    H218463   4.466  -0.004   3.915 -0.2256 -1.5712  0.2861
 6167TIP3   OH218464   3.677   3.643   4.834 -0.0289 -0.2305  0.6679
 6167TIP3    H118465   3.696   3.597   4.753 -0.8760 -1.9670  1.4042
 6167TIP3    H218466   3.592   3.684   4.820  1.2382  2.2709 -0.4138
 6168TIP3   OH218467   0.463   3.489   5.592 -0.7863 -0.1935  0.2160
 6168TIP3    H118468   0.415   3.430   5.532  1.6630 -1.0736 -1.0128
 6168TIP3    H218469   0.456   3.575   5.551 -0.3965 -0.5232 -0.5698
 6169TIP3   OH218470   0.630   0.388   4.206  0.2256 -0.4891 -0.0537
 6169TIP3    H118471   0.673   0.348   4.281  0.5976  2.1504  1.2416
 6169TIP3    H218472   0.540   0.402   4.235  0.3167  0.3582 -0.1538
 6170TIP3   OH218473   1.598   1.246   3.172  0.5005 -0.2217  0.2935
 6170TIP3    H118474   1.522   1.299   3.149  1.6110  0.4420 -2.1482
 6170TIP3    H218475   1.563   1.180   3.232 -1.8359  0.5045 -0.1494
 6171TIP3   OH218476  -0.003   5.479   0.629 -0.6324  0.3331  0.5612
 6171TIP3    H118477   0.086   5.506   0.606 -0.7273  0.3112  0.1610
 6171TIP3    H218478  -0.059   5.525   0.566 -0.7220 -1.6542 -0.9094
 6172TIP3   OH218479   5.100   4.830   4.886 -0.2606 -0.0031 -0.2859
 6172TIP3    H118480   5.175   4.883   4.857  0.1206 -0.0434  0.5782
 6172TIP3    H218481   5.115   4.819   4.980 -1.2474 -0.1981 -0.1480
 6173TIP3   OH218482   1.365   4.866   5.293  0.2062  0.3413 -0.1124
 6173TIP3    H118483   1.408   4.885   5.210  0.0437  0.8731 -0.0748
 6173TIP3    H218484   1.430   4.888   5.360 -0.1121  1.1218 -0.0567
 6174TIP3   OH218485   4.433   6.258   1.790  0.2753  0.4479 -0.0264
 6174TIP3    H118486   4.351   6.252   1.741 -0.3195 -2.1123  1.0810
 6174TIP3    H218487   4.424   6.338   1.841 -1.5817  0.2368  0.0702
 6175TIP3   OH218488   3.189   3.103   5.661 -0.2299  0.2227 -0.0115
 6175TIP3    H118489   3.147   3.140   5.739  0.9552  0.7904  0.3674
 6175TIP3    H218490   3.235   3.177   5.621  0.3482 -0.3727 -0.4581
 6176TIP3   OH218491   0.994   5.241   0.070 -0.3576 -0.0253  1.1111
 6176TIP3    H118492   1.076   5.245   0.119  1.0392 -0.4517 -1.0413
 6176TIP3    H218493   0.961   5.330   0.071  1.2265  0.6028  0.3195
 6177TIP3   OH218494   5.673   6.734   5.441  0.4596 -0.4263  0.3288
 6177TIP3    H118495   5.643   6.646   5.463  3.7182 -1.3014  2.0337
 6177TIP3    H218496   5.708   6.726   5.352 -1.1714 -0.2374 -0.3591
 6178TIP3   OH218497   3.637   6.444   0.603  0.2418  0.1592  0.5084
 6178TIP3    H118498   3.593   6.529   0.610  0.3692  0.0899  3.0027
 6178TIP3    H218499   3.576   6.390   0.553 -0.0826  1.5530 -0.6541
 6179TIP3   OH218500   3.220   2.708   0.205 -0.0768 -0.1625 -0.4492
 6179TIP3    H118501   3.147   2.658   0.169 -0.8240  1.3203 -1.0890
 6179TIP3    H218502   3.180   2.787   0.240  0.9117 -0.5619  1.7184
 6180TIP3   OH218503   0.887   3.976   3.252 -0.3591 -0.0002  0.5824
 6180TIP3    H118504   0.878   3.928   3.170  0.6996  0.1754  0.3461
 6180TIP3    H218505   0.827   4.050   3.243 -0.7245 -0.3336  0.2383
 6181TIP3   OH218506   0.914   2.691   4.177  0.0552  0.2038 -0.0811
 6181TIP3    H118507   0.824   2.707   4.146 -0.3218 -0.5865  0.5897
 6181TIP3    H218508   0.961   2.662   4.099 -0.8055 -1.4410 -0.0295
 6182TIP3   OH218509   4.186   3.708   0.763 -0.1912  0.0320  0.4014
 6182TIP3    H118510   4.141   3.709   0.847 -2.2738 -0.3917 -0.6522
 6182TIP3    H218511   4.117   3.695   0.698  1.1972  1.4922 -1.5013
 6183TIP3   OH218512   4.554   1.583   3.973 -0.4714 -0.7280 -0.0222
 6183TIP3    H118513   4.575   1.589   3.880 -0.8374  0.8331 -0.0375
 6183TIP3    H218514   4.573   1.492   3.997  1.0015 -0.7815 -1.2736
 6184TIP3   OH218515   5.888   4.104   3.647 -0.0507 -0.4623  0.1462
 6184TIP3    H118516   5.949   4.088   3.574 -0.1949 -0.5885  0.0517
 6184TIP3    H218517   5.890   4.023   3.698  0.5350 -0.1431  0.6460
 6185TIP3   OH218518   6.530   4.531   0.769 -0.1334 -0.1478 -0.3765
 6185TIP3    H118519   6.545   4.602   0.832 -0.4118 -0.7893  0.4261
 6185TIP3    H218520   6.535   4.451   0.821 -1.9910 -0.6166 -0.8499
 6186TIP3   OH218521   2.749   5.067   1.934 -0.3126 -0.7450  0.2438
 6186TIP3    H118522   2.786   5.151   1.961 -0.6114 -0.0949 -1.2682
 6186TIP3    H218523   2.824   5.017   1.903 -0.3271 -0.4257 -0.3288
 6187TIP3   OH218524   2.796   5.581   2.460  0.4237 -0.0258 -0.0736
 6187TIP3    H118525   2.722   5.548   2.512  0.9319  0.1090  0.7575
 6187TIP3    H218526   2.775   5.672   2.443  0.2149 -0.0915 -0.1617
 6188TIP3   OH218527   6.256   3.741   4.015  0.3186  0.2856  0.1179
 6188TIP3    H118528   6.253   3.645   4.022  0.0387  0.3294  0.6913
 6188TIP3    H218529   6.178   3.764   3.965  0.1630  0.2374  0.3347
 6189TIP3   OH218530   1.508   1.464   1.665 -0.3891  0.3908 -0.0663
 6189TIP3    H118531   1.423   1.424   1.648 -0.0409 -1.1554  1.5616
 6189TIP3    H218532   1.554   1.459   1.581 -1.3268 -0.2115 -0.5620
 6190TIP3   OH218533   0.868   3.254   5.090  0.4035 -0.1131 -0.0290
 6190TIP3    H118534   0.833   3.203   5.163  1.8972  1.3701  1.8446
 6190TIP3    H218535   0.940   3.202   5.056  0.7320 -0.1166  0.6473
 6191TIP3   OH218536   0.069   0.050   0.025 -0.3953 -0.1912  0.1578
 6191TIP3    H118537   0.015   0.060   0.103  0.4792  1.1336  0.6209
 6191TIP3    H218538   0.157   0.074   0.053  0.4011 -2.0017 -0.6662
 6192TIP3   OH218539   6.503   4.252   0.059  0.0304  0.1393 -0.1377
 6192TIP3    H118540   6.444   4.282   0.129  1.7869  1.6883  0.7847
 6192TIP3    H218541   6.582   4.304   0.072  0.8089 -0.3118 -2.6679
 6193TIP3   OH218542   0.291   0.052   4.580 -0.2955  0.1286 -0.3910
 6193TIP3    H118543   0.223   0.081   4.641  0.2373 -1.1009  0.8591
 6193TIP3    H218544   0.351   0.126   4.574  0.1592 -0.0360  1.4119
 6194TIP3   OH218545   6.141   1.979   4.113 -0.1917  0.0906  0.2438
 6194TIP3    H118546   6.226   1.973   4.157 -0.3017  1.1443  0.6210
 6194TIP3    H218547   6.104   1.891   4.120  1.4266 -0.7558 -1.0950
 6195TIP3   OH218548   3.199   1.943   4.994 -0.5967 -0.4156 -0.5621
 6195TIP3    H118549   3.240   1.964   5.078 -0.9611 -0.6652 -0.3182
 6195TIP3    H218550   3.184   2.029   4.954 -1.1524 -0.2392 -0.0117
 6196TIP3   OH218551   5.790   6.443   1.279  0.4173 -0.7225  0.8893
 6196TIP3    H118552   5.879   6.438   1.245  1.3069 -0.5499  3.0280
 6196TIP3    H218553   5.735   6.411   1.208  1.8645  1.9075 -1.6200
 6197TIP3   OH218554   2.691   2.057   5.842  0.4217 -0.2070  0.2332
 6197TIP3    H118555   2.742   2.114   5.784  0.1905 -0.6654 -0.4310
 6197TIP3    H218556   2.707   1.969   5.809 -1.6346 -0.2912 -0.6903
 6198TIP3   OH218557   4.814   5.259   2.587  0.9521  0.1973 -0.0324
 6198TIP3    H118558   4.874   5.323   2.548 -0.3234  0.7662 -1.1468
 6198TIP3    H218559   4.727   5.298   2.576  0.4474  0.1673  3.0130
 6199TIP3   OH218560   3.961   3.513   2.064 -0.0375  0.1244 -0.1065
 6199TIP3    H118561   4.025   3.564   2.014  0.0331 -0.7257 -0.9133
 6199TIP3    H218562   3.877   3.538   2.028 -0.0808  0.4726  0.2391
 6200TIP3   OH218563   5.044   0.001   2.713  0.3653 -0.4163  0.6328
 6200TIP3    H118564   4.961  -0.027   2.674  0.5762 -0.5938  0.3002
 6200TIP3    H218565   5.023   0.083   2.757  0.0809 -0.2886  0.2689
 6201TIP3   OH218566   7.144   2.088   4.033 -0.3046 -0.1421  0.2635
 6201TIP3    H118567   7.062   2.125   3.998 -1.1219 -0.8438  1.3722
 6201TIP3    H218568   7.210   2.112   3.968 -1.5736 -0.4879 -1.2400
 6202TIP3   OH218569   2.769   0.597   4.364 -0.4598 -0.3294 -0.7041
 6202TIP3    H118570   2.782   0.608   4.270 -0.3686  0.8604 -0.5679
 6202TIP3    H218571   2.677   0.570   4.373 -0.5821 -0.0551 -1.1121
 6203TIP3   OH218572   0.312   5.697   4.323  0.3038 -1.0841  0.2169
 6203TIP3    H118573   0.278   5.770   4.271  0.7501 -0.0008  1.3795
 6203TIP3    H218574   0.325   5.734   4.411  2.7368 -1.9034  0.2819
 6204TIP3   OH218575   4.638   0.977   5.541 -0.1073  0.6162 -0.0169
 6204TIP3    H118576   4.659   1.047   5.479  0.8519  0.0210 -0.3783
 6204TIP3    H218577   4.699   0.990   5.613  1.4576 -0.9917 -0.9740
 6205TIP3   OH218578   0.066   6.724   0.874 -0.4390  0.0489  0.2416
 6205TIP3    H118579   0.093   6.816   0.873 -0.0232 -0.0738  0.1942
 6205TIP3    H218580  -0.015   6.722   0.823 -0.1128  0.2852 -0.2931
 6206TIP3   OH218581   6.098   4.247   4.600 -0.0081  0.1051  0.9528
 6206TIP3    H118582   6.030   4.184   4.623  1.1264 -0.9263  1.5666
 6206TIP3    H218583   6.112   4.297   4.681 -1.4857  1.7751  0.2546
 6207TIP3   OH218584   3.612   0.170   0.217 -0.7398  0.2046 -0.1492
 6207TIP3    H118585   3.666   0.195   0.142 -0.2526  0.1164  0.1647
 6207TIP3    H218586   3.676   0.141   0.283 -1.1493  0.4470  0.3587
 6208TIP3   OH218587   0.374   5.844   2.683  0.6798  0.1037  0.1654
 6208TIP3    H118588   0.300   5.837   2.622 -0.1116  2.6067  0.7230
 6208TIP3    H218589   0.346   5.794   2.760  0.0356  0.1097 -0.0551
 6209TIP3   OH218590   6.935   1.987   4.669 -0.0168  0.4764  0.1078
 6209TIP3    H118591   6.984   1.950   4.742  0.6347  1.5430  0.2298
 6209TIP3    H218592   6.852   1.939   4.669  0.3842 -0.2454  0.8959
 6210TIP3   OH218593   5.820   5.469   3.935  0.0555  0.2730 -0.0633
 6210TIP3    H118594   5.827   5.461   3.840 -0.2309  0.3758 -0.0943
 6210TIP3    H218595   5.848   5.384   3.969 -0.5143 -0.0023 -0.2721
 6211TIP3   OH218596   4.707   0.637   1.304  0.2785  0.2508  0.3181
 6211TIP3    H118597   4.761   0.558   1.299 -0.2102 -0.0982  0.3983
 6211TIP3    H218598   4.733   0.679   1.386 -2.5340 -2.1918  2.7473
 6212TIP3   OH218599   1.543   5.424   2.445 -0.1156  0.1258  0.0582
 6212TIP3    H118600   1.583   5.411   2.359 -1.9981  0.8517 -0.9720
 6212TIP3    H218601   1.466   5.478   2.428 -1.4129 -0.9989  1.9859
 6213TIP3   OH218602   6.630   3.460   0.521 -0.2227 -0.3715 -0.0457
 6213TIP3    H118603   6.600   3.545   0.553  0.2618  0.0638 -0.7191
 6213TIP3    H218604   6.580   3.446   0.440  1.5094  0.4922 -1.3409
 6214TIP3   OH218605   2.592   4.189   5.843  0.3602  0.3318  0.2006
 6214TIP3    H118606   2.607   4.211   5.935  2.2695  0.0230  0.0228
 6214TIP3    H218607   2.611   4.270   5.796  2.1513 -0.1904 -0.0713
 6215TIP3   OH218608   0.823   1.192   2.084  0.1273  0.3450 -0.3536
 6215TIP3    H118609   0.915   1.195   2.109  0.1299 -0.4572 -0.2542
 6215TIP3    H218610   0.822   1.219   1.992  0.7235 -1.6527 -0.9983
 6216TIP3   OH218611   0.415   3.509   4.205 -0.2405  0.1328 -0.8464
 6216TIP3    H118612   0.494   3.560   4.221  0.9802 -1.9732  0.3139
 6216TIP3    H218613   0.411   3.499   4.110  0.7990  0.4383 -0.9309
 6217TIP3   OH218614   5.805   3.954   3.140  0.7440 -0.3677  0.0193
 6217TIP3    H118615   5.856   3.876   3.160 -1.8664 -3.1213 -2.9599
 6217TIP3    H218616   5.865   4.011   3.092  1.8954 -2.0638 -0.6345
 6218TIP3   OH218617   0.109   1.109   0.422  0.0580  0.4072 -0.2232
 6218TIP3    H118618   0.193   1.150   0.443 -0.1696  0.3862  0.7383
 6218TIP3    H218619   0.117   1.019   0.451  0.1994  0.0093 -1.4367
 6219TIP3   OH218620   1.292   2.502   4.284 -0.0226  0.6834 -0.2486
 6219TIP3    H118621   1.215   2.447   4.266 -0.0085  0.5051  0.2141
 6219TIP3    H218622   1.256   2.590   4.295  0.1308  1.1140 -2.6734
 6220TIP3   OH218623   6.539   1.622   5.584  0.0008  0.5098  0.9550
 6220TIP3    H118624   6.523   1.615   5.490  2.9767 -1.7845  0.4684
 6220TIP3    H218625   6.548   1.716   5.600  2.3894  0.8651 -1.7391
 6221TIP3   OH218626   4.467   2.221   3.999 -0.3198 -0.7339  0.0783
 6221TIP3    H118627   4.483   2.150   4.060  0.3612  0.0695  0.8640
 6221TIP3    H218628   4.445   2.296   4.055 -0.0382 -0.0794 -0.6716
 6222TIP3   OH218629   5.736   1.432   5.052 -0.4905 -0.8316 -0.0263
 6222TIP3    H118630   5.785   1.363   5.096 -0.5567 -0.5205  0.5428
 6222TIP3    H218631   5.645   1.400   5.052 -0.3126 -1.3622 -0.9928
 6223TIP3   OH218632   2.357   1.918   3.756 -0.6132 -0.1800 -0.4106
 6223TIP3    H118633   2.432   1.950   3.705  0.3719 -1.7344  0.0169
 6223TIP3    H218634   2.356   1.824   3.741 -1.7482 -0.3491  0.5832
 6224TIP3   OH218635   2.738   5.833   1.543  0.0772  0.2530  0.2214
 6224TIP3    H118636   2.679   5.806   1.472  1.2625 -0.5569 -0.4933
 6224TIP3    H218637   2.775   5.916   1.513 -1.7810  1.5351  1.3454
 6225TIP3   OH218638   5.265   6.485   4.858 -0.0097  0.1443 -0.3068
 6225TIP3    H118639   5.327   6.431   4.808  0.4012 -0.6508  1.0077
 6225TIP3    H218640   5.296   6.479   4.948 -0.6039  1.7183  0.0303
 6226TIP3   OH218641   1.477   4.158   0.080  0.2423  0.3924 -0.2850
 6226TIP3    H118642   1.479   4.169   0.175  0.0291  1.0010 -0.3509
 6226TIP3    H218643   1.433   4.236   0.047  1.5331  0.8686 -0.9804
 6227TIP3   OH218644   4.466   2.927   1.613 -0.1840 -0.7999  0.4593
 6227TIP3    H118645   4.545   2.930   1.559 -0.5576 -0.7545 -0.0893
 6227TIP3    H218646   4.431   2.840   1.598  0.0248 -0.9984  1.0911
 6228TIP3   OH218647   7.021   5.957   0.227 -0.3616 -0.1986  0.0731
 6228TIP3    H118648   7.009   5.874   0.181  0.1975  0.6362 -1.6632
 6228TIP3    H218649   6.934   5.979   0.261 -0.8779 -0.7163 -0.8644
 6229TIP3   OH218650   1.257   6.401   4.382 -0.4352  0.1497 -0.1901
 6229TIP3    H118651   1.301   6.338   4.439 -0.9216  0.4001  0.4748
 6229TIP3    H218652   1.283   6.486   4.417 -1.3742  0.3020  0.1650
 6230TIP3   OH218653   2.274   4.937   5.695  0.6505  0.1195 -0.4507
 6230TIP3    H118654   2.330   4.859   5.689  0.8343  0.2545 -0.4920
 6230TIP3    H218655   2.242   4.950   5.607 -0.4391 -0.6851 -0.1966
 6231TIP3   OH218656   3.915   1.507   0.134 -0.0148  0.6711  0.6299
 6231TIP3    H118657   3.997   1.526   0.179  0.7714 -0.3099 -0.3452
 6231TIP3    H218658   3.941   1.461   0.055 -1.4138  1.6951 -0.4800
 6232TIP3   OH218659   0.780   2.419   5.711 -0.2359  0.1631 -0.3676
 6232TIP3    H118660   0.736   2.376   5.785  0.8621  0.4998  0.5077
 6232TIP3    H218661   0.771   2.356   5.639 -1.1438 -0.2661  0.0998
 6233TIP3   OH218662   4.588  -0.015   3.070 -0.6233  0.0076  0.3073
 6233TIP3    H118663   4.665   0.027   3.030 -0.5248 -0.9404 -0.5234
 6233TIP3    H218664   4.535   0.058   3.102 -0.8431  0.8286 -1.8201
 6234TIP3   OH218665   0.929   2.683   1.887 -0.1773  1.0308 -0.1465
 6234TIP3    H118666   0.850   2.735   1.872 -0.3989  0.0495 -3.0309
 6234TIP3    H218667   0.968   2.674   1.800  0.5861 -2.4179  0.4199
 6235TIP3   OH218668   3.757   5.596   3.503 -0.4594 -0.4541  0.6500
 6235TIP3    H118669   3.744   5.668   3.564  0.1664  0.7662 -0.6076
 6235TIP3    H218670   3.769   5.638   3.418 -1.1903 -2.1047 -0.3151
 6236TIP3   OH218671   2.482   4.786   5.038 -0.5662  0.0825 -0.2940
 6236TIP3    H118672   2.574   4.768   5.017 -0.3629 -0.2942  0.8594
 6236TIP3    H218673   2.470   4.878   5.016  0.1515  0.1860 -0.2663
 6237TIP3   OH218674   3.050   5.495   4.479 -0.7376  0.3467 -0.0955
 6237TIP3    H118675   3.078   5.427   4.540  0.2173  0.5605 -0.2831
 6237TIP3    H218676   2.988   5.451   4.421 -1.6718  0.1507  1.0328
 6238TIP3   OH218677   2.928   3.324   3.981 -0.2131  0.5553 -0.1000
 6238TIP3    H118678   2.934   3.289   4.070  1.6613 -1.2701 -0.8526
 6238TIP3    H218679   2.990   3.396   3.980  1.7565 -1.0610 -0.5478
 6239TIP3   OH218680   0.340   3.567   3.717  0.4109  0.0963 -0.5484
 6239TIP3    H118681   0.411   3.624   3.749 -1.0043  1.4988  0.2555
 6239TIP3    H218682   0.350   3.568   3.622  0.6390  1.4665 -0.5426
 6240TIP3   OH218683   5.202   5.519   4.828  0.3601  0.2454  0.2202
 6240TIP3    H118684   5.276   5.478   4.872  0.9732  1.2973  0.2089
 6240TIP3    H218685   5.222   5.513   4.735 -0.1824 -0.5738  0.1416
 6241TIP3   OH218686   5.678   1.865   3.692 -0.0772  0.3776  0.2973
 6241TIP3    H118687   5.753   1.808   3.675  0.3177  0.9482  0.0999
 6241TIP3    H218688   5.709   1.926   3.759 -0.5299  0.3060  0.5791
 6242TIP3   OH218689   5.391   4.176   4.353 -0.1459 -0.6863 -0.4467
 6242TIP3    H118690   5.441   4.247   4.394 -1.5198 -0.4162  0.8484
 6242TIP3    H218691   5.322   4.220   4.304 -1.0335 -1.1098  0.3979
 6243TIP3   OH218692   0.237   6.540   3.738 -0.5074 -0.0701  0.1084
 6243TIP3    H118693   0.180   6.591   3.795 -0.7581 -1.0553  0.7709
 6243TIP3    H218694   0.189   6.459   3.721  0.6630 -0.9341  0.6933
 6244TIP3   OH218695   6.198   5.178   0.301  0.0028 -0.8304 -0.3912
 6244TIP3    H118696   6.126   5.220   0.254  0.3893 -0.5340 -0.7205
 6244TIP3    H218697   6.276   5.225   0.272  0.1713 -0.1232  1.1185
 6245TIP3   OH218698   2.678   1.303   3.339 -0.0142  0.0297 -0.6905
 6245TIP3    H118699   2.700   1.283   3.247  0.1440 -1.4260 -0.3566
 6245TIP3    H218700   2.756   1.346   3.373  0.2886 -0.2578 -1.0035
 6246TIP3   OH218701   6.116   3.450   2.163  0.3121  0.0060 -0.3455
 6246TIP3    H118702   6.193   3.468   2.110 -0.5228  0.3501 -1.4784
 6246TIP3    H218703   6.140   3.480   2.251  1.5731 -0.1922 -0.6010
 6247TIP3   OH218704   0.196   1.179   1.434  0.2292  0.1728  0.3450
 6247TIP3    H118705   0.115   1.224   1.412  0.3492  0.8791  1.2688
 6247TIP3    H218706   0.265   1.237   1.401  0.3854 -1.0614 -1.6428
 6248TIP3   OH218707   3.085   3.411   4.579  0.3153 -0.6143 -0.0700
 6248TIP3    H118708   2.992   3.427   4.596  0.6376 -1.0435  2.4276
 6248TIP3    H218709   3.127   3.496   4.592  0.6550 -1.0786  2.4037
 6249TIP3   OH218710   3.142   2.088   3.141 -0.3056 -0.2651  0.1853
 6249TIP3    H118711   3.079   2.046   3.083 -0.3769  0.4184 -0.2497
 6249TIP3    H218712   3.205   2.020   3.162  0.2628 -0.2924 -1.4816
 6250TIP3   OH218713   5.449   6.596   4.232 -0.2335  0.2387 -0.2948
 6250TIP3    H118714   5.418   6.544   4.306 -0.1662 -0.8389 -0.9941
 6250TIP3    H218715   5.444   6.686   4.262  1.1809 -0.2418  1.5411
 6251TIP3   OH218716   3.133   3.587   2.375 -0.3225  0.4234 -0.4031
 6251TIP3    H118717   3.198   3.610   2.307  1.8006 -1.5393  0.8115
 6251TIP3    H218718   3.083   3.516   2.336  0.5131 -0.3110 -0.1793
 6252TIP3   OH218719   6.971   1.785   1.486 -0.0136 -0.0791  0.1277
 6252TIP3    H118720   7.013   1.804   1.570  0.6639  1.1242 -0.4459
 6252TIP3    H218721   6.928   1.701   1.499  1.3353 -0.6424  1.2192
 6253TIP3   OH218722   0.680   1.297   5.202  0.7823  0.0631 -0.1049
 6253TIP3    H118723   0.588   1.314   5.222  0.8080  1.4369 -1.0418
 6253TIP3    H218724   0.727   1.324   5.281  0.3869 -0.9408  0.4994
 6254TIP3   OH218725   4.681   3.593   1.846  0.0315  0.4363 -0.3308
 6254TIP3    H118726   4.662   3.499   1.853  0.0369  0.3903 -0.8711
 6254TIP3    H218727   4.751   3.608   1.910 -0.3235  0.1769  0.1268
 6255TIP3   OH218728   5.668   3.537   0.827  0.0786  0.5830  0.0795
 6255TIP3    H118729   5.588   3.566   0.870 -1.3794  0.6618 -2.4859
 6255TIP3    H218730   5.709   3.617   0.795 -0.4216  0.3574 -1.1878
 6256TIP3   OH218731   0.922   1.330   0.330  0.5624  0.5370  0.0193
 6256TIP3    H118732   0.982   1.264   0.367 -0.3521 -0.4120 -0.1394
 6256TIP3    H218733   0.934   1.407   0.385  2.2356  0.5127 -0.2627
 6257TIP3   OH218734   0.047   5.103   2.330 -0.3260 -0.0824 -0.2383
 6257TIP3    H118735   0.039   5.110   2.425  0.7693 -1.0421 -0.0584
 6257TIP3    H218736  -0.039   5.130   2.297  0.1954  3.3682  0.8170
 6258TIP3   OH218737   4.108   3.054   0.051 -0.3384 -0.5380 -0.1598
 6258TIP3    H118738   4.073   2.988  -0.010 -0.8452 -0.8213  0.4213
 6258TIP3    H218739   4.069   3.031   0.135  3.0311 -2.3408  1.1210
 6259TIP3   OH218740   1.690   3.963   5.878 -0.0137  0.3811 -0.0447
 6259TIP3    H118741   1.756   3.930   5.939  1.0883  1.0665 -0.8379
 6259TIP3    H218742   1.727   3.948   5.792 -0.8268  0.9421 -0.5051
 6260TIP3   OH218743   0.991   3.871   4.537 -0.1690 -0.4500 -0.1970
 6260TIP3    H118744   0.931   3.937   4.571 -1.5856 -1.0359 -1.3801
 6260TIP3    H218745   0.956   3.788   4.571 -0.0371 -0.7956 -0.8826
 6261TIP3   OH218746   4.110   0.432   1.531  0.4099 -0.0064 -0.0026
 6261TIP3    H118747   4.146   0.496   1.468  1.9860 -2.1575 -1.4400
 6261TIP3    H218748   4.108   0.479   1.614 -0.8431  2.6692 -1.4162
 6262TIP3   OH218749   1.634   6.016   1.353 -0.3604 -0.4286 -0.1993
 6262TIP3    H118750   1.686   6.093   1.329 -0.0300 -0.7889 -0.6459
 6262TIP3    H218751   1.674   5.984   1.434 -0.8716  0.2177  0.3165
 6263TIP3   OH218752   6.930   2.765   2.998 -0.1755  0.0486 -0.1469
 6263TIP3    H118753   6.837   2.773   2.978  0.3004  1.5863 -1.9851
 6263TIP3    H218754   6.933   2.760   3.094 -2.1753 -0.8755 -0.0785
 6264TIP3   OH218755   1.454   2.882   5.081 -0.4509 -0.3969 -0.5039
 6264TIP3    H118756   1.442   2.890   5.176 -0.8101 -2.7362 -0.2830
 6264TIP3    H218757   1.381   2.931   5.044 -0.5294  0.2306  0.4255
 6265TIP3   OH218758   7.101   6.100   0.924 -0.3454  0.4377  0.0351
 6265TIP3    H118759   7.126   6.153   0.848  0.7603  0.7350  0.5852
 6265TIP3    H218760   7.133   6.150   0.999 -1.3464  0.1066  0.7010
 6266TIP3   OH218761   4.655   1.106   2.387 -0.2095 -0.6421 -0.3456
 6266TIP3    H118762   4.608   1.033   2.348  0.2310 -0.8853 -0.4362
 6266TIP3    H218763   4.668   1.081   2.478 -1.9981  0.3056  0.2107
 6267TIP3   OH218764   2.264   4.717   2.306  0.1264 -0.0294 -0.0353
 6267TIP3    H118765   2.307   4.795   2.273 -0.7682  0.5030  0.0268
 6267TIP3    H218766   2.318   4.644   2.274  0.8360  0.5970 -0.2815
 6268TIP3   OH218767   5.016   1.416   4.500 -0.0649 -0.0252 -0.8061
 6268TIP3    H118768   4.941   1.397   4.444 -0.3222 -0.2543 -0.3903
 6268TIP3    H218769   4.999   1.367   4.580 -0.2309  1.1373 -0.1096
 6269TIP3   OH218770   5.781   3.069   4.669 -0.6601  0.1587  0.4250
 6269TIP3    H118771   5.751   2.982   4.644 -1.5949  0.6487 -0.2406
 6269TIP3    H218772   5.712   3.102   4.728 -0.5278  0.5971  0.3416
 6270TIP3   OH218773   2.867   0.724   0.224 -0.1496 -0.2784 -0.1961
 6270TIP3    H118774   2.814   0.740   0.146 -1.0942  2.1525  0.8296
 6270TIP3    H218775   2.810   0.674   0.283 -0.4248  0.1962 -0.0536
 6271TIP3   OH218776   5.201   0.306   0.751 -0.1385 -0.1641  0.1540
 6271TIP3    H118777   5.275   0.342   0.801 -0.2995  0.6284 -0.1614
 6271TIP3    H218778   5.137   0.377   0.748 -1.5155 -1.2849  1.5732
 6272TIP3   OH218779   5.849   1.201   5.171  0.4667 -0.6587 -0.2471
 6272TIP3    H118780   5.834   1.178   5.263  1.0849 -1.6715 -0.3820
 6272TIP3    H218781   5.824   1.122   5.123 -0.9005  0.2339 -1.0560
 6273TIP3   OH218782   1.105   0.040   5.248 -0.1170 -0.3702  0.2472
 6273TIP3    H118783   1.188   0.018   5.207  0.1298  1.1564 -0.1488
 6273TIP3    H218784   1.127   0.107   5.313 -1.2470  1.6843 -1.3703
 6274TIP3   OH218785   2.970   3.331   2.235  0.0625  0.2780  0.3949
 6274TIP3    H118786   2.987   3.302   2.324 -0.5753  1.2212  0.8431
 6274TIP3    H218787   3.037   3.287   2.182 -0.3236 -1.2800  1.1408
 6275TIP3   OH218788   1.867   1.348   0.684  0.4327 -0.0101  0.0938
 6275TIP3    H118789   1.957   1.373   0.704  0.1456  0.3694  1.0119
 6275TIP3    H218790   1.833   1.316   0.768 -0.5729  0.7681 -0.0021
 6276TIP3   OH218791   5.356   2.150   4.815  0.2922  0.0115  0.4056
 6276TIP3    H118792   5.441   2.110   4.833  0.2824  0.0734  0.6013
 6276TIP3    H218793   5.350   2.221   4.879  0.8490  1.1172 -0.7397
 6277TIP3   OH218794   3.621   5.162   2.194 -0.3085 -0.3258 -0.1301
 6277TIP3    H118795   3.596   5.254   2.193 -0.9052 -0.4657  0.8306
 6277TIP3    H218796   3.633   5.139   2.102  1.4070  1.1211 -0.3156
 6278TIP3   OH218797   2.613   1.179   1.654  0.4523 -0.3436  0.2206
 6278TIP3    H118798   2.701   1.171   1.617 -0.3798  0.1261 -2.0445
 6278TIP3    H218799   2.588   1.270   1.637 -0.7528 -0.6691  0.1318
 6279TIP3   OH218800   4.021   4.701   1.107 -0.2273  0.7097 -0.6508
 6279TIP3    H118801   4.018   4.701   1.202  0.1712  0.2209 -0.6336
 6279TIP3    H218802   3.929   4.699   1.080 -0.3683 -2.3498 -0.2475
 6280TIP3   OH218803   5.971   4.078   5.441  0.7164 -0.3531 -0.4948
 6280TIP3    H118804   5.946   4.146   5.504 -0.0707  0.7756 -1.9557
 6280TIP3    H218805   6.033   4.023   5.489 -0.4383 -0.0359  1.5260
 6281TIP3   OH218806   6.828   4.473   1.093 -0.3426 -0.0087  0.1565
 6281TIP3    H118807   6.763   4.430   1.148  0.4742 -0.9872  0.3834
 6281TIP3    H218808   6.828   4.422   1.012 -1.8634  1.6764 -1.0048
 6282TIP3   OH218809   4.906   2.896   2.549  0.4432 -0.4217  0.1809
 6282TIP3    H118810   4.955   2.935   2.476 -0.3419  1.3617  0.5450
 6282TIP3    H218811   4.851   2.830   2.507 -0.0434  0.6185 -0.8885
 6283TIP3   OH218812   0.215   3.176   0.212  0.4977  0.2778 -0.1305
 6283TIP3    H118813   0.170   3.127   0.281  0.7756 -0.9005 -0.7595
 6283TIP3    H218814   0.213   3.267   0.242  0.6602 -0.2132  1.4468
 6284TIP3   OH218815   5.005   6.084   2.542 -0.1684  0.1865  0.1535
 6284TIP3    H118816   5.060   6.058   2.468 -0.1595  0.1488  0.1731
 6284TIP3    H218817   5.016   6.178   2.548  1.6011 -0.0614  1.5123
 6285TIP3   OH218818   0.741   4.168   3.125  0.0371 -0.3938  0.1202
 6285TIP3    H118819   0.706   4.246   3.168 -0.6984 -0.6385 -0.0114
 6285TIP3    H218820   0.697   4.166   3.040 -0.3454 -1.2308  0.3257
 6286TIP3   OH218821   4.999   5.418   5.587  0.0324  0.4763 -0.1146
 6286TIP3    H118822   5.016   5.365   5.509  0.7399  1.5768 -0.7417
 6286TIP3    H218823   5.063   5.489   5.582  0.5891  0.1704  1.8766
 6287TIP3   OH218824   2.375   4.812   3.333 -0.9162  0.2227 -0.2884
 6287TIP3    H118825   2.287   4.820   3.296 -1.3095  1.1574  0.7948
 6287TIP3    H218826   2.405   4.902   3.344  0.3729 -0.0793 -1.0383
 6288TIP3   OH218827   2.304   3.732   3.188  0.3305 -0.0529 -0.3900
 6288TIP3    H118828   2.383   3.726   3.242  0.5097  0.5369 -0.5799
 6288TIP3    H218829   2.337   3.747   3.099 -0.0154  1.6760 -0.2517
 6289TIP3   OH218830   0.642   2.595   4.320  0.0845 -0.0597 -0.0489
 6289TIP3    H118831   0.660   2.652   4.245  0.8420  0.4940  0.5405
 6289TIP3    H218832   0.728   2.571   4.354 -0.2388  0.9515  1.5816
 6290TIP3   OH218833   3.081   6.721   0.275  0.0170  0.1268 -0.3117
 6290TIP3    H118834   3.040   6.681   0.199 -0.3194  2.5590 -1.4988
 6290TIP3    H218835   3.040   6.808   0.282 -0.8883 -0.4135  3.4162
 6291TIP3   OH218836   3.194   2.955   3.602 -0.0030 -0.1949 -0.0756
 6291TIP3    H118837   3.178   3.014   3.528 -0.4875 -0.5734 -0.2728
 6291TIP3    H218838   3.228   2.875   3.563 -0.3998 -0.4497  0.0982
 6292TIP3   OH218839   4.739   4.684   4.905  0.0589 -0.2126  0.0937
 6292TIP3    H118840   4.804   4.625   4.868  0.6550  0.9038 -0.7221
 6292TIP3    H218841   4.709   4.641   4.984  0.5627 -1.5370 -0.4040
 6293TIP3   OH218842   6.550   1.766   3.283 -0.3552  0.4879  0.3800
 6293TIP3    H118843   6.539   1.858   3.305  2.1699  1.7220 -2.6784
 6293TIP3    H218844   6.631   1.740   3.328  0.3807  0.6299 -0.8076
 6294TIP3   OH218845   1.688   1.373   2.284  0.0264 -0.4523  0.2208
 6294TIP3    H118846   1.648   1.448   2.330  0.1067  0.1923 -0.7398
 6294TIP3    H218847   1.750   1.413   2.223 -1.6849 -1.1127 -2.0850
 6295TIP3   OH218848   6.409   2.937   3.922 -0.7861 -0.2632 -0.1958
 6295TIP3    H118849   6.344   2.867   3.918  0.4889 -1.5053 -0.0609
 6295TIP3    H218850   6.397   2.986   3.841 -1.2832 -1.0112 -0.5806
 6296TIP3   OH218851   6.205   1.908   2.217  0.4077  0.2095 -0.0657
 6296TIP3    H118852   6.124   1.878   2.257  0.8030  0.9207  1.3352
 6296TIP3    H218853   6.196   1.886   2.124 -0.8533 -0.8254  0.2767
 6297TIP3   OH218854   6.396   2.595   3.605 -0.0954  0.2471  0.2545
 6297TIP3    H118855   6.473   2.640   3.638 -0.2789 -0.0159  1.0656
 6297TIP3    H218856   6.378   2.637   3.520  1.0874  0.1182 -0.0773
 6298TIP3   OH218857   6.298   4.442   2.003 -0.1023  0.2899  0.3738
 6298TIP3    H118858   6.384   4.483   1.992 -1.4093  3.6979  1.4236
 6298TIP3    H218859   6.256   4.493   2.072 -3.0819 -1.0434 -0.2844
 6299TIP3   OH218860   2.942   4.003   2.729  0.1218  0.0303 -0.0300
 6299TIP3    H118861   2.878   4.050   2.783  0.8301  0.4305  0.4849
 6299TIP3    H218862   2.894   3.928   2.695 -0.2432 -0.4799  1.5149
 6300TIP3   OH218863   5.161   4.000   0.686  0.0422 -0.2324 -0.3808
 6300TIP3    H118864   5.213   4.051   0.748 -1.0610 -1.4819  1.6673
 6300TIP3    H218865   5.174   4.045   0.602  2.6337  0.7588  0.4394
 6301TIP3   OH218866   0.815   4.051   0.617  0.1704  0.8248  0.2241
 6301TIP3    H118867   0.724   4.046   0.648 -0.6439 -3.2719 -2.0734
 6301TIP3    H218868   0.821   4.134   0.571 -2.3505  1.3084  0.6425
 6302TIP3   OH218869   1.296   1.789   1.765  0.3772 -0.1004  0.8701
 6302TIP3    H118870   1.334   1.871   1.734 -1.2451  0.4374  0.2150
 6302TIP3    H218871   1.371   1.729   1.770  1.6390  1.4634  1.6329
 6303TIP3   OH218872   4.570   2.178   1.222 -0.5653  0.3452  0.0775
 6303TIP3    H118873   4.513   2.102   1.216 -0.4833  0.3314 -0.5531
 6303TIP3    H218874   4.646   2.147   1.272 -0.1054 -0.2582 -0.9541
 6304TIP3   OH218875   0.250   3.903   0.352  0.0661  0.1101  0.2076
 6304TIP3    H118876   0.284   3.852   0.278  0.2294  0.5624 -0.0347
 6304TIP3    H218877   0.311   3.885   0.423  1.2905  1.5068 -0.4362
 6305TIP3   OH218878   3.930   2.667   0.589 -0.1445 -0.5744 -0.1116
 6305TIP3    H118879   4.012   2.699   0.553 -0.4943  0.0507 -0.3614
 6305TIP3    H218880   3.863   2.725   0.553 -0.8319 -1.7915 -0.8529
 6306TIP3   OH218881   0.345   1.818   1.875 -0.3759 -0.2626  0.4121
 6306TIP3    H118882   0.367   1.810   1.968  0.5782 -0.8258  0.1505
 6306TIP3    H218883   0.280   1.750   1.860 -0.9805  0.2231  0.7948
 6307TIP3   OH218884   0.820   1.152   2.463  0.4305  0.2683  0.1656
 6307TIP3    H118885   0.867   1.227   2.427  1.3512 -0.8746 -1.0838
 6307TIP3    H218886   0.737   1.150   2.415  0.2011  0.7407  0.5299
 6308TIP3   OH218887   0.819   2.305  -0.025 -0.1519  0.4741  0.0697
 6308TIP3    H118888   0.904   2.330   0.012  0.0951 -1.9096  1.2808
 6308TIP3    H218889   0.755   2.335   0.040  0.0101 -0.3887  0.6409
 6309TIP3   OH218890   1.181   0.427   3.473 -0.2341  0.2376  0.3975
 6309TIP3    H118891   1.192   0.340   3.435 -1.8503  0.2674 -0.2364
 6309TIP3    H218892   1.261   0.442   3.522  0.4110 -1.2826 -0.1221
 6310TIP3   OH218893   1.098   4.669   1.659 -0.4456 -0.1235  0.7240
 6310TIP3    H118894   1.070   4.725   1.732  3.0513  0.0708  2.1116
 6310TIP3    H218895   1.118   4.585   1.699  2.9302  0.4011  0.4562
 6311TIP3   OH218896   2.541   4.487   1.388 -0.0470  0.6121 -0.9551
 6311TIP3    H118897   2.481   4.559   1.366 -0.4410  0.7331  0.3953
 6311TIP3    H218898   2.484   4.410   1.397 -0.2927  0.9894  1.6846
 6312TIP3   OH218899   6.828   4.838   0.787  0.6408  0.4241  0.2172
 6312TIP3    H118900   6.854   4.921   0.748  2.8474 -1.4432 -2.7068
 6312TIP3    H218901   6.908   4.803   0.826  0.2962 -1.1990 -0.4298
 6313TIP3   OH218902   3.937   2.263   0.630  0.5559 -0.0164  0.4100
 6313TIP3    H118903   3.912   2.181   0.674  0.4210  0.1595  0.6612
 6313TIP3    H218904   3.968   2.320   0.701  0.8613  0.0728  0.2068
 6314TIP3   OH218905   0.959   4.177   1.746  0.2792 -0.1738 -0.0297
 6314TIP3    H118906   1.053   4.167   1.762  0.1647 -0.8502  0.2681
 6314TIP3    H218907   0.920   4.180   1.833  0.0828  0.8021 -0.1399
 6315TIP3   OH218908   0.036   2.445   3.241 -0.6845  0.2053 -0.8285
 6315TIP3    H118909   0.031   2.472   3.333 -0.7379 -0.2986 -0.6805
 6315TIP3    H218910  -0.017   2.365   3.236  2.2988 -1.9761 -0.4607
 6316TIP3   OH218911   5.206   3.488   2.888  0.0189 -0.1724  0.3801
 6316TIP3    H118912   5.281   3.489   2.947 -0.5343 -0.6270  1.1073
 6316TIP3    H218913   5.166   3.574   2.898 -1.4802 -1.0191  2.5618
 6317TIP3   OH218914   6.868   6.130   5.555  0.2206 -0.4500  0.1581
 6317TIP3    H118915   6.912   6.103   5.474  1.4385  0.6903  0.4102
 6317TIP3    H218916   6.798   6.188   5.525  0.7601  0.0848 -0.0758
 6318TIP3   OH218917   4.968   0.799   4.267 -0.4437 -0.0095 -0.1586
 6318TIP3    H118918   5.038   0.844   4.219 -0.0201  0.2479  0.6753
 6318TIP3    H218919   5.010   0.769   4.348 -1.7308  1.9185  1.3133
 6319TIP3   OH218920   6.265   0.724   2.054  0.2349  0.1469 -0.3354
 6319TIP3    H118921   6.289   0.786   1.986  0.2086 -1.0760 -1.5077
 6319TIP3    H218922   6.231   0.648   2.006 -2.4810  0.3388  1.1194
 6320TIP3   OH218923   2.883   1.757   4.355  0.0153 -0.2728  0.1827
 6320TIP3    H118924   2.866   1.808   4.435 -0.0232  1.3728 -0.8128
 6320TIP3    H218925   2.978   1.750   4.351 -0.0072 -0.9116  0.6925
 6321TIP3   OH218926   2.894   2.540   3.448  0.4481 -0.0049 -0.3566
 6321TIP3    H118927   2.895   2.600   3.373  0.3450 -1.0450 -1.2305
 6321TIP3    H218928   2.967   2.480   3.431  0.9077  0.2256  0.7927
 6322TIP3   OH218929   1.278   5.029   1.173 -0.1859 -0.3225 -0.7058
 6322TIP3    H118930   1.350   5.091   1.159  0.2959 -0.6670  0.1554
 6322TIP3    H218931   1.199   5.084   1.177  0.2643  0.2969  0.3537
 6323TIP3   OH218932   4.287   4.544   4.097 -0.8277 -0.2586  0.0892
 6323TIP3    H118933   4.359   4.604   4.080  0.4802 -1.4379  1.2469
 6323TIP3    H218934   4.212   4.583   4.052  0.3318  1.4111 -0.4750
 6324TIP3   OH218935   3.954   4.210   2.892  0.0010 -0.2828  0.7334
 6324TIP3    H118936   4.026   4.217   2.830 -1.4971  1.0289 -0.9893
 6324TIP3    H218937   3.889   4.155   2.847 -1.6994  1.8365  0.4128
 6325TIP3   OH218938   4.951   6.132   1.323 -0.2356 -0.9227 -0.3019
 6325TIP3    H118939   4.911   6.124   1.410  0.8579  0.1110  0.3370
 6325TIP3    H218940   5.037   6.171   1.340  0.7995 -2.4650 -1.6808
 6326TIP3   OH218941   4.092   2.295   5.344  0.1551  0.3036 -0.2050
 6326TIP3    H118942   4.127   2.259   5.263  0.2000  0.1755 -0.1298
 6326TIP3    H218943   4.145   2.254   5.413 -0.9555 -0.8660 -0.0076
 6327TIP3   OH218944   1.498   5.532   3.299 -0.2414  0.5146  0.3801
 6327TIP3    H118945   1.413   5.526   3.341  1.0171 -2.3812  2.9555
 6327TIP3    H218946   1.546   5.597   3.350 -0.1975  0.4020  0.4855
 6328TIP3   OH218947   6.124   4.759   1.712 -0.7499  0.5886 -0.1399
 6328TIP3    H118948   6.058   4.704   1.754 -0.5330 -1.1122 -1.8914
 6328TIP3    H218949   6.132   4.724   1.624 -0.8370  3.6831 -1.5168
 6329TIP3   OH218950   3.705   6.580   2.424  0.5200  0.1456 -0.5993
 6329TIP3    H118951   3.613   6.596   2.446  0.0064 -3.2670  0.2173
 6329TIP3    H218952   3.753   6.610   2.500 -0.2700 -1.0832  0.4315
 6330TIP3   OH218953   0.724   1.353   3.451  0.4393  0.4354 -0.2807
 6330TIP3    H118954   0.757   1.433   3.409  2.1366 -0.1742 -0.2046
 6330TIP3    H218955   0.698   1.381   3.539  2.3806  0.7002  0.2626
 6331TIP3   OH218956   1.141   6.050   2.591 -0.1511  0.5027  0.5274
 6331TIP3    H118957   1.134   6.014   2.502 -0.0856  0.7770  0.4116
 6331TIP3    H218958   1.222   6.013   2.625  0.2094  0.9844  0.2034
 6332TIP3   OH218959   4.204   3.060   4.264 -0.3371 -0.0023  0.4634
 6332TIP3    H118960   4.201   3.132   4.327  1.3189 -0.4987  1.1526
 6332TIP3    H218961   4.231   3.101   4.182  0.2477  0.2401  0.7670
 6333TIP3   OH218962   5.060   4.250   3.055 -0.4302  0.6187 -0.1875
 6333TIP3    H118963   4.967   4.244   3.078 -0.1854  0.8034  0.8988
 6333TIP3    H218964   5.099   4.300   3.127 -0.0580  3.4591 -2.2147
 6334TIP3   OH218965   0.618   6.695   2.535 -0.6417 -0.0186  0.0800
 6334TIP3    H118966   0.669   6.769   2.565 -0.3201 -0.2420  0.0867
 6334TIP3    H218967   0.638   6.625   2.597 -1.2857  0.0186  0.3344
 6335TIP3   OH218968   2.801   3.156   1.634 -0.0275 -0.4872  0.7445
 6335TIP3    H118969   2.802   3.252   1.626 -0.5464 -0.5827 -0.7979
 6335TIP3    H218970   2.888   3.129   1.603 -0.6613 -0.6159 -1.0570
 6336TIP3   OH218971   7.118   3.930   5.175  0.1598  0.1158 -0.8206
 6336TIP3    H118972   7.202   3.908   5.215 -0.2590 -2.7673 -1.2996
 6336TIP3    H218973   7.055   3.920   5.246  0.0080  0.3469 -0.9243
 6337TIP3   OH218974   2.661   1.021   0.087  0.3496  0.4868  0.0180
 6337TIP3    H118975   2.605   1.048   0.015  2.0668  1.6798 -0.9174
 6337TIP3    H218976   2.676   0.927   0.072 -2.8460 -0.4036  1.3754
 6338TIP3   OH218977   5.662   3.789   5.237 -0.1797  0.2128 -0.2160
 6338TIP3    H118978   5.734   3.852   5.227  1.0610 -0.7934  1.7559
 6338TIP3    H218979   5.588   3.841   5.268  0.5080  0.8629  0.3603
 6339TIP3   OH218980   3.341   6.313   4.955 -0.4851  0.5647 -0.2457
 6339TIP3    H118981   3.262   6.261   4.972  0.4238 -1.2177 -1.2574
 6339TIP3    H218982   3.405   6.282   5.018  0.9063 -1.5893 -2.5246
 6340TIP3   OH218983   0.034   4.387   5.669 -0.8075  0.0548  0.2973
 6340TIP3    H118984   0.027   4.338   5.587 -1.8283  0.6868 -0.0160
 6340TIP3    H218985   0.101   4.454   5.651 -0.3658 -0.3800  0.2953
 6341TIP3   OH218986   4.043   1.480   0.786  0.1693 -0.1181 -0.0383
 6341TIP3    H118987   4.053   1.502   0.878 -0.1419  0.1648 -0.0714
 6341TIP3    H218988   4.112   1.415   0.769  1.2554  1.0000  0.0054
 6342TIP3   OH218989   7.055   4.380   5.086  0.0968 -0.3643  0.0085
 6342TIP3    H118990   7.017   4.468   5.075  1.2432  0.0907 -0.5081
 6342TIP3    H218991   7.092   4.381   5.174  0.6318 -0.1118 -0.2155
 6343TIP3   OH218992   2.347   2.707   1.585  0.7855 -0.2454  0.3370
 6343TIP3    H118993   2.391   2.701   1.670 -2.0061  0.2304  1.9398
 6343TIP3    H218994   2.307   2.621   1.573  1.0847 -0.2762 -0.4674
 6344TIP3   OH218995   6.984   5.201   2.075 -0.6852  0.5732  0.0993
 6344TIP3    H118996   6.989   5.296   2.059 -0.9385  0.4640 -0.6967
 6344TIP3    H218997   7.016   5.162   1.994  0.3877 -0.0366  0.7942
 6345TIP3   OH218998   6.174   5.217   4.267  0.1014  0.3975  0.3010
 6345TIP3    H118999   6.258   5.254   4.241 -0.0304  0.6419  0.2174
 6345TIP3    H219000   6.131   5.288   4.315 -0.8309  0.9264 -1.2546
 6346TIP3   OH219001   1.411   5.585   1.423 -0.1994  0.0041 -0.9480
 6346TIP3    H119002   1.359   5.665   1.417  1.2179  0.9170 -1.6275
 6346TIP3    H219003   1.479   5.605   1.487  1.3492  0.0959 -2.5463
 6347TIP3   OH219004   4.948   5.729   5.422 -0.2134 -0.3680  0.2570
 6347TIP3    H119005   4.994   5.771   5.495  0.0153 -0.1873  0.0130
 6347TIP3    H219006   5.018   5.703   5.362 -0.3880 -0.6744  0.1851
 6348TIP3   OH219007   6.051   2.195   2.265 -0.2442  0.2442  0.3931
 6348TIP3    H119008   6.033   2.278   2.308 -1.5267  0.3339 -0.2673
 6348TIP3    H219009   6.144   2.179   2.281 -0.6916  0.1048  3.4339
 6349TIP3   OH219010   2.413   1.270   1.468  0.0520 -0.3522  0.0847
 6349TIP3    H119011   2.447   1.204   1.528 -1.4768 -1.5303 -0.2801
 6349TIP3    H219012   2.428   1.233   1.381 -1.3109 -0.4955 -0.1053
 6350TIP3   OH219013   3.390   4.611   1.328 -0.8216 -0.6134 -0.2429
 6350TIP3    H119014   3.406   4.696   1.288  0.9371  0.1461  1.8791
 6350TIP3    H219015   3.349   4.559   1.258 -0.2982  1.3768 -2.1474
 6351TIP3   OH219016   6.674   2.447   2.041  0.1448  0.2572 -0.8196
 6351TIP3    H119017   6.598   2.498   2.069  0.0298  1.1231 -2.6271
 6351TIP3    H219018   6.655   2.358   2.072 -2.2960  0.1434 -2.3730
 6352TIP3   OH219019   6.663   3.802   1.700 -0.1449 -0.5559  0.3020
 6352TIP3    H119020   6.659   3.715   1.741 -1.4386 -1.2227 -1.1210
 6352TIP3    H219021   6.681   3.783   1.607 -0.6153  0.6933 -0.0585
 6353TIP3   OH219022   6.888   1.991   0.423 -0.8789  0.1041 -0.3415
 6353TIP3    H119023   6.886   1.997   0.518 -2.0286 -0.9723 -0.2905
 6353TIP3    H219024   6.840   1.912   0.402 -0.9118  0.4925 -1.8455
 6354TIP3   OH219025   3.181   1.753   1.174 -0.5320  0.6964 -0.6991
 6354TIP3    H119026   3.238   1.736   1.248 -1.5932 -0.7928 -0.1679
 6354TIP3    H219027   3.164   1.847   1.177 -0.6526  0.6430  1.0255
 6355TIP3   OH219028   3.336   0.265   5.725  0.0106  0.4726 -0.1840
 6355TIP3    H119029   3.317   0.176   5.756 -0.4576  0.3707 -0.7465
 6355TIP3    H219030   3.401   0.253   5.655  0.2905  0.6122  0.0510
 6356TIP3   OH219031   2.554   4.657   3.494  0.2899  0.6034  0.1850
 6356TIP3    H119032   2.486   4.707   3.448  0.3280  0.0176 -0.5164
 6356TIP3    H219033   2.561   4.701   3.579 -0.3782  1.1824 -0.0404
 6357TIP3   OH219034   6.571   4.786   4.982 -0.6957  0.3094  0.2482
 6357TIP3    H119035   6.622   4.866   4.999 -0.3658  0.0032  0.7456
 6357TIP3    H219036   6.608   4.721   5.042 -0.1576 -0.5593 -0.9708
 6358TIP3   OH219037   3.891   5.999   0.533  0.4495 -0.4953  0.2958
 6358TIP3    H119038   3.843   5.970   0.456 -0.3901  1.9703 -0.1948
 6358TIP3    H219039   3.824   6.039   0.589  1.6168  1.3839  0.4271
 6359TIP3   OH219040   0.970   1.016   1.660 -0.3794 -0.1397 -0.4711
 6359TIP3    H119041   0.900   1.036   1.722 -0.4645  1.2152 -0.9714
 6359TIP3    H219042   0.926   0.967   1.590 -0.7946  0.4912 -0.6643
 6360TIP3   OH219043   4.593   6.279   1.520 -0.5502  0.0628  0.0864
 6360TIP3    H119044   4.575   6.326   1.601 -1.3234  0.2411 -0.1777
 6360TIP3    H219045   4.518   6.220   1.509 -0.7870  0.5091 -0.8290
 6361TIP3   OH219046   2.484   5.295   1.168 -0.1840  0.0131 -0.6065
 6361TIP3    H119047   2.403   5.314   1.121 -1.0363 -0.2539  0.6931
 6361TIP3    H219048   2.505   5.205   1.145  0.9241  0.7395 -2.5916
 6362TIP3   OH219049   5.365   5.926   4.863 -0.6149  0.3386 -0.0905
 6362TIP3    H119050   5.276   5.892   4.862 -1.5470  2.5437  0.5781
 6362TIP3    H219051   5.379   5.956   4.773 -0.0699 -1.0974 -0.4960
 6363TIP3   OH219052   0.577   5.314   0.111 -0.0923 -0.2602 -0.0332
 6363TIP3    H119053   0.581   5.391   0.054  0.1143 -0.2790 -0.0433
 6363TIP3    H219054   0.483   5.298   0.122 -0.1509  0.4057  0.5320
 6364TIP3   OH219055   3.446   6.467   4.528  0.4946  0.5064  0.2002
 6364TIP3    H119056   3.390   6.432   4.597  0.0583 -1.2170 -0.9762
 6364TIP3    H219057   3.389   6.471   4.451  1.1052  1.9296 -0.2092
 6365TIP3   OH219058   1.674   4.645   2.240 -0.1084 -0.1910  0.2670
 6365TIP3    H119059   1.676   4.719   2.178 -1.8366 -0.7750 -0.5531
 6365TIP3    H219060   1.653   4.685   2.324 -4.6824  0.0826 -0.7399
 6366TIP3   OH219061   3.400   3.687   0.238  0.4288  0.1441  0.2163
 6366TIP3    H119062   3.339   3.675   0.164  2.2243 -0.4609 -1.2574
 6366TIP3    H219063   3.460   3.756   0.209  1.1239 -0.0499  1.1447
 6367TIP3   OH219064   2.446   4.165   0.525  0.2793 -0.1221  0.1483
 6367TIP3    H119065   2.430   4.161   0.431  1.7259 -1.0612 -0.0905
 6367TIP3    H219066   2.502   4.242   0.536  0.7649 -0.4626  0.1149
 6368TIP3   OH219067   0.275   1.557   0.833  0.1833  0.0775 -0.3920
 6368TIP3    H119068   0.262   1.484   0.773 -0.9745  0.3630 -0.5088
 6368TIP3    H219069   0.187   1.584   0.858  0.5722 -1.3361  3.0385
 6369TIP3   OH219070   1.483   5.576   5.573  0.1598  0.0559 -0.7226
 6369TIP3    H119071   1.566   5.613   5.602 -0.1811  1.0449 -0.9842
 6369TIP3    H219072   1.451   5.527   5.649 -0.9905  3.0606  0.8990
 6370TIP3   OH219073   2.317   4.716   3.954 -0.0820 -0.2398  0.3157
 6370TIP3    H119074   2.271   4.634   3.933  2.1332 -1.3256 -0.7198
 6370TIP3    H219075   2.388   4.688   4.012  0.6292  0.9548  0.0489
 6371TIP3   OH219076   4.115   5.440   2.740  0.2503 -0.0155 -0.4729
 6371TIP3    H119077   4.072   5.508   2.792  1.0249  1.1460 -1.3121
 6371TIP3    H219078   4.061   5.433   2.661 -0.3266 -1.0276 -0.0066
 6372TIP3   OH219079   0.025   3.419   4.770 -0.0632  0.5012  0.2614
 6372TIP3    H119080   0.078   3.498   4.772  0.4955  0.1313  1.4607
 6372TIP3    H219081  -0.021   3.422   4.686 -0.2153  2.1855  0.3668
 6373TIP3   OH219082   3.549   6.602   1.809 -0.2252 -0.0843 -0.5433
 6373TIP3    H119083   3.607   6.557   1.747 -1.0931 -2.3760  0.2154
 6373TIP3    H219084   3.467   6.553   1.805 -1.1265  1.2550  0.6111
 6374TIP3   OH219085   5.851   6.308   4.964 -0.6957 -0.7649 -0.2519
 6374TIP3    H119086   5.874   6.312   5.057  0.6503  1.2241 -0.5961
 6374TIP3    H219087   5.935   6.310   4.919 -1.3215  1.9617 -1.5202
 6375TIP3   OH219088   4.282   2.414   0.181  0.0217  0.5078 -0.5768
 6375TIP3    H119089   4.364   2.365   0.177  0.0990  0.6001 -0.1931
 6375TIP3    H219090   4.214   2.347   0.180  0.1441  0.3313  0.7830
 6376TIP3   OH219091   2.233   4.092   4.570  0.5305  0.1849  0.0358
 6376TIP3    H119092   2.298   4.031   4.603 -2.0097 -2.8578 -0.0636
 6376TIP3    H219093   2.182   4.117   4.647 -1.2474 -1.5935 -0.4708
 6377TIP3   OH219094   1.467   1.824   4.165  0.4849  0.4913  0.2830
 6377TIP3    H119095   1.495   1.844   4.076  0.4453 -1.4423 -0.2178
 6377TIP3    H219096   1.501   1.896   4.218  2.2428  0.6965 -1.0104
 6378TIP3   OH219097   6.226   5.741   4.716  0.1245  0.1058  0.4268
 6378TIP3    H119098   6.222   5.646   4.721  0.4650  0.0121 -0.8393
 6378TIP3    H219099   6.153   5.766   4.659 -0.6264  0.6972  1.6134
 6379TIP3   OH219100   0.606   2.271   2.841 -0.3888  0.4145 -0.0265
 6379TIP3    H119101   0.640   2.280   2.751 -2.5361 -1.0963 -1.0736
 6379TIP3    H219102   0.546   2.345   2.850 -0.6264  0.2285 -0.0734
 6380TIP3   OH219103   3.381   5.918   4.110 -0.4323 -0.7536  0.4300
 6380TIP3    H119104   3.355   5.826   4.121 -1.3360 -0.3639  1.8515
 6380TIP3    H219105   3.301   5.962   4.080  0.7931 -0.9247 -3.7262
 6381TIP3   OH219106   6.665   4.397   5.172 -0.3311  0.0153 -0.1234
 6381TIP3    H119107   6.638   4.355   5.254 -1.9523 -0.4654 -0.8650
 6381TIP3    H219108   6.677   4.325   5.111  2.4151  0.2337  0.0353
 6382TIP3   OH219109   3.105   4.799   2.256  0.1591 -0.0503 -0.3982
 6382TIP3    H119110   3.133   4.761   2.340 -4.9255  0.7508  1.9957
 6382TIP3    H219111   3.040   4.738   2.223 -2.3030  2.5024 -0.5821
 6383TIP3   OH219112   1.802   4.542   5.077 -0.5975 -0.1513 -0.2068
 6383TIP3    H119113   1.858   4.473   5.110 -2.3087 -1.4484  0.1385
 6383TIP3    H219114   1.809   4.613   5.141 -0.4488 -0.8606  0.5667
 6384TIP3   OH219115   1.684   1.222   5.472 -0.2617  0.2646  0.7400
 6384TIP3    H119116   1.594   1.218   5.440 -0.2177 -0.2001  0.6705
 6384TIP3    H219117   1.723   1.139   5.444  0.3073  0.6362  0.4055
 6385TIP3   OH219118   3.777   3.953   1.971 -0.6868 -0.2384 -0.0332
 6385TIP3    H119119   3.714   3.969   2.041 -1.4759 -2.1231 -0.2245
 6385TIP3    H219120   3.788   4.037   1.928 -0.1898  0.9679  2.3089
 6386TIP3   OH219121   4.149   2.921   1.906  0.0812  0.3687  0.1880
 6386TIP3    H119122   4.132   2.917   1.812 -1.1779 -1.0000  0.4344
 6386TIP3    H219123   4.070   2.885   1.946  1.0431 -0.1254  1.7322
 6387TIP3   OH219124   6.794   1.117   3.329 -0.1439  0.1310 -0.7659
 6387TIP3    H119125   6.829   1.112   3.240 -0.9345 -0.0830 -1.0718
 6387TIP3    H219126   6.703   1.090   3.321 -0.0154 -0.6995  0.2356
 6388TIP3   OH219127   1.378   1.930   5.023 -0.4491  0.4950 -0.0803
 6388TIP3    H119128   1.408   1.873   4.952  0.3667 -0.1852  0.7843
 6388TIP3    H219129   1.312   1.986   4.982  1.3857  1.4954 -1.8624
 6389TIP3   OH219130   6.278   4.287   3.912  0.5456  0.3038 -0.1931
 6389TIP3    H119131   6.296   4.377   3.941 -0.7107  0.5876 -0.2440
 6389TIP3    H219132   6.360   4.240   3.927  1.4571  1.6286 -0.8461
 6390TIP3   OH219133   1.812   4.975   1.525 -0.1142  0.3813 -0.3499
 6390TIP3    H119134   1.742   5.041   1.532 -1.5894 -1.3005  3.4435
 6390TIP3    H219135   1.881   5.008   1.581 -0.1927 -0.5091  0.2850
 6391TIP3   OH219136   6.415   6.622   3.622 -0.0161 -0.6390 -0.0766
 6391TIP3    H119137   6.333   6.663   3.650  0.2617 -0.0312 -0.1414
 6391TIP3    H219138   6.417   6.538   3.668  0.8606  0.6772  2.4585
 6392TIP3   OH219139   1.961   0.162   5.607  0.4569 -1.0244  0.2814
 6392TIP3    H119140   2.008   0.236   5.645 -0.7016  1.3967 -2.5329
 6392TIP3    H219141   2.007   0.144   5.525 -0.9870 -1.4127 -0.4851
 6393TIP3   OH219142   6.258   4.356   2.354  0.3124 -0.0477 -0.2543
 6393TIP3    H119143   6.213   4.299   2.292 -0.2178  0.8435 -0.7064
 6393TIP3    H219144   6.188   4.395   2.407  0.3574  2.4837 -1.9273
 6394TIP3   OH219145   4.124   5.333   5.221  0.1353  0.5715 -0.7939
 6394TIP3    H119146   4.047   5.342   5.277  1.3254  0.1645  0.9903
 6394TIP3    H219147   4.164   5.250   5.248 -0.1636 -0.5696 -3.5021
 6395TIP3   OH219148   7.067   6.605   5.215  0.2125  0.0431 -0.5557
 6395TIP3    H119149   7.122   6.530   5.195  0.1585 -0.2452  0.3352
 6395TIP3    H219150   6.977   6.573   5.206  0.1214 -0.8007  2.3918
 6396TIP3   OH219151   4.209   5.856   3.709 -0.6301  0.5776 -0.3511
 6396TIP3    H119152   4.164   5.927   3.754 -0.0386  1.2250 -0.7462
 6396TIP3    H219153   4.227   5.791   3.777 -2.1255  0.3007 -0.1878
 6397TIP3   OH219154   1.480   0.858   1.926  0.5465  0.0332 -0.1051
 6397TIP3    H119155   1.456   0.878   2.017  0.0119 -1.1678  0.0334
 6397TIP3    H219156   1.401   0.821   1.888  1.0861 -0.4822 -0.7417
 6398TIP3   OH219157   6.781   3.990   4.520  0.3302 -0.6670  0.3766
 6398TIP3    H119158   6.737   3.988   4.435  0.2429  0.4530  0.3802
 6398TIP3    H219159   6.866   4.029   4.502  2.0194 -4.0966  0.1111
 6399TIP3   OH219160   5.314   4.577   0.436  0.3008 -0.0537 -0.1604
 6399TIP3    H119161   5.287   4.658   0.393 -0.3107  0.3238  0.8956
 6399TIP3    H219162   5.232   4.542   0.473  0.9751  0.3096  1.7966
 6400TIP3   OH219163   4.629   2.874   1.406  0.1147 -0.0590  0.0082
 6400TIP3    H119164   4.561   2.872   1.338 -0.1046  1.6322  0.1476
 6400TIP3    H219165   4.711   2.886   1.358 -0.2035  2.9295  0.0607
 6401TIP3   OH219166   0.632   0.616   5.799 -0.1839 -0.4431 -0.3513
 6401TIP3    H119167   0.579   0.549   5.843  1.3653 -1.2776  0.3166
 6401TIP3    H219168   0.659   0.574   5.717 -0.6732  0.0417 -0.7676
 6402TIP3   OH219169   3.948   5.035   2.863  0.1362 -0.3670 -0.4169
 6402TIP3    H119170   3.860   5.027   2.827 -0.6955  0.5849  1.2491
 6402TIP3    H219171   3.960   4.957   2.916 -1.3888  1.2175  2.5544
 6403TIP3   OH219172   6.276   6.693   0.937  0.5332 -0.0798  0.3238
 6403TIP3    H119173   6.343   6.761   0.929  1.6395 -1.0687  0.7271
 6403TIP3    H219174   6.303   6.626   0.873 -2.8702  1.5931 -3.2282
 6404TIP3   OH219175   6.217   5.543   0.388 -0.2124 -0.5883 -0.1496
 6404TIP3    H119176   6.305   5.505   0.395 -0.1008 -0.3505 -0.2398
 6404TIP3    H219177   6.168   5.503   0.459  0.4113  0.4704  0.9156
 6405TIP3   OH219178   6.360   2.652   5.488 -0.5370  0.7357 -0.3219
 6405TIP3    H119179   6.440   2.665   5.437 -0.4471  1.9618  0.1137
 6405TIP3    H219180   6.390   2.640   5.578 -0.7946  0.1365 -0.3045
 6406TIP3   OH219181   6.972   0.285   0.760  0.2377 -0.3030 -0.2963
 6406TIP3    H119182   6.986   0.340   0.682  1.1136 -0.0317  0.0468
 6406TIP3    H219183   6.877   0.272   0.762  0.0531  0.8272 -0.6488
 6407TIP3   OH219184   2.312   4.723   0.343 -0.0569  0.0255 -0.4341
 6407TIP3    H119185   2.262   4.804   0.340  0.4400  0.3717  0.3718
 6407TIP3    H219186   2.257   4.659   0.297  0.4615  1.2691 -2.9800
 6408TIP3   OH219187   3.702   2.827   0.043  0.1244 -0.0035  0.3434
 6408TIP3    H119188   3.690   2.889   0.115 -1.3548 -0.3243  0.4135
 6408TIP3    H219189   3.623   2.773   0.045  1.3109 -1.8361  0.2304
 6409TIP3   OH219190   1.974   4.541   0.764 -0.6292 -0.4540 -0.1553
 6409TIP3    H119191   1.880   4.551   0.778 -0.4867  4.0463 -1.0448
 6409TIP3    H219192   1.981   4.508   0.674 -1.4865  1.9485 -1.1895
 6410TIP3   OH219193   6.393   6.312   3.701  0.1547 -0.0872  0.0990
 6410TIP3    H119194   6.387   6.273   3.788  2.1693 -0.0458  0.3090
 6410TIP3    H219195   6.335   6.260   3.647 -1.0861 -0.1571  1.4387
 6411TIP3   OH219196   5.624   6.109   2.531  0.3912 -0.9800 -0.0690
 6411TIP3    H119197   5.578   6.052   2.469 -1.3989  0.3211 -0.0214
 6411TIP3    H219198   5.555   6.143   2.588  0.6982  3.5800 -1.9489
 6412TIP3   OH219199   3.881   0.021   1.948 -0.1170 -0.3088 -0.1855
 6412TIP3    H119200   3.811  -0.033   1.911  1.4668 -1.5347 -1.5120
 6412TIP3    H219201   3.844   0.109   1.951 -2.2034 -1.1367  0.5053
 6413TIP3   OH219202   5.302   2.877   3.462  0.4340  0.2600 -0.0137
 6413TIP3    H119203   5.386   2.921   3.448  0.9573 -0.8246 -0.3746
 6413TIP3    H219204   5.282   2.894   3.554  1.3399  0.0519  0.2321
 6414TIP3   OH219205   1.635   0.831   4.578 -0.1512 -0.1631 -0.1015
 6414TIP3    H119206   1.636   0.881   4.659  0.4302  1.0999 -0.8650
 6414TIP3    H219207   1.588   0.750   4.600  3.1119 -1.5854  2.4951
 6415TIP3   OH219208   4.880   0.183   3.682  0.2363 -0.0231  0.1730
 6415TIP3    H119209   4.839   0.264   3.713  1.4241  0.4739  0.5144
 6415TIP3    H219210   4.913   0.141   3.761 -0.7549 -1.0923  0.0498
 6416TIP3   OH219211   0.743   2.862   0.629 -0.6031  0.2332 -0.2195
 6416TIP3    H119212   0.685   2.860   0.553 -1.5267 -0.3877  0.4978
 6416TIP3    H219213   0.733   2.777   0.670 -0.1885  0.5992  0.6674
 6417TIP3   OH219214   6.752   2.737   0.265  0.7127 -0.3791 -0.0505
 6417TIP3    H119215   6.682   2.737   0.200  0.9117 -1.2142 -0.2861
 6417TIP3    H219216   6.728   2.666   0.325 -0.1225  1.1697  1.5423
 6418TIP3   OH219217   1.557   2.016   5.572  0.0065  0.1831 -1.1653
 6418TIP3    H119218   1.588   2.083   5.511  4.7772 -0.1551  0.4594
 6418TIP3    H219219   1.604   1.936   5.546 -0.2834 -0.7547  0.9952
 6419TIP3   OH219220   7.040   3.940   2.340  0.0278  0.6102 -0.1244
 6419TIP3    H119221   7.080   3.900   2.263 -2.6106 -0.7223 -0.9099
 6419TIP3    H219222   7.059   4.034   2.331  1.1529  0.2652 -1.5175
 6420TIP3   OH219223   0.544   6.229   1.062  0.2088  0.1053 -0.0370
 6420TIP3    H119224   0.578   6.261   0.979  1.8043  0.2548  0.6417
 6420TIP3    H219225   0.554   6.134   1.057 -1.7316 -0.1052 -0.8473
 6421TIP3   OH219226   6.223   5.309   1.653  0.2322 -0.1659 -0.1621
 6421TIP3    H119227   6.213   5.310   1.558 -0.4406  0.4465 -0.0973
 6421TIP3    H219228   6.285   5.239   1.670 -0.6611 -1.1885 -0.9601
 6422TIP3   OH219229   5.116   3.753   4.669 -0.4354 -0.1509  0.6932
 6422TIP3    H119230   5.114   3.775   4.762 -0.1604  1.4813  0.3358
 6422TIP3    H219231   5.029   3.775   4.637 -0.8664 -1.6827  0.7538
 6423TIP3   OH219232   0.805   0.749   2.715 -0.0218  0.0587  0.3819
 6423TIP3    H119233   0.895   0.724   2.693  0.4107  0.0922  1.9907
 6423TIP3    H219234   0.768   0.778   2.632  1.3278 -0.3182 -0.3916
 6424TIP3   OH219235   0.198   0.953   1.255 -0.2187 -0.0822 -0.0353
 6424TIP3    H119236   0.106   0.926   1.260 -0.9152  2.0862 -0.1860
 6424TIP3    H219237   0.202   1.033   1.307  1.8967 -0.8273  1.0396
 6425TIP3   OH219238   4.489   2.602   2.605  0.3758  0.3166  0.3740
 6425TIP3    H119239   4.433   2.600   2.527 -1.1451  3.8244  1.1936
 6425TIP3    H219240   4.497   2.510   2.631 -2.0541 -0.6402 -1.8505
 6426TIP3   OH219241   0.225   0.239   5.400  0.0665 -0.3634 -0.4036
 6426TIP3    H119242   0.284   0.243   5.325 -0.6265  0.4042 -0.9250
 6426TIP3    H219243   0.147   0.195   5.367 -0.4180  0.3700 -0.2596
 6427TIP3   OH219244   0.799   3.643   2.117 -0.3073 -0.2238 -0.5058
 6427TIP3    H119245   0.848   3.568   2.150  0.2147  0.6051  0.6749
 6427TIP3    H219246   0.712   3.609   2.099 -0.1637 -1.0474  0.3061
 6428TIP3   OH219247   3.990   1.190   2.479  0.6298  0.1429 -0.2240
 6428TIP3    H119248   4.033   1.125   2.423 -0.2300  0.4246 -1.2330
 6428TIP3    H219249   3.913   1.217   2.430  0.5218  1.3207  0.5535
 6429TIP3   OH219250   0.426   1.261   4.618 -0.1320 -0.4179  0.6811
 6429TIP3    H119251   0.437   1.168   4.597  0.2342 -0.4732  1.0808
 6429TIP3    H219252   0.371   1.296   4.548 -1.5184 -1.2588  1.3094
 6430TIP3   OH219253   2.995   0.298   0.484 -0.6896  0.3364 -0.5433
 6430TIP3    H119254   2.924   0.287   0.421 -1.3141  1.6161 -0.0830
 6430TIP3    H219255   2.982   0.226   0.546 -1.0797  0.0696 -0.9248
 6431TIP3   OH219256   1.170   6.086   5.654 -0.0547  0.0031 -0.1322
 6431TIP3    H119257   1.227   6.098   5.579  0.3143  0.0701  0.1583
 6431TIP3    H219258   1.191   5.999   5.688 -0.1062  0.0368 -0.0087
 6432TIP3   OH219259   6.169   2.823   4.649 -0.2324 -0.0690  0.3738
 6432TIP3    H119260   6.106   2.754   4.624  0.1789  0.0715 -1.1464
 6432TIP3    H219261   6.223   2.835   4.572 -0.0815  1.7579  0.7153
 6433TIP3   OH219262   1.429   2.016   4.323 -0.0225  0.3704 -0.1319
 6433TIP3    H119263   1.418   2.111   4.314 -0.0216  0.5342  1.3142
 6433TIP3    H219264   1.375   1.993   4.399  2.8796 -0.1539  1.9295
 6434TIP3   OH219265   5.015   1.120   0.271  0.0228  0.5421 -0.3370
 6434TIP3    H119266   5.073   1.080   0.336 -1.3956 -1.4709 -0.1956
 6434TIP3    H219267   4.998   1.208   0.305  0.1079 -0.1071  1.5037
 6435TIP3   OH219268   4.552   6.509   3.711  0.0947  0.1998  0.2685
 6435TIP3    H119269   4.480   6.520   3.772 -0.2076  2.4709 -0.3820
 6435TIP3    H219270   4.625   6.555   3.752 -0.3063  2.3858 -1.2718
 6436TIP3   OH219271   4.103   3.810   3.537  0.2887 -0.0278 -0.1213
 6436TIP3    H119272   4.123   3.849   3.452 -0.0193 -1.4766 -0.8761
 6436TIP3    H219273   4.084   3.885   3.593 -0.6999  0.9147 -1.6328
 6437TIP3   OH219274   4.622   6.730   0.737  0.0493 -0.0187  0.2027
 6437TIP3    H119275   4.659   6.644   0.756 -2.1678 -1.0642  0.1100
 6437TIP3    H219276   4.697   6.790   0.739  1.7264 -2.0044 -0.2247
 6438TIP3   OH219277   3.387   1.509   5.091 -0.4759  0.1393 -0.0294
 6438TIP3    H119278   3.463   1.454   5.109 -1.6421 -1.2650  0.8250
 6438TIP3    H219279   3.331   1.497   5.168 -0.5900  2.9138  0.4367
 6439TIP3   OH219280   0.497   4.896   3.036 -0.3527 -0.0692 -0.1454
 6439TIP3    H119281   0.591   4.878   3.048 -0.2762 -0.1356 -0.7741
 6439TIP3    H219282   0.461   4.898   3.124  0.4347  1.0180  0.1800
 6440TIP3   OH219283   6.609   1.469   1.827  0.2849  0.3332 -0.3356
 6440TIP3    H119284   6.645   1.415   1.756 -1.1454 -1.0069 -0.0938
 6440TIP3    H219285   6.572   1.545   1.782  0.3672  0.0456 -0.9125
 6441TIP3   OH219286   5.491   0.795   3.812  0.0022 -0.6939  0.5500
 6441TIP3    H119287   5.459   0.793   3.722  1.4076 -0.0028  0.0161
 6441TIP3    H219288   5.549   0.719   3.819  1.5178  0.3815  0.2093
 6442TIP3   OH219289   0.469   1.959   1.209  0.6436 -0.4336  0.6165
 6442TIP3    H119290   0.499   1.877   1.170 -0.8564 -1.4380  1.4722
 6442TIP3    H219291   0.544   1.990   1.259  1.7314 -0.4691 -0.9300
 6443TIP3   OH219292   4.397   3.847   4.339 -0.1998  0.1458  0.6712
 6443TIP3    H119293   4.334   3.873   4.406  0.6714  2.3590  0.7191
 6443TIP3    H219294   4.482   3.853   4.382  0.3314  1.1097 -0.4579
 6444TIP3   OH219295   1.588   3.812   0.279  0.4872 -0.1995  0.2871
 6444TIP3    H119296   1.659   3.854   0.231  1.0844 -0.8767  0.5609
 6444TIP3    H219297   1.581   3.725   0.241 -0.3609 -0.0717  0.1133
 6445TIP3   OH219298   2.980   0.351   3.023  0.5166 -0.4514 -1.1877
 6445TIP3    H119299   2.917   0.422   3.033  0.2929 -0.5638 -1.7278
 6445TIP3    H219300   2.996   0.319   3.112  2.4981  1.8813 -0.6198
 6446TIP3   OH219301   7.158   4.217   5.440 -0.0424  0.4313  0.4424
 6446TIP3    H119302   7.181   4.199   5.349 -3.8438 -2.0883 -0.2506
 6446TIP3    H219303   7.202   4.149   5.490 -0.6870 -0.3126  0.0123
 6447TIP3   OH219304   2.162   1.459   2.145  0.2393  0.1681 -0.4845
 6447TIP3    H119305   2.136   1.396   2.078 -0.7731  0.4114 -0.3366
 6447TIP3    H219306   2.138   1.544   2.109 -1.0195  0.2510  0.4728
 6448TIP3   OH219307   0.334   1.455   5.497  0.1935 -0.2267 -0.3303
 6448TIP3    H119308   0.414   1.507   5.495 -0.1272  0.2736 -0.6142
 6448TIP3    H219309   0.295   1.475   5.582  0.1243 -0.0807 -0.3955
 6449TIP3   OH219310   6.486   4.391   4.919  0.0104 -0.1016  0.1821
 6449TIP3    H119311   6.437   4.455   4.970 -0.1191  0.2114 -0.3279
 6449TIP3    H219312   6.421   4.349   4.863  0.3284  0.4250 -0.6072
 6450TIP3   OH219313   0.968   1.740   3.526 -0.2025  0.4132  0.3402
 6450TIP3    H119314   0.976   1.816   3.583 -1.7742 -1.0230  2.6851
 6450TIP3    H219315   1.058   1.711   3.511  0.2872  1.3463  1.3711
 6451TIP3   OH219316   2.572   2.221   5.264  0.0042  0.7188  0.4586
 6451TIP3    H119317   2.586   2.312   5.240 -2.5000  1.1271  0.2884
 6451TIP3    H219318   2.482   2.202   5.237  0.8861 -2.2664 -0.9138
 6452TIP3   OH219319   4.702   2.471   1.011 -0.3887  0.5449 -0.8237
 6452TIP3    H119320   4.782   2.516   0.986  0.7225 -0.9102 -0.0630
 6452TIP3    H219321   4.643   2.483   0.937  0.5364  1.6046 -1.4242
 6453TIP3   OH219322   5.891   1.699   4.406  0.7998  0.0670  0.0143
 6453TIP3    H119323   5.887   1.606   4.382 -0.3064  0.5307 -1.7132
 6453TIP3    H219324   5.883   1.699   4.501 -0.1691 -1.5611 -0.0333
 6454TIP3   OH219325   4.351   2.435   5.058 -0.4363 -0.0198  0.5733
 6454TIP3    H119326   4.325   2.354   5.103  1.4997 -0.8502  0.2661
 6454TIP3    H219327   4.348   2.502   5.127  2.3033 -1.2288  2.0427
 6455TIP3   OH219328   0.729   6.593   4.873 -0.6731 -0.0768  0.0688
 6455TIP3    H119329   0.636   6.572   4.859 -1.1684  0.8410  1.6782
 6455TIP3    H219330   0.739   6.680   4.835  0.3329 -1.3546 -2.8257
 6456TIP3   OH219331   6.577   1.254   0.596 -0.7702  0.8821  0.2191
 6456TIP3    H119332   6.509   1.286   0.656 -1.3688  2.7572 -1.3711
 6456TIP3    H219333   6.530   1.231   0.516  0.1450 -0.6397  0.0844
 6457TIP3   OH219334   6.473   3.320   3.883  0.4247  0.0306  0.6078
 6457TIP3    H119335   6.486   3.374   3.806  1.4686  0.9481  1.3895
 6457TIP3    H219336   6.500   3.232   3.855 -0.4120  0.0817 -0.4100
 6458TIP3   OH219337   5.881   6.683   2.843 -0.1779  0.1495  0.7686
 6458TIP3    H119338   5.802   6.655   2.888 -1.9187  0.9328 -1.6336
 6458TIP3    H219339   5.909   6.605   2.795  0.0234  0.1314  0.9113
 6459TIP3   OH219340   0.484   4.502   2.866 -0.1446  0.5712 -0.1812
 6459TIP3    H119341   0.460   4.433   2.805 -1.0672  1.4074 -0.7988
 6459TIP3    H219342   0.421   4.494   2.938 -0.1968  0.7112 -0.2102
 6460TIP3   OH219343   3.171   2.958   0.341 -0.0137  0.3248  0.2379
 6460TIP3    H119344   3.091   2.942   0.391  0.7209 -0.4329  1.2013
 6460TIP3    H219345   3.197   3.047   0.366  0.6304 -0.2268  1.6663
 6461TIP3   OH219346   2.166   3.233   1.112 -0.6516 -0.0252  0.1016
 6461TIP3    H119347   2.182   3.231   1.018  0.7596  1.5437  0.2623
 6461TIP3    H219348   2.251   3.213   1.152 -1.2107 -0.5802  1.0596
 6462TIP3   OH219349   6.010   1.221   0.186 -0.3820 -0.3701  0.8058
 6462TIP3    H119350   5.979   1.137   0.218 -0.1748 -1.2467 -1.1616
 6462TIP3    H219351   5.931   1.269   0.162 -0.5186  0.1637  2.2447
 6463TIP3   OH219352   4.778   4.833   2.777  0.3710  0.6752  0.3868
 6463TIP3    H119353   4.710   4.767   2.791 -0.0727  0.6705 -1.5405
 6463TIP3    H219354   4.744   4.912   2.820 -1.3296  0.9251 -1.2749
 6464TIP3   OH219355   4.944   6.500   1.996  0.2307  0.3039 -0.0401
 6464TIP3    H119356   4.853   6.494   2.025  0.7085  0.2171  1.4951
 6464TIP3    H219357   4.991   6.538   2.069  1.8182 -1.6721  0.0591
 6465TIP3   OH219358   3.043   2.006   4.009 -0.2210 -0.3206 -0.1166
 6465TIP3    H119359   3.070   1.940   4.074  0.4114  0.0305 -0.0078
 6465TIP3    H219360   3.105   1.994   3.937 -2.0327 -1.9428 -1.5106
 6466TIP3   OH219361   0.564   2.401   5.321  0.0782 -0.4996 -0.4504
 6466TIP3    H119362   0.595   2.333   5.261  0.5086 -1.2744  0.6272
 6466TIP3    H219363   0.559   2.480   5.267  6.2201  0.4136 -0.4108
 6467TIP3   OH219364   0.887   6.400   2.494  0.6541 -0.4544 -0.4724
 6467TIP3    H119365   0.816   6.390   2.557  2.2877  1.6029  1.9128
 6467TIP3    H219366   0.966   6.378   2.543  1.9619  0.8566 -1.8724
 6468TIP3   OH219367   0.754   6.086   5.815  0.7494 -0.8414 -0.5390
 6468TIP3    H119368   0.671   6.083   5.768  2.1305 -0.0213 -3.2499
 6468TIP3    H219369   0.763   6.000   5.855 -2.0567 -0.4437  1.1566
 6469TIP3   OH219370   4.768   0.675   3.923  0.1400 -0.0887  0.8786
 6469TIP3    H119371   4.825   0.747   3.895 -1.9141  1.4111  0.2661
 6469TIP3    H219372   4.740   0.634   3.841 -1.7260  0.9340  0.9423
 6470TIP3   OH219373   5.722   4.651   1.736 -0.2454 -0.0288 -0.2474
 6470TIP3    H119374   5.690   4.741   1.732  0.8810  0.4089 -0.0351
 6470TIP3    H219375   5.674   4.605   1.668 -2.1846  0.2622  0.8570
 6471TIP3   OH219376   1.238   4.794   4.544  0.0008  0.6610 -0.0813
 6471TIP3    H119377   1.310   4.776   4.484  0.6107  1.0125  0.5353
 6471TIP3    H219378   1.209   4.883   4.521  0.5334  0.9747  0.4321
 6472TIP3   OH219379   1.436   2.255   4.065  0.1221  0.8727  0.0441
 6472TIP3    H119380   1.363   2.312   4.038 -0.5206 -0.1235 -0.3843
 6472TIP3    H219381   1.428   2.178   4.009  1.3162  0.5975  0.2321
 6473TIP3   OH219382   3.447   6.534   3.126  0.3287 -0.7219  0.1200
 6473TIP3    H119383   3.525   6.585   3.147 -1.8432  3.0290  0.0344
 6473TIP3    H219384   3.400   6.526   3.209 -0.1097 -1.1608 -0.1625
 6474TIP3   OH219385   5.991   4.200   0.206  0.3616 -0.1872 -0.3834
 6474TIP3    H119386   5.947   4.132   0.157  0.3359 -0.0445 -0.5598
 6474TIP3    H219387   6.055   4.237   0.144 -0.0381  0.3536 -0.4856
 6475TIP3   OH219388   7.055   1.782   4.501  0.1482 -0.7049 -0.0139
 6475TIP3    H119389   6.993   1.847   4.534 -0.2398 -1.1028  0.0407
 6475TIP3    H219390   7.133   1.834   4.478  0.2708 -0.3632  1.1210
 6476TIP3   OH219391   3.776   3.897   2.915  0.3397  0.2174  0.1872
 6476TIP3    H119392   3.742   3.986   2.922 -1.1256 -0.3290  0.5471
 6476TIP3    H219393   3.699   3.842   2.931  1.2838 -1.1050  0.2707
 6477TIP3   OH219394   6.743   6.418   0.720 -0.5824 -0.3061  0.6953
 6477TIP3    H119395   6.662   6.412   0.770 -0.4177  0.6602  1.1045
 6477TIP3    H219396   6.811   6.426   0.787 -0.3770  1.2158  0.3382
 6478TIP3   OH219397   4.602   0.567   4.438 -0.2346  0.2241 -0.1736
 6478TIP3    H119398   4.668   0.556   4.370  0.3138  0.1182  0.3696
 6478TIP3    H219399   4.520   0.581   4.390  0.1576  0.2307 -0.8496
 6479TIP3   OH219400   3.438   1.516   4.111 -0.4268  0.0482  0.7818
 6479TIP3    H119401   3.497   1.482   4.044 -1.6238  0.4309 -0.5249
 6479TIP3    H219402   3.460   1.467   4.190  0.0815 -1.4366 -0.2436
 6480TIP3   OH219403   0.534   3.922   3.093  0.4618  0.4720 -0.2402
 6480TIP3    H119404   0.504   4.013   3.084 -1.9223 -0.2745 -0.5235
 6480TIP3    H219405   0.578   3.904   3.009  0.5058  1.1862 -0.3840
 6481TIP3   OH219406   2.325   6.386   0.064 -0.2739  0.2350  0.3958
 6481TIP3    H119407   2.341   6.471   0.022  0.0955  0.2960  0.6488
 6481TIP3    H219408   2.412   6.358   0.094 -0.2754 -0.5465 -0.2785
 6482TIP3   OH219409   0.095   1.222   4.209 -0.4036  0.7975  0.4532
 6482TIP3    H119410   0.036   1.186   4.143  2.5210 -0.9616 -1.3670
 6482TIP3    H219411   0.142   1.292   4.164  1.7924 -0.5748  0.4567
 6483TIP3   OH219412   4.148   4.255   4.559 -0.0194  0.1864  0.0196
 6483TIP3    H119413   4.092   4.316   4.608  1.0055  0.9695  0.2476
 6483TIP3    H219414   4.086   4.204   4.506 -1.0152  0.4559  0.8753
 6484TIP3   OH219415   1.769   3.848   1.183  0.2897  0.4599  0.0340
 6484TIP3    H119416   1.721   3.801   1.115  2.4851 -1.0989 -0.5220
 6484TIP3    H219417   1.770   3.788   1.257  2.0314  0.0934 -0.2482
 6485TIP3   OH219418   3.061   0.690   4.371 -0.6624 -0.3660 -0.2282
 6485TIP3    H119419   2.966   0.689   4.379 -0.7172  0.3021 -0.7507
 6485TIP3    H219420   3.081   0.775   4.332  0.0017 -1.2946 -2.0052
 6486TIP3   OH219421   5.834   6.136   1.152  0.5196 -0.4811  0.3341
 6486TIP3    H119422   5.747   6.174   1.153  0.4637 -0.6071  1.1874
 6486TIP3    H219423   5.890   6.204   1.189  0.8560 -0.2471 -0.5852
 6487TIP3   OH219424   5.561   2.408   1.232 -0.9476 -0.0641  0.3273
 6487TIP3    H119425   5.644   2.360   1.223 -0.8354 -0.5247  2.9882
 6487TIP3    H219426   5.497   2.354   1.186 -0.1372 -0.8171  0.0507
 6488TIP3   OH219427   6.138   3.430   1.807  0.2056 -0.0090 -0.5547
 6488TIP3    H119428   6.220   3.478   1.794  0.4891 -0.0195  1.0277
 6488TIP3    H219429   6.090   3.482   1.871 -0.5059 -0.6426 -0.5575
 6489TIP3   OH219430   2.119   6.482   0.215 -0.2105  0.1017  0.0897
 6489TIP3    H119431   2.200   6.520   0.247  1.3960  0.5901 -3.9885
 6489TIP3    H219432   2.147   6.412   0.156 -2.8211 -0.6299 -0.4131
 6490TIP3   OH219433   1.425   3.630   4.334 -0.0236 -1.1114 -0.2597
 6490TIP3    H119434   1.422   3.704   4.275 -0.1129 -1.7918 -1.1301
 6490TIP3    H219435   1.342   3.633   4.382  0.7912  0.4580  1.1265
 6491TIP3   OH219436   4.824   6.233   5.695 -0.2580 -0.3327 -0.5808
 6491TIP3    H119437   4.889   6.190   5.640  1.2569 -2.3031  2.4923
 6491TIP3    H219438   4.865   6.316   5.720 -0.7637  0.3598 -1.9449
 6492TIP3   OH219439   5.259   2.638   5.363  0.0540 -0.5399  0.2689
 6492TIP3    H119440   5.283   2.601   5.278 -1.5488 -1.1722  0.0534
 6492TIP3    H219441   5.165   2.657   5.355  0.2268  1.0110  1.3242
 6493TIP3   OH219442   1.128   0.637   5.013 -0.1525  0.5122 -0.3418
 6493TIP3    H119443   1.057   0.677   4.964 -0.1040 -0.4775 -1.2518
 6493TIP3    H219444   1.204   0.691   4.993 -0.7012  1.8615  1.0146
 6494TIP3   OH219445   2.124   5.193   4.804  0.0007 -0.0912 -0.1159
 6494TIP3    H119446   2.185   5.245   4.752 -0.1646 -0.6664 -0.9170
 6494TIP3    H219447   2.037   5.218   4.772 -0.0499 -1.7185 -1.4270
 6495TIP3   OH219448   5.629   2.870   0.542 -0.7017 -0.8641  0.2836
 6495TIP3    H119449   5.669   2.843   0.625 -0.4413 -0.1562  0.3928
 6495TIP3    H219450   5.699   2.915   0.495 -0.8025 -1.4066 -0.3998
 6496TIP3   OH219451   1.123   5.837   3.694  0.6619 -0.2301  0.1233
 6496TIP3    H119452   1.216   5.858   3.695  0.8439 -0.9813 -0.2489
 6496TIP3    H219453   1.092   5.862   3.781  1.3804 -0.7145  0.5290
 6497TIP3   OH219454   6.046   1.357   2.206 -0.5077 -0.3064  0.0718
 6497TIP3    H119455   6.071   1.434   2.156 -0.7622 -0.5179 -0.3898
 6497TIP3    H219456   5.951   1.366   2.218 -0.7872 -1.2467 -1.2180
 6498TIP3   OH219457   6.250   4.521   4.510 -0.3535  0.4626 -0.0925
 6498TIP3    H119458   6.227   4.497   4.600 -1.8761 -0.1859 -0.6247
 6498TIP3    H219459   6.183   4.586   4.485 -0.1228  0.4146 -0.8600
 6499TIP3   OH219460   6.689   0.787   4.339 -0.1555  0.0729 -0.2127
 6499TIP3    H119461   6.665   0.847   4.268 -0.0648 -0.5310 -0.7628
 6499TIP3    H219462   6.633   0.814   4.412  0.0658  0.9916 -0.3623
 6500TIP3   OH219463   5.004   2.161   1.633 -0.5555  0.5287  0.0718
 6500TIP3    H119464   4.992   2.072   1.601 -0.1445  0.7428 -0.7102
 6500TIP3    H219465   4.984   2.157   1.726  0.0620 -0.5043  0.1655
 6501TIP3   OH219466   5.656   1.706   5.257 -0.3208 -0.4311  0.3095
 6501TIP3    H119467   5.565   1.729   5.272 -0.3792  0.3242 -1.0344
 6501TIP3    H219468   5.655   1.657   5.175  0.9132  3.5894 -2.4249
 6502TIP3   OH219469   3.724   3.057   5.715  0.2615 -0.9100 -0.0173
 6502TIP3    H119470   3.744   3.106   5.635  2.4737 -2.4073 -0.4628
 6502TIP3    H219471   3.636   3.022   5.700  0.4701 -0.8353 -1.6205
 6503TIP3   OH219472   6.181   1.119   4.411  0.3628 -0.4566 -0.1259
 6503TIP3    H119473   6.219   1.200   4.445  0.2975 -0.7543  0.6841
 6503TIP3    H219474   6.194   1.055   4.481 -2.2349 -0.3987  0.5190
 6504TIP3   OH219475   1.509   5.784   5.842  0.1145 -0.1709 -0.1579
 6504TIP3    H119476   1.524   5.833   5.924  0.7240 -0.8682  0.1572
 6504TIP3    H219477   1.444   5.718   5.866  0.3640 -0.4362 -0.2056
 6505TIP3   OH219478   4.037   6.388   0.523 -0.1188  0.6799  0.2522
 6505TIP3    H119479   4.129   6.409   0.539  0.3517 -0.7976 -0.3642
 6505TIP3    H219480   3.992   6.415   0.603  1.3389 -1.3868  1.8817
 6506TIP3   OH219481   3.109   2.596   3.702 -0.0757  0.1355 -0.3700
 6506TIP3    H119482   3.123   2.578   3.609  1.7280 -0.9129  0.0629
 6506TIP3    H219483   3.156   2.526   3.747  0.1639  1.3472  1.3452
 6507TIP3   OH219484   1.566   4.860   0.893 -0.6003 -0.2362  0.4030
 6507TIP3    H119485   1.509   4.938   0.890 -0.5884 -0.2104  0.7833
 6507TIP3    H219486   1.553   4.818   0.809 -2.5177 -1.1795  1.1048
 6508TIP3   OH219487   6.314   5.317   0.100 -0.1764  0.6771  0.6310
 6508TIP3    H119488   6.396   5.363   0.085 -0.3586  0.4961 -1.2077
 6508TIP3    H219489   6.246   5.384   0.093 -0.4285  0.2687 -1.8794
 6509TIP3   OH219490   5.128   5.673   2.259  0.3338 -0.5926 -0.7365
 6509TIP3    H119491   5.074   5.732   2.311  0.3086 -1.5373  0.3351
 6509TIP3    H219492   5.109   5.697   2.168 -0.5879  0.2198 -0.3455
 6510TIP3   OH219493   6.292   1.561   5.705  0.4240  0.1162 -0.3823
 6510TIP3    H119494   6.375   1.582   5.663  0.3697 -0.3987 -0.7548
 6510TIP3    H219495   6.240   1.518   5.637  0.7333 -1.7306  0.4818
 6511TIP3   OH219496   3.474   3.117   1.268 -0.1574  0.2983  0.0711
 6511TIP3    H119497   3.567   3.097   1.279 -0.3961 -0.3540  1.0695
 6511TIP3    H219498   3.459   3.110   1.174  1.1331  1.9632 -0.3066
 6512TIP3   OH219499   0.315   1.561   1.589 -0.1614 -0.7780  0.0169
 6512TIP3    H119500   0.333   1.605   1.506 -1.3402 -0.0614  0.1015
 6512TIP3    H219501   0.220   1.546   1.588 -0.5357  0.8931  1.9594
 6513TIP3   OH219502   2.463   0.206   1.140  0.2112 -0.8750 -0.1504
 6513TIP3    H119503   2.507   0.189   1.057 -2.1297 -0.1494 -1.6336
 6513TIP3    H219504   2.370   0.210   1.118 -0.4019  0.6825  2.2955
 6514TIP3   OH219505   6.365   0.971   4.265  0.0536 -0.6380  0.4106
 6514TIP3    H119506   6.290   1.025   4.289 -0.6423 -1.1706 -0.5378
 6514TIP3    H219507   6.383   0.993   4.174  0.8986 -0.6963  0.5551
 6515TIP3   OH219508   3.006   4.077   3.496  0.0080  0.4301 -0.1606
 6515TIP3    H119509   2.944   4.131   3.544 -1.4225 -0.9556 -0.3453
 6515TIP3    H219510   2.986   4.093   3.404 -0.3071 -0.2646 -0.2173
 6516TIP3   OH219511   0.309   0.187   1.633  0.0328 -0.2475  0.3073
 6516TIP3    H119512   0.288   0.213   1.543 -0.8432 -1.6100  0.0934
 6516TIP3    H219513   0.340   0.267   1.674 -0.6427  0.6622 -0.8879
 6517TIP3   OH219514   5.412   5.437   4.348 -0.6370  0.0189  0.2139
 6517TIP3    H119515   5.368   5.445   4.263  0.0980 -0.6026 -0.2398
 6517TIP3    H219516   5.489   5.383   4.330 -0.1239  0.4189  1.1527
 6518TIP3   OH219517   2.077   6.211   0.637  0.1008  0.1274  0.4348
 6518TIP3    H119518   2.080   6.173   0.549 -0.0659 -1.5813  1.1299
 6518TIP3    H219519   1.986   6.241   0.647 -0.1569 -0.6037  0.3739
 6519TIP3   OH219520   0.982   0.577   0.834 -0.2011 -0.1712  0.0088
 6519TIP3    H119521   0.986   0.516   0.760  1.8499  1.2036 -1.1227
 6519TIP3    H219522   1.006   0.525   0.910  1.6748 -0.7977 -0.9493
 6520TIP3   OH219523   5.722   0.886   5.579  0.3427 -0.8256  0.4503
 6520TIP3    H119524   5.648   0.826   5.587 -3.4023  2.9581 -1.7116
 6520TIP3    H219525   5.710   0.948   5.651 -0.2223  1.2047 -1.2801
 6521TIP3   OH219526   6.902   4.701   5.290 -0.2950 -0.1962  0.0896
 6521TIP3    H119527   6.832   4.717   5.354 -0.8681 -0.2791 -0.5093
 6521TIP3    H219528   6.953   4.630   5.328 -1.2407 -0.9436 -0.0248
 6522TIP3   OH219529   5.943   5.805   1.871 -0.5498 -0.3109 -0.2339
 6522TIP3    H119530   5.895   5.878   1.911 -2.1466 -1.4747  0.0652
 6522TIP3    H219531   5.955   5.831   1.780  0.3272  1.0031  0.2326
 6523TIP3   OH219532   5.259   4.298   0.744  0.8977 -0.0414  0.0600
 6523TIP3    H119533   5.170   4.320   0.772  0.8770 -0.1882  0.1139
 6523TIP3    H219534   5.297   4.254   0.821  1.1435  0.3637  0.1695
 6524TIP3   OH219535   5.389   4.155   3.720 -0.0164  0.1118  0.2319
 6524TIP3    H119536   5.382   4.176   3.813 -0.6831  0.1199  0.1887
 6524TIP3    H219537   5.473   4.192   3.693 -0.4946  1.4567  0.4891
 6525TIP3   OH219538   0.761   0.574   0.144  0.2728  0.2471  0.0800
 6525TIP3    H119539   0.767   0.667   0.168  0.5970  0.4793 -0.8621
 6525TIP3    H219540   0.850   0.541   0.153 -0.0379 -0.2771  1.5206
 6526TIP3   OH219541   4.416   2.669   1.561  0.5065 -0.1982 -0.4872
 6526TIP3    H119542   4.420   2.625   1.646  2.4362 -0.5366 -0.7159
 6526TIP3    H219543   4.328   2.650   1.529  0.8438 -2.9765 -0.0729
 6527TIP3   OH219544   3.664   4.668   0.385 -0.3818  0.6769 -0.4084
 6527TIP3    H119545   3.600   4.654   0.315 -1.2552 -0.5772  0.5994
 6527TIP3    H219546   3.649   4.759   0.413 -1.0039  0.7248 -0.8657
 6528TIP3   OH219547   5.485   0.343   4.836 -0.2756 -0.7535 -0.0648
 6528TIP3    H119548   5.466   0.260   4.793  0.2412 -0.2703 -1.2583
 6528TIP3    H219549   5.570   0.370   4.802 -1.7528  1.7842 -2.2210
 6529TIP3   OH219550   2.803   1.917   5.438  0.2075 -0.0045  0.2322
 6529TIP3    H119551   2.718   1.961   5.447  0.0277 -0.5909  1.7942
 6529TIP3    H219552   2.813   1.904   5.344 -1.2211  0.4981 -0.0229
 6530TIP3   OH219553   2.348   4.610   1.749 -0.3885 -0.4784  0.1968
 6530TIP3    H119554   2.322   4.561   1.671 -2.1736 -1.2719  1.2407
 6530TIP3    H219555   2.278   4.595   1.812  0.3837  1.1821  1.5385
 6531TIP3   OH219556   5.101   5.730   2.603 -0.1009  0.0349 -0.4925
 6531TIP3    H119557   5.188   5.756   2.573 -0.9502  0.7565 -2.5188
 6531TIP3    H219558   5.111   5.638   2.627  1.0038 -0.1853 -1.6641
 6532TIP3   OH219559   1.957   0.131   1.264 -0.2405 -0.0263 -0.3956
 6532TIP3    H119560   1.936   0.083   1.344  0.1059 -0.3739 -0.5107
 6532TIP3    H219561   1.885   0.110   1.204 -0.0868 -0.4147 -0.4482
 6533TIP3   OH219562   1.492   5.493   5.115 -0.2445 -0.1698  0.3304
 6533TIP3    H119563   1.573   5.541   5.099  0.5077 -0.7112  2.2032
 6533TIP3    H219564   1.444   5.546   5.178 -0.2923 -0.9261  0.9472
 6534TIP3   OH219565   4.780   1.478   3.794 -0.4538 -0.1058 -0.0890
 6534TIP3    H119566   4.848   1.545   3.801 -0.4541 -0.0373 -0.6925
 6534TIP3    H219567   4.829   1.396   3.784 -0.4550 -0.1037 -0.1138
 6535TIP3   OH219568   4.324   3.997   2.051 -0.0854  0.3127  0.1059
 6535TIP3    H119569   4.408   3.952   2.039 -0.6815 -0.4527 -1.3821
 6535TIP3    H219570   4.340   4.058   2.123  2.4302  1.8189 -1.5702
 6536TIP3   OH219571   4.272   2.673   0.142  0.4649  0.0968 -0.2958
 6536TIP3    H119572   4.345   2.725   0.109 -0.3611  0.4154 -1.7381
 6536TIP3    H219573   4.312   2.592   0.174  1.5987  0.9286  0.4293
 6537TIP3   OH219574   6.067   0.267   3.602 -0.1077  0.6696 -0.3337
 6537TIP3    H119575   6.072   0.230   3.690  0.1990 -0.9935 -1.0103
 6537TIP3    H219576   6.140   0.328   3.596  0.4968  0.0038  0.2137
 6538TIP3   OH219577   0.617   5.279   5.408 -0.5897  0.0972 -0.6476
 6538TIP3    H119578   0.640   5.338   5.479 -3.5598  0.2846  0.2955
 6538TIP3    H219579   0.589   5.336   5.336  1.1302 -0.1284 -1.5585
 6539TIP3   OH219580   5.303   4.937   4.756  0.0375 -0.8379  0.5273
 6539TIP3    H119581   5.383   4.884   4.766  0.0738 -0.7958  0.4597
 6539TIP3    H219582   5.307   4.969   4.666 -0.7231 -1.9173  0.0939
 6540TIP3   OH219583   6.138   2.203   4.717 -0.0097  0.1337  0.2053
 6540TIP3    H119584   6.123   2.111   4.695  0.4740 -0.9238  3.7203
 6540TIP3    H219585   6.050   2.241   4.723 -0.2716 -0.4230  0.0062
 6541TIP3   OH219586   0.022   1.123   0.114  0.3600 -0.2463 -0.0497
 6541TIP3    H119587  -0.000   1.157   0.027  0.3700 -2.5575 -1.0203
 6541TIP3    H219588   0.030   1.201   0.168  2.2021  1.4627 -2.5223
 6542TIP3   OH219589   3.332   6.661   3.657 -0.2311 -1.0866 -0.1961
 6542TIP3    H119590   3.364   6.586   3.708 -0.8440 -0.7960  0.6414
 6542TIP3    H219591   3.260   6.696   3.709  0.6569  0.6807 -0.0668
 6543TIP3   OH219592   4.602   1.775   5.219  0.0526  0.0465 -0.0487
 6543TIP3    H119593   4.561   1.717   5.284 -3.1160  0.8462 -1.1260
 6543TIP3    H219594   4.607   1.860   5.263  0.4412 -0.0204  0.0362
 6544TIP3   OH219595   3.053   4.959   2.900  0.6102  0.4634 -0.3769
 6544TIP3    H119596   3.114   4.908   2.847  1.5008  0.4125  0.6708
 6544TIP3    H219597   2.986   4.895   2.926 -1.0311  0.8951 -3.0651
 6545TIP3   OH219598   3.423   2.091   4.017  0.2899  0.0869 -0.0233
 6545TIP3    H119599   3.469   2.025   4.068 -0.1418  0.7189  1.2017
 6545TIP3    H219600   3.491   2.153   3.991  0.5219 -0.2781 -0.3133
 6546TIP3   OH219601   2.236   1.745   1.749  0.2145  0.1419  0.5904
 6546TIP3    H119602   2.306   1.770   1.688  1.1748 -2.9734  0.2518
 6546TIP3    H219603   2.156   1.752   1.697  0.9152 -1.4808 -0.7972
 6547TIP3   OH219604   3.984   5.000   2.502 -0.7359  0.0708  0.2107
 6547TIP3    H119605   3.980   4.920   2.554 -0.6613  0.7658  1.3150
 6547TIP3    H219606   4.077   5.013   2.485 -0.6277  0.6119  1.1535
 6548TIP3   OH219607   4.272   2.124   0.109 -0.5925  0.0920 -0.4776
 6548TIP3    H119608   4.179   2.110   0.097 -0.3284 -0.6793 -1.8317
 6548TIP3    H219609   4.298   2.180   0.035  0.0713  0.0431 -0.2943
 6549TIP3   OH219610   6.690   2.667   1.633 -0.2909  0.2758 -0.2314
 6549TIP3    H119611   6.705   2.590   1.579  0.6911  0.1806  0.1553
 6549TIP3    H219612   6.610   2.706   1.598 -1.9878 -2.0159  0.8162
 6550TIP3   OH219613   6.023   5.356   3.677  0.1595 -0.1859 -0.3049
 6550TIP3    H119614   5.938   5.394   3.658  0.1821 -0.7967 -1.7245
 6550TIP3    H219615   6.086   5.413   3.632  0.4866  0.0953  0.4910
 6551TIP3   OH219616   0.338   2.394   3.606  0.3659 -0.0769  0.1350
 6551TIP3    H119617   0.357   2.445   3.528  2.0209  0.4745  0.8565
 6551TIP3    H219618   0.362   2.304   3.583  1.8820  0.2548  0.3158
 6552TIP3   OH219619   6.718   3.632   1.955  0.7060  0.2911 -0.0962
 6552TIP3    H119620   6.805   3.592   1.948  0.5385 -0.4296  1.5460
 6552TIP3    H219621   6.728   3.701   2.021  0.0276  0.1717  0.1440
 6553TIP3   OH219622   5.995   3.720   2.583 -0.1708  0.3232 -0.1649
 6553TIP3    H119623   5.924   3.673   2.541 -0.1408 -0.9379  1.1011
 6553TIP3    H219624   6.074   3.687   2.541 -0.2059 -0.0076  0.0307
 6554TIP3   OH219625   1.851   5.728   1.273  0.3173  0.0291  0.4044
 6554TIP3    H119626   1.809   5.807   1.306 -1.2037 -1.1606  1.4186
 6554TIP3    H219627   1.878   5.681   1.352 -0.9559 -1.5954 -0.0984
 6555TIP3   OH219628   1.952   3.949   0.633  0.3265 -0.1772 -0.0799
 6555TIP3    H119629   1.987   4.026   0.588 -0.5371 -0.3888 -1.1679
 6555TIP3    H219630   2.018   3.881   0.619 -0.3848 -0.5387 -2.0167
 6556TIP3   OH219631   5.300   2.541   3.911 -0.0503 -0.4332  0.1391
 6556TIP3    H119632   5.212   2.570   3.931 -0.1429 -0.1674 -0.5978
 6556TIP3    H219633   5.331   2.497   3.990 -0.6116  0.0168  0.6083
 6557TIP3   OH219634   3.191   3.347   1.582  0.0298  0.0759  0.3806
 6557TIP3    H119635   3.224   3.419   1.529 -0.9121  0.2771  0.0302
 6557TIP3    H219636   3.168   3.279   1.518 -0.2952 -0.0239  0.5973
 6558TIP3   OH219637   3.405   4.239   2.696 -0.9837 -0.4478  0.0640
 6558TIP3    H119638   3.427   4.312   2.754 -0.3369 -1.2948  0.9097
 6558TIP3    H219639   3.471   4.243   2.627  0.4320 -1.5234  1.2921
 6559TIP3   OH219640   5.579   6.455   0.488  0.2530 -0.4566  0.8240
 6559TIP3    H119641   5.592   6.396   0.414 -2.4963 -0.5053  0.2858
 6559TIP3    H219642   5.597   6.402   0.565 -3.7264 -2.7278  0.4711
 6560TIP3   OH219643   4.580   5.317   5.387 -0.8553 -0.2064 -0.5502
 6560TIP3    H119644   4.555   5.269   5.465 -0.9331  0.8330  0.0821
 6560TIP3    H219645   4.657   5.271   5.354 -0.2604 -0.1057  0.6651
 6561TIP3   OH219646   1.581   2.243   0.896  0.2326 -0.0234 -0.2824
 6561TIP3    H119647   1.599   2.295   0.974 -0.0994  0.9760 -0.8564
 6561TIP3    H219648   1.517   2.295   0.846  0.0924 -0.8533 -1.0016
 6562TIP3   OH219649   3.649   3.781   3.919  0.0729  0.5725  1.0167
 6562TIP3    H119650   3.690   3.858   3.881 -0.4249  2.0556  3.2641
 6562TIP3    H219651   3.722   3.727   3.949  0.4133  0.4124 -0.0544
 6563TIP3   OH219652   0.031   5.798   5.756  0.3177  0.2064  0.5150
 6563TIP3    H119653   0.121   5.765   5.759  0.1076 -0.4065  0.1859
 6563TIP3    H219654  -0.014   5.740   5.695 -0.0950  1.0330  0.0176
 6564TIP3   OH219655   6.914   5.380   3.735 -0.1336 -0.5337 -0.5001
 6564TIP3    H119656   6.915   5.468   3.772 -1.2286 -0.0670 -1.5122
 6564TIP3    H219657   6.972   5.329   3.792 -0.8385  0.4132  1.1255
 6565TIP3   OH219658   3.535   6.072   1.139  0.6698 -0.1146 -0.0150
 6565TIP3    H119659   3.472   6.007   1.107  0.1227  0.6722 -0.5601
 6565TIP3    H219660   3.576   6.106   1.060 -1.4415  2.6205 -0.0655
 6566TIP3   OH219661   2.458   2.493   3.375 -0.2235 -0.9453 -0.8230
 6566TIP3    H119662   2.526   2.453   3.429  1.6721  3.3654  0.4601
 6566TIP3    H219663   2.483   2.473   3.285  2.0069 -0.6270 -0.3258
 6567TIP3   OH219664   5.605   1.197   5.362 -0.0932  0.1024  0.1140
 6567TIP3    H119665   5.533   1.144   5.393 -1.1106  1.3474 -0.0324
 6567TIP3    H219666   5.593   1.282   5.406  1.4925  0.2290  0.3764
 6568TIP3   OH219667   4.007   6.313   2.896  0.2673  0.3065 -0.1467
 6568TIP3    H119668   4.010   6.308   2.992 -1.4312 -0.7291 -0.0969
 6568TIP3    H219669   4.031   6.403   2.876  0.8621  0.4827  1.2420
 6569TIP3   OH219670   0.785   5.764   4.762 -0.2201  0.3947 -0.5345
 6569TIP3    H119671   0.785   5.807   4.847  1.1491 -1.4047  0.4504
 6569TIP3    H219672   0.734   5.685   4.775  1.8964 -1.0839 -0.6618
 6570TIP3   OH219673   1.688   0.073   5.603 -0.1028 -0.3364  0.1180
 6570TIP3    H119674   1.629   0.148   5.610  0.8525  0.8145 -2.8840
 6570TIP3    H219675   1.772   0.105   5.636 -0.3761 -1.0635  1.6077
 6571TIP3   OH219676   0.422   0.608   2.375  0.0569  0.1355  0.2759
 6571TIP3    H119677   0.518   0.607   2.371  0.1118  2.4260 -0.4787
 6571TIP3    H219678   0.402   0.677   2.439 -1.0249  2.0719 -1.9953
 6572TIP3   OH219679   0.039   2.876   4.275 -0.3039  0.0226  0.4547
 6572TIP3    H119680   0.107   2.885   4.342  0.6358 -0.2418 -0.4509
 6572TIP3    H219681   0.077   2.817   4.210 -0.9576  0.7886 -0.6461
 6573TIP3   OH219682   1.284   5.052   3.492 -0.1982 -0.2358  0.1543
 6573TIP3    H119683   1.287   5.021   3.582 -1.9301 -0.7797  0.0592
 6573TIP3    H219684   1.204   5.014   3.456 -0.9798  2.1280 -0.7950
 6574TIP3   OH219685   6.152   4.579   0.530 -0.2098  0.2716 -0.0378
 6574TIP3    H119686   6.158   4.586   0.435  0.9447  0.9426  0.0725
 6574TIP3    H219687   6.120   4.665   0.558 -0.4100  0.1214  0.1998
 6575TIP3   OH219688   4.007   2.287   2.776 -0.2429  0.1585 -0.6533
 6575TIP3    H119689   4.040   2.259   2.861 -1.9769 -1.6951 -0.5206
 6575TIP3    H219690   3.915   2.306   2.791 -0.7654 -0.9162 -2.2330
 6576TIP3   OH219691   1.295   5.572   2.395 -0.4418  0.7062  0.4823
 6576TIP3    H119692   1.220   5.611   2.439 -0.3479  1.5618 -0.0913
 6576TIP3    H219693   1.334   5.644   2.345 -1.5208 -0.5286 -2.3547
 6577TIP3   OH219694   4.326   0.163   0.693 -0.0647  0.4139 -0.5234
 6577TIP3    H119695   4.387   0.234   0.675 -0.3092  1.0774  1.1464
 6577TIP3    H219696   4.303   0.173   0.785 -1.7040 -0.5854 -0.7788
 6578TIP3   OH219697   4.648   3.148   0.086 -0.5171 -0.9044 -0.2676
 6578TIP3    H119698   4.561   3.132   0.048 -0.6179  0.5589 -0.6976
 6578TIP3    H219699   4.679   3.227   0.043 -0.3971  0.5447  2.2955
 6579TIP3   OH219700   0.212   0.294   3.917  0.1672  0.2546  0.0636
 6579TIP3    H119701   0.271   0.248   3.976 -1.9683  0.0781  2.1977
 6579TIP3    H219702   0.160   0.350   3.973 -2.0092  0.0745 -1.6271
 6580TIP3   OH219703   2.486   2.372   4.798  0.2549 -0.1735 -0.1770
 6580TIP3    H119704   2.518   2.295   4.751  0.9123 -0.8659  1.3254
 6580TIP3    H219705   2.565   2.416   4.830 -0.0470  1.7880 -1.9144
 6581TIP3   OH219706   5.645   6.482   1.912  0.2806  0.1117  0.0990
 6581TIP3    H119707   5.613   6.462   1.999 -0.5311  1.0996  0.0459
 6581TIP3    H219708   5.620   6.574   1.897  1.1904  0.2391 -0.8176
 6582TIP3   OH219709   4.606   2.289   3.306  0.3004 -0.3233  0.2872
 6582TIP3    H119710   4.637   2.361   3.362  1.0440 -1.5267  1.4807
 6582TIP3    H219711   4.674   2.222   3.314  0.0606 -0.8224 -1.5219
 6583TIP3   OH219712   0.740   0.124   4.688 -0.1660  0.0869  0.9655
 6583TIP3    H119713   0.821   0.084   4.719 -0.3749 -1.3197 -0.1813
 6583TIP3    H219714   0.686   0.132   4.767  0.6649  0.0099  1.5623
 6584TIP3   OH219715   6.130   0.995   5.797  0.3474 -0.0163  0.2893
 6584TIP3    H119716   6.106   1.075   5.749 -2.3868 -0.3773  0.8796
 6584TIP3    H219717   6.078   0.927   5.755  1.7479 -1.3040  0.5728
 6585TIP3   OH219718   2.431   0.270   3.304 -0.7239  0.1554  0.5138
 6585TIP3    H119719   2.520   0.305   3.307 -0.7422  0.2764 -0.1987
 6585TIP3    H219720   2.389   0.317   3.232 -0.8657 -1.0558 -0.2262
 6586TIP3   OH219721   4.018   5.633   5.868 -0.3976  0.2408  0.4115
 6586TIP3    H119722   3.994   5.677   5.787 -0.2017  0.7525  0.6283
 6586TIP3    H219723   4.034   5.704   5.930 -1.2488 -0.1455  1.1036
 6587TIP3   OH219724   6.463   2.580   4.588 -0.0388 -0.2466  0.5397
 6587TIP3    H119725   6.534   2.642   4.572 -0.8441  1.4251  2.9039
 6587TIP3    H219726   6.488   2.534   4.667 -0.8838 -0.7369  0.5307
 6588TIP3   OH219727   2.641   0.340   1.310  0.5940 -0.6326  0.1992
 6588TIP3    H119728   2.597   0.261   1.280 -0.9867  0.6892 -1.1946
 6588TIP3    H219729   2.584   0.375   1.379  0.1187  0.3926 -0.6857
 6589TIP3   OH219730   5.421   3.414   1.551 -0.1526 -0.4259  0.0373
 6589TIP3    H119731   5.436   3.493   1.500 -0.1997 -0.1398  0.4664
 6589TIP3    H219732   5.327   3.399   1.547 -0.2374 -0.0461  0.5672
 6590TIP3   OH219733   5.429   0.017   3.524  0.6006  0.2107 -0.1196
 6590TIP3    H119734   5.401  -0.025   3.442 -0.1371  0.6001 -0.0819
 6590TIP3    H219735   5.407   0.110   3.511  0.3804  0.2550  0.5552
 6591TIP3   OH219736   6.197   5.073   5.475 -0.5179  0.2792  0.0801
 6591TIP3    H119737   6.228   5.082   5.565  1.3033 -0.1863 -0.4593
 6591TIP3    H219738   6.201   5.162   5.439  2.9281 -0.0803 -0.7613
 6592TIP3   OH219739   3.300   0.535   2.403 -0.7297  0.7122  0.0598
 6592TIP3    H119740   3.389   0.502   2.414 -0.8718  0.6699  1.2360
 6592TIP3    H219741   3.311   0.618   2.356 -0.0646  0.7091  0.2011
 6593TIP3   OH219742   6.001   0.104   3.399 -0.9780 -0.4573  0.5460
 6593TIP3    H119743   5.970   0.023   3.439 -1.5184 -1.0708 -1.0574
 6593TIP3    H219744   6.039   0.153   3.472  2.8606 -3.7139  1.0454
 6594TIP3   OH219745   1.786   2.338   5.650  0.2690  0.5709 -0.7725
 6594TIP3    H119746   1.808   2.410   5.709  0.5841  2.7497 -3.3844
 6594TIP3    H219747   1.861   2.332   5.591 -0.2498 -1.2056 -1.2994
 6595TIP3   OH219748   3.869   6.628   3.834 -0.2289  0.1243 -0.7219
 6595TIP3    H119749   3.830   6.545   3.809  0.9473 -0.1219 -1.8664
 6595TIP3    H219750   3.962   6.619   3.810  0.2428  1.2104  0.5318
 6596TIP3   OH219751   6.562   2.750   0.051 -0.8728 -0.0867  0.3540
 6596TIP3    H119752   6.551   2.697  -0.028 -1.5051 -0.7844  0.8943
 6596TIP3    H219753   6.630   2.814   0.028 -0.4044 -0.8511 -0.4551
 6597TIP3   OH219754   5.137   3.757   2.857 -0.3769  0.0249 -0.1873
 6597TIP3    H119755   5.071   3.789   2.918 -0.5315 -0.8873  0.1392
 6597TIP3    H219756   5.212   3.816   2.869 -0.0653 -0.6503  1.5541
 6598TIP3   OH219757   7.024   1.066   1.569  0.1198  0.1716  0.1221
 6598TIP3    H119758   7.095   1.058   1.505 -0.1293  0.7097 -0.2265
 6598TIP3    H219759   7.045   1.001   1.636  1.6051  1.1346  0.6476
 6599TIP3   OH219760   0.188   1.544   3.113  0.3900 -0.2266 -0.2521
 6599TIP3    H119761   0.193   1.453   3.086  0.8610 -0.2649 -0.0551
 6599TIP3    H219762   0.280   1.573   3.116  0.2442  0.2601 -0.3463
 6600TIP3   OH219763   7.190   5.142   2.583  0.3967 -0.1459 -0.5644
 6600TIP3    H119764   7.153   5.083   2.649 -0.6837  0.4289 -0.6308
 6600TIP3    H219765   7.121   5.205   2.566  1.7872  1.6886  0.1448
 6601TIP3   OH219766   4.565   6.403   0.885 -0.0442 -0.0877  0.0783
 6601TIP3    H119767   4.508   6.337   0.925 -0.0910 -1.2457 -1.7761
 6601TIP3    H219768   4.553   6.390   0.791  1.4913  1.2431 -0.3310
 6602TIP3   OH219769   0.718   6.751   3.047  0.2156 -0.3537 -0.2472
 6602TIP3    H119770   0.690   6.802   3.123  0.1728  1.9545 -1.6987
 6602TIP3    H219771   0.658   6.776   2.977  1.2988 -1.0683 -1.4927
 6603TIP3   OH219772   6.916   2.255   4.719  0.9036 -1.0650  0.4324
 6603TIP3    H119773   6.914   2.284   4.628 -0.8756  0.1222  0.8062
 6603TIP3    H219774   6.925   2.160   4.714 -1.8839 -1.3308 -1.0915
 6604TIP3   OH219775   4.611   0.124   1.796 -0.3036 -0.1606  0.1445
 6604TIP3    H119776   4.554   0.180   1.848 -0.7334  0.7587 -1.2455
 6604TIP3    H219777   4.605   0.159   1.707 -0.5269 -2.3682 -0.7911
 6605TIP3   OH219778   0.352   4.112   1.175 -0.3782  0.3168 -0.3724
 6605TIP3    H119779   0.311   4.183   1.225 -0.6641  0.7801 -1.2529
 6605TIP3    H219780   0.301   4.107   1.094  0.1586 -0.3390 -0.6782
 6606TIP3   OH219781   5.333   0.145   4.378  1.1135  0.2538  0.9311
 6606TIP3    H119782   5.293   0.067   4.415  1.2073 -0.3880 -0.2918
 6606TIP3    H219783   5.275   0.170   4.306  2.6363 -0.4422 -0.5947
 6607TIP3   OH219784   2.964   4.379   5.760  0.0089 -0.3072  0.6096
 6607TIP3    H119785   2.975   4.300   5.707 -1.0501 -0.2449  0.2586
 6607TIP3    H219786   2.883   4.418   5.727 -0.3519  0.0546  1.8757
 6608TIP3   OH219787   6.937   2.607   2.130 -0.1027 -0.7282 -0.5909
 6608TIP3    H119788   6.896   2.561   2.058 -0.3033 -0.6123 -0.5515
 6608TIP3    H219789   6.914   2.556   2.208 -0.0342 -0.7554 -0.5883
 6609TIP3   OH219790   6.847   0.978   1.856 -0.1447  0.4957 -0.1153
 6609TIP3    H119791   6.824   0.910   1.792 -1.9668 -0.2418  1.2227
 6609TIP3    H219792   6.813   1.059   1.817 -0.1554  0.2580 -0.6184
 6610TIP3   OH219793   5.581   2.344   5.598 -0.1707 -0.3287  0.5737
 6610TIP3    H119794   5.497   2.391   5.598  0.0455  0.0704  1.0037
 6610TIP3    H219795   5.641   2.402   5.646  0.3117 -0.6794  0.4038
 6611TIP3   OH219796   4.885   0.394   4.627 -0.8901 -0.5040  0.1397
 6611TIP3    H119797   4.936   0.337   4.685  1.6382  0.7523 -0.6553
 6611TIP3    H219798   4.800   0.402   4.669  0.2977 -0.9002  2.8481
 6612TIP3   OH219799   1.894   5.401   2.478 -0.4831  0.2106  0.2788
 6612TIP3    H119800   1.882   5.496   2.486  1.9956  0.5715  0.3699
 6612TIP3    H219801   1.983   5.385   2.509  0.1125 -1.8188 -2.1332
 6613TIP3   OH219802   5.886   4.934   2.250 -0.2559 -0.0264 -0.4202
 6613TIP3    H119803   5.797   4.966   2.264  0.3023  0.7213  1.9795
 6613TIP3    H219804   5.939   5.013   2.236  0.3233 -0.2628  0.3073
 6614TIP3   OH219805   1.025   3.146   2.558  0.2370 -0.3100  0.2134
 6614TIP3    H119806   0.980   3.172   2.638  2.0866  1.2718  0.8325
 6614TIP3    H219807   1.047   3.053   2.572 -0.2062 -0.2818  1.1676
 6615TIP3   OH219808   1.144   5.566   0.109  0.3027 -0.6539  0.1221
 6615TIP3    H119809   1.189   5.491   0.148 -0.4859 -1.4245 -0.4034
 6615TIP3    H219810   1.052   5.554   0.133  0.3786  1.0951  1.4951
 6616TIP3   OH219811   4.461   3.035   0.299 -0.7108 -0.0230  0.6396
 6616TIP3    H119812   4.511   3.077   0.369 -0.6664 -1.0553  1.2410
 6616TIP3    H219813   4.500   3.069   0.218 -1.2082  1.7166  1.0792
 6617TIP3   OH219814   2.551   4.534   3.920 -0.2630  0.0721 -0.0092
 6617TIP3    H119815   2.546   4.469   3.850 -0.0440  1.4118 -1.3164
 6617TIP3    H219816   2.486   4.505   3.984 -1.6917 -0.2894 -1.5467
 6618TIP3   OH219817   0.708   0.222   0.236 -0.6751  0.6132 -0.4895
 6618TIP3    H119818   0.642   0.256   0.176 -1.7124  1.6358  1.1681
 6618TIP3    H219819   0.790   0.226   0.186 -1.4789  1.5353 -1.7808
 6619TIP3   OH219820   2.299   1.384   3.580  0.2050  0.2341 -0.4772
 6619TIP3    H119821   2.357   1.391   3.504 -0.1320  0.1065 -0.7449
 6619TIP3    H219822   2.266   1.294   3.578  0.2894  0.1910 -0.1089
 6620TIP3   OH219823   2.532   4.135   0.832 -0.1428  0.0689 -0.0959
 6620TIP3    H119824   2.451   4.087   0.849 -0.7043  0.3029 -1.9575
 6620TIP3    H219825   2.506   4.227   0.832  0.5560  0.2981  1.4270
 6621TIP3   OH219826   3.317   1.775   2.040  0.3995  0.2038  0.1967
 6621TIP3    H119827   3.317   1.713   1.968  1.4456  2.3038 -1.7321
 6621TIP3    H219828   3.391   1.747   2.095  0.6506 -0.4494 -0.4591
 6622TIP3   OH219829   5.553   4.273   1.399  0.8871 -0.0103  0.5768
 6622TIP3    H119830   5.522   4.195   1.353  0.5260 -1.4741  3.0756
 6622TIP3    H219831   5.637   4.246   1.437  1.9030  1.6220 -0.3964
 6623TIP3   OH219832   5.645   2.231   1.662 -0.5499 -0.1457 -0.1697
 6623TIP3    H119833   5.681   2.176   1.732 -0.0416  1.4149  0.8471
 6623TIP3    H219834   5.552   2.208   1.659  0.0215 -2.6415 -1.3298
 6624TIP3   OH219835   5.837   1.532   4.826  0.4746 -0.1680 -0.3876
 6624TIP3    H119836   5.787   1.519   4.907  0.8011  0.1127 -0.1382
 6624TIP3    H219837   5.859   1.444   4.797 -0.5376 -0.3153 -0.7367
 6625TIP3   OH219838   6.009   1.091   3.983  0.6771  0.2871 -0.3088
 6625TIP3    H119839   5.933   1.117   3.932  0.8517 -0.4066 -0.9309
 6625TIP3    H219840   5.995   0.999   4.005  1.5212  0.0316 -0.7888
 6626TIP3   OH219841   1.343   3.412   2.866 -0.4966 -0.2177  0.5436
 6626TIP3    H119842   1.385   3.490   2.831 -0.3376  0.3316  1.8742
 6626TIP3    H219843   1.307   3.367   2.790  0.8189  0.3030 -0.4172
 6627TIP3   OH219844   2.320   6.762   4.473 -0.1807  0.0411  0.0108
 6627TIP3    H119845   2.238   6.775   4.425 -0.3969  0.5678  0.5003
 6627TIP3    H219846   2.376   6.834   4.446  0.1387 -0.3462 -0.3571
 6628TIP3   OH219847   1.811   0.238   4.202  0.2819 -0.3205  0.0058
 6628TIP3    H119848   1.839   0.147   4.211  0.4202 -0.2190  0.6261
 6628TIP3    H219849   1.750   0.237   4.128 -1.0952 -1.2321  1.0982
 6629TIP3   OH219850   3.333   2.435   1.756  0.2773 -0.4891 -0.1889
 6629TIP3    H119851   3.356   2.418   1.848 -0.1145 -1.0401 -0.1895
 6629TIP3    H219852   3.242   2.465   1.760  0.6457  0.6691 -0.2854
 6630TIP3   OH219853   1.922   0.238   0.947  0.1962  0.1987  0.2592
 6630TIP3    H119854   1.989   0.265   1.010  0.2303 -0.2831  0.4285
 6630TIP3    H219855   1.862   0.313   0.942 -0.1511  0.0078  1.3336
 6631TIP3   OH219856   0.061   5.833   2.882 -0.5052  0.3251 -0.2240
 6631TIP3    H119857   0.148   5.869   2.899  0.1842 -1.0527 -0.6317
 6631TIP3    H219858   0.062   5.810   2.789 -1.5488  0.8914 -0.3905
 6632TIP3   OH219859   1.642   2.582   3.947  0.1226  0.2594 -0.8829
 6632TIP3    H119860   1.722   2.605   3.995 -0.4510 -0.5135  0.4843
 6632TIP3    H219861   1.636   2.487   3.953 -0.7022  0.2755 -1.2794
 6633TIP3   OH219862   4.145   4.040   0.918  0.3548 -0.4953 -0.4576
 6633TIP3    H119863   4.128   4.133   0.936 -1.6089 -1.0670  1.0168
 6633TIP3    H219864   4.126   3.996   1.001 -0.4517 -2.4068 -1.6072
 6634TIP3   OH219865   5.288   3.417   3.460  0.0556 -0.2948  0.3983
 6634TIP3    H119866   5.198   3.387   3.444 -0.1347  0.3078  0.2973
 6634TIP3    H219867   5.329   3.345   3.508  0.4960 -1.9508 -2.2721
 6635TIP3   OH219868   5.674   4.249   0.145  0.0668 -0.0943 -0.2319
 6635TIP3    H119869   5.612   4.247   0.217 -1.0559 -1.5909 -1.1907
 6635TIP3    H219870   5.678   4.159   0.114  1.9056  0.1667 -0.9146
 6636TIP3   OH219871   1.050   0.553   4.059  0.5072  0.3474 -0.6648
 6636TIP3    H119872   1.132   0.592   4.088 -1.5498  1.5680  4.5171
 6636TIP3    H219873   0.995   0.628   4.033 -0.6042  0.1257  0.9316
 6637TIP3   OH219874   0.232   2.349   3.072 -0.2186  0.7462 -0.0399
 6637TIP3    H119875   0.304   2.337   3.133  0.4932  3.3067 -0.2409
 6637TIP3    H219876   0.159   2.379   3.127 -0.7900 -0.6827  0.0096
 6638TIP3   OH219877   0.069   2.715   3.097 -0.3540  0.2913 -0.0029
 6638TIP3    H119878   0.077   2.622   3.116 -0.4261  0.5641  1.5362
 6638TIP3    H219879  -0.024   2.734   3.112 -0.4752  0.4957 -0.9466
 6639TIP3   OH219880   7.131   3.182   3.310  0.2189 -0.1183 -0.5896
 6639TIP3    H119881   7.153   3.271   3.338 -0.2042 -0.0856 -0.3419
 6639TIP3    H219882   7.151   3.127   3.387 -1.0545 -0.0150 -0.1538
 6640TIP3   OH219883   3.666   0.512   2.984 -0.1450  0.3560  0.3732
 6640TIP3    H119884   3.678   0.429   2.937  2.6895  0.6697  0.3879
 6640TIP3    H219885   3.628   0.571   2.919 -0.4213 -0.4308 -0.1983
 6641TIP3   OH219886   0.341   4.659   1.258  0.4930  0.3553 -0.0267
 6641TIP3    H119887   0.416   4.599   1.259  0.8764  0.8299  0.1004
 6641TIP3    H219888   0.343   4.702   1.344 -0.4477 -0.2564  0.3203
 6642TIP3   OH219889   1.216   1.762   2.794  0.2341 -0.1240  0.0142
 6642TIP3    H119890   1.300   1.805   2.777  0.7760 -0.9765  0.4915
 6642TIP3    H219891   1.193   1.720   2.712  0.1870  0.2381 -0.1629
 6643TIP3   OH219892   2.831   6.786   3.332  0.0936  0.0155 -0.2219
 6643TIP3    H119893   2.782   6.767   3.412  0.8111  0.7235  0.3998
 6643TIP3    H219894   2.764   6.818   3.271 -0.4733 -0.6092  0.0563
 6644TIP3   OH219895   0.666   3.924   2.846  0.1635  0.2798 -0.2254
 6644TIP3    H119896   0.572   3.918   2.826  0.5931  0.0548 -2.4420
 6644TIP3    H219897   0.698   3.996   2.792  0.8950  2.0861  2.3834
 6645TIP3   OH219898   4.953   2.473   0.449  0.5154 -0.2774  0.1058
 6645TIP3    H119899   4.981   2.557   0.412 -0.9040  0.0373 -0.3231
 6645TIP3    H219900   4.875   2.449   0.398 -0.9019 -0.3493  2.1793
 6646TIP3   OH219901   2.894   4.705   2.580  0.1042 -0.2245  0.0809
 6646TIP3    H119902   2.933   4.676   2.498 -1.7088  0.6800 -1.1440
 6646TIP3    H219903   2.880   4.799   2.569 -0.2173 -0.0890  1.4226
 6647TIP3   OH219904   5.403   1.782   1.442  0.1040 -0.5186  0.3144
 6647TIP3    H119905   5.342   1.847   1.408 -0.9207 -1.7761 -0.3381
 6647TIP3    H219906   5.444   1.824   1.518 -2.9533 -0.2972  1.9656
 6648TIP3   OH219907   3.006   4.269   2.233  0.2276  0.5102 -0.3323
 6648TIP3    H119908   3.041   4.239   2.317  1.7442 -0.3945 -1.2342
 6648TIP3    H219909   2.918   4.233   2.230  0.6905 -0.7510  0.2569
 6649TIP3   OH219910   4.382   5.577   5.875  0.0537  0.6360 -0.9427
 6649TIP3    H119911   4.381   5.495   5.825 -0.6122  0.7298 -1.0944
 6649TIP3    H219912   4.311   5.629   5.838 -0.6796  0.5714  0.3034
 6650TIP3   OH219913   4.249   1.083   0.385  0.1785 -0.3731  0.0687
 6650TIP3    H119914   4.302   1.145   0.335 -0.6976  0.1113 -0.2930
 6650TIP3    H219915   4.272   0.997   0.350  0.7568 -0.1754 -0.0407
 6651TIP3   OH219916   4.807   5.850   3.823  0.3173  0.1759  0.0740
 6651TIP3    H119917   4.884   5.796   3.808 -0.1072  0.1779 -2.6076
 6651TIP3    H219918   4.733   5.793   3.801 -0.4359  0.4709  1.6702
 6652TIP3   OH219919   3.361   1.373   0.958  0.2219  0.2990 -0.0364
 6652TIP3    H119920   3.292   1.382   1.023 -0.7460  0.6319 -1.0686
 6652TIP3    H219921   3.347   1.287   0.919  1.9708 -0.7315  1.4453
 6653TIP3   OH219922   6.337   2.411   3.122  0.0067  0.5010 -0.1710
 6653TIP3    H119923   6.304   2.377   3.038  1.6329  0.6920 -0.9287
 6653TIP3    H219924   6.302   2.351   3.188 -0.6569 -0.1246 -1.0746
 6654TIP3   OH219925   2.516   0.111   2.203  0.6371  0.5093 -0.5646
 6654TIP3    H119926   2.553   0.114   2.292  1.2306 -0.1980 -0.7714
 6654TIP3    H219927   2.455   0.184   2.200 -0.5330 -0.3443  0.9328
 6655TIP3   OH219928   4.339   6.292   0.998 -0.2406  0.7510  0.1050
 6655TIP3    H119929   4.308   6.303   1.088 -0.3647  0.5182  0.0913
 6655TIP3    H219930   4.355   6.198   0.990  1.6125  0.9961  0.4928
 6656TIP3   OH219931   5.764   5.982   4.799  0.1206  0.3072  0.5083
 6656TIP3    H119932   5.680   5.944   4.824  1.0170 -4.2841 -2.3325
 6656TIP3    H219933   5.829   5.932   4.848  1.3362  0.6132 -0.7369
 6657TIP3   OH219934   3.357   3.630   2.784  0.2581  0.1627 -0.3819
 6657TIP3    H119935   3.311   3.561   2.737 -0.2141 -0.5967  1.1316
 6657TIP3    H219936   3.350   3.707   2.726 -1.4263 -0.3778 -0.9638
 6658TIP3   OH219937   1.403   5.964   4.693 -0.0954 -0.3812  0.0150
 6658TIP3    H119938   1.456   5.956   4.772 -1.4130 -2.2228  0.7904
 6658TIP3    H219939   1.404   5.876   4.654 -1.7939 -0.2435 -0.4287
 6659TIP3   OH219940   3.506   3.661   4.440 -0.0285  0.2545  0.0726
 6659TIP3    H119941   3.427   3.680   4.491  0.8173 -0.5630  1.7679
 6659TIP3    H219942   3.477   3.598   4.373 -0.6756 -0.6378  1.1601
 6660TIP3   OH219943   4.607   0.232   5.452 -0.0637  0.2619  0.5854
 6660TIP3    H119944   4.594   0.323   5.423 -0.4768  0.2623  0.7635
 6660TIP3    H219945   4.519   0.201   5.473 -0.4448 -1.2913 -2.6867
 6661TIP3   OH219946   0.667   6.586   1.213 -0.5593 -0.1124 -0.0329
 6661TIP3    H119947   0.595   6.526   1.238  0.7323 -0.9325  2.0274
 6661TIP3    H219948   0.728   6.531   1.165 -1.0076  0.4607 -1.3046
 6662TIP3   OH219949   5.896   4.881   1.564  0.3601  0.0220  0.0455
 6662TIP3    H119950   5.810   4.892   1.605  0.8180 -2.1611  1.7465
 6662TIP3    H219951   5.954   4.857   1.636  1.7233 -1.5786 -1.5103
 6663TIP3   OH219952   0.577   5.544   4.816 -0.9263  0.0270 -0.0594
 6663TIP3    H119953   0.543   5.574   4.731 -2.2598  1.0745  0.7953
 6663TIP3    H219954   0.522   5.589   4.880  1.0962  0.5511  1.4021
 6664TIP3   OH219955   3.085   1.861   1.897  0.3949  0.2913  0.5771
 6664TIP3    H119956   3.160   1.834   1.952  1.7141  2.3933 -0.0860
 6664TIP3    H219957   3.070   1.785   1.840  2.7275  0.1552  0.0216
 6665TIP3   OH219958   3.044   3.464   3.706  0.2272 -0.4012  0.0043
 6665TIP3    H119959   3.082   3.547   3.735  0.2519 -0.9156  1.5240
 6665TIP3    H219960   3.115   3.421   3.657  0.3554  0.2544 -0.4013
 6666TIP3   OH219961   0.942   5.324   2.465  0.4276  0.5466 -0.6734
 6666TIP3    H119962   0.901   5.398   2.508 -1.1042 -0.8882  0.4540
 6666TIP3    H219963   1.033   5.325   2.495 -0.3349  0.2050  1.8003
 6667TIP3   OH219964   0.413   1.403   3.672 -0.0586 -0.6221 -0.2553
 6667TIP3    H119965   0.351   1.346   3.626  0.4906 -0.1850 -1.5827
 6667TIP3    H219966   0.448   1.349   3.742 -1.4094 -1.1009  0.0903
 6668TIP3   OH219967   2.985   3.382   4.898  0.5249  0.0577 -0.6680
 6668TIP3    H119968   2.911   3.424   4.854 -0.0451 -0.3190 -0.0940
 6668TIP3    H219969   3.055   3.382   4.833  0.6405  2.1300 -0.6152
 6669TIP3   OH219970   6.336   3.555   5.402 -0.2037  0.4868 -0.0423
 6669TIP3    H119971   6.428   3.529   5.401 -0.1999  0.4629  0.4224
 6669TIP3    H219972   6.299   3.507   5.477 -0.9625 -0.7600 -1.1592
 6670TIP3   OH219973   2.284   3.322   0.845  1.0537  0.4054  0.3608
 6670TIP3    H119974   2.197   3.343   0.811  1.1902  0.7842  0.2386
 6670TIP3    H219975   2.342   3.388   0.807  1.0251  1.6258  2.2856
 6671TIP3   OH219976   2.026   6.483   5.752 -0.1923  0.1399  0.3818
 6671TIP3    H119977   2.023   6.566   5.799  1.1693  0.2394  0.3434
 6671TIP3    H219978   2.029   6.416   5.820  1.7898  0.2836  0.4949
 6672TIP3   OH219979   3.135   1.383   2.156  0.1690  0.0558  0.0603
 6672TIP3    H119980   3.142   1.308   2.215  3.1218 -0.1296 -0.3876
 6672TIP3    H219981   3.143   1.345   2.068 -2.0555  0.5665 -0.4381
 6673TIP3   OH219982   6.996   4.510   2.509 -0.1096  0.0350 -0.4343
 6673TIP3    H119983   6.963   4.598   2.530 -0.9064  0.0584 -1.6613
 6673TIP3    H219984   7.075   4.501   2.562  0.0426  1.5306 -0.3491
 6674TIP3   OH219985   1.856   3.300   3.769 -0.1157 -0.0270 -0.7980
 6674TIP3    H119986   1.766   3.332   3.781  0.4966  1.4972  0.1397
 6674TIP3    H219987   1.869   3.239   3.842 -0.6062 -0.8162 -1.3560
 6675TIP3   OH219988   0.674   2.700   1.650  0.2831 -0.2068 -0.4990
 6675TIP3    H119989   0.764   2.688   1.620  0.5108  0.6647 -0.1947
 6675TIP3    H219990   0.682   2.753   1.729 -0.4988 -0.0803 -0.4975
 6676TIP3   OH219991   5.470   2.104   5.581  0.5061  0.6498 -0.4107
 6676TIP3    H119992   5.548   2.161   5.586  0.3584  1.1586 -2.8294
 6676TIP3    H219993   5.506   2.015   5.577  0.8269  0.6871  1.0060
 6677TIP3   OH219994   1.856   2.281   4.528 -0.2864  0.5844 -0.6321
 6677TIP3    H119995   1.775   2.276   4.577  0.7953  1.0322  1.2855
 6677TIP3    H219996   1.903   2.200   4.550  0.7587  1.3696  0.1458
 6678TIP3   OH219997   0.742   0.710   0.890 -0.3931 -0.2193 -0.1637
 6678TIP3    H119998   0.707   0.675   0.972 -1.2949  1.3386  0.1634
 6678TIP3    H219999   0.825   0.663   0.877 -1.3884 -2.2439  0.3347
 6679TIP3   OH220000   1.761   3.148   2.543  0.0432  0.1991 -0.2891
 6679TIP3    H120001   1.711   3.137   2.462 -0.3994  0.2021 -0.0168
 6679TIP3    H220002   1.700   3.125   2.613  0.7030 -0.7321 -0.0022
 6680TIP3   OH220003   5.059   2.392   5.544 -0.0134  0.3900 -0.4984
 6680TIP3    H120004   5.059   2.362   5.454 -1.5049  0.7491 -0.6401
 6680TIP3    H220005   5.037   2.315   5.596  0.8981  0.1710 -0.4228
 6681TIP3   OH220006   1.047   2.192   1.511 -0.1070  0.1652 -0.2451
 6681TIP3    H120007   1.046   2.208   1.417 -0.4165  0.7403 -0.1499
 6681TIP3    H220008   0.958   2.209   1.540  0.0982  0.4655  0.2249
 6682TIP3   OH220009   3.536   3.658   0.872 -0.2505  0.1918  0.4013
 6682TIP3    H120010   3.553   3.651   0.778 -0.1607  0.2809  0.4113
 6682TIP3    H220011   3.440   3.660   0.879 -0.3152 -1.3346  0.4066
 6683TIP3   OH220012   6.107   0.898   5.164  0.1716 -0.0074 -0.2320
 6683TIP3    H120013   6.042   0.884   5.233  0.5407  1.0036  0.3538
 6683TIP3    H220014   6.190   0.874   5.206  0.0717 -2.9257 -1.4836
 6684TIP3   OH220015   3.247   4.854   1.574 -0.3293  0.5625  0.4703
 6684TIP3    H120016   3.190   4.818   1.642  0.0226 -2.1139 -0.5119
 6684TIP3    H220017   3.207   4.825   1.492  1.1708  0.6460 -0.3192
 6685TIP3   OH220018   0.539   4.179   2.948  0.4187 -0.9277 -0.1800
 6685TIP3    H120019   0.531   4.219   2.861  1.8035  0.5864  0.3383
 6685TIP3    H220020   0.451   4.183   2.985  0.3496  1.0441 -0.4539
 6686TIP3   OH220021   6.910   0.186   1.574  0.3729 -0.3661 -0.1581
 6686TIP3    H120022   6.870   0.273   1.569 -0.3517 -0.7577 -1.5840
 6686TIP3    H220023   6.973   0.193   1.646 -1.0761  0.7382  1.0586
 6687TIP3   OH220024   4.883   1.716   0.793 -0.3212 -0.1608  0.1161
 6687TIP3    H120025   4.829   1.638   0.779 -1.8130  0.4378  2.1002
 6687TIP3    H220026   4.843   1.784   0.740 -0.1598 -0.2661 -0.1428
 6688TIP3   OH220027   1.676   2.568   0.820  0.1837  0.0138  0.6342
 6688TIP3    H120028   1.762   2.530   0.801  0.5062  0.7421  0.6056
 6688TIP3    H220029   1.690   2.662   0.811 -0.9480  0.0764 -0.7747
 6689TIP3   OH220030   0.858   3.089   1.710  0.4782 -0.2214  0.2101
 6689TIP3    H120031   0.836   3.086   1.803 -0.8065  2.3239  0.0758
 6689TIP3    H220032   0.921   3.161   1.703 -0.6410  0.6697 -1.0536
 6690TIP3   OH220033   6.295   0.535   5.210  0.3950  0.2581 -0.1509
 6690TIP3    H120034   6.211   0.499   5.238  0.9860 -0.9049  0.1787
 6690TIP3    H220035   6.353   0.519   5.284  1.1881  0.0145 -0.8184
 6691TIP3   OH220036   7.163   4.638   0.591 -0.0398  0.1190 -0.3431
 6691TIP3    H120037   7.258   4.652   0.592  0.0296 -0.1711 -1.2656
 6691TIP3    H220038   7.130   4.691   0.663  0.7159  1.1028 -0.7005
 6692TIP3   OH220039   6.192   0.441   4.712  0.3028  0.2130 -0.1548
 6692TIP3    H120040   6.097   0.445   4.713  0.3124  1.2774 -1.1711
 6692TIP3    H220041   6.214   0.413   4.623  0.9480  0.6726 -0.1463
 6693TIP3   OH220042   2.823   5.606   5.279 -0.1029  0.3245  0.1774
 6693TIP3    H120043   2.869   5.573   5.356  2.2842  2.8199 -0.0412
 6693TIP3    H220044   2.832   5.537   5.214  0.6985 -0.4852  1.1202
 6694TIP3   OH220045   4.368   1.042   3.087 -0.2414  0.0483  0.0950
 6694TIP3    H120046   4.460   1.017   3.089 -0.3006 -0.1850 -0.1057
 6694TIP3    H220047   4.322   0.964   3.057 -0.3507  0.6211 -1.3256
 6695TIP3   OH220048   2.773   6.007   4.904 -0.1427  0.9863 -0.6274
 6695TIP3    H120049   2.713   6.050   4.965  1.9130  3.0715  0.0970
 6695TIP3    H220050   2.813   5.936   4.955 -1.1254  0.3060 -0.7723
 6696TIP3   OH220051   5.997   5.318   3.182  0.2131  0.0861 -0.1682
 6696TIP3    H120052   5.931   5.369   3.229  0.6565 -0.5789  1.2164
 6696TIP3    H220053   6.037   5.263   3.249  0.8695 -0.9044 -1.3405
 6697TIP3   OH220054   3.802   2.813   2.632  0.3022  0.4583 -0.7503
 6697TIP3    H120055   3.818   2.772   2.717 -0.2571  0.3580 -0.6889
 6697TIP3    H220056   3.777   2.741   2.574  1.6703  0.3794 -1.2728
 6698TIP3   OH220057   4.685   2.210   0.990  0.1473 -0.3149  0.7621
 6698TIP3    H120058   4.708   2.301   1.009 -0.6230  0.4374 -1.4868
 6698TIP3    H220059   4.628   2.184   1.062 -0.5610  1.4150  0.8804
 6699TIP3   OH220060   6.410   1.377   0.795  0.1016  0.6201  0.0270
 6699TIP3    H120061   6.470   1.346   0.864  1.0927  0.5546 -0.8391
 6699TIP3    H220062   6.323   1.367   0.833  0.6709  1.8219  1.7669
 6700TIP3   OH220063   4.139   0.886   2.910  0.3287  0.4072 -0.4204
 6700TIP3    H120064   4.072   0.820   2.896  0.2266 -0.1509  2.1161
 6700TIP3    H220065   4.090   0.965   2.932  0.4340  0.1591  0.8109
 6701TIP3   OH220066   1.601   3.292   0.723 -0.6601 -0.0172 -0.9290
 6701TIP3    H120067   1.602   3.315   0.816  0.0203 -0.2282 -0.8756
 6701TIP3    H220068   1.664   3.353   0.683 -0.3597 -0.4501 -1.1208
 6702TIP3   OH220069   3.408   6.581   0.253  0.2993 -0.9544 -0.1910
 6702TIP3    H120070   3.434   6.640   0.182  1.0329 -0.3894  0.5319
 6702TIP3    H220071   3.430   6.629   0.333 -1.2683 -1.2306  0.4468
 6703TIP3   OH220072   4.413   5.461   4.169  0.4367 -0.2817  0.4741
 6703TIP3    H120073   4.403   5.556   4.174 -2.0379 -0.2162 -2.6517
 6703TIP3    H220074   4.380   5.429   4.253  0.0045  1.5783  1.0592
 6704TIP3   OH220075   4.832   5.179   4.225  0.2657 -0.5024  0.3834
 6704TIP3    H120076   4.769   5.106   4.222  0.3664 -0.5761 -0.1513
 6704TIP3    H220077   4.778   5.256   4.240  0.3012 -0.8394  2.4672
 6705TIP3   OH220078   0.713   3.369   0.573 -0.7629  0.3384 -0.2077
 6705TIP3    H120079   0.733   3.312   0.498  0.5613  2.5559 -1.6719
 6705TIP3    H220080   0.743   3.320   0.649  0.3813 -0.9137 -1.3935
 6706TIP3   OH220081   6.565   3.536   2.762  0.3739 -0.1573  0.3772
 6706TIP3    H120082   6.653   3.573   2.766  1.3108 -1.5841 -3.3723
 6706TIP3    H220083   6.577   3.446   2.731 -2.3657 -0.6596  0.4609
 6707TIP3   OH220084   3.547   6.245   5.180 -0.3141 -0.2440  0.4109
 6707TIP3    H120085   3.571   6.336   5.162 -0.8300 -0.3198 -0.7756
 6707TIP3    H220086   3.570   6.232   5.272  0.1398  0.9602  0.4928
 6708TIP3   OH220087   3.616   4.293   1.356 -0.0062 -0.0991  0.2082
 6708TIP3    H120088   3.599   4.346   1.278  1.0474 -0.5819 -0.3758
 6708TIP3    H220089   3.618   4.356   1.428  0.8523  0.6245 -0.4203
 6709TIP3   OH220090   6.823   3.881   1.384  0.0729 -0.1526  0.0738
 6709TIP3    H120091   6.766   3.879   1.307 -1.9520  0.1568  1.4874
 6709TIP3    H220092   6.887   3.948   1.364  0.0904 -0.6388 -1.6628
 6710TIP3   OH220093   3.547   0.964   3.142  0.3379  0.3032  0.0930
 6710TIP3    H120094   3.487   0.906   3.096  0.7496  0.6615 -0.9369
 6710TIP3    H220095   3.634   0.932   3.118  0.5633  0.7531  0.2962
 6711TIP3   OH220096   0.247   2.164   3.301 -0.1074 -0.4212 -0.2830
 6711TIP3    H120097   0.186   2.131   3.235  0.5300  1.3343 -1.7942
 6711TIP3    H220098   0.328   2.116   3.285  0.3822  0.7671 -1.5471
 6712TIP3   OH220099   1.968   5.882   4.757 -0.0494 -0.3727  0.0669
 6712TIP3    H120100   2.027   5.870   4.831  0.6767 -0.7044 -0.5565
 6712TIP3    H220101   2.024   5.912   4.686 -1.0222  1.9502  0.1723
 6713TIP3   OH220102   1.445   1.853   3.034  0.0583  0.0770 -0.1040
 6713TIP3    H120103   1.497   1.801   2.972 -1.3715 -0.5824 -0.7819
 6713TIP3    H220104   1.461   1.943   3.008 -1.0499 -0.2103 -1.9129
 6714TIP3   OH220105   2.153   1.585   5.006 -0.1795  0.4107  0.1360
 6714TIP3    H120106   2.241   1.611   4.979  1.0208 -0.4877  2.7423
 6714TIP3    H220107   2.123   1.657   5.061 -1.6546  1.2698 -1.7113
 6715TIP3   OH220108   3.600   2.005   1.580  0.2307 -0.3031 -0.5659
 6715TIP3    H120109   3.595   2.070   1.509 -1.8483 -0.0301 -0.2030
 6715TIP3    H220110   3.642   2.052   1.652 -1.2089  0.6457 -0.3243
 6716TIP3   OH220111   0.216   4.299   2.232 -0.5015 -0.7114  0.5562
 6716TIP3    H120112   0.155   4.263   2.168 -0.2664 -1.0147  0.5002
 6716TIP3    H220113   0.285   4.233   2.239  1.1987  0.7705 -1.3413
 6717TIP3   OH220114   3.822   0.074   3.566  0.1396  0.0310 -0.0085
 6717TIP3    H120115   3.795   0.148   3.620  0.9988 -0.1347  0.6567
 6717TIP3    H220116   3.785  -0.002   3.609  0.5234 -0.0689  0.1447
 6718TIP3   OH220117   3.948   3.024   2.519  0.5083 -0.4475 -0.3331
 6718TIP3    H120118   4.038   2.995   2.504  0.4274 -0.8683 -0.0505
 6718TIP3    H220119   3.905   2.947   2.557  0.8098  0.6288  2.3866
 6719TIP3   OH220120   5.412   5.773   3.112 -0.1056 -0.7982  0.0346
 6719TIP3    H120121   5.472   5.845   3.092 -0.0696 -0.1888  2.0524
 6719TIP3    H220122   5.369   5.753   3.029  0.5882  0.9129 -0.7847
 6720TIP3   OH220123   6.043   1.676   3.192 -0.0387  0.1425 -0.4343
 6720TIP3    H120124   6.064   1.583   3.185 -0.4445 -0.1609  1.7379
 6720TIP3    H220125   6.033   1.705   3.101 -1.0346 -2.1871 -1.1475
 6721TIP3   OH220126   1.609   0.917   0.442  0.3661  0.2921 -0.0776
 6721TIP3    H120127   1.639   0.923   0.533 -0.8165 -0.2746  0.3663
 6721TIP3    H220128   1.604   0.823   0.424 -2.7949  0.2301  0.4951
 6722TIP3   OH220129   2.381   4.637   1.015  0.4929 -0.6982 -0.1201
 6722TIP3    H120130   2.326   4.589   1.076 -0.7782 -0.7045 -1.2353
 6722TIP3    H220131   2.322   4.699   0.973  1.6328  0.2812 -0.3458
 6723TIP3   OH220132   5.819   0.378   3.623 -0.2713  0.5718 -0.2424
 6723TIP3    H120133   5.910   0.352   3.638  0.0772  3.1044  3.5325
 6723TIP3    H220134   5.774   0.296   3.604  2.4831 -1.0320 -0.4486
 6724TIP3   OH220135   2.621   5.848   3.687  0.5747  0.3843 -0.1281
 6724TIP3    H120136   2.577   5.816   3.765  1.2332  1.6141  0.7882
 6724TIP3    H220137   2.700   5.794   3.680  0.2652 -0.0567 -0.2404
 6725TIP3   OH220138   5.639   1.745   1.261  0.1900  0.6110 -0.4388
 6725TIP3    H120139   5.717   1.697   1.289  0.3073 -1.1759 -3.3498
 6725TIP3    H220140   5.584   1.750   1.339  2.2686 -0.0273  1.1539
 6726TIP3   OH220141   6.899   1.260   1.705 -0.4461  0.9159 -0.2047
 6726TIP3    H120142   6.948   1.201   1.648  0.0033 -0.2006  1.2896
 6726TIP3    H220143   6.959   1.280   1.776 -0.8507  2.6298 -0.2891
 6727TIP3   OH220144   3.953   3.834   2.448 -0.4544 -0.2066  0.1843
 6727TIP3    H120145   3.952   3.767   2.517 -0.8205 -0.2911  0.0967
 6727TIP3    H220146   4.025   3.807   2.391  0.1826  0.1505  0.8115
 6728TIP3   OH220147   3.561   3.179   2.362 -1.0155  0.1379  0.0894
 6728TIP3    H120148   3.644   3.222   2.383 -1.2333  0.2907  0.6531
 6728TIP3    H220149   3.582   3.086   2.357 -1.0310  0.0487  1.4134
 6729TIP3   OH220150   7.125   0.853   5.586  0.5433  0.5776  0.3249
 6729TIP3    H120151   7.100   0.836   5.677  1.1070  2.2005  0.8087
 6729TIP3    H220152   7.196   0.916   5.592 -0.1091  1.5159 -1.2805
 6730TIP3   OH220153   3.558   5.475   0.037 -0.6396  0.4341 -0.3400
 6730TIP3    H120154   3.620   5.545   0.015 -0.8645  0.8494  0.3511
 6730TIP3    H220155   3.612   5.409   0.082 -0.3192 -0.0995 -1.4673
 6731TIP3   OH220156   3.794   6.594   0.030  0.1630 -0.3540 -0.6412
 6731TIP3    H120157   3.871   6.550  -0.007  0.7568  0.3635 -0.2733
 6731TIP3    H220158   3.812   6.597   0.124 -0.0106  0.4038 -0.6305
 6732TIP3   OH220159   6.579   5.989   4.068  0.3382 -0.1851  0.2255
 6732TIP3    H120160   6.489   6.022   4.069 -0.2326 -1.5230 -1.5579
 6732TIP3    H220161   6.629   6.057   4.024  0.2694  0.6414  1.3708
 6733TIP3   OH220162   0.783   0.147   2.067  0.4036  0.0717 -0.2617
 6733TIP3    H120163   0.706   0.182   2.022 -0.9857 -0.9900  1.1464
 6733TIP3    H220164   0.801   0.064   2.023  1.5800  0.9065 -1.4129
 6734TIP3   OH220165   3.555   4.344   3.402 -0.7455 -0.1799  0.3230
 6734TIP3    H120166   3.539   4.434   3.430 -0.2713  0.5713 -1.6425
 6734TIP3    H220167   3.631   4.316   3.453 -1.2613  0.2932  1.3919
 6735TIP3   OH220168   6.923   2.172   1.416  0.5102  0.5535  0.3422
 6735TIP3    H120169   6.937   2.121   1.337 -3.8256 -0.7827  0.2173
 6735TIP3    H220170   6.970   2.125   1.485 -0.4191 -1.6012 -0.4427
 6736TIP3   OH220171   6.891   6.296   1.531 -0.1903 -0.1887 -0.4869
 6736TIP3    H120172   6.982   6.312   1.507  0.2509 -1.4306  0.2704
 6736TIP3    H220173   6.860   6.234   1.465 -0.2165 -0.4419 -0.2376
 6737TIP3   OH220174   6.470   3.740   0.147  0.4741 -0.7044  0.3608
 6737TIP3    H120175   6.490   3.762   0.238 -1.4361  0.8698  0.4460
 6737TIP3    H220176   6.430   3.818   0.110  1.7297 -1.0942 -2.0576
 6738TIP3   OH220177   0.496   1.607   2.441 -0.1630  0.1254 -0.0605
 6738TIP3    H120178   0.490   1.531   2.383  0.6303  0.8102 -1.1002
 6738TIP3    H220179   0.558   1.582   2.509  0.7256  0.1064 -0.8604
 6739TIP3   OH220180   0.628   5.999   0.234  0.0453  0.0107 -0.0097
 6739TIP3    H120181   0.663   5.953   0.158  0.4607  0.0798  0.1354
 6739TIP3    H220182   0.652   5.944   0.309  1.3387  0.8729  0.2592
 6740TIP3   OH220183   5.209   1.190   0.750  0.0618  0.2886  0.2589
 6740TIP3    H120184   5.299   1.163   0.731 -0.1142  0.7682 -1.4258
 6740TIP3    H220185   5.181   1.131   0.819  2.3972  1.6005  2.4881
 6741TIP3   OH220186   0.716   6.303   3.684  0.4755  0.3546 -0.3255
 6741TIP3    H120187   0.642   6.313   3.742  0.8006 -0.6810  0.2934
 6741TIP3    H220188   0.711   6.212   3.653  2.0896 -0.1025  0.6148
 6742TIP3   OH220189   3.268   5.724   1.820 -0.4195 -0.6262 -0.2227
 6742TIP3    H120190   3.240   5.816   1.822  0.1781 -0.4325  1.4521
 6742TIP3    H220191   3.293   5.705   1.911  0.5807 -2.0959 -0.7636
 6743TIP3   OH220192   1.026   2.638   0.606 -0.3584  0.7406 -0.4821
 6743TIP3    H120193   1.068   2.554   0.589 -3.1344 -0.6245 -1.2283
 6743TIP3    H220194   1.010   2.675   0.519 -1.8520  0.5385 -0.3251
 6744TIP3   OH220195   3.469   0.965   4.610  0.0154  0.1128 -0.0391
 6744TIP3    H120196   3.557   0.941   4.584  0.2900 -1.0118  1.7567
 6744TIP3    H220197   3.420   0.882   4.610 -0.6954  0.5183  0.2402
 6745TIP3   OH220198   1.289   4.163   3.298  0.6076  0.6323 -0.0404
 6745TIP3    H120199   1.196   4.185   3.289  0.9350  1.3957 -2.1022
 6745TIP3    H220200   1.290   4.084   3.352 -1.0540  1.9147  2.0551
 6746TIP3   OH220201   5.736   2.126   4.582  0.0523 -0.0683 -0.0798
 6746TIP3    H120202   5.771   2.068   4.651  0.4425 -0.6722 -0.7731
 6746TIP3    H220203   5.641   2.112   4.585  0.0600 -0.0491  0.3674
 6747TIP3   OH220204   0.326   5.423   3.089  0.2083 -0.5688  0.2560
 6747TIP3    H120205   0.259   5.473   3.042 -1.8519 -0.7902  2.7008
 6747TIP3    H220206   0.341   5.346   3.034 -1.8347 -0.6614 -0.2549
 6748TIP3   OH220207   3.696   2.473   2.217  0.1663  0.6200 -0.6623
 6748TIP3    H120208   3.682   2.459   2.123  2.4130 -0.9678 -0.8546
 6748TIP3    H220209   3.636   2.412   2.259  1.0548 -0.6834 -1.2051
 6749TIP3   OH220210   4.192   0.523   2.409  0.6454 -0.0363 -0.5825
 6749TIP3    H120211   4.103   0.534   2.375  0.8121  0.1402 -0.9642
 6749TIP3    H220212   4.204   0.597   2.469  0.3953 -0.2788 -0.2312
 6750TIP3   OH220213   6.491   5.009   2.375  0.0240  0.8943  0.4170
 6750TIP3    H120214   6.548   5.066   2.324 -0.7481  1.4077  0.1165
 6750TIP3    H220215   6.532   5.005   2.461  1.2761  0.1135 -0.1881
 6751TIP3   OH220216   4.372   5.726   4.184  0.2777 -0.4372 -0.1617
 6751TIP3    H120217   4.282   5.736   4.216  0.6640 -0.8525  1.1183
 6751TIP3    H220218   4.406   5.815   4.183 -0.1178 -0.2857 -0.5752
 6752TIP3   OH220219   5.928   5.656   4.673 -0.0220 -0.4667 -0.4369
 6752TIP3    H120220   5.863   5.586   4.676  1.4809 -1.9354 -0.5069
 6752TIP3    H220221   5.907   5.712   4.747 -2.5877  0.3012 -1.6169
 6753TIP3   OH220222   6.521   1.665   4.653  0.7760  1.1471  0.4029
 6753TIP3    H120223   6.562   1.694   4.735  4.8930  0.2882 -1.0943
 6753TIP3    H220224   6.561   1.579   4.636 -0.2109  1.1325 -2.3336
 6754TIP3   OH220225   2.267   1.900   4.424 -0.0675 -0.1067  0.2052
 6754TIP3    H120226   2.354   1.862   4.437  0.4407  1.2120  0.8598
 6754TIP3    H220227   2.269   1.931   4.333  0.4767  0.6970  0.4828
 6755TIP3   OH220228   3.815   1.775   5.361 -0.2202 -0.4739 -0.4357
 6755TIP3    H120229   3.905   1.805   5.350 -0.6001  0.8333 -0.1615
 6755TIP3    H220230   3.762   1.854   5.353 -1.1443 -0.7389  2.0533
 6756TIP3   OH220231   6.757   6.198   4.577 -0.0888 -0.3273 -0.0222
 6756TIP3    H120232   6.829   6.150   4.617  0.2863  0.2060 -0.0504
 6756TIP3    H220233   6.775   6.290   4.596 -1.6372 -0.2648  1.4220
 6757TIP3   OH220234   4.165   0.474   3.547 -0.1398  0.3045 -0.3948
 6757TIP3    H120235   4.156   0.557   3.594 -0.8921  0.0727 -0.1077
 6757TIP3    H220236   4.076   0.454   3.517  0.1207 -0.1552 -0.8738
 6758TIP3   OH220237   3.768   0.071   1.574 -0.0905 -0.5491  0.0188
 6758TIP3    H120238   3.723   0.031   1.499  1.8003 -0.0753 -1.4596
 6758TIP3    H220239   3.843   0.013   1.591 -0.3762 -0.5318  1.4342
 6759TIP3   OH220240   3.741   2.016   3.135 -0.1027  1.0529  0.5513
 6759TIP3    H120241   3.749   1.921   3.139 -0.3454  1.0138  0.0956
 6759TIP3    H220242   3.677   2.037   3.203  0.3426  0.9432  1.0114
 6760TIP3   OH220243   5.699   4.526   0.568  0.1389  0.1179 -0.5782
 6760TIP3    H120244   5.763   4.547   0.636  1.3865  0.4581 -1.8011
 6760TIP3    H220245   5.628   4.482   0.614  0.5150  1.1646  1.0626
 6761TIP3   OH220246   2.543   5.565   1.639 -0.0313  0.1131 -0.0979
 6761TIP3    H120247   2.560   5.653   1.605  0.5814  0.5041  1.1926
 6761TIP3    H220248   2.503   5.519   1.565 -1.9345  1.9598 -0.3172
 6762TIP3   OH220249   1.295   5.327   3.877 -0.3604  0.0146  0.6801
 6762TIP3    H120250   1.387   5.348   3.894 -0.0670 -1.7202  1.4944
 6762TIP3    H220251   1.249   5.411   3.885  0.9907  0.7132  1.5227
 6763TIP3   OH220252   2.167   2.903   3.412 -0.1839 -0.0230  0.0066
 6763TIP3    H120253   2.163   2.985   3.363 -0.2526 -1.4020 -2.4971
 6763TIP3    H220254   2.246   2.860   3.380 -1.0927 -1.6988 -0.0946
 6764TIP3   OH220255   4.619   3.058   4.227  0.2518 -0.6512 -0.2444
 6764TIP3    H120256   4.695   3.076   4.282 -0.7721  0.6214  0.8264
 6764TIP3    H220257   4.580   2.980   4.265 -0.7121  0.4780  1.2237
 6765TIP3   OH220258   5.524   0.889   1.583  0.3400 -0.2795 -0.5734
 6765TIP3    H120259   5.611   0.874   1.621  0.8168  0.3971 -1.3822
 6765TIP3    H220260   5.522   0.833   1.505  0.6242  0.8312 -1.3903
 6766TIP3   OH220261   6.131   2.813   5.431 -0.1927 -0.1371  0.0074
 6766TIP3    H120262   6.138   2.721   5.455  0.1802 -0.0312  0.3160
 6766TIP3    H220263   6.182   2.821   5.351  0.2087 -0.0970  0.2647
 6767TIP3   OH220264   6.345   4.470   0.242  0.1207 -0.4225  0.2112
 6767TIP3    H120265   6.363   4.413   0.317 -0.4746  0.2501  0.8784
 6767TIP3    H220266   6.412   4.539   0.248 -0.6387  0.2808  0.8182
 6768TIP3   OH220267   5.962   0.446   4.066  1.0621  0.2570 -0.3213
 6768TIP3    H120268   6.051   0.481   4.070  1.6501 -1.2830  1.2138
 6768TIP3    H220269   5.949   0.426   3.973  2.3781  0.3702 -0.5589
 6769TIP3   OH220270   7.221   2.637   0.281  0.5937  0.3158  0.1985
 6769TIP3    H120271   7.143   2.692   0.280  0.2923 -0.1062 -0.8783
 6769TIP3    H220272   7.222   2.599   0.369 -0.9925 -0.4668 -0.0771
 6770TIP3   OH220273   2.764   6.690   4.784 -0.4210 -0.0531  0.0671
 6770TIP3    H120274   2.689   6.750   4.783  0.9626  1.8646  2.1978
 6770TIP3    H220275   2.790   6.685   4.876  1.3459 -1.6618 -0.4455
 6771TIP3   OH220276   6.931   1.002   4.397  0.1183  0.0959 -0.0553
 6771TIP3    H120277   6.845   1.023   4.360 -0.0582 -0.1878  0.1927
 6771TIP3    H220278   6.960   0.924   4.350 -0.7939 -1.2088  1.4296
 6772TIP3   OH220279   0.077   2.049   3.108 -0.5727  0.1814  0.3551
 6772TIP3    H120280   0.164   2.015   3.088 -0.3831  1.0368 -0.3639
 6772TIP3    H220281   0.021   2.016   3.037  0.1485  3.4176 -1.9566
 6773TIP3   OH220282   0.907   5.360   5.803  0.7371 -0.2614  0.2360
 6773TIP3    H120283   0.972   5.369   5.872  0.1071  1.3532  0.6742
 6773TIP3    H220284   0.848   5.434   5.816  0.4601 -0.0456 -1.8776
 6774TIP3   OH220285   0.084   5.226   5.198 -0.1625  0.0477 -0.2467
 6774TIP3    H120286   0.157   5.195   5.144 -0.5572 -0.2297 -0.6235
 6774TIP3    H220287   0.047   5.299   5.148 -1.6473 -1.3315 -1.2454
 6775TIP3   OH220288   1.463   2.434   2.587  0.1394 -0.3717 -0.3635
 6775TIP3    H120289   1.484   2.496   2.518 -0.4725  0.2175 -0.0380
 6775TIP3    H220290   1.434   2.355   2.541  1.4004 -0.6123 -0.7880
 6776TIP3   OH220291   0.332   5.852   1.487  0.0838  0.7090 -0.2841
 6776TIP3    H120292   0.265   5.787   1.510  0.9837 -0.4097 -0.7334
 6776TIP3    H220293   0.396   5.846   1.558  2.1730 -1.7796 -2.1994
 6777TIP3   OH220294   4.142   0.428   2.879  0.0845  0.2237 -0.4363
 6777TIP3    H120295   4.160   0.518   2.906 -0.1496  0.5754 -1.4021
 6777TIP3    H220296   4.056   0.433   2.838  0.5033 -0.2460 -1.3856
 6778TIP3   OH220297   1.367   5.923   2.681  0.4503 -0.2735 -0.2892
 6778TIP3    H120298   1.420   5.990   2.723  0.6428 -1.0731  0.8126
 6778TIP3    H220299   1.363   5.852   2.746 -0.6720 -0.8607 -0.9690
 6779TIP3   OH220300   3.527   5.992   3.081 -0.0644  0.0207 -0.3711
 6779TIP3    H120301   3.514   6.075   3.036  0.1033  1.2992  1.7611
 6779TIP3    H220302   3.458   5.990   3.148  1.4559 -0.2880  1.2689
 6780TIP3   OH220303   2.430   1.709   5.635 -0.7572  0.0515 -0.4246
 6780TIP3    H120304   2.387   1.790   5.609 -1.4454 -0.1152  0.1688
 6780TIP3    H220305   2.382   1.640   5.589 -1.6624 -0.2022  0.8178
 6781TIP3   OH220306   6.703   4.972   1.195 -0.3023 -0.2285 -0.3301
 6781TIP3    H120307   6.674   4.985   1.285  1.8915 -0.7411  0.5158
 6781TIP3    H220308   6.708   4.876   1.186  0.3716 -0.1650 -0.6736
 6782TIP3   OH220309   5.586   2.781   1.141 -0.4409 -0.3921  0.3543
 6782TIP3    H120310   5.524   2.828   1.196 -0.1673  0.4865 -0.0622
 6782TIP3    H220311   5.669   2.828   1.154  0.0287 -1.2530  0.5372
 6783TIP3   OH220312   3.675   0.199   5.744  0.1161 -0.3997  0.1915
 6783TIP3    H120313   3.676   0.271   5.807 -1.1136  0.7021 -0.9633
 6783TIP3    H220314   3.660   0.242   5.659  0.2965 -1.9441 -0.6668
 6784TIP3   OH220315   2.246   4.886   3.747  0.1919 -0.1001  0.6403
 6784TIP3    H120316   2.286   4.972   3.755  1.1471 -0.4929  0.2751
 6784TIP3    H220317   2.287   4.834   3.817  0.5823 -0.6060  0.0411
 6785TIP3   OH220318   5.206   1.335   1.436 -0.0780  0.0572  0.2254
 6785TIP3    H120319   5.286   1.282   1.441  0.3218  0.6872  0.6120
 6785TIP3    H220320   5.221   1.392   1.361 -0.8352 -0.8847 -0.6739
 6786TIP3   OH220321   5.493   0.736   4.809  0.0312 -0.3987 -0.0922
 6786TIP3    H120322   5.487   0.830   4.830 -0.6067 -0.7184  1.2696
 6786TIP3    H220323   5.585   0.714   4.825 -0.1775 -0.3592  1.2697
 6787TIP3   OH220324   6.705   1.516   2.410  0.3789 -0.4295 -0.3533
 6787TIP3    H120325   6.796   1.526   2.383  0.9928 -2.8079  0.5307
 6787TIP3    H220326   6.690   1.421   2.410 -1.5011 -0.2203  1.3805
 6788TIP3   OH220327   1.552   4.217   1.769  0.3620 -0.0785 -0.1139
 6788TIP3    H120328   1.467   4.172   1.768  0.0811  0.4479 -0.0155
 6788TIP3    H220329   1.558   4.260   1.683 -0.0476  0.9472  0.3573
 6789TIP3   OH220330   0.099   0.488   4.065 -0.2767  0.1981 -0.6263
 6789TIP3    H120331   0.024   0.493   4.124  0.4008 -1.7814  0.5248
 6789TIP3    H220332   0.103   0.573   4.023 -2.2629  0.8502  0.3882
 6790TIP3   OH220333   5.119   1.934   4.345 -0.1265  0.0283 -0.3908
 6790TIP3    H120334   5.186   1.977   4.293 -1.3870 -0.0402 -2.1721
 6790TIP3    H220335   5.058   2.004   4.368 -1.3376 -0.4585 -1.9309
 6791TIP3   OH220336   3.241   1.868   0.446 -0.6964  0.5095 -0.2674
 6791TIP3    H120337   3.236   1.898   0.537 -0.4463  1.0035 -0.4124
 6791TIP3    H220338   3.326   1.824   0.440  0.0216  1.8803 -0.6607
 6792TIP3   OH220339   6.455   6.527   3.356 -0.6070  0.0617 -0.3727
 6792TIP3    H120340   6.452   6.568   3.442 -3.4967 -0.1997 -0.2524
 6792TIP3    H220341   6.508   6.448   3.369 -0.7962  0.1534  1.0981
 6793TIP3   OH220342   2.052   4.280   0.088 -0.1290  0.3892 -0.3812
 6793TIP3    H120343   2.039   4.374   0.093 -0.4158  0.4276 -1.5497
 6793TIP3    H220344   1.964   4.244   0.081  0.0490  0.1981 -2.0131
 6794TIP3   OH220345   2.088   2.163   0.288  0.5912  0.5288 -0.0314
 6794TIP3    H120346   2.051   2.198   0.206 -0.6579  0.7729  0.6102
 6794TIP3    H220347   2.153   2.228   0.315  0.9436  0.4933 -0.7696
 6795TIP3   OH220348   1.449   3.105   2.450  0.3708  0.2142  0.2949
 6795TIP3    H120349   1.426   3.044   2.380  0.0657  1.9215 -1.1603
 6795TIP3    H220350   1.514   3.163   2.411 -0.8019  2.0644  0.9924
 6796TIP3   OH220351   1.087   0.451   4.690 -0.3816 -0.3900  0.2709
 6796TIP3    H120352   1.002   0.490   4.669  0.2791  1.1537  0.3388
 6796TIP3    H220353   1.134   0.450   4.606  0.2250  0.5592  0.5923
 6797TIP3   OH220354   5.723   6.776   1.353  0.0910 -0.8753  0.2043
 6797TIP3    H120355   5.810   6.773   1.393  1.0743 -2.1511 -1.8446
 6797TIP3    H220356   5.697   6.684   1.344  0.0283 -0.7006 -2.1226
 6798TIP3   OH220357   1.052   6.569   1.792  0.0645 -0.1288  0.1178
 6798TIP3    H120358   1.105   6.494   1.766  0.3248  0.3288 -0.7059
 6798TIP3    H220359   1.014   6.602   1.710 -0.7264  0.1318  0.5696
 6799TIP3   OH220360   4.620   2.753   1.980 -0.1602  0.2510 -0.2701
 6799TIP3    H120361   4.637   2.713   1.894  1.3934  1.4787 -0.5769
 6799TIP3    H220362   4.552   2.818   1.963 -0.2877  0.0721 -0.4481
 6800TIP3   OH220363   4.988   1.891   1.554 -0.0957  0.2650  0.2229
 6800TIP3    H120364   5.007   1.803   1.586  1.1071  0.5388  0.2993
 6800TIP3    H220365   4.960   1.878   1.464  1.4626 -0.1059 -0.2386
 6801TIP3   OH220366   4.763   6.760   1.212  0.2318  0.1485  0.0641
 6801TIP3    H120367   4.771   6.814   1.133  1.5432 -0.5044 -0.2820
 6801TIP3    H220368   4.699   6.693   1.189 -0.9875  1.2113  0.3057
 6802TIP3   OH220369   5.581   6.711   0.344  0.2850 -0.9990 -0.3108
 6802TIP3    H120370   5.576   6.670   0.431  1.2048  0.2027  0.3503
 6802TIP3    H220371   5.674   6.730   0.332  0.1841 -1.2600 -1.6304
 6803TIP3   OH220372   3.329   1.138   1.326 -0.1135  0.6727  0.6783
 6803TIP3    H120373   3.292   1.223   1.349 -1.6165  0.3545 -0.4372
 6803TIP3    H220374   3.418   1.158   1.297 -0.2356  1.7795  1.0215
 6804TIP3   OH220375   6.482   5.770   3.591 -0.2390  0.0183  0.3447
 6804TIP3    H120376   6.549   5.701   3.588 -0.6421 -0.3948  0.7166
 6804TIP3    H220377   6.441   5.767   3.504  0.8134  0.8878 -0.2182
 6805TIP3   OH220378   1.285   5.130   1.584 -0.0563 -0.1513 -0.1414
 6805TIP3    H120379   1.353   5.075   1.625 -0.6736 -1.5157 -0.8653
 6805TIP3    H220380   1.208   5.118   1.639  0.8680  3.5467  2.3022
 6806TIP3   OH220381   0.423   1.381   1.977 -0.1726  0.2313  0.4563
 6806TIP3    H120382   0.428   1.355   1.885  1.5268  0.6646  0.3922
 6806TIP3    H220383   0.436   1.475   1.976 -1.8142  0.5049  1.0470
 6807TIP3   OH220384   0.960   1.597   4.982 -0.0869  0.6200 -0.0614
 6807TIP3    H120385   0.896   1.552   4.927  1.6728  0.1453 -1.8698
 6807TIP3    H220386   1.019   1.639   4.919  1.5884  0.7196  1.4970
 6808TIP3   OH220387   6.806   2.499   0.418  0.1127  0.3133 -0.0877
 6808TIP3    H120388   6.766   2.416   0.393 -0.2633  0.1676  0.9185
 6808TIP3    H220389   6.877   2.475   0.478 -1.8200  0.7695  2.5815
 6809TIP3   OH220390   4.855   0.378   3.866 -0.0144  0.0085 -0.7230
 6809TIP3    H120391   4.936   0.410   3.907 -1.5558  2.0144  1.0193
 6809TIP3    H220392   4.809   0.334   3.937 -0.4687 -1.1562 -1.7098
 6810TIP3   OH220393   6.744   1.705   0.987 -0.3287  0.0043 -0.0309
 6810TIP3    H120394   6.775   1.618   1.013  0.8946 -0.3729 -2.4637
 6810TIP3    H220395   6.747   1.756   1.068  1.6005 -1.4694  0.9197
 6811TIP3   OH220396   2.341   2.933   1.447  0.5708  0.2432  0.0813
 6811TIP3    H120397   2.341   2.846   1.488 -0.2112  0.9252  1.5888
 6811TIP3    H220398   2.433   2.960   1.448  0.7092 -0.2296  0.3081
 6812TIP3   OH220399   6.138   1.047   1.225  0.8120 -0.4121 -0.0812
 6812TIP3    H120400   6.185   1.130   1.220  0.7825 -0.4246 -0.7143
 6812TIP3    H220401   6.205   0.982   1.244  0.8838 -0.2869  0.0984
 6813TIP3   OH220402   2.625   5.536   1.182  0.4398 -0.1120  0.4378
 6813TIP3    H120403   2.608   5.603   1.116  0.1244  0.1772  0.8046
 6813TIP3    H220404   2.559   5.470   1.166  0.4818 -0.1326  0.3465
 6814TIP3   OH220405   5.633   0.455   1.849  0.0204 -0.1103 -0.0072
 6814TIP3    H120406   5.670   0.401   1.919  1.8454 -0.0482 -0.8637
 6814TIP3    H220407   5.557   0.406   1.818  1.5525 -2.2274 -0.6946
 6815TIP3   OH220408   4.937   2.905   2.069 -0.4004 -0.1201  0.3372
 6815TIP3    H120409   4.976   2.992   2.067 -3.1557  1.2778  1.7830
 6815TIP3    H220410   4.986   2.859   2.138 -0.3042  1.0243  1.0514
 6816TIP3   OH220411   3.407   2.937   5.069 -0.2288 -0.0093  0.1121
 6816TIP3    H120412   3.456   2.945   5.151 -0.2365 -0.7726  0.1990
 6816TIP3    H220413   3.466   2.974   5.003  0.1513 -0.2237  0.3281
 6817TIP3   OH220414   5.642   5.705   4.832  0.7069  0.3734 -0.0592
 6817TIP3    H120415   5.566   5.741   4.785  0.4196  0.1838  0.2565
 6817TIP3    H220416   5.661   5.623   4.786 -0.6397 -0.6845  1.1735
 6818TIP3   OH220417   3.207   4.420   2.024 -0.3383  0.0985  0.0819
 6818TIP3    H120418   3.137   4.370   2.066 -1.4304  1.2760 -0.2469
 6818TIP3    H220419   3.231   4.486   2.089 -0.2320  0.3153 -0.1761
 6819TIP3   OH220420   2.881   3.315   5.560  0.1181 -0.1558 -0.2370
 6819TIP3    H120421   2.813   3.381   5.576  1.2123  1.2340 -1.1167
 6819TIP3    H220422   2.963   3.363   5.569  1.0818 -2.0261  1.8464
 6820TIP3   OH220423   1.220   1.067   1.251 -0.6046 -0.3509 -0.5269
 6820TIP3    H120424   1.253   1.123   1.321 -0.1514 -0.9408 -0.2519
 6820TIP3    H220425   1.125   1.064   1.265 -0.5862  0.0262 -0.3118
 6821TIP3   OH220426   0.113   3.011   5.082 -0.2874 -0.0316 -0.1551
 6821TIP3    H120427   0.107   3.037   5.174 -0.6180  1.1407 -0.4994
 6821TIP3    H220428   0.119   2.915   5.085 -2.1263 -0.1508  0.9959
 6822TIP3   OH220429   4.683   6.499   5.501 -0.6265  0.2446 -0.5105
 6822TIP3    H120430   4.726   6.463   5.423 -0.6094 -1.9446  0.4276
 6822TIP3    H220431   4.720   6.587   5.510 -0.5247  0.5075 -2.8614
 6823TIP3   OH220432   6.367   1.583   5.349  0.0382  0.1566 -0.8815
 6823TIP3    H120433   6.327   1.498   5.333  1.3371 -0.6932  0.1549
 6823TIP3    H220434   6.312   1.622   5.418  1.0582 -1.1241  0.7460
 6824TIP3   OH220435   4.242   0.410   1.200 -0.4105  0.9146  0.3214
 6824TIP3    H120436   4.335   0.389   1.210 -0.4746 -1.5295 -2.5665
 6824TIP3    H220437   4.239   0.505   1.192  1.7452  1.0988  1.1978
 6825TIP3   OH220438   0.794   5.232   2.263 -0.1918  0.2664  0.5439
 6825TIP3    H120439   0.854   5.270   2.327 -1.4141  1.3631  1.1075
 6825TIP3    H220440   0.708   5.236   2.306 -0.8213 -0.2986 -0.6207
 6826TIP3   OH220441   4.422   0.816   5.516  0.4030  0.1518  0.2212
 6826TIP3    H120442   4.368   0.862   5.452  0.5709 -1.4457 -1.1370
 6826TIP3    H220443   4.503   0.868   5.522 -0.2327  1.1534  0.3419
 6827TIP3   OH220444   0.180   3.913   2.304  0.3230 -0.0788  0.1685
 6827TIP3    H120445   0.197   3.860   2.226  0.2443  0.6972 -0.3823
 6827TIP3    H220446   0.238   3.988   2.296  0.6307 -0.1991  1.0877
 6828TIP3   OH220447   6.113   2.063   3.839  0.0472 -0.6599 -0.0219
 6828TIP3    H120448   6.115   2.040   3.932  0.0623  0.3124  0.2364
 6828TIP3    H220449   6.165   1.996   3.796 -1.1815 -1.9791  0.4573
 6829TIP3   OH220450   6.078   0.741   2.479 -0.6700  0.2796 -0.0961
 6829TIP3    H120451   6.142   0.774   2.417 -0.7302  0.4401 -0.0724
 6829TIP3    H220452   6.051   0.657   2.442  1.4572 -1.0681  1.1870
 6830TIP3   OH220453   5.973   3.902   2.881 -0.1641  0.3720 -0.3613
 6830TIP3    H120454   6.058   3.900   2.836 -0.5379  3.3767 -1.4669
 6830TIP3    H220455   5.972   3.986   2.926 -2.2330  0.0425  0.3099
 6831TIP3   OH220456   3.102   0.758   3.203  0.3289  0.5587 -0.2477
 6831TIP3    H120457   3.045   0.835   3.209 -0.2265  0.1770 -0.5396
 6831TIP3    H220458   3.089   0.726   3.114  0.1879 -0.1532  0.0243
 6832TIP3   OH220459   4.960   1.869   5.416 -0.3572 -0.2399 -0.2728
 6832TIP3    H120460   4.909   1.946   5.440 -1.1651 -0.3702 -1.4570
 6832TIP3    H220461   4.956   1.867   5.320  1.9135 -0.2530 -0.4162
 6833TIP3   OH220462   5.494   2.158   5.873 -0.5054 -0.3396 -0.7010
 6833TIP3    H120463   5.410   2.189   5.906 -0.2037 -0.5279  0.2946
 6833TIP3    H220464   5.488   2.166   5.778 -1.2394  0.6672 -0.5781
 6834TIP3   OH220465   0.716   0.485   2.588 -0.8499 -0.3121  0.0122
 6834TIP3    H120466   0.685   0.497   2.678  0.6284  1.7270  0.3222
 6834TIP3    H220467   0.653   0.424   2.549 -3.2809  1.0505  1.5342
 6835TIP3   OH220468   0.693   0.619   2.352  0.0968  0.6184 -0.0819
 6835TIP3    H120469   0.748   0.695   2.371 -0.3628  0.8854  0.2208
 6835TIP3    H220470   0.727   0.550   2.409  3.1390 -0.6959 -3.1775
 6836TIP3   OH220471   2.536   6.283   1.619  0.4626 -0.0631  0.0163
 6836TIP3    H120472   2.536   6.357   1.559 -0.5092 -0.9422 -1.1074
 6836TIP3    H220473   2.448   6.282   1.657  0.6806 -0.2526  0.5344
 6837TIP3   OH220474   0.010   1.765   3.216  0.1104  0.3321  0.3011
 6837TIP3    H120475   0.076   1.734   3.153 -0.6477 -1.1562  0.2123
 6837TIP3    H220476   0.023   1.860   3.218  0.3423  0.4051 -1.9114
 6838TIP3   OH220477   0.038   0.659   2.822 -0.1592 -0.7369  0.8091
 6838TIP3    H120478   0.091   0.658   2.902  0.4422 -0.9892  0.4159
 6838TIP3    H220479   0.046   0.571   2.786  0.2597 -0.4040  0.0423
 6839TIP3   OH220480   2.437   1.087   5.070  0.1364 -0.5575 -0.9158
 6839TIP3    H120481   2.506   1.028   5.101 -0.3198 -0.8640 -0.4760
 6839TIP3    H220482   2.450   1.091   4.975  0.2044 -1.3218 -0.9413
 6840TIP3   OH220483   5.362   3.358   5.743  0.6062  0.0242  0.4472
 6840TIP3    H120484   5.301   3.321   5.679  0.4367 -0.0784  0.6674
 6840TIP3    H220485   5.306   3.388   5.815  0.7654  0.4329  0.4083
 6841TIP3   OH220486   2.041   2.116   3.696  0.3050  0.5543 -0.0483
 6841TIP3    H120487   2.113   2.176   3.674  1.4233 -0.4130  0.8426
 6841TIP3    H220488   1.962   2.164   3.673  1.2442  1.3909 -1.7169
 6842TIP3   OH220489   4.783   1.490   2.780 -0.8177  0.3087 -0.0558
 6842TIP3    H120490   4.786   1.475   2.875  2.4391 -1.6970 -0.3084
 6842TIP3    H220491   4.829   1.415   2.743  0.2491  2.2866 -3.0805
 6843TIP3   OH220492   5.108   1.690   2.140 -0.0228  0.4358  0.1855
 6843TIP3    H120493   5.179   1.645   2.094  1.8271  2.8823  0.4428
 6843TIP3    H220494   5.068   1.746   2.074  0.8008  1.8428  0.8196
 6844TIP3   OH220495   3.411   3.819   4.059  0.1578  0.0269 -0.0045
 6844TIP3    H120496   3.494   3.812   4.013 -0.3862 -2.6079 -0.7086
 6844TIP3    H220497   3.353   3.864   3.997  0.0380 -1.5615 -1.1007
 6845TIP3   OH220498   1.007   0.874   5.489 -0.2744  0.2644 -0.0636
 6845TIP3    H120499   0.990   0.962   5.453  0.8442  0.6170  0.2421
 6845TIP3    H220500   1.066   0.889   5.562  0.3396 -0.8030 -0.3230
 6846TIP3   OH220501   1.215   4.981   0.458 -0.0449 -0.3324  0.3908
 6846TIP3    H120502   1.278   4.916   0.427  0.2953 -0.0773  0.5383
 6846TIP3    H220503   1.242   4.999   0.548  1.6804  2.1528 -0.5191
 6847TIP3   OH220504   1.813   3.258   3.128 -0.4878  0.0320  0.5203
 6847TIP3    H120505   1.871   3.307   3.186  1.3893 -0.8829 -0.4705
 6847TIP3    H220506   1.783   3.184   3.181 -1.4011  0.9118  1.2738
 6848TIP3   OH220507   1.263   0.465   5.674  0.0156  0.0604 -0.7615
 6848TIP3    H120508   1.231   0.488   5.586  0.1497 -0.3756 -0.9281
 6848TIP3    H220509   1.193   0.413   5.712  0.6335 -1.1649 -1.2471
 6849TIP3   OH220510   6.540   5.806   1.428 -0.4372 -0.0499 -0.0006
 6849TIP3    H120511   6.530   5.717   1.463 -0.0959  0.1526  0.6397
 6849TIP3    H220512   6.456   5.849   1.448 -1.4171 -0.8259 -2.1877
 6850TIP3   OH220513   3.064   1.699   1.477 -0.3203  0.7042 -0.6646
 6850TIP3    H120514   3.155   1.682   1.453 -0.3006  0.2337 -0.2717
 6850TIP3    H220515   3.034   1.766   1.415  0.9978  2.6289  0.6503
 6851TIP3   OH220516   0.792   3.293   0.829 -0.3784  0.3501 -0.7908
 6851TIP3    H120517   0.771   3.297   0.923  2.0287  1.9350 -0.2407
 6851TIP3    H220518   0.832   3.207   0.817  0.3940  0.5967 -0.0774
 6852TIP3   OH220519   1.386   2.952   1.549 -0.3212  0.2895  0.2766
 6852TIP3    H120520   1.395   3.044   1.574 -0.8496  0.7640 -1.1736
 6852TIP3    H220521   1.291   2.939   1.540 -0.1778  0.8702 -3.7446
 6853TIP3   OH220522   1.089   1.350   5.114  0.3526 -0.3079  0.4274
 6853TIP3    H120523   1.105   1.293   5.038  3.6893  0.9759  0.0254
 6853TIP3    H220524   1.051   1.430   5.076  1.3082  0.0392  0.1886
 6854TIP3   OH220525   6.766   0.283   4.390  0.0179  0.0587  0.0765
 6854TIP3    H120526   6.802   0.363   4.351  1.6870 -0.0737  1.2493
 6854TIP3    H220527   6.804   0.280   4.478 -1.8693 -0.8184  0.9186
 6855TIP3   OH220528   3.186  -0.008   1.672  0.3495 -0.0254 -0.0607
 6855TIP3    H120529   3.281  -0.004   1.661  0.2532 -1.1415 -1.4556
 6855TIP3    H220530   3.154   0.074   1.634  0.6203 -0.5236 -1.3952
 6856TIP3   OH220531   4.781   4.490   4.323  0.5928  0.9744 -0.0627
 6856TIP3    H120532   4.774   4.428   4.396  0.0059  1.3744  0.2237
 6856TIP3    H220533   4.843   4.448   4.263 -0.3637 -0.2502 -0.2332
 6857TIP3   OH220534   4.686   2.736   3.723  0.2020  0.0339 -0.5055
 6857TIP3    H120535   4.757   2.797   3.745  1.5702 -1.3955 -0.7592
 6857TIP3    H220536   4.731   2.656   3.699 -1.5258 -0.7929 -1.1044
 6858TIP3   OH220537   0.195   4.509   1.573 -0.1155  0.0339 -0.1374
 6858TIP3    H120538   0.172   4.484   1.662 -0.5051  0.3878 -0.1312
 6858TIP3    H220539   0.240   4.593   1.582 -0.5337  0.2801 -0.3031
 6859TIP3   OH220540   7.037   2.838   0.380 -0.3077 -0.2744 -0.4160
 6859TIP3    H120541   6.957   2.791   0.355 -0.3681 -0.8557  0.8068
 6859TIP3    H220542   7.029   2.923   0.336 -1.0884 -0.7195 -1.1641
 6860TIP3   OH220543   0.374   0.740   4.417  0.3035 -0.2331  0.7250
 6860TIP3    H120544   0.280   0.726   4.426 -0.2312  1.0143 -1.9142
 6860TIP3    H220545   0.387   0.755   4.323  2.8178  1.9456  1.3118
 6861TIP3   OH220546   6.541   4.969   2.911  0.0622 -0.2830 -0.2587
 6861TIP3    H120547   6.578   5.016   2.985 -0.1533  0.1424 -0.4196
 6861TIP3    H220548   6.453   5.005   2.901 -0.8282 -2.0247  0.7943
 6862TIP3   OH220549   3.910   2.413   1.912  0.1297  0.3413  0.3955
 6862TIP3    H120550   3.942   2.473   1.979  1.8722 -0.8601  0.7133
 6862TIP3    H220551   3.989   2.383   1.867 -0.3776 -3.0850  1.4617
 6863TIP3   OH220552   4.011   6.575   2.801 -0.1992  0.1588  0.1222
 6863TIP3    H120553   3.949   6.610   2.736 -1.5651  0.4482  1.5334
 6863TIP3    H220554   4.065   6.650   2.825  0.6205 -0.0529 -0.9890
 6864TIP3   OH220555   1.826   6.619   3.677  0.1023 -0.0941  0.4322
 6864TIP3    H120556   1.813   6.706   3.640  0.6930 -0.5040 -0.8355
 6864TIP3    H220557   1.806   6.560   3.604 -0.7653 -1.0428  1.4088
 6865TIP3   OH220558   2.196   2.486   3.482 -0.7962  0.2469  0.1628
 6865TIP3    H120559   2.183   2.412   3.541 -2.2488 -0.2615 -0.7247
 6865TIP3    H220560   2.266   2.459   3.423  0.3911  0.6036  1.3731
 6866TIP3   OH220561   6.315   5.191   3.426 -0.6643  0.0484 -0.3194
 6866TIP3    H120562   6.373   5.196   3.350  0.9974  1.4841  0.9795
 6866TIP3    H220563   6.332   5.105   3.464  1.5961  0.8836  0.7231
 6867TIP3   OH220564   2.605   6.527   4.642  0.0404 -0.4971 -1.0032
 6867TIP3    H120565   2.682   6.558   4.689 -0.6633 -2.0194  1.3365
 6867TIP3    H220566   2.553   6.483   4.708 -3.2219  1.0396 -2.3097
 6868TIP3   OH220567   5.841   3.876   3.811 -0.1694  0.4039  0.0297
 6868TIP3    H120568   5.749   3.876   3.785 -0.1856  0.1321  0.0820
 6868TIP3    H220569   5.848   3.804   3.874 -0.6047  2.3418  2.4467
 6869TIP3   OH220570   0.991   2.640   1.237  0.4818  0.6352  0.9035
 6869TIP3    H120571   0.985   2.633   1.332  0.3558  2.3991  1.0581
 6869TIP3    H220572   0.972   2.732   1.218  2.3499  0.7671 -0.6838
 6870TIP3   OH220573   2.400   6.313   3.171  0.0504  0.1170 -0.0199
 6870TIP3    H120574   2.351   6.379   3.221  0.5119  0.4952 -0.0514
 6870TIP3    H220575   2.449   6.265   3.238 -1.4903 -1.2705  0.1761
 6871TIP3   OH220576   3.906   5.329   5.396 -0.1392 -0.6228  0.6665
 6871TIP3    H120577   3.919   5.263   5.464 -1.9601  0.2139  1.9026
 6871TIP3    H220578   3.850   5.395   5.437  1.2299  1.4781 -0.6683
 6872TIP3   OH220579   0.755   4.790   3.081  0.3615  0.3223 -0.1201
 6872TIP3    H120580   0.755   4.740   3.163  3.3663 -1.2182 -0.8816
 6872TIP3    H220581   0.809   4.737   3.022 -0.3206  2.1975 -2.5758
 6873TIP3   OH220582   4.677   6.794   4.497 -0.4125  0.6468  0.0274
 6873TIP3    H120583   4.617   6.752   4.436  0.4633 -0.8918  0.1722
 6873TIP3    H220584   4.627   6.801   4.579 -0.1937 -1.3483  0.3817
 6874TIP3   OH220585   3.480   1.268   4.225 -0.2114  0.2417  0.0632
 6874TIP3    H120586   3.459   1.253   4.132 -0.0862 -0.0065  0.0752
 6874TIP3    H220587   3.575   1.266   4.228 -0.1902  0.9683  0.0770
 6875TIP3   OH220588   0.758   2.971   2.660 -0.1736  0.5155  0.3734
 6875TIP3    H120589   0.677   2.950   2.707 -0.7470 -0.1230 -0.8597
 6875TIP3    H220590   0.828   2.942   2.718 -0.8865 -1.2474  0.4038
 6876TIP3   OH220591   5.011   4.552   1.298 -0.0307  0.2871 -0.0064
 6876TIP3    H120592   4.916   4.546   1.301 -0.0823  1.0306  0.1051
 6876TIP3    H220593   5.032   4.566   1.206  0.1377 -1.9838 -0.3826
 6877TIP3   OH220594   6.215   5.670   4.303  0.3173 -0.0239  0.1431
 6877TIP3    H120595   6.155   5.727   4.350  0.3785  0.9492 -0.9167
 6877TIP3    H220596   6.215   5.704   4.213  1.7951 -0.5324 -0.0753
 6878TIP3   OH220597   2.165   1.511   3.289  0.2170 -0.3911  0.1912
 6878TIP3    H120598   2.256   1.500   3.262  0.3906 -0.4653  0.7883
 6878TIP3    H220599   2.114   1.483   3.213  0.6855 -1.2470  0.1748
 6879TIP3   OH220600   4.587   0.232   5.081  0.1899  0.0074 -0.1824
 6879TIP3    H120601   4.541   0.300   5.130  0.9131  0.7023 -0.4454
 6879TIP3    H220602   4.518   0.175   5.048 -0.4060  0.4224  0.3319
 6880TIP3   OH220603   4.429   1.021   4.774  0.0556  0.4076 -0.3685
 6880TIP3    H120604   4.406   0.936   4.737 -0.9781  1.0668 -1.2812
 6880TIP3    H220605   4.386   1.085   4.717  2.1113  1.6232 -0.6476
 6881TIP3   OH220606   1.979   5.623   3.734 -0.1634  0.3325 -0.3232
 6881TIP3    H120607   2.065   5.662   3.724  0.7178 -1.4493 -0.1307
 6881TIP3    H220608   1.980   5.546   3.676 -0.0339 -2.0969  2.6177
 6882TIP3   OH220609   4.016   3.668   1.266  0.1573  0.2133 -0.4899
 6882TIP3    H120610   4.005   3.754   1.307  0.3852  0.9361 -1.8665
 6882TIP3    H220611   4.021   3.606   1.339  2.7037  1.6511  0.7053
 6883TIP3   OH220612   3.989   5.994   2.266 -0.1087 -0.2459  0.1417
 6883TIP3    H120613   3.905   6.039   2.257 -0.2261 -0.8232 -2.8544
 6883TIP3    H220614   4.054   6.065   2.265 -0.4625  0.0778 -0.2757
 6884TIP3   OH220615   2.177   0.155   3.335 -0.0013 -0.1092  0.1388
 6884TIP3    H120616   2.160   0.099   3.259  0.1281  1.4070 -1.0690
 6884TIP3    H220617   2.267   0.185   3.323 -0.4804  1.3726  0.0226
 6885TIP3   OH220618   0.629   0.856   0.692  0.4096 -0.2396 -1.2447
 6885TIP3    H120619   0.589   0.793   0.633  2.2567 -2.2889 -0.4362
 6885TIP3    H220620   0.664   0.803   0.764 -0.5009  1.9888  1.0093
 6886TIP3   OH220621   2.081   1.375   5.156 -0.1955 -0.5585  0.4388
 6886TIP3    H120622   2.124   1.434   5.094 -2.2551  0.0560 -0.4958
 6886TIP3    H220623   2.017   1.327   5.103 -0.2390 -1.8853  1.6483
 6887TIP3   OH220624   4.194   0.312   2.241 -0.5321  0.1753  0.0598
 6887TIP3    H120625   4.165   0.241   2.300  0.3700  0.8146  1.3281
 6887TIP3    H220626   4.193   0.390   2.296  2.2320  0.4603 -0.1977
 6888TIP3   OH220627   2.400   4.680   5.767 -0.0964  0.5648  0.6374
 6888TIP3    H120628   2.394   4.671   5.672 -2.4695  2.7502  0.4819
 6888TIP3    H220629   2.491   4.704   5.784  0.7474 -1.3474 -0.8672
 6889TIP3   OH220630   0.106   4.846   3.875  0.5356  0.1737  0.9608
 6889TIP3    H120631   0.142   4.761   3.849  0.2983  0.1898  0.5800
 6889TIP3    H220632   0.183   4.898   3.899  0.8499  0.4705 -0.6235
 6890TIP3   OH220633   6.538   0.820   4.776 -0.1642 -0.5523 -0.4203
 6890TIP3    H120634   6.502   0.856   4.695  0.9729  1.3377 -0.1589
 6890TIP3    H220635   6.632   0.838   4.770 -0.3331  2.0623  2.3750
 6891TIP3   OH220636   3.027   2.562   1.192 -0.3419 -0.0956 -0.3029
 6891TIP3    H120637   2.957   2.501   1.167  0.0398 -1.0580  0.8742
 6891TIP3    H220638   2.995   2.605   1.271  0.4326 -0.6280  0.3114
 6892TIP3   OH220639   0.485   3.135   2.851 -0.6458  0.0448 -0.1150
 6892TIP3    H120640   0.569   3.099   2.879 -0.6678 -0.2255 -0.3982
 6892TIP3    H220641   0.484   3.224   2.887 -0.8197 -0.4100  1.0508
 6893TIP3   OH220642   0.433   2.013   0.738  0.4607 -0.4437 -0.3702
 6893TIP3    H120643   0.486   1.950   0.689 -1.5570 -1.0827 -1.8924
 6893TIP3    H220644   0.347   1.971   0.746 -0.2296  1.0775  0.8210
 6894TIP3   OH220645   0.134   3.515   4.339 -0.6691 -0.0963  0.4052
 6894TIP3    H120646   0.222   3.536   4.306 -0.5403 -0.2324  0.6574
 6894TIP3    H220647   0.112   3.588   4.396 -1.6291  1.0301 -1.3384
 6895TIP3   OH220648   3.587   2.922   3.152  0.6130 -0.3487  0.0472
 6895TIP3    H120649   3.537   2.902   3.073  2.0555  1.3076 -1.3550
 6895TIP3    H220650   3.556   2.858   3.217 -1.9816 -0.5211 -1.2477
 6896TIP3   OH220651   6.163   2.235   5.811 -0.1209 -0.0748  0.0996
 6896TIP3    H120652   6.093   2.197   5.864 -0.0239 -1.7241 -0.8525
 6896TIP3    H220653   6.120   2.302   5.758 -1.2261 -1.6090 -1.0589
 6897TIP3   OH220654   5.500   4.310   2.635 -0.3589 -0.1488 -0.1832
 6897TIP3    H120655   5.524   4.380   2.696 -1.3994  1.0521 -1.0733
 6897TIP3    H220656   5.582   4.266   2.614  0.1673  0.1538  1.1838
 6898TIP3   OH220657   1.946   4.674   3.338  0.1092 -0.2016 -0.0023
 6898TIP3    H120658   1.882   4.744   3.348  0.3030  0.3057 -1.8778
 6898TIP3    H220659   2.030   4.719   3.338  0.2049 -0.3054 -1.8158
 6899TIP3   OH220660   1.544   5.981   3.831  0.4555 -0.0278  0.2931
 6899TIP3    H120661   1.468   5.922   3.837  1.0883 -1.0180 -0.9819
 6899TIP3    H220662   1.588   5.971   3.915 -0.5376  0.1656  0.8540
 6900TIP3   OH220663   6.567   1.315   1.018 -0.1627  0.3491 -0.4437
 6900TIP3    H120664   6.638   1.365   1.058  0.0019  0.7303 -1.2120
 6900TIP3    H220665   6.609   1.264   0.949 -0.0778 -1.8853  1.1197
 6901TIP3   OH220666   2.192   2.621   4.998 -0.5608 -0.1521  0.6382
 6901TIP3    H120667   2.191   2.528   4.975  0.0239 -0.2369  0.9470
 6901TIP3    H220668   2.146   2.664   4.925 -0.7156 -0.6630  0.4279
 6902TIP3   OH220669   4.508   2.923   1.120 -0.1725  0.3321  0.1220
 6902TIP3    H120670   4.431   2.872   1.096  1.0003 -1.4756  0.0122
 6902TIP3    H220671   4.582   2.863   1.105  1.2767  2.0740 -0.0091
 6903TIP3   OH220672   2.902   2.233   2.265  0.1892 -0.1216  0.0196
 6903TIP3    H120673   2.936   2.250   2.177  3.1110  3.2451  1.5563
 6903TIP3    H220674   2.932   2.144   2.285  0.1740 -0.6393 -2.0180
 6904TIP3   OH220675   3.364   0.041   2.189 -0.5384 -0.1104  0.4668
 6904TIP3    H120676   3.358  -0.038   2.137  1.4253  0.1052 -0.1667
 6904TIP3    H220677   3.441   0.087   2.155 -0.0161  0.7327  2.6128
 6905TIP3   OH220678   1.561   3.353   4.261 -0.7002  0.7645  0.1113
 6905TIP3    H120679   1.596   3.397   4.339  0.1046  0.0732  0.1635
 6905TIP3    H220680   1.476   3.394   4.246 -0.6239  1.2894  1.0304
 6906TIP3   OH220681   0.997   4.756   1.913  0.4714  0.4242  0.1796
 6906TIP3    H120682   1.018   4.682   1.971 -1.2399 -0.6096 -0.4388
 6906TIP3    H220683   0.908   4.781   1.938  0.2755  0.9526 -0.9964
 6907TIP3   OH220684   0.567   4.362   0.164 -0.0517  0.1600  0.0529
 6907TIP3    H120685   0.540   4.421   0.235  4.2895  0.8701  1.4758
 6907TIP3    H220686   0.536   4.276   0.191 -0.1389  0.7193  1.9048
 6908TIP3   OH220687   1.527   4.988   3.003 -0.4693 -0.0208  0.2233
 6908TIP3    H120688   1.473   4.912   3.024 -1.3530  1.0306  2.0608
 6908TIP3    H220689   1.467   5.048   2.958  0.3307 -0.5422 -1.6078
 6909TIP3   OH220690   1.333   2.179   5.301  0.0261  0.0588 -0.3899
 6909TIP3    H120691   1.394   2.207   5.233  0.6063  1.3203  0.6081
 6909TIP3    H220692   1.387   2.170   5.379 -0.2193 -3.4175 -0.4567
 6910TIP3   OH220693   4.017   4.217   3.167 -0.4811 -0.3472  0.1563
 6910TIP3    H120694   3.990   4.302   3.200 -0.6479 -0.4906  0.3876
 6910TIP3    H220695   4.012   4.226   3.071  1.2137  0.4711  0.1059
 6911TIP3   OH220696   4.393   0.601   0.016  0.5029  0.2719  0.4228
 6911TIP3    H120697   4.441   0.650  -0.051  0.2674 -1.7727 -1.3720
 6911TIP3    H220698   4.461   0.568   0.075  0.9314  0.4663  0.0407
 6912TIP3   OH220699   5.295   6.289   2.072 -0.4983 -0.2735  0.6230
 6912TIP3    H120700   5.282   6.350   2.145  0.5691  0.6237  0.0961
 6912TIP3    H220701   5.236   6.216   2.091  0.8911 -0.8458  3.2121
 6913TIP3   OH220702   2.120   6.234   1.154  0.1485  0.4104  0.3062
 6913TIP3    H120703   2.205   6.203   1.188  0.2288  0.4885  0.1761
 6913TIP3    H220704   2.100   6.310   1.209 -0.0916  0.0789  0.6849
 6914TIP3   OH220705   4.203   0.251   3.736 -0.0499  0.3249  0.1273
 6914TIP3    H120706   4.179   0.317   3.672  0.4533  1.7066  1.3182
 6914TIP3    H220707   4.235   0.300   3.811  2.2184 -1.3007  0.3436
 6915TIP3   OH220708   3.174   3.700   3.785 -0.2386 -0.3696 -0.3162
 6915TIP3    H120709   3.250   3.755   3.764 -0.3095 -0.0879  0.1550
 6915TIP3    H220710   3.100   3.743   3.741 -0.1716 -0.4943 -0.5513
 6916TIP3   OH220711   0.821   5.150   2.959 -0.0859 -0.5469 -0.5224
 6916TIP3    H120712   0.764   5.197   2.898 -0.7497  0.7898  1.0550
 6916TIP3    H220713   0.907   5.190   2.947 -0.4038  0.3180  0.0161
 6917TIP3   OH220714   5.961   1.504   3.716 -0.2878  0.8248  0.2097
 6917TIP3    H120715   5.880   1.453   3.712  0.7806 -0.9218 -0.0923
 6917TIP3    H220716   5.942   1.574   3.779 -1.6620 -0.2079  1.0020
 6918TIP3   OH220717   4.692   0.794   2.976  0.1876 -0.5963  0.7876
 6918TIP3    H120718   4.660   0.876   3.013  0.4499 -0.0185 -0.2213
 6918TIP3    H220719   4.787   0.796   2.989  0.3326 -0.1990 -0.2456
 6919TIP3   OH220720   4.291   4.861   1.576 -0.2613 -0.6036 -0.6090
 6919TIP3    H120721   4.212   4.884   1.624 -0.7416 -3.3906  0.1181
 6919TIP3    H220722   4.275   4.894   1.487 -1.0236  1.2401  0.1581
 6920TIP3   OH220723   0.767   2.119   1.187  0.4167 -1.0510  0.0936
 6920TIP3    H120724   0.732   2.209   1.181  1.2060 -0.7435  0.0604
 6920TIP3    H220725   0.732   2.086   1.270  0.6144 -0.5009  0.4016
 6921TIP3   OH220726   1.170   5.005   4.273 -0.0476 -0.5949 -0.0304
 6921TIP3    H120727   1.079   4.994   4.243 -0.2164 -2.4362  0.9789
 6921TIP3    H220728   1.161   5.033   4.364  0.4464  1.6930 -0.6357
 6922TIP3   OH220729   1.273   6.167   3.633 -0.1991 -0.3661  0.0901
 6922TIP3    H120730   1.302   6.076   3.626 -0.5739 -0.5352  0.6060
 6922TIP3    H220731   1.189   6.168   3.587 -0.7777 -0.5739  1.0990
 6923TIP3   OH220732   3.230   6.097   3.325  0.1308 -0.4900  0.2126
 6923TIP3    H120733   3.261   6.155   3.256  2.2883  0.1013  1.5901
 6923TIP3    H220734   3.259   6.010   3.298  0.6001 -0.3190  0.1610
 6924TIP3   OH220735   3.595   5.787   2.046 -0.0900  0.6275 -0.2383
 6924TIP3    H120736   3.552   5.702   2.035 -0.5036  0.5716  1.6088
 6924TIP3    H220737   3.528   5.851   2.022 -1.0397  0.5148  1.8870
 6925TIP3   OH220738   0.226   0.914   0.204 -0.4136 -0.4698  0.1755
 6925TIP3    H120739   0.153   0.965   0.238 -0.0613  0.1677 -0.0053
 6925TIP3    H220740   0.304   0.965   0.226 -0.1946  0.2835 -2.0781
 6926TIP3   OH220741   6.923   2.128   3.424 -0.2687  0.1096 -0.3425
 6926TIP3    H120742   6.933   2.043   3.381 -1.0981  1.0243 -2.4812
 6926TIP3    H220743   6.855   2.114   3.490  1.9635 -1.6569  1.7852
 6927TIP3   OH220744   0.645   2.103   3.617  0.0087 -0.0647  0.1941
 6927TIP3    H120745   0.591   2.171   3.578  0.1013 -0.4887 -0.7232
 6927TIP3    H220746   0.700   2.148   3.681 -0.0948  0.6846 -0.2342
 6928TIP3   OH220747   2.758   0.466   1.589  0.1350  0.2730  0.4310
 6928TIP3    H120748   2.800   0.392   1.632  1.3813  1.0685  0.6501
 6928TIP3    H220749   2.807   0.478   1.507 -1.8916 -0.9140 -1.0594
 6929TIP3   OH220750   3.139   6.578   2.692 -0.2745  0.0635  0.1114
 6929TIP3    H120751   3.122   6.490   2.656  0.4700 -1.3349  2.8865
 6929TIP3    H220752   3.056   6.624   2.680 -0.9451 -1.2721 -0.7287
 6930TIP3   OH220753   0.033   0.468   3.590 -0.6774  0.5088 -0.0591
 6930TIP3    H120754  -0.040   0.431   3.640 -0.8477  0.5460 -0.2816
 6930TIP3    H220755   0.033   0.561   3.614  0.1994  0.2465  1.0605
 6931TIP3   OH220756   0.725   1.335   3.748  0.0738 -0.4354 -0.2038
 6931TIP3    H120757   0.818   1.358   3.744 -0.0554  0.0060 -0.8908
 6931TIP3    H220758   0.691   1.382   3.824  0.0123  0.9381 -1.0508
 6932TIP3   OH220759   1.530   0.234   2.347 -0.1637  0.3322 -0.0735
 6932TIP3    H120760   1.550   0.291   2.272 -0.4616  0.0422 -0.3749
 6932TIP3    H220761   1.526   0.294   2.422 -0.6273  0.7357 -0.4145
 6933TIP3   OH220762   5.029   3.642   1.394 -0.5907 -0.1394 -0.5844
 6933TIP3    H120763   4.960   3.677   1.337 -0.4471 -0.0689 -0.7155
 6933TIP3    H220764   4.984   3.578   1.449 -0.6021 -0.7476 -1.2728
 6934TIP3   OH220765   6.124   1.836   0.256  0.1300 -0.0964 -0.3911
 6934TIP3    H120766   6.181   1.773   0.299 -0.9440  0.5867  2.2022
 6934TIP3    H220767   6.180   1.911   0.237  0.8637 -0.8461 -1.2857
 6935TIP3   OH220768   6.606   3.503   3.683 -0.0134 -0.0372  0.1458
 6935TIP3    H120769   6.593   3.544   3.769  0.9352  1.4999 -0.4098
 6935TIP3    H220770   6.693   3.463   3.689 -0.7228 -1.5947  0.5070
 6936TIP3   OH220771   4.819   2.071   1.915  0.5494  0.1228 -0.0842
 6936TIP3    H120772   4.848   2.091   2.004  0.0579 -0.0089  0.1055
 6936TIP3    H220773   4.859   1.986   1.895 -3.0186 -2.2236  1.7642
 6937TIP3   OH220774   1.993   2.599   0.882 -0.5255  0.3144  0.8686
 6937TIP3    H120775   2.031   2.513   0.863 -1.0737 -0.1406  1.7817
 6937TIP3    H220776   1.975   2.597   0.976 -0.7769  1.3418  0.8518
 6938TIP3   OH220777   0.991   2.258   4.538 -0.0328  0.3081 -0.3061
 6938TIP3    H120778   1.081   2.285   4.524 -0.3500  0.5800 -2.1040
 6938TIP3    H220779   0.998   2.169   4.573  0.9338  0.8266  0.8711
 6939TIP3   OH220780   5.669   2.460   0.103  0.2540 -0.4497  0.0294
 6939TIP3    H120781   5.755   2.494   0.076 -0.1182 -0.8634 -1.8414
 6939TIP3    H220782   5.649   2.393   0.038 -1.5879 -0.1885  0.2870
 6940TIP3   OH220783   2.593   1.458   2.257  0.0339 -0.0211  0.0846
 6940TIP3    H120784   2.629   1.381   2.214  0.3865  0.2501 -0.1055
 6940TIP3    H220785   2.604   1.529   2.193  0.4055  0.3482  0.5504
 6941TIP3   OH220786   5.608   0.891   5.216  0.3048  0.8156 -0.0571
 6941TIP3    H120787   5.598   0.800   5.187 -0.6463  0.5938  0.8872
 6941TIP3    H220788   5.536   0.938   5.174  0.8487  1.1645 -0.6178
 6942TIP3   OH220789   2.129   5.349   1.151 -0.0243  0.4276  0.0083
 6942TIP3    H120790   2.179   5.313   1.224 -1.1637  0.0985  0.6548
 6942TIP3    H220791   2.039   5.356   1.184 -0.2461  1.9187 -0.7849
 6943TIP3   OH220792   2.931   2.738   1.401  0.1038 -0.0088  0.0462
 6943TIP3    H120793   3.015   2.778   1.424  0.2575  1.6679 -2.9002
 6943TIP3    H220794   2.867   2.807   1.417 -0.5494 -0.7920  0.8876
 6944TIP3   OH220795   2.331   4.287   4.390 -0.2313 -0.4096  0.3393
 6944TIP3    H120796   2.301   4.222   4.453  3.0377 -2.8336 -0.3567
 6944TIP3    H220797   2.364   4.360   4.444 -1.0208 -0.7059  1.2495
 6945TIP3   OH220798   0.170   4.391   1.860  0.1174  0.1487  0.4009
 6945TIP3    H120799   0.221   4.310   1.857  1.0382  0.7458 -1.4763
 6945TIP3    H220800   0.218   4.448   1.920 -0.6705 -0.7405  1.9298
 6946TIP3   OH220801   5.744   0.085   3.253 -0.4545 -0.6475  0.3602
 6946TIP3    H120802   5.785   0.116   3.334 -0.1807 -0.5786  0.1949
 6946TIP3    H220803   5.747  -0.011   3.260 -2.6358 -0.6814  1.5569
 6947TIP3   OH220804   0.576   2.886   4.695  0.0152 -0.2170 -0.4136
 6947TIP3    H120805   0.650   2.873   4.755 -0.2074 -0.3825 -0.1695
 6947TIP3    H220806   0.499   2.881   4.752 -0.1812 -0.0473 -0.6671
 6948TIP3   OH220807   0.284   4.157   0.863 -0.0501 -0.2918 -0.2970
 6948TIP3    H120808   0.232   4.082   0.835  0.9379 -0.6170 -1.3473
 6948TIP3    H220809   0.226   4.232   0.849 -0.2648 -0.6446 -1.4772
 6949TIP3   OH220810   2.191   6.289   3.484 -0.0070  0.2033  0.1240
 6949TIP3    H120811   2.188   6.258   3.393 -0.6775 -0.9197  0.5112
 6949TIP3    H220812   2.108   6.261   3.522 -0.7439  2.6472  0.5027
 6950TIP3   OH220813   5.979   5.556   1.961 -0.0086 -0.0792 -0.0707
 6950TIP3    H120814   5.979   5.652   1.962  0.4063 -0.0263  2.5777
 6950TIP3    H220815   5.929   5.531   2.038 -0.5340 -2.0389 -0.9833
 6951TIP3   OH220816   6.084   4.628   5.751 -0.2004  0.5716 -0.3803
 6951TIP3    H120817   6.074   4.674   5.835  0.6958  0.6162 -0.2857
 6951TIP3    H220818   6.068   4.536   5.773  0.3039  0.5470 -0.1000
 6952TIP3   OH220819   4.243   5.251   2.253 -0.1568  0.1317 -0.0527
 6952TIP3    H120820   4.265   5.329   2.203 -0.1265  0.3667  0.3306
 6952TIP3    H220821   4.166   5.215   2.208  0.0821  0.1471 -0.4777
 6953TIP3   OH220822   3.754   6.222   2.464 -0.0699 -0.2918 -0.3757
 6953TIP3    H120823   3.721   6.279   2.395  1.4505 -0.4090 -1.2498
 6953TIP3    H220824   3.719   6.135   2.443 -2.1250  0.1982  0.7781
 6954TIP3   OH220825   3.288   4.594   3.287 -0.1171  0.6440  0.1106
 6954TIP3    H120826   3.269   4.618   3.377  0.6356  1.2443  0.1247
 6954TIP3    H220827   3.263   4.672   3.236 -2.0661 -0.2571 -0.4076
 6955TIP3   OH220828   3.855   1.598   4.633 -0.1079 -0.1428 -0.0469
 6955TIP3    H120829   3.820   1.516   4.599 -2.1731  1.4442 -2.1135
 6955TIP3    H220830   3.830   1.598   4.726 -1.1137 -1.3323 -0.2816
 6956TIP3   OH220831   3.278   5.435   5.827  0.0112 -0.1178 -0.8142
 6956TIP3    H120832   3.267   5.428   5.922  0.1453 -0.4780 -0.8244
 6956TIP3    H220833   3.252   5.525   5.807 -1.3073 -0.4316 -0.6263
 6957TIP3   OH220834   3.021   5.819   2.825  0.0118  0.0663  0.1194
 6957TIP3    H120835   3.083   5.775   2.766 -0.1240  1.8835 -1.5103
 6957TIP3    H220836   3.076   5.878   2.877  0.0694 -1.1802  1.5223
 6958TIP3   OH220837   6.102   1.038   2.900  0.1279 -0.2984 -0.2933
 6958TIP3    H120838   6.189   1.002   2.913  0.1584 -0.5558 -1.1423
 6958TIP3    H220839   6.107   1.127   2.935  0.6255 -0.4388 -0.0021
 6959TIP3   OH220840   2.681   5.806   4.596  0.1309  0.3405 -0.1995
 6959TIP3    H120841   2.772   5.798   4.626 -0.1194 -0.7867  0.3189
 6959TIP3    H220842   2.632   5.746   4.653 -1.1370  1.8069  0.3318
 6960TIP3   OH220843   7.086   2.597   4.857  0.3217  0.3081 -0.5056
 6960TIP3    H120844   7.095   2.510   4.897  0.3761  0.2045 -0.7401
 6960TIP3    H220845   7.128   2.588   4.772  0.5997  0.6535 -0.4073
 6961TIP3   OH220846   3.975   1.033   4.125 -0.4196 -0.2925 -0.4881
 6961TIP3    H120847   4.015   1.110   4.165 -1.6472  0.0247  0.1891
 6961TIP3    H220848   3.980   1.050   4.031  2.5393 -1.0626 -0.5807
 6962TIP3   OH220849   6.443   5.849   3.261  0.9240 -0.0972  0.7349
 6962TIP3    H120850   6.499   5.772   3.256 -0.1462 -0.9505  1.3158
 6962TIP3    H220851   6.475   5.907   3.192 -0.0514 -2.3204 -1.7596
 6963TIP3   OH220852   3.126   6.299   5.247 -0.0767  0.4205  0.4156
 6963TIP3    H120853   3.176   6.258   5.176 -0.3033  1.0562 -0.1236
 6963TIP3    H220854   3.172   6.272   5.327  0.6154  0.2879 -0.0129
 6964TIP3   OH220855   0.997   1.473   5.648  0.3350  0.0471  0.1211
 6964TIP3    H120856   1.011   1.491   5.555 -1.6081  0.4908 -0.1247
 6964TIP3    H220857   1.050   1.395   5.665  0.7122 -0.0598 -1.3578
 6965TIP3   OH220858   5.360   5.269   0.190 -0.3308  0.2502  0.0965
 6965TIP3    H120859   5.268   5.256   0.214  0.2560 -0.6443  1.9950
 6965TIP3    H220860   5.362   5.356   0.150 -1.6078  1.3607  2.2826
 6966TIP3   OH220861   5.205   2.516   1.171  0.4911 -0.2287 -0.5519
 6966TIP3    H120862   5.262   2.471   1.108 -0.1693  0.2652 -1.5214
 6966TIP3    H220863   5.140   2.450   1.196  0.9439 -0.5218 -0.1264
 6967TIP3   OH220864   4.183   0.115   4.333 -0.3489  0.4460 -0.5845
 6967TIP3    H120865   4.222   0.031   4.356  0.0120  0.3528 -1.4517
 6967TIP3    H220866   4.160   0.156   4.416 -1.0078 -0.7287 -0.1795
 6968TIP3   OH220867   6.734   0.030   3.348  0.3557 -0.7562 -0.1621
 6968TIP3    H120868   6.718   0.094   3.418 -0.6203 -0.8112 -0.3185
 6968TIP3    H220869   6.649  -0.011   3.334  0.6072 -0.9352 -1.1986
 6969TIP3   OH220870   6.078   1.956   1.650 -0.0957  0.1637 -0.7036
 6969TIP3    H120871   5.985   1.939   1.634  0.1119 -1.9686 -0.0480
 6969TIP3    H220872   6.121   1.932   1.568  0.0457 -1.1567 -0.2801
 6970TIP3   OH220873   1.939   0.298   3.330 -0.0923  0.1750 -0.0313
 6970TIP3    H120874   2.010   0.235   3.329 -0.7871 -0.6192 -0.1060
 6970TIP3    H220875   1.977   0.377   3.369  2.3904  1.6619 -4.6163
 6971TIP3   OH220876   1.402   0.357   0.350 -0.5599 -0.0780 -0.2381
 6971TIP3    H120877   1.419   0.451   0.349 -0.6732 -0.0563 -0.8045
 6971TIP3    H220878   1.487   0.318   0.371 -0.9051  0.2000  1.9240
 6972TIP3   OH220879   1.759   4.936   5.842 -0.4406  0.2009 -0.2504
 6972TIP3    H120880   1.837   4.990   5.847  0.5941 -1.3195  0.5401
 6972TIP3    H220881   1.762   4.897   5.754  0.2396 -0.5999  0.1087
 6973TIP3   OH220882   0.168   0.665   1.068  0.3773  0.5558 -0.2443
 6973TIP3    H120883   0.101   0.731   1.055  0.3939  0.8069  0.8517
 6973TIP3    H220884   0.211   0.689   1.151  1.4707  0.1101 -0.6517
 6974TIP3   OH220885   0.139   1.629   1.833 -0.1835 -0.1326  0.3019
 6974TIP3    H120886   0.075   1.692   1.866 -0.0126 -0.9454  2.3138
 6974TIP3    H220887   0.087   1.564   1.786 -0.6044  0.2611  0.2195
 6975TIP3   OH220888   0.990   4.333   4.643  0.4009  0.4544  0.2451
 6975TIP3    H120889   1.028   4.380   4.568  1.4143  0.5857  0.8182
 6975TIP3    H220890   1.009   4.389   4.718 -1.6234  0.8939  0.4852
 6976TIP3   OH220891   4.140   2.347   1.761  0.4708 -0.0146 -0.2264
 6976TIP3    H120892   4.143   2.393   1.676  0.7205 -0.7320 -0.6130
 6976TIP3    H220893   4.229   2.313   1.772  0.3989 -0.0519  0.2626
 6977TIP3   OH220894   6.798   1.283   3.563 -0.1066  0.3081  0.1009
 6977TIP3    H120895   6.705   1.306   3.560 -0.1373  0.1620 -0.0545
 6977TIP3    H220896   6.806   1.206   3.506 -0.1670 -0.6074  1.2733
 6978TIP3   OH220897   5.446   0.278   3.793  0.1428  0.2721 -0.1429
 6978TIP3    H120898   5.392   0.204   3.766  0.7066 -0.6251  1.0846
 6978TIP3    H220899   5.399   0.316   3.868 -0.6413  1.7901 -1.3640
 6979TIP3   OH220900   1.255   3.052   0.287  0.0299 -0.1194 -0.0506
 6979TIP3    H120901   1.316   3.124   0.272  0.7355 -0.9122 -1.1317
 6979TIP3    H220902   1.259   3.037   0.381  0.5040  0.6944  0.0729
 6980TIP3   OH220903   0.448   0.828   5.624 -0.1193 -0.0755  0.1490
 6980TIP3    H120904   0.489   0.854   5.706  0.3688 -0.5161  0.0451
 6980TIP3    H220905   0.519   0.791   5.572 -0.4692  0.0032 -0.3883
 6981TIP3   OH220906   3.421   4.634   5.747  0.1724  0.3059 -0.2610
 6981TIP3    H120907   3.501   4.582   5.760 -0.3294 -0.5776 -0.6354
 6981TIP3    H220908   3.385   4.602   5.664 -2.5954 -2.1106  1.6507
 6982TIP3   OH220909   3.024   4.221   4.394  0.2444  0.2841  0.0868
 6982TIP3    H120910   2.985   4.302   4.362  0.0901 -0.0679 -0.6157
 6982TIP3    H220911   3.025   4.162   4.319  0.0616 -0.4828  0.6647
 6983TIP3   OH220912   5.547   3.992   3.960 -0.1292  0.4384  0.0012
 6983TIP3    H120913   5.584   4.072   3.923  1.9604 -0.0815  0.7624
 6983TIP3    H220914   5.548   3.928   3.888  0.0278  0.5687 -0.1117
 6984TIP3   OH220915   2.580   0.527   2.065 -0.8377 -0.1718 -0.4266
 6984TIP3    H120916   2.597   0.438   2.035  0.4528 -0.2217  0.3785
 6984TIP3    H220917   2.667   0.567   2.069 -1.4758  1.5090 -1.9031
 6985TIP3   OH220918   6.358   2.923   2.305 -0.1327  0.1052  0.3172
 6985TIP3    H120919   6.446   2.915   2.268  0.0928  0.5988  0.7444
 6985TIP3    H220920   6.313   2.844   2.276  1.0354 -1.1339  1.7368
 6986TIP3   OH220921   0.959   2.513   2.573 -0.1665  0.1599 -0.1793
 6986TIP3    H120922   1.003   2.454   2.635  1.1989  1.8910  0.5607
 6986TIP3    H220923   0.893   2.557   2.625  0.3571  0.9421 -0.1702
 6987TIP3   OH220924   1.857   3.482   1.045  0.4524  0.7115  0.0720
 6987TIP3    H120925   1.928   3.456   0.987  0.0343  0.3282 -0.2830
 6987TIP3    H220926   1.800   3.536   0.991  1.2833  2.3869  0.7919
 6988TIP3   OH220927   6.629   1.256   1.641 -0.0762 -0.3948 -0.4276
 6988TIP3    H120928   6.624   1.270   1.547  0.1272 -0.1356 -0.4007
 6988TIP3    H220929   6.722   1.249   1.660 -0.1081 -0.2857 -0.2245
 6989TIP3   OH220930   2.489   0.474   0.871 -0.4580 -0.0194  0.0499
 6989TIP3    H120931   2.493   0.514   0.958 -1.3599 -0.3941  0.2671
 6989TIP3    H220932   2.519   0.384   0.884 -1.2769 -0.2922  0.1176
 6990TIP3   OH220933   5.282   3.614   0.475 -0.6127 -0.7647 -0.1580
 6990TIP3    H120934   5.191   3.631   0.453 -0.7429 -0.0899  0.8576
 6990TIP3    H220935   5.299   3.526   0.442 -2.4545 -2.0722  2.0971
 6991TIP3   OH220936   5.946   3.900   4.450  0.0162  0.3280 -0.0249
 6991TIP3    H120937   6.022   3.908   4.393  0.7856 -1.5339  0.6519
 6991TIP3    H220938   5.965   3.957   4.524  0.8925 -0.2923  0.2471
 6992TIP3   OH220939   1.595   0.986   2.679 -0.1918 -0.2604  0.1916
 6992TIP3    H120940   1.556   1.039   2.749  0.5282  1.5153 -0.6894
 6992TIP3    H220941   1.676   1.032   2.657  1.3272 -2.6437  0.4743
 6993TIP3   OH220942   2.596   1.364   4.459 -0.0342  0.1452  0.3657
 6993TIP3    H120943   2.627   1.315   4.535  0.4142  0.0309  0.1100
 6993TIP3    H220944   2.673   1.409   4.426 -0.4305  1.0227  0.5851
 6994TIP3   OH220945   6.411   6.466   5.358 -0.1854 -0.1136  0.0833
 6994TIP3    H120946   6.377   6.420   5.281 -2.1325  1.2177  0.0483
 6994TIP3    H220947   6.413   6.400   5.427 -1.2542 -0.6695 -0.3883
 6995TIP3   OH220948   2.346   5.050   0.173  0.1443  0.3223  0.2243
 6995TIP3    H120949   2.252   5.069   0.174  0.3036  1.2108 -0.2682
 6995TIP3    H220950   2.365   5.017   0.260 -0.0251  3.2755  1.4685
 6996TIP3   OH220951   0.397   6.243   2.628 -0.2147 -0.4261 -0.0338
 6996TIP3    H120952   0.352   6.262   2.546 -0.6958 -2.1770 -0.2322
 6996TIP3    H220953   0.450   6.166   2.608  1.9796  0.8641  0.5315
 6997TIP3   OH220954   6.967   0.711   5.202 -0.1522 -0.1255 -0.4700
 6997TIP3    H120955   6.901   0.644   5.217 -1.2658  0.8503 -0.8242
 6997TIP3    H220956   6.932   0.789   5.245  0.8435  0.3674 -0.5330
 6998TIP3   OH220957   3.658   5.851   5.216 -0.5437 -0.0759 -0.0722
 6998TIP3    H120958   3.680   5.775   5.271  0.2186  1.9316  2.6352
 6998TIP3    H220959   3.742   5.878   5.179 -0.5234  0.3992  0.3162
 6999TIP3   OH220960   2.682   3.802   3.024  0.5662  0.1017  0.3397
 6999TIP3    H120961   2.668   3.776   2.932  2.4364 -0.5749  0.2120
 6999TIP3    H220962   2.696   3.719   3.070 -0.3588  0.4404  1.2648
 7000TIP3   OH220963   6.687   1.872   4.567  0.2251 -0.4124 -0.0606
 7000TIP3    H120964   6.623   1.801   4.572  0.6403 -0.7570  0.4964
 7000TIP3    H220965   6.638   1.947   4.534 -1.1741  0.0981  2.7999
 7001TIP3   OH220966   2.839   4.655   1.883  0.4776 -0.4427  0.5500
 7001TIP3    H120967   2.816   4.645   1.790  0.6194  0.5408  0.4015
 7001TIP3    H220968   2.869   4.568   1.910 -0.7474 -1.0630  0.0065
 7002TIP3   OH220969   0.733   1.700   3.925 -0.6130 -0.3080 -0.4043
 7002TIP3    H120970   0.679   1.623   3.942  1.9675 -2.6112 -1.9226
 7002TIP3    H220971   0.763   1.690   3.835  1.8055  1.1082  0.1335
 7003TIP3   OH220972   0.585   5.069   5.820 -0.3993 -0.1735 -0.7377
 7003TIP3    H120973   0.520   5.120   5.771 -0.1926  1.0987  0.2614
 7003TIP3    H220974   0.581   4.982   5.781 -2.8109 -0.1779 -0.6136
 7004TIP3   OH220975   5.582   2.033   0.311  0.2864 -0.1564 -0.4695
 7004TIP3    H120976   5.624   1.970   0.369 -0.2715 -0.3146 -0.2321
 7004TIP3    H220977   5.532   1.980   0.249  0.1779  0.0391 -0.5519
 7005TIP3   OH220978   0.738   0.237   0.506  0.2898 -0.3554  0.2423
 7005TIP3    H120979   0.715   0.251   0.414  0.0857 -0.6961  0.2391
 7005TIP3    H220980   0.801   0.166   0.504 -0.3085 -0.8959  0.4268
 7006TIP3   OH220981   4.209   0.348   4.150 -0.2177  0.1032  0.2313
 7006TIP3    H120982   4.121   0.385   4.153 -0.3504 -0.2572  1.0130
 7006TIP3    H220983   4.202   0.263   4.194  0.9444  0.9996  2.3169
 7007TIP3   OH220984   5.187   2.092   5.484 -0.0411  0.7607 -0.0186
 7007TIP3    H120985   5.145   2.105   5.570 -0.1993 -0.3591  0.0984
 7007TIP3    H220986   5.280   2.107   5.500  0.3864 -2.3368  1.1120
 7008TIP3   OH220987   5.986   2.653   3.118  0.1292  0.6778  0.4094
 7008TIP3    H120988   5.981   2.564   3.155  0.6143  0.3528 -0.2939
 7008TIP3    H220989   5.943   2.708   3.184 -3.2322 -0.5048 -0.5991
 7009TIP3   OH220990   4.621   1.617   3.414 -0.2592  1.1550 -0.7590
 7009TIP3    H120991   4.596   1.669   3.338  0.0339  1.0604 -0.9193
 7009TIP3    H220992   4.574   1.534   3.403 -0.2617  1.1631 -0.8089
 7010TIP3   OH220993   2.640   0.912   5.132 -0.0792  0.3721 -0.5506
 7010TIP3    H120994   2.584   0.834   5.125  1.0187 -0.6809  1.4828
 7010TIP3    H220995   2.729   0.879   5.125  0.4569  1.2269  1.5184
 7011TIP3   OH220996   0.731   5.604   2.286 -0.3501 -0.1201  0.2460
 7011TIP3    H120997   0.688   5.579   2.204 -0.0114  1.6997 -0.5386
 7011TIP3    H220998   0.821   5.624   2.260  0.3155 -1.3737  1.4279
 7012TIP3   OH220999   2.899   0.925   1.061 -0.1954  0.1112 -0.0029
 7012TIP3    H121000   2.856   0.843   1.085  0.4608  0.3582  2.2069
 7012TIP3    H221001   2.853   0.992   1.112  1.0631  0.7313  0.3562
 7013TIP3   OH221002   2.269   2.360   4.957  0.0070 -0.1625  0.4900
 7013TIP3    H121003   2.358   2.358   4.923  1.0175  0.7263  2.8934
 7013TIP3    H221004   2.215   2.332   4.883  2.3051 -1.4315 -0.8211
 7014TIP3   OH221005   1.639   1.639   2.369  0.2677 -0.3462  0.1756
 7014TIP3    H121006   1.562   1.678   2.410  0.4095 -0.3586  0.4582
 7014TIP3    H221007   1.691   1.714   2.339  0.3849 -0.3214  0.4322
 7015TIP3   OH221008   5.958   1.161   4.239  0.1230 -0.2781 -0.1123
 7015TIP3    H121009   6.014   1.106   4.294 -0.8462 -1.0467  0.1468
 7015TIP3    H221010   5.973   1.128   4.150  0.2734 -0.3140 -0.0737
 7016TIP3   OH221011   5.207   4.535   4.857  0.1578 -0.3339  0.2345
 7016TIP3    H121012   5.193   4.619   4.812 -2.6855 -0.5683  0.5080
 7016TIP3    H221013   5.250   4.480   4.791 -0.1253  0.5973 -0.7645
 7017TIP3   OH221014   5.983   0.067   0.438 -0.0238 -0.3623 -0.6626
 7017TIP3    H121015   5.940   0.115   0.509 -0.6615 -1.3564 -0.3616
 7017TIP3    H221016   5.928   0.084   0.361  1.7192  2.3435 -1.4699
 7018TIP3   OH221017   2.718   4.415   4.676  0.3123  0.6041 -0.3021
 7018TIP3    H121018   2.789   4.462   4.633 -0.9622  1.5750 -1.4557
 7018TIP3    H221019   2.657   4.485   4.703 -2.1817 -0.2989 -3.0168
 7019TIP3   OH221020   3.642   0.910   1.920  0.7244 -0.0508 -0.5329
 7019TIP3    H121021   3.555   0.888   1.952  0.4459  2.0773  0.3321
 7019TIP3    H221022   3.695   0.832   1.939 -0.2073 -0.1356  2.1220
 7020TIP3   OH221023   0.714   6.688   5.133 -0.1887  0.6812  0.1842
 7020TIP3    H121024   0.698   6.642   5.050  2.4873 -0.4162  0.1969
 7020TIP3    H221025   0.759   6.768   5.107 -3.2494  2.6110  0.3192
 7021TIP3   OH221026   3.195   2.720   1.764  0.1755  0.3880 -0.5115
 7021TIP3    H121027   3.154   2.648   1.812 -1.6984  0.4965 -1.8239
 7021TIP3    H221028   3.183   2.797   1.820  2.5953 -0.3071  1.1053
 7022TIP3   OH221029   5.587   4.001   4.259 -0.1650 -0.3309  0.1274
 7022TIP3    H121030   5.557   3.968   4.174 -0.1636  0.8029 -0.3293
 7022TIP3    H221031   5.517   4.060   4.288 -0.7007 -1.5663  1.4720
 7023TIP3   OH221032   0.548   5.050   5.260  0.0943 -0.3884  0.3988
 7023TIP3    H121033   0.580   5.108   5.329  0.0163 -0.5710  0.5902
 7023TIP3    H221034   0.490   4.988   5.306  0.2341 -0.6619  0.2082
 7024TIP3   OH221035   0.522   4.694   4.362  0.1407 -0.2481 -0.1152
 7024TIP3    H121036   0.516   4.602   4.336  0.4882 -0.5053  0.6807
 7024TIP3    H221037   0.601   4.698   4.415  0.1352  0.5220 -0.1625
 7025TIP3   OH221038   1.574   5.417   0.791  0.0676  0.2352  0.0081
 7025TIP3    H121039   1.498   5.447   0.741  0.7087  0.4305 -0.8799
 7025TIP3    H221040   1.647   5.421   0.728  0.4886 -1.5953  0.3202
 7026TIP3   OH221041   6.477   4.948   4.112 -0.3676  0.1984  0.5944
 7026TIP3    H121042   6.408   4.891   4.147 -0.1553 -0.5508 -0.1542
 7026TIP3    H221043   6.555   4.926   4.164 -0.6161  0.8353  1.2472
 7027TIP3   OH221044   0.081   1.977   2.458 -0.6898 -0.1690 -0.1960
 7027TIP3    H121045   0.036   1.956   2.539 -0.1163 -0.8552 -0.0404
 7027TIP3    H221046   0.161   2.022   2.485 -1.2222  0.9727 -0.4650
 7028TIP3   OH221047   6.155   3.048   1.151  0.2679  0.7026 -0.5531
 7028TIP3    H121048   6.159   3.081   1.061 -1.0383 -2.3097 -1.8404
 7028TIP3    H221049   6.231   3.087   1.194  0.3132  3.1256 -2.5912
 7029TIP3   OH221050   3.487   1.616   4.843  0.1953  0.1176 -0.2675
 7029TIP3    H121051   3.454   1.705   4.831 -1.2583 -0.2832  0.5006
 7029TIP3    H221052   3.431   1.579   4.912 -0.7284 -2.1343 -2.1078
 7030TIP3   OH221053   3.119   4.280   3.185  0.2705  0.8432  0.5752
 7030TIP3    H121054   3.138   4.327   3.103  1.0479  0.3670  0.4672
 7030TIP3    H221055   3.206   4.261   3.222 -0.0269 -0.3845  0.6784
 7031TIP3   OH221056   5.420   3.646   0.879  0.0368 -0.1600  0.3097
 7031TIP3    H121057   5.369   3.663   0.958  1.3034  2.5426  0.6577
 7031TIP3    H221058   5.464   3.729   0.861  1.2736 -1.2638 -2.1659
 7032TIP3   OH221059   0.492   2.328   5.576 -0.1490  0.6880  0.2399
 7032TIP3    H121060   0.530   2.374   5.502 -0.7262 -0.6823 -0.9652
 7032TIP3    H221061   0.485   2.237   5.547  1.9576 -0.4447  2.9100
 7033TIP3   OH221062   4.750   4.039   5.187  0.0975  0.1226  0.5570
 7033TIP3    H121063   4.739   4.060   5.279 -0.9778  1.6251  0.1147
 7033TIP3    H221064   4.820   4.097   5.156 -0.4728  0.5844  0.1208
 7034TIP3   OH221065   2.100   2.913   1.988 -0.4121 -0.3431  0.6342
 7034TIP3    H121066   2.024   2.970   1.976  0.4054  0.7282  0.3949
 7034TIP3    H221067   2.175   2.973   1.988  0.3944 -1.3242  1.4011
 7035TIP3   OH221068   0.987   1.251   1.476 -0.0301 -0.0534 -0.3452
 7035TIP3    H121069   0.970   1.340   1.504 -2.1039 -0.2193 -0.9468
 7035TIP3    H221070   0.998   1.202   1.557  2.3125  0.9044 -0.0182
 7036TIP3   OH221071   1.424   6.525   4.711 -0.4361  0.0519 -0.1018
 7036TIP3    H121072   1.391   6.549   4.624 -0.5751  0.4840  0.0657
 7036TIP3    H221073   1.399   6.599   4.766 -1.8105 -0.9458  0.6604
 7037TIP3   OH221074   1.558   4.320   1.521 -0.2278 -0.1093 -0.5558
 7037TIP3    H121075   1.557   4.321   1.426 -1.4796 -0.0319 -0.5566
 7037TIP3    H221076   1.642   4.359   1.545 -0.0610  0.2061 -1.6172
 7038TIP3   OH221077   3.668   0.298   2.812 -0.2950 -0.2167  0.3231
 7038TIP3    H121078   3.676   0.215   2.858  1.2562 -0.2750  0.0154
 7038TIP3    H221079   3.642   0.274   2.723  2.4183 -0.6629 -0.4635
 7039TIP3   OH221080   4.608   0.915   2.572  0.1752 -0.1999  0.0073
 7039TIP3    H121081   4.519   0.908   2.607 -0.2300  1.0506 -0.7105
 7039TIP3    H221082   4.609   0.856   2.497 -0.6293  1.0298 -1.0290
 7040TIP3   OH221083   0.154   4.718   5.720 -0.6796  0.8860 -0.0800
 7040TIP3    H121084   0.207   4.655   5.768  0.1671  1.1598 -0.6255
 7040TIP3    H221085   0.063   4.692   5.737 -0.3746  0.3799  0.8302
 7041TIP3   OH221086   5.272   0.957   2.603  0.1567  0.3550 -0.2910
 7041TIP3    H121087   5.294   0.874   2.560  0.3597  1.2993 -2.1180
 7041TIP3    H221088   5.315   0.951   2.688  1.8147 -0.6457 -1.1271
 7042TIP3   OH221089   3.665   4.086   5.072 -0.5219 -0.3274  0.1804
 7042TIP3    H121090   3.691   4.005   5.116  0.3744 -0.9169 -1.3434
 7042TIP3    H221091   3.613   4.056   4.997  0.3220  0.4499 -0.7441
 7043TIP3   OH221092   6.862   1.318   4.179 -0.2796 -0.0803 -0.2395
 7043TIP3    H121093   6.849   1.229   4.212 -1.3212  0.6751  1.5310
 7043TIP3    H221094   6.957   1.329   4.177 -0.1186 -1.3154 -0.8079
 7044TIP3   OH221095   2.253   2.442   4.663  0.1968 -0.3612 -0.3945
 7044TIP3    H121096   2.328   2.411   4.714 -0.4499 -0.2848  0.6200
 7044TIP3    H221097   2.185   2.377   4.678 -0.0213 -0.3090 -1.1238
 7045TIP3   OH221098   2.158   0.472   0.556 -0.5847  0.4030 -0.7108
 7045TIP3    H121099   2.199   0.418   0.623 -0.7666  0.5171 -0.5057
 7045TIP3    H221100   2.230   0.521   0.517 -0.1783 -1.0984 -1.9545
 7046TIP3   OH221101   3.431   4.323   4.778 -0.6748 -0.3463  0.4313
 7046TIP3    H121102   3.371   4.321   4.703  1.0084  0.8636 -1.0100
 7046TIP3    H221103   3.512   4.284   4.746  0.5322  1.4415  1.1788
 7047TIP3   OH221104   2.226   4.986   5.439 -0.2419  0.5994 -0.4611
 7047TIP3    H121105   2.195   4.898   5.417  0.6269  0.2094 -0.1816
 7047TIP3    H221106   2.274   5.015   5.361 -1.0125  1.0683 -0.7710
 7048TIP3   OH221107   4.112   1.586   4.011 -0.3403  0.0657  0.1578
 7048TIP3    H121108   4.080   1.654   4.070  0.9004  0.4309  0.4275
 7048TIP3    H221109   4.155   1.634   3.940 -1.0354 -0.3997 -0.6044
 7049TIP3   OH221110   5.832   6.719   3.191 -0.0309  0.4806 -0.0113
 7049TIP3    H121111   5.804   6.657   3.124  0.5130  0.5181 -0.2850
 7049TIP3    H221112   5.928   6.724   3.180 -0.0551  1.2922  0.0586
 7050TIP3   OH221113   0.561   6.143   4.865 -0.0360  0.5667 -0.4724
 7050TIP3    H121114   0.655   6.156   4.852  0.4932  0.3490  2.4249
 7050TIP3    H221115   0.538   6.202   4.937 -2.5560  1.8635 -2.1894
 7051TIP3   OH221116   2.336   1.727   2.052  1.3246  0.0586  0.8991
 7051TIP3    H121117   2.324   1.718   1.957  2.7375  1.7669  0.5061
 7051TIP3    H221118   2.429   1.709   2.066  0.9633 -1.0371  2.1258
 7052TIP3   OH221119   3.377   4.237   1.870  0.2205 -0.0592 -0.0510
 7052TIP3    H121120   3.357   4.148   1.901  0.4765 -0.6779 -1.5778
 7052TIP3    H221121   3.355   4.293   1.944 -2.9292 -1.0886 -0.0423
 7053TIP3   OH221122   2.709   6.433   2.440  0.1122  0.5867  0.2437
 7053TIP3    H121123   2.678   6.460   2.526  1.0307 -0.4325  0.9259
 7053TIP3    H221124   2.685   6.341   2.434  0.4543  0.5324 -0.3933
 7054TIP3   OH221125   5.196   3.170   4.489 -0.1929 -0.1122  0.4613
 7054TIP3    H121126   5.276   3.206   4.450 -0.2084  0.7654  1.2026
 7054TIP3    H221127   5.222   3.083   4.520  0.3484 -0.0265  0.2700
 7055TIP3   OH221128   4.762   6.325   4.594 -0.0264  0.6441 -0.0917
 7055TIP3    H121129   4.745   6.317   4.500  0.4455  0.0417 -0.1336
 7055TIP3    H221130   4.844   6.278   4.607 -0.1185  0.6780  0.6352
 7056TIP3   OH221131   1.322   5.009   4.005  0.4558  0.4724  0.1865
 7056TIP3    H121132   1.259   4.990   4.074  1.4982  0.4784  1.1780
 7056TIP3    H221133   1.271   5.051   3.936 -1.0430 -1.5950 -0.0512
 7057TIP3   OH221134   3.546   2.679   1.180 -0.1654 -0.0731 -0.0170
 7057TIP3    H121135   3.638   2.659   1.161  0.1805  2.2714 -1.0664
 7057TIP3    H221136   3.497   2.625   1.118  0.5297 -0.6065 -0.1145
 7058TIP3   OH221137   2.992   2.207   5.063 -0.2457 -0.1135 -0.0973
 7058TIP3    H121138   2.911   2.160   5.085  0.6091 -1.3033  0.6429
 7058TIP3    H221139   3.020   2.247   5.145  1.8915 -2.8954  0.6761
 7059TIP3   OH221140   4.236   2.676   0.774  0.4605  0.2528 -0.3239
 7059TIP3    H121141   4.234   2.757   0.723  1.3986 -0.1039 -0.9581
 7059TIP3    H221142   4.245   2.607   0.708  1.3400 -0.2426  0.2890
 7060TIP3   OH221143   4.323   0.467   5.479  0.4034  0.3187  0.2034
 7060TIP3    H121144   4.320   0.563   5.474  0.7682  0.3023 -0.3563
 7060TIP3    H221145   4.340   0.450   5.572 -2.1686  0.7141  0.8227
 7061TIP3   OH221146   2.344   1.478   2.968 -0.5460  0.8259  0.2706
 7061TIP3    H121147   2.398   1.508   3.040 -0.3163 -2.3692  1.5916
 7061TIP3    H221148   2.254   1.487   2.999 -0.6655  2.8906 -0.5626
 7062TIP3   OH221149   2.062   1.303   1.924 -0.6125 -0.0670  0.3733
 7062TIP3    H121150   2.103   1.325   1.841 -2.0264  0.7797 -0.1332
 7062TIP3    H221151   2.078   1.209   1.935  0.7911  0.0829 -0.1340
 7063TIP3   OH221152   4.918   1.916   5.755 -0.1916 -0.1071  0.1810
 7063TIP3    H121153   4.837   1.946   5.796 -1.6991 -0.4015 -2.3992
 7063TIP3    H221154   4.895   1.836   5.709  1.6261 -0.3517 -0.4110
 7064TIP3   OH221155   6.662   2.089   4.892 -0.6731  0.4568 -0.2020
 7064TIP3    H121156   6.708   2.123   4.815  1.3276 -0.1001  0.6620
 7064TIP3    H221157   6.620   2.008   4.861 -1.1496  1.0146 -1.0377
 7065TIP3   OH221158   0.183   5.458   5.796 -0.4143 -0.1697 -0.2215
 7065TIP3    H121159   0.094   5.434   5.820  0.1687 -4.3467 -1.3248
 7065TIP3    H221160   0.236   5.383   5.824  2.5618  1.5389 -0.8088
 7066TIP3   OH221161   3.630   6.026   1.731  0.5872 -0.3885  0.2661
 7066TIP3    H121162   3.568   5.957   1.753 -0.7636  0.1717 -1.5784
 7066TIP3    H221163   3.627   6.032   1.635  3.3872 -0.2172  0.0947
 7067TIP3   OH221164   0.261   1.021   4.848 -0.5220  0.3528 -0.3562
 7067TIP3    H121165   0.239   1.055   4.935 -1.7698 -2.4327  0.5343
 7067TIP3    H221166   0.353   0.995   4.855 -0.4332  0.7317 -0.0814
 7068TIP3   OH221167   7.135   6.308   1.135  0.3281 -0.2076  0.1373
 7068TIP3    H121168   7.171   6.396   1.122 -0.5082 -0.0118 -0.9801
 7068TIP3    H221169   7.049   6.323   1.174  0.4565 -0.5634  0.5636
 7069TIP3   OH221170   1.024   5.575   0.548  0.3271 -0.6327 -0.1315
 7069TIP3    H121171   1.099   5.602   0.601  0.5925  0.7187 -1.1369
 7069TIP3    H221172   1.045   5.486   0.520  1.7814 -0.1201 -0.7570
 7070TIP3   OH221173   0.652   1.779   4.196  0.2612 -0.1715  0.0294
 7070TIP3    H121174   0.645   1.707   4.133 -0.0860 -0.0738 -0.0427
 7070TIP3    H221175   0.568   1.826   4.189  0.4199  0.1411  0.1950
 7071TIP3   OH221176   6.728   3.092   4.557  0.7003 -0.2895  0.0216
 7071TIP3    H121177   6.724   3.188   4.555 -1.7652 -0.3382 -0.6886
 7071TIP3    H221178   6.724   3.066   4.465  1.1598 -1.0941  0.2183
 7072TIP3   OH221179   6.169   2.269   2.907  0.0964  0.0199  0.0874
 7072TIP3    H121180   6.110   2.340   2.882 -1.3283 -1.2024 -0.1673
 7072TIP3    H221181   6.194   2.229   2.824 -1.2199 -1.3766  0.3225
 7073TIP3   OH221182   2.273   0.046   1.982 -0.1136 -0.3401 -0.1194
 7073TIP3    H121183   2.278   0.061   1.887  1.8579 -0.9406 -0.1617
 7073TIP3    H221184   2.241   0.128   2.018  0.4346  0.3818 -1.2117
 7074TIP3   OH221185   3.282   1.936   2.525 -0.1353  0.4371 -0.2224
 7074TIP3    H121186   3.287   1.946   2.620 -1.6507 -1.5029  0.1258
 7074TIP3    H221187   3.370   1.908   2.499 -0.5909 -2.6661  1.1889
 7075TIP3   OH221188   5.615   0.211   2.585 -0.6332  0.0998 -0.0095
 7075TIP3    H121189   5.624   0.305   2.568 -0.7111  0.2482  0.7029
 7075TIP3    H221190   5.655   0.200   2.672 -1.5212 -0.3564  0.3457
 7076TIP3   OH221191   3.985   2.952   2.161  0.7836  0.0795 -0.1125
 7076TIP3    H121192   4.076   2.933   2.183  0.7056 -0.3162 -0.1130
 7076TIP3    H221193   3.947   2.988   2.241  0.7715 -0.3763  0.0891
 7077TIP3   OH221194   4.603   5.887   0.796  0.2844 -0.2208 -0.0498
 7077TIP3    H121195   4.650   5.819   0.843 -1.4684 -0.4292  1.5221
 7077TIP3    H221196   4.529   5.843   0.755 -0.4765  0.6091  0.3891
 7078TIP3   OH221197   3.316   3.568   5.207  0.8150  0.3628 -0.2627
 7078TIP3    H121198   3.382   3.499   5.220 -1.5071 -1.9120  0.1920
 7078TIP3    H221199   3.307   3.608   5.293  2.0838  1.2211 -0.4971
 7079TIP3   OH221200   5.275   0.046   4.056 -0.0276  0.0569 -0.0445
 7079TIP3    H121201   5.223   0.080   3.984  0.0586 -0.8123 -0.5207
 7079TIP3    H221202   5.218  -0.017   4.100  0.7183 -1.1624 -0.7777
 7080TIP3   OH221203   6.989   2.008   3.709  0.1783  0.3809 -0.5602
 7080TIP3    H121204   6.987   1.922   3.753 -0.9650  1.2092  1.1028
 7080TIP3    H221205   6.968   2.070   3.778  2.6258  2.2088 -1.3389
 7081TIP3   OH221206   1.254   6.383   0.043 -0.3996  0.3463  0.1198
 7081TIP3    H121207   1.176   6.427   0.010 -1.8028 -2.7916 -1.1901
 7081TIP3    H221208   1.302   6.357  -0.035 -0.4198 -1.6323  0.7004
 7082TIP3   OH221209   2.558   0.743   3.048 -0.1979 -0.4054 -0.3893
 7082TIP3    H121210   2.536   0.790   2.968  1.4702  1.0100 -0.0793
 7082TIP3    H221211   2.479   0.749   3.102 -0.2722  1.5384 -0.6289
 7083TIP3   OH221212   0.762   1.136   3.147  0.1727  0.1377 -0.5049
 7083TIP3    H121213   0.719   1.220   3.129 -0.8792 -0.6370 -1.8189
 7083TIP3    H221214   0.692   1.071   3.138  1.2066 -0.9928 -0.7006
 7084TIP3   OH221215   2.529   5.041   4.922  0.1899 -0.4461  0.2182
 7084TIP3    H121216   2.558   5.108   4.984  1.0652  0.1139 -0.7636
 7084TIP3    H221217   2.452   5.078   4.880  0.7958  0.0568 -0.4745
 7085TIP3   OH221218   3.862   0.909   5.162 -0.6875  0.4846  0.0544
 7085TIP3    H121219   3.866   0.839   5.097 -2.0072 -1.0825  1.5644
 7085TIP3    H221220   3.797   0.879   5.226  2.1225  0.7829  3.3646
 7086TIP3   OH221221   2.813   3.587   3.815 -0.4672 -0.3708 -0.1574
 7086TIP3    H121222   2.851   3.616   3.898 -0.8804 -0.8281  0.1968
 7086TIP3    H221223   2.883   3.538   3.771 -0.8549 -1.8832  0.8357
 7087TIP3   OH221224   3.995   2.652   2.031 -0.0926 -0.2111  0.0720
 7087TIP3    H121225   3.995   2.685   2.121  0.3033 -0.1961  0.0696
 7087TIP3    H221226   3.923   2.698   1.988  0.3235  0.4999  0.1257
 7088TIP3   OH221227   1.588   6.552   1.825 -0.3620  0.7792  0.2832
 7088TIP3    H121228   1.569   6.640   1.795  0.1001  0.8643  0.2302
 7088TIP3    H221229   1.651   6.518   1.761 -1.1063  0.1325 -0.1347
 7089TIP3   OH221230   6.377   2.757   5.774  0.0134  0.0829 -1.0219
 7089TIP3    H121231   6.409   2.819   5.839 -0.5130  1.2837 -1.8684
 7089TIP3    H221232   6.283   2.773   5.768 -0.5684 -2.2928  0.2692
 7090TIP3   OH221233   4.740   6.526   4.801  0.1842  0.3637 -0.3366
 7090TIP3    H121234   4.646   6.536   4.792  0.1138  0.3176  0.3016
 7090TIP3    H221235   4.762   6.453   4.742 -0.2992 -0.1364  0.0869
 7091TIP3   OH221236   3.980   0.288   0.909  0.1010 -0.4904  0.6330
 7091TIP3    H121237   3.918   0.278   0.981  0.3885  0.8645  1.1152
 7091TIP3    H221238   3.955   0.221   0.845 -2.3563  0.4526  0.4642
 7092TIP3   OH221239   5.106   5.841   3.567  0.0401 -0.3286 -0.6148
 7092TIP3    H121240   5.064   5.873   3.487 -0.4500  1.0245  0.1448
 7092TIP3    H221241   5.195   5.816   3.540 -0.0642  0.2815 -1.5436
 7093TIP3   OH221242   6.113   1.643   0.613 -0.1405 -0.3072 -0.6987
 7093TIP3    H121243   6.017   1.650   0.610 -0.3727 -1.1561  2.1177
 7093TIP3    H221244   6.144   1.731   0.592 -1.6067  0.3547 -0.2335
 7094TIP3   OH221245   6.906   1.388   2.995 -0.3347  0.5735  0.6173
 7094TIP3    H121246   6.833   1.444   2.971  0.0296  0.2468 -1.4290
 7094TIP3    H221247   6.984   1.436   2.967  0.1987  0.3816  1.6801
 7095TIP3   OH221248   4.652   3.301   1.833  0.1274  0.5293  0.5398
 7095TIP3    H121249   4.661   3.287   1.738  1.7813 -0.1937  0.7592
 7095TIP3    H221250   4.571   3.256   1.857  0.0766  0.0799 -0.4154
 7096TIP3   OH221251   1.280   5.135   0.681 -0.2591 -0.0188  0.3692
 7096TIP3    H121252   1.219   5.209   0.684 -0.7059 -0.4096  1.9836
 7096TIP3    H221253   1.320   5.134   0.768  3.0443  0.9782 -0.9719
 7097TIP3   OH221254   5.445   2.957   0.144  0.9143 -0.2505 -0.5119
 7097TIP3    H121255   5.392   2.918   0.074  0.5090 -1.1089  0.2445
 7097TIP3    H221256   5.393   3.030   0.175 -0.5701 -1.9101  1.1613
 7098TIP3   OH221257   3.582   4.870   2.566  0.0609 -0.4183  0.5637
 7098TIP3    H121258   3.516   4.918   2.516  1.9488  0.8606 -0.8549
 7098TIP3    H221259   3.635   4.825   2.500  2.3282  0.9262  1.3051
 7099TIP3   OH221260   4.225   3.723   3.816  0.0653 -0.6563 -0.0530
 7099TIP3    H121261   4.285   3.797   3.804 -0.5060 -0.4679 -2.3168
 7099TIP3    H221262   4.138   3.762   3.814 -0.2072 -1.2396  0.2753
 7100TIP3   OH221263   5.360   0.546   4.974  0.2885 -0.4746  0.2717
 7100TIP3    H121264   5.384   0.458   4.946 -2.4527 -1.0420 -0.5332
 7100TIP3    H221265   5.363   0.599   4.895  0.4241 -0.1760  0.4722
 7101TIP3   OH221266   5.624   1.141   1.242  0.2775  0.4258  0.0133
 7101TIP3    H121267   5.618   1.126   1.148  1.5222 -0.7220  0.0854
 7101TIP3    H221268   5.671   1.224   1.250  0.8171  0.1611 -0.3728
 7102TIP3   OH221269   0.160   2.873   1.044  0.0470 -0.2290 -0.1641
 7102TIP3    H121270   0.229   2.807   1.054  1.9289  1.4914 -1.1401
 7102TIP3    H221271   0.123   2.881   1.132  1.8108 -0.4984  0.6625
 7103TIP3   OH221272   3.698   4.853   0.929  0.0925  0.7388  0.1818
 7103TIP3    H121273   3.752   4.931   0.917 -0.4209  0.9726 -0.7133
 7103TIP3    H221274   3.622   4.867   0.872 -0.4304 -0.0260  0.6701
 7104TIP3   OH221275   6.815   0.333   2.039 -0.1068 -0.7556 -0.0924
 7104TIP3    H121276   6.740   0.393   2.045  0.3535 -0.3009  1.8206
 7104TIP3    H221277   6.785   0.252   2.080  0.2916 -0.7159  0.2919
 7105TIP3   OH221278   2.613   6.281   5.306 -0.5606 -0.2981 -0.0400
 7105TIP3    H121279   2.626   6.373   5.284  0.8932 -0.5445 -0.3328
 7105TIP3    H221280   2.579   6.282   5.395  1.1214  0.5036  0.6312
 7106TIP3   OH221281   1.315   3.689   1.340 -0.1478  0.0932 -0.1392
 7106TIP3    H121282   1.270   3.662   1.260 -0.0005 -1.4976  0.2969
 7106TIP3    H221283   1.316   3.785   1.335 -1.0889  0.0601 -1.5119
 7107TIP3   OH221284   6.733   4.972   5.093 -0.5429 -0.7848 -0.5747
 7107TIP3    H121285   6.818   4.955   5.053  1.0782 -2.3188  3.0389
 7107TIP3    H221286   6.733   5.066   5.111  0.1482 -0.6808 -1.0960
 7108TIP3   OH221287   6.419   4.955   3.584  0.2933 -0.1114 -0.2891
 7108TIP3    H121288   6.474   4.906   3.645  1.6779  1.0232 -0.5676
 7108TIP3    H221289   6.427   5.046   3.613 -1.1848  0.1170 -0.5523
 7109TIP3   OH221290   5.823   0.316   4.988  0.2724  0.3397  0.7705
 7109TIP3    H121291   5.814   0.275   4.903 -0.6302  2.3905 -0.1805
 7109TIP3    H221292   5.917   0.334   4.996  0.1035  2.2823 -0.9136
 7110TIP3   OH221293   5.258   1.556   3.479  0.4788 -0.5355  0.7906
 7110TIP3    H121294   5.170   1.520   3.493  0.6328 -1.4351 -0.3405
 7110TIP3    H221295   5.309   1.480   3.449  1.6644 -0.0441  1.5372
 7111TIP3   OH221296   0.051   3.737   3.111 -0.5116 -0.0154  0.3618
 7111TIP3    H121297   0.086   3.663   3.062 -1.3014  0.7084 -1.3853
 7111TIP3    H221298  -0.035   3.706   3.141 -0.5245 -0.0718  0.2696
 7112TIP3   OH221299   0.601   3.179   5.047 -0.6850 -0.2867 -0.9920
 7112TIP3    H121300   0.603   3.087   5.021  1.6790 -0.5357 -0.2139
 7112TIP3    H221301   0.685   3.214   5.017 -0.8380  1.1856  0.1713
 7113TIP3   OH221302  -0.008   5.234   4.774  0.5267  0.1163  0.2589
 7113TIP3    H121303  -0.021   5.315   4.725  1.3525 -0.5053 -1.0312
 7113TIP3    H221304   0.060   5.256   4.838  0.4172  0.5590  0.2315
 7114TIP3   OH221305   6.572   0.500   4.745  0.1330  0.4296  0.2396
 7114TIP3    H121306   6.601   0.591   4.759 -0.5135  0.8567 -1.0925
 7114TIP3    H221307   6.519   0.503   4.666 -2.4686 -0.5786  1.8278
 7115TIP3   OH221308   1.208   1.222   3.240  0.1253 -0.4702  0.2173
 7115TIP3    H121309   1.143   1.235   3.171 -1.3249 -1.1240  1.3921
 7115TIP3    H221310   1.251   1.140   3.217  0.4499 -0.1059 -0.4977
 7116TIP3   OH221311   6.229   0.369   3.239  0.3317 -0.4350 -0.0370
 7116TIP3    H121312   6.236   0.284   3.196  0.2106  0.3844 -1.7794
 7116TIP3    H221313   6.135   0.386   3.243  0.3703 -0.2160 -0.0569
 7117TIP3   OH221314   2.039   0.807   1.446 -0.0798 -0.2266 -0.2429
 7117TIP3    H121315   1.982   0.772   1.514  1.6032 -1.3274  0.6800
 7117TIP3    H221316   2.065   0.894   1.478  0.9806 -0.8822  0.7272
 7118TIP3   OH221317   3.684   4.133   5.787  0.3310 -0.4679  0.0687
 7118TIP3    H121318   3.599   4.130   5.744  0.5319 -0.6858 -0.3204
 7118TIP3    H221319   3.745   4.097   5.723  0.8231  0.2685  0.1101
 7119TIP3   OH221320   5.536   6.629   0.764  0.1826 -0.4100  0.0382
 7119TIP3    H121321   5.512   6.694   0.831 -0.1569  0.8821 -1.2856
 7119TIP3    H221322   5.577   6.680   0.694  4.4458 -2.1759  0.9395
 7120TIP3   OH221323   1.523   0.448   4.370 -0.1865  0.3799 -0.0889
 7120TIP3    H121324   1.587   0.382   4.396 -0.0080  0.6450  0.1484
 7120TIP3    H221325   1.564   0.494   4.297  0.1126  0.8859  0.3919
 7121TIP3   OH221326   6.434   2.071   4.664  0.2928 -0.9224  0.5014
 7121TIP3    H121327   6.496   2.110   4.602  0.0349  0.9832  1.3752
 7121TIP3    H221328   6.367   2.031   4.608  0.1269  0.6555 -0.4951
 7122TIP3   OH221329   5.789   0.708   3.163 -0.4198  0.3733  0.5502
 7122TIP3    H121330   5.743   0.652   3.101  0.1736 -1.6257  1.8314
 7122TIP3    H221331   5.873   0.727   3.121 -1.2632  1.8002 -0.6168
 7123TIP3   OH221332   2.104   2.205   4.794  0.3871  0.2402  0.2039
 7123TIP3    H121333   2.099   2.191   4.889  1.8529 -0.8671  0.1488
 7123TIP3    H221334   2.026   2.161   4.760  0.0998  0.2239  0.8518
 7124TIP3   OH221335   1.216   3.369   4.350 -0.0315  0.5782 -0.3940
 7124TIP3    H121336   1.123   3.356   4.332 -0.2715  1.8173 -0.0894
 7124TIP3    H221337   1.241   3.292   4.401 -1.1713  0.7950  0.5340
 7125TIP3   OH221338   3.167   0.844   3.687  0.1025 -0.5728  0.3789
 7125TIP3    H121339   3.105   0.815   3.754  1.3529  0.6694  2.1959
 7125TIP3    H221340   3.180   0.937   3.706  0.7038 -0.2526 -1.4511
 7126TIP3   OH221341   6.810   0.170   0.279  0.1973 -0.8686  0.3604
 7126TIP3    H121342   6.729   0.156   0.230  0.6101  1.6049 -1.2269
 7126TIP3    H221343   6.782   0.180   0.370 -1.2151 -0.5914 -0.0805
 7127TIP3   OH221344   1.357   6.690   1.169  0.0997  0.3655  0.3251
 7127TIP3    H121345   1.420   6.681   1.097  1.1844  2.6201  0.8942
 7127TIP3    H221346   1.322   6.779   1.159 -1.9505 -0.3140  0.8963
 7128TIP3   OH221347   6.450   1.897   0.865  0.4011 -0.5210 -0.3789
 7128TIP3    H121348   6.380   1.843   0.828 -1.9572  1.6518  0.5497
 7128TIP3    H221349   6.445   1.881   0.959 -0.0927  0.9223 -0.1291
 7129TIP3   OH221350   2.789   5.326   3.253 -0.6831  0.6391 -0.4657
 7129TIP3    H121351   2.700   5.322   3.217 -1.4725 -0.7031  1.4702
 7129TIP3    H221352   2.841   5.275   3.190 -1.9365 -1.2770 -0.0540
 7130TIP3   OH221353   2.875   3.005   5.795  0.1811 -0.7764 -0.1269
 7130TIP3    H121354   2.789   3.044   5.813  0.0048 -1.0748 -0.2907
 7130TIP3    H221355   2.935   3.047   5.856  0.0975  0.1066 -0.6435
 7131TIP3   OH221356   0.679   1.829   3.298 -0.2875  0.5201 -0.2680
 7131TIP3    H121357   0.725   1.749   3.273  0.3708  1.0201 -0.6753
 7131TIP3    H221358   0.658   1.817   3.391 -0.9754 -0.4974 -0.5365
 7132TIP3   OH221359   2.853   4.487   0.185  0.2429 -0.0604 -0.1822
 7132TIP3    H121360   2.902   4.404   0.187 -0.6485 -0.6434 -1.2538
 7132TIP3    H221361   2.917   4.554   0.208  0.2870 -1.2914  4.4423
 7133TIP3   OH221362   3.390   2.499   1.036 -0.0880  0.2305 -0.6520
 7133TIP3    H121363   3.434   2.466   0.957 -0.7877 -1.6572 -0.2958
 7133TIP3    H221364   3.357   2.421   1.079 -1.1026  1.3713  0.7066
 7134TIP3   OH221365   3.972   2.607   3.578 -0.0350  0.2760  0.6459
 7134TIP3    H121366   3.966   2.640   3.488 -0.4510 -1.7055 -0.1106
 7134TIP3    H221367   3.881   2.597   3.606  0.0840  1.6607  1.6387
 7135TIP3   OH221368   2.247   5.058   2.853  0.2931 -0.2485  0.1883
 7135TIP3    H121369   2.250   5.041   2.758  1.0504  0.2257  0.1194
 7135TIP3    H221370   2.154   5.076   2.871  0.4977  2.5161 -0.9950
 7136TIP3   OH221371   4.960   0.194   0.417  0.4928 -0.0734 -0.0178
 7136TIP3    H121372   5.002   0.147   0.489 -2.3143 -3.0551 -0.0680
 7136TIP3    H221373   4.967   0.135   0.342 -0.5652  0.9224 -0.9517
 7137TIP3   OH221374   0.398   5.226   1.704 -1.0639 -0.2617 -0.3027
 7137TIP3    H121375   0.341   5.182   1.640 -0.0121 -2.4891  0.2294
 7137TIP3    H221376   0.486   5.200   1.680 -0.3786  1.4476  0.1883
 7138TIP3   OH221377   3.551   4.539   4.346 -0.3538 -0.1907  0.0517
 7138TIP3    H121378   3.576   4.476   4.278  2.9876  2.3686 -1.4177
 7138TIP3    H221379   3.588   4.504   4.426  1.7076 -0.1222 -0.7956
 7139TIP3   OH221380   2.752   3.960   1.038 -0.6868 -0.3816  0.4283
 7139TIP3    H121381   2.713   3.981   0.953  0.3113 -1.0763 -0.2174
 7139TIP3    H221382   2.720   4.029   1.096  0.9745  1.9393 -1.1878
 7140TIP3   OH221383   0.209   5.055   4.021 -0.4965 -0.2656  0.2147
 7140TIP3    H121384   0.129   5.033   4.067  0.0881 -0.0721  1.3495
 7140TIP3    H221385   0.202   5.149   4.004 -0.5468 -0.2663  0.2310
 7141TIP3   OH221386   0.333   3.315   5.427  0.1757  0.3071 -0.7879
 7141TIP3    H121387   0.390   3.268   5.489  1.7185  1.9421 -0.8794
 7141TIP3    H221388   0.339   3.264   5.346  1.0411  0.1123 -0.6152
 7142TIP3   OH221389   6.666   3.125   4.960  0.1638  0.5319 -0.4339
 7142TIP3    H121390   6.729   3.181   4.916  1.2468 -0.7847 -0.6199
 7142TIP3    H221391   6.655   3.050   4.902 -2.0212  0.9523 -0.6744
 7143TIP3   OH221392   1.994   5.407   3.566  0.4645 -0.4617 -0.4884
 7143TIP3    H121393   1.979   5.455   3.484  0.4969 -1.5167 -1.1296
 7143TIP3    H221394   2.057   5.339   3.543  0.0867 -1.0940  0.2847
 7144TIP3   OH221395   7.096   1.611   3.401  0.0988  0.0209  0.2122
 7144TIP3    H121396   7.178   1.624   3.352 -0.1644 -0.6024 -0.4012
 7144TIP3    H221397   7.028   1.649   3.345 -0.0385  0.5863  0.7470
 7145TIP3   OH221398   3.813   1.395   2.661  0.0972  0.4487  0.1000
 7145TIP3    H121399   3.799   1.301   2.645  1.2610  0.4039 -0.8115
 7145TIP3    H221400   3.889   1.417   2.607 -0.7125  2.1312 -0.4169
 7146TIP3   OH221401   4.648   0.501   2.046 -0.4809  0.0353  0.7086
 7146TIP3    H121402   4.691   0.472   1.966  0.3041 -1.1100  1.5183
 7146TIP3    H221403   4.671   0.435   2.111 -0.8535  1.1065  1.9628
 7147TIP3   OH221404   3.270   6.329   4.689 -0.0383  0.2996 -0.4373
 7147TIP3    H121405   3.257   6.237   4.664  1.0902  0.2187 -0.8115
 7147TIP3    H221406   3.285   6.326   4.784 -2.3154  0.3837 -0.0165
 7148TIP3   OH221407   1.195   4.461   4.850 -0.7390 -0.2461 -0.2735
 7148TIP3    H121408   1.244   4.383   4.823  0.9475  0.1561  1.4049
 7148TIP3    H221409   1.176   4.506   4.768  1.0267 -0.8602 -1.0805
 7149TIP3   OH221410   0.002   2.401   5.021 -0.5896  0.0860 -0.2184
 7149TIP3    H121411   0.094   2.379   5.006 -0.5855  0.5202 -0.8620
 7149TIP3    H221412  -0.030   2.332   5.079 -0.5334 -1.5775 -2.0248
 7150TIP3   OH221413   0.288   1.947   5.835  0.5985  0.1472  0.1900
 7150TIP3    H121414   0.222   1.882   5.860  0.7553  0.0121  0.2597
 7150TIP3    H221415   0.248   2.031   5.854  0.2590  0.0817 -0.2199
 7151TIP3   OH221416   5.126   0.308   3.995  0.7363 -0.3433 -0.1003
 7151TIP3    H121417   5.116   0.280   4.086  0.2283  1.2747  0.3643
 7151TIP3    H221418   5.205   0.361   3.994  0.2870  0.3345 -0.4217
 7152TIP3   OH221419   7.161   3.562   0.180  0.0138 -0.0455 -0.5501
 7152TIP3    H121420   7.251   3.552   0.149  0.2728  2.1735 -0.7130
 7152TIP3    H221421   7.142   3.655   0.165 -2.4890 -0.5669 -1.0073
 7153TIP3   OH221422   1.701   5.961   4.054  0.0657 -0.2279 -0.2469
 7153TIP3    H121423   1.728   6.006   4.134 -1.6636  2.6253 -1.1112
 7153TIP3    H221424   1.781   5.920   4.021  0.7894 -1.6248  2.9441
 7154TIP3   OH221425   2.919   5.427   5.502 -0.5644 -0.0930 -0.3568
 7154TIP3    H121426   2.936   5.387   5.587  0.2825 -1.6208 -1.1989
 7154TIP3    H221427   3.005   5.453   5.470 -0.4450 -2.1852 -1.9584
 7155TIP3   OH221428   2.282   5.642   2.753 -0.0195  0.0231  0.1188
 7155TIP3    H121429   2.189   5.665   2.759 -0.2066 -0.8504  0.8277
 7155TIP3    H221430   2.299   5.632   2.659 -1.3211 -2.3385  0.0456
 7156TIP3   OH221431   6.206   1.770   3.510  0.1059 -0.4370 -0.2432
 7156TIP3    H121432   6.204   1.679   3.480  0.6827 -0.4302 -0.3270
 7156TIP3    H221433   6.115   1.799   3.507 -0.1304 -1.1306  0.1510
 7157TIP3   OH221434   4.452   5.103   2.747 -0.6765 -0.1795  0.4571
 7157TIP3    H121435   4.360   5.128   2.751 -0.7525 -0.6668  2.6344
 7157TIP3    H221436   4.464   5.039   2.818  1.0684 -1.0778 -0.5518
 7158TIP3   OH221437   4.181   6.467   4.402 -0.1388 -0.0596  0.0422
 7158TIP3    H121438   4.183   6.519   4.482  1.9030 -0.1653  0.1098
 7158TIP3    H221439   4.251   6.403   4.413 -0.1997 -0.4570 -1.5933
 7159TIP3   OH221440   3.877   2.701   1.652 -0.1275  0.5667 -0.5653
 7159TIP3    H121441   3.944   2.722   1.588 -0.2003 -0.1941 -0.8996
 7159TIP3    H221442   3.859   2.607   1.640 -0.9644  0.6641 -0.2162
 7160TIP3   OH221443   4.221   0.556   0.242 -0.1704 -0.7963  0.5251
 7160TIP3    H121444   4.258   0.608   0.313 -2.3094 -0.0830  1.2033
 7160TIP3    H221445   4.250   0.599   0.162  0.7151 -0.4902  1.0028
 7161TIP3   OH221446   3.880   0.225   4.000  0.1553  0.2579  0.4192
 7161TIP3    H121447   3.865   0.263   4.087  2.1027  1.2692  0.3782
 7161TIP3    H221448   3.857   0.295   3.939 -1.8570 -0.6746  0.0407
 7162TIP3   OH221449   5.938   1.676   1.812 -0.3293  0.1270  0.3559
 7162TIP3    H121450   5.874   1.716   1.754  0.6747  0.9018 -0.2518
 7162TIP3    H221451   5.945   1.736   1.885 -0.3753 -0.0175  0.4799
 7163TIP3   OH221452   6.950   5.186   4.659  0.0845  0.2181  0.5289
 7163TIP3    H121453   7.032   5.175   4.707  1.1815 -1.4908 -1.5556
 7163TIP3    H221454   6.970   5.253   4.593 -0.7654  1.0223  1.0557
 7164TIP3   OH221455   4.408   1.889   3.781  0.5319 -0.5014 -0.2015
 7164TIP3    H121456   4.491   1.911   3.823  0.7834  0.1496 -1.0301
 7164TIP3    H221457   4.426   1.808   3.733  0.1852 -1.3752  1.0765
 7165TIP3   OH221458   0.960   2.054   5.745  0.0398  0.3570 -0.0006
 7165TIP3    H121459   0.918   1.973   5.772  1.6154  0.5852  3.8414
 7165TIP3    H221460   1.030   2.067   5.809  0.2666  4.4303 -0.8014
 7166TIP3   OH221461   1.525   3.094   2.714 -0.0195  0.2103  0.4289
 7166TIP3    H121462   1.517   2.999   2.724  3.3777 -0.0688  2.0148
 7166TIP3    H221463   1.497   3.111   2.624  0.6869 -2.5419 -0.4111
 7167TIP3   OH221464   4.050   6.271   1.247 -0.1162 -0.5546  0.0985
 7167TIP3    H121465   4.134   6.315   1.262 -0.7494  1.0675 -0.9062
 7167TIP3    H221466   3.991   6.341   1.218 -1.8430 -1.6501  0.8209
 7168TIP3   OH221467   5.512   4.473   2.170 -0.1128  0.0281  0.3491
 7168TIP3    H121468   5.426   4.461   2.130 -0.5594  0.2179  1.2369
 7168TIP3    H221469   5.573   4.472   2.096 -0.7684 -1.1033 -0.2039
 7169TIP3   OH221470   4.258   2.092   5.443 -0.4746  0.2950 -0.0122
 7169TIP3    H121471   4.187   2.097   5.507 -0.3071  1.1358  0.1195
 7169TIP3    H221472   4.315   2.022   5.475 -0.9481 -0.0056  0.1795
 7170TIP3   OH221473   6.959   6.445   0.319  0.4333 -0.0152 -0.1878
 7170TIP3    H121474   6.924   6.380   0.258  1.3739  0.9552 -1.8170
 7170TIP3    H221475   6.882   6.478   0.366 -0.1857 -1.4854 -0.1153
 7171TIP3   OH221476   2.433   4.233   1.407 -0.1192  0.2256 -0.4901
 7171TIP3    H121477   2.385   4.155   1.432 -0.3431  0.2339 -0.8823
 7171TIP3    H221478   2.486   4.205   1.332  1.1132 -0.0017  0.4367
 7172TIP3   OH221479   4.288   2.417   4.133 -0.4170 -0.4877 -0.7176
 7172TIP3    H121480   4.193   2.419   4.147 -0.3094 -0.7525  0.0910
 7172TIP3    H221481   4.325   2.406   4.220  0.4488  1.4608 -0.7834
 7173TIP3   OH221482   7.080   2.233   3.218 -0.4534  0.6553  0.3989
 7173TIP3    H121483   7.073   2.162   3.153 -0.0700 -0.7187  1.7767
 7173TIP3    H221484   7.009   2.216   3.280 -0.3837  1.5053  0.7171
 7174TIP3   OH221485   3.848   6.254   1.742 -0.2564  0.3068 -0.0923
 7174TIP3    H121486   3.908   6.239   1.670  1.1033  0.1226  1.0437
 7174TIP3    H221487   3.797   6.173   1.748  0.6851 -0.2837  0.1188
 7175TIP3   OH221488   1.577   5.228   3.256 -0.1659  0.3904 -0.5383
 7175TIP3    H121489   1.503   5.176   3.224 -0.3249  0.7843 -0.8057
 7175TIP3    H221490   1.540   5.314   3.273  0.0289  0.3291  0.2202
 7176TIP3   OH221491   5.669   5.313   4.973  0.0974  0.0844  0.1592
 7176TIP3    H121492   5.763   5.296   4.971  0.7739  3.2491 -0.2493
 7176TIP3    H221493   5.648   5.322   5.066  0.3889  0.1917  0.2160
 7177TIP3   OH221494   1.102   6.336   3.103  0.0147  0.2347 -0.3486
 7177TIP3    H121495   1.037   6.266   3.112  1.1894 -1.1869 -2.1976
 7177TIP3    H221496   1.186   6.291   3.100  0.9287  1.8451 -0.3523
 7178TIP3   OH221497   0.086   0.372   0.652 -0.7345  0.2346 -0.2177
 7178TIP3    H121498   0.073   0.430   0.727  0.1490  0.6859 -0.4121
 7178TIP3    H221499   0.167   0.402   0.611  1.0854 -2.5351  1.0281
 7179TIP3   OH221500   0.686   1.600   3.001  0.0811 -0.2620  0.0013
 7179TIP3    H121501   0.778   1.622   2.986 -0.4423  0.8730 -1.8154
 7179TIP3    H221502   0.673   1.516   2.956  0.0199  0.0276 -0.5262
 7180TIP3   OH221503   1.936   1.302   1.469 -0.6246  0.5020 -0.1714
 7180TIP3    H121504   2.022   1.328   1.504  0.0292 -0.1720 -1.2118
 7180TIP3    H221505   1.953   1.218   1.426 -1.5299  0.9570 -1.4840
 7181TIP3   OH221506   4.503   4.380   4.369 -0.5469  0.1544 -0.3598
 7181TIP3    H121507   4.530   4.468   4.344 -1.8431  1.3418  2.0672
 7181TIP3    H221508   4.416   4.369   4.332 -0.6065  0.1133 -0.2089
 7182TIP3   OH221509   0.103   3.836   3.468 -0.5407 -0.4459 -0.6181
 7182TIP3    H121510   0.192   3.823   3.434 -0.1127  1.4274 -0.3148
 7182TIP3    H221511   0.084   3.756   3.517  1.3687 -0.4862  0.1368
 7183TIP3   OH221512   4.008   0.782   2.129 -0.2672 -0.3609  0.8842
 7183TIP3    H121513   3.977   0.727   2.202  0.3441 -0.6763  0.9185
 7183TIP3    H221514   4.103   0.781   2.139 -0.2541  0.9593  1.0631
 7184TIP3   OH221515   0.680   1.000   5.212 -0.4185  0.1257  0.2089
 7184TIP3    H121516   0.661   0.974   5.302 -0.0148  0.4878  0.4002
 7184TIP3    H221517   0.667   1.095   5.211 -2.2819 -0.0867 -0.5750
 7185TIP3   OH221518   6.832   1.036   5.124  0.4026 -0.1792 -0.0713
 7185TIP3    H121519   6.808   1.128   5.130  1.5222  0.1027  0.3083
 7185TIP3    H221520   6.893   1.022   5.196 -1.0827 -1.6617  0.9714
 7186TIP3   OH221521   1.866   5.381   3.105  0.1702  0.2321  0.0375
 7186TIP3    H121522   1.857   5.404   3.197  0.4583 -0.4070  0.2324
 7186TIP3    H221523   1.795   5.320   3.088  0.2371  0.1955 -0.1143
 7187TIP3   OH221524   3.182   1.029   0.001  0.0052 -0.1781 -0.0942
 7187TIP3    H121525   3.272   1.011   0.025 -0.4872 -1.7183  0.6892
 7187TIP3    H221526   3.135   0.948   0.020 -1.8357  1.0753  0.9822
 7188TIP3   OH221527   6.684   1.064   4.255 -0.5117 -0.5348 -0.1884
 7188TIP3    H121528   6.624   1.051   4.181 -1.3650  0.3614  0.3356
 7188TIP3    H221529   6.631   1.105   4.323  0.0765 -1.9929  1.2217
 7189TIP3   OH221530   4.993   3.032   1.067 -0.2231  0.0941  0.2904
 7189TIP3    H121531   5.044   2.960   1.105 -0.1779  0.3614  0.7447
 7189TIP3    H221532   4.972   3.088   1.141 -1.6012 -0.2597  0.1950
 7190TIP3   OH221533   0.328   0.397   0.936 -0.4536  0.5957  0.0726
 7190TIP3    H121534   0.290   0.344   1.005  2.2914  0.0320  1.3054
 7190TIP3    H221535   0.353   0.334   0.868 -0.7715  0.8190 -0.2539
 7191TIP3   OH221536   3.289   3.431   4.893 -0.4077 -0.1860  0.0730
 7191TIP3    H121537   3.231   3.441   4.968 -1.3087 -0.7920 -0.5209
 7191TIP3    H221538   3.377   3.446   4.928 -1.0343  3.4381  0.5044
 7192TIP3   OH221539   5.447   2.527   5.831 -0.0018  0.3131  0.2347
 7192TIP3    H121540   5.532   2.485   5.819  0.0260  0.3458  0.3210
 7192TIP3    H221541   5.401   2.511   5.748  0.2142  0.5927  0.0611
 7193TIP3   OH221542   6.275   6.618   4.384  0.5723 -0.0199 -0.1450
 7193TIP3    H121543   6.349   6.563   4.360 -0.2889 -2.1365  1.7071
 7193TIP3    H221544   6.231   6.570   4.454 -1.1616  2.3204  0.5009
 7194TIP3   OH221545   6.947   0.967   3.521 -0.2862  0.5655  0.1229
 7194TIP3    H121546   6.991   1.006   3.597 -0.5889 -2.2893  1.8835
 7194TIP3    H221547   6.908   1.042   3.476  1.7201  2.6007  1.5425
 7195TIP3   OH221548   0.803   4.667   3.336  0.2774  0.1149 -0.0921
 7195TIP3    H121549   0.828   4.574   3.342 -1.5375 -0.2911  2.2507
 7195TIP3    H221550   0.818   4.702   3.423 -3.2931  0.8405  0.3538
 7196TIP3   OH221551   2.307   6.564   4.659 -0.1787 -0.9583  0.3220
 7196TIP3    H121552   2.355   6.619   4.598 -1.7765  0.4806  0.2983
 7196TIP3    H221553   2.321   6.604   4.745 -1.5292 -0.3244  0.2768
 7197TIP3   OH221554   1.445   2.836   0.629  0.0073  0.4765 -0.3949
 7197TIP3    H121555   1.367   2.891   0.629  0.1033  0.6662 -1.9740
 7197TIP3    H221556   1.484   2.849   0.716 -1.8957  0.0648  0.5770
 7198TIP3   OH221557   5.750   3.594   2.462  0.2649  0.2044  0.2583
 7198TIP3    H121558   5.792   3.527   2.408 -0.8125 -0.9703  0.8314
 7198TIP3    H221559   5.657   3.585   2.443  0.1321  1.9473 -0.0769
 7199TIP3   OH221560   5.278   3.768   0.178 -0.1051  0.0242  0.0373
 7199TIP3    H121561   5.327   3.850   0.183  2.1251 -1.2956  2.6164
 7199TIP3    H221562   5.344   3.702   0.160 -1.6580 -1.3758 -0.7628
 7200TIP3   OH221563   3.540   0.262   4.455 -0.0761 -0.4896 -0.5767
 7200TIP3    H121564   3.522   0.248   4.362  0.0598  0.6823 -0.7962
 7200TIP3    H221565   3.461   0.304   4.489  0.7085  1.1437 -0.6833
 7201TIP3   OH221566   6.738   0.167   3.579  0.6136 -0.1952 -0.6278
 7201TIP3    H121567   6.820   0.121   3.594  0.5831 -0.0904 -0.1150
 7201TIP3    H221568   6.697   0.172   3.665  0.2369  0.0715 -0.8173
 7202TIP3   OH221569   4.483   3.034   4.618 -0.6586 -0.6996  0.2831
 7202TIP3    H121570   4.451   3.001   4.533  1.2914  0.0855 -0.8145
 7202TIP3    H221571   4.485   2.957   4.674 -4.3755 -0.8271  0.4906
 7203TIP3   OH221572   7.045   4.539   0.142 -0.2933  0.1177 -0.4359
 7203TIP3    H121573   7.063   4.599   0.215  0.4409 -1.1503  0.4490
 7203TIP3    H221574   7.131   4.514   0.110 -0.6077  0.1468 -1.3356
 7204TIP3   OH221575   4.552   0.820   2.020  0.0903 -0.0827 -0.5342
 7204TIP3    H121576   4.600   0.898   1.992 -0.1475  0.3690  0.2722
 7204TIP3    H221577   4.514   0.785   1.939  1.3948 -0.2005 -1.1204
 7205TIP3   OH221578   2.567   4.781   1.624 -0.7468  0.0921  0.4234
 7205TIP3    H121579   2.640   4.728   1.591 -1.6192 -0.9941  0.1750
 7205TIP3    H221580   2.493   4.720   1.627 -1.2205  0.6890  2.3661
 7206TIP3   OH221581   2.060   6.507   2.411 -0.2722 -0.1844  0.7822
 7206TIP3    H121582   2.146   6.472   2.386  0.0886 -0.4827  2.3498
 7206TIP3    H221583   2.038   6.568   2.340 -0.5095 -2.7980 -1.5952
 7207TIP3   OH221584   5.011   2.853   4.207  0.0401 -0.2277  0.4885
 7207TIP3    H121585   4.957   2.783   4.244 -0.3907 -0.6032 -0.8202
 7207TIP3    H221586   4.977   2.933   4.248 -2.1660 -0.3425 -0.9384
 7208TIP3   OH221587   2.974   0.978   0.653  0.2360  0.8703 -0.3972
 7208TIP3    H121588   3.060   0.962   0.614  0.0056 -0.0446 -0.5665
 7208TIP3    H221589   2.913   0.976   0.579  0.0768  1.5731 -0.2867
 7209TIP3   OH221590   2.736   0.908   4.197 -0.1555 -0.0240 -0.3794
 7209TIP3    H121591   2.729   1.000   4.219 -0.7934 -0.4000  1.1063
 7209TIP3    H221592   2.675   0.864   4.256  1.4771 -1.5905  0.2496
 7210TIP3   OH221593   2.461   0.245   5.229 -0.2099  0.1402 -0.2301
 7210TIP3    H121594   2.433   0.175   5.289  0.2010 -0.4828 -0.7513
 7210TIP3    H221595   2.447   0.326   5.278 -0.4111 -0.3264  0.4956
 7211TIP3   OH221596   4.544   6.006   3.124 -0.1258  0.5955  0.2591
 7211TIP3    H121597   4.456   5.989   3.158  0.1783 -1.7330  0.0330
 7211TIP3    H221598   4.529   6.059   3.045 -1.3625  0.0482  0.1005
 7212TIP3   OH221599   4.568   2.101   2.026 -0.4879 -0.1437  0.0921
 7212TIP3    H121600   4.648   2.088   1.975 -0.0935 -0.7196  0.8318
 7212TIP3    H221601   4.545   2.193   2.011 -0.9256 -0.5293 -1.8538
 7213TIP3   OH221602   0.056   5.201   2.937  0.6392 -0.0261 -0.4951
 7213TIP3    H121603   0.061   5.203   3.032  1.2067  1.8762 -0.5340
 7213TIP3    H221604   0.101   5.280   2.908 -0.9471  0.3015 -2.2951
 7214TIP3   OH221605   5.338   5.771   0.037  0.6365  0.2540 -0.0825
 7214TIP3    H121606   5.272   5.814   0.092  1.1550  1.1268 -0.1200
 7214TIP3    H221607   5.295   5.759  -0.047  0.4996  0.7673 -0.0907
 7215TIP3   OH221608   1.794   3.936   3.100 -0.0998  0.6841 -0.3838
 7215TIP3    H121609   1.860   3.975   3.043  0.8138 -1.5675 -0.9846
 7215TIP3    H221610   1.715   3.988   3.086  0.7670  1.6494 -1.8725
 7216TIP3   OH221611   5.990   6.475   2.684  0.0367  0.1958 -0.1435
 7216TIP3    H121612   5.972   6.388   2.649  3.8679 -0.6500 -0.3960
 7216TIP3    H221613   6.040   6.458   2.764 -1.5987  2.2217  1.4302
 7217TIP3   OH221614   5.517   3.998   3.168 -0.3934 -0.1610  0.2751
 7217TIP3    H121615   5.609   3.996   3.142 -0.7000 -0.6692 -0.8650
 7217TIP3    H221616   5.518   4.010   3.263  0.8300  0.2969  0.2153
 7218TIP3   OH221617   3.977   1.815   0.833 -0.2232  0.2228  0.6675
 7218TIP3    H121618   4.016   1.902   0.838  1.1190 -0.3303  0.2182
 7218TIP3    H221619   3.978   1.794   0.739  0.6428 -0.7781  0.8815
 7219TIP3   OH221620   7.212   5.487   0.247 -0.6181 -0.3642  0.3470
 7219TIP3    H121621   7.279   5.420   0.246 -0.3079 -0.1223  1.8840
 7219TIP3    H221622   7.137   5.446   0.291 -1.0658 -0.2559 -0.2935
 7220TIP3   OH221623   2.384   1.118   5.346  0.5572 -0.2355  0.2073
 7220TIP3    H121624   2.324   1.193   5.346  2.2980  1.2331 -0.8329
 7220TIP3    H221625   2.385   1.089   5.255  1.9693  0.2736  0.0310
 7221TIP3   OH221626   4.863   0.191   4.399  0.4533  0.2738 -0.0273
 7221TIP3    H121627   4.869   0.283   4.427 -1.2399  1.3591 -2.7837
 7221TIP3    H221628   4.809   0.194   4.320  0.1781 -3.1729 -0.0981
 7222TIP3   OH221629   0.018   3.546   2.103  0.0269 -0.0140 -0.2635
 7222TIP3    H121630   0.096   3.582   2.061  0.5118 -4.2818 -3.6996
 7222TIP3    H221631   0.049   3.515   2.188  0.5415  3.2911  0.9031
 7223TIP3   OH221632   4.458   4.657   3.737 -0.1819  0.1877  0.2017
 7223TIP3    H121633   4.535   4.603   3.750  1.4534  2.2800 -0.2326
 7223TIP3    H221634   4.450   4.666   3.642 -0.6032  0.4605  0.2598
 7224TIP3   OH221635   6.440   3.853   1.859 -0.4042 -0.0069 -0.4409
 7224TIP3    H121636   6.534   3.850   1.844 -0.4675 -0.7445 -0.7299
 7224TIP3    H221637   6.414   3.939   1.828  0.1662  0.1731 -0.4338
 7225TIP3   OH221638   1.685   0.608   3.220  0.1865  0.3886  0.0318
 7225TIP3    H121639   1.759   0.647   3.175 -1.1046  3.9436  0.6994
 7225TIP3    H221640   1.637   0.562   3.151  2.2066 -0.8746 -0.6307
 7226TIP3   OH221641   6.781   5.882   4.483 -0.1242  0.4253  0.2700
 7226TIP3    H121642   6.688   5.886   4.460  0.1788  0.6776 -1.0227
 7226TIP3    H221643   6.785   5.911   4.574 -1.3421  0.0962  0.4464
 7227TIP3   OH221644   6.862   6.345   1.223 -0.6582  0.1612  0.5588
 7227TIP3    H121645   6.831   6.264   1.264 -2.1903  0.2258 -0.4007
 7227TIP3    H221646   6.804   6.413   1.257 -0.4253  0.5881  0.1097
 7228TIP3   OH221647   3.186   6.191   2.157  0.7703  0.3657 -0.4896
 7228TIP3    H121648   3.190   6.099   2.183  0.9450  0.4003 -0.3968
 7228TIP3    H221649   3.227   6.239   2.228  1.3311  0.4513 -0.8668
 7229TIP3   OH221650   0.368   0.453   4.274  0.4078  0.0346  0.5037
 7229TIP3    H121651   0.308   0.477   4.204  0.2220 -0.0998  0.6190
 7229TIP3    H221652   0.313   0.415   4.342  0.7364 -1.0151  0.1994
 7230TIP3   OH221653   0.324   2.518   3.357 -0.2522 -0.2808  0.1265
 7230TIP3    H121654   0.248   2.521   3.298 -0.1760  2.3089  0.0336
 7230TIP3    H221655   0.398   2.501   3.299 -0.4987 -0.5351 -0.1162
 7231TIP3   OH221656   5.048   4.615   3.737 -0.3062 -0.1264 -0.7509
 7231TIP3    H121657   5.088   4.543   3.786 -0.7777 -0.0337 -0.2276
 7231TIP3    H221658   5.108   4.630   3.664  0.8216  0.2727  0.2373
 7232TIP3   OH221659   3.912   5.087   4.988 -0.3201  0.1406  0.5206
 7232TIP3    H121660   3.895   5.157   5.051  0.1545  1.6017 -0.8924
 7232TIP3    H221661   3.844   5.098   4.921 -0.2212 -0.7414  0.2613
 7233TIP3   OH221662   4.531   6.257   3.600  0.4530  0.1296 -0.5471
 7233TIP3    H121663   4.530   6.347   3.632  0.1497  0.0371 -0.2795
 7233TIP3    H221664   4.438   6.234   3.593  0.5286 -0.4810  0.3215
 7234TIP3   OH221665   3.898   0.661   1.681 -0.6188 -0.3639  0.6119
 7234TIP3    H121666   3.925   0.642   1.591  0.2084  0.4527  0.6770
 7234TIP3    H221667   3.951   0.602   1.734  0.3166  0.4909  0.6687
 7235TIP3   OH221668   0.756   5.115   0.008 -0.0008 -0.5180 -0.2292
 7235TIP3    H121669   0.832   5.171  -0.005  0.2988 -0.8562  0.0333
 7235TIP3    H221670   0.689   5.173   0.042  1.0999 -0.7605  2.6192
 7236TIP3   OH221671   3.273   3.748   0.485 -0.1954 -0.0278  0.4233
 7236TIP3    H121672   3.316   3.725   0.403  0.7305  0.0807  0.8637
 7236TIP3    H221673   3.186   3.779   0.459  0.0383 -0.1278 -0.4990
 7237TIP3   OH221674   5.482   6.556   3.503  0.4293 -0.4273  0.1091
 7237TIP3    H121675   5.529   6.474   3.515  1.1633  0.2289  2.0621
 7237TIP3    H221676   5.548   6.618   3.470  0.6382  0.1220  1.4907
 7238TIP3   OH221677   4.842   0.499   2.942 -0.1690  0.1514  0.7314
 7238TIP3    H121678   4.905   0.563   2.907  0.9237 -0.9526  0.6296
 7238TIP3    H221679   4.765   0.507   2.884  0.6688  0.0835 -0.4256
 7239TIP3   OH221680   2.842   4.762   2.153  0.3004 -0.0195  0.1117
 7239TIP3    H121681   2.784   4.837   2.167  1.1788  0.5761  0.6971
 7239TIP3    H221682   2.831   4.740   2.061  0.5223  1.2723 -0.2526
 7240TIP3   OH221683   0.376   0.049   2.040 -0.2379  0.1229  0.4989
 7240TIP3    H121684   0.292   0.028   2.080 -0.1878 -0.6905  0.1800
 7240TIP3    H221685   0.425  -0.033   2.039  0.5269  0.5605  0.5764
 7241TIP3   OH221686   1.846   4.596   1.745  0.0331  0.3828 -0.3364
 7241TIP3    H121687   1.772   4.538   1.760 -1.3375  1.9578 -0.7217
 7241TIP3    H221688   1.923   4.539   1.749 -1.0676 -1.0673  1.5120
 7242TIP3   OH221689   7.052   4.387   0.525 -0.2002  0.1273  0.3098
 7242TIP3    H121690   7.100   4.469   0.514 -2.7672  1.7900  0.5811
 7242TIP3    H221691   7.037   4.381   0.620  0.9200 -1.3106  0.4348
 7243TIP3   OH221692   3.888   2.004   0.643  0.3018  0.1068 -0.0081
 7243TIP3    H121693   3.865   1.912   0.653  3.5824 -0.7307  0.6740
 7243TIP3    H221694   3.895   2.017   0.548 -2.1834  0.2958 -0.2329
 7244TIP3   OH221695   1.130   1.323   0.629 -0.0268 -0.4160  0.5012
 7244TIP3    H121696   1.216   1.296   0.599 -0.8330  0.5075 -3.0501
 7244TIP3    H221697   1.112   1.405   0.582 -2.5392 -0.1641  1.6959
 7245TIP3   OH221698   4.941   1.272   4.127  0.2191  0.1102 -1.0203
 7245TIP3    H121699   4.919   1.356   4.168  1.0823  0.1845 -0.7101
 7245TIP3    H221700   4.985   1.222   4.195  2.5271  0.5902 -2.0727
 7246TIP3   OH221701   5.466   2.732   5.517 -0.3501 -0.1553 -0.1908
 7246TIP3    H121702   5.451   2.807   5.574  1.3805  0.0506  0.0671
 7246TIP3    H221703   5.379   2.705   5.488 -1.0370  1.7823 -0.0820
 7247TIP3   OH221704   2.708   1.078   3.916  0.1260 -0.4907  0.1529
 7247TIP3    H121705   2.652   1.082   3.838  1.0875  1.0296 -0.5231
 7247TIP3    H221706   2.650   1.052   3.986 -1.5837  1.4807 -0.4303
 7248TIP3   OH221707   0.534   2.341   2.144 -0.4092  0.1422  0.2989
 7248TIP3    H121708   0.493   2.307   2.065 -2.2663  4.1362 -0.6851
 7248TIP3    H221709   0.485   2.302   2.216 -0.5755 -1.3199 -0.5692
 7249TIP3   OH221710   5.966   5.829   4.912 -0.0590 -0.8297 -0.8629
 7249TIP3    H121711   5.954   5.875   4.995 -1.1374 -1.7490 -0.4918
 7249TIP3    H221712   6.040   5.770   4.928  0.5273 -0.1325 -0.9540
 7250TIP3   OH221713   2.369   6.143   1.043 -0.3616  0.3662  0.0224
 7250TIP3    H121714   2.360   6.220   0.987 -0.6411 -0.2087 -0.7412
 7250TIP3    H221715   2.429   6.171   1.112 -1.2150  1.5714  0.3221
 7251TIP3   OH221716   0.619   5.565   2.039  0.3787 -0.5335 -1.0339
 7251TIP3    H121717   0.636   5.473   2.057  0.1163 -0.4367 -0.2462
 7251TIP3    H221718   0.547   5.564   1.976 -1.3627 -0.8608  0.8662
 7252TIP3   OH221719   1.900   0.719   5.739 -0.5607  0.5334  0.5090
 7252TIP3    H121720   1.978   0.772   5.754 -0.3820  0.1195  1.0633
 7252TIP3    H221721   1.827   0.777   5.758 -0.4477  1.3463 -1.3103
 7253TIP3   OH221722   4.592   0.976   0.694 -0.0420  0.5510 -0.0749
 7253TIP3    H121723   4.506   1.005   0.662 -0.0655  0.3523 -0.1914
 7253TIP3    H221724   4.654   1.011   0.630 -0.2305 -1.5068 -1.4857
 7254TIP3   OH221725   5.179   1.501   4.153 -0.4031  0.3003 -0.7042
 7254TIP3    H121726   5.239   1.428   4.168 -1.2826 -0.2364  0.4226
 7254TIP3    H221727   5.103   1.480   4.208 -1.3191  1.3013 -1.5507
 7255TIP3   OH221728   1.480   5.184   4.689  0.4689  0.0965 -0.0004
 7255TIP3    H121729   1.404   5.240   4.673 -0.3789 -1.0329 -0.0640
 7255TIP3    H221730   1.512   5.212   4.775 -1.1967 -0.6671  0.9148
 7256TIP3   OH221731   3.198   4.676   2.494  0.4695 -0.1581 -0.5370
 7256TIP3    H121732   3.159   4.596   2.528 -0.3346 -0.1433 -1.3722
 7256TIP3    H221733   3.291   4.668   2.515 -0.0016 -0.0663  1.7332
 7257TIP3   OH221734   4.472   6.733   1.963 -0.0125  0.3261 -0.0891
 7257TIP3    H121735   4.555   6.778   1.978  0.0938  0.4367 -0.9325
 7257TIP3    H221736   4.432   6.782   1.890 -0.5161 -0.1194 -0.1159
 7258TIP3   OH221737   7.023   1.900   4.907  0.0640  0.0331  0.5053
 7258TIP3    H121738   7.102   1.876   4.954  0.6931  0.0746 -0.5047
 7258TIP3    H221739   6.951   1.866   4.961  0.5649  2.4707  2.9805
 7259TIP3   OH221740   2.954   3.110   3.720 -0.0006 -0.2665  0.0156
 7259TIP3    H121741   3.031   3.059   3.743  1.8124  2.9339  1.6525
 7259TIP3    H221742   2.974   3.148   3.634  0.9473  1.6207  1.0113
 7260TIP3   OH221743   1.455   6.009   3.235 -1.2032  0.1355 -0.4995
 7260TIP3    H121744   1.396   5.933   3.229 -2.6273  1.1780 -0.3339
 7260TIP3    H221745   1.433   6.049   3.320  1.5756 -0.8499  0.7871
 7261TIP3   OH221746   7.156   6.386   0.526  0.2899 -0.3277 -0.4387
 7261TIP3    H121747   7.164   6.290   0.527 -1.1850 -0.4740 -0.6431
 7261TIP3    H221748   7.084   6.404   0.467  0.1986  0.8915  0.0084
 7262TIP3   OH221749   5.164   3.978   1.172  0.7393 -0.0025 -0.0711
 7262TIP3    H121750   5.080   4.024   1.169  0.4835 -0.4825 -1.7753
 7262TIP3    H221751   5.191   3.981   1.263 -1.0564  0.2991  0.4792
 7263TIP3   OH221752   5.210   2.173   3.167  0.2433 -0.7102 -0.0136
 7263TIP3    H121753   5.285   2.168   3.226  0.2621  1.2203  0.2134
 7263TIP3    H221754   5.140   2.127   3.213  0.1528  1.0522  1.7481
 7264TIP3   OH221755   1.903   6.545   5.213 -0.1876  0.3127  0.1941
 7264TIP3    H121756   1.941   6.466   5.175 -0.7985 -1.2996  2.6695
 7264TIP3    H221757   1.974   6.582   5.266 -0.0624  1.1851 -0.5503
 7265TIP3   OH221758   5.773   2.466   0.530  0.0588  0.0464  0.5422
 7265TIP3    H121759   5.721   2.452   0.610 -0.7901 -1.4759 -0.2213
 7265TIP3    H221760   5.707   2.486   0.463  0.5333 -0.8348 -0.2138
 7266TIP3   OH221761   2.514   1.363   5.103 -0.6103  0.0825 -0.3496
 7266TIP3    H121762   2.507   1.357   5.007 -1.3692 -1.8399 -0.2191
 7266TIP3    H221763   2.449   1.301   5.135 -0.3552  0.6974  1.4357
 7267TIP3   OH221764   5.320   1.563   2.035  0.4191 -0.7369  0.0072
 7267TIP3    H121765   5.412   1.570   2.058 -0.1899  0.4166  2.3788
 7267TIP3    H221766   5.320   1.521   1.949  3.1185 -0.9630  0.0374
 7268TIP3   OH221767   1.138   5.219   5.674 -0.5051 -0.2900 -0.3985
 7268TIP3    H121768   1.144   5.193   5.766  0.3631 -0.0818 -0.3888
 7268TIP3    H221769   1.044   5.226   5.658 -0.6937 -1.3360  0.1799
 7269TIP3   OH221770   3.108   1.213   5.891  0.0031  1.0128  0.0558
 7269TIP3    H121771   3.054   1.143   5.853  2.3347 -0.8284 -0.0778
 7269TIP3    H221772   3.185   1.217   5.834  1.7039  0.9936  2.2488
 7270TIP3   OH221773   1.589   3.307   3.878 -0.0839  0.3763  0.2958
 7270TIP3    H121774   1.530   3.234   3.895 -0.3346 -0.0158 -2.0269
 7270TIP3    H221775   1.541   3.364   3.819  1.6916  0.1765 -1.4536
 7271TIP3   OH221776   2.415   5.548   4.115  0.2646  0.3518 -0.4526
 7271TIP3    H121777   2.423   5.638   4.146 -0.5843  0.5697 -0.8513
 7271TIP3    H221778   2.422   5.494   4.194 -0.5104  0.8335 -0.0494
 7272TIP3   OH221779   3.747   6.018   5.764 -0.2641  0.0202 -0.6131
 7272TIP3    H121780   3.664   5.971   5.750  0.0443 -0.8722  0.3776
 7272TIP3    H221781   3.814   5.955   5.739  0.1354  1.0549 -2.2938
 7273TIP3   OH221782   6.269   2.534   5.220  0.2282 -0.1928 -0.1339
 7273TIP3    H121783   6.299   2.623   5.237  0.9596 -0.4853  0.1521
 7273TIP3    H221784   6.330   2.500   5.155  0.3517 -0.6983  0.2379
 7274TIP3   OH221785   0.091   6.580   5.801 -0.6044  0.2955  0.2154
 7274TIP3    H121786   0.051   6.647   5.857  1.9272  0.7617  1.6303
 7274TIP3    H221787   0.143   6.630   5.738 -0.8200 -0.3091 -0.4512
 7275TIP3   OH221788   2.807   6.381   0.920  0.0432  0.4932  0.2302
 7275TIP3    H121789   2.764   6.464   0.899  2.1741  1.3393 -1.1686
 7275TIP3    H221790   2.898   6.405   0.938  0.2955 -1.3441  1.7918
 7276TIP3   OH221791   2.101   2.117   3.067  0.1410  0.3954 -0.2549
 7276TIP3    H121792   2.086   2.038   3.118  0.3703  0.2478 -0.4150
 7276TIP3    H221793   2.039   2.112   2.995  1.0215 -0.2717 -0.9817
 7277TIP3   OH221794   4.509   2.015   2.905 -0.5128  0.4856  0.0332
 7277TIP3    H121795   4.571   1.961   2.855 -0.0453  0.2946  0.8126
 7277TIP3    H221796   4.565   2.072   2.959 -1.0121  1.1267 -0.1153
 7278TIP3   OH221797   3.925   0.914   4.788  0.2901 -0.3892 -0.3777
 7278TIP3    H121798   3.985   0.840   4.796 -0.0968 -0.9041 -1.8942
 7278TIP3    H221799   3.981   0.986   4.758 -0.0052 -1.3237 -3.6147
 7279TIP3   OH221800   2.110   2.392   2.063  0.3080 -0.3512 -0.3322
 7279TIP3    H121801   2.163   2.440   2.127  2.0054 -0.5807 -1.5189
 7279TIP3    H221802   2.168   2.378   1.989 -1.0880 -1.6330 -1.2373
 7280TIP3   OH221803   0.072   0.632   3.099 -0.1133  0.5290 -0.8786
 7280TIP3    H121804  -0.016   0.630   3.138 -0.0259  2.1251 -0.5538
 7280TIP3    H221805   0.120   0.565   3.147 -1.1129 -0.3020 -0.9904
 7281TIP3   OH221806   0.556   1.802   0.663 -0.3087  0.2385 -0.2394
 7281TIP3    H121807   0.580   1.741   0.733 -2.3815  2.3266  2.4774
 7281TIP3    H221808   0.526   1.745   0.592  0.8197 -1.9701  0.9218
 7282TIP3   OH221809   4.877   1.724   2.641  0.0353  0.3960 -0.0954
 7282TIP3    H121810   4.831   1.650   2.681  0.6201 -0.2503 -0.5942
 7282TIP3    H221811   4.941   1.751   2.707 -0.8410  1.1146  0.4870
 7283TIP3   OH221812   2.865   2.881   5.473 -0.3428  0.0347  0.3310
 7283TIP3    H121813   2.889   2.918   5.558 -1.8128  0.3144  0.6518
 7283TIP3    H221814   2.802   2.943   5.437 -1.2861 -1.1094 -0.0473
 7284TIP3   OH221815   5.072   5.017   4.062 -0.4456  0.3914 -0.4599
 7284TIP3    H121816   4.994   4.994   4.113 -1.4596  0.7262 -1.7926
 7284TIP3    H221817   5.066   4.962   3.984 -0.7525  2.1983 -1.7746
 7285TIP3   OH221818   4.790   0.688   5.767 -0.1669 -0.3374  0.2014
 7285TIP3    H121819   4.720   0.646   5.716  0.4349 -2.8274  1.2687
 7285TIP3    H221820   4.744   0.731   5.839 -0.7550  0.0750 -0.4098
 7286TIP3   OH221821   3.069   0.047   0.230 -0.2468 -0.6096  0.1242
 7286TIP3    H121822   3.009   0.083   0.295 -0.5861  0.4850 -0.7629
 7286TIP3    H221823   3.048   0.094   0.149  2.0309  0.0959 -0.1430
 7287TIP3   OH221824   6.809   4.159   5.517  0.4684  0.0332  0.5507
 7287TIP3    H121825   6.757   4.115   5.451  0.1885  0.4264  0.5041
 7287TIP3    H221826   6.898   4.127   5.503  0.2420 -0.6494  0.6408
 7288TIP3   OH221827   2.087   0.959   4.122 -0.3320 -0.4301  0.0016
 7288TIP3    H121828   2.010   0.903   4.111 -1.2149  0.2081  2.2927
 7288TIP3    H221829   2.069   1.035   4.065 -0.6331 -1.0009 -0.6826
 7289TIP3   OH221830   4.676   5.559   2.285  0.2385  0.2318  0.2505
 7289TIP3    H121831   4.755   5.517   2.250 -0.6023 -0.7794 -0.5246
 7289TIP3    H221832   4.659   5.513   2.367  0.9619  1.0938  0.9054
 7290TIP3   OH221833   3.505   3.913   2.736  0.5153  0.1762 -0.2305
 7290TIP3    H121834   3.518   3.920   2.830 -0.3537  1.2227 -0.1630
 7290TIP3    H221835   3.580   3.862   2.704  1.0125  0.1392  0.9671
 7291TIP3   OH221836   2.433   5.263   1.643 -0.0955  0.7071 -0.1383
 7291TIP3    H121837   2.472   5.315   1.713  0.3718  1.9296 -1.2794
 7291TIP3    H221838   2.481   5.180   1.645 -1.1902  0.0399  2.0287
 7292TIP3   OH221839   3.513   2.359   4.271  0.3973 -0.2187  0.2899
 7292TIP3    H121840   3.586   2.376   4.330  0.8429 -1.4835  0.1351
 7292TIP3    H221841   3.463   2.290   4.315 -0.8784  0.8161  0.5239
 7293TIP3   OH221842   4.203   6.142   3.305  0.0884 -0.4140  0.3570
 7293TIP3    H121843   4.249   6.202   3.247 -1.7685  0.9991  0.2690
 7293TIP3    H221844   4.156   6.083   3.246  1.2935 -1.5277  0.4533
 7294TIP3   OH221845   1.657   6.728   0.355  0.0214 -0.1193  0.2501
 7294TIP3    H121846   1.681   6.770   0.438  0.3573  0.3165 -0.0657
 7294TIP3    H221847   1.588   6.666   0.379 -0.5057  0.6311  0.7123
 7295TIP3   OH221848   2.745   1.281   4.667 -0.0052 -0.0662  0.1228
 7295TIP3    H121849   2.731   1.237   4.751  0.7131  0.0975  0.3323
 7295TIP3    H221850   2.815   1.343   4.684  0.6290 -0.5187 -0.7840
 7296TIP3   OH221851   1.099   0.733   0.465 -0.3005 -0.0772 -0.3315
 7296TIP3    H121852   1.072   0.642   0.448  0.4113 -0.2627 -0.4984
 7296TIP3    H221853   1.017   0.780   0.478 -0.6803 -0.7430 -0.2613
 7297TIP3   OH221854   6.272   4.816   2.662  0.0870  0.8579  0.1363
 7297TIP3    H121855   6.221   4.771   2.595 -0.0527 -0.9877  1.3977
 7297TIP3    H221856   6.228   4.900   2.674 -1.6052  0.0381 -0.0576
 7298TIP3   OH221857   1.182   6.636   3.978 -0.2368  0.4705 -0.0377
 7298TIP3    H121858   1.153   6.634   4.069 -0.2943 -1.0543 -0.0603
 7298TIP3    H221859   1.115   6.585   3.931 -0.9916  2.3985 -1.1984
 7299TIP3   OH221860   6.927   2.294   5.684 -0.1264 -0.6049 -0.3173
 7299TIP3    H121861   6.923   2.338   5.599 -1.2826  1.3563  0.6872
 7299TIP3    H221862   6.893   2.206   5.667 -1.4380  0.1273 -1.6836
 7300TIP3   OH221863   1.658   5.918   2.846 -0.3507 -0.0920  0.0409
 7300TIP3    H121864   1.665   5.885   2.936  0.2004  0.3803  0.1748
 7300TIP3    H221865   1.703   6.003   2.848 -1.6042  0.6083 -0.3333
 7301TIP3   OH221866   3.729   5.489   4.607 -0.7106 -0.5273  0.3080
 7301TIP3    H121867   3.824   5.492   4.617 -0.9831  0.9054  3.4518
 7301TIP3    H221868   3.704   5.400   4.633 -0.3006 -0.6849  0.1610
 7302TIP3   OH221869   4.817   3.329   4.026 -0.1478 -0.4356  0.1544
 7302TIP3    H121870   4.879   3.261   4.052 -0.0037 -0.1933  0.4585
 7302TIP3    H221871   4.769   3.291   3.953  0.0791 -0.7814  0.1808
 7303TIP3   OH221872   5.314   1.574   1.262 -0.0677  0.0135 -0.2452
 7303TIP3    H121873   5.225   1.607   1.254  0.0496  1.0808  2.0709
 7303TIP3    H221874   5.353   1.625   1.333  1.5755 -2.1317  0.5378
 7304TIP3   OH221875   3.292   3.036   4.513  0.7243  0.1148  0.0938
 7304TIP3    H121876   3.353   3.086   4.459 -0.1822  0.7433 -0.3790
 7304TIP3    H221877   3.286   3.085   4.595  0.4668  0.3415 -0.0579
 7305TIP3   OH221878   3.596   1.798   3.323 -0.2146  0.2841 -0.2950
 7305TIP3    H121879   3.658   1.784   3.251  2.6298  2.0368  1.5974
 7305TIP3    H221880   3.510   1.791   3.282  1.1909 -0.9655 -3.3849
 7306TIP3   OH221881   3.829   6.431   3.599  0.4158 -0.3116 -0.0033
 7306TIP3    H121882   3.905   6.397   3.551  0.7328  1.6783 -1.0301
 7306TIP3    H221883   3.757   6.427   3.535  0.0142 -0.8209  0.4801
 7307TIP3   OH221884   1.169   3.664   2.090  0.0565  0.2908  0.3277
 7307TIP3    H121885   1.131   3.734   2.036 -1.4566 -0.2501  0.6306
 7307TIP3    H221886   1.262   3.666   2.070 -0.1409  1.5688 -0.6139
 7308TIP3   OH221887   0.551   2.268   3.404  0.2157 -0.6301  0.0272
 7308TIP3    H121888   0.565   2.338   3.340 -1.0048 -0.6644 -0.3088
 7308TIP3    H221889   0.531   2.191   3.351  2.9421 -1.6473  0.3321
 7309TIP3   OH221890   1.896   4.308   0.910  0.6739 -0.0877  0.2794
 7309TIP3    H121891   1.988   4.282   0.916  0.2840 -1.4035  0.8968
 7309TIP3    H221892   1.898   4.403   0.911  1.9343 -0.0763  2.0803
 7310TIP3   OH221893   5.385   6.177   5.851  0.2176 -0.3267  0.5039
 7310TIP3    H121894   5.340   6.152   5.933  0.3124  0.5743  0.8379
 7310TIP3    H221895   5.315   6.212   5.796  0.0231 -1.5838 -0.1034
 7311TIP3   OH221896   3.012   4.532   5.227  0.4740  0.4332 -0.1085
 7311TIP3    H121897   2.921   4.560   5.218  0.6879  1.0617 -0.3408
 7311TIP3    H221898   3.041   4.568   5.311  0.4961  0.1920 -0.0109
 7312TIP3   OH221899   0.230   0.694   5.096 -0.0129  0.4609 -0.0551
 7312TIP3    H121900   0.149   0.646   5.078  1.4964 -1.4417 -2.6122
 7312TIP3    H221901   0.201   0.783   5.117 -2.7382 -0.0960 -0.9785
 7313TIP3   OH221902   2.906   3.585   2.142  1.2586  0.4324 -0.3662
 7313TIP3    H121903   2.967   3.593   2.069 -0.1017 -1.1002 -1.7639
 7313TIP3    H221904   2.935   3.508   2.190 -1.6777 -2.9987 -3.4389
 7314TIP3   OH221905   3.630   5.904   4.584  0.1905  0.4186  0.3409
 7314TIP3    H121906   3.632   5.931   4.676 -0.9069 -0.6723  0.7198
 7314TIP3    H221907   3.656   5.983   4.535  0.9907  0.9580  1.5775
 7315TIP3   OH221908   3.696   3.524   1.946  0.5983 -0.2151 -0.1368
 7315TIP3    H121909   3.698   3.455   1.880  0.1523  0.0246 -0.4093
 7315TIP3    H221910   3.680   3.478   2.028 -1.7168 -0.2785 -0.5735
 7316TIP3   OH221911   0.626   0.777   1.829 -0.2071  0.0263 -0.0891
 7316TIP3    H121912   0.556   0.801   1.768 -2.4044 -0.7538  2.0205
 7316TIP3    H221913   0.612   0.685   1.848 -0.1816  0.4527  2.3014
 7317TIP3   OH221914   1.944   4.463   5.734 -0.2028 -0.6052 -0.3446
 7317TIP3    H121915   2.032   4.428   5.742  0.1036  0.5053  3.2999
 7317TIP3    H221916   1.957   4.556   5.713 -0.5605 -0.7022 -1.0054
 7318TIP3   OH221917   1.323   0.656   2.676 -0.0644  0.1220 -0.3874
 7318TIP3    H121918   1.330   0.725   2.742  1.1925 -0.2251 -0.1325
 7318TIP3    H221919   1.328   0.574   2.726 -0.3418 -0.1570 -0.8050
 7319TIP3   OH221920   3.521   5.286   2.473  0.0677  0.0871 -0.2608
 7319TIP3    H121921   3.486   5.198   2.457  0.6077  0.3537 -3.5593
 7319TIP3    H221922   3.610   5.283   2.436  0.3106  1.8709  0.1080
 7320TIP3   OH221923   0.995   6.680   3.517 -0.2915  0.0849  0.3451
 7320TIP3    H121924   0.922   6.626   3.547  0.3233 -0.7565  0.3759
 7320TIP3    H221925   1.046   6.622   3.460  2.1216 -0.4493  2.8143
 7321TIP3   OH221926   5.234   1.438   0.464  0.3376  0.0921 -0.2680
 7321TIP3    H121927   5.263   1.347   0.457  3.2948  1.0187 -1.7834
 7321TIP3    H221928   5.299   1.480   0.520 -0.8047  1.3627  0.1593
 7322TIP3   OH221929   6.743   2.229   0.347 -0.1346  0.5063 -0.2974
 7322TIP3    H121930   6.660   2.216   0.394 -0.5466  0.2322 -1.0729
 7322TIP3    H221931   6.792   2.147   0.361  0.2132  0.8513  0.5521
 7323TIP3   OH221932   0.744   2.558   0.654 -0.6616  0.3483 -0.2879
 7323TIP3    H121933   0.839   2.560   0.664 -0.5639 -2.0408  0.0004
 7323TIP3    H221934   0.726   2.476   0.607 -2.4760  1.7249 -2.1690
 7324TIP3   OH221935   4.955   2.230   2.996  0.2085 -0.0469  0.5974
 7324TIP3    H121936   4.950   2.289   2.921 -1.1775 -0.7487  0.0821
 7324TIP3    H221937   5.041   2.245   3.034  0.5654  1.0078 -0.5734
 7325TIP3   OH221938   2.490   3.913   4.523 -0.0444  0.2689 -0.0060
 7325TIP3    H121939   2.428   3.840   4.520 -0.2464  0.4528 -0.3925
 7325TIP3    H221940   2.470   3.965   4.445  2.3712 -1.0804 -1.6402
 7326TIP3   OH221941   4.468   5.116   4.916 -0.4897  0.4487  0.0218
 7326TIP3    H121942   4.483   5.048   4.982 -0.3506  0.7977  0.3508
 7326TIP3    H221943   4.482   5.198   4.962 -0.7575  0.7074 -0.3506
 7327TIP3   OH221944   2.742   5.232   3.911  0.3296  0.3304 -0.3678
 7327TIP3    H121945   2.784   5.174   3.975  2.6834  2.3325  0.0661
 7327TIP3    H221946   2.656   5.251   3.948  0.0126 -1.7684  0.1113
 7328TIP3   OH221947   5.828   5.847   0.740  0.4116 -0.5978 -0.1406
 7328TIP3    H121948   5.870   5.919   0.786  0.7259 -1.6325  1.2709
 7328TIP3    H221949   5.877   5.769   0.767 -1.1053 -1.5823 -0.0870
 7329TIP3   OH221950   2.337   0.691   4.623 -0.6241  0.0617  0.4689
 7329TIP3    H121951   2.261   0.747   4.631 -0.7816 -0.2025  0.8509
 7329TIP3    H221952   2.388   0.707   4.703 -1.1444 -1.0267  1.0439
 7330TIP3   OH221953   3.568   2.437   4.024  0.3522  0.1417 -0.1427
 7330TIP3    H121954   3.563   2.416   4.118 -0.1459  4.0761  0.8700
 7330TIP3    H221955   3.662   2.433   4.004  0.4553 -0.8392  0.4435
 7331TIP3   OH221956   3.026   2.048   4.433 -0.1701 -0.0973  0.1156
 7331TIP3    H121957   3.058   2.011   4.351 -2.4396 -1.0313 -0.3984
 7331TIP3    H221958   3.070   1.996   4.501  0.5218 -0.3492 -0.5051
 7332TIP3   OH221959   5.422   2.426   3.397  0.0231 -0.3853  0.0170
 7332TIP3    H121960   5.368   2.347   3.397  0.9710 -1.1487  2.9606
 7332TIP3    H221961   5.360   2.498   3.410 -0.5258 -1.0758  1.4158
 7333TIP3   OH221962   6.202   5.229   2.523  0.2823 -0.0279  0.3738
 7333TIP3    H121963   6.183   5.262   2.611 -1.0710  0.1654  0.0295
 7333TIP3    H221964   6.164   5.142   2.521 -0.6141  0.3649 -0.3395
 7334TIP3   OH221965   6.998   3.976   5.638  0.0557 -0.1120 -1.1099
 7334TIP3    H121966   6.997   4.059   5.685  1.3053 -0.3552 -0.6324
 7334TIP3    H221967   7.090   3.959   5.620 -0.1765 -1.4371 -1.1330
 7335TIP3   OH221968   0.131   4.250   0.549 -0.0385  0.6402  0.4238
 7335TIP3    H121969   0.083   4.287   0.623  1.6663 -1.1314  2.5819
 7335TIP3    H221970   0.114   4.156   0.553 -0.3916  0.5466 -1.8793
 7336TIP3   OH221971   1.109   2.139   2.703  0.7336  0.1688  0.2533
 7336TIP3    H121972   1.138   2.216   2.753  0.5183  0.0122  0.6231
 7336TIP3    H221973   1.064   2.176   2.627  1.4229  0.4094 -0.0436
 7337TIP3   OH221974   1.353   3.218   1.651  0.2832  0.3060 -0.1755
 7337TIP3    H121975   1.320   3.295   1.605  1.3764  0.7766 -0.1890
 7337TIP3    H221976   1.439   3.244   1.685 -0.4611 -0.0141  2.1543
 7338TIP3   OH221977   4.758   4.172   2.025  0.5183  0.1605 -0.7536
 7338TIP3    H121978   4.843   4.163   2.068  1.0160  0.9464 -1.5393
 7338TIP3    H221979   4.751   4.265   2.004 -0.5455  0.1050 -0.6950
 7339TIP3   OH221980   4.668   1.668   0.973 -0.7466 -0.2720  0.1604
 7339TIP3    H121981   4.691   1.585   1.014  0.6217 -0.0840 -0.1649
 7339TIP3    H221982   4.749   1.696   0.929 -1.0314  1.4768  0.6741
 7340TIP3   OH221983   4.795   1.079   4.002  0.2633  0.4455 -0.1749
 7340TIP3    H121984   4.827   1.139   4.069 -0.8172 -0.4775  1.2081
 7340TIP3    H221985   4.710   1.050   4.034  0.2917 -1.0262 -1.3239
 7341TIP3   OH221986   6.099   1.814   5.550  0.5864  0.3860 -0.0539
 7341TIP3    H121987   6.080   1.853   5.465 -0.2238  0.0918 -0.0072
 7341TIP3    H221988   6.100   1.720   5.534  0.2654  0.3236  0.2979
 7342TIP3   OH221989   2.809   0.663   4.065 -0.7477 -0.1523  0.8875
 7342TIP3    H121990   2.773   0.750   4.082  0.4842  0.2443  1.5929
 7342TIP3    H221991   2.742   0.619   4.013 -0.1999  2.2024 -2.0901
 7343TIP3   OH221992   1.791   5.395   5.586  0.3599  0.6866 -0.6454
 7343TIP3    H121993   1.756   5.366   5.501 -0.1936 -0.6964  0.0276
 7343TIP3    H221994   1.723   5.453   5.621  0.4556  1.0194 -0.9892
 7344TIP3   OH221995   2.096   5.871   1.745  0.2938  0.0452  0.1426
 7344TIP3    H121996   2.158   5.800   1.763  2.1418  1.1096 -1.6365
 7344TIP3    H221997   2.112   5.894   1.653 -1.6411  1.4526  0.1059
 7345TIP3   OH221998   4.198   6.594   1.707 -0.0289 -0.1778  0.5909
 7345TIP3    H121999   4.190   6.499   1.712 -1.8849 -0.0860  0.1271
 7345TIP3    H222000   4.256   6.618   1.780  2.8582 -1.8586 -0.9479
 7346TIP3   OH222001   0.222   3.465   0.239 -0.2435  0.0904 -0.1068
 7346TIP3    H122002   0.290   3.517   0.196 -0.4264  0.9767  0.6491
 7346TIP3    H222003   0.257   3.449   0.327 -1.8184  2.2645  0.9939
 7347TIP3   OH222004   4.791   0.239   0.093 -0.1745 -0.7623  0.2062
 7347TIP3    H122005   4.765   0.306   0.157  0.8474  0.0003 -0.1545
 7347TIP3    H222006   4.856   0.186   0.139  1.7600  0.7554 -0.6553
 7348TIP3   OH222007   2.393   6.106   2.026  0.1795 -0.3190 -0.0186
 7348TIP3    H122008   2.468   6.146   2.070 -0.3509  1.9953 -1.0381
 7348TIP3    H222009   2.320   6.119   2.086 -0.0770  0.6928 -0.5284
 7349TIP3   OH222010   5.661   3.852   3.422 -0.2174  0.0599 -0.4284
 7349TIP3    H122011   5.755   3.859   3.440 -0.7574  1.2054  2.5106
 7349TIP3    H222012   5.652   3.769   3.374  2.1060 -1.0290  0.8372
 7350TIP3   OH222013   3.096   0.929   4.262  0.1026  0.4855 -0.8021
 7350TIP3    H122014   3.175   0.983   4.266  1.1603 -0.9392 -1.6779
 7350TIP3    H222015   3.066   0.936   4.171 -0.5026  0.6159 -0.5996
 7351TIP3   OH222016   3.010   0.214   3.984  0.0918  0.2336  0.2028
 7351TIP3    H122017   2.984   0.293   3.936 -0.0518  0.3347  0.4484
 7351TIP3    H222018   2.937   0.197   4.043  0.1157 -0.0937  0.1372
 7352TIP3   OH222019   4.656   6.129   1.813  0.1737  0.9309  0.0612
 7352TIP3    H122020   4.580   6.187   1.806 -0.7675 -0.1924  0.6292
 7352TIP3    H222021   4.718   6.162   1.748 -0.4223  2.4097  0.1962
 7353TIP3   OH222022   5.856   0.171   1.076 -0.4998  0.1200  0.1017
 7353TIP3    H122023   5.869   0.086   1.033 -0.0266  0.5912 -0.7098
 7353TIP3    H222024   5.923   0.228   1.038 -0.2785  0.6488  1.2339
 7354TIP3   OH222025   0.545   4.459   1.317  0.5716  0.3363  0.0852
 7354TIP3    H122026   0.574   4.481   1.406  3.5614  2.4680 -1.2584
 7354TIP3    H222027   0.620   4.416   1.276  0.0540  1.3045 -2.0325
 7355TIP3   OH222028   3.784   4.559   5.473 -0.0401  0.1120  0.3767
 7355TIP3    H122029   3.771   4.653   5.463 -1.2025 -0.0228  0.5215
 7355TIP3    H222030   3.877   4.545   5.453  0.3155  1.3819  1.0484
 7356TIP3   OH222031   2.077   4.924   0.280  0.4438  0.0153 -0.1583
 7356TIP3    H122032   2.061   4.915   0.374  0.1630 -0.4443 -0.2481
 7356TIP3    H222033   2.001   4.972   0.247  0.1995 -0.4389 -0.2629
 7357TIP3   OH222034   1.455   0.629   4.628  0.1560 -0.1159 -0.2574
 7357TIP3    H122035   1.406   0.548   4.613  0.3838 -0.4251  0.6569
 7357TIP3    H222036   1.472   0.630   4.722  0.2244  0.9591 -0.2736
 7358TIP3   OH222037   4.357   3.523   1.373  0.7402  0.5487  0.3559
 7358TIP3    H122038   4.441   3.519   1.419  1.8023  0.8973 -1.4847
 7358TIP3    H222039   4.372   3.581   1.299 -0.9315  0.0339 -0.4416
 7359TIP3   OH222040   2.207   5.428   1.633  0.1294  0.1674 -0.2818
 7359TIP3    H122041   2.225   5.334   1.636 -0.2343  0.1243  1.6154
 7359TIP3    H222042   2.112   5.435   1.623  0.2541  0.3698 -1.5396
 7360TIP3   OH222043   6.338   2.763   1.178  0.0483  0.2002 -0.5784
 7360TIP3    H122044   6.358   2.856   1.174 -0.6660  0.5929  2.4829
 7360TIP3    H222045   6.422   2.721   1.198 -0.1237  0.5934  1.1288
 7361TIP3   OH222046   6.166   6.164   3.996  0.5729 -0.3828 -0.4023
 7361TIP3    H122047   6.157   6.070   3.981 -0.7760 -0.4968  0.8718
 7361TIP3    H222048   6.118   6.206   3.924  2.4936 -0.5832 -1.8631
 7362TIP3   OH222049   4.138   1.732   1.806 -0.4103  0.1464 -0.5461
 7362TIP3    H122050   4.065   1.755   1.862 -0.6117 -0.2640 -0.6334
 7362TIP3    H222051   4.216   1.764   1.852 -0.5865 -0.0341 -0.1179
 7363TIP3   OH222052   6.771   6.545   0.483 -0.7437  0.2163  0.4401
 7363TIP3    H122053   6.758   6.495   0.564  0.3019 -0.3955  0.2553
 7363TIP3    H222054   6.809   6.628   0.512 -1.6150  0.5461  0.6733
 7364TIP3   OH222055   5.176   5.098   3.672 -0.0698 -0.1688  0.4964
 7364TIP3    H122056   5.186   5.047   3.591  1.1802 -2.0548  1.7531
 7364TIP3    H222057   5.133   5.037   3.733  0.3506  0.7046  1.6964
 7365TIP3   OH222058   2.832   5.945   3.156 -1.0973 -0.2682  0.2227
 7365TIP3    H122059   2.748   5.979   3.125 -0.3206  0.9666 -0.6483
 7365TIP3    H222060   2.895   6.013   3.132  0.6539 -2.4897 -2.0175
 7366TIP3   OH222061   6.244   5.153   0.987  0.0620  0.2103 -0.6178
 7366TIP3    H122062   6.266   5.219   0.921 -0.3913  1.0036  0.0073
 7366TIP3    H222063   6.327   5.110   1.007  0.0693 -0.6617 -2.3314
 7367TIP3   OH222064   5.777   2.520   1.448 -0.4310  0.3630 -0.9356
 7367TIP3    H122065   5.774   2.603   1.402  0.4717  0.8669 -0.1176
 7367TIP3    H222066   5.685   2.500   1.469 -0.5515  1.8119  0.0191
 7368TIP3   OH222067   5.879   0.507   1.391 -0.5210 -0.3049 -0.5367
 7368TIP3    H122068   5.913   0.580   1.339 -0.6534 -0.6267 -1.0817
 7368TIP3    H222069   5.881   0.539   1.481 -3.0231  1.3672 -0.9764
 7369TIP3   OH222070   3.846   6.661   3.351  0.6401 -0.3844 -0.2466
 7369TIP3    H122071   3.766   6.683   3.399 -0.2276  0.4626 -1.9933
 7369TIP3    H222072   3.819   6.591   3.292  1.3739 -0.5563 -0.3869
 7370TIP3   OH222073   2.033   2.724   4.776  0.0442  0.1349 -0.8442
 7370TIP3    H122074   2.043   2.750   4.685  0.6598  0.2173 -0.7629
 7370TIP3    H222075   1.949   2.678   4.780  0.6555 -1.1126 -1.7537
 7371TIP3   OH222076   3.888   2.589   3.257 -0.1592 -0.5898  0.5834
 7371TIP3    H122077   3.983   2.584   3.262  0.1130  1.7715 -0.7463
 7371TIP3    H222078   3.869   2.581   3.164 -0.9981  1.5849  0.5206
 7372TIP3   OH222079   1.601   2.412   2.954  0.3795  0.2374 -0.1990
 7372TIP3    H122080   1.659   2.415   2.878  1.3591 -0.2433  0.5081
 7372TIP3    H222081   1.649   2.362   3.019 -1.2342 -1.0413  0.0860
 7373TIP3   OH222082   5.746   5.452   4.752  0.7055 -0.1888  0.4563
 7373TIP3    H122083   5.722   5.397   4.827 -2.9466 -1.0109 -1.0737
 7373TIP3    H222084   5.711   5.406   4.676  0.5826  2.5436 -1.2971
 7374TIP3   OH222085   2.604   0.815   1.423 -0.1792 -0.1860  0.0301
 7374TIP3    H122086   2.668   0.768   1.370 -0.2723 -0.2445 -0.0318
 7374TIP3    H222087   2.598   0.765   1.504  0.9735  0.6649  0.6609
 7375TIP3   OH222088   7.089   3.779   4.293 -0.0391 -0.3490  0.1676
 7375TIP3    H122089   7.139   3.765   4.373  1.5364 -1.0015 -0.8890
 7375TIP3    H222090   7.042   3.861   4.308  1.6247  0.4732  1.0735
 7376TIP3   OH222091   0.269   3.906   1.381  0.1574 -0.2956  0.0809
 7376TIP3    H122092   0.294   3.956   1.303 -0.5503 -0.7292 -0.4419
 7376TIP3    H222093   0.295   3.961   1.455  1.1967 -0.0464 -0.4493
 7377TIP3   OH222094   5.520   3.453   2.960 -0.1044  0.1997 -0.2308
 7377TIP3    H122095   5.555   3.515   2.896  0.9497 -0.0021  0.1241
 7377TIP3    H222096   5.508   3.372   2.910  2.3546 -0.4748  0.1355
 7378TIP3   OH222097   5.899   0.930   2.526  0.1114  0.1489  0.2250
 7378TIP3    H122098   5.946   1.011   2.546  0.3009 -0.1180  0.8742
 7378TIP3    H222099   5.967   0.865   2.508  0.0167 -0.3342  1.5466
 7379TIP3   OH222100   5.757   6.624   5.192  0.0554 -0.6041  0.2346
 7379TIP3    H122101   5.802   6.705   5.169 -1.1830  0.4826  1.4609
 7379TIP3    H222102   5.814   6.581   5.255 -0.0702  0.2112  0.9283
 7380TIP3   OH222103   6.771   6.528   3.060 -0.2784  0.1440  0.0059
 7380TIP3    H122104   6.824   6.451   3.081  1.5538  1.6206  1.1896
 7380TIP3    H222105   6.814   6.565   2.982 -0.2528  0.7130  0.2824
 7381TIP3   OH222106   3.386   0.824   1.989  0.2677 -0.1393  0.0272
 7381TIP3    H122107   3.306   0.875   1.985 -0.1243 -0.5650  1.7574
 7381TIP3    H222108   3.365   0.742   1.945 -0.0934 -0.0692  0.0724
 7382TIP3   OH222109   4.511   3.835   2.537  0.3466  0.6088  0.1016
 7382TIP3    H122110   4.508   3.818   2.443 -0.0987  1.4178 -0.0462
 7382TIP3    H222111   4.489   3.752   2.578  0.4013  0.2875 -0.5122
 7383TIP3   OH222112   1.734   5.703   0.637 -0.2798 -0.1681  0.3568
 7383TIP3    H122113   1.813   5.752   0.659  0.2528 -0.5126 -0.7004
 7383TIP3    H222114   1.757   5.611   0.655 -0.1873 -0.3414 -0.5553
 7384TIP3   OH222115   1.684   3.555   4.737 -0.2312  0.5633  0.4079
 7384TIP3    H122116   1.739   3.605   4.796 -1.2539  0.4286  1.5185
 7384TIP3    H222117   1.604   3.607   4.729  0.9492  2.1586 -3.3542
 7385TIP3   OH222118   3.136   1.465   5.390 -0.1121  0.7647  0.2273
 7385TIP3    H122119   3.098   1.428   5.470 -0.5077 -4.1442 -1.8588
 7385TIP3    H222120   3.229   1.446   5.396 -0.2086 -0.0371 -0.5857
 7386TIP3   OH222121   1.247   4.491   3.471  0.5198  0.6717 -0.3722
 7386TIP3    H122122   1.251   4.404   3.509 -0.2430 -0.1270 -2.0161
 7386TIP3    H222123   1.337   4.510   3.443  0.4491 -0.1627 -1.1984
 7387TIP3   OH222124   5.346   5.330   1.626  0.0183  0.5669  0.4215
 7387TIP3    H122125   5.261   5.316   1.667 -0.7161  0.0007 -1.2280
 7387TIP3    H222126   5.328   5.333   1.532  2.1623 -2.9149 -0.3062
 7388TIP3   OH222127   4.028   1.991   5.626 -0.1136 -0.0677  0.0741
 7388TIP3    H122128   4.001   1.939   5.549 -0.5457 -0.8007  0.7031
 7388TIP3    H222129   4.064   1.927   5.687  0.3755  0.5313  0.4235
 7389TIP3   OH222130   2.302   4.666   5.498  0.1125 -0.2821  0.2715
 7389TIP3    H122131   2.315   4.571   5.497  0.2824 -0.2610 -0.4561
 7389TIP3    H222132   2.360   4.698   5.429  0.4601  0.4105  0.8761
 7390TIP3   OH222133   3.407   5.963   1.929 -0.5768 -0.2005  0.1678
 7390TIP3    H122134   3.334   5.981   1.870 -0.8481 -1.0659  0.2235
 7390TIP3    H222135   3.426   6.047   1.969 -0.4591  0.3798 -1.0638
 7391TIP3   OH222136   2.588   5.970   0.191  0.3469  0.3754 -0.2885
 7391TIP3    H122137   2.602   5.978   0.286 -2.1800  0.1714  0.1832
 7391TIP3    H222138   2.527   5.897   0.182 -0.3916  1.1327 -1.9620
 7392TIP3   OH222139   4.534   3.204   0.490 -0.0107  0.1251  0.1441
 7392TIP3    H122140   4.566   3.294   0.491 -1.5182  0.6819  1.2945
 7392TIP3    H222141   4.483   3.195   0.570 -1.2896 -1.2464 -0.7708
 7393TIP3   OH222142   3.880   4.480   1.525 -0.5099  0.2378 -0.2252
 7393TIP3    H122143   3.787   4.501   1.514 -0.0173  2.2973 -0.9038
 7393TIP3    H222144   3.881   4.385   1.539 -2.9091  0.4798  2.4815
 7394TIP3   OH222145   1.876   0.049   2.530  0.5532  0.4751 -0.5238
 7394TIP3    H122146   1.896   0.112   2.461  1.2964  0.6414 -0.1747
 7394TIP3    H222147   1.837  -0.026   2.485  0.8755  0.6533 -1.0990
 7395TIP3   OH222148   3.085   2.385   3.982 -0.2049 -0.2094 -0.9028
 7395TIP3    H122149   3.064   2.345   4.067 -0.0317 -0.1738 -0.8437
 7395TIP3    H222150   3.045   2.472   3.987  0.8510  0.2618 -0.3767
 7396TIP3   OH222151   2.503   5.012   1.745  0.3291  0.4353 -0.6458
 7396TIP3    H122152   2.542   4.947   1.686 -1.9183 -0.5963 -1.1095
 7396TIP3    H222153   2.574   5.037   1.804  0.8598 -4.1627  1.0413
 7397TIP3   OH222154   5.027   1.042   1.416  0.2978 -0.6223 -0.3552
 7397TIP3    H122155   5.077   0.985   1.475 -0.6381 -1.3769 -0.2609
 7397TIP3    H222156   4.994   1.111   1.473 -0.6059 -1.3501  0.0445
 7398TIP3   OH222157   5.754   1.943   5.669  0.5366 -0.3687  0.2781
 7398TIP3    H122158   5.795   2.029   5.669 -0.5429  0.1709 -0.2705
 7398TIP3    H222159   5.778   1.905   5.754 -3.2686  2.6766  3.1457
 7399TIP3   OH222160   5.664   1.869   4.877  0.2861 -0.1753 -0.5999
 7399TIP3    H122161   5.650   1.833   4.964  0.5483 -1.0054 -0.8836
 7399TIP3    H222162   5.623   1.806   4.818 -0.7424  0.8707 -1.0370
 7400TIP3   OH222163   6.149   1.205   3.292 -0.2123 -0.6505 -0.1116
 7400TIP3    H122164   6.103   1.274   3.243 -0.7632 -0.7573  0.2362
 7400TIP3    H222165   6.236   1.241   3.308 -0.1761 -0.4317 -0.7743
 7401TIP3   OH222166   4.488   0.480   2.307  0.1390 -0.0473  0.6782
 7401TIP3    H122167   4.486   0.400   2.359  2.5252 -1.4484 -1.2037
 7401TIP3    H222168   4.415   0.472   2.247  0.1738 -0.6693  0.7143
 7402TIP3   OH222169   2.394   0.152   1.497 -0.3434  0.6138 -0.1879
 7402TIP3    H122170   2.352   0.096   1.432 -1.2262  0.5581  0.4277
 7402TIP3    H222171   2.357   0.239   1.481 -2.6806  0.1136  1.9765
 7403TIP3   OH222172   2.249   6.331   2.736  0.7961 -0.1191 -0.2778
 7403TIP3    H122173   2.189   6.279   2.790  0.5917  0.0984 -0.2943
 7403TIP3    H222174   2.303   6.379   2.799 -0.3731  1.2178 -0.2445
 7404TIP3   OH222175   4.431   2.427   3.148 -0.3083  0.5199  0.0424
 7404TIP3    H122176   4.367   2.357   3.152  0.2345  0.0180  0.0693
 7404TIP3    H222177   4.495   2.405   3.216  0.9926 -0.0787 -1.3357
 7405TIP3   OH222178   1.400   5.154   5.797  0.2887  0.0808 -0.4604
 7405TIP3    H122179   1.338   5.148   5.724  2.1768 -1.9216 -2.0255
 7405TIP3    H222180   1.386   5.073   5.847 -0.7217  1.2571  1.2467
 7406TIP3   OH222181   1.522   5.245   2.808 -0.7641 -0.2855  0.5135
 7406TIP3    H122182   1.581   5.320   2.811  0.5411 -1.2002 -0.8784
 7406TIP3    H222183   1.435   5.282   2.824 -0.5303  1.9652 -2.5382
 7407TIP3   OH222184   5.458   2.059   3.653  0.4925  0.1643  0.1065
 7407TIP3    H122185   5.504   2.125   3.601  1.3640  1.9881  2.9519
 7407TIP3    H222186   5.510   1.979   3.641 -0.4650 -0.1236 -3.2362
 7408TIP3   OH222187   2.135   2.399   5.404 -0.0148  0.4483 -0.0805
 7408TIP3    H122188   2.083   2.439   5.474 -0.2767  0.4129 -0.2541
 7408TIP3    H222189   2.223   2.391   5.442 -0.3561 -0.4156  0.5874
 7409TIP3   OH222190   7.126   4.470   2.227  0.5987 -0.2220  0.0684
 7409TIP3    H122191   7.204   4.513   2.192  0.3356 -0.3162 -0.6386
 7409TIP3    H222192   7.074   4.540   2.265  0.9640 -0.1436  0.4411
 7410TIP3   OH222193   1.561   4.171   2.328 -0.3576  0.2069  0.2289
 7410TIP3    H122194   1.617   4.094   2.338 -0.7154 -0.2791 -1.2195
 7410TIP3    H222195   1.612   4.230   2.272 -0.6265  0.4521  0.2442
 7411TIP3   OH222196   4.044   4.881   5.147  0.3183 -0.6463 -0.1233
 7411TIP3    H122197   3.996   4.940   5.089  0.1460  1.2021  1.7453
 7411TIP3    H222198   4.121   4.855   5.097  1.7397  3.1966 -0.3228
 7412TIP3   OH222199   6.570   1.636   3.871  0.3748  0.1751  0.5333
 7412TIP3    H122200   6.533   1.630   3.783  0.2722  0.7030  0.5378
 7412TIP3    H222201   6.494   1.638   3.929  0.4485 -0.9309  0.6951
 7413TIP3   OH222202   2.760   5.850   2.365  0.2126  0.3029  0.4347
 7413TIP3    H122203   2.750   5.940   2.395  1.4400  0.5098  0.2576
 7413TIP3    H222204   2.751   5.855   2.269 -1.8291 -0.0917  0.5570
 7414TIP3   OH222205   5.092   5.020   2.416 -0.3030  0.0060  0.5272
 7414TIP3    H122206   5.168   4.964   2.406  1.4784  2.1145  1.3268
 7414TIP3    H222207   5.025   4.965   2.456  1.1385 -1.6578  0.7204
 7415TIP3   OH222208   5.177   1.664   4.434 -0.4681 -0.0575 -0.3227
 7415TIP3    H122209   5.134   1.582   4.457  0.5240 -0.4581  0.1772
 7415TIP3    H222210   5.127   1.698   4.360 -0.2966 -1.6252 -1.2037
 7416TIP3   OH222211   1.683   2.665   3.686  0.0759  0.7084  0.5770
 7416TIP3    H122212   1.769   2.694   3.715  0.3679  1.3186 -0.8379
 7416TIP3    H222213   1.651   2.611   3.758  2.5704 -1.4085  0.2537
 7417TIP3   OH222214   2.254   5.789   4.383  0.0407 -0.3103 -0.1470
 7417TIP3    H122215   2.347   5.768   4.386 -0.0095 -1.1278 -2.3555
 7417TIP3    H222216   2.247   5.876   4.422  2.1315  0.8795 -2.2278
 7418TIP3   OH222217   3.945   0.556   2.280  0.3108 -0.0027  0.3832
 7418TIP3    H122218   3.882   0.492   2.245  0.6579 -0.4208  0.5104
 7418TIP3    H222219   3.895   0.606   2.344 -0.4653  1.0881 -1.0026
 7419TIP3   OH222220   5.335   2.354   0.991  0.4601  0.1531 -0.1486
 7419TIP3    H122221   5.242   2.352   0.968 -0.1004  0.4316  1.9441
 7419TIP3    H222222   5.355   2.265   1.020  0.9701 -0.0049 -0.9359
 7420TIP3   OH222223   0.635   2.786   2.162  0.1197 -0.0305  0.1101
 7420TIP3    H122224   0.672   2.781   2.250 -0.8171 -1.1493  0.4533
 7420TIP3    H222225   0.541   2.791   2.175  0.0132  0.7637 -0.8191
 7421TIP3   OH222226   4.914   2.627   0.870 -0.4947 -0.2405 -0.4985
 7421TIP3    H122227   4.867   2.587   0.797 -2.1301 -0.2714  0.5161
 7421TIP3    H222228   4.905   2.722   0.855 -0.6652 -0.2470 -0.4360
 7422TIP3   OH222229   5.410   4.463   1.247 -0.2653  0.1199 -0.1125
 7422TIP3    H122230   5.336   4.480   1.305 -1.0237 -0.8189 -0.7859
 7422TIP3    H222231   5.464   4.399   1.293 -0.3407  0.1279 -0.0152
 7423TIP3   OH222232   1.999   3.834   0.940 -0.2475 -0.2636 -0.1456
 7423TIP3    H122233   1.938   3.774   0.896 -2.0149 -1.4353  3.4809
 7423TIP3    H222234   1.947   3.913   0.955 -0.5277 -0.7738  1.7986
 7424TIP3   OH222235   1.759   3.582   3.279 -0.4356 -0.3787  0.2032
 7424TIP3    H122236   1.807   3.536   3.348  0.5041 -1.0528 -0.8748
 7424TIP3    H222237   1.814   3.658   3.258  0.7292 -1.6870 -1.7312
 7425TIP3   OH222238   3.976   3.482   2.320 -0.6651 -0.2098 -0.2123
 7425TIP3    H122239   3.982   3.479   2.224  1.3414  0.6125 -0.1559
 7425TIP3    H222240   4.046   3.542   2.347  0.0408 -1.8477  1.8659
 7426TIP3   OH222241   5.038   2.147   0.553 -0.1343 -0.4138  0.1934
 7426TIP3    H122242   5.023   2.055   0.530  0.4270 -0.0437 -1.7852
 7426TIP3    H222243   5.133   2.154   0.563 -0.1100  0.1044 -0.3839
 7427TIP3   OH222244   0.443   6.606   5.867  0.6724  0.3232 -0.3090
 7427TIP3    H122245   0.415   6.579   5.954  1.6165 -0.8671 -0.3475
 7427TIP3    H222246   0.366   6.649   5.829 -0.7567 -1.7600  0.0318
 7428TIP3   OH222247   4.600   0.183   3.811 -0.3237 -0.1236 -0.7181
 7428TIP3    H122248   4.651   0.103   3.797 -0.5992 -0.3755 -0.2769
 7428TIP3    H222249   4.529   0.157   3.869  0.0165  0.6102  0.0454
 7429TIP3   OH222250   6.529   2.969   3.451  0.0355 -0.7989 -0.4064
 7429TIP3    H122251   6.472   2.973   3.374 -0.4661 -0.8194 -0.0380
 7429TIP3    H222252   6.614   3.001   3.419  0.2478 -2.1966 -1.3364
 7430TIP3   OH222253   1.120   3.467   0.137 -0.4782  0.2125  0.2829
 7430TIP3    H122254   1.086   3.511   0.059  0.3764  0.4086  0.0092
 7430TIP3    H222255   1.060   3.394   0.152  1.1010 -1.8732 -2.4973
 7431TIP3   OH222256   0.525   1.269   2.839  0.1470 -1.1005  0.2305
 7431TIP3    H122257   0.433   1.295   2.842  0.6172  0.6752  1.7569
 7431TIP3    H222258   0.561   1.301   2.921  2.2408 -1.2944 -0.5487
 7432TIP3   OH222259   1.100   4.006   2.635 -0.5625 -0.0969 -0.3679
 7432TIP3    H122260   1.062   4.053   2.709 -0.9244 -0.2423 -0.4567
 7432TIP3    H222261   1.123   4.075   2.572  3.6711  0.4911  1.5258
 7433TIP3   OH222262   6.206   2.474   1.971  0.1546 -0.3095 -0.0316
 7433TIP3    H122263   6.237   2.385   1.987 -0.7043 -0.7082 -0.5313
 7433TIP3    H222264   6.253   2.503   1.893  2.1179  0.5347  1.3896
 7434TIP3   OH222265   4.597   3.259   4.955  0.5895  0.1842 -0.1622
 7434TIP3    H122266   4.557   3.334   4.911  0.6872 -0.8542 -2.1288
 7434TIP3    H222267   4.576   3.272   5.048 -0.6101  1.8865 -0.6174
 7435TIP3   OH222268   4.504   0.414   1.413 -0.0617  0.3088 -0.4826
 7435TIP3    H122269   4.578   0.455   1.367  1.4675  0.1679  1.7225
 7435TIP3    H222270   4.455   0.488   1.449 -0.5487  0.3608 -1.2125
 7436TIP3   OH222271   5.357   2.520   0.756 -0.2881  0.1778 -0.1317
 7436TIP3    H122272   5.316   2.489   0.675  1.5594 -0.1052 -1.0263
 7436TIP3    H222273   5.348   2.447   0.817  0.3366 -0.5352 -0.8653
 7437TIP3   OH222274   2.862   4.067   5.425  0.4298  0.3662  0.4557
 7437TIP3    H122275   2.909   4.148   5.408 -1.5406  1.6099  0.5108
 7437TIP3    H222276   2.811   4.051   5.345  1.4816 -1.3577  0.0922
 7438TIP3   OH222277   4.435   1.658   2.675  0.5460  0.4202 -0.1393
 7438TIP3    H122278   4.360   1.682   2.622  0.8664 -0.6189 -1.1047
 7438TIP3    H222279   4.475   1.741   2.700  0.4229  0.9311 -1.5947
 7439TIP3   OH222280   6.415   6.300   3.980  0.7900  0.4059 -0.0049
 7439TIP3    H122281   6.332   6.260   4.004  1.4618 -0.9319  0.2195
 7439TIP3    H222282   6.419   6.380   4.033 -0.4792  0.6712 -0.2741
 7440TIP3   OH222283   7.137   1.008   3.979 -0.2493  0.6174 -0.1961
 7440TIP3    H122284   7.130   1.102   3.964  0.1737  0.4589 -1.5292
 7440TIP3    H222285   7.231   0.992   3.988 -0.4066  0.5242  1.6669
 7441TIP3   OH222286   4.827   4.543   1.595 -0.7730  0.6581 -0.0879
 7441TIP3    H122287   4.824   4.635   1.569 -1.1230  0.3173 -1.3001
 7441TIP3    H222288   4.774   4.497   1.530 -0.0076 -0.4981  0.0698
 7442TIP3   OH222289   4.986   6.619   1.314 -0.0952  0.3568  0.2952
 7442TIP3    H122290   4.900   6.658   1.297 -0.0123  1.1393  1.4980
 7442TIP3    H222291   5.001   6.560   1.241 -0.6118  1.9880 -1.1870
 7443TIP3   OH222292   6.653   0.483   0.244  0.3649 -0.0990  0.3423
 7443TIP3    H122293   6.695   0.536   0.312  0.3795  1.9289 -1.1493
 7443TIP3    H222294   6.725   0.451   0.189  0.2511 -0.4011  0.3655
 7444TIP3   OH222295   5.346   6.443   3.298  0.1444 -0.4901  0.2295
 7444TIP3    H122296   5.375   6.488   3.377 -0.2220 -0.5244  0.3881
 7444TIP3    H222297   5.381   6.496   3.226  1.0619 -0.8453  0.4072
 7445TIP3   OH222298   1.781   5.688   4.759  0.1707 -0.4773  0.0693
 7445TIP3    H122299   1.839   5.764   4.769  0.1717 -0.3414 -0.8832
 7445TIP3    H222300   1.702   5.712   4.808 -0.1066  0.4414 -0.7970
 7446TIP3   OH222301   3.824   4.209   1.565  0.0119 -0.0379  0.3804
 7446TIP3    H122302   3.730   4.196   1.550 -0.5043  0.9179  2.4171
 7446TIP3    H222303   3.839   4.176   1.653  1.4461  0.4550  0.3473
 7447TIP3   OH222304   1.587   0.142   5.174  0.5168 -0.7056  0.3102
 7447TIP3    H122305   1.508   0.120   5.123  0.0709  0.4130  0.4771
 7447TIP3    H222306   1.629   0.058   5.191 -1.4865 -1.5157  1.5978
 7448TIP3   OH222307   3.967   1.288   4.793 -0.2378 -0.2105  0.0809
 7448TIP3    H122308   4.020   1.339   4.853 -0.8910  1.2314 -0.5081
 7448TIP3    H222309   3.890   1.263   4.844 -0.1169 -0.2192  0.2571
 7449TIP3   OH222310   7.174   5.869   4.869  0.1270 -0.0840 -0.0411
 7449TIP3    H122311   7.182   5.964   4.876 -0.4601 -0.1243  1.8732
 7449TIP3    H222312   7.090   5.849   4.910  0.5319 -1.4832  0.1784
 7450TIP3   OH222313   4.618   0.809   1.122 -0.8541  0.1578  0.1882
 7450TIP3    H122314   4.659   0.753   1.188  1.0892  0.6616 -0.5225
 7450TIP3    H222315   4.564   0.749   1.070  2.2305 -1.5130 -1.4409
 7451TIP3   OH222316   4.109   0.274   5.436 -0.4277 -0.4642 -0.1960
 7451TIP3    H122317   4.052   0.276   5.513 -0.4021  0.6034 -0.1945
 7451TIP3    H222318   4.183   0.330   5.459 -0.1164 -0.6248 -0.7710
 7452TIP3   OH222319   3.402   6.580   2.469 -0.2358 -0.0236 -0.3203
 7452TIP3    H122320   3.310   6.577   2.441 -0.2682  1.7625 -0.5612
 7452TIP3    H222321   3.417   6.673   2.489  1.4443 -0.3366 -0.0065
 7453TIP3   OH222322   4.219   3.002   2.462 -0.2136 -0.1988  0.7620
 7453TIP3    H122323   4.272   2.945   2.406  0.8878  2.2846 -0.9243
 7453TIP3    H222324   4.190   3.072   2.404 -2.5837  0.3196  2.4361
 7454TIP3   OH222325   2.972   1.219   5.266  0.0486  0.4025  0.1219
 7454TIP3    H122326   2.944   1.305   5.236 -0.9667  1.0137  2.6249
 7454TIP3    H222327   3.033   1.238   5.338  1.2292 -0.9912 -0.4634
 7455TIP3   OH222328   5.221  -0.020   5.032 -0.1248  0.2095  0.3311
 7455TIP3    H122329   5.145  -0.006   5.089  0.5195  0.9331  1.0310
 7455TIP3    H222330   5.278   0.055   5.048  0.0194  0.5038 -1.3734
 7456TIP3   OH222331   1.234   5.294   4.577 -0.8141 -0.1306 -0.1511
 7456TIP3    H122332   1.296   5.344   4.524 -0.7309 -0.5654 -0.4722
 7456TIP3    H222333   1.190   5.359   4.632 -2.5317  0.6861 -2.3542
 7457TIP3   OH222334   2.102   0.642   3.879  0.5697 -0.3470  0.2693
 7457TIP3    H122335   2.099   0.579   3.807  1.4376 -1.2797  1.0117
 7457TIP3    H222336   2.175   0.613   3.933  0.3317  0.7043  1.1939
 7458TIP3   OH222337   6.267   2.265   0.765 -0.1385 -0.1922  0.2113
 7458TIP3    H122338   6.349   2.257   0.814 -0.0914  2.2394  0.6328
 7458TIP3    H222339   6.207   2.310   0.824 -0.8659  0.5912 -1.0706
 7459TIP3   OH222340   0.772   4.885   1.991  0.3690  0.3257  0.1164
 7459TIP3    H122341   0.685   4.900   2.028  0.6526 -1.2294  1.5299
 7459TIP3    H222342   0.763   4.910   1.899 -1.4248  0.6827  0.3450
 7460TIP3   OH222343   3.804   1.223   1.358  0.2997  0.4183  0.1444
 7460TIP3    H122344   3.852   1.148   1.323 -0.8871 -0.8042  1.0472
 7460TIP3    H222345   3.813   1.216   1.453 -1.0029  0.6023  0.2960
 7461TIP3   OH222346   4.457   4.325   1.380  0.4194 -1.0572 -0.5199
 7461TIP3    H122347   4.552   4.334   1.383  0.4223 -0.9686 -0.9231
 7461TIP3    H222348   4.426   4.379   1.453  0.6564 -0.7897 -0.6146
 7462TIP3   OH222349   2.491   4.369   3.422 -0.4749 -0.4464 -0.2812
 7462TIP3    H122350   2.562   4.342   3.364  0.3083  0.4807  0.2120
 7462TIP3    H222351   2.496   4.465   3.422 -0.9701 -0.4127  0.6789
 7463TIP3   OH222352   6.179   3.554   4.744 -0.2128  0.1539 -0.4895
 7463TIP3    H122353   6.204   3.500   4.819 -2.5833  0.4536  0.6047
 7463TIP3    H222354   6.192   3.497   4.668  1.7038 -0.3384  0.1559
 7464TIP3   OH222355   1.549   5.116   1.481 -0.2022  0.0724 -0.4566
 7464TIP3    H122356   1.544   5.054   1.553 -1.2782 -0.1898 -0.7339
 7464TIP3    H222357   1.458   5.135   1.460  0.0559 -0.5990 -2.3784
 7465TIP3   OH222358   4.504   1.928   2.213  0.3125  0.1241 -0.1584
 7465TIP3    H122359   4.506   2.000   2.149 -0.9626  1.7654  1.5331
 7465TIP3    H222360   4.596   1.907   2.227  0.6416 -0.0895 -2.2609
 7466TIP3   OH222361   4.906   1.749   3.834  0.1465 -0.4857 -0.3393
 7466TIP3    H122362   4.813   1.765   3.850  0.3769  0.3272  0.2639
 7466TIP3    H222363   4.935   1.824   3.783  1.0203  0.5772  1.6376
 7467TIP3   OH222364   4.556   1.925   2.634 -0.5542  0.1683 -0.3079
 7467TIP3    H122365   4.618   1.972   2.578 -0.2018  0.5003  0.3418
 7467TIP3    H222366   4.481   1.984   2.640 -1.0729 -0.3675 -1.3423
 7468TIP3   OH222367   5.961   1.730   3.881 -0.4066 -0.0077 -0.1169
 7468TIP3    H122368   5.933   1.820   3.899  1.4439  0.1090  3.1694
 7468TIP3    H222369   6.056   1.734   3.884 -0.2488 -1.8912 -1.2072
 7469TIP3   OH222370   1.485   2.327   5.092  0.1055  0.6293 -0.4023
 7469TIP3    H122371   1.438   2.382   5.029  0.0791  1.9597  0.7023
 7469TIP3    H222372   1.566   2.375   5.109  2.0956 -1.7386 -2.4580
 7470TIP3   OH222373   6.598   5.614   3.264  0.2122 -0.5976 -0.0846
 7470TIP3    H122374   6.584   5.536   3.318  0.6189 -0.4095  0.2948
 7470TIP3    H222375   6.693   5.622   3.257  0.2018  0.5300  0.8620
 7471TIP3   OH222376   5.517   0.153   0.827 -0.1859 -0.4169  0.7511
 7471TIP3    H122377   5.592   0.211   0.838  0.1856 -0.5139 -1.0318
 7471TIP3    H222378   5.502   0.150   0.732 -1.3341 -1.8075  0.9404
 7472TIP3   OH222379   3.842   5.387   3.883  0.1470  0.5038 -0.5672
 7472TIP3    H122380   3.835   5.307   3.935  1.1318  1.9334  1.9593
 7472TIP3    H222381   3.756   5.395   3.840 -0.2835 -1.4016 -0.1438
 7473TIP3   OH222382   0.808   3.634   4.624  0.5006  0.0983  0.1146
 7473TIP3    H122383   0.829   3.555   4.673  1.1180 -0.0042 -0.2956
 7473TIP3    H222384   0.797   3.604   4.534 -1.8899  0.0825  0.3634
 7474TIP3   OH222385   2.510   4.325   0.037  0.8228 -0.3939  0.7107
 7474TIP3    H122386   2.561   4.244   0.037  1.6583  0.1103  1.1690
 7474TIP3    H222387   2.445   4.313  -0.032  0.5157 -1.6989  1.1976
 7475TIP3   OH222388   6.374   3.067   1.666 -0.0716 -0.5341  0.0105
 7475TIP3    H122389   6.342   3.019   1.590 -0.1886  0.6505 -0.7049
 7475TIP3    H222390   6.307   3.055   1.733  0.4492 -2.3347  0.2656
 7476TIP3   OH222391   4.106   3.935   4.102  0.0124  1.0087 -0.4297
 7476TIP3    H122392   4.039   3.998   4.130 -0.0814  0.0806  1.6088
 7476TIP3    H222393   4.074   3.903   4.017 -0.3888  2.9917 -1.0933
 7477TIP3   OH222394   4.660   0.377   0.965 -0.2979 -0.5571 -0.5281
 7477TIP3    H122395   4.584   0.331   0.930 -1.1362 -0.0008  0.4868
 7477TIP3    H222396   4.701   0.418   0.888 -3.3595  2.5241 -0.7951
 7478TIP3   OH222397   5.978   2.456   0.165  0.1646  0.0826 -0.7127
 7478TIP3    H122398   5.967   2.546   0.196 -0.6938 -0.1068 -0.4093
 7478TIP3    H222399   6.071   2.438   0.173 -0.0280 -0.1572  2.4722
 7479TIP3   OH222400   1.326   3.958   3.561 -0.7629 -0.0694  0.0273
 7479TIP3    H122401   1.241   3.921   3.538 -1.2906 -0.1218  1.8830
 7479TIP3    H222402   1.378   3.883   3.588  0.8299 -0.4119 -3.5142
 7480TIP3   OH222403   1.392   5.959   2.108  0.7684 -0.7418 -0.1435
 7480TIP3    H122404   1.330   5.886   2.112  0.9274 -0.8389  0.5811
 7480TIP3    H222405   1.373   6.012   2.185  2.5972 -1.6034  0.9802
 7481TIP3   OH222406   0.994   0.504   0.337  0.7437 -0.1818  0.4205
 7481TIP3    H122407   0.933   0.433   0.319  0.7156 -0.3219  1.0448
 7481TIP3    H222408   1.079   0.460   0.350  0.8757 -0.0341  0.0728
 7482TIP3   OH222409   6.356   1.861   4.261  0.2690 -0.7348 -0.6703
 7482TIP3    H122410   6.452   1.858   4.254  0.3200  0.8343 -1.0824
 7482TIP3    H222411   6.338   1.828   4.349  1.2690 -0.1117 -0.2085
 7483TIP3   OH222412   4.096   2.164   4.444  1.0356  0.2308 -0.2726
 7483TIP3    H122413   4.145   2.099   4.394 -0.2417 -1.1093  0.1682
 7483TIP3    H222414   4.040   2.207   4.380  0.5075 -0.4177 -0.2410
 7484TIP3   OH222415   0.020   1.190   1.018 -0.1883 -0.1066  0.7190
 7484TIP3    H122416   0.089   1.255   1.025 -1.5499  1.4091  0.7522
 7484TIP3    H222417   0.066   1.107   1.006  1.6158  1.1173 -1.7365
 7485TIP3   OH222418   5.565   2.209   2.092 -0.1913  0.1747  0.5183
 7485TIP3    H122419   5.584   2.302   2.101 -2.5301  0.7363  0.0373
 7485TIP3    H222420   5.612   2.183   2.013  0.3358  0.9753  0.5542
 7486TIP3   OH222421   1.339   5.677   4.174 -0.2462 -0.0639 -0.0877
 7486TIP3    H122422   1.418   5.731   4.172  0.6660 -1.2187  1.9683
 7486TIP3    H222423   1.342   5.627   4.093  1.5223 -0.5810  0.2566
 7487TIP3   OH222424   3.967   3.358   3.636 -0.4091  0.1531  0.1416
 7487TIP3    H122425   3.872   3.367   3.641 -0.5936 -1.9138  1.4393
 7487TIP3    H222426   3.982   3.308   3.556 -0.3121  1.2854 -0.5673
 7488TIP3   OH222427   1.745   0.551   5.429 -0.2191  0.2900  0.7004
 7488TIP3    H122428   1.654   0.573   5.406 -0.4200 -0.2255  0.9901
 7488TIP3    H222429   1.739   0.517   5.518  0.1093 -0.8149  0.3054
 7489TIP3   OH222430   6.962   5.625   3.866 -0.1938 -0.1800  0.3896
 7489TIP3    H122431   7.014   5.706   3.865 -2.0224  1.0717 -2.0405
 7489TIP3    H222432   6.955   5.603   3.959  1.1649  1.8999  1.0637
 7490TIP3   OH222433   0.173   5.356   1.165  0.3317 -0.1785  0.2991
 7490TIP3    H122434   0.153   5.432   1.220  1.4033 -0.2742  0.8441
 7490TIP3    H222435   0.178   5.392   1.076  1.5078  0.5432  0.6255
 7491TIP3   OH222436   1.578   2.729   0.049  0.4530  0.2026  0.1942
 7491TIP3    H122437   1.531   2.673  -0.014 -0.8980  1.7454 -0.2633
 7491TIP3    H222438   1.526   2.723   0.129  0.3306  0.7358  0.1578
 7492TIP3   OH222439   0.808   4.408   1.530 -0.5099  0.0531 -0.2373
 7492TIP3    H122440   0.762   4.325   1.539  0.0018 -0.1715  0.3448
 7492TIP3    H222441   0.899   4.383   1.514  0.0088  0.4971  1.8234
 7493TIP3   OH222442   3.009   5.392   0.003 -0.0645  0.1084 -0.3168
 7493TIP3    H122443   3.024   5.481  -0.029  0.7194  1.3012  2.9738
 7493TIP3    H222444   2.918   5.391   0.032  0.3193  0.3508  0.9593
 7494TIP3   OH222445   5.882   6.603   2.467 -0.0483 -0.4338  0.0631
 7494TIP3    H122446   5.804   6.551   2.445 -0.8062  0.1350  1.3049
 7494TIP3    H222447   5.921   6.558   2.541  0.2948 -0.2015  0.0262
 7495TIP3   OH222448   2.413   1.659   4.953 -0.4415  0.0634  0.6292
 7495TIP3    H122449   2.411   1.710   4.872 -0.4180  0.3421  0.8013
 7495TIP3    H222450   2.453   1.576   4.928 -0.4214  0.1510  0.3581
 7496TIP3   OH222451   0.749   0.994   4.734  0.1118  0.1653  0.1831
 7496TIP3    H122452   0.727   0.906   4.702 -2.6599  0.5927  0.6621
 7496TIP3    H222453   0.833   1.013   4.694 -0.1342 -1.9174 -1.5525
 7497TIP3   OH222454   0.217   6.632   2.456 -0.0211 -0.1031  0.0962
 7497TIP3    H122455   0.183   6.657   2.542  1.2965 -0.0883  0.6319
 7497TIP3    H222456   0.251   6.714   2.419  1.8279 -0.5484  0.7066
 7498TIP3   OH222457   2.585   5.636   3.926 -0.7577  0.3518  0.3300
 7498TIP3    H122458   2.555   5.577   3.995  0.5805 -0.8449 -0.0741
 7498TIP3    H222459   2.563   5.591   3.845 -0.2702  0.6972  0.0051
 7499TIP3   OH222460   5.449   6.714   4.907 -0.1894 -0.4927 -0.2876
 7499TIP3    H122461   5.360   6.681   4.898  0.3813 -2.2781  0.0428
 7499TIP3    H222462   5.461   6.728   5.001 -0.8092  1.9566 -0.5182
 7500TIP3   OH222463   0.840   0.102   3.649 -1.0270 -0.3297  0.3018
 7500TIP3    H122464   0.828   0.046   3.572 -0.3685 -0.2943  0.1709
 7500TIP3    H222465   0.761   0.156   3.651 -0.9482 -0.1790 -0.4770
 7501TIP3   OH222466   1.800   1.857   0.316 -0.3751 -0.0349  0.3095
 7501TIP3    H122467   1.884   1.870   0.272 -1.5827 -0.5537 -2.3369
 7501TIP3    H222468   1.823   1.816   0.400  2.0605  1.0563  0.2581
 7502TIP3   OH222469   3.731   1.157   4.394 -0.0451  0.1651 -0.4580
 7502TIP3    H122470   3.722   1.106   4.475 -3.8058  1.5674  0.2364
 7502TIP3    H222471   3.728   1.091   4.324 -2.0782 -0.8349  0.4781
 7503TIP3   OH222472   2.740   1.928   1.075 -0.5783  0.2193  0.0948
 7503TIP3    H122473   2.662   1.886   1.040  0.0176  0.6705 -1.9369
 7503TIP3    H222474   2.726   2.022   1.061 -0.2016  0.4043  0.8901
 7504TIP3   OH222475   4.142   0.067   2.382 -0.2376 -0.1582 -0.1526
 7504TIP3    H122476   4.126   0.010   2.307 -0.9678 -0.7403  0.4294
 7504TIP3    H222477   4.116   0.015   2.458  0.8424  0.2860  0.5449
 7505TIP3   OH222478   4.862   0.787   4.813 -0.0048 -0.7535 -0.3725
 7505TIP3    H122479   4.942   0.788   4.759 -0.7203 -0.0923 -1.4490
 7505TIP3    H222480   4.876   0.715   4.874  0.3780 -2.2385 -2.1411
 7506TIP3   OH222481   5.655   1.647   0.227 -0.4242 -0.0046  0.6386
 7506TIP3    H122482   5.632   1.661   0.319 -1.1570  1.2391  0.2990
 7506TIP3    H222483   5.661   1.736   0.191  0.9701 -0.4316 -0.2589
 7507TIP3   OH222484   2.655   4.074   0.140  0.5815 -0.4844 -0.2358
 7507TIP3    H122485   2.666   4.060   0.046  1.0047 -0.1462 -0.2411
 7507TIP3    H222486   2.740   4.107   0.170  0.5629 -0.9313  0.3326
 7508TIP3   OH222487   4.947   1.833   1.884 -0.0926 -0.5113  0.1201
 7508TIP3    H122488   4.895   1.768   1.836  1.6545 -0.7695 -1.5421
 7508TIP3    H222489   5.033   1.829   1.843  0.5754  1.5852  1.2047
 7509TIP3   OH222490   2.272   4.952   1.579 -0.3752 -0.1223  1.0419
 7509TIP3    H122491   2.307   4.974   1.665  0.3004  2.0652  0.2827
 7509TIP3    H222492   2.344   4.971   1.518 -1.7813  1.3196 -0.2671
 7510TIP3   OH222493   0.105   2.213   1.979  0.5236  0.2173  0.2074
 7510TIP3    H122494   0.035   2.249   1.925  0.5953 -0.1367 -0.1247
 7510TIP3    H222495   0.065   2.199   2.065 -0.4356 -2.0007 -0.5352
 7511TIP3   OH222496   3.199   0.059   0.604  0.1347  0.8580 -0.6613
 7511TIP3    H122497   3.233  -0.004   0.668  0.7396  0.1276 -1.6780
 7511TIP3    H222498   3.160   0.128   0.657  2.2806  1.2264  0.5709
 7512TIP3   OH222499   4.720   4.447   1.330 -0.3354 -0.2882 -0.6675
 7512TIP3    H122500   4.717   4.373   1.270 -0.7272 -0.5208 -0.3709
 7512TIP3    H222501   4.696   4.523   1.277 -0.5253 -0.4677 -0.8374
 7513TIP3   OH222502   4.281   5.241   4.720 -0.2531  0.2124  0.3674
 7513TIP3    H122503   4.198   5.229   4.674 -0.8845 -0.4692  1.6411
 7513TIP3    H222504   4.283   5.334   4.742 -0.1230  0.4683 -0.6696
 7514TIP3   OH222505   2.178   6.057   2.825  0.4822 -0.0225  0.1438
 7514TIP3    H122506   2.148   6.022   2.741  0.6968 -0.6459  0.3210
 7514TIP3    H222507   2.270   6.030   2.830  0.2600 -0.6688  0.9265
 7515TIP3   OH222508   5.229   6.509   2.728 -0.1690  0.5953 -0.3601
 7515TIP3    H122509   5.152   6.558   2.759 -0.4658 -0.7669  1.2186
 7515TIP3    H222510   5.202   6.417   2.733  1.2011  0.1431 -0.8617
 7516TIP3   OH222511   2.896   5.935   0.608  0.0023  0.3284 -0.0919
 7516TIP3    H122512   2.902   5.880   0.686 -1.9111 -1.2431 -0.9554
 7516TIP3    H222513   2.906   6.024   0.640  2.7172 -0.4218  1.4356
 7517TIP3   OH222514   5.039   3.264   3.201  0.0203  0.1362 -0.3153
 7517TIP3    H122515   4.983   3.260   3.124  1.0631 -1.7261 -1.0572
 7517TIP3    H222516   5.112   3.319   3.176  0.7387 -1.0690 -0.9874
 7518TIP3   OH222517   2.211   4.442   3.927 -0.2076 -0.0451 -0.0047
 7518TIP3    H122518   2.118   4.462   3.917 -0.3806  0.0349  1.5895
 7518TIP3    H222519   2.229   4.377   3.859 -1.2246  0.5507 -0.8695
 7519TIP3   OH222520   4.815   6.377   1.758  0.3766 -0.1165 -0.0388
 7519TIP3    H122521   4.781   6.462   1.731  3.2162  0.8841 -0.8669
 7519TIP3    H222522   4.867   6.396   1.836  2.0310 -0.8289 -0.9175
 7520TIP3   OH222523   2.914   4.761   1.148 -0.7995 -0.0131 -0.2519
 7520TIP3    H122524   2.850   4.694   1.172  0.0691 -0.8839 -0.2968
 7520TIP3    H222525   2.873   4.807   1.075 -1.0555 -1.0866 -0.8129
 7521TIP3   OH222526   0.691   3.666   5.789  0.0875 -0.1661 -0.1084
 7521TIP3    H122527   0.726   3.668   5.700 -0.0896 -1.9844 -0.2559
 7521TIP3    H222528   0.757   3.619   5.840  0.1392  0.7652  0.7003
 7522TIP3   OH222529   1.762   1.413   0.191  0.0276  0.2539 -0.1870
 7522TIP3    H122530   1.746   1.327   0.230  0.1800  0.2887 -0.0479
 7522TIP3    H222531   1.812   1.461   0.257 -0.1922  0.5059 -0.2017
 7523TIP3   OH222532   0.320   0.959   4.224 -0.8918 -0.8461 -0.3694
 7523TIP3    H122533   0.403   0.938   4.181 -1.1314 -3.6278  0.3510
 7523TIP3    H222534   0.274   1.014   4.160  1.0827 -0.0274 -1.1722
 7524TIP3   OH222535   4.985   6.466   3.996  0.4946 -0.0157 -0.4068
 7524TIP3    H122536   4.933   6.523   3.939 -0.3211 -1.5426 -1.2614
 7524TIP3    H222537   5.014   6.523   4.067 -2.1095  0.9919 -0.0318
 7525TIP3   OH222538   5.788   6.049   2.288 -1.0147  0.0656  0.0442
 7525TIP3    H122539   5.776   6.028   2.380 -1.1983  0.8180  0.2050
 7525TIP3    H222540   5.699   6.062   2.255 -0.9477 -0.1709 -0.2277
 7526TIP3   OH222541   5.722   1.057   5.783  0.0404  0.0369  0.2447
 7526TIP3    H122542   5.666   1.135   5.782  0.5403  0.4220 -1.6482
 7526TIP3    H222543   5.738   1.040   5.876 -0.1018  2.1716  0.7014
 7527TIP3   OH222544   5.790   2.211   0.415  0.1161  0.2208 -0.0635
 7527TIP3    H122545   5.764   2.302   0.433 -0.4687 -0.2461  1.6538
 7527TIP3    H222546   5.732   2.183   0.345  0.9434  1.4455 -1.3014
 7528TIP3   OH222547   1.599   1.213   0.549 -0.1187  0.1966  0.3916
 7528TIP3    H122548   1.689   1.241   0.562  0.6005 -2.0420  0.7305
 7528TIP3    H222549   1.597   1.175   0.461 -1.1938  1.7035 -0.2897
 7529TIP3   OH222550   6.740   5.787   3.769  0.1896  0.0860  0.2900
 7529TIP3    H122551   6.804   5.747   3.828  0.2932 -0.8229 -0.4010
 7529TIP3    H222552   6.710   5.714   3.714 -0.3704  0.7815 -0.3491
 7530TIP3   OH222553   3.104   6.450   2.959  0.1162 -0.6088 -0.0847
 7530TIP3    H122554   3.056   6.377   2.997  1.5837 -0.8015  1.5246
 7530TIP3    H222555   3.127   6.420   2.871 -0.7673 -1.3688 -0.0744
 7531TIP3   OH222556   3.618   1.231   3.153  0.1681  0.2390 -0.2040
 7531TIP3    H122557   3.566   1.155   3.126  1.5276 -0.7006 -0.2763
 7531TIP3    H222558   3.678   1.246   3.080 -0.5285  1.8543 -0.4994
 7532TIP3   OH222559   1.805   6.003   0.737 -0.1629 -0.1812 -0.4270
 7532TIP3    H122560   1.801   6.099   0.740 -2.5435 -0.2276  0.0979
 7532TIP3    H222561   1.777   5.981   0.648 -1.6743 -0.3957  0.0740
 7533TIP3   OH222562   4.663   1.344   4.014  0.0176  0.1396 -0.1766
 7533TIP3    H122563   4.756   1.335   3.995 -0.0015 -2.2175  0.6044
 7533TIP3    H222564   4.619   1.316   3.933  0.0064 -1.4492  0.3470
 7534TIP3   OH222565   0.562   4.955   1.728  0.4858  0.8959  0.2377
 7534TIP3    H122566   0.560   4.894   1.655  0.3804  0.4665  0.5927
 7534TIP3    H222567   0.489   4.928   1.784 -0.1368  1.9182 -0.0486
 7535TIP3   OH222568   5.239   5.155   2.038 -0.7639 -0.2507 -0.3577
 7535TIP3    H122569   5.163   5.129   2.089 -2.0046 -0.9875 -2.4524
 7535TIP3    H222570   5.209   5.154   1.947  1.4122  0.6694 -1.1655
 7536TIP3   OH222571   1.809   5.572   4.227  0.3977 -0.0791  0.3748
 7536TIP3    H122572   1.789   5.564   4.320 -0.5149 -1.6695  0.0948
 7536TIP3    H222573   1.839   5.662   4.216 -1.3931  0.7814  1.8625
 7537TIP3   OH222574   3.523   3.896   1.291  0.1736  0.1127  0.0512
 7537TIP3    H122575   3.611   3.916   1.258 -0.7133  1.9666 -1.3497
 7537TIP3    H222576   3.510   3.957   1.364 -0.4341  0.7573 -0.5894
 7538TIP3   OH222577   0.296   0.373   0.289 -0.0811 -0.0722 -0.1131
 7538TIP3    H122578   0.313   0.467   0.282  2.4781 -0.3932  0.7571
 7538TIP3    H222579   0.314   0.352   0.381  2.5171 -1.8591 -0.9083
 7539TIP3   OH222580   4.376   5.378   1.266  0.0237  0.1673 -0.1447
 7539TIP3    H122581   4.302   5.432   1.292 -0.2638 -0.4378  0.3032
 7539TIP3    H222582   4.453   5.426   1.298 -0.2946 -0.2830  1.3645
 7540TIP3   OH222583   4.277   5.436   0.512  0.4223  0.0154 -0.1132
 7540TIP3    H122584   4.211   5.496   0.478  0.1383  0.0843  0.5434
 7540TIP3    H222585   4.324   5.405   0.434 -1.3809 -1.2240 -0.7927
 7541TIP3   OH222586   5.379   5.783   3.473 -0.1898 -0.0911  0.2254
 7541TIP3    H122587   5.410   5.753   3.387 -1.3621 -1.6709  0.3129
 7541TIP3    H222588   5.411   5.873   3.480  0.2156 -0.0426 -1.7158
 7542TIP3   OH222589   3.878   0.348   4.261 -0.1624  0.6593 -0.5763
 7542TIP3    H122590   3.836   0.433   4.247 -1.0152  0.4131  0.3256
 7542TIP3    H222591   3.879   0.337   4.356  0.3549 -0.1394 -0.6629
 7543TIP3   OH222592   0.155   1.986   4.260 -0.0327 -0.1992  0.1854
 7543TIP3    H122593   0.194   2.035   4.188 -1.4913  1.6271  0.5481
 7543TIP3    H222594   0.071   1.955   4.226  0.7738 -2.3712  0.0329
 7544TIP3   OH222595   1.687   0.928   5.462  0.0611  0.7593  0.0841
 7544TIP3    H122596   1.667   0.927   5.369 -0.0105  1.5692  0.0803
 7544TIP3    H222597   1.759   0.867   5.473  0.1458  0.7521 -0.5210
 7545TIP3   OH222598   1.420   1.609   0.270  0.0956  0.3079 -0.5272
 7545TIP3    H122599   1.484   1.605   0.342  1.1445  2.1716 -1.2813
 7545TIP3    H222600   1.335   1.612   0.314  0.5517 -1.2941  0.5320
 7546TIP3   OH222601   2.427   3.829   1.153  0.1035  0.0440  0.1681
 7546TIP3    H122602   2.453   3.747   1.196 -1.3099 -0.1805  0.6458
 7546TIP3    H222603   2.389   3.801   1.070 -0.6361  0.1781  0.4538
 7547TIP3   OH222604   7.091   0.424   0.465  0.2002 -0.0317 -0.0787
 7547TIP3    H122605   7.119   0.374   0.388  0.7241 -1.8433  1.2158
 7547TIP3    H222606   7.152   0.398   0.534 -0.7927  0.8524  1.1890
 7548TIP3   OH222607   5.994   6.244   3.785 -0.3151  0.1983  0.7634
 7548TIP3    H122608   5.986   6.171   3.724 -2.1657  0.1851  0.9793
 7548TIP3    H222609   5.942   6.314   3.746  1.8626  1.6641  0.2753
 7549TIP3   OH222610   0.668   5.382   3.777  0.4020 -0.1770 -0.9242
 7549TIP3    H122611   0.683   5.476   3.783 -0.7048 -0.0919  1.8308
 7549TIP3    H222612   0.756   5.344   3.771  0.8500  0.9956 -2.3730
 7550TIP3   OH222613   3.402   2.475   2.573  0.6653  0.0412  0.0132
 7550TIP3    H122614   3.339   2.469   2.644  1.3392  1.6686  0.7924
 7550TIP3    H222615   3.406   2.386   2.537 -0.8186 -0.4643  1.0007
 7551TIP3   OH222616   3.575   0.535   1.053  0.5578 -0.1647  0.1558
 7551TIP3    H122617   3.585   0.463   0.991 -0.6879 -0.1823 -0.0481
 7551TIP3    H222618   3.599   0.613   1.003 -1.0190 -0.1058 -0.5631
 7552TIP3   OH222619   2.877   3.736   0.791 -0.1230  0.3532  0.4799
 7552TIP3    H122620   2.816   3.800   0.756  1.5807  0.8691 -1.7916
 7552TIP3    H222621   2.914   3.693   0.714  0.8777 -1.3822  1.8418
 7553TIP3   OH222622   6.887   1.511   1.507  0.0661 -0.1635 -0.2821
 7553TIP3    H122623   6.862   1.494   1.416  2.7499 -0.0556 -1.1226
 7553TIP3    H222624   6.879   1.427   1.551 -0.8416 -0.3074 -0.7034
 7554TIP3   OH222625   6.989   5.511   1.602 -0.3394  0.2520  0.5780
 7554TIP3    H122626   7.080   5.492   1.621  0.7686  0.9146 -3.1463
 7554TIP3    H222627   6.953   5.428   1.570 -0.2329  0.5571 -0.3792
 7555TIP3   OH222628   4.540   4.778   5.483 -0.2795  0.4814 -0.5620
 7555TIP3    H122629   4.553   4.786   5.578  0.9315 -1.4386 -0.5024
 7555TIP3    H222630   4.623   4.806   5.445 -0.0537 -0.6223 -0.9172
 7556TIP3   OH222631   5.482   1.146   3.184 -0.1411  0.2951  0.1966
 7556TIP3    H122632   5.504   1.053   3.182  0.3451  0.4197 -0.8005
 7556TIP3    H222633   5.412   1.156   3.119 -0.0965  0.6489  0.2022
 7557TIP3   OH222634   6.824   5.389   1.131  0.9155  0.2487 -0.3184
 7557TIP3    H122635   6.776   5.315   1.093  0.7236 -0.1135  0.6232
 7557TIP3    H222636   6.756   5.449   1.161  1.0653  1.0208 -1.4298
 7558TIP3   OH222637   4.139   4.023   0.637 -0.1557  0.0286 -0.1086
 7558TIP3    H122638   4.134   4.006   0.731  0.5670  2.6226  0.4815
 7558TIP3    H222639   4.231   4.010   0.614 -0.4773 -1.4129 -0.6766
 7559TIP3   OH222640   3.368   3.797   5.716  0.2010 -0.3012  0.1245
 7559TIP3    H122641   3.394   3.845   5.795 -0.5009  0.7508 -0.2636
 7559TIP3    H222642   3.449   3.780   5.670  0.3555  2.0708 -0.5900
 7560TIP3   OH222643   1.425   3.413   1.909  0.7417  0.6295  0.4205
 7560TIP3    H122644   1.390   3.494   1.947  1.6734  0.7698  1.0155
 7560TIP3    H222645   1.489   3.443   1.845 -0.7104  0.3917 -1.2267
 7561TIP3   OH222646   2.917   3.647   0.474 -0.0463  0.4725  0.1530
 7561TIP3    H122647   2.956   3.735   0.475 -0.1337  0.5768 -1.7569
 7561TIP3    H222648   2.975   3.596   0.418 -0.3229 -0.5369  0.7719
 7562TIP3   OH222649   2.511   0.875   2.820  0.1569  0.4658 -0.6828
 7562TIP3    H122650   2.530   0.940   2.752  0.1069  0.5002 -0.6634
 7562TIP3    H222651   2.450   0.814   2.778  2.0696 -0.9781 -1.5400
 7563TIP3   OH222652   2.752   4.227   4.960  0.4153  0.3954  0.3258
 7563TIP3    H122653   2.718   4.225   4.871  0.4243 -0.3994  0.3249
 7563TIP3    H222654   2.675   4.231   5.016  0.3213 -0.6981  0.3071
 7564TIP3   OH222655   0.741   3.945   1.228 -0.3249  0.1003 -0.0475
 7564TIP3    H122656   0.718   4.029   1.188 -0.2107  0.7089  1.1341
 7564TIP3    H222657   0.753   3.886   1.154 -2.3619  0.5971 -0.8443
 7565TIP3   OH222658   2.306   4.077   2.793  0.3108  0.6928  0.6412
 7565TIP3    H122659   2.401   4.087   2.791  0.4341 -0.2040 -1.5139
 7565TIP3    H222660   2.276   4.114   2.710 -0.9234 -1.1859  0.1752
 7566TIP3   OH222661   5.298   1.888   4.555 -0.0482 -1.0260 -0.0054
 7566TIP3    H122662   5.241   1.867   4.481  1.6214 -1.2297 -1.2904
 7566TIP3    H222663   5.364   1.947   4.519 -0.6587  1.0330  1.9461
 7567TIP3   OH222664   0.998   2.340   1.044 -0.1929 -0.3318  0.6343
 7567TIP3    H122665   0.961   2.288   0.973  1.1622 -1.7192  0.9037
 7567TIP3    H222666   0.923   2.387   1.080 -0.8209  1.0700 -2.1865
 7568TIP3   OH222667   1.137   5.048   4.535  0.5835 -0.7268  0.6153
 7568TIP3    H122668   1.044   5.062   4.551  0.5906 -0.4281  0.4058
 7568TIP3    H222669   1.175   5.135   4.539  0.7437 -0.7640 -0.0040
 7569TIP3   OH222670   0.550   0.960   3.414  0.3589 -0.3983 -0.1505
 7569TIP3    H122671   0.564   0.917   3.330  0.4152 -1.0265  0.1712
 7569TIP3    H222672   0.618   1.027   3.419  0.3392 -0.3421 -0.6124
 7570TIP3   OH222673   2.913   2.033   4.804 -0.3521 -0.0093 -0.2080
 7570TIP3    H122674   2.897   1.986   4.886  1.2382  0.5701  0.4756
 7570TIP3    H222675   2.983   2.095   4.826 -2.0668  2.4185 -1.1715
 7571TIP3   OH222676   2.685   2.676   5.440  0.6132 -0.2808  0.0567
 7571TIP3    H122677   2.762   2.733   5.447 -1.0680  2.2320 -0.4636
 7571TIP3    H222678   2.615   2.725   5.483 -0.8719 -2.2110 -0.0183
 7572TIP3   OH222679   6.885   5.936   3.406 -0.0751 -0.2414  0.2018
 7572TIP3    H122680   6.818   5.955   3.341  1.1274 -0.4476 -1.1447
 7572TIP3    H222681   6.851   5.974   3.488 -1.4610  0.3152 -0.6048
 7573TIP3   OH222682   0.353   6.590   1.520  0.1632  0.1101  0.5064
 7573TIP3    H122683   0.377   6.640   1.442 -1.5890  0.9519  0.4622
 7573TIP3    H222684   0.405   6.629   1.590  1.8088 -0.6983 -0.2055
 7574TIP3   OH222685   1.836   1.384   3.226 -0.1860  0.4502 -0.0495
 7574TIP3    H122686   1.749   1.357   3.195 -0.3541  1.7308 -0.8043
 7574TIP3    H222687   1.827   1.479   3.241  1.6889  1.1275 -2.4875
 7575TIP3   OH222688   3.733   2.070   5.314 -0.2161 -0.1085 -0.0605
 7575TIP3    H122689   3.656   2.050   5.261 -0.0807 -2.0687  0.4156
 7575TIP3    H222690   3.796   2.105   5.251 -0.3256 -1.6829 -1.1159
 7576TIP3   OH222691   2.861   1.196   4.104  0.0807  0.4746  0.1651
 7576TIP3    H122692   2.948   1.158   4.099  0.5748  1.7095 -2.0369
 7576TIP3    H222693   2.811   1.150   4.037 -1.2057 -0.6280  1.7909
 7577TIP3   OH222694   0.096   2.101   0.424 -0.0984  0.1066 -0.0173
 7577TIP3    H122695   0.088   2.019   0.473 -0.9894  0.5199  0.5562
 7577TIP3    H222696   0.099   2.169   0.492  0.4266  0.5705 -0.4905
 7578TIP3   OH222697   0.340   3.547   2.285 -0.4485  0.4831 -0.4583
 7578TIP3    H122698   0.259   3.540   2.336 -0.6657  1.3750 -0.6625
 7578TIP3    H222699   0.351   3.460   2.245 -0.5628 -0.0592  0.6599
 7579TIP3   OH222700   2.534   0.765   0.297  0.1195  0.5208  0.1762
 7579TIP3    H122701   2.513   0.832   0.362  0.8290  0.8934  0.0362
 7579TIP3    H222702   2.508   0.803   0.214  0.8189  0.7647  0.0608
 7580TIP3   OH222703   3.497   0.282   4.184  0.4149 -0.4317 -0.6057
 7580TIP3    H122704   3.525   0.243   4.101  0.1647 -0.8514 -0.4985
 7580TIP3    H222705   3.402   0.274   4.184  0.4635 -1.1872  0.0696
 7581TIP3   OH222706   0.531   4.962   1.417  0.4246  0.4872  0.9537
 7581TIP3    H122707   0.614   4.957   1.370 -0.8532  0.6216 -1.4728
 7581TIP3    H222708   0.521   5.054   1.439 -0.4779  1.1178 -1.6542
 7582TIP3   OH222709   7.069   3.060   5.669 -0.5058 -0.0719  0.7557
 7582TIP3    H122710   7.067   2.994   5.738 -0.4162 -0.4372  0.4104
 7582TIP3    H222711   7.083   3.143   5.715  0.4424 -0.4176  1.0941
 7583TIP3   OH222712   1.091   4.580   3.275 -0.1911 -0.0684 -0.3757
 7583TIP3    H122713   1.028   4.624   3.332 -1.3732 -0.9286 -0.9824
 7583TIP3    H222714   1.155   4.542   3.336 -0.8584 -0.0918  0.3280
 7584TIP3   OH222715   6.792   6.001   1.996  0.3772  0.7027 -0.3102
 7584TIP3    H122716   6.749   5.918   2.018  0.5374  0.8657  0.6358
 7584TIP3    H222717   6.722   6.056   1.960  0.0994  0.4584 -0.1466
 7585TIP3   OH222718   4.986   4.611   4.552 -0.6536 -0.4074  0.0859
 7585TIP3    H122719   4.971   4.700   4.581  0.0822 -0.4448  0.6142
 7585TIP3    H222720   5.044   4.620   4.476 -0.5786 -0.4326  0.1397
 7586TIP3   OH222721   1.710   5.715   5.159  0.3334 -0.0386 -0.5086
 7586TIP3    H122722   1.668   5.757   5.084  2.4177  0.4101 -1.5029
 7586TIP3    H222723   1.771   5.781   5.192  0.5054 -0.7594  0.6503
 7587TIP3   OH222724   5.658   5.744   3.883  0.2606 -0.3165 -0.1033
 7587TIP3    H122725   5.706   5.811   3.835  0.2403  0.4017  0.8473
 7587TIP3    H222726   5.712   5.665   3.875  1.5158  0.4134  0.7546
 7588TIP3   OH222727   1.410   1.147   2.921 -0.1659 -0.2981  0.5206
 7588TIP3    H122728   1.414   1.081   2.989  0.8480  0.5208  1.2728
 7588TIP3    H222729   1.351   1.214   2.956 -0.8376 -0.5675 -0.0543
 7589TIP3   OH222730   4.152   2.211   1.386 -0.5803  0.3054 -0.3565
 7589TIP3    H122731   4.199   2.142   1.339  2.5100  0.5947  1.9512
 7589TIP3    H222732   4.077   2.166   1.425  0.8246 -1.6260  0.2884
 7590TIP3   OH222733   6.408   4.457   0.524  0.5396  0.0961  0.3005
 7590TIP3    H122734   6.469   4.471   0.596 -0.9209  0.5819  1.4750
 7590TIP3    H222735   6.344   4.527   0.532 -0.3451 -0.5561 -0.7412
 7591TIP3   OH222736   0.219   5.657   2.210  0.6319 -0.2020  0.0810
 7591TIP3    H122737   0.281   5.669   2.282 -0.4438  0.4370  0.9184
 7591TIP3    H222738   0.144   5.712   2.233  0.6049  0.7059 -1.9348
 7592TIP3   OH222739   4.230   3.184   1.050 -0.0802 -0.4483 -0.2574
 7592TIP3    H122740   4.245   3.269   1.009  2.4769 -0.7093 -0.0410
 7592TIP3    H222741   4.261   3.195   1.140 -0.6639 -1.3337  0.0648
 7593TIP3   OH222742   5.702   1.678   2.652 -0.1504  0.4161 -0.1423
 7593TIP3    H122743   5.759   1.610   2.687 -2.0714 -1.3521 -0.2094
 7593TIP3    H222744   5.738   1.760   2.685  1.2895 -0.7653  1.3725
 7594TIP3   OH222745   5.569   2.942   5.153  0.4333  0.0670 -0.0049
 7594TIP3    H122746   5.550   2.851   5.177  0.6823  0.1050  0.3442
 7594TIP3    H222747   5.559   2.991   5.235  0.0585  0.3932 -0.2433
 7595TIP3   OH222748   5.212   1.245   2.475  0.1915 -0.0444 -0.1920
 7595TIP3    H122749   5.248   1.162   2.504 -1.6253  0.2318  3.3203
 7595TIP3    H222750   5.260   1.311   2.525  0.3141  0.9380 -1.5448
 7596TIP3   OH222751   2.314   5.186   4.318  0.2263 -0.0353 -0.6840
 7596TIP3    H122752   2.301   5.138   4.236  1.3420 -2.4974  0.4429
 7596TIP3    H222753   2.235   5.169   4.369  0.3214 -0.0847 -0.5519
 7597TIP3   OH222754   2.609   2.379   3.180 -0.1983  0.5248 -0.1605
 7597TIP3    H122755   2.679   2.314   3.178 -0.3572  0.3590 -0.4342
 7597TIP3    H222756   2.577   2.382   3.090 -0.3956  0.7598 -0.0832
 7598TIP3   OH222757   6.443   6.695   2.812  0.2294 -0.6112 -0.3647
 7598TIP3    H122758   6.356   6.685   2.773  0.0607  0.4925 -0.3143
 7598TIP3    H222759   6.432   6.667   2.903 -0.1399 -0.2503 -0.2940
 7599TIP3   OH222760   4.146   0.791   5.663 -0.5256  0.4481 -0.2043
 7599TIP3    H122761   4.106   0.825   5.743 -0.2470  0.5015 -0.0865
 7599TIP3    H222762   4.212   0.856   5.639  0.6000 -0.4115  0.4983
 7600TIP3   OH222763   4.344   4.972   3.973 -0.5682 -0.4334 -0.6435
 7600TIP3    H122764   4.373   4.958   3.883  0.3942 -2.7846 -0.0494
 7600TIP3    H222765   4.419   5.011   4.017 -0.1890 -1.4022 -0.3850
 7601TIP3   OH222766   4.746   3.723   5.424  0.1121  0.5377  0.5156
 7601TIP3    H122767   4.687   3.721   5.348  0.4009 -0.2254  0.3054
 7601TIP3    H222768   4.699   3.776   5.489  0.1873  1.8705 -0.4592
 7602TIP3   OH222769   3.209   4.849   3.140 -0.0432  0.0976 -0.3072
 7602TIP3    H122770   3.188   4.870   3.232  1.6836  0.5366  0.0168
 7602TIP3    H222771   3.124   4.842   3.098 -0.8699  0.4895  1.2030
 7603TIP3   OH222772   2.782   4.504   3.612 -0.4084  0.1124 -0.2515
 7603TIP3    H122773   2.799   4.513   3.518  0.4016  0.4696 -0.0817
 7603TIP3    H222774   2.705   4.558   3.628  0.4844  1.4695 -0.4096
 7604TIP3   OH222775   5.793   4.947   0.798 -0.3948 -0.0720  0.0388
 7604TIP3    H122776   5.709   4.979   0.831 -0.7464  0.1856 -1.0829
 7604TIP3    H222777   5.858   4.996   0.848 -0.9098  0.0431  0.6112
 7605TIP3   OH222778   2.873   6.180   0.730  0.0998 -0.3083 -0.1301
 7605TIP3    H122779   2.792   6.221   0.762 -0.7707 -2.3841  0.4706
 7605TIP3    H222780   2.943   6.239   0.759 -1.1977  2.1816 -1.6795
 7606TIP3   OH222781   4.389   6.330   4.541 -0.0017  0.2770  0.1531
 7606TIP3    H122782   4.437   6.247   4.542 -0.1762  0.1815  0.9433
 7606TIP3    H222783   4.441   6.388   4.596 -1.0103  0.0396  1.4003
 7607TIP3   OH222784   0.421   1.530   0.223 -0.7262  0.0600  0.0155
 7607TIP3    H122785   0.436   1.617   0.186  0.7219  1.3765  3.2959
 7607TIP3    H222786   0.507   1.502   0.253 -1.5516 -1.5327  1.0270
 7608TIP3   OH222787   0.349   6.452   1.007 -0.6376  0.1218  0.2287
 7608TIP3    H122788   0.319   6.427   0.919 -1.4608  0.3373  0.4356
 7608TIP3    H222789   0.401   6.378   1.037 -0.5347 -0.0470 -0.3569
 7609TIP3   OH222790   4.826   6.196   3.597 -0.0058 -0.4524  0.3678
 7609TIP3    H122791   4.904   6.173   3.546 -1.2616 -0.3455 -1.7461
 7609TIP3    H222792   4.859   6.216   3.684  2.0956 -2.2047  0.0542
 7610TIP3   OH222793   3.094   5.699   5.133 -0.8572  0.0050 -0.0757
 7610TIP3    H122794   3.058   5.787   5.119  0.2119  0.5386  0.4640
 7610TIP3    H222795   3.171   5.695   5.076 -0.6810 -0.4426  0.1918
 7611TIP3   OH222796   1.165   4.169   0.848 -0.3042 -0.2510  0.1439
 7611TIP3    H122797   1.186   4.253   0.807  0.5639 -0.1451  0.7676
 7611TIP3    H222798   1.140   4.112   0.775 -1.2743  0.6477 -0.2485
 7612TIP3   OH222799   5.440   2.127   4.566  0.0852 -0.7224 -0.1847
 7612TIP3    H122800   5.382   2.174   4.506 -0.8532 -0.3725  0.9653
 7612TIP3    H222801   5.394   2.127   4.649  1.5754 -0.7951  0.6755
 7613TIP3   OH222802   6.637   6.610   3.900 -0.0038 -0.6070 -0.0661
 7613TIP3    H122803   6.626   6.705   3.909  1.0625 -0.5697  1.0923
 7613TIP3    H222804   6.715   6.600   3.846  0.6118 -0.8057  0.8426
 7614TIP3   OH222805   6.808   0.240   2.912 -0.6586 -0.1239  0.2407
 7614TIP3    H122806   6.886   0.190   2.884  1.1961  2.1812  0.9613
 7614TIP3    H222807   6.774   0.190   2.987  1.0750 -0.4118  0.8984
 7615TIP3   OH222808   4.506   4.038   3.311 -0.0745 -0.0612 -0.1027
 7615TIP3    H122809   4.549   3.955   3.291  0.5104 -0.5565  2.7445
 7615TIP3    H222810   4.441   4.049   3.242  1.1331 -1.9041 -1.6239
 7616TIP3   OH222811   4.329   2.730   1.038 -0.5627 -0.0968  0.4472
 7616TIP3    H122812   4.336   2.657   1.099 -2.7099 -0.4383  0.3467
 7616TIP3    H222813   4.282   2.695   0.963  1.1954  0.5824 -1.0414
 7617TIP3   OH222814   2.611   3.008   2.322 -0.6335 -0.0585  0.2191
 7617TIP3    H122815   2.527   3.048   2.347 -0.5248  1.6260 -1.8752
 7617TIP3    H222816   2.677   3.066   2.360 -0.4317 -0.4408  0.4498
 7618TIP3   OH222817   3.531   2.071   3.678 -0.2608 -0.0978  0.0389
 7618TIP3    H122818   3.562   2.087   3.767  0.6606 -2.4258  0.1916
 7618TIP3    H222819   3.606   2.031   3.633 -1.4404 -1.1315 -1.0821
 7619TIP3   OH222820   1.726   0.073   3.947 -0.1967  0.4338 -0.1924
 7619TIP3    H122821   1.674   0.142   3.906 -2.1026 -1.6292 -1.5089
 7619TIP3    H222822   1.678   0.053   4.028 -0.6651 -0.4746 -0.6793
 7620TIP3   OH222823   3.798   4.456   2.442  0.0281 -0.1612 -0.3585
 7620TIP3    H122824   3.828   4.459   2.351 -1.2467  1.4416 -0.7622
 7620TIP3    H222825   3.870   4.412   2.489  0.8060 -0.8247 -2.0701
 7621TIP3   OH222826   6.218   6.070   1.776 -0.4002 -0.9456  0.4867
 7621TIP3    H122827   6.145   6.103   1.725  0.5175  1.0744  0.3909
 7621TIP3    H222828   6.283   6.044   1.711  0.1785  0.2376  0.5561
 7622TIP3   OH222829   0.155   0.440   4.476  0.1909 -0.0117  0.2832
 7622TIP3    H122830   0.090   0.376   4.505 -0.3299 -1.2627 -3.1729
 7622TIP3    H222831   0.104   0.506   4.429  1.1881  0.3844 -0.2732
 7623TIP3   OH222832   1.767   4.314   3.404 -0.2342 -0.0929  0.2702
 7623TIP3    H122833   1.731   4.273   3.483  0.4513 -0.6839  0.2852
 7623TIP3    H222834   1.840   4.368   3.436  0.7734 -1.2106 -0.0511
 7624TIP3   OH222835   1.515   0.526   2.391 -0.3219  0.1496 -0.7274
 7624TIP3    H122836   1.430   0.570   2.393  0.2606  1.4310  2.3971
 7624TIP3    H222837   1.517   0.474   2.471  1.6434 -0.2567 -0.9784
 7625TIP3   OH222838   2.843   4.741   2.871  0.2355  0.2998  0.3263
 7625TIP3    H122839   2.748   4.734   2.878  0.2137  1.3915  1.4314
 7625TIP3    H222840   2.863   4.706   2.784 -1.3159  1.3258 -0.4922
 7626TIP3   OH222841   3.706   1.392   4.550 -0.4328 -0.1240 -0.9985
 7626TIP3    H122842   3.739   1.326   4.490 -0.4830  0.3883 -1.5981
 7626TIP3    H222843   3.613   1.399   4.529 -0.3848  0.2861 -1.0847
 7627TIP3   OH222844   5.272   4.677   4.112  0.2448  0.0208 -0.6790
 7627TIP3    H122845   5.301   4.674   4.021 -0.0883  2.1005 -0.8985
 7627TIP3    H222846   5.179   4.701   4.106 -0.0235 -0.7728  0.1868
 7628TIP3   OH222847   6.271   3.126   0.895 -0.0864  0.1504 -0.4492
 7628TIP3    H122848   6.294   3.218   0.907  2.7115 -0.1306 -2.4229
 7628TIP3    H222849   6.344   3.078   0.934 -0.4667 -1.1299 -1.2402
 7629TIP3   OH222850   3.080   6.195   5.677  0.2509  0.0456  0.4718
 7629TIP3    H122851   3.009   6.245   5.639 -0.3793 -1.4785 -0.4752
 7629TIP3    H222852   3.159   6.226   5.632  0.0705  1.1132  0.8831
 7630TIP3   OH222853   5.922   4.103   2.359  0.5551 -0.0974  0.7333
 7630TIP3    H122854   5.863   4.051   2.304 -0.0333  0.7535  0.5518
 7630TIP3    H222855   5.980   4.147   2.298  0.3265  0.3357  0.8259
 7631TIP3   OH222856   2.710   6.626   4.169  0.6194  0.5459 -0.6104
 7631TIP3    H122857   2.637   6.627   4.231  0.7115 -0.0051 -0.4818
 7631TIP3    H222858   2.668   6.623   4.083  0.4003 -2.5560 -0.5175
 7632TIP3   OH222859   3.119   4.338   3.876 -0.1112  0.8547  0.2046
 7632TIP3    H122860   3.140   4.248   3.851 -0.8866  0.7211 -0.0075
 7632TIP3    H222861   3.137   4.390   3.798 -0.1213  0.8133  0.1751
 7633TIP3   OH222862   2.957   2.271   5.333 -0.2950 -0.1530 -0.4335
 7633TIP3    H122863   2.869   2.302   5.357  0.2499  0.7237  0.5157
 7633TIP3    H222864   2.963   2.183   5.371 -0.6897 -0.1309 -0.3183
 7634TIP3   OH222865   7.214   2.871   1.320  0.3490 -0.0155 -1.0593
 7634TIP3    H122866   7.174   2.956   1.339 -0.4667 -0.3403 -1.2723
 7634TIP3    H222867   7.145   2.807   1.339  0.8964 -0.6220 -1.0659
 7635TIP3   OH222868   6.687   6.684   5.461 -0.6693  0.1679 -0.0338
 7635TIP3    H122869   6.750   6.669   5.531 -1.4435 -0.1735  0.5928
 7635TIP3    H222870   6.629   6.752   5.494 -1.7110 -0.7653  0.1107
 7636TIP3   OH222871   0.420   4.095   5.217 -0.0089 -0.6694 -0.1666
 7636TIP3    H122872   0.513   4.095   5.240  0.6095  0.3284 -2.4129
 7636TIP3    H222873   0.385   4.174   5.257  0.0925 -1.0430  0.6754
 7637TIP3   OH222874   1.945   5.815   0.916 -0.1708 -0.4513  0.4483
 7637TIP3    H122875   1.894   5.879   0.867  0.3905 -1.3100 -1.3461
 7637TIP3    H222876   2.021   5.864   0.947 -0.3749  0.0418  0.1763
 7638TIP3   OH222877   1.746   3.795   3.585  0.2022  0.1401  0.5017
 7638TIP3    H122878   1.785   3.707   3.585 -2.3812 -1.1638 -2.0584
 7638TIP3    H222879   1.795   3.842   3.517 -0.0202 -0.1571  0.1305
 7639TIP3   OH222880   6.071   4.910   0.233 -0.1183 -0.2657  0.0920
 7639TIP3    H122881   6.141   4.962   0.195 -0.7996 -0.3129 -1.2790
 7639TIP3    H222882   5.991   4.949   0.199 -0.6537 -1.9524 -0.6943
 7640TIP3   OH222883   0.862   0.150   5.128  0.1991  0.1809 -0.1985
 7640TIP3    H122884   0.878   0.147   5.034 -0.7831  0.2464 -0.3684
 7640TIP3    H222885   0.946   0.124   5.167  0.7617  0.6575 -1.0736
 7641TIP3   OH222886   2.127   4.285   2.614 -0.1772  0.3202 -0.2810
 7641TIP3    H122887   2.068   4.346   2.571 -1.9130  0.1851  1.7839
 7641TIP3    H222888   2.151   4.328   2.696  3.0441  0.5647 -1.1829
 7642TIP3   OH222889   5.055   0.117   1.559 -0.2798 -0.6052  0.2120
 7642TIP3    H122890   5.076   0.065   1.482 -2.1348 -0.4656 -0.4501
 7642TIP3    H222891   5.113   0.085   1.627  2.1832 -0.0056 -1.4804
 7643TIP3   OH222892   3.781   6.433   4.058 -0.4749 -0.0978  0.1544
 7643TIP3    H122893   3.761   6.360   4.116  0.3133 -0.8708 -0.5110
 7643TIP3    H222894   3.820   6.392   3.981 -0.8639  0.9591 -0.6309
 7644TIP3   OH222895   6.735   0.686   0.416  0.1415  0.1032  0.0280
 7644TIP3    H122896   6.693   0.765   0.383 -0.4225 -1.0041 -2.0675
 7644TIP3    H222897   6.745   0.702   0.510 -1.0104  2.1572 -0.1348
 7645TIP3   OH222898   4.033   5.168   0.869 -0.6230 -0.5231  0.4946
 7645TIP3    H122899   3.950   5.125   0.848 -0.0752 -0.5967 -1.7450
 7645TIP3    H222900   4.097   5.126   0.812 -0.0029  2.9984 -1.7158
 7646TIP3   OH222901   6.638   0.789   2.373 -0.2744  0.3183 -0.1846
 7646TIP3    H122902   6.543   0.782   2.363 -0.2642  1.3561 -1.1414
 7646TIP3    H222903   6.662   0.869   2.327  1.0371  0.2321  0.2937
 7647TIP3   OH222904   6.334   4.986   1.357 -0.1785 -0.1272  0.4142
 7647TIP3    H122905   6.240   4.972   1.360 -0.2413  0.3061  0.5712
 7647TIP3    H222906   6.371   4.898   1.347 -0.4860 -0.6222  2.9640
 7648TIP3   OH222907   4.370   6.079   0.132 -0.1705 -0.3545 -0.1178
 7648TIP3    H122908   4.377   6.039   0.219 -0.3555 -0.2327 -0.0458
 7648TIP3    H222909   4.294   6.137   0.139  0.2064  0.1543 -0.1620
 7649TIP3   OH222910   2.749   2.448   4.884  0.1632  0.3078  0.0279
 7649TIP3    H122911   2.779   2.397   4.960  0.2027  2.9517  1.9211
 7649TIP3    H222912   2.788   2.534   4.895 -0.4184  1.0239 -2.6730
 7650TIP3   OH222913   0.069   3.744   1.439  0.2580  0.2138 -0.7978
 7650TIP3    H122914   0.133   3.813   1.418  0.5755 -0.0127 -0.5883
 7650TIP3    H222915  -0.008   3.792   1.468  0.6228  0.4762 -0.2381
 7651TIP3   OH222916   6.518   1.505   0.265  0.4446 -0.6792 -0.0889
 7651TIP3    H122917   6.574   1.476   0.193  0.6078 -1.0634  0.1861
 7651TIP3    H222918   6.566   1.579   0.304  0.2762 -0.3672 -0.4729
 7652TIP3   OH222919   4.843   2.385   1.818 -0.1676  0.0277 -0.0735
 7652TIP3    H122920   4.914   2.427   1.770 -0.5325 -0.0349 -0.6732
 7652TIP3    H222921   4.870   2.390   1.910  0.3167  0.5619 -0.2399
 7653TIP3   OH222922   3.302   3.713   5.431  0.2624  0.1882  0.3674
 7653TIP3    H122923   3.314   3.692   5.524 -0.1559  0.0091  0.3796
 7653TIP3    H222924   3.228   3.773   5.430  1.4451  1.7192  0.3436
 7654TIP3   OH222925   6.723   3.797   2.737  0.1398 -0.0558  0.2113
 7654TIP3    H122926   6.782   3.733   2.697  0.0853 -0.7200  1.1601
 7654TIP3    H222927   6.721   3.870   2.675 -0.8894 -1.5392 -1.6172
 7655TIP3   OH222928   5.417   6.331   3.792 -0.1689 -0.1695 -0.1444
 7655TIP3    H122929   5.410   6.339   3.887 -0.2389  0.4342 -0.1959
 7655TIP3    H222930   5.500   6.284   3.777 -0.6342 -1.1434  0.2392
 7656TIP3   OH222931   6.030   3.563   1.607  0.2468  0.6907  0.5862
 7656TIP3    H122932   5.983   3.633   1.652  0.3867  0.5843  0.8974
 7656TIP3    H222933   6.092   3.530   1.671 -0.6100 -0.5078  0.8407
 7657TIP3   OH222934   0.739   4.506   1.013 -0.4187  0.0162 -0.0337
 7657TIP3    H122935   0.747   4.592   0.972 -2.9675  0.2108 -0.3116
 7657TIP3    H222936   0.777   4.517   1.100 -1.5543  1.7516  0.2982
 7658TIP3   OH222937   2.750   4.476   2.671 -0.4329 -0.1866 -0.3077
 7658TIP3    H122938   2.807   4.537   2.623  0.4688 -1.5102 -1.0060
 7658TIP3    H222939   2.668   4.476   2.622  0.0056 -0.4784 -1.0612
 7659TIP3   OH222940   1.381   1.016   0.343  0.0851 -0.2833 -1.3117
 7659TIP3    H122941   1.384   0.969   0.259 -0.0068 -2.8617  0.0420
 7659TIP3    H222942   1.462   0.991   0.387  0.6073  1.8342 -0.9668
 7660TIP3   OH222943   4.515   1.168   0.257 -0.5001  0.5269 -0.3038
 7660TIP3    H122944   4.501   1.074   0.269  0.3246  0.5055  0.6211
 7660TIP3    H222945   4.599   1.174   0.212 -0.6025  0.8178 -0.4530
 7661TIP3   OH222946   4.774   0.291   4.153 -0.2160 -0.1929  0.8145
 7661TIP3    H122947   4.823   0.372   4.142 -1.2805  0.3963  0.3200
 7661TIP3    H222948   4.686   0.311   4.122 -0.1760 -1.8981 -0.5511
 7662TIP3   OH222949   1.835   1.057   1.909 -0.4143 -0.2556 -0.2145
 7662TIP3    H122950   1.814   1.110   1.832 -2.6784 -1.8313 -0.7965
 7662TIP3    H222951   1.776   1.089   1.977 -1.6280 -1.7176 -0.4996
 7663TIP3   OH222952   6.790   1.248   2.617 -0.0866 -0.3038  0.0865
 7663TIP3    H122953   6.769   1.182   2.551 -3.1205 -0.1457  0.7516
 7663TIP3    H222954   6.821   1.324   2.567  0.3241 -1.1035 -0.9078
 7664TIP3   OH222955   2.593   1.607   1.176  0.6054  0.2849 -0.2949
 7664TIP3    H122956   2.569   1.609   1.268  1.9823  1.3537  0.0719
 7664TIP3    H222957   2.689   1.606   1.176  0.6592  1.6417 -1.7103
 7665TIP3   OH222958   4.922   4.142   1.062  0.0213 -0.0620  0.2906
 7665TIP3    H122959   4.934   4.131   0.968  2.1215  2.4393  0.1638
 7665TIP3    H222960   4.840   4.190   1.070  0.4824  0.8583 -0.3829
 7666TIP3   OH222961   7.130   0.258   5.567 -0.7402 -0.8039  0.7069
 7666TIP3    H122962   7.069   0.319   5.526  0.3544 -1.0065 -1.3986
 7666TIP3    H222963   7.164   0.304   5.643 -0.2098  1.0929 -0.6161
 7667TIP3   OH222964   6.717   2.726   4.235 -0.3954  0.6237 -0.3016
 7667TIP3    H122965   6.639   2.777   4.211 -0.0483  1.0245 -0.5935
 7667TIP3    H222966   6.683   2.654   4.288 -1.1411 -0.0495 -1.6322
 7668TIP3   OH222967   1.190   1.178   0.961  0.1610 -0.3084  0.0394
 7668TIP3    H122968   1.235   1.135   1.034  0.7660  0.2195 -0.0166
 7668TIP3    H222969   1.239   1.150   0.884 -0.0819 -0.3425 -0.1033
 7669TIP3   OH222970   5.900   5.171   4.661 -0.2203 -0.1004  0.0477
 7669TIP3    H122971   5.919   5.216   4.743  0.2496 -0.2754  0.0364
 7669TIP3    H222972   5.980   5.181   4.609 -0.7162  0.5129 -0.6246
 7670TIP3   OH222973   6.315   3.375   4.888 -0.0178 -0.2537  0.1649
 7670TIP3    H122974   6.300   3.410   4.976  3.2591  0.4235  0.5521
 7670TIP3    H222975   6.320   3.280   4.901  1.8242 -0.0783  1.0184
 7671TIP3   OH222976   5.527   3.162   5.795  0.2534  0.2150 -0.0458
 7671TIP3    H122977   5.469   3.238   5.802  1.8171  1.5050 -0.5484
 7671TIP3    H222978   5.575   3.176   5.714  0.8441 -1.1431  0.0451
 7672TIP3   OH222979   5.276   1.464   5.328 -0.2105  0.3880  0.3759
 7672TIP3    H122980   5.243   1.547   5.293 -1.2779  0.8837  2.3808
 7672TIP3    H222981   5.362   1.454   5.289 -0.4802  1.9282 -0.7091
 7673TIP3   OH222982   4.839   6.174   1.570 -0.1494 -0.2814 -0.3191
 7673TIP3    H122983   4.884   6.238   1.626 -0.3786  0.0367 -0.4983
 7673TIP3    H222984   4.767   6.223   1.530  0.0306 -0.4996 -0.9203
 7674TIP3   OH222985   0.753   4.965   1.252 -0.1802 -0.1146  0.2669
 7674TIP3    H122986   0.713   5.040   1.208  1.3499  0.2561 -0.5840
 7674TIP3    H222987   0.842   4.962   1.217  0.5477 -0.8869  2.0331
 7675TIP3   OH222988   1.935   4.924   1.297 -0.3231  0.1210  0.3514
 7675TIP3    H122989   1.924   4.955   1.387 -1.1417 -2.0457  1.0542
 7675TIP3    H222990   1.853   4.948   1.253  0.2903  1.6625 -0.0106
 7676TIP3   OH222991   5.728   6.557   4.252  0.6123  0.4908 -0.3983
 7676TIP3    H122992   5.692   6.478   4.292  0.1105  0.6159 -0.5958
 7676TIP3    H222993   5.652   6.615   4.240  1.2038  1.7645  1.4410
 7677TIP3   OH222994   6.441   1.914   3.960  0.4838 -0.7292 -0.1752
 7677TIP3    H122995   6.449   1.839   4.020 -1.4780 -2.3818 -1.8361
 7677TIP3    H222996   6.407   1.985   4.015 -1.4641 -2.2536  0.7196
 7678TIP3   OH222997   0.519   4.248   1.572  0.0179  0.3749 -0.4936
 7678TIP3    H122998   0.516   4.318   1.637 -1.4156 -0.6098  0.5396
 7678TIP3    H222999   0.605   4.207   1.585  0.5264  1.3898 -0.5536
 7679TIP3   OH223000   4.726   1.833   0.612  0.1549 -1.0365  0.2026
 7679TIP3    H123001   4.654   1.771   0.597  0.5902 -1.3541 -0.5948
 7679TIP3    H223002   4.684   1.919   0.616 -0.2915 -1.2411 -0.0657
 7680TIP3   OH223003   5.077   3.362   2.507  0.3614 -0.3991  0.1656
 7680TIP3    H123004   5.050   3.370   2.415  3.3752  0.1726 -0.8050
 7680TIP3    H223005   5.087   3.453   2.537  0.3501 -0.5836  0.7429
 7681TIP3   OH223006   5.573   2.645   5.265 -0.4480  0.4056  0.8296
 7681TIP3    H123007   5.553   2.676   5.354 -0.1777 -0.8604  1.3552
 7681TIP3    H223008   5.584   2.550   5.275  2.5051  0.5442  0.0350
 7682TIP3   OH223009   6.408   2.431   5.012 -0.5307  0.1784  0.6444
 7682TIP3    H123010   6.476   2.389   4.959 -0.8325 -1.9459  1.8199
 7682TIP3    H223011   6.326   2.402   4.972 -0.7445 -0.0959  1.2686
 7683TIP3   OH223012   6.537   2.911   0.758  0.3525 -0.1668 -0.0774
 7683TIP3    H123013   6.566   2.823   0.781 -0.6422 -0.4690  0.0850
 7683TIP3    H223014   6.464   2.898   0.698 -0.1139  0.5283  0.3106
 7684TIP3   OH223015   4.418   3.006   3.281 -0.0182 -0.0418  0.3436
 7684TIP3    H123016   4.423   2.950   3.203  1.8216  1.9429 -1.1178
 7684TIP3    H223017   4.445   2.949   3.353  1.8021 -1.0891 -1.0646
 7685TIP3   OH223018   1.961   6.609   4.325  0.1962  0.3555  0.4173
 7685TIP3    H123019   1.875   6.571   4.311  0.3808  0.7446 -2.2336
 7685TIP3    H223020   1.998   6.559   4.399 -1.3572 -1.4196  0.0621
 7686TIP3   OH223021   3.697   6.291   5.807 -0.1665 -0.1712 -0.8304
 7686TIP3    H123022   3.729   6.201   5.807 -1.9656 -0.8566 -0.9969
 7686TIP3    H223023   3.776   6.345   5.804  1.0103 -1.6987  0.7883
 7687TIP3   OH223024   4.272   2.067   2.463 -0.1696 -0.0802  0.1920
 7687TIP3    H123025   4.297   1.978   2.486  0.9155 -0.2416 -1.3897
 7687TIP3    H223026   4.325   2.123   2.519  1.2060 -0.4529 -0.6898
 7688TIP3   OH223027   0.580   4.885   0.121 -0.3541 -0.1170 -0.3105
 7688TIP3    H123028   0.622   4.970   0.109 -1.0185  0.2233 -0.3073
 7688TIP3    H223029   0.616   4.852   0.203 -0.1789  0.2200 -0.2489
 7689TIP3   OH223030   3.958   0.761   1.114  0.1029  0.2719 -0.6032
 7689TIP3    H123031   3.935   0.760   1.022  1.1174 -1.9014 -0.8776
 7689TIP3    H223032   4.053   0.751   1.116 -0.0284 -1.0234  0.6868
 7690TIP3   OH223033   4.318   1.645   2.960 -0.6595 -0.0731  0.3460
 7690TIP3    H123034   4.276   1.607   3.037  2.0369 -1.8052  1.1081
 7690TIP3    H223035   4.352   1.570   2.911  1.4796  1.1572 -0.1921
 7691TIP3   OH223036   4.670   2.480   3.497  0.1464 -0.6549 -0.1796
 7691TIP3    H123037   4.734   2.483   3.569  0.1861  0.2974 -0.2367
 7691TIP3    H223038   4.595   2.528   3.531  0.4468  0.4584 -1.0304
 7692TIP3   OH223039   0.489   6.388   3.795  0.0514  0.2877 -0.1895
 7692TIP3    H123040   0.478   6.449   3.721 -2.0205  0.8166  0.4787
 7692TIP3    H223041   0.514   6.443   3.868  1.8011 -0.1980 -0.3863
 7693TIP3   OH223042   5.734   5.661   1.743  0.1155 -0.5894  0.3511
 7693TIP3    H123043   5.683   5.581   1.754 -0.4909  0.0018  2.2175
 7693TIP3    H223044   5.808   5.650   1.803  0.4679 -0.0739  0.0204
 7694TIP3   OH223045   4.879   4.317   0.626  0.1543  0.4553  0.0618
 7694TIP3    H123046   4.890   4.250   0.694 -2.0269  0.2148  0.2506
 7694TIP3    H223047   4.897   4.271   0.544 -2.0026 -0.6185  0.1304
 7695TIP3   OH223048   0.541   5.014   2.080  0.8470 -0.2480 -0.3546
 7695TIP3    H123049   0.465   5.073   2.077 -1.1058 -2.6308 -1.4682
 7695TIP3    H223050   0.554   4.997   2.174  0.0093  0.1703 -0.1495
 7696TIP3   OH223051   0.337   2.008   2.583 -0.2388 -0.4494 -0.1770
 7696TIP3    H123052   0.368   1.978   2.668  1.2736  0.0571 -0.5137
 7696TIP3    H223053   0.309   2.098   2.599  2.5388  0.6114 -0.6601
 7697TIP3   OH223054   5.446   6.788   2.616  0.3229  0.0613  0.2013
 7697TIP3    H123055   5.429   6.719   2.553  0.1416  0.6136 -0.3665
 7697TIP3    H223056   5.380   6.855   2.597  0.4965  0.3952  0.7369
 7698TIP3   OH223057   6.426   4.581   4.276 -0.2438  0.2471  0.4901
 7698TIP3    H123058   6.345   4.544   4.312 -0.6935  2.0034  1.3746
 7698TIP3    H223059   6.484   4.589   4.351  0.8963 -1.2521 -0.1850
 7699TIP3   OH223060   5.527   4.485   1.586 -0.1070  0.0455  0.2453
 7699TIP3    H123061   5.467   4.545   1.541  0.3336 -0.0059 -0.4154
 7699TIP3    H223062   5.529   4.407   1.531 -0.5275 -0.5134  1.0009
 7700TIP3   OH223063   3.850   3.240   2.391  0.0408  0.4339 -0.2680
 7700TIP3    H123064   3.914   3.189   2.440 -0.5168  0.5875  0.6407
 7700TIP3    H223065   3.897   3.319   2.364 -0.1213  1.2136  1.5964
 7701TIP3   OH223066   0.719   1.833   2.660  0.1626  0.2717 -0.1316
 7701TIP3    H123067   0.717   1.813   2.566 -1.6057  1.5847 -0.4265
 7701TIP3    H223068   0.793   1.893   2.670 -0.4599  1.1984 -0.9388
 7702TIP3   OH223069   3.919   4.848   4.568 -0.1884  0.2424  0.5355
 7702TIP3    H123070   3.989   4.833   4.630 -0.3006 -0.5391  0.4922
 7702TIP3    H223071   3.841   4.865   4.622 -0.1229  0.3620  0.5925
 7703TIP3   OH223072   3.442   4.657   2.674 -0.1084  0.5212  0.6818
 7703TIP3    H123073   3.510   4.709   2.630 -0.4047  0.2196 -0.1493
 7703TIP3    H223074   3.490   4.586   2.717  0.1945  0.8719  0.9261
 7704TIP3   OH223075   6.281   1.438   3.733  0.1812  0.0783 -0.1304
 7704TIP3    H123076   6.208   1.499   3.719 -0.9521 -1.4009 -0.9327
 7704TIP3    H223077   6.257   1.360   3.684  2.9281 -0.0371 -1.5061
 7705TIP3   OH223078   2.046   0.452   3.703 -0.7439  0.3070 -0.1754
 7705TIP3    H123079   2.023   0.363   3.727  0.3789 -0.6367 -2.3692
 7705TIP3    H223080   2.084   0.445   3.616 -0.2265  2.8855 -0.2438
 7706TIP3   OH223081   7.121   2.411   1.516 -0.2602  0.0254 -0.4283
 7706TIP3    H123082   7.112   2.500   1.481 -2.0923  0.2478  0.4954
 7706TIP3    H223083   7.204   2.380   1.480 -0.0390  1.7504 -1.5492
 7707TIP3   OH223084   3.469   3.142   0.891  0.2923 -0.0824  0.0160
 7707TIP3    H123085   3.546   3.148   0.834  0.2620  0.5024  0.0296
 7707TIP3    H223086   3.471   3.052   0.923 -0.2969 -0.7782 -1.7544
 7708TIP3   OH223087   4.901   0.980   5.153 -0.3425  0.4047  0.6622
 7708TIP3    H123088   4.935   1.037   5.222  2.5755  1.1410 -1.2064
 7708TIP3    H223089   4.934   0.893   5.175  0.8766  0.6988  0.1093
 7709TIP3   OH223090   6.494   1.047   4.022  0.5266  0.1039  0.4898
 7709TIP3    H123091   6.568   1.081   3.971  2.6895 -0.3435  3.1160
 7709TIP3    H223092   6.487   0.955   3.997  1.5719 -0.1120  0.9472
 7710TIP3   OH223093   0.265   1.869   5.239 -0.0541 -0.2272  0.2490
 7710TIP3    H123094   0.210   1.920   5.181 -1.8293 -0.0831  1.9817
 7710TIP3    H223095   0.327   1.932   5.275  0.5514 -0.1717 -0.8350
 7711TIP3   OH223096   5.806   6.180   0.473  0.6039 -0.2291 -0.1358
 7711TIP3    H123097   5.859   6.110   0.436 -0.1331 -0.4174 -0.8901
 7711TIP3    H223098   5.860   6.219   0.542  3.1354  1.7637 -2.9573
 7712TIP3   OH223099   6.757   4.253   4.904 -0.7806 -0.0653 -0.1109
 7712TIP3    H123100   6.814   4.297   4.841 -0.4089  1.1718  1.0235
 7712TIP3    H223101   6.668   4.270   4.872 -0.6083  0.8332 -0.1520
 7713TIP3   OH223102   2.722   5.534   5.809 -0.2160 -0.0431 -0.0099
 7713TIP3    H123103   2.688   5.454   5.769  0.2058 -0.1535 -0.1510
 7713TIP3    H223104   2.814   5.515   5.825 -0.2330  0.2285  0.4337
 7714TIP3   OH223105   5.303   2.091   0.545  0.9959 -0.2316 -0.0810
 7714TIP3    H123106   5.300   2.017   0.485  0.4829 -0.2613 -0.0229
 7714TIP3    H223107   5.363   2.153   0.504  0.0161  0.1066 -1.0585
 7715TIP3   OH223108   7.006   2.586   5.206  0.5028  0.1688  0.3719
 7715TIP3    H123109   7.053   2.577   5.123 -2.4515  1.7186 -1.6484
 7715TIP3    H223110   7.016   2.678   5.230 -0.2787  0.1795  0.6865
 7716TIP3   OH223111   6.321   3.965   5.078 -0.0753 -0.0571  0.1792
 7716TIP3    H123112   6.387   4.032   5.096  0.2929 -0.0542 -1.0249
 7716TIP3    H223113   6.366   3.882   5.099 -0.0913  0.0065  0.4649
 7717TIP3   OH223114   6.122   5.532   4.910  0.1862 -0.9176  0.1965
 7717TIP3    H123115   6.212   5.559   4.927 -0.6629  2.5513 -0.2096
 7717TIP3    H223116   6.115   5.529   4.815 -0.3495 -0.3222  0.2139
 7718TIP3   OH223117   2.481   0.307   4.508  0.6526  0.1100 -0.5198
 7718TIP3    H123118   2.501   0.278   4.597  1.4965  0.9716 -0.4091
 7718TIP3    H223119   2.475   0.226   4.458 -0.2425 -0.4102  0.3866
 7719TIP3   OH223120   0.379   4.455   2.398  0.2101 -0.1246 -0.5402
 7719TIP3    H123121   0.413   4.541   2.422  0.4334 -0.5765  0.8643
 7719TIP3    H223122   0.285   4.461   2.412  0.3476 -0.4191  0.7129
 7720TIP3   OH223123   1.600   1.675   1.838  0.1130 -0.1006 -0.0461
 7720TIP3    H123124   1.590   1.597   1.784  0.8484  0.2430 -0.6982
 7720TIP3    H223125   1.582   1.646   1.927 -1.2934 -0.6448 -0.4824
 7721TIP3   OH223126   5.315   5.484   5.487 -0.0755  0.4228 -0.1896
 7721TIP3    H123127   5.360   5.562   5.454  0.1469  0.6040  0.5133
 7721TIP3    H223128   5.371   5.411   5.461 -0.9111  0.3587 -1.9457
 7722TIP3   OH223129   5.938   5.584   2.427 -0.0663  0.1898  0.3234
 7722TIP3    H123130   5.975   5.538   2.502  0.0009 -0.8140 -0.3088
 7722TIP3    H223131   6.003   5.652   2.406  0.0136  0.3354  1.0351
 7723TIP3   OH223132   1.137   3.159   1.379 -0.4636 -0.0581  0.0185
 7723TIP3    H123133   1.123   3.100   1.453 -1.9602 -0.4492 -0.5515
 7723TIP3    H223134   1.153   3.244   1.419 -1.4100 -0.2341  0.8026
 7724TIP3   OH223135   3.564   2.204   2.759 -0.3528 -0.1312 -0.1215
 7724TIP3    H123136   3.505   2.267   2.719 -1.4523 -1.1700 -0.1930
 7724TIP3    H223137   3.598   2.249   2.837  0.3468  1.2037 -1.1472
 7725TIP3   OH223138   0.011   3.171   5.432  0.1689  0.2346 -0.1639
 7725TIP3    H123139   0.063   3.223   5.493  0.4311  2.1478 -1.9440
 7725TIP3    H223140   0.034   3.080   5.453  2.6312  0.9358  0.4948
 7726TIP3   OH223141   6.346   4.007   0.045  0.3921  0.5609 -0.9552
 7726TIP3    H123142   6.332   4.010   0.140 -2.0659 -0.4772 -1.2020
 7726TIP3    H223143   6.395   4.087   0.025 -0.4832  1.6549  0.9738
 7727TIP3   OH223144   4.588   6.454   5.756  0.2689 -1.3449  0.0273
 7727TIP3    H123145   4.605   6.415   5.842  0.9389 -0.9285  0.0855
 7727TIP3    H223146   4.669   6.442   5.707  0.0369 -1.1876 -0.3991
 7728TIP3   OH223147   2.175   0.415   1.609  0.0821 -0.0579 -0.4504
 7728TIP3    H123148   2.215   0.365   1.679  2.8826  1.4775 -0.7969
 7728TIP3    H223149   2.118   0.478   1.653 -0.8736 -1.2851  0.1501
 7729TIP3   OH223150   2.974   6.397   2.341  0.2626  0.4379 -0.1911
 7729TIP3    H123151   2.887   6.412   2.378  0.3066  1.1768 -0.3712
 7729TIP3    H223152   2.957   6.385   2.247  0.2489 -0.5029 -0.0806
 7730TIP3   OH223153   5.538  -0.012   4.056 -0.5453 -0.6555  0.2690
 7730TIP3    H123154   5.445   0.011   4.054 -0.2778  0.5197  0.1476
 7730TIP3    H223155   5.582   0.071   4.037  0.5203 -1.2369  0.1873
 7731TIP3   OH223156   0.131   5.204   0.344 -0.0737  0.2850  0.2378
 7731TIP3    H123157   0.088   5.131   0.298  0.9270 -0.7900  0.9573
 7731TIP3    H223158   0.205   5.163   0.389  1.3098  1.9654 -0.4079
 7732TIP3   OH223159   6.100   2.537   5.474  0.0218 -0.0170  0.2155
 7732TIP3    H123160   6.093   2.502   5.385 -1.1458  0.8615 -0.0587
 7732TIP3    H223161   6.194   2.555   5.485  0.4967 -2.0447 -0.0594
 7733TIP3   OH223162   1.574   5.338   2.166  0.0283  0.4451 -0.2027
 7733TIP3    H123163   1.540   5.315   2.080 -0.0509  0.9311 -0.3034
 7733TIP3    H223164   1.666   5.315   2.163 -0.0635  0.0808 -0.2787
 7734TIP3   OH223165   0.704   4.592   2.195  1.0410  0.4211  0.0029
 7734TIP3    H123166   0.693   4.597   2.100  1.0497  1.4645  0.0485
 7734TIP3    H223167   0.767   4.661   2.215 -1.6090  2.6708  1.1800
 7735TIP3   OH223168   6.467   0.577   3.758 -0.3273 -0.6557 -0.1338
 7735TIP3    H123169   6.438   0.554   3.670  0.6407 -0.6594 -0.4634
 7735TIP3    H223170   6.557   0.545   3.763 -1.1712 -2.9988  1.7521
 7736TIP3   OH223171   5.386   3.311   5.289 -0.3441 -0.5294  0.2698
 7736TIP3    H123172   5.372   3.236   5.346 -0.5274 -2.0053 -1.6304
 7736TIP3    H223173   5.300   3.352   5.281 -0.9648 -2.0340 -1.2095
 7737TIP3   OH223174   0.580   1.504   4.653  0.2204 -0.1855  0.2545
 7737TIP3    H123175   0.547   1.420   4.621 -1.8792  1.0961 -1.2416
 7737TIP3    H223176   0.523   1.569   4.611  0.5952  1.9213  2.7579
 7738TIP3   OH223177   5.472   3.543   2.358  0.3173 -0.2920 -0.1011
 7738TIP3    H123178   5.398   3.493   2.326 -0.6503  1.0669 -0.0531
 7738TIP3    H223179   5.451   3.634   2.338  2.1431  0.1025 -0.4243
 7739TIP3   OH223180   4.792   4.180   3.140  0.3741 -0.4629 -0.0869
 7739TIP3    H123181   4.828   4.163   3.227 -0.8465  1.2019  0.7979
 7739TIP3    H223182   4.750   4.098   3.114  0.8731 -1.0180  0.8183
 7740TIP3   OH223183   7.048   3.306   2.144  0.3287  0.1576 -0.1220
 7740TIP3    H123184   7.048   3.214   2.171  0.5848  0.1260 -0.2224
 7740TIP3    H223185   7.005   3.305   2.058  0.3287  0.1302 -0.1220
 7741TIP3   OH223186   4.435   3.890   3.795 -0.1255  0.7194 -0.2918
 7741TIP3    H123187   4.435   3.914   3.888  0.6321 -1.2609  0.2865
 7741TIP3    H223188   4.491   3.956   3.754  0.2443  1.1319  0.8192
 7742TIP3   OH223189   5.708   4.661   5.069  1.0990 -0.8156  0.6747
 7742TIP3    H123190   5.753   4.673   4.986 -0.4327  0.8608  0.0108
 7742TIP3    H223191   5.624   4.621   5.045  1.1254 -1.4114  1.5511
 7743TIP3   OH223192   5.557   3.627   4.296 -0.0196  0.1308 -0.0441
 7743TIP3    H123193   5.638   3.670   4.268  0.5237 -0.7804  0.1040
 7743TIP3    H223194   5.576   3.595   4.384 -0.2599 -0.7958 -0.3198
 7744TIP3   OH223195   2.628   5.216   2.508 -1.0195  0.0323  0.1284
 7744TIP3    H123196   2.575   5.255   2.578  0.1594 -0.2422  1.2279
 7744TIP3    H223197   2.718   5.226   2.539 -0.4421  0.1944 -1.5339
 7745TIP3   OH223198   5.793   1.420   2.237  0.2673 -0.1810  0.0979
 7745TIP3    H123199   5.779   1.469   2.318  0.4349 -1.3376  0.8684
 7745TIP3    H223200   5.763   1.331   2.258  0.9678 -0.6735 -0.8791
 7746TIP3   OH223201   6.802   4.878   3.036  0.1536 -0.2376  0.2179
 7746TIP3    H123202   6.710   4.872   3.010 -0.2607  2.1347  0.9230
 7746TIP3    H223203   6.824   4.971   3.027  1.8136 -0.3637  2.2187
 7747TIP3   OH223204   4.322   0.963   2.723  0.0315  0.0898  0.2265
 7747TIP3    H123205   4.254   0.938   2.786  0.4360 -1.0874  0.2057
 7747TIP3    H223206   4.367   1.037   2.764  2.2779 -2.5032  2.7969
 7748TIP3   OH223207   5.968   0.826   4.079  0.1608  0.0010  0.1699
 7748TIP3    H123208   5.893   0.778   4.114  0.4331  0.1009  0.9230
 7748TIP3    H223209   6.041   0.764   4.085  0.5309  0.5056  1.2167
 7749TIP3   OH223210   6.206   2.971   5.674  0.2184 -0.0387 -0.0689
 7749TIP3    H123211   6.173   2.944   5.588 -0.3919 -1.1591  0.4962
 7749TIP3    H223212   6.251   3.054   5.657  0.2815 -0.3360 -1.4989
 7750TIP3   OH223213   3.364   0.174   1.214 -0.4850  0.0820 -0.3577
 7750TIP3    H123214   3.338   0.255   1.171  0.7928  0.8548  0.2752
 7750TIP3    H223215   3.299   0.110   1.185 -0.8893  1.0637 -1.7237
 7751TIP3   OH223216   2.299   5.020   4.645 -0.3705 -0.2390  0.0433
 7751TIP3    H123217   2.269   4.972   4.722  1.4473 -1.6111 -0.0314
 7751TIP3    H223218   2.324   5.106   4.678  0.1822 -0.7434  0.9799
 7752TIP3   OH223219   2.616   4.771   2.362  0.6979 -0.3867 -0.1448
 7752TIP3    H123220   2.603   4.680   2.388 -0.0389  0.2225  1.7669
 7752TIP3    H223221   2.709   4.777   2.339  1.2394 -1.1738  1.7159
 7753TIP3   OH223222   3.146   6.610   2.395  0.6319 -0.2236 -0.4055
 7753TIP3    H123223   3.096   6.683   2.433 -0.9490 -0.8839 -1.1345
 7753TIP3    H223224   3.080   6.544   2.373  1.6598 -0.6603 -2.4973
 7754TIP3   OH223225   5.548   5.694   4.353 -0.2815 -0.4884  0.0045
 7754TIP3    H123226   5.458   5.724   4.365 -0.7229 -0.2002 -3.1933
 7754TIP3    H223227   5.545   5.637   4.276  2.0369 -1.7912  0.7509
 7755TIP3   OH223228   3.117   2.883   5.071  0.0586  0.2745  0.5929
 7755TIP3    H123229   3.208   2.857   5.085 -1.1791 -3.1907  4.1717
 7755TIP3    H223230   3.085   2.908   5.158 -2.8318 -0.3481 -0.1857
 7756TIP3   OH223231   1.879   5.150   3.411 -0.1309  0.4187  0.1380
 7756TIP3    H123232   1.923   5.149   3.496  1.2065  1.3464 -0.5086
 7756TIP3    H223233   1.941   5.194   3.352 -0.3634 -1.5691 -1.7010
 7757TIP3   OH223234   5.195   5.155   5.693  0.6644  0.4035  0.2449
 7757TIP3    H123235   5.228   5.167   5.783  0.5203  1.3609  0.1822
 7757TIP3    H223236   5.250   5.212   5.640 -0.6839  1.5732  0.0535
 7758TIP3   OH223237   4.133   1.818   3.881  0.0864 -0.5336 -0.0569
 7758TIP3    H123238   4.132   1.895   3.937 -0.7139 -1.8956  1.9434
 7758TIP3    H223239   4.193   1.840   3.810  0.7761  1.4844  1.0756
 7759TIP3   OH223240   1.941   3.032   1.645  0.2265  1.2390 -0.1747
 7759TIP3    H123241   1.900   3.094   1.584 -0.0882  0.7219 -0.5047
 7759TIP3    H223242   1.869   3.005   1.703  0.4928  1.6188  0.3400
 7760TIP3   OH223243   2.472   0.492   2.894  0.0936 -0.3752 -0.3085
 7760TIP3    H123244   2.479   0.468   2.802 -2.8426 -1.8776 -0.2838
 7760TIP3    H223245   2.434   0.580   2.894 -2.1166 -1.2504 -0.6764
 7761TIP3   OH223246   6.909   4.266   2.034 -0.1156  0.3104  0.1476
 7761TIP3    H123247   6.980   4.303   2.086 -0.2497  0.5052  0.1926
 7761TIP3    H223248   6.953   4.206   1.974  0.2033  1.1230 -0.4656
 7762TIP3   OH223249   2.036   1.902   0.185 -0.2517 -0.7337  0.2218
 7762TIP3    H123250   2.096   1.927   0.115  0.0303 -1.0448  0.3498
 7762TIP3    H223251   2.044   1.972   0.249 -0.5329 -0.4324 -0.0689
 7763TIP3   OH223252   6.995   3.093   0.289 -0.1940  0.1691  0.0579
 7763TIP3    H123253   6.904   3.116   0.306 -0.5371  1.0258 -2.5553
 7763TIP3    H223254   7.026   3.160   0.228  1.9256 -0.6250  0.1761
 7764TIP3   OH223255   3.553   0.474   1.908 -0.1110 -0.8164  0.2982
 7764TIP3    H123256   3.614   0.536   1.947  1.5364 -2.5452  0.6383
 7764TIP3    H223257   3.488   0.528   1.865  0.9498  1.1306  1.0154
 7765TIP3   OH223258   1.273   4.198   5.495 -0.1393  0.0490  0.0213
 7765TIP3    H123259   1.208   4.253   5.539 -0.1648 -0.9484  1.2765
 7765TIP3    H223260   1.348   4.256   5.481 -0.8188  0.8733 -0.3237
 7766TIP3   OH223261   3.296   5.651   4.175 -0.3404  0.0445  0.0366
 7766TIP3    H123262   3.286   5.570   4.226  0.5288 -1.0705 -1.4537
 7766TIP3    H223263   3.236   5.639   4.101 -2.0016  1.8763  1.0141
 7767TIP3   OH223264   5.970   4.810  -0.018 -0.8521  0.0965  0.2059
 7767TIP3    H123265   5.982   4.809   0.077  0.9050 -0.5173  0.0185
 7767TIP3    H223266   6.026   4.881  -0.048 -0.4304 -0.5017 -0.4579
 7768TIP3   OH223267   1.596   0.841   3.065 -0.5266 -0.3440  0.0526
 7768TIP3    H123268   1.588   0.800   3.152  0.2855  1.5629  1.0821
 7768TIP3    H223269   1.508   0.834   3.028 -1.4582  0.6624  1.9316
 7769TIP3   OH223270   2.326   0.293   2.204  0.3594 -0.3097 -0.5614
 7769TIP3    H123271   2.234   0.282   2.180 -0.2303  4.1660 -1.1650
 7769TIP3    H223272   2.324   0.314   2.298  0.6377  0.5801 -0.7451
 7770TIP3   OH223273   3.905   3.657   0.610  0.4317  0.5781  0.7711
 7770TIP3    H123274   3.893   3.751   0.623 -0.9469  0.2106  2.4440
 7770TIP3    H223275   3.818   3.620   0.620  0.8054 -0.8283 -0.6941
 7771TIP3   OH223276   4.416   3.196   1.498  0.0456  0.0632  0.0412
 7771TIP3    H123277   4.332   3.238   1.481 -0.2451 -0.5831 -0.1390
 7771TIP3    H223278   4.395   3.105   1.518  0.8431 -0.8538 -2.7593
 7772TIP3   OH223279   0.732   4.228   1.090 -0.7997  0.0220 -0.1490
 7772TIP3    H123280   0.800   4.228   1.157  0.6705  1.0804 -1.5838
 7772TIP3    H223281   0.750   4.305   1.037 -3.5002  0.7065 -0.2417
 7773TIP3   OH223282   5.176   1.618   5.885  0.8439 -0.3500  0.2259
 7773TIP3    H123283   5.228   1.559   5.940 -0.7215 -0.7956  1.2923
 7773TIP3    H223284   5.158   1.567   5.806  1.3849 -0.4567  0.1667
 7774TIP3   OH223285   2.217   0.416   4.571 -0.4216 -0.3749  0.0758
 7774TIP3    H123286   2.283   0.358   4.532 -0.3885  0.9591 -2.0400
 7774TIP3    H223287   2.263   0.500   4.581 -1.5075  0.3171 -0.5675
 7775TIP3   OH223288   0.170   6.681   2.052  0.4895 -0.0901 -0.0726
 7775TIP3    H123289   0.124   6.763   2.070 -0.5434 -0.4252 -1.0857
 7775TIP3    H223290   0.163   6.669   1.957  2.1656 -0.4651 -0.1856
 7776TIP3   OH223291   5.669   0.311   1.517 -0.0121  0.6506 -0.3800
 7776TIP3    H123292   5.761   0.335   1.509 -0.1385  1.6193  0.7504
 7776TIP3    H223293   5.632   0.379   1.574 -1.6966  0.9620 -1.7888
 7777TIP3   OH223294   1.075   4.440   5.393 -0.8274 -0.4399 -0.4961
 7777TIP3    H123295   1.155   4.487   5.370 -1.8478  3.0677  2.2378
 7777TIP3    H223296   1.004   4.490   5.351 -1.8165 -1.3594  0.0184
 7778TIP3   OH223297   3.992   0.698   4.468  0.0372  0.6283  0.4235
 7778TIP3    H123298   4.045   0.620   4.479  0.3381  0.7797  0.0637
 7778TIP3    H223299   3.904   0.672   4.497 -0.0070 -0.0201 -0.2641
 7779TIP3   OH223300   0.158   6.353   0.318  0.4604 -0.0464 -0.3552
 7779TIP3    H123301   0.076   6.378   0.362  0.6055 -1.6865  0.9537
 7779TIP3    H223302   0.140   6.265   0.284  0.9325  0.5113 -2.1614
 7780TIP3   OH223303   6.944   6.042   5.236 -0.9938 -0.1808 -0.2396
 7780TIP3    H123304   7.019   6.086   5.276 -0.7080 -1.1560  0.3332
 7780TIP3    H223305   6.868   6.087   5.272 -0.7088 -0.1341  0.3249
 7781TIP3   OH223306   5.753   0.718   4.827 -0.4828 -0.0434  0.0419
 7781TIP3    H123307   5.831   0.689   4.874  0.5642  1.0423 -0.9258
 7781TIP3    H223308   5.780   0.718   4.735 -1.5946  0.4539 -0.2997
 7782TIP3   OH223309   2.873   4.871   1.472  0.4833 -0.0459 -1.0736
 7782TIP3    H123310   2.885   4.888   1.378 -1.4821 -1.6061 -1.6579
 7782TIP3    H223311   2.924   4.792   1.489  0.6827  0.1264 -0.8603
 7783TIP3   OH223312   0.503   4.457   5.221  0.1048  0.2692 -0.5039
 7783TIP3    H123313   0.451   4.538   5.224 -0.5993 -0.0217 -2.7993
 7783TIP3    H223314   0.477   4.409   5.299 -0.1067  1.8760  0.4573
 7784TIP3   OH223315   6.785   0.863   3.046 -0.3794  0.2708 -0.0414
 7784TIP3    H123316   6.759   0.775   3.020 -4.1052  1.2153 -0.1432
 7784TIP3    H223317   6.845   0.892   2.977  0.1779 -1.8344 -0.4921
 7785TIP3   OH223318   0.313   5.269   0.035 -0.0312 -0.1204 -0.4568
 7785TIP3    H123319   0.330   5.175   0.027  0.3658 -0.1106  0.1990
 7785TIP3    H223320   0.254   5.289  -0.038 -1.0977 -1.1246  0.0906
 7786TIP3   OH223321   1.996   5.059   3.982 -0.2347 -0.7786 -0.4166
 7786TIP3    H123322   1.964   5.149   3.978 -0.2937 -0.8319 -1.4219
 7786TIP3    H223323   1.991   5.036   4.075 -1.3353 -0.1506 -0.3016
 7787TIP3   OH223324   5.083   0.708   0.046 -0.2020 -0.1780 -0.2499
 7787TIP3    H123325   5.138   0.731   0.121  1.4155 -3.5573 -0.2179
 7787TIP3    H223326   5.146   0.691  -0.025 -1.5602  0.5487 -1.7116
 7788TIP3   OH223327   0.856   5.220   3.231 -0.1839  0.1560 -0.0270
 7788TIP3    H123328   0.841   5.169   3.152  1.6959 -0.9137  0.2482
 7788TIP3    H223329   0.935   5.271   3.212  1.1247 -1.1671  1.5942
 7789TIP3   OH223330   3.342   3.870   3.154 -0.5006 -0.8433  0.2913
 7789TIP3    H123331   3.266   3.830   3.195 -1.1094 -0.9631 -0.9186
 7789TIP3    H223332   3.334   3.963   3.174 -1.7582 -0.6381 -0.9788
 7790TIP3   OH223333   3.854   0.138   2.474  0.3675  0.2634  0.5227
 7790TIP3    H123334   3.906   0.218   2.487  0.7747  0.1880 -0.5770
 7790TIP3    H223335   3.902   0.071   2.524  1.7464  0.0462 -1.0049
 7791TIP3   OH223336   0.055   2.463   2.512  0.0431 -0.5231 -0.2347
 7791TIP3    H123337  -0.020   2.495   2.563  0.7230 -0.9082  1.0326
 7791TIP3    H223338   0.025   2.467   2.421 -1.2838 -0.0459  0.2014
 7792TIP3   OH223339   4.270   4.824   0.135  0.1493  0.3783  0.1283
 7792TIP3    H123340   4.262   4.913   0.100  0.7646  1.0290  1.5780
 7792TIP3    H223341   4.291   4.770   0.058 -1.9058  1.1656 -1.0743
 7793TIP3   OH223342   5.753   5.888   1.074 -0.3499 -0.2554  0.0712
 7793TIP3    H123343   5.789   5.973   1.047  0.1979 -0.7097 -0.6507
 7793TIP3    H223344   5.761   5.888   1.169  0.1596  0.2724  0.0327
 7794TIP3   OH223345   2.288   3.940   4.324  0.8323 -0.1817  0.3868
 7794TIP3    H123346   2.284   4.027   4.362 -0.5636  0.3594 -0.9137
 7794TIP3    H223347   2.219   3.891   4.368  0.8693 -0.2909  0.3240
 7795TIP3   OH223348   3.375   5.864   4.494  0.1159  0.4699 -0.0638
 7795TIP3    H123349   3.469   5.875   4.507  0.3321 -1.8952  0.8238
 7795TIP3    H223350   3.363   5.770   4.484 -2.0310  0.8300 -1.5106
 7796TIP3   OH223351   3.712   1.070   2.133 -0.0066  0.1125  0.4463
 7796TIP3    H123352   3.801   1.085   2.100 -0.4743 -1.6757 -1.9372
 7796TIP3    H223353   3.659   1.058   2.054 -2.6619  2.1816  1.7072
 7797TIP3   OH223354   5.933   4.775   5.449  0.2516 -0.2657 -0.5934
 7797TIP3    H123355   5.920   4.793   5.543 -0.5800 -2.5295 -0.2224
 7797TIP3    H223356   5.847   4.791   5.410 -0.2000 -2.1137 -0.4383
 7798TIP3   OH223357   0.126   2.567   5.582 -0.3750  0.1791  0.3164
 7798TIP3    H123358   0.076   2.608   5.652 -1.1489 -0.9935  0.4921
 7798TIP3    H223359   0.205   2.535   5.625  0.6892  2.2115  0.0001
 7799TIP3   OH223360   3.864   6.190   1.478  0.0202  0.6431 -0.1788
 7799TIP3    H123361   3.921   6.230   1.413 -0.4341  2.1539  0.3118
 7799TIP3    H223362   3.780   6.234   1.467 -1.3029 -1.9814 -1.3218
 7800TIP3   OH223363   3.473   2.410   5.781 -0.0004 -1.0988  0.5214
 7800TIP3    H123364   3.456   2.374   5.693 -1.3644 -1.6224  0.9670
 7800TIP3    H223365   3.387   2.438   5.812  0.6021 -0.1016  1.3562
 7801TIP3   OH223366   0.950   2.429   2.269  0.6332 -0.3915  0.3536
 7801TIP3    H123367   0.903   2.464   2.345  0.6373  0.0166  0.1685
 7801TIP3    H223368   0.906   2.466   2.193 -0.4827 -2.1579  0.0718
 7802TIP3   OH223369   3.082   0.334   4.659  0.3613  0.2403 -0.0976
 7802TIP3    H123370   3.020   0.333   4.586  1.3399 -0.4288 -0.9361
 7802TIP3    H223371   3.042   0.393   4.723 -0.5358  0.7947 -1.1401
 7803TIP3   OH223372   3.903   5.472   2.434  0.7223 -0.0787  0.0552
 7803TIP3    H123373   3.893   5.381   2.463  0.6161 -0.3017 -0.6565
 7803TIP3    H223374   3.848   5.478   2.356  3.3962 -0.3657 -1.9799
 7804TIP3   OH223375   2.454   4.741   5.285 -0.2686  1.1497  0.0884
 7804TIP3    H123376   2.489   4.826   5.313  0.0104  1.3178 -0.7330
 7804TIP3    H223377   2.454   4.746   5.190  1.8274 -0.5844 -0.0884
 7805TIP3   OH223378   4.643   3.901   1.992  0.2390  0.6840  0.5621
 7805TIP3    H123379   4.714   3.855   1.946  0.6024 -1.0548  2.6878
 7805TIP3    H223380   4.685   3.978   2.031  0.7769  0.1705  1.0248
 7806TIP3   OH223381   3.730   2.990   1.286 -0.0907 -0.4540  0.5153
 7806TIP3    H123382   3.719   2.904   1.245 -2.5763 -0.2539  0.6532
 7806TIP3    H223383   3.689   2.981   1.372  0.1236  0.7112  0.7566
 7807TIP3   OH223384   5.792   5.629   3.387  0.1692 -1.1027  0.3552
 7807TIP3    H123385   5.776   5.536   3.377  1.7978 -1.4883  1.0867
 7807TIP3    H223386   5.886   5.639   3.375  0.5335 -0.0101  3.2905
 7808TIP3   OH223387   6.526   4.922   3.207 -0.4431 -0.5131  0.3182
 7808TIP3    H123388   6.601   4.883   3.252  0.7109  0.5411 -0.5924
 7808TIP3    H223389   6.511   5.005   3.254 -1.4298 -0.9814  0.8549
 7809TIP3   OH223390   2.736   3.422   2.669  0.6495 -0.6376  0.4001
 7809TIP3    H123391   2.829   3.445   2.664  0.5559 -0.3208  0.0569
 7809TIP3    H223392   2.735   3.333   2.706  1.1749 -1.2467 -0.9639
 7810TIP3   OH223393   1.110   4.801   4.791 -0.1124  0.1160 -0.1732
 7810TIP3    H123394   1.025   4.831   4.760 -0.4818 -0.6990  0.0145
 7810TIP3    H223395   1.166   4.802   4.714 -0.9613 -1.6966 -0.8644
 7811TIP3   OH223396   5.152   4.917   5.534  0.2445  0.6421 -0.3922
 7811TIP3    H123397   5.134   4.970   5.457 -0.4697  0.3824 -0.4113
 7811TIP3    H223398   5.172   4.981   5.603  0.9052  0.8713 -0.7892
 7812TIP3   OH223399   2.670   1.222   2.833 -0.2162  0.1982  0.2677
 7812TIP3    H123400   2.704   1.307   2.805  0.8729 -0.7397 -1.4809
 7812TIP3    H223401   2.671   1.226   2.928  3.1998  0.9187  0.3214
 7813TIP3   OH223402   2.902   6.416   5.362 -0.4114  0.1586  0.1907
 7813TIP3    H123403   2.965   6.356   5.319 -2.1289 -1.5164 -0.1335
 7813TIP3    H223404   2.950   6.451   5.436  0.5432 -2.1114  0.7526
 7814TIP3   OH223405   6.907   5.908   5.730  0.1429 -0.3383 -0.1079
 7814TIP3    H123406   6.975   5.861   5.681 -1.0743 -0.7056 -1.5335
 7814TIP3    H223407   6.882   5.980   5.673 -1.5901 -1.0000 -0.2476
 7815TIP3   OH223408   6.830   5.420   1.873 -0.3315  0.4913  0.1275
 7815TIP3    H123409   6.810   5.377   1.790 -1.1875  0.3704  0.3866
 7815TIP3    H223410   6.857   5.509   1.848 -0.8724  0.5521 -0.2707
 7816TIP3   OH223411   2.151   5.083   2.326 -0.2719  0.3329  0.3342
 7816TIP3    H123412   2.180   5.095   2.416 -0.1506  0.0924  0.3252
 7816TIP3    H223413   2.055   5.087   2.332 -0.2471  1.2739  0.3409
 7817TIP3   OH223414   4.624   6.060   3.959  0.3425  0.2240  0.2149
 7817TIP3    H123415   4.695   6.121   3.980  0.1407  0.8164 -0.7565
 7817TIP3    H223416   4.668   5.986   3.917  0.2931  1.3407 -1.9794
 7818TIP3   OH223417   0.473   3.871   1.018 -0.0525 -0.1094  0.4125
 7818TIP3    H123418   0.437   3.936   1.078 -0.5818  0.9694 -1.0098
 7818TIP3    H223419   0.497   3.797   1.074 -2.2331  0.0905  1.7570
 7819TIP3   OH223420   0.908   2.764   5.661  0.1954 -0.3698  0.4700
 7819TIP3    H123421   0.846   2.743   5.591 -0.2557 -2.0820  1.3226
 7819TIP3    H223422   0.917   2.859   5.658 -1.4384 -0.2174 -0.5505
 7820TIP3   OH223423   5.301   6.600   2.058 -0.2172  0.8970  0.2053
 7820TIP3    H123424   5.324   6.627   1.969 -2.3049 -0.2784 -0.7636
 7820TIP3    H223425   5.341   6.513   2.067 -0.2020  0.9157  0.3131
 7821TIP3   OH223426   5.416   6.648   1.801  0.0612 -0.6435  0.1299
 7821TIP3    H123427   5.422   6.726   1.746  1.1444 -0.1546  0.9070
 7821TIP3    H223428   5.434   6.575   1.742  2.8058 -0.0283  0.0903
 7822TIP3   OH223429   3.860   1.583   5.144  0.0268 -0.1635 -0.5153
 7822TIP3    H123430   3.849   1.624   5.229 -1.1073 -0.8210 -0.3200
 7822TIP3    H223431   3.845   1.654   5.081 -0.9779 -0.0617 -0.1794
 7823TIP3   OH223432   0.494   6.430   4.112 -0.9641 -0.0507 -0.0629
 7823TIP3    H123433   0.510   6.511   4.063 -1.1215  0.4003  0.6053
 7823TIP3    H223434   0.443   6.458   4.188  0.7838 -0.4317  1.3109
 7824TIP3   OH223435   3.156   5.024   4.666  0.4338 -0.4490 -0.3649
 7824TIP3    H123436   3.210   4.986   4.736  2.2849  1.3837 -0.6786
 7824TIP3    H223437   3.195   4.990   4.585 -0.9458 -1.6085 -0.5823
 7825TIP3   OH223438   6.452   5.655   4.926 -0.3480 -0.2715  0.4680
 7825TIP3    H123439   6.476   5.676   4.835  0.0140 -1.6740  0.2224
 7825TIP3    H223440   6.389   5.723   4.950 -1.4380 -0.5960 -1.2791
 7826TIP3   OH223441   3.588   2.897   3.794  0.2310  1.1756 -0.3359
 7826TIP3    H123442   3.598   2.852   3.878  1.3187  0.6362 -0.7319
 7826TIP3    H223443   3.517   2.850   3.750  1.7864 -0.6431 -1.0179
 7827TIP3   OH223444   0.716   0.615   5.360 -0.1021  0.2240 -0.6690
 7827TIP3    H123445   0.741   0.707   5.357 -1.4161  0.5887 -0.8824
 7827TIP3    H223446   0.620   0.616   5.356 -0.2167 -1.0863  0.9679
 7828TIP3   OH223447   1.161   0.321   2.714 -0.3694  0.0382 -0.1135
 7828TIP3    H123448   1.227   0.298   2.780  2.0341 -1.7213 -2.8388
 7828TIP3    H223449   1.118   0.238   2.694 -0.2956  0.3146 -1.4827
 7829TIP3   OH223450   5.933   2.201   4.130 -0.1496 -0.3122 -0.4563
 7829TIP3    H123451   6.007   2.141   4.122 -1.0480 -1.4208 -0.6511
 7829TIP3    H223452   5.922   2.213   4.225 -1.3042 -2.1977 -0.3136
 7830TIP3   OH223453   1.213   3.032   3.723 -0.0172 -0.2952  0.7014
 7830TIP3    H123454   1.216   2.996   3.812  2.0116 -0.0373  0.7708
 7830TIP3    H223455   1.280   2.984   3.675  0.1151  0.7885 -0.2302
 7831TIP3   OH223456   2.327   3.293   1.521 -0.0106  0.3788 -0.9393
 7831TIP3    H123457   2.305   3.219   1.465  0.0091 -0.6810  0.3908
 7831TIP3    H223458   2.242   3.335   1.540 -0.2273 -0.2863 -0.4009
 7832TIP3   OH223459   5.196   1.262   4.876 -0.1949 -0.1899  0.4973
 7832TIP3    H123460   5.147   1.241   4.955  1.5790  1.8763  2.2594
 7832TIP3    H223461   5.143   1.328   4.831 -0.2964  0.0684  0.9931
 7833TIP3   OH223462   6.501   6.441   4.394 -0.7294 -0.2063 -0.0618
 7833TIP3    H123463   6.500   6.420   4.487  0.6823 -0.3006 -0.0437
 7833TIP3    H223464   6.530   6.360   4.352  0.8850  0.4809 -0.3508
 7834TIP3   OH223465   2.066   0.325   4.763 -0.2928  0.0320 -0.2982
 7834TIP3    H123466   1.989   0.356   4.714  0.2600  0.2787 -1.0261
 7834TIP3    H223467   2.140   0.342   4.705  0.0806 -2.5043 -0.6869
 7835TIP3   OH223468   0.395   6.422   4.367  0.3155 -0.0215  0.1771
 7835TIP3    H123469   0.461   6.469   4.419  0.3951  1.2441 -0.9884
 7835TIP3    H223470   0.427   6.332   4.364  0.7489  0.0668  1.5839
 7836TIP3   OH223471   6.576   4.664   4.494 -0.6343 -0.1137 -0.3876
 7836TIP3    H123472   6.576   4.618   4.578  0.4370 -0.1594 -0.4030
 7836TIP3    H223473   6.508   4.731   4.503 -1.5357 -1.0462 -0.0123
 7837TIP3   OH223474   3.864   6.084   3.858  0.0266  0.6414  0.1550
 7837TIP3    H123475   3.946   6.035   3.863 -0.2044  0.3352  1.4675
 7837TIP3    H223476   3.890   6.175   3.848  0.4936  0.4108 -0.7709
 7838TIP3   OH223477   6.677   5.982   1.005  1.0126  0.7889 -0.4725
 7838TIP3    H123478   6.697   6.055   1.062 -1.6129  0.9559  0.3579
 7838TIP3    H223479   6.660   6.022   0.920 -0.0514  1.1364 -0.1107
 7839TIP3   OH223480   1.838   4.647   0.214  0.4502  0.2381  0.5623
 7839TIP3    H123481   1.816   4.609   0.129  0.3760  0.9396  0.2653
 7839TIP3    H223482   1.804   4.584   0.278 -1.1078  0.5770  0.0977
 7840TIP3   OH223483   4.807   5.038   2.434 -0.4612 -0.1576  0.0807
 7840TIP3    H123484   4.841   4.974   2.496  0.0826 -2.5743 -2.5109
 7840TIP3    H223485   4.799   5.119   2.485  1.9251 -1.4122  2.7270
 7841TIP3   OH223486   4.848   6.039   5.336 -0.6230 -0.4639 -0.7542
 7841TIP3    H123487   4.862   5.970   5.401  1.5627  1.1742  0.6973
 7841TIP3    H223488   4.774   6.090   5.370  1.1950  1.0451  1.2210
 7842TIP3   OH223489   0.614   2.969   3.110 -0.7145  0.0070  0.6674
 7842TIP3    H123490   0.648   3.028   3.043 -1.5798  1.3324  1.3525
 7842TIP3    H223491   0.680   2.972   3.180 -1.2849  1.1064  1.1912
 7843TIP3   OH223492   6.589   4.623   3.183 -0.3682  0.2635  0.2601
 7843TIP3    H123493   6.504   4.665   3.170 -0.4301  0.1967  0.4478
 7843TIP3    H223494   6.572   4.530   3.163 -0.6975 -0.0185  1.7557
 7844TIP3   OH223495   6.459   5.739   2.844  0.2039 -0.0022  0.1099
 7844TIP3    H123496   6.460   5.644   2.837 -2.6501 -0.2038  0.9282
 7844TIP3    H223497   6.486   5.770   2.758 -1.6845 -1.6508 -1.1732
 7845TIP3   OH223498   6.205   3.998   5.598  0.6487  0.7807  0.3501
 7845TIP3    H123499   6.196   3.935   5.526  1.2412  0.7889  0.2658
 7845TIP3    H223500   6.227   3.944   5.674  3.7498  1.0640 -0.2380
 7846TIP3   OH223501   0.457   1.153   0.959  0.1352 -0.2171 -0.1132
 7846TIP3    H123502   0.383   1.197   1.002  1.3533  3.0228 -1.0394
 7846TIP3    H223503   0.429   1.061   0.952 -2.5941  0.2948  2.0504
 7847TIP3   OH223504   2.728   2.657   4.431 -0.0268  0.2391  0.0210
 7847TIP3    H123505   2.799   2.666   4.367  1.6548  1.3913  1.9243
 7847TIP3    H223506   2.702   2.746   4.450 -1.0579 -0.1268  0.3764
 7848TIP3   OH223507   2.526   5.673   5.300 -0.1824  0.1740  0.0138
 7848TIP3    H123508   2.519   5.600   5.361 -1.6054  0.3608  0.1084
 7848TIP3    H223509   2.620   5.684   5.286  0.2403  0.5509  2.6742
 7849TIP3   OH223510   6.596   1.794   3.017  0.0627 -0.4231  0.0143
 7849TIP3    H123511   6.596   1.796   3.113 -1.1074  1.6474  0.0167
 7849TIP3    H223512   6.505   1.810   2.992  0.4332 -0.4584 -1.4606
 7850TIP3   OH223513   6.084   1.821   4.702  0.0512  0.3238  0.2143
 7850TIP3    H123514   6.087   1.884   4.630 -0.4259  0.0590 -0.0400
 7850TIP3    H223515   5.995   1.785   4.699 -0.4231  1.2734  1.7480
 7851TIP3   OH223516   5.853   4.417   5.244  0.0173 -0.5915  0.0976
 7851TIP3    H123517   5.888   4.456   5.163  0.0961 -1.2440 -0.1882
 7851TIP3    H223518   5.759   4.436   5.241  0.2593  0.7934  0.6558
 7852TIP3   OH223519   2.940   3.414   1.633 -0.5527  0.6543  0.0981
 7852TIP3    H123520   3.034   3.395   1.624 -0.7415 -2.4813  2.7972
 7852TIP3    H223521   2.936   3.483   1.698 -0.1126  0.0318  0.7981
 7853TIP3   OH223522   4.519   0.080   4.305 -0.0417  0.5354  0.1700
 7853TIP3    H123523   4.499   0.174   4.310 -1.0331  0.4571 -1.4140
 7853TIP3    H223524   4.434   0.039   4.286  0.4713 -0.6235  0.3197
 7854TIP3   OH223525   2.905   3.715   1.695  0.5280 -0.9448  0.0263
 7854TIP3    H123526   2.895   3.797   1.742 -0.7745 -1.2869  0.3909
 7854TIP3    H223527   2.857   3.727   1.614  0.8988 -1.1172 -0.2228
 7855TIP3   OH223528   3.268   3.256   2.351 -0.1168  0.1386 -0.2780
 7855TIP3    H123529   3.270   3.255   2.255  1.6019 -0.6815 -0.2753
 7855TIP3    H223530   3.354   3.222   2.377 -0.1115  1.4363  1.5604
 7856TIP3   OH223531   0.128   0.799   1.592  0.2070  0.1857 -0.4358
 7856TIP3    H123532   0.084   0.872   1.636  0.4665  0.6848 -0.9847
 7856TIP3    H223533   0.063   0.729   1.591  0.0227  0.3348  0.2780
 7857TIP3   OH223534   5.522   2.831   5.792 -0.2611  0.0490  0.2232
 7857TIP3    H123535   5.501   2.739   5.807 -1.1714  0.0846 -0.7443
 7857TIP3    H223536   5.615   2.832   5.770 -0.2521 -0.6259  0.2363
 7858TIP3   OH223537   1.692   4.854   0.094  0.1075  0.5723  0.3715
 7858TIP3    H123538   1.607   4.889   0.119 -0.3133 -0.0780 -0.1138
 7858TIP3    H223539   1.699   4.772   0.142  0.5115  0.6751  0.4926
 7859TIP3   OH223540   2.206   0.858   3.742 -0.0851 -0.0782 -0.0858
 7859TIP3    H123541   2.170   0.810   3.816  0.6172  2.3331  1.9493
 7859TIP3    H223542   2.301   0.850   3.750 -0.0052 -0.3697 -1.1521
 7860TIP3   OH223543   0.987   5.933   3.941  0.3365  0.4798 -0.3648
 7860TIP3    H123544   0.960   5.978   4.021  0.0594 -0.5906  0.1707
 7860TIP3    H223545   0.930   5.968   3.873  0.5783  1.4058 -0.1030
 7861TIP3   OH223546   4.546   6.567   5.183  0.3861  0.3901 -0.1871
 7861TIP3    H123547   4.611   6.631   5.210  1.2036 -0.0840 -0.9855
 7861TIP3    H223548   4.473   6.579   5.244  0.4383  2.1926 -0.4183
 7862TIP3   OH223549   3.630   1.501   1.963 -0.0534  0.2197 -0.4229
 7862TIP3    H123550   3.618   1.472   1.872 -0.3173 -2.6011  0.4002
 7862TIP3    H223551   3.707   1.453   1.993 -0.7183  0.1132  1.2028
 7863TIP3   OH223552   5.604   3.041   1.895  0.0372 -0.0977 -0.0769
 7863TIP3    H123553   5.652   2.958   1.896  0.5440  0.1896  0.1882
 7863TIP3    H223554   5.668   3.104   1.860  0.0262  0.3913  0.7692
 7864TIP3   OH223555   3.037   0.634   2.387 -0.3971 -0.2262 -0.2643
 7864TIP3    H123556   3.011   0.544   2.370 -0.3532 -0.0293 -1.4730
 7864TIP3    H223557   3.124   0.627   2.426 -0.9746 -0.7531  0.9756
 7865TIP3   OH223558   5.367   2.719   0.962  0.3922 -0.2861 -0.1645
 7865TIP3    H123559   5.371   2.651   0.895  2.4495  0.0953 -0.5071
 7865TIP3    H223560   5.451   2.712   1.009 -0.3026  0.5343  1.2913
 7866TIP3   OH223561   5.159   2.645   2.632  0.0528 -0.0658 -0.0257
 7866TIP3    H123562   5.219   2.703   2.586  0.0191  1.0298  1.2865
 7866TIP3    H223563   5.118   2.700   2.699 -1.7652 -0.9952 -0.3131
 7867TIP3   OH223564   6.741   0.402   1.572  0.0189  0.0684  0.0883
 7867TIP3    H123565   6.684   0.402   1.649 -0.3287  1.6604 -0.1213
 7867TIP3    H223566   6.681   0.414   1.498  0.6086  2.9117 -0.0573
 7868TIP3   OH223567   5.013   4.618   2.329  0.3825  0.0884 -0.1788
 7868TIP3    H123568   4.944   4.680   2.304  1.0928  0.8820 -0.2461
 7868TIP3    H223569   5.079   4.628   2.261  1.8589  1.4784  1.3424
 7869TIP3   OH223570   0.582   2.113   0.071 -0.0337  0.2228 -0.4262
 7869TIP3    H123571   0.636   2.053   0.121  0.2496  2.1641  1.7811
 7869TIP3    H223572   0.590   2.197   0.117 -0.9898  1.7930 -2.8980
 7870TIP3   OH223573   6.352   3.277   2.259  0.0272 -0.3767 -0.3431
 7870TIP3    H123574   6.440   3.265   2.294  0.2071 -1.6922 -1.1629
 7870TIP3    H223575   6.360   3.352   2.199  0.2198  0.4589  0.7074
 7871TIP3   OH223576   4.785   4.328   2.918 -0.3381  0.6266  0.2100
 7871TIP3    H123577   4.772   4.282   3.002  1.2627 -0.9895 -0.3690
 7871TIP3    H223578   4.790   4.258   2.853  1.9345  1.6088 -0.7621
 7872TIP3   OH223579   3.758   5.580   1.139 -0.6551 -0.4725 -0.4737
 7872TIP3    H123580   3.794   5.530   1.212  0.4387 -1.5520 -1.7001
 7872TIP3    H223581   3.729   5.514   1.076  1.0984  0.3420 -2.2726
 7873TIP3   OH223582   0.020   4.489   4.751  0.3176 -0.2748  0.1107
 7873TIP3    H123583   0.066   4.478   4.668  1.3805 -1.5393  0.8117
 7873TIP3    H223584  -0.056   4.543   4.731  1.5155  0.9526 -1.3296
 7874TIP3   OH223585   6.530   0.212   2.785 -0.0180  0.0760 -0.3089
 7874TIP3    H123586   6.459   0.252   2.835 -0.6766 -1.5215  0.1097
 7874TIP3    H223587   6.597   0.192   2.850  0.5162  0.9272 -0.5904
 7875TIP3   OH223588   5.686   3.264   0.205  0.6056 -0.2158 -0.5221
 7875TIP3    H123589   5.656   3.224   0.123 -1.4598  0.7401 -0.2786
 7875TIP3    H223590   5.758   3.321   0.177 -0.8317  1.0220 -1.9144
 7876TIP3   OH223591   5.069   6.159   3.441  0.0992  0.7539 -0.0262
 7876TIP3    H123592   5.129   6.154   3.515  0.1139  2.9059  0.1847
 7876TIP3    H223593   5.071   6.252   3.415 -0.8659  0.2972 -1.9124
 7877TIP3   OH223594   4.744   1.921   4.193  0.3721  0.2756 -0.1395
 7877TIP3    H123595   4.820   1.863   4.182  0.8144  0.5504  1.3147
 7877TIP3    H223596   4.747   1.947   4.285 -0.9525  1.0520 -0.2997
 7878TIP3   OH223597   1.312   1.247   2.082 -0.3283  0.1511 -0.2426
 7878TIP3    H123598   1.319   1.333   2.124 -0.5222  0.2878 -0.4912
 7878TIP3    H223599   1.370   1.252   2.007  1.2941 -0.6381  0.8959
 7879TIP3   OH223600   4.407   4.362   4.811 -0.0596 -0.2592  0.1897
 7879TIP3    H123601   4.354   4.437   4.784 -0.0183  0.0956  1.0568
 7879TIP3    H223602   4.398   4.299   4.739 -0.4484  0.3946 -0.3475
 7880TIP3   OH223603   4.648   1.374   0.552 -0.3120  0.1262 -0.0633
 7880TIP3    H123604   4.577   1.397   0.613 -0.0165 -1.2674  0.8486
 7880TIP3    H223605   4.640   1.438   0.482 -0.5602  1.9169  1.5029
 7881TIP3   OH223606   5.231   2.713   2.911  0.1932  0.2825 -1.1247
 7881TIP3    H123607   5.192   2.667   2.985  0.4355 -0.4546 -1.4415
 7881TIP3    H223608   5.317   2.672   2.901  0.7622  1.3856 -0.8894
 7882TIP3   OH223609   5.568   2.627   3.975 -0.1637  0.7001  1.1363
 7882TIP3    H123610   5.489   2.589   3.935  0.3583  1.6904 -0.9345
 7882TIP3    H223611   5.580   2.575   4.055 -0.8525 -1.9167 -0.3122
 7883TIP3   OH223612   7.086   2.871   3.949  0.0062  0.0437  0.5602
 7883TIP3    H123613   7.048   2.902   3.866  1.0004  0.1297  0.1256
 7883TIP3    H223614   7.163   2.925   3.962 -0.1839  0.0749  1.5926
 7884TIP3   OH223615   2.175   5.944   1.014 -0.1366  0.0514 -0.3618
 7884TIP3    H123616   2.197   5.932   0.922  0.4430 -2.3039  0.0063
 7884TIP3    H223617   2.241   6.005   1.047  0.8720 -0.6130 -1.0816
 7885TIP3   OH223618   5.162   2.503   4.615 -0.2021  0.1414  0.4246
 7885TIP3    H123619   5.191   2.525   4.526 -0.3593 -0.2066  0.2861
 7885TIP3    H223620   5.125   2.416   4.607  0.5473 -0.2454  0.9983
 7886TIP3   OH223621   0.781   2.205   1.712 -0.0187  0.0892 -0.1376
 7886TIP3    H123622   0.780   2.277   1.775  0.0400 -0.5934  0.6534
 7886TIP3    H223623   0.698   2.214   1.665 -0.0556  0.6162  0.0199
 7887TIP3   OH223624   6.776   3.620   4.400  0.0868  0.1100 -0.3013
 7887TIP3    H123625   6.779   3.646   4.308  0.4437  3.8102  0.6045
 7887TIP3    H223626   6.848   3.668   4.441 -1.3437  0.2748  2.2494
 7888TIP3   OH223627   0.753   4.886   5.475 -0.1615  0.1830  0.2499
 7888TIP3    H123628   0.730   4.831   5.550  1.2800  0.7155  1.1281
 7888TIP3    H223629   0.747   4.976   5.508 -0.6975  0.4893 -0.6393
 7889TIP3   OH223630   0.080   1.521   2.102 -0.2136  0.6518  0.0503
 7889TIP3    H123631   0.106   1.432   2.125 -1.4248  0.3955  0.4801
 7889TIP3    H223632   0.118   1.535   2.015 -0.2049 -0.3752 -0.1236
 7890TIP3   OH223633   6.030   4.496   2.447 -0.5279  0.0577 -0.2537
 7890TIP3    H123634   6.054   4.588   2.433 -0.9724  0.4390  1.3130
 7890TIP3    H223635   5.959   4.480   2.385 -0.3041  0.7101 -0.6874
 7891TIP3   OH223636   5.243   6.178   3.643 -0.1457  0.3599  0.2981
 7891TIP3    H123637   5.245   6.113   3.713  1.2628 -0.5090 -0.5000
 7891TIP3    H223638   5.314   6.238   3.664 -0.2705  0.5952  0.0590
 7892TIP3   OH223639   1.803   5.975   0.464  0.1555  0.3484  0.2157
 7892TIP3    H123640   1.830   5.907   0.402  1.3088  1.0443 -0.0816
 7892TIP3    H223641   1.775   6.048   0.408 -1.3736  0.0292  0.5303
 7893TIP3   OH223642   0.024   2.595   2.848 -0.2331  0.1525 -0.0507
 7893TIP3    H123643   0.085   2.527   2.820  0.3551  0.8161 -0.4345
 7893TIP3    H223644  -0.038   2.550   2.905 -0.7754 -1.0263 -1.4767
 7894TIP3   OH223645   3.811   3.424   3.216  0.1246 -0.2397  0.1595
 7894TIP3    H123646   3.739   3.362   3.223 -1.0265  1.0848  0.5676
 7894TIP3    H223647   3.812   3.451   3.124 -0.8103  0.7460  0.4193
 7895TIP3   OH223648   0.386   1.596   2.766 -0.0375  0.1163 -0.0878
 7895TIP3    H123649   0.359   1.532   2.832 -1.6640 -0.5256 -1.2914
 7895TIP3    H223650   0.442   1.547   2.706 -0.6622 -0.0105 -0.5854
 7896TIP3   OH223651   3.731   5.588   5.300  0.3036 -0.1093 -0.4898
 7896TIP3    H123652   3.710   5.599   5.393  1.3359 -0.8326 -0.1494
 7896TIP3    H223653   3.826   5.599   5.296  0.3408 -0.6788 -1.3706
 7897TIP3   OH223654   1.190   4.980   1.892 -0.1452  0.1017 -0.3178
 7897TIP3    H123655   1.101   4.952   1.911  0.1455 -1.4715 -1.0231
 7897TIP3    H223656   1.245   4.913   1.933  0.8378  2.0655  1.7803
 7898TIP3   OH223657   1.642   2.200   2.376  0.2407  0.1996  0.6579
 7898TIP3    H123658   1.626   2.143   2.451  1.1620 -0.9243  0.0319
 7898TIP3    H223659   1.575   2.176   2.312  0.4160  0.0590  0.5261
 7899TIP3   OH223660   0.109   3.235   1.014 -0.0175 -0.4694  0.0512
 7899TIP3    H123661   0.023   3.205   1.043  0.0962 -0.7604  0.0925
 7899TIP3    H223662   0.170   3.174   1.055  0.3486  0.9133  1.6676
 7900TIP3   OH223663   3.187   2.426   2.002  0.1520  0.1234  0.2915
 7900TIP3    H123664   3.144   2.511   2.009  0.9995  0.7284 -1.2815
 7900TIP3    H223665   3.274   2.439   2.040  0.7457  0.3687 -1.0555
 7901TIP3   OH223666   1.996   4.583   4.364 -0.1677  0.4054 -1.2473
 7901TIP3    H123667   1.957   4.500   4.392  0.3447  0.6075  0.1410
 7901TIP3    H223668   1.932   4.621   4.304 -2.1853  0.7574  0.9960
 7902TIP3   OH223669   6.777   3.158   3.682  0.2022 -0.0973 -0.3257
 7902TIP3    H123670   6.750   3.090   3.743 -1.0311  0.7601  0.1306
 7902TIP3    H223671   6.872   3.161   3.689  0.1979 -1.1725  0.2772
 7903TIP3   OH223672   5.467   2.571   1.938  0.3765  0.3566  0.3972
 7903TIP3    H123673   5.554   2.530   1.941  0.3567  0.2409 -0.2698
 7903TIP3    H223674   5.470   2.627   1.861  0.4156  1.6720  1.3325
 7904TIP3   OH223675   6.887   2.919   0.733 -0.0084  0.1690  0.2900
 7904TIP3    H123676   6.808   2.902   0.785  0.8057 -1.1500  1.1564
 7904TIP3    H223677   6.913   3.008   0.757 -0.2881 -0.0118  1.2872
 7905TIP3   OH223678   3.177   3.971   1.585 -0.4537 -0.8528  0.0410
 7905TIP3    H123679   3.091   4.003   1.560 -0.2941  0.8538  1.4828
 7905TIP3    H223680   3.233   3.994   1.511 -0.1645  3.2724  1.2521
 7906TIP3   OH223681   0.859   1.572   3.342 -0.0015  0.2555  0.5887
 7906TIP3    H123682   0.936   1.570   3.285  0.5671 -0.5974  1.3540
 7906TIP3    H223683   0.883   1.630   3.414  0.1096 -0.3635  1.0614
 7907TIP3   OH223684   5.611   5.792   2.116 -0.1711  0.5120 -0.0240
 7907TIP3    H123685   5.680   5.734   2.085  0.1371  0.6341  0.4188
 7907TIP3    H223686   5.561   5.814   2.037 -1.3114 -1.6526  0.0338
 7908TIP3   OH223687   6.019   6.183   1.589 -0.3096 -0.2677  0.2369
 7908TIP3    H123688   5.996   6.272   1.563 -0.6517 -0.0485  1.2459
 7908TIP3    H223689   6.091   6.159   1.530  0.5039  1.0734  0.6282
 7909TIP3   OH223690   1.944   6.248   3.618 -0.2758  0.0949  0.7562
 7909TIP3    H123691   1.913   6.229   3.706  0.8585  2.8302  1.8794
 7909TIP3    H223692   1.875   6.302   3.579 -1.0851 -1.6609 -0.3563
 7910TIP3   OH223693   3.017   3.702   2.800  0.0015  0.7749 -0.2125
 7910TIP3    H123694   3.091   3.732   2.747  1.4295 -0.5477  0.9181
 7910TIP3    H223695   2.940   3.724   2.748  1.2047  1.6257 -1.7447
 7911TIP3   OH223696   3.690   0.593   5.488  0.4555  0.1221  0.1320
 7911TIP3    H123697   3.786   0.585   5.494  0.9464  3.8875 -0.4989
 7911TIP3    H223698   3.664   0.631   5.571 -0.2549  0.7258 -0.3591
 7912TIP3   OH223699   5.312   0.676   2.531  0.0197 -0.1567 -0.3584
 7912TIP3    H123700   5.344   0.630   2.453  1.6157 -1.5833  1.0787
 7912TIP3    H223701   5.251   0.615   2.572 -1.9088  1.1274 -1.1267
 7913TIP3   OH223702   1.774   4.588   1.177 -0.0391 -0.3185  0.2479
 7913TIP3    H123703   1.769   4.623   1.266 -1.1871  1.9166 -0.6229
 7913TIP3    H223704   1.852   4.627   1.139 -0.3485 -0.1099 -0.1807
 7914TIP3   OH223705   7.043   1.432   5.263 -0.6886  0.1894 -0.4990
 7914TIP3    H123706   7.122   1.418   5.315 -0.9512 -0.2933 -0.2185
 7914TIP3    H223707   7.076   1.453   5.176 -0.2384 -0.8611 -0.6048
 7915TIP3   OH223708   3.637   1.174   0.141 -0.0644  0.8798 -0.2480
 7915TIP3    H123709   3.668   1.087   0.165  1.3208  1.2444 -0.6029
 7915TIP3    H223710   3.651   1.228   0.219 -0.0161  0.9959 -0.3350
 7916TIP3   OH223711   6.568   4.230   4.680  0.1561  0.3691 -0.0656
 7916TIP3    H123712   6.663   4.242   4.668 -0.1151  2.7518 -0.2335
 7916TIP3    H223713   6.531   4.248   4.594 -0.5002 -0.1703  0.0977
 7917TIP3   OH223714   6.821   5.913   2.662  0.6613  0.2177  0.4655
 7917TIP3    H123715   6.813   5.937   2.754 -0.6132  0.7748  0.2372
 7917TIP3    H223716   6.791   5.991   2.614  0.0530 -0.5169 -0.3835
 7918TIP3   OH223717   5.446   1.033   2.822 -0.7973  0.0121 -0.3535
 7918TIP3    H123718   5.384   1.082   2.877 -2.6531 -2.0512 -0.4454
 7918TIP3    H223719   5.501   0.986   2.885  0.3763  1.4298 -0.2765
 7919TIP3   OH223720   3.232   1.574   3.616 -0.0446 -0.2000  0.5851
 7919TIP3    H123721   3.225   1.527   3.533 -0.0262  0.8015 -0.0043
 7919TIP3    H223722   3.172   1.649   3.606 -0.4637 -0.3623  1.6916
 7920TIP3   OH223723   5.066   4.034   0.169  0.2401 -0.2598  0.1981
 7920TIP3    H123724   5.011   4.076   0.236 -2.5105 -1.6889 -0.9831
 7920TIP3    H223725   5.085   3.947   0.205 -0.5359 -0.7234 -0.4757
 7921TIP3   OH223726   3.624   3.524   1.497  0.4196 -0.0417 -0.3699
 7921TIP3    H123727   3.565   3.546   1.570  0.5100  1.3215 -0.6852
 7921TIP3    H223728   3.696   3.477   1.539  0.1051  0.0673  0.3146
 7922TIP3   OH223729   1.770   0.356   5.217 -0.1203 -0.7198 -0.1226
 7922TIP3    H123730   1.705   0.289   5.236 -1.2344  0.3552 -0.0039
 7922TIP3    H223731   1.789   0.396   5.301 -1.9214  1.2539 -0.5786
 7923TIP3   OH223732   6.570   1.869   5.706  0.5742 -0.1935 -0.0795
 7923TIP3    H123733   6.552   1.951   5.659 -1.1439 -1.5916 -2.0571
 7923TIP3    H223734   6.519   1.876   5.787 -0.5149  0.2630 -0.7742
 7924TIP3   OH223735   0.091   4.738   3.554  0.3023 -0.1751 -0.0226
 7924TIP3    H123736   0.087   4.652   3.595 -1.2682  0.1595  0.5967
 7924TIP3    H223737   0.149   4.790   3.611 -0.8122 -0.0943  1.0707
 7925TIP3   OH223738   4.437   2.624   3.613 -0.4283  0.2497 -0.2505
 7925TIP3    H123739   4.346   2.654   3.620 -0.8206 -0.8084 -0.5772
 7925TIP3    H223740   4.481   2.661   3.690 -0.4486  3.0280 -1.4439
 7926TIP3   OH223741   2.239   3.295   0.565  0.1105 -0.0274 -0.1640
 7926TIP3    H123742   2.331   3.317   0.582  0.1887 -0.6203  0.2340
 7926TIP3    H223743   2.213   3.245   0.642 -0.5487  0.1313 -0.2829
 7927TIP3   OH223744   5.791   4.386   4.476 -0.0736  0.3186 -0.1508
 7927TIP3    H123745   5.827   4.414   4.560 -1.2639 -0.8229  0.7606
 7927TIP3    H223746   5.702   4.357   4.495  0.2446 -1.7201 -1.4501
 7928TIP3   OH223747   2.308   0.403   3.109  0.1594 -0.2696  0.4718
 7928TIP3    H123748   2.228   0.350   3.101  0.4785 -0.6247 -0.5970
 7928TIP3    H223749   2.337   0.415   3.018  0.9744  0.3868  0.8130
 7929TIP3   OH223750   1.832   1.809   5.714  0.3242 -0.5047 -0.1533
 7929TIP3    H123751   1.876   1.733   5.676  1.7783  0.7191 -0.9963
 7929TIP3    H223752   1.766   1.833   5.648  1.0075 -0.0259 -0.6710
 7930TIP3   OH223753   4.402   2.423   1.756 -0.1869 -0.5157  0.1336
 7930TIP3    H123754   4.472   2.362   1.730  1.1665  0.9375  0.1990
 7930TIP3    H223755   4.415   2.435   1.850  0.5485  1.0110 -0.1305
 7931TIP3   OH223756   2.873   6.116   2.299  0.4228  0.1408 -0.1385
 7931TIP3    H123757   2.951   6.064   2.277  0.7862  1.1793 -1.4061
 7931TIP3    H223758   2.905   6.181   2.362 -0.2458 -1.7221  2.2627
 7932TIP3   OH223759   1.973   0.723   0.147  0.3053  0.3629  0.2436
 7932TIP3    H123760   2.048   0.738   0.204  0.7262 -0.0881 -0.1771
 7932TIP3    H223761   1.934   0.642   0.180  1.4288 -0.7357 -0.9871
 7933TIP3   OH223762   2.517   2.887   0.254 -0.4932 -0.1432  0.3809
 7933TIP3    H123763   2.591   2.928   0.209 -0.5182 -0.2374  0.2524
 7933TIP3    H223764   2.546   2.796   0.269 -0.4940 -0.1182  0.5342
 7934TIP3   OH223765   1.691   5.088   0.499 -0.6354 -0.8138  0.7424
 7934TIP3    H123766   1.705   5.008   0.449  1.4919 -0.7092  1.0923
 7934TIP3    H223767   1.679   5.156   0.433 -0.8781 -1.1567  0.4263
 7935TIP3   OH223768   0.507   1.510   4.337 -0.4739 -0.7088 -0.8052
 7935TIP3    H123769   0.542   1.493   4.250  2.2220  0.2190  0.0009
 7935TIP3    H223770   0.484   1.603   4.335  2.5656  0.1869  0.2807
 7936TIP3   OH223771   5.793   4.183   1.513  0.1867 -0.0040  0.0841
 7936TIP3    H123772   5.882   4.218   1.512  1.0680 -2.0836  0.6169
 7936TIP3    H223773   5.772   4.172   1.606 -1.2111  1.7307  0.0355
 7937TIP3   OH223774   2.351   5.392   4.959 -0.1472  0.2458 -0.4571
 7937TIP3    H123775   2.337   5.401   5.053 -1.1597  1.2473 -0.6769
 7937TIP3    H223776   2.298   5.462   4.921  0.2382 -0.1612 -1.7756
 7938TIP3   OH223777   0.072   4.360   4.445 -0.0247 -0.0347  0.3514
 7938TIP3    H123778   0.103   4.270   4.434 -0.7923 -0.2459 -0.1759
 7938TIP3    H223779  -0.020   4.357   4.418  0.5676  1.3864 -2.1465
 7939TIP3   OH223780   0.345   0.040   4.949 -0.1392 -0.1060 -0.0258
 7939TIP3    H123781   0.267   0.057   4.896 -0.5804 -0.6100  0.4544
 7939TIP3    H223782   0.409   0.104   4.918 -1.5166  2.0328  1.2727
 7940TIP3   OH223783   0.311   4.112   4.658  0.5821  0.3565 -0.3704
 7940TIP3    H123784   0.299   4.103   4.752  1.8505  0.2800 -0.2046
 7940TIP3    H223785   0.358   4.194   4.647 -0.1938  0.7318 -1.0017
 7941TIP3   OH223786   3.047   0.542   0.634  0.7565  0.1697  0.4058
 7941TIP3    H123787   2.969   0.496   0.666  0.0493  0.8381 -0.3042
 7941TIP3    H223788   3.081   0.486   0.564  0.9276 -0.1328  0.7304
 7942TIP3   OH223789   5.830   0.451   5.574 -0.4232  0.6212 -0.0886
 7942TIP3    H123790   5.743   0.483   5.550 -0.3805 -0.2774 -1.5770
 7942TIP3    H223791   5.815   0.360   5.600  0.2057  0.0676 -1.5715
 7943TIP3   OH223792   0.129   6.455   1.595 -0.1287  0.8223 -0.1550
 7943TIP3    H123793   0.153   6.448   1.687 -0.0476  3.0288  0.0423
 7943TIP3    H223794   0.201   6.506   1.555  0.3934 -1.0037 -1.6984
 7944TIP3   OH223795   3.052   6.207   1.779 -0.1621 -0.0827 -0.8240
 7944TIP3    H123796   2.962   6.234   1.799  0.2644  0.2066  0.9017
 7944TIP3    H223797   3.106   6.258   1.839  1.1554 -0.3975 -1.6925
 7945TIP3   OH223798   4.783   1.124   0.550 -0.1169  0.0315  0.0626
 7945TIP3    H123799   4.871   1.158   0.569  1.3165 -0.8282 -3.9142
 7945TIP3    H223800   4.727   1.201   0.550  1.2405  1.0686 -0.0648
 7946TIP3   OH223801   7.204   2.486   5.367  0.5448 -0.0826 -0.5933
 7946TIP3    H123802   7.140   2.554   5.349 -0.6313 -0.6698  1.1165
 7946TIP3    H223803   7.256   2.520   5.440  2.0258  0.2460 -1.7427
 7947TIP3   OH223804   6.410   2.296   3.486 -0.0357 -0.2082  0.1241
 7947TIP3    H123805   6.357   2.327   3.559  0.9679 -1.3304  1.3860
 7947TIP3    H223806   6.492   2.346   3.493  1.2524 -2.3752  1.6509
 7948TIP3   OH223807   7.001   5.023   0.101  0.2586  0.3988  0.2605
 7948TIP3    H123808   7.096   5.017   0.093 -0.0096 -1.9595 -3.3799
 7948TIP3    H223809   6.971   5.047   0.013 -2.5673  0.3794  1.1259
 7949TIP3   OH223810   5.704   2.725   2.205  0.1162 -0.0449 -0.0167
 7949TIP3    H123811   5.763   2.778   2.151 -0.3474 -0.4971 -0.9957
 7949TIP3    H223812   5.616   2.750   2.176 -0.1138 -1.1089 -0.2629
 7950TIP3   OH223813   1.647   3.719   1.470  0.4300 -1.3122  0.1976
 7950TIP3    H123814   1.653   3.735   1.564  2.8415  0.3995 -0.1417
 7950TIP3    H223815   1.603   3.797   1.435 -1.0283 -2.2230 -0.0696
 7951TIP3   OH223816   3.769   3.344   0.645  0.1271 -0.8119  0.1152
 7951TIP3    H123817   3.722   3.261   0.636  1.0212 -1.3572  0.3207
 7951TIP3    H223818   3.771   3.360   0.739 -1.4597  0.3033  0.0009
 7952TIP3   OH223819   3.352   1.391   3.752  0.3048  0.3907 -0.0136
 7952TIP3    H123820   3.394   1.380   3.667 -1.9120 -0.8371 -1.0616
 7952TIP3    H223821   3.292   1.464   3.739 -2.1871 -1.5983 -0.5519
 7953TIP3   OH223822   0.777   1.945   4.358  0.1574 -0.5142 -0.1644
 7953TIP3    H123823   0.726   2.026   4.354 -1.0935 -1.2247  0.8468
 7953TIP3    H223824   0.742   1.891   4.287  1.0868 -0.1519 -0.9292
 7954TIP3   OH223825   4.502   5.116   5.583  0.0765  0.2894  0.3208
 7954TIP3    H123826   4.546   5.073   5.656  1.3892 -0.9664 -1.1342
 7954TIP3    H223827   4.414   5.077   5.581  0.4636 -0.6098  0.4657
 7955TIP3   OH223828   5.048   4.700   5.384 -0.6813 -0.4649  0.1318
 7955TIP3    H123829   5.062   4.760   5.457 -2.4934  0.2579 -0.0549
 7955TIP3    H223830   5.099   4.623   5.405 -1.2690 -0.3342  2.2464
 7956TIP3   OH223831   3.913   1.581   2.128  0.2263  0.0351 -0.8156
 7956TIP3    H123832   3.894   1.490   2.107  0.5309 -0.4281  0.7925
 7956TIP3    H223833   3.863   1.598   2.208  0.8660  1.0114 -0.6084
 7957TIP3   OH223834   1.336   0.968   3.522 -0.0649 -0.2415 -0.2380
 7957TIP3    H123835   1.368   1.058   3.517  1.8172 -0.8645 -0.4993
 7957TIP3    H223836   1.253   0.974   3.568 -0.2829  1.6894 -0.7852
 7958TIP3   OH223837   3.549   5.541   3.836  0.6903  0.0594  0.2293
 7958TIP3    H123838   3.613   5.599   3.794 -0.0664  0.2618 -0.6887
 7958TIP3    H223839   3.524   5.587   3.916 -0.5018  1.4420 -0.8716
 7959TIP3   OH223840   1.271   0.155   3.156 -0.3672 -0.7666  0.5423
 7959TIP3    H123841   1.245   0.162   3.248 -0.5361 -0.8370  0.4991
 7959TIP3    H223842   1.346   0.096   3.157  3.1682  3.1943  1.3488
 7960TIP3   OH223843   1.552   5.312   0.035 -0.3495  0.6939 -0.1233
 7960TIP3    H123844   1.535   5.354  -0.049  0.9921  0.2168 -0.6719
 7960TIP3    H223845   1.487   5.348   0.095 -0.3886  2.1589 -1.0166
 7961TIP3   OH223846   5.053   2.798   5.807 -0.0786  0.0979  0.3938
 7961TIP3    H123847   5.011   2.756   5.732  0.7589 -1.7576  0.9012
 7961TIP3    H223848   5.005   2.881   5.818 -1.8151 -0.7026 -0.6614
 7962TIP3   OH223849   6.438   2.357   5.632 -0.5196 -0.1759 -0.6940
 7962TIP3    H123850   6.379   2.378   5.704  0.2989 -0.5105  0.0901
 7962TIP3    H223851   6.513   2.414   5.645  0.1755 -1.1040 -0.5706
 7963TIP3   OH223852   6.557   4.923   5.335  0.0234  0.1956  0.3801
 7963TIP3    H123853   6.577   4.846   5.282 -2.5651 -0.9330  0.9199
 7963TIP3    H223854   6.525   4.987   5.271  2.5356  1.0960 -0.1247
 7964TIP3   OH223855   2.918   5.585   0.213  0.3399  0.3592  0.0151
 7964TIP3    H123856   2.834   5.579   0.168 -0.2757 -0.4958  1.2594
 7964TIP3    H223857   2.914   5.668   0.260  0.9560  1.2210 -1.3573
 7965TIP3   OH223858   3.636   5.164   5.663 -0.3028  0.6897 -0.4589
 7965TIP3    H123859   3.612   5.102   5.732 -1.0487  1.5698  0.1041
 7965TIP3    H223860   3.694   5.227   5.707 -3.5076  3.3373  0.4589
 7966TIP3   OH223861   4.239   1.377   1.870 -0.4549 -0.1521 -0.1616
 7966TIP3    H123862   4.318   1.349   1.915 -0.3037  0.1088 -0.2641
 7966TIP3    H223863   4.205   1.449   1.923 -2.5103 -2.3990  1.8427
 7967TIP3   OH223864   7.007   4.888   0.520  0.7230 -0.1990 -0.1389
 7967TIP3    H123865   7.042   4.904   0.608  1.2752 -1.0235 -0.1952
 7967TIP3    H223866   7.005   4.793   0.512 -0.7581 -0.1585 -0.4661
 7968TIP3   OH223867   0.610   4.421   3.170 -0.2837 -0.2613  0.0356
 7968TIP3    H123868   0.586   4.412   3.078 -1.7460 -2.8255  0.5754
 7968TIP3    H223869   0.659   4.503   3.174 -0.5609  0.1550 -2.9233
 7969TIP3   OH223870   1.025   6.442   2.245  0.7372  0.3856  0.1552
 7969TIP3    H123871   0.958   6.484   2.192  1.1963  0.7163 -0.1787
 7969TIP3    H223872   1.011   6.476   2.334  0.3305  0.2864  0.1262
 7970TIP3   OH223873   5.600   6.767   0.053 -0.2088  0.1024  0.0884
 7970TIP3    H123874   5.519   6.781   0.004  0.3190 -0.7374 -1.0641
 7970TIP3    H223875   5.574   6.778   0.145 -1.7192 -0.5184 -0.2244
 7971TIP3   OH223876   5.325   4.305   0.307  0.2156 -0.2920 -1.0674
 7971TIP3    H123877   5.330   4.400   0.310  1.7558 -0.3761 -0.2685
 7971TIP3    H223878   5.241   4.285   0.349  0.9317  0.6465  0.9610
 7972TIP3   OH223879   5.890   5.449   1.153  0.1117  0.1778 -0.4626
 7972TIP3    H123880   5.940   5.380   1.197  1.1090  0.2058 -1.5055
 7972TIP3    H223881   5.889   5.521   1.216  0.0134 -0.3929  0.1982
 7973TIP3   OH223882   5.730   2.799   1.854  0.1245  0.6997  0.1641
 7973TIP3    H123883   5.819   2.766   1.843 -0.0423  0.5280 -0.8135
 7973TIP3    H223884   5.674   2.726   1.827 -0.3619  0.4160  1.8146
 7974TIP3   OH223885   6.712   3.099   4.274 -0.1062 -0.3466  0.1959
 7974TIP3    H123886   6.634   3.120   4.223  1.0653  0.7716 -1.2043
 7974TIP3    H223887   6.775   3.068   4.210  0.5560 -1.4691  1.3410
 7975TIP3   OH223888   2.051   6.463   1.284  0.2580  0.3687  0.0611
 7975TIP3    H123889   2.066   6.517   1.206 -0.8766  0.3064 -0.2090
 7975TIP3    H223890   2.085   6.515   1.357  2.4348 -0.0457 -0.5575
 7976TIP3   OH223891   1.873   6.109   1.169 -0.4462 -0.0585 -0.1045
 7976TIP3    H123892   1.966   6.125   1.159 -0.6522  0.8373 -0.7469
 7976TIP3    H223893   1.867   6.018   1.200  0.6816  0.3043  1.2985
 7977TIP3   OH223894   2.345   4.666   1.372 -0.4270 -0.2017 -0.5634
 7977TIP3    H123895   2.387   4.752   1.380  1.3482 -1.0524 -0.1637
 7977TIP3    H223896   2.258   4.678   1.411  0.1566  1.1640  0.4073
 7978TIP3   OH223897   1.891   5.590   1.031 -0.1496 -0.0744  0.2527
 7978TIP3    H123898   1.930   5.660   0.979 -1.8740  0.5220 -0.2843
 7978TIP3    H223899   1.872   5.631   1.116 -0.5413 -0.0696  0.1650
 7979TIP3   OH223900   4.001  -0.020   3.957 -0.4423  0.0079 -0.4183
 7979TIP3    H123901   3.968   0.070   3.954  1.1202  0.7036  1.1380
 7979TIP3    H223902   4.086  -0.015   3.913  0.5149 -0.2493  1.3238
 7980TIP3   OH223903   4.842   0.191   0.811  0.0801  0.2364 -0.7435
 7980TIP3    H123904   4.755   0.153   0.798  0.4839 -0.9960  0.0746
 7980TIP3    H223905   4.826   0.285   0.819 -1.6146 -0.2152  2.7610
 7981TIP3   OH223906   2.561   2.243   2.588 -0.2327 -0.3412 -0.2681
 7981TIP3    H123907   2.571   2.307   2.518 -0.6689  1.0586  0.8980
 7981TIP3    H223908   2.639   2.188   2.582 -0.5075 -0.5934 -2.1493
 7982TIP3   OH223909   6.376   3.490   2.058 -0.0548  0.0991 -0.1871
 7982TIP3    H123910   6.420   3.574   2.072 -1.1939  1.0459 -1.8972
 7982TIP3    H223911   6.403   3.463   1.970 -2.6263  0.6130 -1.2135
 7983TIP3   OH223912   6.719   0.051   4.169 -0.0710 -0.3536 -0.0436
 7983TIP3    H123913   6.626   0.065   4.154 -0.0756  0.2940  0.5274
 7983TIP3    H223914   6.751   0.136   4.200  0.9854 -0.1641 -1.5415
 7984TIP3   OH223915   3.721   6.481   1.610  0.4570  0.1339  0.0387
 7984TIP3    H123916   3.689   6.414   1.550  0.5674  1.0966 -1.1408
 7984TIP3    H223917   3.778   6.435   1.672  0.1789 -0.9094 -0.4777
 7985TIP3   OH223918   1.362   5.912   3.597  0.3188  0.1827 -0.1595
 7985TIP3    H123919   1.382   5.835   3.543  0.7130  0.3884 -0.3082
 7985TIP3    H223920   1.446   5.938   3.634 -0.0312 -0.2630  0.9753
 7986TIP3   OH223921   5.894   2.688   2.859 -0.0312 -0.0692  0.7126
 7986TIP3    H123922   5.974   2.717   2.814  0.7138 -0.5389  1.6989
 7986TIP3    H223923   5.920   2.677   2.950 -0.7216 -2.0474  0.7308
 7987TIP3   OH223924   2.891   1.834   1.283 -0.4055  0.0392  0.1802
 7987TIP3    H123925   2.837   1.850   1.206 -0.3648  2.7807  0.5983
 7987TIP3    H223926   2.828   1.823   1.354 -0.4404  0.3070  0.1926
 7988TIP3   OH223927   1.584   2.485   5.886  0.1287 -0.5905 -0.2503
 7988TIP3    H123928   1.670   2.501   5.847  0.4299 -0.4378  0.4608
 7988TIP3    H223929   1.550   2.409   5.838  0.8939 -0.9908 -0.1801
 7989TIP3   OH223930   2.122   5.414   4.527  0.4032 -0.0556  0.2571
 7989TIP3    H123931   2.040   5.380   4.563  0.7831  0.0516  1.2502
 7989TIP3    H223932   2.094   5.479   4.462 -0.3302 -1.9697 -1.4760
 7990TIP3   OH223933   1.481   4.962   2.555  0.4414  0.0448 -0.0253
 7990TIP3    H123934   1.535   4.884   2.545  0.6244 -0.2239  2.5141
 7990TIP3    H223935   1.536   5.024   2.603 -0.8132  0.4995  0.8835
 7991TIP3   OH223936   3.174   2.041   2.216  0.0549  0.0152  0.0431
 7991TIP3    H123937   3.204   2.051   2.306  1.1656 -2.3952  0.0348
 7991TIP3    H223938   3.254   2.018   2.167 -1.1744 -3.9485 -0.5035
 7992TIP3   OH223939   0.211   5.734   0.059 -0.1835  0.6958 -0.2788
 7992TIP3    H123940   0.275   5.803   0.042 -0.0418  0.8951  0.9864
 7992TIP3    H223941   0.182   5.750   0.148 -0.9551 -0.2458 -0.3469
 7993TIP3   OH223942   7.064   3.937   0.334 -0.1445  0.0881 -0.2840
 7993TIP3    H123943   6.995   3.894   0.384 -0.3689 -0.9694 -1.4367
 7993TIP3    H223944   7.045   4.030   0.342  1.5300  0.2870  4.0177
 7994TIP3   OH223945   4.790   3.140   5.392 -0.3193 -1.0073 -0.2042
 7994TIP3    H123946   4.829   3.227   5.384  2.0645 -2.0618 -1.2103
 7994TIP3    H223947   4.704   3.155   5.430 -0.5351  1.9083 -1.5892
 7995TIP3   OH223948   0.350   4.938   3.245 -0.0527  0.5531  0.5232
 7995TIP3    H123949   0.264   4.912   3.275  0.6187 -0.2696  1.8103
 7995TIP3    H223950   0.388   4.986   3.318  0.0562  2.2098 -0.5574
 7996TIP3   OH223951   5.354   1.315   4.102 -0.4129  0.2747  0.0950
 7996TIP3    H123952   5.356   1.222   4.078 -0.0264  0.2359  0.2715
 7996TIP3    H223953   5.439   1.331   4.144 -1.2833  0.2122  1.9705
 7997TIP3   OH223954   6.383   4.047   4.410  0.0302  0.2530  0.0979
 7997TIP3    H123955   6.452   3.982   4.420  1.5603  1.8206  0.1714
 7997TIP3    H223956   6.352   4.063   4.500  0.9131  0.9090  0.3001
 7998TIP3   OH223957   5.124   1.427   2.794  0.3989  0.0076 -0.3478
 7998TIP3    H123958   5.187   1.428   2.722 -1.0273  1.7363 -1.6509
 7998TIP3    H223959   5.056   1.366   2.766 -0.0823  0.5657 -0.4280
 7999TIP3   OH223960   1.087   4.079   3.971  0.8040 -0.2191  0.0372
 7999TIP3    H123961   1.143   4.147   3.935 -1.3199  0.8159 -1.5216
 7999TIP3    H223962   1.097   4.004   3.912 -0.2787  0.3837 -0.9608
 8000TIP3   OH223963   4.454   4.670   1.724  0.1118  0.1795  0.0627
 8000TIP3    H123964   4.381   4.731   1.711 -0.0882  0.0272  0.4622
 8000TIP3    H223965   4.440   4.634   1.811  1.9487  1.8916  1.1570
 8001TIP3   OH223966   5.317   3.147   0.321 -0.5310 -0.1792  0.7960
 8001TIP3    H123967   5.388   3.159   0.385  0.4663 -2.9263  0.3299
 8001TIP3    H223968   5.245   3.110   0.372  0.4403 -2.8617  0.3718
 8002TIP3   OH223969   4.581   4.481   0.896 -0.3369 -0.3787  0.2367
 8002TIP3    H123970   4.535   4.565   0.890 -0.4077 -0.4625 -0.6291
 8002TIP3    H223971   4.586   4.451   0.805  1.1456 -0.5315  0.3496
 8003TIP3   OH223972   6.498   2.847   4.157 -0.5736 -0.3325  0.2917
 8003TIP3    H123973   6.465   2.874   4.071 -1.8351  1.5141  1.2794
 8003TIP3    H223974   6.423   2.855   4.215  0.0735 -2.2157  1.4765
 8004TIP3   OH223975   3.392   1.629   5.724 -0.2430  0.0580 -0.0541
 8004TIP3    H123976   3.351   1.586   5.799  0.2688 -2.5891 -1.1652
 8004TIP3    H223977   3.464   1.679   5.761 -0.4673 -0.5714  1.2774
 8005TIP3   OH223978   5.289   3.139   5.493 -0.4011 -0.1103 -0.5176
 8005TIP3    H123979   5.205   3.131   5.449  0.1738  0.8930 -1.8835
 8005TIP3    H223980   5.280   3.088   5.574 -1.8776 -1.0506 -1.2468
 8006TIP3   OH223981   2.021   3.990   0.158 -0.1012 -0.9499  1.0469
 8006TIP3    H123982   1.996   3.917   0.101  0.4527 -1.9876  2.0965
 8006TIP3    H223983   2.030   4.065   0.098 -2.7070 -1.1972  0.1927
 8007TIP3   OH223984   6.901   0.626   4.647  0.4541 -0.1433 -0.5560
 8007TIP3    H123985   6.873   0.656   4.733  1.2878 -0.7804 -0.0560
 8007TIP3    H223986   6.975   0.682   4.625  0.7498 -0.5185 -0.5057
 8008TIP3   OH223987   1.051   3.270   1.686 -0.0973 -0.3513 -0.2206
 8008TIP3    H123988   1.062   3.265   1.781  0.3909 -0.8329 -0.3046
 8008TIP3    H223989   1.133   3.306   1.654  0.2983 -1.5698 -0.5981
 8009TIP3   OH223990   2.598   1.935   4.901 -0.1251 -0.2913 -0.3093
 8009TIP3    H123991   2.518   1.964   4.858 -0.6072  0.2206  0.8862
 8009TIP3    H223992   2.581   1.947   4.994  1.4905  0.1807 -0.0401
 8010TIP3   OH223993   4.776   4.597   0.196  0.0631 -0.0620 -0.2635
 8010TIP3    H123994   4.702   4.575   0.252 -0.8547 -1.3173 -1.8756
 8010TIP3    H223995   4.836   4.645   0.253 -0.7827 -1.3070  1.7922
 8011TIP3   OH223996   5.150   3.129   3.424  0.1852 -0.0517  0.1485
 8011TIP3    H123997   5.207   3.054   3.406 -0.1734 -0.1002 -0.8513
 8011TIP3    H223998   5.099   3.141   3.344 -1.4608 -0.2139  1.1262
 8012TIP3   OH223999   4.961   6.506   5.038  0.2662 -0.0364  0.3303
 8012TIP3    H124000   5.010   6.448   4.980  1.7340  1.8922 -0.4420
 8012TIP3    H224001   4.879   6.522   4.991 -1.8509 -4.1216  2.0980
 8013TIP3   OH224002   3.095   2.919   5.357 -0.4808 -0.0521  0.1822
 8013TIP3    H124003   3.095   2.824   5.369 -0.2028  0.0701  1.2701
 8013TIP3    H224004   3.003   2.942   5.344 -0.7241 -0.3258  1.3044
 8014TIP3   OH224005   0.659   1.416   5.724 -0.2209 -0.4895 -0.1926
 8014TIP3    H124006   0.642   1.510   5.711  0.7121 -0.4169 -1.0135
 8014TIP3    H224007   0.581   1.383   5.768 -1.0990  0.4234 -1.0209
 8015TIP3   OH224008   2.166   4.273   5.401  0.8269  0.3533 -0.2171
 8015TIP3    H124009   2.152   4.349   5.344  3.1960  0.0305 -1.3624
 8015TIP3    H224010   2.241   4.297   5.455  0.4679 -0.4985  0.6849
 8016TIP3   OH224011   7.041   6.063   2.127 -0.5981 -0.6204  0.7971
 8016TIP3    H124012   6.958   6.044   2.085 -0.9103 -1.4373  1.7342
 8016TIP3    H224013   7.020   6.130   2.192 -0.6396 -1.2000  1.3912
 8017TIP3   OH224014   7.090   5.688   0.062  0.7738  0.3532 -0.2725
 8017TIP3    H124015   7.122   5.620   0.121  0.5855 -0.4214 -1.0317
 8017TIP3    H224016   7.168   5.733   0.031  1.0311 -0.5368 -0.9488
 8018TIP3   OH224017   0.160   5.913   1.798 -0.3376 -0.3890 -0.1279
 8018TIP3    H124018   0.207   5.847   1.848 -1.4593 -0.6501  0.6157
 8018TIP3    H224019   0.110   5.862   1.734  0.2680 -0.1220 -0.8287
 8019TIP3   OH224020   5.434   2.457   2.822 -0.4851 -0.2089  0.2371
 8019TIP3    H124021   5.391   2.430   2.903 -0.2003  0.3158  0.5699
 8019TIP3    H224022   5.376   2.426   2.752 -1.0047 -0.1833  0.6531
 8020TIP3   OH224023   5.653   5.621   1.321  0.0979 -0.4016 -0.2424
 8020TIP3    H124024   5.615   5.654   1.239 -0.2368 -0.2266 -0.0202
 8020TIP3    H224025   5.738   5.664   1.326  0.5332 -1.1583 -0.9801
 8021TIP3   OH224026   5.422   1.853   5.318 -0.1869  0.3782 -0.3858
 8021TIP3    H124027   5.442   1.853   5.412 -1.4371  2.1567 -0.0583
 8021TIP3    H224028   5.464   1.933   5.285 -0.6912  0.3550 -1.1028
 8022TIP3   OH224029   1.926   3.907   3.371  0.4619  0.0896  0.1463
 8022TIP3    H124030   1.882   3.897   3.287  1.1893 -0.8808 -0.1344
 8022TIP3    H224031   2.017   3.929   3.349  0.7597 -0.5719  0.6428
 8023TIP3   OH224032   0.405   4.383   4.334 -0.2915 -0.1207  0.1368
 8023TIP3    H124033   0.469   4.433   4.283 -0.8761 -0.8924 -1.4165
 8023TIP3    H224034   0.446   4.297   4.345 -0.3337 -0.0769  0.6305
 8024TIP3   OH224035   2.638   6.123   3.034  0.1014 -0.0141  0.4314
 8024TIP3    H124036   2.723   6.166   3.036  0.7674 -1.3135  0.3866
 8024TIP3    H224037   2.589   6.165   3.105  0.6276  0.9958  0.2294
 8025TIP3   OH224038   6.029   2.327   1.347 -0.0548  0.2763  0.1360
 8025TIP3    H124039   6.036   2.381   1.268  0.9801  0.7201  0.5216
 8025TIP3    H224040   5.946   2.354   1.387  2.1587  4.6137  2.4943
 8026TIP3   OH224041   3.423   6.520   2.771  0.1497  0.4472  0.1325
 8026TIP3    H124042   3.352   6.570   2.731  1.0018 -0.7615 -3.1538
 8026TIP3    H224043   3.491   6.585   2.789 -0.2918  1.0342 -0.2769
 8027TIP3   OH224044   4.265   5.290   3.854  0.3226  0.3880  0.0285
 8027TIP3    H124045   4.263   5.370   3.801 -0.5013  0.4993  0.2114
 8027TIP3    H224046   4.324   5.231   3.807  0.8959  1.0829 -0.1365
 8028TIP3   OH224047   4.665   6.425   0.388  0.6413 -0.6536 -0.0033
 8028TIP3    H124048   4.721   6.449   0.315 -1.0232  1.9540 -0.5396
 8028TIP3    H224049   4.657   6.505   0.440 -0.6960 -1.6043  1.3518
 8029TIP3   OH224050   6.017   4.587   1.472 -0.1671 -0.6045  0.1204
 8029TIP3    H124051   5.934   4.608   1.430  0.6640  1.0646 -0.8120
 8029TIP3    H224052   6.013   4.493   1.489 -1.4413 -0.9316 -1.7083
 8030TIP3   OH224053   4.034   4.901   5.440  0.0267  0.3271 -0.0639
 8030TIP3    H124054   4.022   4.894   5.346  2.6348  0.5955 -0.4831
 8030TIP3    H224055   4.094   4.829   5.462 -1.3313 -0.3747  1.5996
 8031TIP3   OH224056   5.880   1.907   0.158  0.7113 -0.4867  0.0045
 8031TIP3    H124057   5.858   2.000   0.162  0.6634 -0.3547 -2.1749
 8031TIP3    H224058   5.969   1.901   0.193  1.7244  0.8067 -2.1775
 8032TIP3   OH224059   4.140   0.177   1.275 -0.1884  0.1413 -0.2036
 8032TIP3    H124060   4.155   0.269   1.253  0.3222 -0.0260 -0.5676
 8032TIP3    H224061   4.052   0.176   1.314  0.0001  0.8511  0.2571
 8033TIP3   OH224062   4.748   4.791   3.646 -0.5308  0.0885 -0.2986
 8033TIP3    H124063   4.693   4.804   3.570 -1.1482  1.9969  0.3980
 8033TIP3    H224064   4.831   4.834   3.624 -0.1718 -0.6746 -0.4517
 8034TIP3   OH224065   2.621   0.426   5.072 -0.1657  0.0482  0.5543
 8034TIP3    H124066   2.580   0.366   5.135  1.2726  0.1322  1.6237
 8034TIP3    H224067   2.655   0.369   5.003 -1.3287 -0.0869  0.0659
 8035TIP3   OH224068   0.840   1.675   0.670 -0.0108  0.1376 -0.5213
 8035TIP3    H124069   0.835   1.751   0.728  0.1049  0.5154 -1.0050
 8035TIP3    H224070   0.866   1.603   0.728  1.0928  0.7120 -0.2728
 8036TIP3   OH224071   0.798   3.503   3.399  0.0464 -0.0050  0.2008
 8036TIP3    H124072   0.873   3.548   3.436  0.6844 -0.8843  0.0008
 8036TIP3    H224073   0.758   3.567   3.340  1.5518 -0.0129 -0.9013
 8037TIP3   OH224074   5.365   6.518   5.445 -0.3422  0.4465  1.1803
 8037TIP3    H124075   5.301   6.474   5.499  1.0822 -1.9929  1.0027
 8037TIP3    H224076   5.318   6.541   5.365 -0.8208 -2.2737  0.6012
 8038TIP3   OH224077   6.731   4.283   2.292  0.1010  0.0695  0.1784
 8038TIP3    H124078   6.699   4.336   2.219 -3.9155 -1.1376  0.7685
 8038TIP3    H224079   6.659   4.221   2.309  2.6473 -2.5579  2.4048
 8039TIP3   OH224080   2.406   3.083   5.336 -0.3157 -0.2761  0.2145
 8039TIP3    H124081   2.318   3.048   5.319 -0.2778 -0.8650  1.1632
 8039TIP3    H224082   2.393   3.176   5.349 -1.0246 -0.5600  1.7666
 8040TIP3   OH224083   6.842   4.971   2.132 -0.2130 -0.3511  0.4622
 8040TIP3    H124084   6.830   4.932   2.045 -1.1124  0.3808  0.2401
 8040TIP3    H224085   6.878   5.058   2.115  1.3477 -0.8747  0.9315
 8041TIP3   OH224086   0.023   4.687   1.232  0.0021 -0.0332 -0.0451
 8041TIP3    H124087  -0.054   4.656   1.280 -0.9932  0.6601 -1.1385
 8041TIP3    H224088   0.094   4.683   1.295 -1.3098  1.1548  1.5882
 8042TIP3   OH224089   3.186   5.436   0.571  0.0308 -0.1968 -0.0653
 8042TIP3    H124090   3.242   5.479   0.507 -0.4076  0.8895  0.2500
 8042TIP3    H224091   3.127   5.382   0.518  0.4314 -0.2266 -0.4896
 8043TIP3   OH224092   4.249   5.156   0.081  0.1856  0.0535 -0.8266
 8043TIP3    H124093   4.184   5.206   0.130 -1.4048 -1.9939 -0.7340
 8043TIP3    H224094   4.242   5.189  -0.008 -0.3855  0.4371 -0.6467
 8044TIP3   OH224095   2.369   2.140   4.577 -0.0672  0.3375 -0.5365
 8044TIP3    H124096   2.457   2.121   4.610 -0.2764  0.2152 -0.0265
 8044TIP3    H224097   2.366   2.101   4.490 -0.1546 -1.1006  0.0808
 8045TIP3   OH224098   0.278   1.353   2.881  0.2066  0.0271  0.8551
 8045TIP3    H124099   0.214   1.367   2.810  0.2230 -1.1447  0.5988
 8045TIP3    H224100   0.230   1.306   2.948  0.9849 -1.6014  0.3179
 8046TIP3   OH224101   2.881   0.626   2.806  0.1664 -0.4934 -0.7308
 8046TIP3    H124102   2.855   0.540   2.773 -0.6576 -0.0351 -1.2918
 8046TIP3    H224103   2.860   0.686   2.735 -0.5786  0.3575  0.1819
 8047TIP3   OH224104   0.656   2.450   1.785 -0.6453  0.6782  0.0764
 8047TIP3    H124105   0.628   2.535   1.752  2.7888  1.0643 -2.3669
 8047TIP3    H224106   0.694   2.469   1.871 -0.3977  1.5058 -0.2104
 8048TIP3   OH224107   6.995   5.636   1.310  0.1833  0.5722 -0.2169
 8048TIP3    H124108   6.965   5.596   1.392  2.2901  0.2740  0.4554
 8048TIP3    H224109   6.920   5.689   1.281 -0.8730  0.1123  1.5132
 8049TIP3   OH224110   3.476   4.864   3.016  0.3502 -0.5918 -0.4760
 8049TIP3    H124111   3.388   4.855   3.053 -0.3380  0.4505 -1.7576
 8049TIP3    H224112   3.496   4.957   3.023  0.8539 -0.6280 -1.2611
 8050TIP3   OH224113   7.106   5.397   2.330  0.7146 -0.0639  0.0019
 8050TIP3    H124114   7.056   5.457   2.274 -0.9731 -1.3016  0.1213
 8050TIP3    H224115   7.060   5.314   2.323  0.9157 -0.4615  2.6117
 8051TIP3   OH224116   3.585   1.601   0.001  0.2434  0.0736  0.0150
 8051TIP3    H124117   3.638   1.680   0.001 -0.3476  0.4809 -0.9926
 8051TIP3    H224118   3.498   1.631   0.026  0.0289 -0.2636 -0.3188
 8052TIP3   OH224119   6.027   3.533   3.175  0.1592  0.3920  0.1747
 8052TIP3    H124120   6.034   3.624   3.146  0.4352  0.4950  0.5679
 8052TIP3    H224121   5.945   3.502   3.136  0.9720  0.2395 -1.5187
 8053TIP3   OH224122   6.991   5.139   0.380 -0.1156 -0.1689  0.0888
 8053TIP3    H124123   6.979   5.118   0.288 -1.1133  0.7378 -0.0038
 8053TIP3    H224124   6.984   5.055   0.425  0.7373 -0.6685 -0.6788
 8054TIP3   OH224125   5.540   4.633   4.173  0.4544 -0.0292 -0.2738
 8054TIP3    H124126   5.447   4.645   4.156  0.4341  3.3662  1.3358
 8054TIP3    H224127   5.582   4.645   4.088 -0.5029 -0.5048 -0.8268
 8055TIP3   OH224128   5.915   0.820   0.012  0.1796  0.6157 -0.6543
 8055TIP3    H124129   5.895   0.892   0.071  0.6354  0.1211  0.1122
 8055TIP3    H224130   5.940   0.747   0.069  1.7598  0.4711 -1.4820
 8056TIP3   OH224131   6.353   1.565   3.212 -0.1691 -0.2818  0.0008
 8056TIP3    H124132   6.420   1.633   3.220 -0.7947  0.2532  0.9155
 8056TIP3    H224133   6.310   1.563   3.297 -0.9886 -0.9574 -0.4076
 8057TIP3   OH224134   0.470   5.501   1.566  0.2811 -0.3253 -0.1002
 8057TIP3    H124135   0.425   5.560   1.627 -1.7102 -0.6507 -1.1710
 8057TIP3    H224136   0.446   5.413   1.597 -1.3218 -0.4977 -1.6525
 8058TIP3   OH224137   3.280   3.373   3.584  0.0125 -0.3089 -0.2793
 8058TIP3    H124138   3.352   3.391   3.524 -0.3576 -1.5577 -1.1302
 8058TIP3    H224139   3.322   3.352   3.667  0.6881 -1.6236 -0.9191
 8059TIP3   OH224140   1.271   0.160   5.434 -0.0131 -0.7147 -0.7138
 8059TIP3    H124141   1.328   0.232   5.407 -0.4874 -0.2360 -0.4651
 8059TIP3    H224142   1.331   0.089   5.455  0.5715  0.0407  0.3350
 8060TIP3   OH224143   6.274   2.993   0.117 -0.3672 -0.0458 -0.0660
 8060TIP3    H124144   6.357   3.022   0.154 -0.7209  0.2099  0.5378
 8060TIP3    H224145   6.293   2.979   0.024  0.1870  0.6624 -0.0706
 8061TIP3   OH224146  -0.027   5.773   4.613  0.1818 -0.1758  0.0511
 8061TIP3    H124147  -0.040   5.792   4.706 -0.1651 -3.0820  0.6880
 8061TIP3    H224148   0.068   5.775   4.601  0.2142  0.4775  0.3918
 8062TIP3   OH224149   0.825   5.001   1.723  0.3445 -0.2558  0.0849
 8062TIP3    H124150   0.850   4.929   1.665 -0.2417 -1.7036  1.5922
 8062TIP3    H224151   0.729   5.004   1.718  0.3425  0.1639  0.3306
 8063TIP3   OH224152   3.162   0.024   1.118 -0.0090 -0.3299 -0.0165
 8063TIP3    H124153   3.082   0.075   1.111 -0.4605 -0.9219  0.6914
 8063TIP3    H224154   3.133  -0.064   1.142  0.8250 -0.6432 -0.1053
 8064TIP3   OH224155   3.602   2.619   2.443  0.0236 -0.1176  0.2479
 8064TIP3    H124156   3.541   2.552   2.474  0.2357 -0.4241  0.0093
 8064TIP3    H224157   3.618   2.596   2.351 -1.4758  1.3973 -0.4732
 8065TIP3   OH224158   7.150   6.666   1.647 -0.2380 -0.4902 -0.2962
 8065TIP3    H124159   7.187   6.578   1.652 -2.2423 -1.3132  2.3987
 8065TIP3    H224160   7.216   6.722   1.689  1.1415 -0.5860 -2.2202
 8066TIP3   OH224161   6.404   4.200   3.591 -0.4058 -0.0123 -0.2365
 8066TIP3    H124162   6.335   4.225   3.652 -0.1837  0.5259 -0.1998
 8066TIP3    H224163   6.452   4.130   3.636 -2.4178 -2.2177 -1.2667
 8067TIP3   OH224164   2.836   1.860   0.471  0.9020  0.6235  0.0137
 8067TIP3    H124165   2.868   1.839   0.559  2.1171  0.2454 -0.4857
 8067TIP3    H224166   2.749   1.897   0.484  0.9068  0.2049  1.3423
 8068TIP3   OH224167   1.776   2.987   1.963 -0.5253 -0.5027  0.0878
 8068TIP3    H124168   1.796   2.927   1.892 -0.6363  0.5698 -0.8759
 8068TIP3    H224169   1.700   3.037   1.932  0.8704  1.6287 -0.1115
 8069TIP3   OH224170   3.696   0.956   4.161 -0.0041 -0.7540  0.2310
 8069TIP3    H124171   3.790   0.967   4.176 -0.1509  0.0442  0.6332
 8069TIP3    H224172   3.682   0.984   4.070  0.1896 -1.1486  0.0793
 8070TIP3   OH224173   2.503   0.081   3.635 -0.4737  0.3707 -1.2035
 8070TIP3    H124174   2.569   0.068   3.566  0.4173  0.9441 -0.4778
 8070TIP3    H224175   2.553   0.114   3.709 -1.2775 -1.0435  0.0234
 8071TIP3   OH224176   4.649   0.332   2.719  0.4686  0.0989  0.3073
 8071TIP3    H124177   4.612   0.411   2.757  0.7798  0.1487  0.5131
 8071TIP3    H224178   4.733   0.361   2.683  1.1725 -0.3945  1.5066
 8072TIP3   OH224179   5.927   4.115   0.460 -0.2034  0.2825 -0.3211
 8072TIP3    H124180   5.966   4.128   0.374 -1.6239  0.8355 -0.8979
 8072TIP3    H224181   5.944   4.197   0.506 -3.0093  1.6613 -1.5343
 8073TIP3   OH224182   1.688   4.280   2.741  0.1304  0.2310  0.0145
 8073TIP3    H124183   1.619   4.219   2.715 -0.5921  0.4157  1.4152
 8073TIP3    H224184   1.765   4.225   2.754  0.3957  0.0768 -1.9676
 8074TIP3   OH224185   3.115   6.074   0.254  0.1847 -0.5136 -0.1103
 8074TIP3    H124186   3.058   6.148   0.233  2.9141  1.9684  0.4676
 8074TIP3    H224187   3.142   6.040   0.169 -1.3100 -1.0671 -0.3835
 8075TIP3   OH224188   1.787   4.091   4.629 -0.8337 -0.4483  0.7547
 8075TIP3    H124189   1.818   4.081   4.719 -1.2122  2.3627  1.2753
 8075TIP3    H224190   1.694   4.068   4.633 -0.4490 -2.1589  0.6311
 8076TIP3   OH224191   2.288   1.665   2.353  0.5033 -0.4331  0.2929
 8076TIP3    H124192   2.320   1.725   2.286  0.4708 -2.4175 -1.6417
 8076TIP3    H224193   2.199   1.644   2.326  0.7044 -1.7615  0.5743
 8077TIP3   OH224194   1.230   3.877   5.817 -0.4251 -0.1183 -0.3881
 8077TIP3    H124195   1.191   3.900   5.732 -2.1328  3.6062  1.1958
 8077TIP3    H224196   1.305   3.935   5.825  1.1284 -2.0680 -0.2180
 8078TIP3   OH224197   5.120   1.027   0.517  0.2524 -0.7048  0.0155
 8078TIP3    H124198   5.126   1.101   0.577 -0.0668 -0.0317 -0.7612
 8078TIP3    H224199   5.106   0.951   0.574  1.1480 -0.2586  0.8611
 8079TIP3   OH224200   1.410   0.028   2.029  0.3308 -0.0945 -0.0850
 8079TIP3    H124201   1.477   0.028   2.097 -0.1675 -0.9528  0.4299
 8079TIP3    H224202   1.371   0.116   2.033 -0.0154 -0.2822  1.0850
 8080TIP3   OH224203   2.351   5.539   2.986 -0.4710 -0.0676  0.1081
 8080TIP3    H124204   2.354   5.624   3.030 -2.0813 -0.9417  2.0122
 8080TIP3    H224205   2.313   5.558   2.900 -2.7092  0.8906  1.2525
 8081TIP3   OH224206   1.539   1.073   1.724  0.0473 -0.3735  0.2450
 8081TIP3    H124207   1.538   1.001   1.661  0.9849  0.5950 -0.9146
 8081TIP3    H224208   1.508   1.033   1.806 -1.3300 -1.6344 -0.8245
 8082TIP3   OH224209   7.040   3.502   4.009  0.3933 -0.1191 -0.5107
 8082TIP3    H124210   7.048   3.443   4.083 -1.1373  1.5098  1.0410
 8082TIP3    H224211   7.126   3.499   3.966  0.7782 -2.3684  0.2826
 8083TIP3   OH224212   3.690   6.246   5.428 -0.0768  0.6845 -0.4002
 8083TIP3    H124213   3.766   6.259   5.372  1.7081  2.3211  2.1888
 8083TIP3    H224214   3.723   6.200   5.504 -1.4805  2.0241  1.1093
 8084TIP3   OH224215   4.902   5.622   0.954  0.3736  0.7895 -0.2579
 8084TIP3    H124216   4.937   5.705   0.921  0.5072  0.9891  0.3826
 8084TIP3    H224217   4.878   5.574   0.875 -2.2348  2.5022 -0.6585
 8085TIP3   OH224218   5.849   1.268   4.788 -0.4891  0.1354  0.3744
 8085TIP3    H124219   5.869   1.245   4.698 -0.0863  0.7620  0.3017
 8085TIP3    H224220   5.829   1.184   4.830  0.2576 -0.2656 -0.0595
 8086TIP3   OH224221   2.177   0.122   3.907  0.1592  0.8947  0.5247
 8086TIP3    H124222   2.221   0.156   3.829  0.5322  1.9027  1.1618
 8086TIP3    H224223   2.089   0.158   3.903 -0.4781 -0.6400 -0.4332
 8087TIP3   OH224224   2.515   1.105   2.644 -0.0088 -0.1798 -0.0989
 8087TIP3    H124225   2.559   1.138   2.722 -0.4621 -0.8372  0.4434
 8087TIP3    H224226   2.425   1.139   2.651 -0.4927 -1.5069  0.4847
 8088TIP3   OH224227   6.217   2.737   2.983 -0.2254  0.3097  0.0049
 8088TIP3    H124228   6.240   2.806   3.045 -0.8222 -0.3209  0.9475
 8088TIP3    H224229   6.141   2.693   3.021 -1.5236  0.8011 -1.8651
 8089TIP3   OH224230   3.412   4.121   1.438  0.1307 -0.1386 -0.4781
 8089TIP3    H124231   3.436   4.111   1.530  0.2157 -0.9173 -0.5771
 8089TIP3    H224232   3.484   4.171   1.400 -0.1337  0.6072 -0.0266
 8090TIP3   OH224233   5.570   3.645   1.211 -0.5800 -0.2138  0.0682
 8090TIP3    H124234   5.628   3.663   1.136  0.7859 -1.1110  0.8612
 8090TIP3    H224235   5.630   3.633   1.285 -1.8961  0.5936  1.3119
 8091TIP3   OH224236   5.041   0.778   5.834  1.1074 -0.1282 -0.8924
 8091TIP3    H124237   5.039   0.863   5.878  1.7891 -0.7270  0.3509
 8091TIP3    H224238   4.949   0.752   5.828  0.8442  0.8997 -1.7510
 8092TIP3   OH224239   5.300   1.692   4.035 -0.6955 -0.4974 -0.6092
 8092TIP3    H124240   5.339   1.714   4.120 -0.7058 -1.0659 -0.4549
 8092TIP3    H224241   5.251   1.612   4.052 -0.1946 -0.9514 -1.3027
 8093TIP3   OH224242   4.878   3.494   1.632  0.1725  0.5800 -0.0588
 8093TIP3    H124243   4.804   3.555   1.640  0.5871  1.1886 -0.7812
 8093TIP3    H224244   4.839   3.413   1.598 -0.1860  0.8451 -0.2822
 8094TIP3   OH224245   6.504   5.039   1.013  0.3413 -0.8169 -0.3925
 8094TIP3    H124246   6.550   5.036   0.929  0.9730  1.8337 -0.2137
 8094TIP3    H224247   6.567   5.003   1.076  1.0753  0.0979 -0.5943
 8095TIP3   OH224248   6.736   0.873   2.095 -0.0818 -0.3740  0.2810
 8095TIP3    H124249   6.779   0.886   2.011 -0.6450  1.1525  0.2012
 8095TIP3    H224250   6.662   0.815   2.076 -0.0154 -0.3029 -0.1935
 8096TIP3   OH224251   1.242   6.359   1.751 -0.0144  0.2640 -0.1670
 8096TIP3    H124252   1.171   6.314   1.706 -0.1732  0.5662 -0.2126
 8096TIP3    H224253   1.317   6.350   1.692  0.2312 -0.8428  0.2809
 8097TIP3   OH224254   5.210   5.012   3.419 -0.3944  0.5223 -0.1358
 8097TIP3    H124255   5.222   5.053   3.334  1.2021 -1.3830 -0.8956
 8097TIP3    H224256   5.262   4.932   3.415 -2.9809 -1.3648  1.4258
 8098TIP3   OH224257   3.523   4.507   5.423  0.3097 -0.5834  0.2016
 8098TIP3    H124258   3.543   4.464   5.340  1.4929 -2.2076  1.2599
 8098TIP3    H224259   3.601   4.558   5.443  0.2844 -0.6895  0.5876
 8099TIP3   OH224260   3.953   3.771   3.098  0.3920  0.0910 -0.1510
 8099TIP3    H124261   3.891   3.699   3.109 -0.7812  0.8529 -1.5178
 8099TIP3    H224262   3.908   3.835   3.043  1.4019  1.9017  1.0065
 8100TIP3   OH224263   3.442   1.256   2.003  0.5682 -0.3480  0.3156
 8100TIP3    H124264   3.439   1.352   2.000  0.5218 -0.3537  0.1779
 8100TIP3    H224265   3.494   1.232   1.926  1.1570 -0.4020  0.7202
 8101TIP3   OH224266   1.455   6.620   3.282 -0.2964  0.3986  0.6586
 8101TIP3    H124267   1.417   6.574   3.356 -0.6959 -0.5049 -0.0965
 8101TIP3    H224268   1.390   6.686   3.258 -0.5955  0.0435  0.4958
 8102TIP3   OH224269   3.198   3.181   1.343  0.3555 -0.7948  0.5289
 8102TIP3    H124270   3.294   3.184   1.345  0.3557  0.8956 -0.0499
 8102TIP3    H224271   3.177   3.163   1.251  0.1431  0.6800  0.2575
 8103TIP3   OH224272   2.049   6.667   3.436 -0.4281 -0.1672 -0.0865
 8103TIP3    H124273   2.044   6.754   3.477  0.1969  0.2281 -0.8092
 8103TIP3    H224274   1.991   6.673   3.361 -0.3367 -0.3547 -0.1716
 8104TIP3   OH224275   2.191   0.119   4.580 -0.0106 -0.2811  0.4110
 8104TIP3    H124276   2.180   0.158   4.493  0.0917  0.4095  0.7037
 8104TIP3    H224277   2.111   0.067   4.593  1.1990 -2.7664 -1.2736
 8105TIP3   OH224278   5.742   1.250   3.183  0.5373  0.7110 -0.5103
 8105TIP3    H124279   5.760   1.264   3.276 -0.7466  0.4276 -0.2053
 8105TIP3    H224280   5.656   1.208   3.181  1.7591 -1.9548 -1.6645
 8106TIP3   OH224281   3.671   0.010   3.269  0.0101 -0.4323 -0.2032
 8106TIP3    H124282   3.580   0.020   3.239 -0.4845 -1.6671  0.7746
 8106TIP3    H224283   3.683   0.079   3.335  0.7782  1.6367 -2.3661
 8107TIP3   OH224284   7.185   1.776   5.580 -0.2436 -0.5903 -0.4262
 8107TIP3    H124285   7.196   1.869   5.559  1.2104 -0.4340  0.8496
 8107TIP3    H224286   7.174   1.734   5.495 -1.3642  0.7854 -0.9998
 8108TIP3   OH224287   3.032   0.079   5.737  0.0420  0.5345  0.3375
 8108TIP3    H124288   2.939   0.100   5.727  0.2392  1.1591 -0.2469
 8108TIP3    H224289   3.050   0.014   5.669  0.5605  2.1653 -1.1669
 8109TIP3   OH224290   0.581   5.823   4.166  0.1950 -0.1498 -0.0866
 8109TIP3    H124291   0.487   5.836   4.150  0.1137 -0.9000 -0.2856
 8109TIP3    H224292   0.604   5.748   4.110  0.9268  0.0708 -0.0838
 8110TIP3   OH224293   4.310   0.889   3.556  0.1145 -0.5609 -0.2892
 8110TIP3    H124294   4.255   0.821   3.596 -1.2717  0.5624 -0.2387
 8110TIP3    H224295   4.346   0.937   3.631 -0.1334 -0.2859 -0.3470
 8111TIP3   OH224296   1.605   5.057   2.275  0.0271  0.7782  0.2770
 8111TIP3    H124297   1.525   5.005   2.277  0.3889  0.2313  1.0376
 8111TIP3    H224298   1.576   5.148   2.282 -0.6667  0.7672 -1.8368
 8112TIP3   OH224299   1.679   2.412   3.482  0.4301 -0.7044 -0.4503
 8112TIP3    H124300   1.616   2.370   3.425 -2.1036  0.8104  1.0374
 8112TIP3    H224301   1.694   2.498   3.442  1.5426 -1.0163 -0.7453
 8113TIP3   OH224302   5.234   2.432   3.045 -0.3651 -0.5407  0.3127
 8113TIP3    H124303   5.146   2.470   3.046 -1.2081 -2.0046 -3.2328
 8113TIP3    H224304   5.232   2.364   3.112 -1.1549  0.8696  1.7826
 8114TIP3   OH224305   3.962   3.894   5.752  1.0735 -0.0533  0.1299
 8114TIP3    H124306   4.023   3.824   5.778 -0.8494 -2.7029 -1.9929
 8114TIP3    H224307   3.878   3.866   5.788  0.1495  0.8814 -1.2391
 8115TIP3   OH224308   5.558   1.103   0.969  0.0924  0.1327 -0.2180
 8115TIP3    H124309   5.593   1.044   0.903 -0.2944  0.7018 -0.9428
 8115TIP3    H224310   5.506   1.167   0.920  1.3294  1.7108  0.4083
 8116TIP3   OH224311   4.307   2.965   4.917  0.6880  0.1438 -0.9058
 8116TIP3    H124312   4.342   3.038   4.967 -0.5992 -0.8042  1.5378
 8116TIP3    H224313   4.383   2.912   4.895  1.2342  0.1597  0.8384
 8117TIP3   OH224314   1.555   1.411   0.753  0.1140 -0.3932 -0.1245
 8117TIP3    H124315   1.646   1.403   0.725  0.4343  1.4927  0.2066
 8117TIP3    H224316   1.509   1.339   0.710  1.9501 -2.1027  0.6236
 8118TIP3   OH224317   0.267   5.818   4.601 -0.3727  0.0284 -0.4457
 8118TIP3    H124318   0.294   5.883   4.665 -0.4156  1.0919 -1.4703
 8118TIP3    H224319   0.274   5.734   4.647  0.0921  0.7104  0.7665
 8119TIP3   OH224320   2.809   1.279   3.115  0.1383  0.4483  0.2460
 8119TIP3    H124321   2.896   1.319   3.118  0.1992  0.2702  1.5582
 8119TIP3    H224322   2.826   1.185   3.106 -0.0059  0.6240 -2.9953
 8120TIP3   OH224323   4.661   5.736   1.059  0.2522 -0.6202 -0.3389
 8120TIP3    H124324   4.710   5.801   1.110 -0.6293  0.7230 -1.1458
 8120TIP3    H224325   4.723   5.664   1.046  1.4465  0.2951  0.1140
 8121TIP3   OH224326   0.609   5.411   4.131  0.2044  0.6703  0.4830
 8121TIP3    H124327   0.548   5.442   4.199 -0.2517  0.8609 -0.0015
 8121TIP3    H224328   0.558   5.347   4.082  0.5743  0.4443  0.3996
 8122TIP3   OH224329   6.444   5.190   3.190 -0.4390  0.1808  0.3547
 8122TIP3    H124330   6.395   5.233   3.120 -1.3380 -2.5774 -0.8296
 8122TIP3    H224331   6.535   5.189   3.159 -0.5750  0.3384 -0.0484
 8123TIP3   OH224332   3.965   6.734   1.669  0.2543  0.9961  0.2632
 8123TIP3    H124333   3.906   6.714   1.596  0.2938  1.1567  0.1866
 8123TIP3    H224334   4.047   6.691   1.645  0.7448  2.3376 -0.5336
 8124TIP3   OH224335   1.837   1.876   4.588 -0.7983  0.3596 -0.3062
 8124TIP3    H124336   1.804   1.874   4.498 -0.9254 -1.3413 -0.2519
 8124TIP3    H224337   1.922   1.920   4.581 -0.7415  0.1169 -1.2865
 8125TIP3   OH224338   6.911   4.200   1.437  0.3608 -0.3214 -0.4222
 8125TIP3    H124339   6.965   4.251   1.497 -0.1921 -1.6371  1.2789
 8125TIP3    H224340   6.822   4.233   1.451  0.0052 -1.6567  0.6660
 8126TIP3   OH224341   1.176   1.982   3.081 -0.1502 -0.6045  0.6403
 8126TIP3    H124342   1.110   1.965   3.014  0.3452 -1.0273  0.2612
 8126TIP3    H224343   1.247   1.921   3.062  1.1711  1.0820 -0.0821
 8127TIP3   OH224344   1.561   5.601   3.044  0.2431  0.5259  0.5473
 8127TIP3    H124345   1.521   5.535   2.988 -0.3698  0.2003  1.3467
 8127TIP3    H224346   1.538   5.574   3.133 -0.2243  1.9513  0.8842
 8128TIP3   OH224347   5.491   3.040   3.324 -0.4944 -0.1449 -0.2272
 8128TIP3    H124348   5.539   2.959   3.305  1.0950  0.5128  0.7669
 8128TIP3    H224349   5.517   3.100   3.254 -0.4409 -0.0213 -0.1022
 8129TIP3   OH224350   4.713   4.328   1.086  0.9509  0.1783  0.3303
 8129TIP3    H124351   4.644   4.351   1.023 -0.9334 -3.3963  0.8633
 8129TIP3    H224352   4.792   4.369   1.050 -1.3080  4.7064 -0.2004
 8130TIP3   OH224353   2.995   4.645   3.058 -0.2041 -0.5699  0.5004
 8130TIP3    H124354   2.942   4.671   2.983  0.5663  0.7445  0.3695
 8130TIP3    H224355   3.056   4.580   3.024  0.5055  0.4162 -0.1703
 8131TIP3   OH224356   5.188   0.018   1.769  0.3217  0.2660  0.4541
 8131TIP3    H124357   5.158   0.085   1.831  1.1150  0.4432  0.6541
 8131TIP3    H224358   5.239  -0.043   1.823  1.3322  0.6191 -0.0761
 8132TIP3   OH224359   0.900   5.973   1.512  0.6187 -0.1045  0.0221
 8132TIP3    H124360   0.826   5.975   1.573  0.7158 -1.7887  0.2189
 8132TIP3    H224361   0.879   6.042   1.448 -0.0581  0.8976  1.2642
 8133TIP3   OH224362   2.206   6.407   5.011  0.1063 -0.2043  0.1631
 8133TIP3    H124363   2.251   6.402   5.095 -1.7569 -3.0385  1.1691
 8133TIP3    H224364   2.235   6.329   4.963 -2.2840 -1.2178  0.1841
 8134TIP3   OH224365   0.889   5.624   3.238 -0.2257  0.1201 -0.3514
 8134TIP3    H124366   0.923   5.687   3.175 -0.4213  0.1774 -0.4007
 8134TIP3    H224367   0.908   5.662   3.324  0.1671 -0.0247 -0.3734
 8135TIP3   OH224368   5.222   1.256   5.498  0.0744 -0.0210  0.2058
 8135TIP3    H124369   5.250   1.322   5.435  0.9186  0.2644  0.8716
 8135TIP3    H224370   5.187   1.185   5.443  1.6056 -0.1656 -0.6524
 8136TIP3   OH224371   4.249   0.505   4.978  0.5756  0.3260 -0.1820
 8136TIP3    H124372   4.246   0.460   5.063 -0.5922  0.1805 -0.2822
 8136TIP3    H224373   4.267   0.436   4.915  3.1947  0.6697  0.0669
 8137TIP3   OH224374   4.164   0.652   1.373 -0.0202  0.3488 -0.4125
 8137TIP3    H124375   4.072   0.650   1.345  0.6997 -0.4690 -3.0186
 8137TIP3    H224376   4.199   0.732   1.333  0.9913 -0.7067 -1.7241
 8138TIP3   OH224377   0.283   1.110   1.678 -0.0161 -0.2590 -0.2589
 8138TIP3    H124378   0.358   1.170   1.677  0.8152 -1.2467 -1.6904
 8138TIP3    H224379   0.260   1.100   1.585  0.0722 -2.3668 -0.0955
 8139TIP3   OH224380   3.736   4.029   3.806  0.1165  0.1512  0.6013
 8139TIP3    H124381   3.815   4.072   3.839  0.6678 -0.4784  0.1238
 8139TIP3    H224382   3.757   4.006   3.716 -0.6811  0.1329  0.4145
 8140TIP3   OH224383   0.923   3.304   3.015 -0.4003  0.6298  0.1111
 8140TIP3    H124384   0.885   3.380   3.058 -0.9387 -0.3417  1.4235
 8140TIP3    H224385   1.007   3.291   3.058 -0.8850 -0.2716  0.8321
 8141TIP3   OH224386   5.570   1.249   4.745  0.1658 -0.3417 -0.1068
 8141TIP3    H124387   5.562   1.273   4.652 -1.3388 -2.3952 -0.5877
 8141TIP3    H224388   5.664   1.248   4.761  0.4520  0.2454 -1.5576
 8142TIP3   OH224389   4.125   2.070   0.829  0.4204  0.6681  0.2933
 8142TIP3    H124390   4.182   2.107   0.897  0.5992  2.3495 -0.7193
 8142TIP3    H224391   4.184   2.027   0.768  0.7560  2.9479 -1.0907
 8143TIP3   OH224392   4.308   6.666   0.526  0.3831  0.0672  0.0516
 8143TIP3    H124393   4.288   6.607   0.599 -1.4586 -1.4326 -1.5360
 8143TIP3    H224394   4.298   6.754   0.562 -0.0929 -0.6195  1.6955
 8144TIP3   OH224395   6.963   1.890   3.280  0.5723  0.2348  0.1582
 8144TIP3    H124396   7.029   1.848   3.225  1.1108  2.0285 -0.6326
 8144TIP3    H224397   6.906   1.818   3.308  1.7874 -1.0939 -0.6270
 8145TIP3   OH224398   3.483   3.537   3.813  0.0357 -0.5846 -0.0813
 8145TIP3    H124399   3.482   3.612   3.872 -0.7700 -0.2361 -0.5198
 8145TIP3    H224400   3.485   3.576   3.725 -2.6785 -0.9940 -0.4034
 8146TIP3   OH224401   0.293   0.364   3.641 -0.2261  0.3993  0.7056
 8146TIP3    H124402   0.213   0.396   3.599 -0.1647 -0.2279  0.0849
 8146TIP3    H224403   0.264   0.295   3.700  0.1249 -3.2480 -2.8952
 8147TIP3   OH224404   7.042   5.817   2.510 -0.4245 -0.0184  0.4982
 8147TIP3    H124405   7.010   5.732   2.479 -0.7638 -0.2403  1.4215
 8147TIP3    H224406   6.988   5.836   2.587  1.0616  0.0431  1.5464
 8148TIP3   OH224407   4.628   6.022   0.522  0.3573  0.8760 -0.1327
 8148TIP3    H124408   4.708   6.074   0.518 -0.7122  2.6022 -0.2437
 8148TIP3    H224409   4.609   6.013   0.615  2.0090 -1.7885  0.0383
 8149TIP3   OH224410   5.132   3.169   2.264 -0.1747  0.1297 -0.2809
 8149TIP3    H124411   5.214   3.218   2.276  0.3731 -0.6361 -0.7796
 8149TIP3    H224412   5.096   3.202   2.182 -0.1546  0.1723 -0.2726
 8150TIP3   OH224413   6.604   0.164   3.092  0.0758 -0.3225  0.2679
 8150TIP3    H124414   6.536   0.102   3.118  0.5789 -0.9404  0.1305
 8150TIP3    H224415   6.589   0.240   3.147 -0.7877 -0.4113  0.1704
 8151TIP3   OH224416   5.803   0.061   2.462 -0.4600  0.5100  0.5674
 8151TIP3    H124417   5.723   0.086   2.508 -0.6157  2.3690 -0.5784
 8151TIP3    H224418   5.850   0.144   2.450  0.3955 -0.1670 -1.0378
 8152TIP3   OH224419   7.050   0.981   5.332  0.4890  0.0782 -0.0310
 8152TIP3    H124420   7.061   0.952   5.422  0.4098 -0.3675 -0.1608
 8152TIP3    H224421   7.132   0.958   5.288  1.0612  1.5112  0.2336
 8153TIP3   OH224422   4.776   5.740   2.546 -0.5964  0.4239 -0.9414
 8153TIP3    H124423   4.734   5.690   2.616 -1.6707  1.4534 -0.8193
 8153TIP3    H224424   4.870   5.733   2.565 -0.8038 -0.3940 -0.1523
 8154TIP3   OH224425   4.578   1.620   2.393 -0.4980  0.0773  0.1170
 8154TIP3    H124426   4.672   1.606   2.405 -0.6211  0.0762  1.2136
 8154TIP3    H224427   4.556   1.687   2.457 -1.5021 -0.9644  0.8970
 8155TIP3   OH224428   1.122   4.053   4.359  0.4153 -0.3198  0.8043
 8155TIP3    H124429   1.099   3.984   4.296 -1.7097  0.0011  1.1480
 8155TIP3    H224430   1.083   4.023   4.441 -0.8926  1.4239  0.8744
 8156TIP3   OH224431   5.927   3.248   4.535 -0.6286  0.2089 -0.0427
 8156TIP3    H124432   5.872   3.177   4.569  0.0308  0.6780  2.1557
 8156TIP3    H224433   5.909   3.322   4.593  1.0813  0.8634 -0.2860
 8157TIP3   OH224434   0.271   3.457   1.114  0.2346 -0.0182 -0.9197
 8157TIP3    H124435   0.194   3.414   1.076 -0.5958  0.0589  0.6179
 8157TIP3    H224436   0.319   3.386   1.156  0.1401  0.1796 -0.4730
 8158TIP3   OH224437   2.852   4.971   3.690 -0.0040  0.2926 -1.0338
 8158TIP3    H124438   2.870   5.062   3.666  0.6031 -0.1808 -2.4844
 8158TIP3    H224439   2.770   4.950   3.645 -0.5437  0.3247 -0.0979
 8159TIP3   OH224440   0.169   2.833   1.614  0.1271 -0.1597  0.2109
 8159TIP3    H124441   0.077   2.853   1.630 -0.2032 -1.5593  0.1991
 8159TIP3    H224442   0.169   2.779   1.534  0.7682 -1.5117  1.0832
 8160TIP3   OH224443   7.081   1.112   5.861 -0.2659 -0.6025 -0.1263
 8160TIP3    H124444   7.016   1.168   5.903 -1.0692 -0.8547 -0.9955
 8160TIP3    H224445   7.079   1.139   5.769 -0.9281 -2.2731 -0.6327
 8161TIP3   OH224446   2.148   1.617   1.361 -0.3139 -1.0643 -0.2761
 8161TIP3    H124447   2.110   1.701   1.338 -1.4452 -1.4336  0.1940
 8161TIP3    H224448   2.150   1.568   1.278 -0.0369 -0.7261 -0.4694
 8162TIP3   OH224449   4.102   0.115   5.843  0.3920  0.2361  0.3927
 8162TIP3    H124450   4.096   0.167   5.923  1.8475 -0.6229  1.0989
 8162TIP3    H224451   4.195   0.111   5.824  0.0357  0.7898 -1.6215
 8163TIP3   OH224452   3.671   2.277   2.998 -0.6003 -0.0240 -0.6690
 8163TIP3    H124453   3.709   2.199   3.038  1.4824  1.9762  1.5926
 8163TIP3    H224454   3.603   2.305   3.059  1.2743  1.9588  0.6874
 8164TIP3   OH224455   6.475   4.118   3.957 -0.0639 -0.0393 -0.0501
 8164TIP3    H124456   6.507   4.035   3.993 -0.6337 -0.5002 -0.5871
 8164TIP3    H224457   6.504   4.118   3.866  0.3362  0.5723  0.0731
 8165TIP3   OH224458   1.511   2.389   3.267 -0.2560  0.1271 -0.0905
 8165TIP3    H124459   1.452   2.318   3.293 -2.0709  0.1364 -3.5817
 8165TIP3    H224460   1.582   2.345   3.219  0.3295  0.4741  0.4346
 8166TIP3   OH224461   5.841   6.690   0.427  0.2742 -0.3851 -0.1459
 8166TIP3    H124462   5.848   6.614   0.485 -1.3895  0.3473  1.0870
 8166TIP3    H224463   5.930   6.726   0.424  0.9312 -1.9264 -0.1509
 8167TIP3   OH224464   1.636   4.251   0.647 -0.8514 -0.3992 -0.0744
 8167TIP3    H124465   1.588   4.326   0.683 -1.7888 -0.9394 -0.1567
 8167TIP3    H224466   1.681   4.214   0.723  0.1293  0.6016 -0.1457
 8168TIP3   OH224467   6.100   2.766   1.025 -0.0132  0.3761  0.0666
 8168TIP3    H124468   6.144   2.722   0.952 -0.3252  0.0079  0.0992
 8168TIP3    H224469   6.172   2.790   1.084  0.1816  0.0714 -0.0385
 8169TIP3   OH224470   4.330   4.436   0.363 -0.4814  0.3028 -0.1069
 8169TIP3    H124471   4.387   4.371   0.405  0.6798  1.0296 -0.4958
 8169TIP3    H224472   4.252   4.387   0.337  0.2566 -0.8772 -0.1563
 8170TIP3   OH224473   3.669   2.273   5.491 -0.1631 -0.3334 -0.2612
 8170TIP3    H124474   3.688   2.201   5.431  0.9282  0.4558 -0.8872
 8170TIP3    H224475   3.577   2.261   5.515 -0.2266 -1.4337 -1.0323
 8171TIP3   OH224476   5.741   1.582   3.228  0.1373  0.3521 -0.0084
 8171TIP3    H124477   5.810   1.550   3.287  0.3188  0.7293 -0.0123
 8171TIP3    H224478   5.687   1.639   3.282 -1.9649 -2.2254  0.7911
 8172TIP3   OH224479   4.655   5.435   3.126 -0.2369  0.0358 -0.6117
 8172TIP3    H124480   4.653   5.369   3.194  1.4730 -0.3422 -0.8721
 8172TIP3    H224481   4.599   5.400   3.056  0.9894 -1.4017 -0.9366
 8173TIP3   OH224482   7.059   5.899   1.826 -0.1632  0.2023  0.2086
 8173TIP3    H124483   6.993   5.956   1.865  0.2769  0.7397  0.1779
 8173TIP3    H224484   7.072   5.935   1.738 -0.4667 -0.4363 -0.1095
 8174TIP3   OH224485   2.357   5.654   5.767  0.3843  0.4120  0.3820
 8174TIP3    H124486   2.274   5.700   5.766  0.6348  0.9013 -1.9208
 8174TIP3    H224487   2.336   5.568   5.805 -1.6041 -0.1609 -1.7649
 8175TIP3   OH224488   6.788   2.173   4.267  0.6175 -0.6404  0.1595
 8175TIP3    H124489   6.870   2.132   4.293  0.6198 -0.4090  0.5286
 8175TIP3    H224490   6.814   2.258   4.232  0.4496 -0.0925  1.3352
 8176TIP3   OH224491   6.033   5.184   2.256 -0.1376 -0.4453 -0.2949
 8176TIP3    H124492   6.078   5.246   2.198 -0.5810  1.4974  1.3339
 8176TIP3    H224493   6.102   5.123   2.283  0.9733  0.9183  0.1011
 8177TIP3   OH224494   5.424   1.381   1.118 -0.3711 -0.1665  0.1621
 8177TIP3    H124495   5.413   1.443   1.191  0.3897 -1.3987  1.3749
 8177TIP3    H224496   5.519   1.377   1.105 -0.4893 -0.1112 -0.8025
 8178TIP3   OH224497   6.928   5.494   4.913 -0.0980  0.1371 -0.6401
 8178TIP3    H124498   6.872   5.417   4.908  1.9264 -1.4420 -0.1502
 8178TIP3    H224499   6.910   5.542   4.832 -0.2464 -1.6815 -1.7364
 8179TIP3   OH224500   4.861   1.251   0.936  0.3642  0.1229  0.6462
 8179TIP3    H124501   4.817   1.172   0.968  2.0051 -0.3006  1.9894
 8179TIP3    H224502   4.882   1.232   0.844 -0.0291 -0.6505  0.7134
 8180TIP3   OH224503   6.905   2.111   1.965  0.1365 -0.6833 -0.3389
 8180TIP3    H124504   6.820   2.072   1.986 -0.5695  1.0069  0.0440
 8180TIP3    H224505   6.968   2.040   1.982 -0.9857 -1.2885  1.5719
 8181TIP3   OH224506   4.335   4.261   1.143  0.1341  0.1794  0.0773
 8181TIP3    H124507   4.275   4.335   1.143 -0.5250 -0.3411  1.0110
 8181TIP3    H224508   4.383   4.269   1.226  0.5263 -0.0717 -0.1211
 8182TIP3   OH224509   3.234   5.188   2.061  0.3296  0.0860  0.7262
 8182TIP3    H124510   3.295   5.230   1.999 -0.1930  0.1255  0.2296
 8182TIP3    H224511   3.208   5.259   2.120 -0.6780  0.5364 -0.2112
 8183TIP3   OH224512   6.950   3.005   4.704  0.0485  0.6659  0.2557
 8183TIP3    H124513   6.934   2.922   4.748 -0.4373 -0.2406 -1.5187
 8183TIP3    H224514   6.868   3.024   4.659  0.6824  1.2490 -0.6896
 8184TIP3   OH224515   3.972   1.083   2.110 -0.8771  0.2725 -0.4541
 8184TIP3    H124516   3.985   0.991   2.135  0.1208  0.3818 -0.5465
 8184TIP3    H224517   4.053   1.127   2.136 -2.6014  1.8693  2.8349
 8185TIP3   OH224518   2.763   2.063   5.137 -0.2832 -0.3541  0.3498
 8185TIP3    H124519   2.736   1.972   5.148  0.0367 -0.4662  0.2087
 8185TIP3    H224520   2.687   2.114   5.165 -0.1367 -0.6496  1.3261
 8186TIP3   OH224521   2.874   6.026   4.012  0.4703 -0.0908  0.3843
 8186TIP3    H124522   2.883   6.022   4.107 -1.1907  0.0398  0.5929
 8186TIP3    H224523   2.841   5.940   3.988 -1.0991  0.5190  0.2301
 8187TIP3   OH224524   0.611   5.292   4.918 -0.3084 -0.4206  0.3076
 8187TIP3    H124525   0.611   5.310   5.012  2.7622 -1.4913  0.6165
 8187TIP3    H224526   0.630   5.376   4.878  2.2767 -0.5943  0.9850
 8188TIP3   OH224527   5.777   5.663   3.071  0.5699  0.1244  0.2786
 8188TIP3    H124528   5.739   5.611   3.142  0.4422  0.5191  0.5006
 8188TIP3    H224529   5.778   5.753   3.104 -2.4169  0.8968 -1.3197
 8189TIP3   OH224530   6.594   3.645   5.586 -0.3087 -0.4186  0.5157
 8189TIP3    H124531   6.601   3.558   5.548 -0.5403  0.2912 -1.2586
 8189TIP3    H224532   6.684   3.670   5.607  0.5214  0.7158 -3.4320
 8190TIP3   OH224533   3.853   5.131   4.072 -0.0693 -0.1275 -0.2968
 8190TIP3    H124534   3.819   5.042   4.085 -0.0094  0.1115  1.8765
 8190TIP3    H224535   3.944   5.118   4.043  0.0451 -0.7803  0.3258
 8191TIP3   OH224536   3.735   0.343   1.715 -0.0680 -0.0717 -0.0238
 8191TIP3    H124537   3.647   0.362   1.747  0.0533 -0.5610  0.6236
 8191TIP3    H224538   3.732   0.250   1.692 -0.3887  0.4359 -2.2621
 8192TIP3   OH224539   6.885   4.626   4.406  0.0692 -0.2170  0.1165
 8192TIP3    H124540   6.916   4.609   4.317  0.7525  1.7732 -0.0893
 8192TIP3    H224541   6.821   4.557   4.423 -0.4000 -0.4241 -2.0927
 8193TIP3   OH224542   5.105   6.751   5.632  0.6762 -0.0971 -0.2708
 8193TIP3    H124543   5.143   6.837   5.614  3.1970 -1.1191 -0.2654
 8193TIP3    H224544   5.090   6.750   5.726  1.4743  0.0478 -0.1351
 8194TIP3   OH224545   4.495   1.360   1.979 -0.2400 -0.2491 -0.8790
 8194TIP3    H124546   4.550   1.381   1.904  1.1976 -1.2151 -0.1344
 8194TIP3    H224547   4.500   1.437   2.035  0.9386 -0.5860 -0.4963
 8195TIP3   OH224548   5.927   5.092   5.509  0.0473  0.1831 -0.4613
 8195TIP3    H124549   5.922   5.177   5.465  0.4774  0.5086  0.1078
 8195TIP3    H224550   6.013   5.058   5.486  0.1786  0.2473 -0.0679
 8196TIP3   OH224551   3.300   4.378   4.089  0.2616  0.3269 -0.2935
 8196TIP3    H124552   3.342   4.463   4.078 -2.0727  1.5704 -0.0510
 8196TIP3    H224553   3.254   4.362   4.006  0.1712 -0.4239 -0.1109
 8197TIP3   OH224554   4.370  -0.030   0.471 -0.0155 -0.1632 -0.1949
 8197TIP3    H124555   4.354   0.050   0.522 -2.8646 -1.6397  1.4690
 8197TIP3    H224556   4.360  -0.002   0.380  0.8455  1.6841  0.2206
 8198TIP3   OH224557   7.083   1.165   1.916 -0.2657 -0.0717 -0.2106
 8198TIP3    H124558   7.093   1.078   1.876 -0.3435 -0.3671  0.4037
 8198TIP3    H224559   7.043   1.147   2.001  1.5572  0.3990  0.7737
 8199TIP3   OH224560   1.719   2.585   2.641  0.0139  0.0828  0.2629
 8199TIP3    H124561   1.659   2.517   2.611 -1.4273  0.5736  1.8481
 8199TIP3    H224562   1.741   2.636   2.563  0.8694 -1.9587 -0.8902
 8200TIP3   OH224563   6.914   5.623   4.381 -0.1938  0.7261  0.7162
 8200TIP3    H124564   6.940   5.711   4.405  1.5538  0.1267  1.1856
 8200TIP3    H224565   6.820   5.620   4.398 -0.4008  2.6542  0.1003
 8201TIP3   OH224566   2.787   3.039   3.078 -0.2547 -0.2326 -0.0078
 8201TIP3    H124567   2.844   3.026   3.153 -0.4653 -0.3969  0.1235
 8201TIP3    H224568   2.699   3.020   3.110 -0.5383  1.1523  0.1092
 8202TIP3   OH224569   4.786   5.080   2.945 -0.1185 -0.2951 -0.1584
 8202TIP3    H124570   4.769   5.167   2.908 -0.0238 -0.3851 -0.4175
 8202TIP3    H224571   4.829   5.097   3.029  0.2256 -0.0933 -0.3716
 8203TIP3   OH224572   0.538   0.202   1.899  0.4077  0.2391  0.5521
 8203TIP3    H124573   0.476   0.149   1.949 -0.8231  0.5930 -0.5693
 8203TIP3    H224574   0.554   0.153   1.819 -0.9551  1.6230 -0.6267
 8204TIP3   OH224575   5.397   0.146   4.690 -0.2166  0.4991 -0.2144
 8204TIP3    H124576   5.312   0.118   4.657 -0.3086 -0.8465  1.0777
 8204TIP3    H224577   5.451   0.067   4.690  1.0590  1.3312 -1.0334
 8205TIP3   OH224578   2.729   3.259   2.344  0.3058 -0.2769  0.7695
 8205TIP3    H124579   2.770   3.305   2.418  0.7183  1.6370 -0.5875
 8205TIP3    H224580   2.799   3.251   2.279 -0.3148 -1.0447  0.1883
 8206TIP3   OH224581   6.617   3.028   0.465  0.6918  0.2164 -0.1309
 8206TIP3    H124582   6.524   3.024   0.487  0.7006  0.0250 -0.1261
 8206TIP3    H224583   6.660   2.976   0.532  0.7814  0.1456 -0.2418
 8207TIP3   OH224584   2.686   4.994   2.178 -0.2160  0.0003  0.1460
 8207TIP3    H124585   2.759   5.042   2.218  0.5533 -0.8654 -0.1667
 8207TIP3    H224586   2.699   5.005   2.084 -1.1009  0.7045  0.0957
 8208TIP3   OH224587   3.843   1.749   2.618  0.2532  0.7698 -0.6994
 8208TIP3    H124588   3.822   1.738   2.711 -0.3388 -0.1885 -0.9279
 8208TIP3    H224589   3.828   1.842   2.600  3.8503  1.8245  0.9764
 8209TIP3   OH224590   0.662   2.782   1.359  0.7472 -0.3920  0.4299
 8209TIP3    H124591   0.737   2.841   1.363  0.9411 -0.5834 -0.2188
 8209TIP3    H224592   0.644   2.760   1.450  0.8418  0.4507  0.6636
 8210TIP3   OH224593   5.944   0.335   3.239 -0.3968  0.3890  0.0403
 8210TIP3    H124594   5.896   0.392   3.299  0.7382  0.7464  0.6407
 8210TIP3    H224595   5.970   0.260   3.292  0.2193  0.4861 -0.1134
 8211TIP3   OH224596   1.144   3.629   4.389  0.2176 -0.1240 -0.4271
 8211TIP3    H124597   1.184   3.545   4.365 -1.6724 -1.4315  0.7094
 8211TIP3    H224598   1.151   3.632   4.485  0.6304  1.2533 -0.4806
 8212TIP3   OH224599   2.663   0.102   2.424  1.2261 -0.3038  0.2064
 8212TIP3    H124600   2.672   0.092   2.519 -2.8142  0.3961  0.8705
 8212TIP3    H224601   2.697   0.189   2.405 -0.2299  0.6174  1.5480
 8213TIP3   OH224602   5.798   3.075   0.389 -0.3235  0.0516 -0.2279
 8213TIP3    H124603   5.752   3.158   0.384  0.9324  0.7561 -0.6106
 8213TIP3    H224604   5.803   3.044   0.299  0.8883  0.5391 -0.3486
 8214TIP3   OH224605   0.898   0.130   4.221  0.1048 -0.3746  0.2545
 8214TIP3    H124606   0.852   0.104   4.142  0.1930 -2.3187  0.7965
 8214TIP3    H224607   0.961   0.196   4.192 -1.3868  0.6072 -0.8800
 8215TIP3   OH224608   2.676   3.532   0.412 -0.1892 -0.3751  0.4835
 8215TIP3    H124609   2.629   3.614   0.397 -0.1660 -0.7084 -1.6019
 8215TIP3    H224610   2.765   3.560   0.433 -0.2056  0.1376 -0.1010
 8216TIP3   OH224611   6.101   0.405   5.013 -0.9304 -0.6319 -0.4906
 8216TIP3    H124612   6.177   0.447   5.054 -1.1327  0.1471 -0.8905
 8216TIP3    H224613   6.137   0.330   4.966 -0.7342 -1.7750  1.3906
 8217TIP3   OH224614   4.423   3.546   1.977 -0.0704 -0.1577 -0.0651
 8217TIP3    H124615   4.503   3.502   2.005 -1.2243 -1.8096  0.7777
 8217TIP3    H224616   4.420   3.626   2.030  0.3115 -0.8052  0.9764
 8218TIP3   OH224617   0.721   5.221   1.526 -0.2943 -0.1294  0.1985
 8218TIP3    H124618   0.739   5.260   1.612  0.8661 -0.0646 -0.0529
 8218TIP3    H224619   0.808   5.202   1.490 -0.7951 -1.3023 -0.4407
 8219TIP3   OH224620   1.880   0.475   1.766 -0.2760 -0.2843  0.1473
 8219TIP3    H124621   1.793   0.515   1.763 -0.8921 -1.6018 -0.3692
 8219TIP3    H224622   1.863   0.380   1.763  1.1496 -0.5863  0.7604
 8220TIP3   OH224623   4.253   4.946   4.468 -0.5565 -0.1321  0.2707
 8220TIP3    H124624   4.248   4.908   4.556  0.3287 -1.7636 -0.3529
 8220TIP3    H224625   4.183   4.902   4.419  0.5586 -1.1070 -0.4940
 8221TIP3   OH224626   3.302   3.123   1.751  0.0844 -0.2821 -0.2936
 8221TIP3    H124627   3.325   3.214   1.731  0.1136  0.2726  1.9663
 8221TIP3    H224628   3.220   3.108   1.705  0.4046  0.6786 -1.2137
 8222TIP3   OH224629   4.848   4.487   3.211 -0.2475 -0.3880 -0.5035
 8222TIP3    H124630   4.834   4.552   3.142 -0.6761 -1.7361 -1.7182
 8222TIP3    H224631   4.859   4.404   3.165  2.0602 -0.9604  0.9061
 8223TIP3   OH224632   6.950   6.418   3.974  0.4222  0.1178  0.4284
 8223TIP3    H124633   6.969   6.512   3.985 -0.2825  0.3443 -0.1858
 8223TIP3    H224634   7.003   6.392   3.899 -1.6953  0.7898 -1.3939
 8224TIP3   OH224635   6.921   4.762   2.560 -0.3079 -0.5155  0.1515
 8224TIP3    H124636   6.876   4.793   2.482  2.3236 -0.3652 -1.4417
 8224TIP3    H224637   6.983   4.831   2.582 -0.3141 -0.9803  1.8464
 8225TIP3   OH224638   2.730   1.235   2.512 -0.2418  0.4973  0.3976
 8225TIP3    H124639   2.732   1.190   2.428  0.9415  2.3360 -0.6190
 8225TIP3    H224640   2.674   1.180   2.567  1.2804 -2.3090 -0.6515
 8226TIP3   OH224641   6.196   5.179   4.657 -0.7752  0.5151  0.3423
 8226TIP3    H124642   6.201   5.099   4.709 -1.0094 -0.0514 -0.4792
 8226TIP3    H224643   6.287   5.211   4.653 -0.3785 -0.6688 -0.7557
 8227TIP3   OH224644   3.857   3.463   1.653  0.1392  0.2317 -0.2032
 8227TIP3    H124645   3.861   3.421   1.738  0.6855 -0.4753 -0.5677
 8227TIP3    H224646   3.948   3.483   1.632 -0.1736  2.7808  0.5167
 8228TIP3   OH224647   1.320   4.131   4.499 -0.1522  0.3405 -0.0829
 8228TIP3    H124648   1.260   4.095   4.433  0.7801 -0.7681 -0.3713
 8228TIP3    H224649   1.402   4.144   4.451  0.6634 -0.8814  0.9200
 8229TIP3   OH224650   0.079   3.623   3.925 -0.7222  0.3458  0.2942
 8229TIP3    H124651   0.096   3.713   3.953 -1.5595 -0.0165  2.0598
 8229TIP3    H224652   0.156   3.574   3.955 -0.4692  0.3795 -0.2823
 8230TIP3   OH224653   0.841   6.399   1.058  0.1743  0.2804 -0.7782
 8230TIP3    H124654   0.925   6.444   1.062 -0.2594  1.1888 -1.4038
 8230TIP3    H224655   0.840   6.356   0.973  0.2883 -0.3166 -0.4811
 8231TIP3   OH224656   5.823   4.280   5.599  0.0467  0.1014  0.3987
 8231TIP3    H124657   5.850   4.358   5.551 -0.0382 -0.0785  0.0615
 8231TIP3    H224658   5.743   4.307   5.644  0.6891  0.5975  1.2957
 8232TIP3   OH224659   5.586   6.554   5.801  0.0295  0.2472  0.0678
 8232TIP3    H124660   5.584   6.506   5.718 -1.1951  0.7438 -0.2166
 8232TIP3    H224661   5.494   6.574   5.819  0.4680  2.4785  0.1670
 8233TIP3   OH224662   0.352   0.446   1.762  0.8224 -0.1876 -0.4448
 8233TIP3    H124663   0.440   0.483   1.760  0.3333  1.0041 -1.2575
 8233TIP3    H224664   0.298   0.514   1.802  0.0444 -0.3353 -1.1931
 8234TIP3   OH224665   3.498   4.657   4.785  0.4587 -0.0580  0.3860
 8234TIP3    H124666   3.414   4.611   4.778 -0.3041  1.4029 -0.5013
 8234TIP3    H224667   3.484   4.722   4.853  0.8825  0.1667  0.2618
 8235TIP3   OH224668   0.792   4.361   2.838 -0.6403 -0.3489  0.7949
 8235TIP3    H124669   0.777   4.448   2.802  1.5494 -0.5079 -0.6058
 8235TIP3    H224670   0.818   4.377   2.929 -0.6104  0.4241  0.6560
 8236TIP3   OH224671   1.147   0.669   4.411 -0.1102  0.2782 -0.1863
 8236TIP3    H124672   1.177   0.711   4.330  0.4646 -1.5242 -0.9642
 8236TIP3    H224673   1.068   0.621   4.384 -0.8849  1.0294  0.7211
 8237TIP3   OH224674   3.732   4.861   3.633  0.8373 -0.0488  0.1329
 8237TIP3    H124675   3.753   4.950   3.659 -1.1545  1.0002 -1.5855
 8237TIP3    H224676   3.794   4.840   3.563  0.8747  0.2593  0.0739
 8238TIP3   OH224677   3.752   6.230   4.302  0.8059  0.6524  0.5013
 8238TIP3    H124678   3.660   6.207   4.292  0.7859  1.5747 -2.0688
 8238TIP3    H224679   3.796   6.146   4.316 -0.3210  0.1359  1.0650
 8239TIP3   OH224680   6.702   6.605   4.171  0.4628 -0.0033 -0.0626
 8239TIP3    H124681   6.765   6.676   4.159 -1.7612  2.2066  0.3492
 8239TIP3    H224682   6.656   6.599   4.087  0.4011 -0.7424  0.0174
 8240TIP3   OH224683   3.001   3.354   0.678  0.1327 -0.1622  0.3656
 8240TIP3    H124684   3.087   3.313   0.669  0.4090  0.5502 -0.3505
 8240TIP3    H224685   3.019   3.448   0.676 -0.5524 -0.0032  1.3756
 8241TIP3   OH224686   2.009   0.275   4.429  0.3560 -0.4084  0.4313
 8241TIP3    H124687   1.921   0.283   4.465 -0.2792  1.1853 -1.2702
 8241TIP3    H224688   2.063   0.335   4.481 -0.5272  1.7966 -1.0361
 8242TIP3   OH224689   2.630   5.152   5.189 -0.1418 -0.2668  0.2493
 8242TIP3    H124690   2.633   5.224   5.253 -0.2839  0.5300 -0.6127
 8242TIP3    H224691   2.717   5.151   5.150 -0.7853  0.9724 -1.3441
 8243TIP3   OH224692   7.137   5.400   5.859  0.4485 -0.1480  0.3342
 8243TIP3    H124693   7.065   5.450   5.895 -0.6940 -1.4501 -0.0508
 8243TIP3    H224694   7.101   5.312   5.845  2.0414 -0.7752 -0.0699
 8244TIP3   OH224695   4.712   0.338   5.757 -0.1927 -0.0997 -0.0453
 8244TIP3    H124696   4.777   0.383   5.812 -0.3463 -0.9211  0.8419
 8244TIP3    H224697   4.656   0.408   5.725  0.1725  0.4513  0.4839
 8245TIP3   OH224698   2.030   4.635   1.414  0.3427  0.4394  0.2514
 8245TIP3    H124699   1.942   4.624   1.451  0.2821 -0.0967 -0.0325
 8245TIP3    H224700   2.037   4.728   1.394 -0.1187  0.5052  0.3921
 8246TIP3   OH224701   6.561   6.314   3.138  0.5381 -0.1401  0.5508
 8246TIP3    H124702   6.555   6.289   3.230 -0.8057  0.9856  0.8037
 8246TIP3    H224703   6.504   6.390   3.130  0.8269 -0.0613 -1.1714
 8247TIP3   OH224704   2.630   5.412   4.600  0.1888  0.1169 -0.1325
 8247TIP3    H124705   2.626   5.353   4.525  1.0027  3.0184 -2.6538
 8247TIP3    H224706   2.557   5.472   4.588 -1.1587 -0.7031  2.8363
 8248TIP3   OH224707   4.494   0.043   4.629 -0.3483  0.4093 -0.5781
 8248TIP3    H124708   4.519   0.108   4.564  0.5306 -1.5017 -2.2429
 8248TIP3    H224709   4.573  -0.008   4.645 -0.5046  0.8489  2.1171
 8249TIP3   OH224710   3.456   5.143   4.903 -0.1022 -0.4056 -0.4078
 8249TIP3    H124711   3.473   5.178   4.991 -0.8728  0.9737 -0.7901
 8249TIP3    H224712   3.388   5.077   4.917  0.3227 -0.7409  0.1243
 8250TIP3   OH224713   1.147   2.769   2.702  0.0602 -0.2652 -0.1135
 8250TIP3    H124714   1.200   2.692   2.682  0.5163  0.0507 -0.1294
 8250TIP3    H224715   1.157   2.826   2.626 -0.2882 -0.1964 -0.1083
 8251TIP3   OH224716   6.184   2.823   4.188 -0.0414 -0.2826  0.1067
 8251TIP3    H124717   6.194   2.765   4.112 -1.5054 -2.7091  1.6275
 8251TIP3    H224718   6.092   2.850   4.185  1.2090  5.0854 -2.4822
 8252TIP3   OH224719   0.327   3.099   0.616 -0.0578 -0.2178  0.1704
 8252TIP3    H124720   0.280   3.063   0.691  1.5533 -0.2931  1.1799
 8252TIP3    H224721   0.378   3.171   0.652 -0.7499  1.0436 -1.2340
 8253TIP3   OH224722   0.194   3.763   1.703 -0.3565 -0.3853 -0.0485
 8253TIP3    H124723   0.283   3.737   1.679 -0.1115 -0.9086  1.3460
 8253TIP3    H224724   0.153   3.787   1.620  2.3170  3.9204 -0.4170
 8254TIP3   OH224725   6.795   6.251   0.050 -0.3959 -0.1388  0.7058
 8254TIP3    H124726   6.816   6.186  -0.017  0.6786  0.0850  0.8014
 8254TIP3    H224727   6.818   6.209   0.133 -0.3190  0.1163  0.8161
 8255TIP3   OH224728   5.929   0.317   2.966 -0.0195 -0.0569  0.8627
 8255TIP3    H124729   5.948   0.317   3.060  1.4203 -0.5497  0.5997
 8255TIP3    H224730   5.972   0.395   2.932  1.4661 -1.0734  0.2843
 8256TIP3   OH224731   5.105   5.617   3.206 -0.1117  0.3156  0.2139
 8256TIP3    H124732   5.149   5.698   3.180  1.0758 -0.5268 -0.4961
 8256TIP3    H224733   5.012   5.633   3.186  0.3976  0.6550 -2.2711
 8257TIP3   OH224734   6.705   1.125   5.833  0.3727 -0.4761  0.3249
 8257TIP3    H124735   6.779   1.180   5.859  0.2148 -0.2522  0.3116
 8257TIP3    H224736   6.659   1.177   5.768  0.8855 -1.1252 -0.5773
 8258TIP3   OH224737   3.510   1.655   2.196  0.4578  0.2937  0.0428
 8258TIP3    H124738   3.554   1.611   2.123  0.1577  0.7316 -0.4006
 8258TIP3    H224739   3.579   1.709   2.236  1.1061 -1.3000  1.2163
 8259TIP3   OH224740   3.724   0.969   5.570 -0.3466  0.3490 -0.0906
 8259TIP3    H124741   3.686   0.882   5.585  1.1547 -0.4840 -0.9050
 8259TIP3    H224742   3.714   1.014   5.654 -3.6501  0.4486 -0.3989
 8260TIP3   OH224743   4.561   4.916   0.664  0.5355 -0.1348  0.0251
 8260TIP3    H124744   4.570   5.000   0.708 -0.3451  0.2912 -0.5974
 8260TIP3    H224745   4.566   4.937   0.571 -3.2604 -0.2233 -0.3480
 8261TIP3   OH224746   3.210   1.558   0.546 -0.0073 -0.2471 -0.0454
 8261TIP3    H124747   3.267   1.584   0.619  1.5668 -1.1365 -0.9153
 8261TIP3    H224748   3.206   1.463   0.553 -0.7749 -0.2498 -0.4729
 8262TIP3   OH224749   6.229   1.653   1.251  0.8385  0.1266  0.2323
 8262TIP3    H124750   6.240   1.594   1.326  0.0839 -0.4086 -0.0582
 8262TIP3    H224751   6.318   1.673   1.223  1.1189 -0.4031  0.7097
 8263TIP3   OH224752   3.034   6.034   1.182  0.6138 -0.5049 -0.4567
 8263TIP3    H124753   2.961   5.991   1.137  0.5710 -0.5958 -0.2991
 8263TIP3    H224754   3.063   5.970   1.247  0.9255 -0.5258 -0.6133
 8264TIP3   OH224755   1.709   0.860   4.218 -0.3769 -0.4871 -0.2205
 8264TIP3    H124756   1.682   0.923   4.151  0.2160 -0.4612 -0.4377
 8264TIP3    H224757   1.797   0.834   4.193  1.4482  2.3345  2.5533
 8265TIP3   OH224758   4.991   5.388   0.376  0.2074  0.2585  0.1470
 8265TIP3    H124759   4.955   5.474   0.354  0.0999 -0.0543 -0.9765
 8265TIP3    H224760   4.924   5.346   0.429 -0.7737 -0.0062 -1.2464
 8266TIP3   OH224761   6.472   1.708   3.638  0.0693  0.0366  0.5201
 8266TIP3    H124762   6.416   1.768   3.591 -2.4237 -2.8904 -0.5563
 8266TIP3    H224763   6.490   1.637   3.577  4.8275  0.5207  0.9096
 8267TIP3   OH224764   3.732   3.552   4.584  0.2137 -0.4482  0.1382
 8267TIP3    H124765   3.810   3.562   4.529 -0.0606  1.3712  0.0065
 8267TIP3    H224766   3.664   3.602   4.538 -1.0064 -1.8544  0.3412
 8268TIP3   OH224767   2.745   3.978   3.341 -0.0637 -0.9682  0.3903
 8268TIP3    H124768   2.713   4.068   3.345  1.5021 -0.4033  1.4805
 8268TIP3    H224769   2.804   3.977   3.265 -1.7334 -1.7093 -0.9560
 8269TIP3   OH224770   5.740   6.113   1.613  0.4573 -0.2178  0.4133
 8269TIP3    H124771   5.708   6.163   1.688  0.4621  0.3754  0.0243
 8269TIP3    H224772   5.834   6.128   1.612  0.3233  0.6661 -0.3447
 8270TIP3   OH224773   6.669   1.884   3.756 -0.0002 -0.0876  0.4430
 8270TIP3    H124774   6.721   1.896   3.835  0.6061  0.8286 -0.0748
 8270TIP3    H224775   6.589   1.840   3.785 -0.1334  0.9256  1.6887
 8271TIP3   OH224776   3.513   2.293   5.017  0.2705 -0.2414  0.6210
 8271TIP3    H124777   3.537   2.381   5.043 -0.2773  0.1643 -0.2097
 8271TIP3    H224778   3.518   2.293   4.921  0.9504 -1.3114  0.6348
 8272TIP3   OH224779   4.958   4.033   1.690  0.4349 -0.6658  0.3810
 8272TIP3    H124780   5.043   4.076   1.703  0.6333 -0.9740  0.1047
 8272TIP3    H224781   4.935   4.052   1.599  1.7664 -3.3144 -0.6109
 8273TIP3   OH224782   6.941   5.091   0.716 -0.1311 -0.1139  0.1483
 8273TIP3    H124783   6.900   5.150   0.653  0.0792 -1.4675 -1.3128
 8273TIP3    H224784   7.034   5.116   0.715 -0.1422 -0.0757 -0.0233
 8274TIP3   OH224785   5.787   5.996   1.973  0.0432  0.4926  0.1649
 8274TIP3    H124786   5.781   6.090   1.953 -0.8613  1.1569  3.0605
 8274TIP3    H224787   5.715   5.980   2.035  1.1420 -1.7682  0.9557
 8275TIP3   OH224788   2.133   5.763   4.111 -0.3212 -0.7776 -0.3726
 8275TIP3    H124789   2.182   5.791   4.189  0.7869  0.0269 -1.3264
 8275TIP3    H224790   2.146   5.668   4.108 -0.2382 -0.7926  0.3286
 8276TIP3   OH224791   2.033   2.156   5.420  0.2676  0.1092  0.8826
 8276TIP3    H124792   2.062   2.247   5.409  0.3110  0.0960  0.8900
 8276TIP3    H224793   2.094   2.105   5.367 -0.7699  0.2529 -0.5037
 8277TIP3   OH224794   4.691   4.940   4.116  0.0490 -0.5901 -0.4038
 8277TIP3    H124795   4.636   5.018   4.116 -1.2897 -1.4699  1.1989
 8277TIP3    H224796   4.689   4.909   4.025 -2.9485 -1.1073 -0.2618
 8278TIP3   OH224797   0.614   5.911   1.336  0.0883  0.0715 -0.6242
 8278TIP3    H124798   0.569   5.995   1.332  0.1572  0.0999 -0.8551
 8278TIP3    H224799   0.705   5.932   1.313  0.1012 -0.0676 -0.7022
 8279TIP3   OH224800   0.230   6.332   2.415 -0.3822  0.6105  0.0328
 8279TIP3    H124801   0.226   6.314   2.321 -1.1351  0.3726  0.1033
 8279TIP3    H224802   0.231   6.427   2.421  0.2115  0.6237 -0.2315
 8280TIP3   OH224803   6.125   1.158   5.408  0.1190 -0.0484 -0.4127
 8280TIP3    H124804   6.136   1.176   5.501  0.9788 -1.1390 -0.2798
 8280TIP3    H224805   6.031   1.153   5.395 -0.0084  0.0016  0.4274
 8281TIP3   OH224806   4.374   1.639   5.424 -0.2789  0.2338  0.7214
 8281TIP3    H124807   4.342   1.651   5.335 -1.5695  1.7397  1.3496
 8281TIP3    H224808   4.363   1.545   5.440  0.1281 -0.0936 -0.7407
 8282TIP3   OH224809   2.653   6.771   3.566 -0.0975  0.0672  0.0854
 8282TIP3    H124810   2.569   6.812   3.584 -0.0942  0.7506 -1.3315
 8282TIP3    H224811   2.632   6.678   3.553 -0.3233 -0.1403  1.7208
 8283TIP3   OH224812   3.084   3.177   3.478  0.0250 -0.6161 -0.1777
 8283TIP3    H124813   3.121   3.262   3.503  2.4021 -2.2113  2.3399
 8283TIP3    H224814   3.101   3.170   3.384  1.0195  1.1321 -0.1718
 8284TIP3   OH224815   5.920   2.843   4.399  0.2552  0.1253  0.0005
 8284TIP3    H124816   5.951   2.924   4.359  0.9933  0.6115  1.4588
 8284TIP3    H224817   5.998   2.787   4.404  0.2582  0.1925  0.9802
 8285TIP3   OH224818   1.613   4.685   2.995 -0.0561  0.2090 -0.2824
 8285TIP3    H124819   1.573   4.631   2.927 -0.5896  0.0801  0.1338
 8285TIP3    H224820   1.644   4.622   3.060  1.8118  0.2188 -1.0959
 8286TIP3   OH224821   2.101   1.894   5.351  0.4577  0.4653  0.3864
 8286TIP3    H124822   2.024   1.838   5.358 -0.2426  1.2131 -0.8824
 8286TIP3    H224823   2.128   1.885   5.260  0.4775  1.9704  0.2164
 8287TIP3   OH224824   1.601   4.474   4.577  0.9562 -0.9044  0.4052
 8287TIP3    H124825   1.548   4.485   4.655  1.1976 -1.3020  0.6288
 8287TIP3    H224826   1.629   4.383   4.580  2.4213 -0.4676  0.7906
 8288TIP3   OH224827   6.117   3.212   5.446  0.0962 -0.0485  0.2198
 8288TIP3    H124828   6.080   3.125   5.456  0.6330 -0.0070  5.0985
 8288TIP3    H224829   6.043   3.272   5.458  0.1701  0.1632 -0.3381
 8289TIP3   OH224830   4.162   1.642   5.214  1.2077 -0.2764  0.6839
 8289TIP3    H124831   4.109   1.666   5.138  0.6289  1.7071  1.6487
 8289TIP3    H224832   4.128   1.557   5.241  1.0136 -0.7295 -0.8790
 8290TIP3   OH224833   3.121   3.462   5.437 -0.0101  0.4430  0.1898
 8290TIP3    H124834   3.096   3.442   5.347  1.2227  0.6914 -0.2228
 8290TIP3    H224835   3.070   3.540   5.459 -0.2736  0.4127 -0.3142
 8291TIP3   OH224836   4.502   4.445   2.937  0.3742  0.3063  0.4675
 8291TIP3    H124837   4.587   4.425   2.897 -0.3820 -1.1800 -0.4925
 8291TIP3    H224838   4.502   4.393   3.018 -0.7156 -2.1286 -0.9646
 8292TIP3   OH224839   4.104   4.559   2.848 -1.0504 -0.0010  0.2646
 8292TIP3    H124840   4.083   4.514   2.930 -1.3352  1.6398  1.1288
 8292TIP3    H224841   4.158   4.496   2.799 -1.8040 -1.4346  1.2081
 8293TIP3   OH224842   1.197   3.513   5.491 -0.6712  0.1014  0.0426
 8293TIP3    H124843   1.121   3.517   5.434  0.5163  0.6209 -1.5756
 8293TIP3    H224844   1.188   3.430   5.537 -1.3788 -0.6253 -1.3361
 8294TIP3   OH224845   1.012   3.720   5.855 -0.0701  0.3294  0.0201
 8294TIP3    H124846   0.984   3.641   5.810  0.6512  0.3617 -0.5148
 8294TIP3    H224847   1.092   3.746   5.809 -0.1107  1.1746  0.4087
 8295TIP3   OH224848   6.657   2.881   4.845 -0.1327  0.0507 -0.6988
 8295TIP3    H124849   6.740   2.833   4.838  0.5507  1.1773 -0.5768
 8295TIP3    H224850   6.623   2.883   4.755  0.5424  0.5461 -0.9543
 8296TIP3   OH224851   4.708   0.066   5.249 -0.2277  0.1497  0.0457
 8296TIP3    H124852   4.683   0.128   5.317 -2.7725  0.5060 -1.0968
 8296TIP3    H224853   4.705   0.117   5.168  0.5244 -0.7989 -0.6087
 8297TIP3   OH224854   3.675   0.120   2.243 -0.3978 -0.5411  0.0706
 8297TIP3    H124855   3.656   0.031   2.214 -1.1977 -0.4722  0.3661
 8297TIP3    H224856   3.750   0.111   2.301  1.3742 -0.6695 -2.1089
 8298TIP3   OH224857   2.423   5.247   4.747 -0.5727  0.0137 -0.1783
 8298TIP3    H124858   2.405   5.311   4.815 -0.2267 -0.1801  0.0988
 8298TIP3    H224859   2.488   5.290   4.690 -1.1512  0.3259 -0.6113
 8299TIP3   OH224860   6.667   2.790   3.599 -0.5148 -0.0185  0.0891
 8299TIP3    H124861   6.595   2.848   3.575 -0.4903 -0.0421 -0.0402
 8299TIP3    H224862   6.684   2.738   3.520  0.3106  0.6748 -0.1944
 8300TIP3   OH224863   0.663   2.060   1.430 -0.4271  0.2481 -0.5362
 8300TIP3    H124864   0.632   2.144   1.463  1.0381 -0.2102  2.2618
 8300TIP3    H224865   0.695   2.014   1.507  3.1859 -0.9999 -2.5449
 8301TIP3   OH224866   6.091   1.488   2.786 -0.4512  0.0985 -0.6018
 8301TIP3    H124867   6.085   1.570   2.834 -0.9981 -0.3238  0.0717
 8301TIP3    H224868   6.172   1.448   2.815 -0.7015 -0.0812 -0.1353
 8302TIP3   OH224869   2.033   4.141   5.782 -0.0572  0.2560  0.3851
 8302TIP3    H124870   2.087   4.063   5.785  0.0101  0.3071  0.5417
 8302TIP3    H224871   1.996   4.142   5.694 -1.0545 -0.6259  0.7768
 8303TIP3   OH224872   2.353   5.238   3.039 -0.4252  0.1319 -0.1450
 8303TIP3    H124873   2.305   5.179   2.980 -1.0691 -0.0048  0.4920
 8303TIP3    H224874   2.325   5.325   3.012 -1.2995  0.0452  0.4089
 8304TIP3   OH224875   3.899   5.219   1.222  0.0921 -0.5119  0.1565
 8304TIP3    H124876   3.904   5.310   1.251  1.5302 -0.5093 -0.0156
 8304TIP3    H224877   3.806   5.198   1.223 -0.5192  1.6530 -1.9528
 8305TIP3   OH224878   1.605   2.256   4.702  0.3037 -0.4869 -0.0671
 8305TIP3    H124879   1.546   2.311   4.651  1.2379  0.1445 -0.5087
 8305TIP3    H224880   1.631   2.311   4.776  0.7229 -0.5707 -0.1470
 8306TIP3   OH224881   6.163   1.950   5.066  0.2567  0.3115 -1.0697
 8306TIP3    H124882   6.210   2.022   5.024  1.4121 -0.1264 -0.5827
 8306TIP3    H224883   6.226   1.879   5.069 -0.3567 -0.2168 -0.1483
 8307TIP3   OH224884   6.955   1.356   3.766  0.4841 -0.2626 -0.1679
 8307TIP3    H124885   6.921   1.430   3.816  1.7833  0.2910 -0.0813
 8307TIP3    H224886   6.889   1.341   3.698  0.1049  0.8351 -0.0649
 8308TIP3   OH224887   2.677   0.169   3.183 -0.2687  0.3085  0.1165
 8308TIP3    H124888   2.693   0.176   3.089 -0.2174  1.4979  0.1939
 8308TIP3    H224889   2.701   0.255   3.218  1.3581 -0.6278  1.4768
 8309TIP3   OH224890   6.087   0.532   2.902  0.0435 -0.6432 -0.0521
 8309TIP3    H124891   6.113   0.595   2.835 -2.6746 -0.9853 -1.5942
 8309TIP3    H224892   6.151   0.544   2.972  1.7905  1.2094 -1.8072
 8310TIP3   OH224893   1.913   0.791   2.043 -0.0998  0.5117  0.5740
 8310TIP3    H124894   1.871   0.850   2.107  0.8037  1.4836  0.2884
 8310TIP3    H224895   2.005   0.816   2.044  0.2433 -0.6750  0.1751
 8311TIP3   OH224896   2.934   1.004   3.222  0.4380  0.0263  0.6788
 8311TIP3    H124897   2.933   1.009   3.127  0.5328  0.9903  0.7199
 8311TIP3    H224898   2.844   1.024   3.248  0.5042  0.1597  0.8071
 8312TIP3   OH224899   6.110   4.617   3.142  0.6669  0.5955  0.0668
 8312TIP3    H124900   6.036   4.669   3.112  0.9155 -0.2905 -2.3228
 8312TIP3    H224901   6.186   4.673   3.126  0.8930 -0.2187 -2.0991
 8313TIP3   OH224902   6.528   3.733   3.450 -0.5225 -0.3414 -1.0539
 8313TIP3    H124903   6.616   3.723   3.487 -0.2583  1.1304 -1.2189
 8313TIP3    H224904   6.470   3.730   3.526 -0.2364 -0.2964 -0.8275
 8314TIP3   OH224905   2.092   3.815   5.117  0.1710 -0.0143  0.1058
 8314TIP3    H124906   2.127   3.877   5.054  1.8009 -0.2668  0.7140
 8314TIP3    H224907   2.042   3.869   5.179  1.1540  0.6277  0.3488
 8315TIP3   OH224908   1.590   1.988   4.658  0.1375  0.2047  0.0050
 8315TIP3    H124909   1.597   2.079   4.686  1.2138 -0.3625  1.7431
 8315TIP3    H224910   1.669   1.973   4.606 -0.4270  0.4615 -0.9420
 8316TIP3   OH224911   0.439   1.856   2.376  0.9930 -0.1637 -0.0598
 8316TIP3    H124912   0.465   1.772   2.414  2.6764  0.0445 -0.6600
 8316TIP3    H224913   0.425   1.913   2.451  1.2015 -0.6025  0.3182
 8317TIP3   OH224914   0.150   4.067   4.427 -0.1126  0.3454 -0.1687
 8317TIP3    H124915   0.079   4.021   4.473  2.1048 -2.3088  0.8507
 8317TIP3    H224916   0.214   4.086   4.495  1.4912 -0.0655 -1.5053
 8318TIP3   OH224917   1.313   0.749   2.970 -0.0478  0.2702  0.6469
 8318TIP3    H124918   1.226   0.714   2.954  0.6263 -0.4761 -1.8323
 8318TIP3    H224919   1.369   0.672   2.979  0.7384  0.6939 -0.3710
 8319TIP3   OH224920   5.863   3.446   4.715 -0.0447  0.2935 -0.1043
 8319TIP3    H124921   5.860   3.542   4.723 -0.2954  0.2681  0.1073
 8319TIP3    H224922   5.851   3.414   4.804 -1.8727  0.0304 -0.4119
 8320TIP3   OH224923   2.771   0.572   3.079  0.6412  0.1432  0.2102
 8320TIP3    H124924   2.814   0.604   2.999 -1.1289  0.6283 -0.5890
 8320TIP3    H224925   2.687   0.616   3.080  0.4546 -0.1982  2.1480
 8321TIP3   OH224926   5.715   2.784   0.801  0.3451 -0.6009 -0.1889
 8321TIP3    H124927   5.736   2.727   0.876 -1.1134 -2.4715 -1.1368
 8321TIP3    H224928   5.650   2.845   0.835  0.8399 -0.4127  0.4550
 8322TIP3   OH224929   4.429   1.668   4.376  0.5018 -0.3766  0.5487
 8322TIP3    H124930   4.497   1.614   4.416  0.1086  0.1826  2.0478
 8322TIP3    H224931   4.407   1.733   4.444  0.2146  0.9981 -0.8107
 8323TIP3   OH224932   5.266   5.670   2.880 -0.0754 -0.4058 -0.2157
 8323TIP3    H124933   5.242   5.601   2.819  0.8598 -0.6024 -0.3766
 8323TIP3    H224934   5.340   5.715   2.838 -0.0034  0.0318  0.3568
 8324TIP3   OH224935   0.978   1.159   5.481 -0.1068 -0.2894  0.0330
 8324TIP3    H124936   1.058   1.175   5.431  0.0549  1.2489  0.7387
 8324TIP3    H224937   0.916   1.225   5.449 -0.8047 -0.8546  0.1743
 8325TIP3   OH224938   6.996   4.126   3.664 -0.3051  0.2160 -0.3305
 8325TIP3    H124939   7.084   4.156   3.645  0.3735  0.1615  2.3286
 8325TIP3    H224940   6.939   4.199   3.641  0.6916  1.1539  0.1324
 8326TIP3   OH224941   5.018   4.372   0.312  0.1062  0.3156 -0.1475
 8326TIP3    H124942   5.066   4.387   0.231  2.3951  0.7906  1.2219
 8326TIP3    H224943   4.972   4.455   0.328 -0.4700  0.1769 -0.9770
 8327TIP3   OH224944   6.514   1.310   5.389  0.4306 -0.4196 -0.2973
 8327TIP3    H124945   6.448   1.350   5.331  1.1860  0.4361 -0.5980
 8327TIP3    H224946   6.479   1.224   5.410 -0.3395 -0.3454 -1.2142
 8328TIP3   OH224947   2.994   5.798   1.613 -0.1008  0.0628 -0.2384
 8328TIP3    H124948   2.908   5.777   1.578 -0.8359  0.1284  1.4666
 8328TIP3    H224949   3.054   5.782   1.540 -1.5680  0.2708 -1.5291
 8329TIP3   OH224950   1.503   3.771   3.670 -0.4764 -0.6354 -0.1501
 8329TIP3    H124951   1.490   3.676   3.670 -0.9139 -0.5769  0.0981
 8329TIP3    H224952   1.595   3.782   3.646  0.1169 -1.2071  1.6922
 8330TIP3   OH224953   0.070   3.241   1.434 -0.5889 -0.5649 -0.6907
 8330TIP3    H124954   0.097   3.332   1.446 -1.1956 -0.4181 -0.3587
 8330TIP3    H224955   0.107   3.215   1.350  2.1888 -0.9841  0.5489
 8331TIP3   OH224956   6.540   3.314   1.471 -0.2208 -0.5938 -0.0582
 8331TIP3    H124957   6.479   3.249   1.506  0.0591 -0.1721  1.2359
 8331TIP3    H224958   6.484   3.389   1.449 -0.0378  0.5806  2.9866
 8332TIP3   OH224959   1.994   5.125   3.682 -0.2052 -0.1358  0.6117
 8332TIP3    H124960   1.976   5.095   3.771  1.1940 -3.1654  0.0084
 8332TIP3    H224961   2.075   5.175   3.689 -0.4988  0.2723  1.1309
 8333TIP3   OH224962   4.161   3.850   5.087 -0.3695  0.2824 -0.6253
 8333TIP3    H124963   4.158   3.754   5.083  1.9301  0.0636  0.8454
 8333TIP3    H224964   4.134   3.871   5.176  0.2229  0.9114 -0.5839
 8334TIP3   OH224965   5.161   3.668   5.740  0.1707 -0.5366 -0.0103
 8334TIP3    H124966   5.073   3.631   5.729 -0.2102  0.5640 -0.8825
 8334TIP3    H224967   5.201   3.661   5.653  0.0951  1.0436 -0.1883
 8335TIP3   OH224968   3.710   1.576   0.324  0.2496 -0.0401  0.3018
 8335TIP3    H124969   3.778   1.574   0.256 -1.5828 -0.3624 -1.6382
 8335TIP3    H224970   3.693   1.484   0.344 -0.6838 -0.0441 -0.4154
 8336TIP3   OH224971   5.123   3.340   4.767  0.1069  0.0514 -0.3663
 8336TIP3    H124972   5.036   3.334   4.807 -0.4330 -0.9770 -1.6213
 8336TIP3    H224973   5.160   3.252   4.777 -0.1942 -0.3489 -2.3603
 8337TIP3   OH224974   0.722   2.537   2.058  0.3057  0.2545  0.0937
 8337TIP3    H124975   0.708   2.628   2.084  1.9660  0.1641  1.4419
 8337TIP3    H224976   0.642   2.492   2.086  0.7474  0.7545  2.3881
 8338TIP3   OH224977   2.211   1.866   2.511  0.2999 -0.1407  0.6185
 8338TIP3    H124978   2.292   1.917   2.505  0.8448 -1.1489 -2.9927
 8338TIP3    H224979   2.237   1.777   2.486 -1.9435 -0.4339 -0.9054
 8339TIP3   OH224980   0.801   4.036   0.351  0.4609 -0.0690  0.2854
 8339TIP3    H124981   0.893   4.028   0.323  0.4442 -1.0075  0.4489
 8339TIP3    H224982   0.806   4.036   0.447  0.4572  2.3381  0.3449
 8340TIP3   OH224983   6.019   3.724   1.980  0.2703 -0.2410 -0.1787
 8340TIP3    H124984   6.053   3.805   1.942 -0.6262 -0.0683 -0.6522
 8340TIP3    H224985   6.054   3.723   2.069  0.4474  0.5743 -0.2284
 8341TIP3   OH224986   2.843   0.824   2.612  0.2660 -0.0945 -0.2599
 8341TIP3    H124987   2.796   0.868   2.541 -0.8475 -0.4317  0.2484
 8341TIP3    H224988   2.912   0.885   2.637 -0.4012  0.7604 -0.4799
 8342TIP3   OH224989   1.653   5.887   5.462 -0.1379  0.8945 -0.6994
 8342TIP3    H124990   1.568   5.850   5.440 -0.6869  0.9722  1.1413
 8342TIP3    H224991   1.666   5.957   5.398 -1.5786  1.0393 -0.8620
 8343TIP3   OH224992   5.623   6.470   5.507 -0.1917 -0.0990  0.1033
 8343TIP3    H124993   5.528   6.476   5.493 -0.2301 -0.7294  0.0449
 8343TIP3    H224994   5.650   6.393   5.456 -0.0148 -1.2665  1.8755
 8344TIP3   OH224995   6.984   6.618   3.273 -0.7169 -0.4552  0.2347
 8344TIP3    H124996   6.921   6.609   3.201 -0.5545  0.8269 -0.0805
 8344TIP3    H224997   7.057   6.666   3.236 -0.5849  0.1481  1.2216
 8345TIP3   OH224998   3.735   6.129   5.022  0.3002  0.3241  0.2723
 8345TIP3    H124999   3.756   6.204   4.966 -1.3796 -0.1136 -1.0314
 8345TIP3    H225000   3.687   6.167   5.095  1.5057  0.7667  0.8629
 8346TIP3   OH225001   4.519   1.364   3.422  0.0780  0.1560 -0.2438
 8346TIP3    H125002   4.559   1.289   3.377 -2.2606  0.5298 -3.2867
 8346TIP3    H225003   4.437   1.329   3.458 -0.8033  1.0865 -1.2840
 8347TIP3   OH225004   2.408   1.861   2.811 -0.5372 -0.1745  0.5728
 8347TIP3    H125005   2.440   1.903   2.731 -0.2828 -0.6808  0.4061
 8347TIP3    H225006   2.429   1.923   2.881 -0.2259  0.0029  0.3232
 8348TIP3   OH225007   5.088   1.033   0.939 -0.0795  0.1520  0.0342
 8348TIP3    H125008   5.016   0.996   0.989 -1.0954  1.1290 -0.6715
 8348TIP3    H225009   5.142   1.078   1.004 -0.1828 -0.4461  0.5421
 8349TIP3   OH225010   6.235   4.949   0.796  0.1114 -0.0196  0.3328
 8349TIP3    H125011   6.196   5.014   0.738 -0.2374  0.8246  1.4834
 8349TIP3    H225012   6.238   4.991   0.881  1.3906 -0.9306  0.7673
 8350TIP3   OH225013   6.690   5.143   3.069  0.4646 -0.1989 -0.7471
 8350TIP3    H125014   6.747   5.211   3.034  0.5518 -0.1069 -0.4253
 8350TIP3    H225015   6.736   5.109   3.146 -0.9630  1.5263  0.9780
 8351TIP3   OH225016   0.207   1.865   1.146 -0.2217  0.1870 -0.0413
 8351TIP3    H125017   0.256   1.946   1.137  1.7080 -0.8232  0.9821
 8351TIP3    H225018   0.133   1.888   1.202  1.3070  0.8595  1.7874
 8352TIP3   OH225019   1.357   5.867   5.336  0.4316 -0.2855 -0.6821
 8352TIP3    H125020   1.356   5.773   5.354 -0.7430 -0.0756  0.5312
 8352TIP3    H225021   1.317   5.875   5.249 -0.4370 -0.8513 -0.3529
 8353TIP3   OH225022   2.501   4.920   1.381 -0.0558  0.3041 -0.2607
 8353TIP3    H125023   2.550   4.927   1.300 -1.1950  0.2422 -0.9845
 8353TIP3    H225024   2.567   4.906   1.449  0.8754 -0.1636 -1.2462
 8354TIP3   OH225025   1.332   5.478   4.380 -0.2597 -0.4714 -0.5299
 8354TIP3    H125026   1.336   5.546   4.313  0.0201  0.7661  0.6815
 8354TIP3    H225027   1.364   5.400   4.337 -0.6767  0.1379 -2.0006
 8355TIP3   OH225028   0.053   0.146   2.629  0.1489  0.4432 -0.4919
 8355TIP3    H125029   0.050   0.124   2.722  1.8665  2.8331  0.2209
 8355TIP3    H225030   0.090   0.068   2.588 -0.4348 -0.5717  0.8282
 8356TIP3   OH225031   6.137   5.664   5.315 -0.1347  0.3750  0.0926
 8356TIP3    H125032   6.128   5.753   5.347  1.1245 -0.1665  2.1241
 8356TIP3    H225033   6.231   5.652   5.303 -0.1059 -1.1603  1.4794
 8357TIP3   OH225034   0.346   0.603   1.421 -0.5163 -0.0578  0.0840
 8357TIP3    H125035   0.390   0.617   1.505  0.1454  0.4259 -0.3335
 8357TIP3    H225036   0.256   0.579   1.445 -1.1753  2.7884  0.9564
 8358TIP3   OH225037   0.753   5.995   5.473  0.9056 -0.0076 -0.8593
 8358TIP3    H125038   0.723   6.060   5.537  0.0337 -0.4070 -0.8460
 8358TIP3    H225039   0.849   5.999   5.478  0.9059  1.8264 -1.4079
 8359TIP3   OH225040   0.154   3.646   5.436  0.1675  0.7633  0.1409
 8359TIP3    H125041   0.134   3.611   5.523 -0.8988 -2.4461 -1.2394
 8359TIP3    H225042   0.249   3.636   5.428  0.0914 -0.2703  0.4328
 8360TIP3   OH225043   0.531   6.066   5.657 -0.0020  0.2480 -0.3527
 8360TIP3    H125044   0.470   6.084   5.586  1.2648 -0.4788 -1.6773
 8360TIP3    H225045   0.497   5.987   5.699  0.3575 -0.5583 -1.5232
 8361TIP3   OH225046   2.190   3.741   2.003 -0.0889  0.1968 -0.1069
 8361TIP3    H125047   2.202   3.718   2.095 -1.6768 -0.5546 -0.0665
 8361TIP3    H225048   2.213   3.834   1.999  2.4284 -0.3248  0.5217
 8362TIP3   OH225049   0.024   4.051   1.193 -0.8423 -0.1009  0.6762
 8362TIP3    H125050  -0.002   4.138   1.163 -0.7797  0.0084  0.9332
 8362TIP3    H225051  -0.009   4.046   1.283 -2.6174 -1.1103  0.0130
 8363TIP3   OH225052   1.884   3.201   4.599  0.0856 -0.0941  0.4461
 8363TIP3    H125053   1.942   3.274   4.619 -1.4616  1.7660 -1.4275
 8363TIP3    H225054   1.934   3.147   4.537  0.3834  0.6538  0.0229
 8364TIP3   OH225055   5.618   4.566   3.549 -0.3117 -0.3178 -0.4539
 8364TIP3    H125056   5.641   4.646   3.503  0.9714 -0.0128  0.6650
 8364TIP3    H225057   5.679   4.501   3.516  0.1479 -0.2690  0.2745
 8365TIP3   OH225058   5.122   2.757   0.339 -0.0679 -0.4241 -0.2092
 8365TIP3    H125059   5.183   2.829   0.356 -0.0414 -0.7041  1.0229
 8365TIP3    H225060   5.036   2.793   0.362 -0.4544  0.0879 -2.2946
 8366TIP3   OH225061   1.501   3.182   3.235 -0.4845  0.5725 -0.1388
 8366TIP3    H125062   1.511   3.116   3.304  0.9711  0.3833 -0.4950
 8366TIP3    H225063   1.494   3.265   3.282 -1.4332  0.2726  0.2823
 8367TIP3   OH225064   4.838   6.470   2.434 -0.1589 -0.0406 -0.0508
 8367TIP3    H125065   4.747   6.495   2.446  0.5693  1.9677  2.0964
 8367TIP3    H225066   4.887   6.528   2.493  2.7020  0.2101 -2.4214
 8368TIP3   OH225067   4.150   6.355   3.682  0.0874 -0.3147  0.1192
 8368TIP3    H125068   4.102   6.346   3.599  1.9368  0.2788 -1.1018
 8368TIP3    H225069   4.219   6.289   3.677  1.2384  0.8053  0.3819
 8369TIP3   OH225070   0.434   1.781   5.656 -0.2009  0.2320 -0.2015
 8369TIP3    H125071   0.363   1.720   5.634  0.5691 -1.3069  1.3130
 8369TIP3    H225072   0.396   1.837   5.723 -0.2200 -0.1298  0.0973
 8370TIP3   OH225073   3.804   0.448   3.901 -0.1959  0.3447  0.5021
 8370TIP3    H125074   3.875   0.507   3.925  1.9014 -0.3496 -3.1310
 8370TIP3    H225075   3.725   0.498   3.917  1.1984  2.0524  2.5938
 8371TIP3   OH225076   7.093   2.135   0.898  0.0313 -0.0399  0.2685
 8371TIP3    H125077   7.145   2.079   0.841  0.2164 -1.2681  1.5818
 8371TIP3    H225078   7.005   2.098   0.894 -0.1011  0.2741  0.2700
 8372TIP3   OH225079   6.380   4.645   2.876  0.2028 -0.3228  0.4234
 8372TIP3    H125080   6.383   4.715   2.812  2.2659  0.9344  1.7685
 8372TIP3    H225081   6.394   4.565   2.825 -1.8668  0.1815 -1.0929
 8373TIP3   OH225082   6.647   2.402   2.917 -0.4739 -0.0224  0.1723
 8373TIP3    H125083   6.692   2.357   2.846 -0.7400  0.8532 -0.5671
 8373TIP3    H225084   6.625   2.332   2.980  0.4627 -0.6839 -0.2172
 8374TIP3   OH225085   2.903   1.557   3.676 -0.1280 -0.0209 -0.5676
 8374TIP3    H125086   2.946   1.474   3.694  0.2851  0.2886 -0.0794
 8374TIP3    H225087   2.827   1.535   3.623 -0.4358 -0.7859  0.1749
 8375TIP3   OH225088   7.119   0.444   4.934 -0.0732 -0.3200  0.4995
 8375TIP3    H125089   7.086   0.451   4.844 -1.2220 -0.3734  0.9089
 8375TIP3    H225090   7.045   0.413   4.985 -0.1370  1.8814  1.8868
 8376TIP3   OH225091   6.043   4.827   1.092 -0.0311 -0.6930  0.3471
 8376TIP3    H125092   6.005   4.840   1.006 -0.4011 -1.8832  0.3053
 8376TIP3    H225093   6.132   4.797   1.075  1.9939  4.4367  0.4445
 8377TIP3   OH225094   5.309   6.437   0.783  0.3505  0.0299 -0.2415
 8377TIP3    H125095   5.390   6.470   0.744  0.3553 -0.8102 -0.9490
 8377TIP3    H225096   5.264   6.516   0.813  1.0252  0.5707 -0.6202
 8378TIP3   OH225097   6.260   4.606   2.241 -0.0089  0.3368  0.5245
 8378TIP3    H125098   6.331   4.667   2.224  1.7612 -1.8583 -0.4674
 8378TIP3    H225099   6.269   4.583   2.333  1.6199 -1.0916  0.0510
 8379TIP3   OH225100   4.674   6.246   4.339  0.2577 -0.2534 -0.0223
 8379TIP3    H125101   4.717   6.187   4.277 -0.4972 -0.2850 -0.5346
 8379TIP3    H225102   4.629   6.187   4.400  0.7703 -0.2203  0.3850
 8380TIP3   OH225103   0.632   2.713   0.341  0.4295 -0.0686  0.6482
 8380TIP3    H125104   0.716   2.759   0.341  0.1991  0.5104 -1.8774
 8380TIP3    H225105   0.568   2.779   0.367  0.4592  0.2388 -0.0389
 8381TIP3   OH225106   5.293   0.045   1.376  0.4693 -0.1336  0.3892
 8381TIP3    H125107   5.347   0.108   1.328 -0.6116  0.9394  0.5259
 8381TIP3    H225108   5.350  -0.030   1.390  1.5299  0.4740 -0.5355
 8382TIP3   OH225109   6.742   6.173   0.551  0.0073  0.1488  0.0476
 8382TIP3    H125110   6.712   6.105   0.610 -0.3466  0.5780  0.3717
 8382TIP3    H225111   6.721   6.255   0.596 -0.8059  0.4941 -0.9206
 8383TIP3   OH225112   6.312   0.070   3.174 -0.0576  0.3317  0.0075
 8383TIP3    H125113   6.269   0.031   3.098  1.1057 -1.7249  0.3123
 8383TIP3    H225114   6.272   0.025   3.249 -1.6566  2.7927  0.7205
 8384TIP3   OH225115   4.702   6.539   3.420 -0.5864 -0.1326 -0.0479
 8384TIP3    H125116   4.646   6.483   3.475 -0.0908  0.3670  0.9903
 8384TIP3    H225117   4.768   6.573   3.480 -0.5349  1.1108 -0.7796
 8385TIP3   OH225118   0.066   1.320   1.757 -0.4276  0.5080  0.2224
 8385TIP3    H125119   0.018   1.266   1.820  0.8063  0.0783  0.8315
 8385TIP3    H225120   0.140   1.266   1.731  0.8105  1.8700  0.8003
 8386TIP3   OH225121   4.977   0.173   1.051  0.0871 -1.1163 -0.1355
 8386TIP3    H125122   4.965   0.267   1.065  2.0946 -1.0415  1.6076
 8386TIP3    H225123   4.934   0.155   0.968 -2.3409  0.8824  0.5813
 8387TIP3   OH225124   5.123   2.639   2.246  0.7207 -0.0424  0.3400
 8387TIP3    H125125   5.133   2.719   2.298  1.1963 -0.0608  0.2836
 8387TIP3    H225126   5.212   2.606   2.236  0.5004 -0.7220  0.5798
 8388TIP3   OH225127   5.158   5.215   0.983 -0.2266  0.1412  0.1673
 8388TIP3    H125128   5.219   5.246   1.050 -0.4122  1.6749 -0.3424
 8388TIP3    H225129   5.179   5.267   0.905 -0.4798 -1.1138 -0.7772
 8389TIP3   OH225130   0.790   3.791   2.416  0.2356 -0.6774 -0.2155
 8389TIP3    H125131   0.763   3.706   2.383  0.8341 -0.3175 -1.7036
 8389TIP3    H225132   0.720   3.851   2.391  0.1418 -0.6004  0.2179
 8390TIP3   OH225133   3.175   4.494   3.684 -0.0095  0.3925 -0.1238
 8390TIP3    H125134   3.142   4.471   3.597  0.3257 -1.3552  0.1601
 8390TIP3    H225135   3.194   4.587   3.679 -2.4406  0.9124 -1.1057
 8391TIP3   OH225136   0.158   2.956   0.790 -0.1797 -0.2494  0.1870
 8391TIP3    H125137   0.186   2.946   0.881 -1.8546  2.0330  1.0442
 8391TIP3    H225138   0.083   2.896   0.781  1.5121 -2.4130 -0.5615
 8392TIP3   OH225139   0.220   4.645   0.564 -0.3538 -0.1011 -0.3722
 8392TIP3    H125140   0.291   4.709   0.570 -0.3028 -0.0853 -1.0341
 8392TIP3    H225141   0.255   4.566   0.605 -0.8704  0.6407  1.6317
 8393TIP3   OH225142   1.135   2.782   2.049  0.1629 -0.1486 -0.2310
 8393TIP3    H125143   1.063   2.732   2.012  0.5206  0.0480 -1.2027
 8393TIP3    H225144   1.213   2.727   2.035  0.5426  0.6099 -1.2177
 8394TIP3   OH225145   2.566   1.893   0.535  0.4231  0.4143 -0.4473
 8394TIP3    H125146   2.500   1.938   0.483 -1.0301  0.1365  1.0952
 8394TIP3    H225147   2.520   1.818   0.573  1.7364 -0.0468  0.2950
 8395TIP3   OH225148   6.302   0.884   1.844 -0.0865 -0.3346  0.1572
 8395TIP3    H125149   6.225   0.926   1.806 -0.4761 -1.5859 -0.4832
 8395TIP3    H225150   6.374   0.945   1.827 -0.8551  0.6667  0.4182
 8396TIP3   OH225151   6.322   1.727   2.970 -0.0948 -0.0419 -0.6843
 8396TIP3    H125152   6.267   1.799   3.000 -1.2130 -0.3156 -2.0016
 8396TIP3    H225153   6.343   1.678   3.049  1.8791  2.4503  0.5246
 8397TIP3   OH225154   5.164   2.548   5.880 -0.2486 -0.0787 -0.1108
 8397TIP3    H125155   5.129   2.637   5.883  0.8740  0.4649 -1.6532
 8397TIP3    H225156   5.257   2.559   5.859 -0.2345 -1.6173 -1.0409
 8398TIP3   OH225157   3.634   1.166   1.810  0.2661  0.0260 -0.3668
 8398TIP3    H125158   3.629   1.077   1.847 -0.4306  0.0259 -0.4553
 8398TIP3    H225159   3.714   1.165   1.758 -0.7807 -1.2157 -2.0613
 8399TIP3   OH225160   4.095   6.477   2.093  1.1547  0.0150  0.2947
 8399TIP3    H125161   4.024   6.472   2.158  1.9113 -1.7407  1.0691
 8399TIP3    H225162   4.053   6.513   2.015 -0.2553  0.3463  1.1578
 8400TIP3   OH225163   2.511   2.315   0.484 -0.0756 -0.0106 -0.0613
 8400TIP3    H125164   2.560   2.354   0.557 -0.4611  2.5721 -1.0873
 8400TIP3    H225165   2.566   2.331   0.407 -1.0425  0.0098 -0.7601
 8401TIP3   OH225166   3.225   3.583   3.060 -0.2297 -0.0164  0.6423
 8401TIP3    H125167   3.266   3.577   2.974  0.3044  2.4191  0.6595
 8401TIP3    H225168   3.132   3.566   3.044 -1.2172  5.4419 -1.5646
 8402TIP3   OH225169   2.517   4.749   1.941 -0.3258  0.2336 -0.3423
 8402TIP3    H125170   2.528   4.835   1.900 -1.0371 -0.0152 -1.0783
 8402TIP3    H225171   2.458   4.702   1.882 -0.9086 -0.3438  0.6790
 8403TIP3   OH225172   2.747   5.944   2.717 -0.2132  0.0111  0.4368
 8403TIP3    H125173   2.782   5.938   2.806  1.4589  0.3838 -0.1710
 8403TIP3    H225174   2.816   5.909   2.661 -1.7298 -1.3753 -0.6476
 8404TIP3   OH225175   3.779   3.946   1.186  0.1444 -0.6493  0.2421
 8404TIP3    H125176   3.798   3.880   1.118  0.7722 -0.5843  0.3435
 8404TIP3    H225177   3.865   3.981   1.209 -0.2358  0.5948 -0.1949
 8405TIP3   OH225178   5.752   3.204   3.583  0.2160 -0.2796 -0.6576
 8405TIP3    H125179   5.782   3.187   3.494  0.4026  1.0257 -0.8659
 8405TIP3    H225180   5.764   3.299   3.595 -1.8998 -0.0265 -0.0278
 8406TIP3   OH225181   1.216   3.336   2.638 -1.0273 -0.9394 -0.1985
 8406TIP3    H125182   1.218   3.381   2.554  0.5973 -0.4742  0.0438
 8406TIP3    H225183   1.151   3.267   2.627 -2.0339  0.1136 -1.2844
 8407TIP3   OH225184   0.665   5.269   2.027 -0.4010 -0.8092 -0.6437
 8407TIP3    H125185   0.623   5.185   2.009  1.8809 -2.2828  0.4329
 8407TIP3    H225186   0.734   5.248   2.090  2.2944  1.3082 -2.6549
 8408TIP3   OH225187   0.080   0.768   4.444  0.1860 -0.3669  0.4412
 8408TIP3    H125188   0.058   0.855   4.410  1.4046  0.2597  1.1888
 8408TIP3    H225189   0.051   0.770   4.536 -1.1246 -1.2902  0.0790
 8409TIP3   OH225190   5.048   0.104   0.665 -0.2292  0.0162 -0.3488
 8409TIP3    H125191   5.110   0.171   0.694 -0.8969  0.9287 -0.9605
 8409TIP3    H225192   4.966   0.127   0.710 -0.3197 -0.7404 -0.1192
 8410TIP3   OH225193   1.008   2.876   5.392  0.6510  0.1582  0.2037
 8410TIP3    H125194   0.992   2.930   5.315 -2.0934  0.9959  1.2361
 8410TIP3    H225195   1.022   2.939   5.463  0.0800 -0.5160  0.9345
 8411TIP3   OH225196   1.112   3.308   5.655 -0.2670 -0.6013  0.4677
 8411TIP3    H125197   1.026   3.346   5.674 -0.2447 -1.1384  1.7509
 8411TIP3    H225198   1.167   3.338   5.727  0.7530  0.0758 -0.5532
 8412TIP3   OH225199   6.764   3.657   3.002 -0.0464 -0.0022  0.5289
 8412TIP3    H125200   6.817   3.640   2.923  0.7520  0.0276  1.0450
 8412TIP3    H225201   6.795   3.742   3.033  0.3034 -0.4256  1.3817
 8413TIP3   OH225202   6.361   5.540   5.549 -0.2748  0.2180 -0.0587
 8413TIP3    H125203   6.369   5.622   5.598  1.8884  1.1341 -1.8036
 8413TIP3    H225204   6.405   5.556   5.466 -2.1423 -1.8818 -1.5960
 8414TIP3   OH225205   7.070   1.423   0.965  0.3058 -0.4351 -0.5933
 8414TIP3    H125206   7.006   1.440   1.034 -1.7144 -0.8350 -2.2670
 8414TIP3    H225207   7.131   1.360   1.003 -0.5284 -0.3631  0.9328
 8415TIP3   OH225208   3.231   0.802   0.615 -0.4120 -0.3197 -0.4967
 8415TIP3    H125209   3.251   0.805   0.708 -0.5770 -2.1467 -0.3635
 8415TIP3    H225210   3.181   0.721   0.604 -1.3095  0.3879 -2.0126
 8416TIP3   OH225211   5.408   4.863   0.045 -0.2821  0.5117 -0.2069
 8416TIP3    H125212   5.460   4.784   0.058  0.8285  1.3774  0.7919
 8416TIP3    H225213   5.371   4.854  -0.043 -1.2420 -1.7133  0.3545
 8417TIP3   OH225214   3.636   0.704   0.076 -0.4001  0.2925  0.1580
 8417TIP3    H125215   3.727   0.721   0.052 -0.1765  0.2346  0.9291
 8417TIP3    H225216   3.603   0.647   0.007  1.1740 -2.5798  1.5832
 8418TIP3   OH225217   0.654   6.171   2.046 -0.0108 -0.4406  0.0718
 8418TIP3    H125218   0.676   6.091   2.093 -0.6477  0.0423  1.2410
 8418TIP3    H225219   0.681   6.242   2.105  1.4032  0.2461 -1.3269
 8419TIP3   OH225220   6.175   4.351   0.057 -0.0211  0.3959  0.2245
 8419TIP3    H125221   6.235   4.396   0.116 -0.8512  0.6538  0.8801
 8419TIP3    H225222   6.119   4.421   0.022 -1.3172 -0.1140  1.2471
 8420TIP3   OH225223   2.962   5.250   1.796 -0.1789  0.4870 -0.3758
 8420TIP3    H125224   2.903   5.293   1.734 -1.1522 -0.5872 -0.2430
 8420TIP3    H225225   2.939   5.287   1.881 -0.0536  0.6979 -0.4333
 8421TIP3   OH225226   1.792   0.319   4.599 -0.4619  0.7581  0.2261
 8421TIP3    H125227   1.771   0.405   4.636 -0.2859 -0.0802  2.4828
 8421TIP3    H225228   1.708   0.275   4.591 -0.3698  0.2914  1.4973
 8422TIP3   OH225229   0.842   4.374   3.423 -0.1495  0.0526  0.4538
 8422TIP3    H125230   0.877   4.389   3.511 -0.3405 -2.6440  1.0674
 8422TIP3    H225231   0.894   4.302   3.387  0.7806  1.8921 -2.2339
 8423TIP3   OH225232   4.135   1.512   1.628 -0.3910  0.1597  0.0261
 8423TIP3    H125233   4.121   1.589   1.684 -1.4818 -0.3565  0.4943
 8423TIP3    H225234   4.064   1.452   1.651  1.5118 -1.8359  1.0367
 8424TIP3   OH225235   0.473   6.477   2.142  0.9418 -0.0294  0.4698
 8424TIP3    H125236   0.468   6.493   2.236 -0.4256  1.3427  0.2016
 8424TIP3    H225237   0.394   6.428   2.121  0.4759  0.9394 -0.1575
 8425TIP3   OH225238   0.050   1.530   1.527  0.1906  0.2911 -0.2164
 8425TIP3    H125239   0.041   1.546   1.433  2.9848  0.7848 -0.4960
 8425TIP3    H225240   0.033   1.436   1.538 -1.3160  0.4486 -0.9869
 8426TIP3   OH225241   4.434   0.238   3.146 -0.9278  0.5490 -0.6442
 8426TIP3    H125242   4.387   0.255   3.228 -1.0548 -1.2251 -0.3113
 8426TIP3    H225243   4.486   0.317   3.132 -2.0496  1.4994  0.3414
 8427TIP3   OH225244   4.011   0.813   0.515 -0.2453 -0.0178 -0.1779
 8427TIP3    H125245   4.015   0.884   0.451 -1.4836  0.4091  0.1857
 8427TIP3    H225246   3.941   0.756   0.482  1.3253 -1.6018 -0.9626
 8428TIP3   OH225247   6.101   6.798   4.260 -0.1544  0.6233  0.0061
 8428TIP3    H125248   6.158   6.749   4.318 -0.6803 -1.0021 -0.8017
 8428TIP3    H225249   6.013   6.785   4.295 -0.3536  0.5730 -0.4961
 8429TIP3   OH225250   0.637   6.167   2.880  0.3749  0.1750 -0.4008
 8429TIP3    H125251   0.723   6.142   2.848  0.1958  1.3896 -1.9695
 8429TIP3    H225252   0.654   6.208   2.965  1.3215  0.2527 -0.6180
 8430TIP3   OH225253   3.432   6.573   3.397  0.0782  0.3995  0.2110
 8430TIP3    H125254   3.372   6.605   3.464 -0.5330  1.3651 -0.7737
 8430TIP3    H225255   3.507   6.539   3.447  0.0314  1.8787  1.3687
 8431TIP3   OH225256   4.489   2.385   2.862  0.2255 -0.1277  0.4060
 8431TIP3    H125257   4.583   2.378   2.881  0.0846 -2.4155  0.5941
 8431TIP3    H225258   4.453   2.433   2.937  1.2094  0.7196  0.3603
 8432TIP3   OH225259   5.720   6.552   3.027  0.4774 -0.1353  0.3086
 8432TIP3    H125260   5.708   6.471   3.076 -0.6185  0.6572  1.4294
 8432TIP3    H225261   5.706   6.527   2.935 -0.0255 -1.1771  0.6487
 8433TIP3   OH225262   2.149   1.438   0.682  0.0438  0.0569 -0.5211
 8433TIP3    H125263   2.149   1.383   0.760 -1.3042  0.4015 -0.2357
 8433TIP3    H225264   2.165   1.378   0.609 -1.4496 -0.7526 -0.2251
 8434TIP3   OH225265   5.954   3.834   0.198  0.3926  0.9751 -0.0488
 8434TIP3    H125266   5.951   3.800   0.287  2.1197  0.8135 -0.0295
 8434TIP3    H225267   5.865   3.822   0.165 -0.0303  0.1442  1.3132
 8435TIP3   OH225268   3.446   2.017   0.697  0.0212  0.1143 -0.0480
 8435TIP3    H125269   3.536   2.033   0.669  0.0808 -2.6388 -1.8849
 8435TIP3    H225270   3.455   1.963   0.775 -0.0112 -0.2238 -0.2749
 8436TIP3   OH225271   1.361   3.865   3.170 -0.1698 -0.5554 -0.9772
 8436TIP3    H125272   1.323   3.917   3.099 -0.9452 -0.3555 -0.4259
 8436TIP3    H225273   1.306   3.788   3.176  0.4452 -1.0182 -1.1907
 8437TIP3   OH225274   2.934   0.991   5.795 -0.0867  0.0285  0.1930
 8437TIP3    H125275   2.929   0.970   5.702 -1.1570  0.0096  0.2445
 8437TIP3    H225276   2.939   0.905   5.839 -0.7795 -0.0062  0.2104
 8438TIP3   OH225277   0.442   0.371   5.590  0.0651 -0.0663  0.3429
 8438TIP3    H125278   0.400   0.457   5.582 -1.0845 -0.5851  0.6266
 8438TIP3    H225279   0.387   0.313   5.538  0.5960 -0.7162  0.4970
 8439TIP3   OH225280   6.677   2.271   5.850  0.3433 -0.2347 -0.2357
 8439TIP3    H125281   6.596   2.253   5.897 -0.3391  2.7918 -0.0381
 8439TIP3    H225282   6.660   2.242   5.760 -0.0312 -1.8164  0.3220
 8440TIP3   OH225283   4.094   4.981   3.154  0.1496  0.5019  0.3741
 8440TIP3    H125284   4.007   5.015   3.173 -0.1322  0.2291 -0.3667
 8440TIP3    H225285   4.078   4.907   3.096  0.9094  0.9224 -0.4022
 8441TIP3   OH225286   2.016   6.601   5.481 -0.4220  0.6459  0.2436
 8441TIP3    H125287   2.103   6.640   5.491  0.0308  0.0383 -1.0619
 8441TIP3    H225288   2.007   6.542   5.556  1.2692 -1.0049 -0.7813
 8442TIP3   OH225289   1.022   2.158   5.359  0.2769 -0.1939 -0.2913
 8442TIP3    H125290   0.941   2.174   5.408 -0.3602  0.0108 -1.3849
 8442TIP3    H225291   1.089   2.205   5.408 -0.3126 -0.1277  0.4721
 8443TIP3   OH225292   2.147   1.373   4.252 -0.0257 -0.5397 -0.0441
 8443TIP3    H125293   2.150   1.463   4.285 -0.5605 -0.8922  1.0047
 8443TIP3    H225294   2.059   1.363   4.217 -0.4573 -1.0875  1.1509
 8444TIP3   OH225295   4.937   5.453   4.517 -0.2289 -0.1427  0.3466
 8444TIP3    H125296   4.990   5.389   4.469 -1.6041  0.2528 -1.8396
 8444TIP3    H225297   4.976   5.538   4.494 -1.3660  0.1063 -0.7929
 8445TIP3   OH225298   1.926   1.670   2.890 -0.0169  0.7108 -0.3291
 8445TIP3    H125299   1.867   1.746   2.886  1.0379  1.6535  0.9377
 8445TIP3    H225300   2.012   1.706   2.869  0.2955 -0.4304 -1.0677
 8446TIP3   OH225301   6.982   2.736   5.729  0.1361  0.1236  0.1234
 8446TIP3    H125302   6.964   2.651   5.769 -2.0258  0.5792  0.2145
 8446TIP3    H225303   6.899   2.783   5.732  1.2998  2.3279  0.2232
 8447TIP3   OH225304   5.060   4.887   5.171 -0.1832 -0.3132 -0.0481
 8447TIP3    H125305   5.038   4.858   5.259 -0.2800 -0.0432  0.0176
 8447TIP3    H225306   5.104   4.972   5.184 -1.2674  0.3098 -0.3302
 8448TIP3   OH225307   4.859   5.426   2.115  0.4167  0.0108 -0.0739
 8448TIP3    H125308   4.915   5.352   2.138  1.0699  0.4772 -0.1524
 8448TIP3    H225309   4.910   5.477   2.052  1.0806  1.9395  1.9044
 8449TIP3   OH225310   3.323   1.894   5.243  0.2562 -0.2318  0.3189
 8449TIP3    H125311   3.347   1.983   5.271 -0.1035 -0.2320  0.6280
 8449TIP3    H225312   3.254   1.868   5.303  0.2528 -0.6644  0.1277
 8450TIP3   OH225313   4.603   4.077   1.202 -0.3289 -0.0442 -0.7024
 8450TIP3    H125314   4.634   4.157   1.159 -1.3036  1.0939  0.6413
 8450TIP3    H225315   4.524   4.053   1.153  0.0661 -0.3078 -1.2224
 8451TIP3   OH225316   5.468   6.626   3.123 -0.2284 -0.1184  0.3138
 8451TIP3    H125317   5.468   6.565   3.049 -1.4959  0.8312 -0.5358
 8451TIP3    H225318   5.558   6.659   3.128 -0.1093 -0.2327 -0.7993
 8452TIP3   OH225319   4.322   6.564   5.746  0.4934 -0.3067  0.4311
 8452TIP3    H125320   4.254   6.620   5.709  0.2569 -0.4744  0.6065
 8452TIP3    H225321   4.373   6.622   5.803 -0.0058 -0.3634  0.9353
 8453TIP3   OH225322   5.579   6.471   2.200 -0.2424 -0.1847 -0.1134
 8453TIP3    H125323   5.569   6.561   2.230 -2.2817 -0.1639 -0.6998
 8453TIP3    H225324   5.626   6.427   2.271  0.1886  1.1710  0.4701
 8454TIP3   OH225325   1.080   5.249   2.948 -0.4121  0.1306  0.2705
 8454TIP3    H125326   1.124   5.327   2.915 -0.7798 -0.5854 -2.1883
 8454TIP3    H225327   1.150   5.187   2.965 -0.2054  0.5326  0.9100
 8455TIP3   OH225328   3.844   6.530   0.296 -0.1031  0.7765 -1.0819
 8455TIP3    H125329   3.920   6.528   0.354 -0.7006  3.6925 -0.0210
 8455TIP3    H225330   3.796   6.450   0.317  0.9522  0.5480  0.7003
 8456TIP3   OH225331   2.693   6.503   5.187 -0.0452  0.2858  0.5226
 8456TIP3    H125332   2.669   6.596   5.179  0.2544  0.3420  0.2741
 8456TIP3    H225333   2.761   6.502   5.254 -0.5173  0.1630  1.0038
 8457TIP3   OH225334   3.697   6.105   0.710  0.0223  0.0758 -0.7031
 8457TIP3    H125335   3.614   6.061   0.728 -0.2953  1.0246  0.2966
 8457TIP3    H225336   3.700   6.177   0.774  1.3445  0.4054 -1.1048
 8458TIP3   OH225337   0.833   2.234   0.517 -0.1595 -0.4074  0.1311
 8458TIP3    H125338   0.798   2.320   0.539  2.3562 -0.0211  3.2373
 8458TIP3    H225339   0.863   2.243   0.426 -1.6279  1.3258 -0.2363
 8459TIP3   OH225340   3.600   4.377   1.749  0.2850 -0.2101  0.0312
 8459TIP3    H125341   3.572   4.339   1.832  1.6427  1.6386  1.4296
 8459TIP3    H225342   3.529   4.357   1.688 -1.1775 -0.8575  1.8586
 8460TIP3   OH225343   3.439   0.347   1.471  0.3218 -0.2777  0.0243
 8460TIP3    H125344   3.412   0.266   1.426 -3.5638  0.5781  0.4703
 8460TIP3    H225345   3.436   0.414   1.403  0.2492  0.0458  0.3473
 8461TIP3   OH225346   7.061   1.510   4.974 -0.4809 -0.1669 -0.2140
 8461TIP3    H125347   7.111   1.430   4.955  1.2584  0.8469 -0.1139
 8461TIP3    H225348   7.014   1.529   4.893 -1.2595 -1.5095 -0.1027
 8462TIP3   OH225349   0.222   4.422   0.071  0.6141  0.1767 -0.2607
 8462TIP3    H125350   0.267   4.507   0.071 -2.0940  1.7488 -1.4763
 8462TIP3    H225351   0.218   4.398   0.164 -1.3664  3.1125  0.5769
 8463TIP3   OH225352   2.141   3.605   1.473 -0.3873  0.1286 -0.1130
 8463TIP3    H125353   2.060   3.579   1.516 -0.1637 -1.5521 -0.6423
 8463TIP3    H225354   2.114   3.667   1.406 -1.2382 -0.4265 -0.2973
 8464TIP3   OH225355   6.697   1.273   2.307 -0.2044 -0.2702  0.0017
 8464TIP3    H125356   6.761   1.209   2.276 -0.1211  0.5261 -1.5982
 8464TIP3    H225357   6.647   1.296   2.229 -0.0683  1.7867  0.4452
 8465TIP3   OH225358   0.962   5.961   0.156 -0.1669 -0.0362 -0.4396
 8465TIP3    H125359   0.964   6.051   0.190 -2.2192 -0.0748 -0.0760
 8465TIP3    H225360   1.033   5.917   0.201 -0.9495  0.6993  1.6401
 8466TIP3   OH225361   6.575   3.215   1.821 -0.5868  0.5178 -0.0964
 8466TIP3    H125362   6.539   3.163   1.750  1.4587 -1.0450 -0.1000
 8466TIP3    H225363   6.560   3.162   1.900 -0.6934  1.0948  0.2786
 8467TIP3   OH225364   2.181   4.354   5.843  0.0038 -0.4518 -0.4495
 8467TIP3    H125365   2.219   4.348   5.931  1.0593  0.1583 -0.8465
 8467TIP3    H225366   2.131   4.273   5.833  1.3762 -1.3949  0.0265
 8468TIP3   OH225367   1.245   4.788   2.778  0.0153 -0.3597 -0.1888
 8468TIP3    H125368   1.270   4.855   2.715  0.5619 -0.9764 -0.6420
 8468TIP3    H225369   1.268   4.705   2.735  0.3299 -0.7907  0.7847
 8469TIP3   OH225370   4.335   6.203   4.241 -0.6372 -0.4142  0.1151
 8469TIP3    H125371   4.400   6.133   4.235 -1.1724 -0.9554  0.4490
 8469TIP3    H225372   4.266   6.167   4.297 -1.0712  0.2674  0.0366
 8470TIP3   OH225373   1.244   6.247   2.191  0.7473  0.2196 -0.2051
 8470TIP3    H125374   1.323   6.293   2.219  2.2003 -0.9833 -2.0769
 8470TIP3    H225375   1.172   6.293   2.234  2.5180  0.5070  2.7102
 8471TIP3   OH225376   3.594   2.901   2.364  0.0078  0.4939 -0.0379
 8471TIP3    H125377   3.573   2.831   2.425 -4.4698  0.8407 -0.8361
 8471TIP3    H225378   3.650   2.861   2.299 -0.5578 -1.7343  0.7706
 8472TIP3   OH225379   3.884   0.640   1.372  0.0585 -0.1039 -0.6150
 8472TIP3    H125380   3.882   0.665   1.280  0.9914  0.4717 -0.4869
 8472TIP3    H225381   3.805   0.587   1.384 -1.3233  1.7194 -1.1894
 8473TIP3   OH225382   3.772   2.352   3.390  0.8948  0.0271  0.1246
 8473TIP3    H125383   3.737   2.375   3.476 -1.9371 -1.3698 -0.5422
 8473TIP3    H225384   3.805   2.435   3.355 -0.0472  1.0909  1.6389
 8474TIP3   OH225385   6.068   4.590   5.113 -0.4599  0.2851 -0.1165
 8474TIP3    H125386   6.091   4.675   5.077  1.1554 -0.4409 -0.8998
 8474TIP3    H225387   6.146   4.561   5.159 -1.1696 -0.5449  0.5908
 8475TIP3   OH225388   1.750   5.138   3.035 -0.0992  0.3769  0.1431
 8475TIP3    H125389   1.681   5.082   2.999  0.9913 -1.5741  0.8926
 8475TIP3    H225390   1.728   5.145   3.128  0.9994 -0.8333  0.5325
 8476TIP3   OH225391   0.788   0.147   5.625 -0.4640 -0.2465  0.5676
 8476TIP3    H125392   0.822   0.087   5.558 -0.2200 -1.5333  1.7901
 8476TIP3    H225393   0.805   0.102   5.708 -1.3073  1.0278  1.4692
 8477TIP3   OH225394   1.962   4.569   4.002  0.2867 -0.4271 -0.1366
 8477TIP3    H125395   1.880   4.573   4.051 -0.9232 -0.7190 -2.0290
 8477TIP3    H225396   2.018   4.634   4.045 -1.1361  0.2133  0.8516
 8478TIP3   OH225397   3.155   5.969   1.806  0.3181  0.9762 -0.2135
 8478TIP3    H125398   3.117   6.057   1.814 -0.9251  0.6916 -2.2487
 8478TIP3    H225399   3.102   5.926   1.739  1.9039 -0.8004 -0.4205
 8479TIP3   OH225400   7.105   4.707   5.643  0.5156 -0.7361 -0.5310
 8479TIP3    H125401   7.046   4.642   5.605 -2.0013  1.6073 -0.9137
 8479TIP3    H225402   7.080   4.789   5.602  1.9713  0.8814  1.5968
 8480TIP3   OH225403   3.128   5.291   4.647  0.0334  0.2583 -0.1064
 8480TIP3    H125404   3.222   5.303   4.638  0.1175 -0.3681 -0.1558
 8480TIP3    H225405   3.116   5.196   4.647 -0.5404  0.3226  0.4850
 8481TIP3   OH225406   6.718   2.912   5.489 -0.1665 -0.8097  0.2529
 8481TIP3    H125407   6.776   2.985   5.468 -0.5675 -0.6815 -0.4368
 8481TIP3    H225408   6.720   2.856   5.411 -3.8213  1.0591 -1.4413
 8482TIP3   OH225409   1.430   0.729   1.017  0.1904  0.0858  0.0777
 8482TIP3    H125410   1.366   0.724   0.946 -0.3142  0.9339  0.4528
 8482TIP3    H225411   1.466   0.641   1.023 -1.7328 -0.7214  0.5651
 8483TIP3   OH225412   2.870   2.955   3.320 -0.2852  0.7068 -0.3445
 8483TIP3    H125413   2.918   2.973   3.402 -1.3774  0.5631  0.3406
 8483TIP3    H225414   2.897   2.866   3.297 -1.3180  0.0478  0.8495
 8484TIP3   OH225415   6.662   3.697   4.640  0.2699 -0.0826  0.2953
 8484TIP3    H125416   6.594   3.647   4.685 -0.6846 -0.4816 -1.4925
 8484TIP3    H225417   6.688   3.641   4.567  1.6916  0.5833  0.2481
 8485TIP3   OH225418   5.675   0.560   2.949 -0.6738  0.4755  0.5846
 8485TIP3    H125419   5.740   0.537   2.882  0.4789  0.8437  1.5393
 8485TIP3    H225420   5.635   0.477   2.974 -0.1903  0.1704  0.3546
 8486TIP3   OH225421   0.411   4.077   3.457 -0.1832 -0.3349 -0.3082
 8486TIP3    H125422   0.445   4.165   3.439 -0.7626  0.0573  0.3995
 8486TIP3    H225423   0.317   4.084   3.440 -0.6067 -0.1925  1.7819
 8487TIP3   OH225424   5.633   0.875   2.412 -0.1220 -0.0137  0.0467
 8487TIP3    H125425   5.627   0.870   2.507 -0.4492  3.1556  0.3071
 8487TIP3    H225426   5.727   0.876   2.394 -0.0557 -1.1536  0.2341
 8488TIP3   OH225427   4.825   5.213   1.199  0.3214  0.2270 -0.1071
 8488TIP3    H125428   4.814   5.304   1.225 -0.5377  0.2144 -0.4139
 8488TIP3    H225429   4.844   5.217   1.105 -0.5406  0.0462 -0.2922
 8489TIP3   OH225430   0.278   1.558   5.746 -0.5303  0.0764 -0.0080
 8489TIP3    H125431   0.209   1.625   5.755 -0.0188  0.5199  0.7607
 8489TIP3    H225432   0.251   1.489   5.806 -1.1935 -0.5546 -0.9913
 8490TIP3   OH225433   1.367   1.411   3.983  0.0024  0.3815 -0.1850
 8490TIP3    H125434   1.433   1.383   4.046 -0.0692  3.2992  1.3531
 8490TIP3    H225435   1.351   1.334   3.928  3.6125 -0.8489  0.2589
 8491TIP3   OH225436   5.594   5.401   4.105 -0.0059 -0.0003  0.2973
 8491TIP3    H125437   5.523   5.465   4.113  0.0508 -0.0594  1.4416
 8491TIP3    H225438   5.663   5.447   4.058 -0.2511  0.5453  0.4560
 8492TIP3   OH225439   0.943   0.468   3.349 -0.0690 -0.0333  0.8438
 8492TIP3    H125440   0.873   0.441   3.407  0.7263 -1.3697  1.2152
 8492TIP3    H225441   1.015   0.407   3.367  0.8463  0.6850 -0.2166
 8493TIP3   OH225442   5.254   4.500   5.166 -0.0131 -0.2085  0.0379
 8493TIP3    H125443   5.275   4.505   5.073 -0.1713 -1.8606 -0.1216
 8493TIP3    H225444   5.161   4.521   5.170 -0.1833 -0.8380 -0.2987
 8494TIP3   OH225445   4.549   3.638   4.063  0.2086  0.2975  0.6096
 8494TIP3    H125446   4.488   3.710   4.049  0.1499  0.2469  0.6022
 8494TIP3    H225447   4.494   3.567   4.097  0.4719  0.7063  1.9863
 8495TIP3   OH225448   4.970   0.701   0.507  0.6683  0.2314 -0.1690
 8495TIP3    H125449   5.026   0.648   0.451  0.9562  0.8738 -0.5096
 8495TIP3    H225450   4.948   0.777   0.453 -1.3022 -0.4256 -0.3837
 8496TIP3   OH225451   4.036   4.511   3.103  0.0292 -0.1715 -0.5482
 8496TIP3    H125452   3.951   4.553   3.091 -0.2017 -0.5538 -0.2449
 8496TIP3    H225453   4.083   4.569   3.163  0.8436  1.2616 -2.4554
 8497TIP3   OH225454   5.693   4.876   3.765  0.7187  0.1976  0.0664
 8497TIP3    H125455   5.777   4.867   3.720  0.5831  0.0808 -0.1695
 8497TIP3    H225456   5.679   4.971   3.770  1.3173  0.2498  0.9759
 8498TIP3   OH225457   4.963   5.492   2.758 -0.4301 -0.0126  0.2804
 8498TIP3    H125458   4.870   5.515   2.760 -0.3248  0.4721 -0.0966
 8498TIP3    H225459   4.978   5.458   2.669 -0.4322 -0.9044  0.6160
 8499TIP3   OH225460   5.397   3.644   2.635  0.3467  0.0112 -0.4911
 8499TIP3    H125461   5.418   3.634   2.542  0.5731 -0.3111 -0.4095
 8499TIP3    H225462   5.307   3.612   2.642  0.5832 -0.6700 -0.4777
 8500TIP3   OH225463   6.489   2.326   0.950  0.0326  0.1322  0.5112
 8500TIP3    H125464   6.512   2.278   0.870 -0.1132  0.7955  0.0579
 8500TIP3    H225465   6.572   2.361   0.981 -0.1609  1.6002 -0.5117
 8501TIP3   OH225466   5.221   5.479   2.688 -0.0092 -0.6693 -0.1561
 8501TIP3    H125467   5.240   5.427   2.610 -2.0776 -1.6075 -0.1022
 8501TIP3    H225468   5.218   5.416   2.760 -0.8924 -0.2668  0.1847
 8502TIP3   OH225469   2.513   3.481   5.644 -0.1374  0.2274  0.0420
 8502TIP3    H125470   2.599   3.516   5.666 -0.1612  0.3739 -0.0977
 8502TIP3    H225471   2.477   3.452   5.728  0.7059 -1.3421 -0.0929
 8503TIP3   OH225472   3.743   3.924   5.546  0.1531  0.0721  0.6256
 8503TIP3    H125473   3.827   3.917   5.591 -0.9304 -1.5082  2.5742
 8503TIP3    H225474   3.704   3.836   5.554 -1.4353  0.5931 -0.7500
 8504TIP3   OH225475   3.545   5.264   0.537 -0.4387 -0.3857  0.4438
 8504TIP3    H125476   3.472   5.202   0.552  0.0398 -0.6841  1.6259
 8504TIP3    H225477   3.507   5.331   0.480 -1.9826  0.0487  1.8955
 8505TIP3   OH225478   2.471   5.716   3.503  0.2577 -0.7373  0.0473
 8505TIP3    H125479   2.523   5.777   3.554 -0.6114  0.3545 -0.3112
 8505TIP3    H225480   2.488   5.630   3.541 -0.0352 -0.0149  1.8838
 8506TIP3   OH225481   5.242   5.714   4.110 -0.1477 -0.3134 -0.0916
 8506TIP3    H125482   5.268   5.748   4.195 -0.5428 -0.8343  0.2425
 8506TIP3    H225483   5.147   5.703   4.117 -0.3475  0.6421 -0.9603
 8507TIP3   OH225484   5.831   3.184   3.327 -0.2257  0.5740  0.6961
 8507TIP3    H125485   5.904   3.158   3.271 -0.2259 -0.6289  1.2169
 8507TIP3    H225486   5.753   3.159   3.278 -0.4679  3.8597 -0.8718
 8508TIP3   OH225487   6.388   5.601   3.091 -0.0905 -0.6428 -0.1797
 8508TIP3    H125488   6.442   5.599   3.170 -0.7467 -1.7694  0.2620
 8508TIP3    H225489   6.416   5.680   3.045  1.0434 -0.5363  0.6500
 8509TIP3   OH225490   5.529   3.756   0.448 -0.1401  0.3075  0.2970
 8509TIP3    H125491   5.448   3.723   0.484  0.3814 -1.2106  0.1630
 8509TIP3    H225492   5.502   3.815   0.378 -1.1307  2.1831  2.1818
 8510TIP3   OH225493   0.271   5.061   4.744  0.5809 -0.8329 -0.4738
 8510TIP3    H125494   0.225   5.039   4.663  0.1325 -0.7110 -0.2608
 8510TIP3    H225495   0.291   4.977   4.785 -1.3467 -0.9040  0.4632
 8511TIP3   OH225496   6.711   2.080   3.571 -0.0403 -0.3552 -0.3211
 8511TIP3    H125497   6.637   2.049   3.518  1.2381 -0.2449 -2.2522
 8511TIP3    H225498   6.717   2.016   3.643 -0.1709 -2.0847 -1.7763
 8512TIP3   OH225499   1.645   4.825   0.458 -0.1096  0.0737 -0.1665
 8512TIP3    H125500   1.550   4.829   0.461 -0.2200 -1.2265 -1.2007
 8512TIP3    H225501   1.667   4.748   0.510  0.2633 -0.4887 -1.1299
 8513TIP3   OH225502   4.042   4.086   4.862  0.5588 -0.3743 -0.0339
 8513TIP3    H125503   4.047   4.076   4.766  1.0685 -0.6844  0.0207
 8513TIP3    H225504   3.989   4.011   4.890  0.7815 -0.5342 -0.0346
 8514TIP3   OH225505   3.030   0.221   5.420 -0.7960 -0.1828 -0.0718
 8514TIP3    H125506   3.108   0.184   5.378 -0.9061 -2.3301  1.4295
 8514TIP3    H225507   3.036   0.315   5.403  2.3618 -0.1943  0.3183
 8515TIP3   OH225508   6.419   0.995   5.139  0.2499  0.3316  0.3523
 8515TIP3    H125509   6.412   0.901   5.124  2.2089  0.3424 -0.9107
 8515TIP3    H225510   6.462   1.003   5.224  0.5649  0.0612  0.2222
 8516TIP3   OH225511   1.927   6.216   5.441 -0.4481  0.2069 -0.4315
 8516TIP3    H125512   1.958   6.225   5.350  1.3494  0.0885  0.1278
 8516TIP3    H225513   2.004   6.237   5.494 -2.0084  2.4339  1.1370
 8517TIP3   OH225514   0.324   0.686   0.561  0.5779  0.3826 -0.3325
 8517TIP3    H125515   0.344   0.599   0.528  1.7097  0.1628  0.8747
 8517TIP3    H225516   0.390   0.743   0.521 -0.9292  0.9729 -2.1579
 8518TIP3   OH225517   3.101   3.075   1.573 -0.4490 -0.6441  0.4055
 8518TIP3    H125518   3.079   2.982   1.579  2.2290 -1.4194 -0.5582
 8518TIP3    H225519   3.126   3.088   1.482  1.0669  0.5592  0.9599
 8519TIP3   OH225520   6.330   6.297   5.802 -0.2045  0.8387 -0.2407
 8519TIP3    H125521   6.287   6.363   5.747 -1.5476  0.2408  0.0652
 8519TIP3    H225522   6.261   6.264   5.859  0.5292 -0.5725 -0.1294
 8520TIP3   OH225523   2.224   3.720   3.529 -0.2342 -0.0490 -0.1711
 8520TIP3    H125524   2.210   3.770   3.449  1.5739  0.2639 -0.3251
 8520TIP3    H225525   2.169   3.642   3.517 -0.9307  0.5564 -1.1559
 8521TIP3   OH225526   4.290   0.445   3.909  0.2093  0.0994 -0.1414
 8521TIP3    H125527   4.248   0.531   3.917  2.2130  0.9950  1.8281
 8521TIP3    H225528   4.268   0.400   3.991 -1.0894 -1.4774 -1.2807
 8522TIP3   OH225529   5.597   5.865   1.624  0.2233  0.9482  0.3701
 8522TIP3    H125530   5.660   5.797   1.646  0.1302  0.5740 -0.4640
 8522TIP3    H225531   5.650   5.944   1.612  0.5754  0.6008 -0.4933
 8523TIP3   OH225532   2.207   0.737   0.290  0.8367  0.1508  0.3670
 8523TIP3    H125533   2.233   0.780   0.372  2.1192  0.4848 -0.2003
 8523TIP3    H225534   2.277   0.757   0.228 -0.3249  0.2873 -0.9642
 8524TIP3   OH225535   7.070   5.867   4.382  0.3537 -0.6154  0.1953
 8524TIP3    H125536   7.157   5.888   4.349 -0.1548 -0.7419 -1.2861
 8524TIP3    H225537   7.082   5.857   4.477  1.9847 -0.8399 -0.0070
 8525TIP3   OH225538   4.998   0.126   3.180  0.1010  0.0584  0.0422
 8525TIP3    H125539   4.957   0.132   3.266 -0.7768 -0.0172 -0.3625
 8525TIP3    H225540   4.926   0.133   3.118  0.7767  0.7014 -0.7072
 8526TIP3   OH225541   1.395   6.745   4.940  0.4292 -0.3194  0.1334
 8526TIP3    H125542   1.386   6.831   4.899 -1.5690 -1.0410 -1.0977
 8526TIP3    H225543   1.336   6.748   5.016 -1.2452 -1.1782 -1.0570
 8527TIP3   OH225544   2.955   4.639   3.318  0.5562 -0.4872 -0.2788
 8527TIP3    H125545   3.009   4.647   3.239  0.7029 -0.9142 -0.2255
 8527TIP3    H225546   2.890   4.571   3.296  1.3975 -1.5541  0.3991
 8528TIP3   OH225547   0.851   6.167   3.173  0.5498 -0.3437 -0.7774
 8528TIP3    H125548   0.867   6.165   3.267  0.3431 -1.4980 -0.7534
 8528TIP3    H225549   0.799   6.089   3.156  0.5219 -0.1069 -1.8420
 8529TIP3   OH225550   1.534   4.600   1.669  0.2917 -0.1930 -0.3910
 8529TIP3    H125551   1.512   4.655   1.744  0.8762 -0.1570 -0.2419
 8529TIP3    H225552   1.487   4.641   1.595  2.2660  1.7261 -0.6963
 8530TIP3   OH225553   5.369   0.102   1.053 -0.3097  0.0380  0.1907
 8530TIP3    H125554   5.403   0.152   0.979  1.4497 -0.8023  0.4018
 8530TIP3    H225555   5.293   0.055   1.016 -0.9981  1.5440 -0.4101
 8531TIP3   OH225556   0.631   1.845   3.573  0.0684 -0.6953  0.2528
 8531TIP3    H125557   0.635   1.934   3.607 -0.5887 -1.0420  1.2918
 8531TIP3    H225558   0.553   1.808   3.613  0.4532 -1.8129  0.0042
 8532TIP3   OH225559   6.219   0.951   3.786 -0.4308  0.0274  0.7057
 8532TIP3    H125560   6.256   0.871   3.823  0.4806  1.7692  3.8997
 8532TIP3    H225561   6.134   0.961   3.829 -0.5593  0.7593  0.3090
 8533TIP3   OH225562   2.569   5.415   1.861  0.4514 -0.2589  0.3461
 8533TIP3    H125563   2.640   5.435   1.923  0.7622 -0.3258  0.0199
 8533TIP3    H225564   2.574   5.486   1.797  2.3898 -1.9480 -1.5457
 8534TIP3   OH225565   3.052   5.518   4.862 -0.5590  0.1308 -0.3173
 8534TIP3    H125566   3.146   5.511   4.846 -0.8668 -1.6439 -1.7249
 8534TIP3    H225567   3.041   5.490   4.953  0.2950  0.7039 -0.0268
 8535TIP3   OH225568   3.181   1.210   1.932 -0.1851  0.6038  0.8974
 8535TIP3    H125569   3.154   1.121   1.953 -0.8408  1.1881  2.7234
 8535TIP3    H225570   3.276   1.209   1.942 -0.2294  0.2090  1.2835
 8536TIP3   OH225571   1.161   1.217   4.888  0.0688 -0.2710  0.0965
 8536TIP3    H125572   1.156   1.121   4.888  0.2942 -0.2848 -0.3869
 8536TIP3    H225573   1.159   1.241   4.796 -2.2181  0.3189  0.2523
 8537TIP3   OH225574   0.563   6.293   0.731 -0.2385 -0.0589  0.1850
 8537TIP3    H125575   0.548   6.300   0.637 -0.2030 -1.4506  0.0569
 8537TIP3    H225576   0.478   6.267   0.768  0.2175 -1.5497  0.2580
 8538TIP3   OH225577   4.142   5.669   2.399 -0.7572 -0.1682  0.2154
 8538TIP3    H125578   4.049   5.660   2.420 -0.6634 -1.2381  0.1818
 8538TIP3    H225579   4.167   5.751   2.443 -1.9019  0.6081 -0.4997
 8539TIP3   OH225580   3.156   5.161   4.357  0.1960 -0.7026 -0.5049
 8539TIP3    H125581   3.115   5.077   4.335  1.1064 -1.6692  1.2117
 8539TIP3    H225582   3.245   5.137   4.384 -0.2398  0.4982  2.3107
 8540TIP3   OH225583   3.361   3.261   4.291 -0.0681  0.0948  0.1533
 8540TIP3    H125584   3.442   3.292   4.250  0.9907  0.8054  2.6171
 8540TIP3    H225585   3.295   3.324   4.264  0.4284  0.1748 -0.9333
 8541TIP3   OH225586   1.353   4.645   4.347  0.4292 -0.3879 -0.7937
 8541TIP3    H125587   1.444   4.620   4.329  0.0717 -1.7783 -0.7606
 8541TIP3    H225588   1.305   4.615   4.270 -0.2332 -1.1137 -0.1151
 8542TIP3   OH225589   0.040   3.550   1.755 -0.0473 -0.7912  0.3103
 8542TIP3    H125590  -0.049   3.584   1.755 -0.2435 -1.2132  2.3315
 8542TIP3    H225591   0.095   3.628   1.748 -0.5310 -0.1717  2.7000
 8543TIP3   OH225592   2.213   4.649   3.531 -0.0923  1.0618  0.3502
 8543TIP3    H125593   2.283   4.698   3.487  0.5374 -0.1654 -0.0505
 8543TIP3    H225594   2.177   4.711   3.595  1.0333  1.8626  0.2317
 8544TIP3   OH225595   2.550   6.006   1.814  0.2478  0.0275  0.3040
 8544TIP3    H125596   2.483   6.040   1.873 -1.9158 -1.5035 -1.1435
 8544TIP3    H225597   2.502   5.958   1.747  2.7370 -0.1873 -1.4897
 8545TIP3   OH225598   0.275   5.977   2.962  0.2750 -0.1668 -0.0067
 8545TIP3    H125599   0.349   6.009   2.910  1.1397 -1.1251  0.6170
 8545TIP3    H225600   0.218   6.054   2.972  0.0827  0.0491 -2.3366
 8546TIP3   OH225601   3.324   4.926   2.110 -0.0077  0.1725 -0.0485
 8546TIP3    H125602   3.303   5.019   2.120  1.2707  0.3954  0.7443
 8546TIP3    H225603   3.241   4.881   2.126 -0.6113  1.1562 -0.2934
 8547TIP3   OH225604   2.584   0.892   2.129 -0.7161 -0.2962  0.4220
 8547TIP3    H125605   2.647   0.964   2.137  0.3772 -1.0009 -1.3728
 8547TIP3    H225606   2.513   0.929   2.077 -0.8201 -0.1254  0.6785
 8548TIP3   OH225607   2.203   3.537   4.481 -0.0814  0.1111  0.1608
 8548TIP3    H125608   2.142   3.504   4.547  1.2895 -0.3462  1.2296
 8548TIP3    H225609   2.283   3.557   4.529  0.5945  0.8115 -1.1946
 8549TIP3   OH225610   5.651   0.995   4.571  0.2309  0.0474  0.3524
 8549TIP3    H125611   5.742   1.022   4.579  0.7209 -0.1081 -3.3542
 8549TIP3    H225612   5.621   1.034   4.489 -1.7546 -3.2593 -0.6850
 8550TIP3   OH225613   3.751   2.788   2.177  0.1210  0.3575  0.1563
 8550TIP3    H125614   3.844   2.800   2.197  0.5193 -1.4999 -0.3126
 8550TIP3    H225615   3.740   2.693   2.176 -2.0735  0.5573  1.4128
 8551TIP3   OH225616   7.145   3.943   3.867 -0.3287 -0.7123  0.2419
 8551TIP3    H125617   7.231   3.962   3.904 -1.1262  1.1355  1.2583
 8551TIP3    H225618   7.110   3.873   3.924  0.6982 -1.9216 -0.5546
 8552TIP3   OH225619   6.323   6.711   5.468  0.3396  0.2399 -0.0996
 8552TIP3    H125620   6.381   6.772   5.513 -0.1796  0.6941 -0.0457
 8552TIP3    H225621   6.383   6.651   5.423  0.9095 -1.1694  2.3509
 8553TIP3   OH225622   7.168   1.312   0.564 -0.0033  0.2312 -0.0691
 8553TIP3    H125623   7.206   1.245   0.508 -0.4011 -0.2503  0.2346
 8553TIP3    H225624   7.235   1.328   0.632  0.5496  0.9357 -0.7554
 8554TIP3   OH225625   4.261   5.625   4.544  0.2096 -0.1342 -0.0349
 8554TIP3    H125626   4.275   5.614   4.638  1.1337 -0.2558 -0.1803
 8554TIP3    H225627   4.296   5.545   4.505  1.8555  0.8484 -0.6562
 8555TIP3   OH225628   5.219   1.805   1.779 -0.2639 -0.4384  0.1342
 8555TIP3    H125629   5.275   1.727   1.782 -0.4823 -0.5890  0.5204
 8555TIP3    H225630   5.215   1.829   1.687  1.4333  0.3143  0.2186
 8556TIP3   OH225631   5.252   4.901   1.426  0.5563 -0.3167  0.6800
 8556TIP3    H125632   5.311   4.919   1.500  0.4481  2.3786  0.2045
 8556TIP3    H225633   5.191   4.975   1.425  0.3310 -0.4450 -1.8823
 8557TIP3   OH225634   0.411   5.642   5.026  0.2912 -0.1575 -0.3057
 8557TIP3    H125635   0.428   5.705   5.096 -1.5793 -1.8735  1.8331
 8557TIP3    H225636   0.317   5.624   5.031 -0.0697  0.0691 -3.7219
 8558TIP3   OH225637   5.679   3.125   4.395 -0.4111  0.3164 -0.4635
 8558TIP3    H125638   5.761   3.084   4.424 -0.4162  0.3051 -0.4654
 8558TIP3    H225639   5.689   3.217   4.419 -0.4239  0.3031 -0.4075
 8559TIP3   OH225640   2.101   4.793   1.839 -0.2624  0.2828  0.1168
 8559TIP3    H125641   2.020   4.795   1.788 -0.8631 -0.4167  1.0187
 8559TIP3    H225642   2.109   4.703   1.869 -1.2194  1.1407  3.2719
 8560TIP3   OH225643   5.857   2.409   3.528  0.2623  0.7888  0.6541
 8560TIP3    H125644   5.827   2.450   3.609 -0.2452 -0.8685  1.3544
 8560TIP3    H225645   5.896   2.326   3.557  0.5825  0.4220 -0.7634
 8561TIP3   OH225646   3.601   4.171   0.131  1.0925  0.7170 -0.2382
 8561TIP3    H125647   3.658   4.168   0.208  1.9902  1.2200 -0.8609
 8561TIP3    H225648   3.528   4.228   0.156  0.8736  0.1031  0.5527
 8562TIP3   OH225649   7.030   4.606   1.408  0.0470  0.2479  0.6285
 8562TIP3    H125650   7.035   4.580   1.500  0.8324 -1.1071  0.2431
 8562TIP3    H225651   6.947   4.570   1.377  0.1671 -0.0254  0.6162
 8563TIP3   OH225652   3.515   1.211   1.586 -0.0754 -0.1359  0.2808
 8563TIP3    H125653   3.550   1.202   1.675 -2.1422 -0.3908  1.1334
 8563TIP3    H225654   3.547   1.133   1.540 -1.8463 -1.9285  1.8990
 8564TIP3   OH225655   2.224   6.063   4.209 -0.2815  0.1114  0.2376
 8564TIP3    H125656   2.318   6.053   4.223 -0.1614 -0.8000 -0.9799
 8564TIP3    H225657   2.208   6.156   4.219  0.8231  0.3318  0.1219
 8565TIP3   OH225658   1.461   1.665   3.290  0.4584 -0.1254  0.1121
 8565TIP3    H125659   1.441   1.581   3.249 -0.7952 -0.1668  0.7775
 8565TIP3    H225660   1.464   1.727   3.218 -1.4547 -0.2414 -0.0950
 8566TIP3   OH225661   5.777   1.041   4.937 -0.4564 -0.1908 -0.5236
 8566TIP3    H125662   5.855   0.987   4.944 -0.0390  0.5795  1.9618
 8566TIP3    H225663   5.709   0.982   4.904  1.3466 -0.5608 -4.0438
 8567TIP3   OH225664   5.473   5.614   5.329 -0.3671 -0.3669 -0.2448
 8567TIP3    H125665   5.481   5.696   5.281  0.3077 -0.1323  0.2433
 8567TIP3    H225666   5.425   5.556   5.271 -0.5653  0.2760 -0.7266
 8568TIP3   OH225667   2.650   3.820   0.213  0.3268  0.3542 -0.0016
 8568TIP3    H125668   2.586   3.814   0.284 -0.6801 -1.3566 -0.9774
 8568TIP3    H225669   2.636   3.907   0.174 -2.4703 -0.4807 -1.0831
 8569TIP3   OH225670   4.846   4.755   1.890  0.0468  0.0309  0.5520
 8569TIP3    H125671   4.805   4.727   1.972  0.9704 -0.7314  0.7757
 8569TIP3    H225672   4.789   4.825   1.857 -0.8356 -0.2756  1.3747
 8570TIP3   OH225673   0.435   3.808   4.421  0.2169 -0.0840  0.0922
 8570TIP3    H125674   0.464   3.836   4.508  0.3036  0.5266 -0.1239
 8570TIP3    H225675   0.512   3.767   4.382 -0.7156 -3.6403  1.5768
 8571TIP3   OH225676   2.599   2.718   0.648 -0.0342  0.1956 -0.7992
 8571TIP3    H125677   2.685   2.758   0.659 -0.0888  1.0849 -3.0530
 8571TIP3    H225678   2.539   2.778   0.692  0.4624 -0.4508  0.8234
 8572TIP3   OH225679   4.917   1.532   4.239  0.0271  0.3253 -0.4878
 8572TIP3    H125680   4.836   1.530   4.290 -0.1224  0.9379 -0.6911
 8572TIP3    H225681   4.922   1.622   4.206  0.4297  0.1011 -1.0544
 8573TIP3   OH225682   2.063   6.113   3.310  0.1378  0.7910 -0.5334
 8573TIP3    H125683   2.117   6.058   3.365 -0.7921  0.1662 -0.2224
 8573TIP3    H225684   2.083   6.085   3.220  1.8884  2.0297 -0.5785
 8574TIP3   OH225685   5.353   1.290   5.717 -0.4169 -0.0602  0.1334
 8574TIP3    H125686   5.314   1.263   5.634  0.0006  0.2399 -0.1660
 8574TIP3    H225687   5.387   1.209   5.755 -1.2373 -0.3044  0.3472
 8575TIP3   OH225688   4.683   1.665   1.460 -0.4149  0.6611  0.3768
 8575TIP3    H125689   4.612   1.614   1.419  1.2794 -0.7339 -0.9984
 8575TIP3    H225690   4.704   1.733   1.397  1.1953 -0.5673 -0.4847
 8576TIP3   OH225691   0.457   2.516   2.921 -0.0273 -0.0664  0.0404
 8576TIP3    H125692   0.365   2.499   2.944  0.3081  0.3633  1.8274
 8576TIP3    H225693   0.451   2.574   2.845 -1.3075  1.4142  1.1753
 8577TIP3   OH225694   0.217   5.098   2.737  0.4819 -0.2768 -0.6352
 8577TIP3    H125695   0.169   5.131   2.661  0.3334 -1.1305 -0.9254
 8577TIP3    H225696   0.153   5.098   2.808  0.5567  0.2965 -0.5616
 8578TIP3   OH225697   0.597   5.281   0.746  0.3105 -0.0286 -0.5396
 8578TIP3    H125698   0.630   5.291   0.657 -0.6586  0.8141 -0.8206
 8578TIP3    H225699   0.606   5.368   0.785  0.7549 -0.3989  0.1982
 8579TIP3   OH225700   3.044   2.743   4.637 -0.0710  0.1442  0.0093
 8579TIP3    H125701   3.068   2.818   4.691  0.3098  1.8348 -2.3287
 8579TIP3    H225702   3.058   2.773   4.547 -0.6664 -2.4948 -1.0596
 8580TIP3   OH225703   0.377   3.255   1.762 -0.2631 -0.1257 -0.9004
 8580TIP3    H125704   0.302   3.239   1.819 -2.5350  1.8587 -3.0804
 8580TIP3    H225705   0.387   3.350   1.761  1.4603 -0.2796 -1.6952
 8581TIP3   OH225706   1.954   3.464   0.031 -0.2581 -0.4732  0.3548
 8581TIP3    H125707   1.941   3.412   0.110  1.5014  0.1994  1.1277
 8581TIP3    H225708   2.048   3.480   0.028 -0.2239 -0.7455 -2.0546
 8582TIP3   OH225709   3.404   3.244   2.891 -0.2492 -0.6070  0.0008
 8582TIP3    H125710   3.412   3.155   2.859 -0.4928 -0.8808  0.6795
 8582TIP3    H225711   3.424   3.299   2.815 -2.8167 -1.1818 -1.1878
 8583TIP3   OH225712   3.813   6.030   1.019  0.5465  0.2554 -0.0728
 8583TIP3    H125713   3.843   6.026   0.928 -1.0463  0.8436 -0.6703
 8583TIP3    H225714   3.780   6.119   1.030  0.2337  0.0361  0.9151
 8584TIP3   OH225715   5.387   0.189   5.084  0.6109  0.3415  0.5970
 8584TIP3    H125716   5.430   0.253   5.028 -1.4204  0.8279 -0.5128
 8584TIP3    H225717   5.344   0.241   5.152 -1.4759  0.2864 -0.6017
 8585TIP3   OH225718   0.423   6.529   5.065 -0.2737 -0.1983  0.0067
 8585TIP3    H125719   0.460   6.441   5.071 -0.6119 -0.3016  0.6734
 8585TIP3    H225720   0.404   6.553   5.156 -1.6932 -0.0905 -0.2963
 8586TIP3   OH225721   4.456   0.246   2.433 -0.1912  0.4879 -0.0844
 8586TIP3    H125722   4.514   0.199   2.493 -0.5403 -0.7766 -0.6978
 8586TIP3    H225723   4.377   0.192   2.429 -0.1473  0.5026 -1.7047
 8587TIP3   OH225724   4.802   0.708   1.921  0.1413 -1.0437 -0.2560
 8587TIP3    H125725   4.777   0.735   1.832  0.7227 -0.2659 -0.1954
 8587TIP3    H225726   4.719   0.696   1.967 -0.1516 -0.0571 -0.5032
 8588TIP3   OH225727   1.308   2.572   3.357 -0.0158 -0.6756 -0.1935
 8588TIP3    H125728   1.247   2.626   3.306 -1.3297 -1.2015  0.7834
 8588TIP3    H225729   1.384   2.564   3.300 -0.9692 -0.2687 -1.5993
 8589TIP3   OH225730   5.946   5.298   4.927 -0.4941 -0.5594 -0.2130
 8589TIP3    H125731   6.001   5.375   4.919 -1.7745  0.6209  1.7042
 8589TIP3    H225732   5.993   5.240   4.987  0.1748 -1.0383 -1.1734
 8590TIP3   OH225733   0.566   1.369   3.097  0.4230 -0.4308  0.0673
 8590TIP3    H125734   0.603   1.454   3.121 -0.1883 -0.1307 -0.0289
 8590TIP3    H225735   0.525   1.337   3.178  2.2723 -1.5194  0.6257
 8591TIP3   OH225736   4.937   4.089   5.642 -0.1865  0.4389 -0.0415
 8591TIP3    H125737   4.980   4.171   5.617 -0.8652  1.5557  2.1654
 8591TIP3    H225738   5.008   4.026   5.651  0.7299  1.5664  0.9722
 8592TIP3   OH225739   4.774   4.890   5.415 -0.3138 -0.2559  0.6438
 8592TIP3    H125740   4.794   4.979   5.387  2.8472 -0.9129  0.4965
 8592TIP3    H225741   4.837   4.871   5.484 -1.5582 -2.0681  1.3605
 8593TIP3   OH225742   6.247   6.307   5.217 -0.2822  0.1294 -0.0075
 8593TIP3    H125743   6.205   6.287   5.134 -1.9940  0.3318  0.7578
 8593TIP3    H225744   6.198   6.255   5.282 -2.0023  3.3153  1.4541
 8594TIP3   OH225745   2.339   0.507   5.667 -0.1164  0.1913  0.3614
 8594TIP3    H125746   2.348   0.457   5.748 -1.5489 -0.0433  0.4015
 8594TIP3    H225747   2.355   0.598   5.692  1.0037 -0.0470  0.5814
 8595TIP3   OH225748   3.098   2.753   2.776 -0.7458  0.0112  0.2572
 8595TIP3    H125749   3.070   2.761   2.685 -0.0543  0.5515  0.0890
 8595TIP3    H225750   3.030   2.799   2.826 -0.3657  0.9715 -0.1109
 8596TIP3   OH225751   6.051   5.009   2.647  0.7937  0.3311  0.2771
 8596TIP3    H125752   6.030   5.017   2.741  2.1746 -0.6616  0.7031
 8596TIP3    H225753   5.968   4.988   2.606  0.6240 -2.1725  1.7141
 8597TIP3   OH225754   5.229   5.573   4.525  0.3435  0.1456  0.5069
 8597TIP3    H125755   5.297   5.524   4.477  1.5286  0.9482  1.3158
 8597TIP3    H225756   5.247   5.665   4.503 -1.2207  0.3118 -0.1810
 8598TIP3   OH225757   0.791   1.455   4.804  0.5267 -0.0952 -0.3054
 8598TIP3    H125758   0.785   1.364   4.832  0.9271 -0.3360 -1.0024
 8598TIP3    H225759   0.729   1.463   4.732  1.1871 -0.0656 -0.8819
 8599TIP3   OH225760   0.483   3.118   0.133  0.6020 -0.4646 -0.0907
 8599TIP3    H125761   0.391   3.127   0.157  0.7020 -1.1751  0.5830
 8599TIP3    H225762   0.483   3.118   0.038  0.0500  0.9498 -0.1149
 8600TIP3   OH225763   5.520   3.137   0.553 -0.0373  0.2803  0.2884
 8600TIP3    H125764   5.572   3.179   0.622  1.5689  1.2989 -1.4640
 8600TIP3    H225765   5.555   3.048   0.547  1.8167  1.0680 -1.1184
 8601TIP3   OH225766   3.306   4.321   2.333 -0.1628  0.4724 -0.0684
 8601TIP3    H125767   3.305   4.410   2.296 -1.5045  0.2453 -0.6251
 8601TIP3    H225768   3.276   4.332   2.423 -2.3111  0.3729 -0.7279
 8602TIP3   OH225769   7.187   5.187   0.609 -0.1133  0.0422  0.3242
 8602TIP3    H125770   7.197   5.283   0.608 -1.2732  0.2018  1.1480
 8602TIP3    H225771   7.243   5.156   0.538 -0.6566  1.4239 -0.7544
 8603TIP3   OH225772   0.944   0.124   0.955 -0.6294 -0.1250 -0.0326
 8603TIP3    H125773   0.981   0.070   1.024  0.6152  0.0611 -0.5271
 8603TIP3    H225774   1.008   0.119   0.884 -1.4327  0.4368 -0.8192
 8604TIP3   OH225775   1.222   5.053   4.861 -0.0218 -0.0596 -0.1437
 8604TIP3    H125776   1.142   5.081   4.905  0.1382  0.5683 -0.2512
 8604TIP3    H225777   1.205   4.961   4.838  0.1317 -0.5951  1.7654
 8605TIP3   OH225778   2.665   3.991   3.807 -0.2841 -0.2991 -0.0105
 8605TIP3    H125779   2.650   3.983   3.712  0.2440  1.9774 -0.3517
 8605TIP3    H225780   2.756   4.020   3.814 -0.9292  1.6409  1.0175
 8606TIP3   OH225781   5.099   1.664   0.394 -0.6066 -0.2582 -0.6536
 8606TIP3    H125782   5.008   1.650   0.366 -1.5608 -1.1378  2.5222
 8606TIP3    H225783   5.134   1.575   0.403 -0.4990 -0.0576  1.1790
 8607TIP3   OH225784   6.527   6.454   4.659 -0.0806 -0.1919  0.6776
 8607TIP3    H125785   6.502   6.492   4.743  0.8354  1.9309  0.0588
 8607TIP3    H225786   6.621   6.438   4.667 -0.3291 -1.7955  0.6819
 8608TIP3   OH225787   4.146   4.500   2.144 -0.2727  1.0395 -0.0539
 8608TIP3    H125788   4.081   4.497   2.074 -0.7889 -0.5334  0.4584
 8608TIP3    H225789   4.140   4.589   2.179 -1.5766  1.1582 -0.5419
 8609TIP3   OH225790   4.760   5.950   4.370 -0.1294  0.5474  0.6066
 8609TIP3    H125791   4.832   6.010   4.355 -0.6936  1.3395  0.9975
 8609TIP3    H225792   4.767   5.926   4.463  0.0386  0.0815  0.4754
 8610TIP3   OH225793   2.922   5.492   3.599  0.0509 -0.4765  0.2465
 8610TIP3    H125794   2.919   5.515   3.506  1.6086 -0.3102  0.2195
 8610TIP3    H225795   2.913   5.576   3.645 -1.8768 -0.6688  0.3025
 8611TIP3   OH225796   6.639   5.125   0.779 -0.0277  0.3680  0.0294
 8611TIP3    H125797   6.721   5.135   0.827 -0.0800 -0.2054  0.2397
 8611TIP3    H225798   6.665   5.096   0.692 -0.0532 -0.6211  0.3473
 8612TIP3   OH225799   4.104   6.503   3.188 -0.1253 -0.2802  0.6767
 8612TIP3    H125800   4.157   6.425   3.205 -0.5071 -0.5905  0.4769
 8612TIP3    H225801   4.134   6.535   3.104 -1.0201 -1.1160  0.0206
 8613TIP3   OH225802   2.629   5.548   2.669 -1.0032  0.4058 -0.1715
 8613TIP3    H125803   2.621   5.455   2.691 -0.9593  0.2190 -0.9178
 8613TIP3    H225804   2.656   5.590   2.751 -0.2770 -0.3495 -0.0092
 8614TIP3   OH225805   2.415   3.619   4.938 -0.3452 -0.6104  0.4111
 8614TIP3    H125806   2.433   3.536   4.982  1.2685 -0.5928 -0.1287
 8614TIP3    H225807   2.501   3.662   4.933 -0.9356  0.5152 -0.4470
 8615TIP3   OH225808   5.094   3.610   2.598  0.2283  0.7962  0.6883
 8615TIP3    H125809   5.062   3.646   2.680 -1.0180  2.8282 -0.6171
 8615TIP3    H225810   5.048   3.659   2.530  0.0209 -1.8691 -1.2570
 8616TIP3   OH225811   6.466   3.032   5.346  0.6591 -0.1084 -0.0376
 8616TIP3    H125812   6.436   3.116   5.310 -1.0991 -0.6029  0.1587
 8616TIP3    H225813   6.386   2.979   5.352  1.7062 -1.7544 -0.0133
 8617TIP3   OH225814   5.884   6.761   0.146 -0.0611  0.5034  0.3859
 8617TIP3    H125815   5.828   6.684   0.151 -0.6271  0.2490 -4.7032
 8617TIP3    H225816   5.973   6.727   0.144 -0.2156  0.1058  0.1086
 8618TIP3   OH225817   5.387   4.682   0.701  0.0136 -0.1387  0.3505
 8618TIP3    H125818   5.314   4.672   0.640  0.5147 -1.0186 -0.1244
 8618TIP3    H225819   5.364   4.759   0.753 -1.9655 -1.2487  1.2285
 8619TIP3   OH225820   0.355   3.911   2.784  0.0049  0.2348  0.1382
 8619TIP3    H125821   0.411   3.956   2.722  0.0584 -0.4032 -0.2922
 8619TIP3    H225822   0.293   3.977   2.814 -0.7844  0.2952 -1.4999
 8620TIP3   OH225823   0.539   2.955   3.935 -0.2574 -0.0214 -0.1756
 8620TIP3    H125824   0.536   2.942   3.840 -0.4958  0.7910 -0.2868
 8620TIP3    H225825   0.560   3.048   3.946 -1.9663  0.3250  0.5418
 8621TIP3   OH225826   0.878   3.411   5.795 -0.1607  0.5636  0.2270
 8621TIP3    H125827   0.850   3.320   5.806  0.8870  0.3712  1.4958
 8621TIP3    H225828   0.838   3.438   5.712 -1.1448 -0.7922  0.2203
 8622TIP3   OH225829   0.575   0.529   1.911 -0.3401  0.4772  0.7520
 8622TIP3    H125830   0.572   0.443   1.870 -1.5785  0.5060  0.7700
 8622TIP3    H225831   0.628   0.517   1.990  3.7749  0.7824 -1.6502
 8623TIP3   OH225832   6.357   6.108   5.001 -0.8011  0.5000 -0.0505
 8623TIP3    H125833   6.411   6.164   5.056 -0.3760 -0.0935  0.1496
 8623TIP3    H225834   6.378   6.135   4.911  0.4174 -0.2314 -0.0076
 8624TIP3   OH225835   1.513   6.443   5.314 -0.7526  0.4261 -0.3047
 8624TIP3    H125836   1.565   6.485   5.382 -0.1343 -0.7280 -0.0250
 8624TIP3    H225837   1.539   6.487   5.233  1.5086 -0.7956 -0.3266
 8625TIP3   OH225838   3.708   4.106   2.755 -0.3470  0.0717 -0.1361
 8625TIP3    H125839   3.703   4.178   2.693 -0.3654 -0.5033 -0.8106
 8625TIP3    H225840   3.651   4.038   2.718  0.3314 -0.6100  0.0489
 8626TIP3   OH225841   5.308   4.494   2.515 -0.1145  0.3540  0.5017
 8626TIP3    H125842   5.366   4.444   2.573  1.0263  1.9439  0.8225
 8626TIP3    H225843   5.262   4.554   2.573 -0.9558  0.1482  0.0585
 8627TIP3   OH225844   5.033   5.018   0.768  0.1280 -0.6300  0.0169
 8627TIP3    H125845   5.124   5.049   0.773 -0.5488  2.3239 -2.5875
 8627TIP3    H225846   4.994   5.044   0.851  1.4053 -0.9849  0.7488
 8628TIP3   OH225847   2.744   0.048   0.636 -0.1624 -0.6839  0.2490
 8628TIP3    H125848   2.698   0.078   0.714 -0.2902 -0.0690 -0.0610
 8628TIP3    H225849   2.782  -0.036   0.662  2.0572  0.7175  1.8445
 8629TIP3   OH225850   3.423   3.263   3.794  0.3666  0.0735  0.1038
 8629TIP3    H125851   3.496   3.204   3.772  0.1645 -0.0639 -0.1975
 8629TIP3    H225852   3.466   3.344   3.823  0.6562 -0.3604  0.9403
 8630TIP3   OH225853   0.459   0.784   3.971 -0.0871  0.5297 -0.6408
 8630TIP3    H125854   0.450   0.707   3.917  1.5576 -1.8075  2.1107
 8630TIP3    H225855   0.541   0.825   3.942  0.5586 -0.4557 -0.2388
 8631TIP3   OH225856   3.133   5.753   3.427 -0.0328 -0.2849  0.1100
 8631TIP3    H125857   3.095   5.826   3.476 -0.6083 -0.4215 -0.1270
 8631TIP3    H225858   3.058   5.710   3.386  0.3278 -0.8530  0.0340
 8632TIP3   OH225859   5.031   6.253   4.541  0.0912  0.1978  0.1739
 8632TIP3    H125860   5.088   6.325   4.514  0.6230  0.5535  2.1334
 8632TIP3    H225861   5.013   6.206   4.459  2.2195  0.7645 -0.7074
 8633TIP3   OH225862   5.164   3.514   1.203  0.0664  0.1139 -0.4484
 8633TIP3    H125863   5.241   3.562   1.172 -0.2818  0.8382 -0.2039
 8633TIP3    H225864   5.121   3.573   1.264 -0.1797 -0.6506  0.1318
 8634TIP3   OH225865   5.543   1.281   4.461  1.0960 -0.2171 -0.0735
 8634TIP3    H125866   5.605   1.229   4.410  2.8251  1.6891 -0.0470
 8634TIP3    H225867   5.534   1.363   4.411 -2.8270 -1.0084 -0.9945
 8635TIP3   OH225868   4.006   2.064   0.031 -0.2508  0.0818 -0.3812
 8635TIP3    H125869   3.953   2.133  -0.011  0.6113  1.1340  0.2010
 8635TIP3    H225870   3.965   2.051   0.117 -1.5522 -1.5212 -1.2003
 8636TIP3   OH225871   1.652   1.170   4.983 -0.2074  0.2613 -0.0874
 8636TIP3    H125872   1.619   1.237   4.923  0.6078  1.1967  0.4820
 8636TIP3    H225873   1.624   1.200   5.070  0.1360 -0.1464  0.1674
 8637TIP3   OH225874   4.550   4.906   2.523 -0.3072 -0.0990 -0.5308
 8637TIP3    H125875   4.519   4.976   2.581 -0.3598  0.2586 -0.9768
 8637TIP3    H225876   4.634   4.938   2.489 -0.4138 -0.1692 -0.8724
 8638TIP3   OH225877   1.641   1.424   1.440 -0.2457  0.6342 -0.3090
 8638TIP3    H125878   1.598   1.402   1.358 -0.3378 -1.5642  0.2862
 8638TIP3    H225879   1.721   1.470   1.414 -0.0033 -0.5001 -1.6626
 8639TIP3   OH225880   2.431   1.427   3.294 -0.3571  0.3492 -0.4670
 8639TIP3    H125881   2.417   1.338   3.263  0.8280 -0.0269  0.0149
 8639TIP3    H225882   2.521   1.427   3.327 -0.9467  1.2399  1.2189
 8640TIP3   OH225883   4.301   6.420   1.250 -0.6059 -0.0856  0.0345
 8640TIP3    H125884   4.301   6.481   1.323 -0.5277 -0.1014  0.0479
 8640TIP3    H225885   4.389   6.382   1.250  0.1387  1.5137 -1.4044
 8641TIP3   OH225886   6.620   4.703   1.434  0.1077  0.0918  0.2438
 8641TIP3    H125887   6.564   4.629   1.458 -0.8593  0.7277  0.0187
 8641TIP3    H225888   6.581   4.778   1.479  0.4564  0.6371 -0.3491
 8642TIP3   OH225889   3.852   2.338   1.278  0.1210 -0.3758 -0.2252
 8642TIP3    H125890   3.932   2.296   1.246 -0.7554 -0.6620 -2.1388
 8642TIP3    H225891   3.858   2.428   1.245 -1.0277 -0.8102 -1.7408
 8643TIP3   OH225892   0.870   5.871   5.028 -0.3516 -0.7622 -0.2840
 8643TIP3    H125893   0.944   5.866   4.967 -1.1705  2.4094 -1.7249
 8643TIP3    H225894   0.896   5.937   5.092 -1.7026  0.0886 -0.5679
 8644TIP3   OH225895   6.068   4.915   1.351 -0.4329 -0.0222 -0.1917
 8644TIP3    H125896   6.046   4.873   1.268  0.0917  0.7861 -0.7470
 8644TIP3    H225897   6.004   4.880   1.413 -0.6869 -0.8037 -0.8824
 8645TIP3   OH225898   6.407   4.002   5.359  0.2981  0.0609  0.6086
 8645TIP3    H125899   6.355   3.930   5.395 -0.8656  0.1997 -0.7000
 8645TIP3    H225900   6.483   3.959   5.320  0.5641 -0.2645  1.4635
 8646TIP3   OH225901   1.286   2.049   1.193  0.1892 -0.4813  0.0438
 8646TIP3    H125902   1.266   2.015   1.106 -0.5364 -0.8047  0.3263
 8646TIP3    H225903   1.201   2.056   1.236  0.6247 -1.2253  1.0611
 8647TIP3   OH225904   2.091   0.696   1.786 -0.1276  0.4988 -0.4420
 8647TIP3    H125905   2.186   0.691   1.801  0.1321 -0.6986 -2.1017
 8647TIP3    H225906   2.057   0.613   1.821 -0.9305  1.7943  2.0526
 8648TIP3   OH225907   5.812   0.983   2.984 -0.1014  0.2263 -0.2305
 8648TIP3    H125908   5.793   1.020   3.070  1.2653 -0.1637  0.2635
 8648TIP3    H225909   5.861   0.903   3.003 -1.0509 -0.6576 -1.3442
 8649TIP3   OH225910   6.247   2.307   3.955  0.4488  0.4693 -0.3836
 8649TIP3    H125911   6.211   2.223   3.927  0.5014 -0.0011  0.9399
 8649TIP3    H225912   6.290   2.342   3.877 -2.4217  0.8369 -1.9551
 8650TIP3   OH225913   0.665   0.089   1.665 -0.3209  0.3230 -0.4365
 8650TIP3    H125914   0.750   0.132   1.658  0.1568 -0.7352 -1.5589
 8650TIP3    H225915   0.615   0.122   1.591 -0.2273 -0.4185 -0.8440
 8651TIP3   OH225916   6.444   0.912   0.833  0.0799  0.3865 -0.2570
 8651TIP3    H125917   6.369   0.964   0.860 -2.7424 -3.2274 -0.3089
 8651TIP3    H225918   6.438   0.909   0.737  0.1030 -0.1244 -0.2483
 8652TIP3   OH225919   1.638   6.226   5.520 -0.3908 -0.4158  0.3182
 8652TIP3    H125920   1.617   6.290   5.452 -0.8312  0.4908  1.2654
 8652TIP3    H225921   1.733   6.217   5.516 -0.5216 -1.6121 -1.4504
 8653TIP3   OH225922   2.712   4.296   2.193  0.1029 -0.0802 -0.0968
 8653TIP3    H125923   2.707   4.359   2.121  0.8466 -1.5145 -1.4759
 8653TIP3    H225924   2.657   4.223   2.165 -0.4231 -0.2349  1.2827
 8654TIP3   OH225925   1.134   0.671   3.332 -0.3877  0.0476 -0.0061
 8654TIP3    H125926   1.121   0.605   3.400 -0.1799  0.4976  0.4785
 8654TIP3    H225927   1.121   0.624   3.250  0.6962 -0.8248  0.2976
 8655TIP3   OH225928   3.655   1.689   5.748  0.1825 -0.3109 -0.7121
 8655TIP3    H125929   3.706   1.659   5.673  1.1338 -1.7799  0.4719
 8655TIP3    H225930   3.718   1.692   5.820 -1.1288 -0.9729  0.5112
 8656TIP3   OH225931   6.684   4.669   0.425 -0.4789 -0.4093 -0.1236
 8656TIP3    H125932   6.664   4.589   0.473  1.8876 -1.3558 -0.6082
 8656TIP3    H225933   6.640   4.657   0.340 -1.2474 -0.5758  0.2919
 8657TIP3   OH225934   7.023   3.763   4.038 -0.0150 -0.2481  0.8011
 8657TIP3    H125935   7.025   3.669   4.020  1.2469 -0.0480 -0.2232
 8657TIP3    H225936   7.045   3.770   4.131 -0.4414 -0.9718  0.9657
 8658TIP3   OH225937   0.457   5.615   3.759  0.4322 -0.4422 -0.2210
 8658TIP3    H125938   0.547   5.624   3.791  0.6392 -0.0003 -0.8853
 8658TIP3    H225939   0.467   5.602   3.665 -0.2067 -0.1702 -0.3303
 8659TIP3   OH225940   3.630   1.488   1.660 -0.0390 -0.7098  0.7291
 8659TIP3    H125941   3.631   1.581   1.642  0.3838 -0.9802 -0.7313
 8659TIP3    H225942   3.601   1.447   1.579  0.8446 -1.9161  0.9769
 8660TIP3   OH225943   1.353   4.154   2.935 -0.4499 -0.0009 -0.0303
 8660TIP3    H125944   1.302   4.229   2.907 -2.7931 -0.6217  2.1984
 8660TIP3    H225945   1.378   4.174   3.025  1.3239 -0.7243 -0.3138
 8661TIP3   OH225946   3.646   2.933   1.546  0.0669  0.8243 -0.2014
 8661TIP3    H125947   3.706   2.871   1.586  0.2838  1.5662  0.6738
 8661TIP3    H225948   3.616   2.987   1.619 -0.8115  1.1677 -0.7990
 8662TIP3   OH225949   6.109   1.258   5.684 -0.1995  0.1288  0.1796
 8662TIP3    H125950   6.036   1.309   5.648  0.7373  0.4165 -1.3790
 8662TIP3    H225951   6.127   1.300   5.768  0.0036  1.8805 -0.6853
 8663TIP3   OH225952   4.781   2.628   2.424  0.2211  0.2272  0.3118
 8663TIP3    H125953   4.865   2.583   2.426  1.0252  1.6420 -0.8014
 8663TIP3    H225954   4.717   2.558   2.438  1.5968 -0.7009  2.4330
 8664TIP3   OH225955   7.039   4.780   2.246  0.3002 -0.2676  0.3736
 8664TIP3    H125956   6.997   4.851   2.197 -1.4982 -0.5693  1.3554
 8664TIP3    H225957   6.978   4.763   2.318  1.9586 -1.0790  1.6315
 8665TIP3   OH225958   5.895   2.858   1.588 -0.2965 -0.5207  0.0915
 8665TIP3    H125959   5.919   2.918   1.518 -1.8183 -0.2831 -0.2511
 8665TIP3    H225960   5.946   2.779   1.569  0.6150  0.1349 -0.2783
 8666TIP3   OH225961   2.338   4.446   0.255 -0.0683  0.8631  0.0999
 8666TIP3    H125962   2.289   4.451   0.173 -1.4636  1.4157  0.9409
 8666TIP3    H225963   2.422   4.488   0.235 -0.6761  1.6761 -0.8503
 8667TIP3   OH225964   5.075   6.467   1.541  0.2662  0.4537  0.0950
 8667TIP3    H125965   5.059   6.532   1.472 -2.2207  0.2894  0.4249
 8667TIP3    H225966   5.075   6.517   1.622 -0.3385  0.2307  0.2402
 8668TIP3   OH225967   0.658   6.407   3.175  0.1780 -0.9129 -0.0129
 8668TIP3    H125968   0.660   6.330   3.232  2.7079 -1.0192 -0.1411
 8668TIP3    H225969   0.748   6.418   3.146 -0.3228  1.4624 -0.9145
 8669TIP3   OH225970   1.662   5.265   4.910 -0.3342  0.6453 -0.2509
 8669TIP3    H125971   1.649   5.199   4.979 -2.1131  0.1470 -0.9908
 8669TIP3    H225972   1.738   5.315   4.939  0.5309 -1.1468  0.8012
 8670TIP3   OH225973   6.508   4.002   0.902 -0.1871  0.1405  0.3069
 8670TIP3    H125974   6.466   3.945   0.966  1.0275  0.1244  1.1283
 8670TIP3    H225975   6.602   3.987   0.914  0.0889  0.2134 -1.4226
 8671TIP3   OH225976   3.774   3.729   2.227 -0.1821  0.1237 -0.0535
 8671TIP3    H125977   3.792   3.768   2.313 -2.1185  2.1683 -0.4608
 8671TIP3    H225978   3.849   3.755   2.173  0.6882 -0.5360  0.8165
 8672TIP3   OH225979   5.314   3.713   1.124 -0.1093  0.4531 -0.5248
 8672TIP3    H125980   5.266   3.785   1.163 -1.6119 -0.7831  0.0002
 8672TIP3    H225981   5.394   3.705   1.177 -1.6310 -0.5497  1.7632
 8673TIP3   OH225982   6.410   2.665   1.531  0.0157  0.0752 -0.3935
 8673TIP3    H125983   6.340   2.683   1.469 -0.2761 -0.6457 -0.2727
 8673TIP3    H225984   6.408   2.571   1.544  0.5278  0.1356  0.1781
 8674TIP3   OH225985   3.303   0.158   3.437 -0.0832 -0.6216  0.5907
 8674TIP3    H125986   3.302   0.171   3.342  2.1647 -0.8794  0.4699
 8674TIP3    H225987   3.322   0.065   3.448 -0.6842 -0.6683  1.3062
 8675TIP3   OH225988   4.881   6.129   0.602  0.0913 -0.2484  0.3517
 8675TIP3    H125989   4.969   6.159   0.623  0.0670 -0.0206  0.1236
 8675TIP3    H225990   4.831   6.141   0.683  0.8215 -2.5242  1.2394
 8676TIP3   OH225991   1.615   4.912   1.276  0.2882 -0.4905  0.0257
 8676TIP3    H125992   1.533   4.886   1.235  0.3593 -1.6231  0.5644
 8676TIP3    H225993   1.632   4.844   1.341  1.6524 -0.2866 -0.0874
 8677TIP3   OH225994   0.342   6.129   0.797  0.2003  0.4849 -0.1456
 8677TIP3    H125995   0.279   6.198   0.780  0.0428  0.6434  0.9697
 8677TIP3    H225996   0.326   6.104   0.888  0.7491 -0.5089 -0.3020
 8678TIP3   OH225997   6.043   4.837   0.573 -0.1697 -0.4130  0.7037
 8678TIP3    H125998   6.006   4.900   0.511  1.0320  1.8228  2.1265
 8678TIP3    H225999   5.970   4.816   0.631 -0.7459 -0.8615 -0.1543
 8679TIP3   OH226000   6.638   5.653   4.308 -0.2811 -0.8054  0.2481
 8679TIP3    H126001   6.564   5.629   4.364 -0.8876 -1.6173 -0.8540
 8679TIP3    H226002   6.641   5.748   4.311  0.5318 -0.8458  2.6795
 8680TIP3   OH226003   1.714   0.337   3.469  0.6515  0.0365  0.4401
 8680TIP3    H126004   1.729   0.247   3.497 -0.0352 -0.9888 -2.2388
 8680TIP3    H226005   1.791   0.359   3.416 -0.4006  0.0113 -1.1565
 8681TIP3   OH226006   5.637   4.240   3.884 -0.0200  0.1304 -0.2309
 8681TIP3    H126007   5.719   4.228   3.836  3.1247  1.2013  4.2946
 8681TIP3    H226008   5.618   4.334   3.875  0.0112  0.1460 -0.1256
 8682TIP3   OH226009  -0.018   4.477   3.541  0.0196 -0.8472  0.0257
 8682TIP3    H126010   0.035   4.437   3.472  1.9289  1.3617  0.0982
 8682TIP3    H226011  -0.013   4.415   3.614  4.2489  0.0174  0.7306
 8683TIP3   OH226012   2.136   0.061   1.697  0.3221  0.1459  0.0316
 8683TIP3    H126013   2.191   0.136   1.674  0.3434  0.3626  0.7536
 8683TIP3    H226014   2.179  -0.014   1.657 -0.4280  0.6623 -1.8660
 8684TIP3   OH226015   3.559   6.529   5.211  0.5833 -0.2425 -0.1338
 8684TIP3    H126016   3.585   6.608   5.163  0.5926  0.4016  0.9054
 8684TIP3    H226017   3.467   6.544   5.233  0.0978 -1.2559 -1.3201
 8685TIP3   OH226018   4.269   4.533   0.670  0.0557  0.4793 -1.1366
 8685TIP3    H126019   4.199   4.469   0.662  0.3243  0.0958 -0.4868
 8685TIP3    H226020   4.340   4.498   0.618  1.0737 -0.9967  1.0879
 8686TIP3   OH226021   4.619   3.375   2.844  0.3261  0.0929  0.2445
 8686TIP3    H126022   4.532   3.346   2.871 -1.2235  0.8867 -3.3615
 8686TIP3    H226023   4.625   3.465   2.877  0.1906 -0.2606  1.2706
 8687TIP3   OH226024   2.216   2.706   2.798 -0.3627  0.5709 -0.3639
 8687TIP3    H126025   2.203   2.750   2.714 -0.4505  1.1984 -0.0244
 8687TIP3    H226026   2.148   2.742   2.855  1.6503  2.6073  0.9335
 8688TIP3   OH226027   4.217   4.557   4.693  0.1509  0.2813  0.1449
 8688TIP3    H126028   4.123   4.549   4.707 -0.0710  2.3068  0.0886
 8688TIP3    H226029   4.229   4.552   4.598  0.1492 -0.2831  0.1711
 8689TIP3   OH226030   3.744   5.501   5.566 -0.1596 -0.4493  0.5772
 8689TIP3    H126031   3.803   5.474   5.636 -0.4113 -1.3001  0.4753
 8689TIP3    H226032   3.658   5.506   5.607 -0.2167 -0.4172  0.4537
 8690TIP3   OH226033   6.244   1.499   4.932  0.6352 -0.5524 -0.3403
 8690TIP3    H126034   6.309   1.446   4.886  1.7371 -1.0147  1.6029
 8690TIP3    H226035   6.182   1.435   4.967 -0.3172 -0.1915 -1.3277
 8691TIP3   OH226036   3.755   1.137   0.607  0.1066 -0.1327 -0.6686
 8691TIP3    H126037   3.847   1.133   0.582  0.6435  1.4392  0.8671
 8691TIP3    H226038   3.749   1.213   0.664 -1.7898 -1.2304  0.7069
 8692TIP3   OH226039   0.902   0.867   2.137 -0.1207  0.4120  0.1369
 8692TIP3    H126040   0.924   0.955   2.108  1.0699  0.3986  0.9165
 8692TIP3    H226041   0.951   0.809   2.079 -0.8860  0.2566 -0.3616
 8693TIP3   OH226042   3.134   5.815   4.374 -0.1482 -0.2526 -0.0151
 8693TIP3    H126043   3.175   5.731   4.355  0.0218 -0.4035  0.9760
 8693TIP3    H226044   3.204   5.868   4.412 -0.7499 -0.3983  1.3617
 8694TIP3   OH226045   0.734   1.050   1.846 -0.3570 -0.1582  0.1899
 8694TIP3    H126046   0.776   1.038   1.931  1.0834  0.0127 -0.4736
 8694TIP3    H226047   0.700   0.963   1.824  3.1247 -1.3891 -1.0027
 8695TIP3   OH226048   1.336   2.252   2.442  0.2023  0.3018 -0.1989
 8695TIP3    H126049   1.316   2.180   2.502  1.6980  0.8561  1.0175
 8695TIP3    H226050   1.284   2.232   2.364  1.3731 -2.7078 -0.3728
 8696TIP3   OH226051   3.688   2.261   1.015  0.0444 -0.2910 -0.3784
 8696TIP3    H126052   3.646   2.269   1.101 -0.5640 -2.2081 -0.4394
 8696TIP3    H226053   3.627   2.301   0.954 -1.3754 -2.3030 -0.3567
 8697TIP3   OH226054   2.065   1.469   3.038 -0.4628 -0.1150 -0.0825
 8697TIP3    H126055   2.027   1.399   2.986  1.5191 -0.2856 -1.4078
 8697TIP3    H226056   2.042   1.549   2.990  0.1420 -0.1495 -0.4317
 8698TIP3   OH226057   7.056   3.058   2.586 -0.2837 -0.7381 -0.3329
 8698TIP3    H126058   7.090   2.973   2.557 -0.3608 -0.9437  0.1816
 8698TIP3    H226059   7.086   3.067   2.676 -1.4742 -0.8498  0.0845
 8699TIP3   OH226060   3.566   0.437   2.440 -0.2613  0.1751 -0.1591
 8699TIP3    H126061   3.585   0.511   2.497 -0.6941 -0.0055  0.2355
 8699TIP3    H226062   3.566   0.361   2.499 -1.0327  0.0288 -0.3362
 8700TIP3   OH226063   5.608   0.040   5.611 -0.7129 -0.0604  0.0145
 8700TIP3    H126064   5.604   0.124   5.566 -0.3534 -0.1505 -0.1906
 8700TIP3    H226065   5.577  -0.024   5.546 -0.3116 -0.1741 -0.0685
 8701TIP3   OH226066   4.377   5.987   5.356 -0.2856 -0.6651  0.4751
 8701TIP3    H126067   4.364   5.896   5.384 -1.9550 -0.1296  1.6091
 8701TIP3    H226068   4.310   6.001   5.289 -0.3576 -0.1383  0.6550
 8702TIP3   OH226069   3.744   0.194   5.271  0.7121  0.4076  0.2727
 8702TIP3    H126070   3.745   0.250   5.194 -0.4023  1.6044  1.0814
 8702TIP3    H226071   3.825   0.216   5.318  1.4636 -0.4310 -0.5998
 8703TIP3   OH226072   1.798   1.528   2.096 -0.0624 -0.2552 -0.2219
 8703TIP3    H126073   1.882   1.575   2.102  0.1401 -0.5779 -0.4676
 8703TIP3    H226074   1.784   1.517   2.002  0.7643 -2.2199 -0.1598
 8704TIP3   OH226075   1.186   4.404   5.693 -0.1968  0.3162 -0.0873
 8704TIP3    H126076   1.170   4.331   5.753 -0.7598  0.2690 -0.2889
 8704TIP3    H226077   1.119   4.469   5.715 -0.1436  0.4730 -0.3826
 8705TIP3   OH226078   2.928   3.784   4.606  0.2288  0.5000 -0.0080
 8705TIP3    H126079   2.943   3.876   4.628  0.7404 -0.0942  2.4207
 8705TIP3    H226080   3.005   3.758   4.556  0.0124  1.3951 -0.8365
 8706TIP3   OH226081   6.301   1.324   5.232 -0.3096  0.1731 -0.1099
 8706TIP3    H126082   6.269   1.323   5.142 -1.1269 -0.0221  0.1811
 8706TIP3    H226083   6.241   1.267   5.280  0.9609 -0.8922  0.2806
 8707TIP3   OH226084   0.235   1.203   5.059  0.0455  0.1841 -0.6961
 8707TIP3    H126085   0.308   1.252   5.022  2.1356 -1.6274  0.7284
 8707TIP3    H226086   0.201   1.259   5.129  0.6903  0.6665 -0.7611
 8708TIP3   OH226087   5.790   4.757   0.386  0.2817  0.4216  0.1559
 8708TIP3    H126088   5.852   4.816   0.344 -0.7241  1.3351 -0.0770
 8708TIP3    H226089   5.705   4.801   0.379 -0.5545 -1.1522 -0.2541
 8709TIP3   OH226090   0.304   3.151   1.182 -0.0597 -0.1345  0.2790
 8709TIP3    H126091   0.345   3.067   1.165 -0.8586 -0.7222  1.1357
 8709TIP3    H226092   0.376   3.208   1.209  0.5976 -0.3125 -1.0365
 8710TIP3   OH226093   6.598   1.070   3.634 -0.2296  0.3465 -0.3826
 8710TIP3    H126094   6.579   1.160   3.661 -1.4589  0.0091 -0.0759
 8710TIP3    H226095   6.637   1.030   3.712  0.1861  0.5647 -0.4741
 8711TIP3   OH226096   4.178   6.653   4.937  0.3017  0.2630 -0.1939
 8711TIP3    H126097   4.226   6.570   4.924 -0.3350  0.0548 -1.3129
 8711TIP3    H226098   4.086   6.628   4.933  0.0993  0.8767  0.5373
 8712TIP3   OH226099   1.853   3.903   5.634  0.0218 -0.2040 -0.1048
 8712TIP3    H126100   1.834   3.848   5.558 -2.9098 -0.1691  0.4783
 8712TIP3    H226101   1.941   3.876   5.662 -0.6465 -3.5174 -0.7528
 8713TIP3   OH226102   6.170   6.755   2.767  0.1126  0.3341  0.1543
 8713TIP3    H126103   6.194   6.843   2.795 -1.7667  1.4109 -1.3229
 8713TIP3    H226104   6.087   6.737   2.811  0.6237 -0.8556  0.6809
 8714TIP3   OH226105   0.643   4.216   1.926  0.3987 -0.3540 -0.3833
 8714TIP3    H126106   0.621   4.124   1.944 -0.5025 -0.1436 -0.3707
 8714TIP3    H226107   0.636   4.259   2.011 -1.0966  0.0891 -0.6948
 8715TIP3   OH226108   0.422   3.530   4.522 -0.0564 -0.5792  0.1821
 8715TIP3    H126109   0.424   3.618   4.559 -1.7139 -1.0522  1.4834
 8715TIP3    H226110   0.349   3.531   4.460  0.2686 -0.8849 -0.2146
 8716TIP3   OH226111   5.614   3.998   4.598  0.0780 -0.1066  0.0934
 8716TIP3    H126112   5.553   4.054   4.645 -1.2384 -0.5198 -1.0557
 8716TIP3    H226113   5.576   3.988   4.511  1.7887 -0.3970 -0.6752
 8717TIP3   OH226114   6.624   3.538   3.264  0.5550 -0.1700  0.4106
 8717TIP3    H126115   6.610   3.606   3.331 -2.6304 -0.3279  0.0694
 8717TIP3    H226116   6.624   3.586   3.181 -1.1335 -0.4568  0.2090
 8718TIP3   OH226117   5.627   6.283   0.262 -0.0177  0.1819 -0.2506
 8718TIP3    H126118   5.695   6.245   0.317 -0.3305 -0.4394 -0.2923
 8718TIP3    H226119   5.611   6.217   0.195 -0.6024  0.3677 -0.2942
 8719TIP3   OH226120   6.759   3.588   5.268  0.1246 -0.1826 -0.2180
 8719TIP3    H126121   6.753   3.494   5.287 -1.5158 -0.1010 -0.1825
 8719TIP3    H226122   6.841   3.615   5.309  0.1173 -1.4050  0.6718
 8720TIP3   OH226123   3.302   4.206   1.081  0.3631 -0.3232 -0.2977
 8720TIP3    H126124   3.215   4.218   1.042 -0.1782  1.0205  1.2014
 8720TIP3    H226125   3.362   4.202   1.006 -0.9506 -1.0544 -1.3490
 8721TIP3   OH226126   2.403   3.704   4.181 -0.2407  0.7676 -0.9017
 8721TIP3    H126127   2.486   3.666   4.154 -0.5031  0.8081 -1.7947
 8721TIP3    H226128   2.345   3.630   4.198  0.6680  0.6351  2.1718
 8722TIP3   OH226129   1.158   0.956   4.814  0.3999 -0.0036  0.3413
 8722TIP3    H126130   1.077   0.933   4.769  0.2518  1.0370  0.0536
 8722TIP3    H226131   1.225   0.952   4.746  0.0727  2.2088 -0.1680
 8723TIP3   OH226132   4.926   0.891   3.855  0.0978 -0.3435 -0.7041
 8723TIP3    H126133   5.014   0.897   3.892 -0.1262 -1.0335 -0.0535
 8723TIP3    H226134   4.879   0.965   3.893  0.3406 -0.0617 -0.9373
 8724TIP3   OH226135   5.750   4.508   2.832  0.2716 -0.2035  0.0517
 8724TIP3    H126136   5.810   4.434   2.840 -0.1745 -0.5608  0.1351
 8724TIP3    H226137   5.739   4.520   2.738  0.5253 -0.0931  0.0354
 8725TIP3   OH226138   5.555   5.437   1.753 -0.2005 -0.3929 -0.4235
 8725TIP3    H126139   5.625   5.374   1.771  0.4109  0.5196  0.4769
 8725TIP3    H226140   5.491   5.387   1.701  0.0053 -1.9047  0.6978
 8726TIP3   OH226141   6.827   6.399   3.650  0.9006 -0.4487 -0.1915
 8726TIP3    H126142   6.758   6.342   3.683 -0.3955  0.4870 -1.2004
 8726TIP3    H226143   6.844   6.460   3.721  1.2059 -1.1061  0.3171
 8727TIP3   OH226144   1.421   6.242   1.053 -0.3759 -0.4525 -0.2239
 8727TIP3    H126145   1.506   6.208   1.080 -0.4809 -1.1254 -0.7136
 8727TIP3    H226146   1.435   6.275   0.964 -0.4438  0.1682 -0.0135
 8728TIP3   OH226147   3.876   4.432   4.199  0.1422 -0.4587 -0.7548
 8728TIP3    H126148   3.896   4.456   4.290  1.8215  2.2294 -1.7120
 8728TIP3    H226149   3.780   4.440   4.194  0.1169  0.5174  0.5169
 8729TIP3   OH226150   0.513   6.161   3.200 -0.1943 -0.0013  0.4074
 8729TIP3    H126151   0.512   6.197   3.111 -0.0550  1.7071  1.0532
 8729TIP3    H226152   0.422   6.165   3.228 -0.4002 -1.4832  0.0087
 8730TIP3   OH226153   4.929   4.447   4.838  0.4342  0.1033  0.3273
 8730TIP3    H126154   4.985   4.488   4.771 -0.7990  1.1368 -0.1141
 8730TIP3    H226155   4.967   4.476   4.921  2.1555 -1.4240  0.1360
 8731TIP3   OH226156   0.362   4.315   3.652  0.2082 -0.2157  0.0729
 8731TIP3    H126157   0.279   4.348   3.617  0.3867 -0.0709 -0.2199
 8731TIP3    H226158   0.420   4.310   3.576  1.0071  1.3491  0.5342
 8732TIP3   OH226159   1.312   4.726   2.434  0.2523 -0.9527  0.4047
 8732TIP3    H126160   1.312   4.660   2.364  0.2923 -1.1185  0.5625
 8732TIP3    H226161   1.362   4.687   2.505 -1.5424 -1.6567  1.3410
 8733TIP3   OH226162   4.526   2.021   0.175 -0.0357 -0.0699 -0.0722
 8733TIP3    H126163   4.433   2.040   0.165  0.1450  1.3680  0.6969
 8733TIP3    H226164   4.528   1.931   0.210 -1.0750 -0.4415 -0.9043
 8734TIP3   OH226165   3.252   3.400   2.624  0.0149 -0.4543  0.5863
 8734TIP3    H126166   3.335   3.355   2.633  1.2068  1.5235  0.1191
 8734TIP3    H226167   3.223   3.380   2.535  0.9227  0.2943  0.1079
 8735TIP3   OH226168   1.471   1.512   0.017 -0.2289  0.0085 -0.5264
 8735TIP3    H126169   1.500   1.420   0.021 -2.8417 -0.8972 -0.4312
 8735TIP3    H226170   1.438   1.531   0.104 -1.7422  0.2673 -1.1248
 8736TIP3   OH226171   7.190   6.570   1.068 -0.1938 -0.2184  0.3823
 8736TIP3    H126172   7.193   6.502   1.001 -0.9967 -0.9430  1.0475
 8736TIP3    H226173   7.203   6.652   1.020 -0.1608 -0.7644 -0.5705
 8737TIP3   OH226174   3.134   2.957   1.889 -0.6179  0.1731  0.3519
 8737TIP3    H126175   3.209   3.008   1.858 -0.2303 -0.6302 -0.0666
 8737TIP3    H226176   3.059   3.015   1.878  0.0327  1.2563  1.4524
 8738TIP3   OH226177   6.037   5.170   3.421  0.4371  0.0311  0.1003
 8738TIP3    H126178   6.034   5.165   3.516  0.8919  2.1889  0.2866
 8738TIP3    H226179   6.131   5.171   3.400  0.3395 -0.4934 -0.3790
 8739TIP3   OH226180   1.653   4.354   4.074  0.3395  0.0820 -0.0746
 8739TIP3    H126181   1.559   4.355   4.058  0.0230  0.4222  1.6893
 8739TIP3    H226182   1.692   4.361   3.986 -1.2432 -0.8934 -0.8934
 8740TIP3   OH226183   0.964   6.491   4.913 -0.8789  0.2048 -0.6219
 8740TIP3    H126184   0.925   6.422   4.966 -2.6762  0.6682 -1.2714
 8740TIP3    H226185   0.893   6.553   4.898  0.1356  1.1366 -1.8126
 8741TIP3   OH226186   1.143   4.570   2.232 -0.5661  0.2642 -0.7869
 8741TIP3    H126187   1.157   4.535   2.320 -1.1679 -0.7982 -1.0879
 8741TIP3    H226188   1.211   4.530   2.178  0.2950  1.5348 -0.6624
 8742TIP3   OH226189   3.921   4.843   0.018  0.1307 -0.1444 -0.3633
 8742TIP3    H126190   3.936   4.807   0.106  0.5131 -0.9325 -0.7443
 8742TIP3    H226191   3.831   4.816  -0.003  0.2124 -0.3755 -0.4142
 8743TIP3   OH226192   4.466   4.261   0.571 -0.5310  0.0876 -0.3885
 8743TIP3    H126193   4.447   4.263   0.665 -1.0592  1.0887 -0.5111
 8743TIP3    H226194   4.533   4.328   0.559 -0.8537  0.3386 -0.8101
 8744TIP3   OH226195   5.774   2.441   3.003 -0.0801  0.0683 -0.4206
 8744TIP3    H126196   5.827   2.465   2.926 -1.1471 -0.2754 -1.2802
 8744TIP3    H226197   5.741   2.525   3.035 -0.3159  0.1423 -0.8477
 8745TIP3   OH226198   4.666   1.002   3.184  0.0840  0.0699 -0.0401
 8745TIP3    H126199   4.618   0.950   3.248  0.2687  1.3534  1.2067
 8745TIP3    H226200   4.758   0.992   3.209  0.3307 -0.8985 -1.2712
 8746TIP3   OH226201   2.022   4.637   1.066  0.4055 -0.0012  0.9068
 8746TIP3    H126202   2.042   4.716   1.116  1.5315  0.5860 -0.4011
 8746TIP3    H226203   1.984   4.670   0.984  1.1231 -0.7867  0.2421
 8747TIP3   OH226204   6.176   5.339   2.054  0.1286 -0.3715 -0.8829
 8747TIP3    H126205   6.096   5.340   2.001 -0.5587 -0.2495  0.1096
 8747TIP3    H226206   6.198   5.431   2.066 -1.8406 -0.1398  2.0253
 8748TIP3   OH226207   3.621   3.640   5.196 -0.6061  0.2095  0.4611
 8748TIP3    H126208   3.699   3.695   5.207  0.4446 -1.2689  0.6233
 8748TIP3    H226209   3.548   3.700   5.211  0.4963  1.5374  0.7482
 8749TIP3   OH226210   0.860   4.708   2.564 -0.8510 -0.1259 -0.3799
 8749TIP3    H126211   0.777   4.680   2.603 -1.0000 -1.0844 -1.3294
 8749TIP3    H226212   0.861   4.803   2.575 -2.0112 -0.1178 -0.2177
 8750TIP3   OH226213   6.894   3.898   5.372  0.5001  0.2261  0.7043
 8750TIP3    H126214   6.902   3.833   5.441  1.4984 -0.3998  0.0289
 8750TIP3    H226215   6.812   3.876   5.327  0.3414  0.0424  1.0850
 8751TIP3   OH226216   6.522   6.794   1.878 -0.2005  0.1014  0.2551
 8751TIP3    H126217   6.454   6.729   1.861  0.8064 -1.2116  1.0816
 8751TIP3    H226218   6.532   6.795   1.973 -0.0819  1.3846  0.2568
 8752TIP3   OH226219   6.319   6.142   1.072 -0.0179  0.1494  0.2282
 8752TIP3    H126220   6.235   6.169   1.108 -0.2907 -0.7553  0.3159
 8752TIP3    H226221   6.360   6.222   1.041 -1.6778  0.4177 -1.4615
 8753TIP3   OH226222   3.632   5.132   1.195 -0.2943  0.4374  0.0501
 8753TIP3    H126223   3.578   5.119   1.118  0.4190  2.3334 -0.8195
 8753TIP3    H226224   3.590   5.203   1.243  0.3878  0.6583  0.3359
 8754TIP3   OH226225   3.390   3.882   1.731 -0.6025 -0.5131 -0.3911
 8754TIP3    H126226   3.303   3.898   1.693 -0.2348  0.5208 -0.8563
 8754TIP3    H226227   3.393   3.939   1.808 -0.1922 -0.2375 -0.6086
 8755TIP3   OH226228   5.721   5.280   0.053 -0.1987  0.3594 -0.6320
 8755TIP3    H126229   5.671   5.199   0.061  0.3007  0.0801 -0.2115
 8755TIP3    H226230   5.660   5.343   0.016 -0.8527  0.0268 -0.1363
 8756TIP3   OH226231   3.379   4.169   3.275  0.0257 -0.0002 -0.0455
 8756TIP3    H126232   3.447   4.224   3.314 -0.1138 -0.7462  1.3085
 8756TIP3    H226233   3.360   4.103   3.342 -1.2865 -0.4427 -0.8183
 8757TIP3   OH226234   3.400   3.476   5.768 -0.4110 -0.5023  0.1838
 8757TIP3    H126235   3.421   3.533   5.843 -0.3104  0.6500 -0.6894
 8757TIP3    H226236   3.320   3.431   5.794 -0.1374 -0.4451  1.1626
 8758TIP3   OH226237   3.740   2.977   0.482  0.1444 -0.3694 -0.1556
 8758TIP3    H126238   3.836   2.987   0.478  0.1827 -0.2489  0.7886
 8758TIP3    H226239   3.724   2.891   0.442  0.9670 -1.7816  2.2883
 8759TIP3   OH226240   2.537   2.902   5.511 -0.4978  0.2114  0.3583
 8759TIP3    H126241   2.499   2.905   5.599  1.1236  2.5232  1.0830
 8759TIP3    H226242   2.479   2.956   5.458 -1.4116 -1.0891 -0.0155
 8760TIP3   OH226243   4.738   6.253   2.071  0.3408 -0.7676  0.5025
 8760TIP3    H126244   4.752   6.208   1.988  2.7267  0.4390  0.1831
 8760TIP3    H226245   4.685   6.329   2.048  2.4282  0.5220 -0.3129
 8761TIP3   OH226246   5.014   5.775   4.280  0.3326 -0.0958 -0.0913
 8761TIP3    H126247   4.949   5.799   4.346 -0.0081 -0.5151 -0.2718
 8761TIP3    H226248   5.098   5.790   4.323  0.1217  0.8703 -0.0097
 8762TIP3   OH226249   4.254   1.867   2.831  0.4679 -0.0458  0.1917
 8762TIP3    H126250   4.281   1.786   2.875  0.5343  0.2261  0.6502
 8762TIP3    H226251   4.313   1.934   2.865 -0.0380  0.3316  0.3417
 8763TIP3   OH226252   3.418   0.962   5.820 -0.5843  0.0207 -0.7536
 8763TIP3    H126253   3.481   0.891   5.830  1.2017  1.6883  0.8731
 8763TIP3    H226254   3.360   0.954   5.896 -1.3471 -0.5708 -1.3890
 8764TIP3   OH226255   3.652   5.925   4.013 -0.3422  0.0608  0.2331
 8764TIP3    H126256   3.573   5.947   4.062 -0.4319 -0.5644  0.3826
 8764TIP3    H226257   3.661   5.830   4.024  0.7455  0.2004  0.6856
 8765TIP3   OH226258   4.730   4.246   1.694 -0.3753 -0.3250  0.4730
 8765TIP3    H126259   4.644   4.203   1.696 -0.5741  0.0049 -0.5905
 8765TIP3    H226260   4.786   4.186   1.645 -0.7889  0.8300 -1.4819
 8766TIP3   OH226261   2.239   0.261   0.359  0.1462 -0.2278  0.3559
 8766TIP3    H126262   2.190   0.343   0.351  2.2112  0.9037 -2.9748
 8766TIP3    H226263   2.298   0.275   0.433  1.7484  2.1840 -1.2154
 8767TIP3   OH226264   5.849   1.407   1.931  0.1827  0.2529  0.3847
 8767TIP3    H126265   5.826   1.402   2.024 -0.9940  1.4893  0.1947
 8767TIP3    H226266   5.910   1.480   1.924 -0.0639  0.4421  0.1431
 8768TIP3   OH226267   5.534   1.817   5.562  0.1131 -0.6617 -0.1964
 8768TIP3    H126268   5.612   1.845   5.608  0.4363 -0.8178 -0.6421
 8768TIP3    H226269   5.496   1.749   5.617  0.1871 -0.4597  0.1078
 8769TIP3   OH226270   4.351   3.407   3.412 -0.0962 -0.6102 -0.0795
 8769TIP3    H126271   4.407   3.447   3.478  0.4742 -3.0663  1.0261
 8769TIP3    H226272   4.262   3.428   3.440  0.0799 -2.4860  2.1873
 8770TIP3   OH226273   2.695   6.616   0.674  0.2253  0.2104 -0.1823
 8770TIP3    H126274   2.714   6.708   0.655 -2.5868  0.6260 -1.5903
 8770TIP3    H226275   2.644   6.618   0.755  1.5283 -0.3099  0.6741
 8771TIP3   OH226276   6.628   5.298   5.445  0.2247 -0.0815  0.1139
 8771TIP3    H126277   6.571   5.336   5.378  0.4925  1.5550  0.7703
 8771TIP3    H226278   6.579   5.308   5.527  0.5166 -0.7450  0.3765
 8772TIP3   OH226279   6.098   6.621   3.145  0.6229 -0.0890 -0.1161
 8772TIP3    H126280   6.178   6.674   3.149  0.1423  0.5670  0.9541
 8772TIP3    H226281   6.059   6.629   3.231  0.3958 -1.9970 -0.0008
 8773TIP3   OH226282   2.274   6.594   5.216 -0.4979  0.5052  0.1321
 8773TIP3    H126283   2.319   6.547   5.286 -0.5269  0.3399  0.0390
 8773TIP3    H226284   2.264   6.683   5.250 -2.4545 -0.0884  1.2663
 8774TIP3   OH226285   1.443   6.311   3.128  0.0224 -0.4427  0.1779
 8774TIP3    H126286   1.454   6.291   3.035  0.7815  1.3471 -0.1597
 8774TIP3    H226287   1.422   6.404   3.130 -0.3230 -0.5332  1.7868
 8775TIP3   OH226288   2.821   5.941   1.004  0.7795 -0.1547 -0.3120
 8775TIP3    H126289   2.740   5.978   0.969  0.1179  0.1606  1.4315
 8775TIP3    H226290   2.865   5.903   0.928 -0.0236  1.4400 -1.6431
 8776TIP3   OH226291   6.518   1.183   4.449 -0.0657 -0.5328  1.0286
 8776TIP3    H126292   6.439   1.235   4.465 -0.6545 -1.0053 -0.2178
 8776TIP3    H226293   6.587   1.248   4.436 -0.2400 -0.1148  2.1347
 8777TIP3   OH226294   3.127   6.107   5.003  0.1690  0.2188  0.0689
 8777TIP3    H126295   3.055   6.140   4.949  0.3604  0.6107  0.0520
 8777TIP3    H226296   3.084   6.067   5.079 -0.0612  0.5518  0.1153
 8778TIP3   OH226297   4.371   4.916   3.697  0.5613 -0.2120  0.3673
 8778TIP3    H126298   4.331   4.930   3.611  0.0778  1.2321  0.8004
 8778TIP3    H226299   4.391   4.822   3.699  2.4005  0.0178 -2.0905
 8779TIP3   OH226300   1.828   3.117   3.991 -0.2858 -0.4830 -0.2520
 8779TIP3    H126301   1.778   3.044   4.026 -0.4210 -0.0810  0.4106
 8779TIP3    H226302   1.848   3.172   4.067  1.3005 -0.7049 -0.4608
 8780TIP3   OH226303   0.551   1.524   0.904  0.4285  0.6111  0.1996
 8780TIP3    H126304   0.608   1.500   0.831 -0.0365 -2.0481  0.5879
 8780TIP3    H226305   0.463   1.525   0.867  0.3869  1.2746  0.3101
 8781TIP3   OH226306   5.030   2.449   4.222  0.0880 -0.2852  0.9323
 8781TIP3    H126307   4.958   2.475   4.279 -0.5630 -2.1563  1.0570
 8781TIP3    H226308   5.021   2.504   4.145 -3.0543 -2.0387 -0.1482
 8782TIP3   OH226309   4.602   2.378   0.478 -0.1843  0.8013 -0.6415
 8782TIP3    H126310   4.612   2.297   0.527  0.2760  1.3217  0.1459
 8782TIP3    H226311   4.636   2.357   0.391 -0.6194 -0.0108 -0.6275
 8783TIP3   OH226312   5.098   2.234   2.059  0.5157 -0.1935  0.0465
 8783TIP3    H126313   5.018   2.196   2.094 -0.2538 -0.3016 -1.7094
 8783TIP3    H226314   5.133   2.166   2.000  1.9014 -0.1374  0.7598
 8784TIP3   OH226315   2.292   0.154   4.841  0.5338 -0.1609  0.1057
 8784TIP3    H126316   2.267   0.164   4.749 -0.4674 -0.4121  0.3383
 8784TIP3    H226317   2.315   0.062   4.850 -0.4985 -0.4081  0.3570
 8785TIP3   OH226318   4.917   3.226   4.399  0.5349 -0.6415  0.3276
 8785TIP3    H126319   4.991   3.230   4.458 -0.7792 -2.9170  2.2830
 8785TIP3    H226320   4.842   3.208   4.455 -0.8319 -2.7561 -1.9779
 8786TIP3   OH226321   1.930   1.117   0.340 -0.3017 -0.2207 -0.5890
 8786TIP3    H126322   1.938   1.031   0.380 -1.9254 -0.7483 -1.3119
 8786TIP3    H226323   1.967   1.107   0.252  1.9119  0.5532  0.1849
 8787TIP3   OH226324   1.219   2.601   2.425  0.1421 -0.3232 -0.2329
 8787TIP3    H126325   1.169   2.677   2.395  0.1159 -0.4364 -0.4827
 8787TIP3    H226326   1.157   2.549   2.477  0.2197 -0.0663  0.1178
 8788TIP3   OH226327   4.426   4.255   0.833  0.6793  0.1308 -0.0148
 8788TIP3    H126328   4.347   4.280   0.880  0.2752  0.9591 -1.1051
 8788TIP3    H226329   4.478   4.207   0.898 -0.8928 -0.8381  0.5931
 8789TIP3   OH226330   3.593   3.081   4.536  0.4925  0.8820  0.0322
 8789TIP3    H126331   3.586   3.149   4.603  1.8291  0.8652  0.2151
 8789TIP3    H226332   3.560   3.002   4.580 -0.8942  1.3357 -0.1243
 8790TIP3   OH226333   2.218   0.458   5.221  0.8943 -1.2301  0.0498
 8790TIP3    H126334   2.133   0.494   5.196  0.8331 -1.4021  0.0104
 8790TIP3    H226335   2.259   0.528   5.271  1.2522 -0.6608 -1.0026
 8791TIP3   OH226336   0.004   4.343   1.461  0.0793 -0.4891  0.2384
 8791TIP3    H126337   0.042   4.426   1.490  2.3615 -1.6067  0.6339
 8791TIP3    H226338   0.031   4.335   1.369 -0.6810 -0.5229  0.0065
 8792TIP3   OH226339   2.533   5.288   0.397 -0.3286 -0.5953 -0.2936
 8792TIP3    H126340   2.467   5.284   0.328 -1.7716 -2.6332  1.0862
 8792TIP3    H226341   2.595   5.218   0.376 -0.0475 -0.3767 -0.2033
 8793TIP3   OH226342   4.965   4.944   3.547 -0.2109 -0.5931  0.7730
 8793TIP3    H126343   4.917   5.026   3.557 -0.2689 -0.0404 -2.6913
 8793TIP3    H226344   5.048   4.970   3.507  1.3801 -1.9407  2.9878
 8794TIP3   OH226345   3.609   5.521   1.947  0.4843  0.3197 -0.0463
 8794TIP3    H126346   3.543   5.479   1.892 -1.5111 -1.0850  3.1202
 8794TIP3    H226347   3.677   5.455   1.959 -0.8886 -0.8502  1.9818
 8795TIP3   OH226348   5.401   0.974   3.543 -0.3200 -0.2007  0.1361
 8795TIP3    H126349   5.356   0.893   3.522 -0.6632  0.1851 -0.6676
 8795TIP3    H226350   5.331   1.037   3.560 -0.0551 -0.1820  1.2299
 8796TIP3   OH226351   6.682   6.273   3.853 -0.3131 -0.2879  0.0594
 8796TIP3    H126352   6.587   6.281   3.866 -0.3002 -0.0543  0.0196
 8796TIP3    H226353   6.720   6.328   3.921 -0.2388  0.6271 -0.7028
 8797TIP3   OH226354   3.591   6.720   3.867 -0.1568 -0.6831 -0.1876
 8797TIP3    H126355   3.685   6.707   3.860 -0.1543 -0.0549 -1.7610
 8797TIP3    H226356   3.554   6.631   3.869  0.4572 -0.9280  0.2865
 8798TIP3   OH226357   6.832   5.368   3.216 -0.4252  0.0589  0.0542
 8798TIP3    H126358   6.869   5.298   3.269 -1.2481  1.3779  2.5156
 8798TIP3    H226359   6.906   5.427   3.200  0.0173 -0.7673 -1.0705
 8799TIP3   OH226360   2.550   6.106   1.401 -0.0542  0.5964  0.7356
 8799TIP3    H126361   2.622   6.053   1.369 -1.5751 -0.0134 -1.9735
 8799TIP3    H226362   2.576   6.131   1.490  4.0529  1.5853 -0.5406
 8800TIP3   OH226363   2.388   4.394   4.636 -0.1109  0.0893 -0.1015
 8800TIP3    H126364   2.395   4.479   4.679 -0.9091 -0.8550  2.0594
 8800TIP3    H226365   2.473   4.352   4.651 -0.4380 -0.2963  0.7466
 8801TIP3   OH226366   5.553   5.451   2.354 -0.2108  0.0680 -0.4108
 8801TIP3    H126367   5.466   5.466   2.319 -0.4674  0.1143  0.2277
 8801TIP3    H226368   5.572   5.528   2.408  0.5112  0.3792 -1.0887
 8802TIP3   OH226369   4.617   0.468   3.739  0.6379  0.0280  0.4918
 8802TIP3    H126370   4.670   0.405   3.788 -1.4762 -0.6450  2.0229
 8802TIP3    H226371   4.529   0.432   3.740 -0.2222  1.9698 -0.4654
 8803TIP3   OH226372   4.489   1.112   5.255 -0.4052  0.2686 -0.4704
 8803TIP3    H126373   4.449   1.115   5.342  0.7767 -1.1645  0.1615
 8803TIP3    H226374   4.417   1.088   5.197 -0.5249 -2.7254  0.7143
 8804TIP3   OH226375   2.761   2.351   3.971 -0.5327 -0.6210  0.4562
 8804TIP3    H126376   2.800   2.294   4.037 -2.2776 -2.7758 -0.2279
 8804TIP3    H226377   2.719   2.421   4.021  1.5981  0.1092  1.3295
 8805TIP3   OH226378   5.907   2.811   3.788  0.1044 -0.0338  0.0688
 8805TIP3    H126379   5.844   2.815   3.861 -0.8093 -0.9727 -0.6382
 8805TIP3    H226380   5.885   2.887   3.734 -0.7988 -0.6609 -0.4604
 8806TIP3   OH226381   1.221   6.338   5.767 -0.2485 -0.4924 -0.4936
 8806TIP3    H126382   1.213   6.244   5.749 -0.6994 -0.2962 -1.3402
 8806TIP3    H226383   1.266   6.373   5.690  0.3522 -0.0786  0.0329
 8807TIP3   OH226384   3.819   5.384   2.049 -0.2438  0.3605 -0.3821
 8807TIP3    H126385   3.871   5.319   2.003 -0.1907  0.5326 -0.5653
 8807TIP3    H226386   3.882   5.433   2.101 -0.3881 -0.2852  0.4246
 8808TIP3   OH226387   6.284   3.476   5.148  0.2737 -0.7425 -0.2200
 8808TIP3    H126388   6.284   3.518   5.234  0.4898 -0.1805 -0.4843
 8808TIP3    H226389   6.357   3.415   5.150  1.0338  0.1341 -0.4010
 8809TIP3   OH226390   6.666   2.371   3.566 -0.8003 -0.1818 -0.2824
 8809TIP3    H126391   6.755   2.408   3.563 -1.8520  2.6329 -0.1871
 8809TIP3    H226392   6.677   2.283   3.602  2.1504 -0.7233 -2.1796
 8810TIP3   OH226393   2.419   4.314   1.055 -0.7781 -0.4807 -0.1661
 8810TIP3    H126394   2.422   4.348   0.966 -2.5408 -2.2295 -0.9678
 8810TIP3    H226395   2.361   4.374   1.102  0.8681  0.9701  0.1242
 8811TIP3   OH226396   2.889   4.887   5.825  0.1111  0.1958  0.7831
 8811TIP3    H126397   2.861   4.978   5.820 -0.2350  0.1660  1.8403
 8811TIP3    H226398   2.953   4.886   5.896  1.9080  0.0291 -0.7713
 8812TIP3   OH226399   3.670   4.802   1.570 -0.2121 -0.2555  0.1796
 8812TIP3    H126400   3.645   4.880   1.619 -0.1158 -0.5586  0.7258
 8812TIP3    H226401   3.715   4.835   1.493 -0.3165  0.2304  0.3223
 8813TIP3   OH226402   0.893   6.190   3.455  0.2939 -0.0496  0.1121
 8813TIP3    H126403   0.847   6.122   3.505 -0.3345 -0.8463 -1.5007
 8813TIP3    H226404   0.874   6.271   3.503 -1.7282 -0.5411  0.2224
 8814TIP3   OH226405   5.507   5.869   5.142 -0.3889 -0.2982  0.1852
 8814TIP3    H126406   5.474   5.880   5.052 -0.4922 -1.2430  0.0927
 8814TIP3    H226407   5.585   5.815   5.132  0.0823  0.3015  0.5914
 8815TIP3   OH226408   2.855   3.373   4.261  0.2355  0.2575 -0.1376
 8815TIP3    H126409   2.804   3.424   4.325  1.1382 -0.8647  1.5788
 8815TIP3    H226410   2.939   3.417   4.256  0.2879  0.1434 -0.2655
 8816TIP3   OH226411   5.676   4.170   1.780  0.5355  0.1279  0.7647
 8816TIP3    H126412   5.688   4.132   1.867  0.1438  1.1927  1.3086
 8816TIP3    H226413   5.615   4.243   1.794 -0.1804 -0.1822 -0.5411
 8817TIP3   OH226414   2.362   1.136   0.942  0.0551 -0.2657  0.2786
 8817TIP3    H126415   2.441   1.174   0.904  0.6554 -0.9249  0.8392
 8817TIP3    H226416   2.360   1.046   0.909 -0.6861 -0.1290 -0.0633
 8818TIP3   OH226417   4.166   4.298   3.469  0.3021  0.2322 -0.2558
 8818TIP3    H126418   4.104   4.341   3.410 -0.4200 -0.3051  0.0969
 8818TIP3    H226419   4.187   4.365   3.534 -1.0434 -0.0221  0.4582
 8819TIP3   OH226420   1.362   4.521   3.875 -0.3011 -0.7342 -0.1281
 8819TIP3    H126421   1.408   4.543   3.956 -0.5866 -0.0472 -0.1466
 8819TIP3    H226422   1.429   4.530   3.807 -0.1848 -0.8239 -0.0270
 8820TIP3   OH226423   5.294   2.801   3.819  0.2685 -0.1726 -0.0452
 8820TIP3    H126424   5.377   2.817   3.774  0.5060 -0.2374  0.3669
 8820TIP3    H226425   5.302   2.712   3.854 -0.0278 -0.2299 -0.1164
 8821TIP3   OH226426   2.825   2.102   1.332 -0.0580  0.3471 -0.3304
 8821TIP3    H126427   2.867   2.022   1.302  1.6704  0.6742  1.0649
 8821TIP3    H226428   2.898   2.163   1.346 -0.8368  0.6687  3.0315
 8822TIP3   OH226429   1.413   0.504   3.617 -0.3551  0.2217  0.0746
 8822TIP3    H126430   1.469   0.433   3.647 -0.3765 -0.4046 -1.3334
 8822TIP3    H226431   1.473   0.574   3.594 -0.1389 -0.3884 -1.2736
 8823TIP3   OH226432   0.682   3.681   3.196 -0.5011 -0.1423 -0.2371
 8823TIP3    H126433   0.732   3.635   3.128 -1.1968 -0.4635 -0.5382
 8823TIP3    H226434   0.625   3.741   3.147  1.0003  1.7369  0.1599
 8824TIP3   OH226435   4.990   5.911   5.124 -0.4985  0.1043 -0.0831
 8824TIP3    H126436   5.039   5.985   5.090 -0.2634  0.3411  0.7455
 8824TIP3    H226437   4.956   5.941   5.208  1.7619 -1.5166  1.5356
 8825TIP3   OH226438   6.987   2.408   0.607 -0.1530  0.4063  0.7181
 8825TIP3    H126439   6.976   2.471   0.678 -0.8584  1.7530 -0.5238
 8825TIP3    H226440   7.074   2.428   0.571 -0.9301  1.6823 -0.5607
 8826TIP3   OH226441   6.557  -0.007   5.420 -0.6088 -0.2664 -0.0805
 8826TIP3    H126442   6.623   0.044   5.466 -1.0067 -0.2526  0.4914
 8826TIP3    H226443   6.569   0.015   5.328 -0.2983  0.2942  0.0911
 8827TIP3   OH226444   5.912   4.266   3.941 -0.0156  0.2360  0.5281
 8827TIP3    H126445   5.951   4.235   3.860  0.2865  1.0414  0.3535
 8827TIP3    H226446   5.986   4.295   3.994 -0.2782  0.5662  0.7192
 8828TIP3   OH226447   6.090   0.251   2.225  0.0118 -0.1041  0.7281
 8828TIP3    H126448   6.066   0.178   2.167 -2.0121  1.3935 -0.4972
 8828TIP3    H226449   6.022   0.251   2.292  0.5277  0.1019  1.2557
 8829TIP3   OH226450   1.978   1.117   1.128  0.9568  0.0758  0.3344
 8829TIP3    H126451   1.927   1.056   1.182 -0.7009  0.5619 -0.6222
 8829TIP3    H226452   2.064   1.120   1.171  0.4641 -1.4071  1.5285
 8830TIP3   OH226453   1.762   4.209   5.190  0.0018 -0.3098 -0.3712
 8830TIP3    H126454   1.671   4.202   5.220 -0.6072 -1.0911 -2.2466
 8830TIP3    H226455   1.809   4.141   5.239 -0.7050 -0.7818 -0.3309
 8831TIP3   OH226456   1.399   0.762   3.352 -0.2227 -0.2332  0.1645
 8831TIP3    H126457   1.324   0.710   3.324 -1.9582  1.5664  1.1767
 8831TIP3    H226458   1.361   0.829   3.409  2.0131  1.4819 -0.2301
 8832TIP3   OH226459   0.531   4.623   1.945  0.1050 -0.0589 -0.6577
 8832TIP3    H126460   0.463   4.588   2.002  0.6301  1.0243  0.6676
 8832TIP3    H226461   0.505   4.714   1.930  2.0109  0.8521  1.1518
 8833TIP3   OH226462   2.607   5.600   0.543  0.0919  0.4058  0.5077
 8833TIP3    H126463   2.572   5.587   0.455  0.3753  0.3342  0.4068
 8833TIP3    H226464   2.545   5.662   0.584 -0.6625 -0.4140  0.6372
 8834TIP3   OH226465   3.200   1.375   4.258  0.1508 -0.3607  0.4759
 8834TIP3    H126466   3.140   1.333   4.319 -0.0321 -0.5513  0.1701
 8834TIP3    H226467   3.287   1.361   4.295 -0.0866  1.2514  1.7293
 8835TIP3   OH226468   5.609   5.000   5.590 -0.0056 -0.6144 -0.4921
 8835TIP3    H126469   5.692   5.047   5.581  1.1159 -2.3092  0.5362
 8835TIP3    H226470   5.565   5.044   5.663  1.0202 -1.0911  0.4455
 8836TIP3   OH226471   6.382   6.663   0.506  0.0945  0.1336 -0.2074
 8836TIP3    H126472   6.416   6.596   0.445 -0.3397  0.2648 -0.5955
 8836TIP3    H226473   6.428   6.645   0.588  0.0976 -0.5547 -0.3463
 8837TIP3   OH226474   1.407   0.399   1.553 -0.8555  0.4990  0.0120
 8837TIP3    H126475   1.396   0.314   1.595 -0.4469  0.6954  0.5213
 8837TIP3    H226476   1.435   0.458   1.623  0.1370  0.7614 -0.5921
 8838TIP3   OH226477   3.839   3.960   0.776 -0.5926 -0.7901  0.0349
 8838TIP3    H126478   3.913   4.000   0.822  0.0525 -0.4893 -1.1871
 8838TIP3    H226479   3.859   3.976   0.683 -1.6452 -1.6800 -0.3565
 8839TIP3   OH226480   6.616   5.297   1.385 -0.1225  0.0132  0.1818
 8839TIP3    H126481   6.595   5.389   1.373  1.3551  0.2300 -1.0590
 8839TIP3    H226482   6.700   5.297   1.430  1.0107 -0.6323 -1.8001
 8840TIP3   OH226483   2.420   4.872   4.417 -0.1929 -0.4542 -0.7818
 8840TIP3    H126484   2.380   4.929   4.483  2.6386  0.2959  0.4544
 8840TIP3    H226485   2.352   4.810   4.394 -1.7080  0.0614  1.9155
 8841TIP3   OH226486   5.676   0.247   3.978  0.4637  0.4494 -0.1221
 8841TIP3    H126487   5.630   0.229   3.895 -0.2247  2.1012 -0.1544
 8841TIP3    H226488   5.767   0.260   3.953  0.5977 -0.8613 -0.3528
 8842TIP3   OH226489   3.791   1.340   0.828  0.5646 -0.2590  0.8172
 8842TIP3    H126490   3.819   1.315   0.916  1.5113  3.0312  1.5900
 8842TIP3    H226491   3.866   1.386   0.791 -0.3137 -0.3289 -1.1849
 8843TIP3   OH226492   5.940   2.174   3.607  0.3578 -0.5714 -0.0057
 8843TIP3    H126493   5.955   2.093   3.557 -0.8600 -0.1928 -1.0264
 8843TIP3    H226494   6.025   2.191   3.649  1.5263 -0.8010 -2.1093
 8844TIP3   OH226495   5.411   4.863   2.283  0.4008 -0.4584  0.3826
 8844TIP3    H126496   5.456   4.807   2.347  0.1347 -2.0785 -0.7744
 8844TIP3    H226497   5.462   4.852   2.202  0.1745  0.7911  0.0491
 8845TIP3   OH226498   0.264   3.917   4.218  0.2443  0.4130  0.6794
 8845TIP3    H126499   0.199   3.944   4.283 -1.3389 -0.5401 -0.4397
 8845TIP3    H226500   0.323   3.858   4.267 -1.7786 -1.4754  1.0054
 8846TIP3   OH226501   6.900   6.788   0.540  0.0786  0.7975  0.0445
 8846TIP3    H126502   6.971   6.724   0.552 -0.4928 -0.1648 -1.4691
 8846TIP3    H226503   6.934   6.849   0.475 -0.4020  0.4497 -0.5369
 8847TIP3   OH226504   2.114   6.212   2.005  0.5780 -0.4036 -0.1633
 8847TIP3    H126505   2.152   6.299   2.015 -0.4387  0.3689 -2.4836
 8847TIP3    H226506   2.050   6.205   2.076  0.3433  0.9354 -0.2326
 8848TIP3   OH226507   6.016   0.869   4.895  0.5968  0.1499 -0.6529
 8848TIP3    H126508   6.063   0.879   4.977  1.7826 -1.2177 -1.1292
 8848TIP3    H226509   6.051   0.789   4.857 -1.6131 -0.5419 -1.3781
 8849TIP3   OH226510   0.359   3.486   4.959  0.1337  0.7053 -0.1021
 8849TIP3    H126511   0.313   3.410   4.994  0.8483  0.1821 -0.2692
 8849TIP3    H226512   0.293   3.533   4.907 -0.1578 -0.1521 -0.5242
 8850TIP3   OH226513   6.358   4.629   4.920  0.3811  0.1050 -0.0396
 8850TIP3    H126514   6.302   4.684   4.975  0.0520  0.0697 -0.3338
 8850TIP3    H226515   6.443   4.674   4.920 -0.1363  1.1460 -1.0428
 8851TIP3   OH226516   5.032   0.503   4.433 -0.3111  0.2912 -0.7321
 8851TIP3    H126517   4.972   0.472   4.500 -0.1651 -1.4625 -1.3398
 8851TIP3    H226518   5.101   0.548   4.481 -2.1008  2.4417 -0.0238
 8852TIP3   OH226519   3.777   1.538   3.376 -0.2603  0.0571  0.3065
 8852TIP3    H126520   3.685   1.561   3.367  0.0127  0.9957 -0.3011
 8852TIP3    H226521   3.778   1.443   3.380 -1.2015 -0.0020 -0.4660
 8853TIP3   OH226522   0.401   2.330   4.373  0.3160  0.0267 -0.2332
 8853TIP3    H126523   0.401   2.390   4.447 -0.3670 -0.1538 -0.0777
 8853TIP3    H226524   0.310   2.302   4.364  0.5593 -0.7316 -0.5033
 8854TIP3   OH226525   6.421   1.915   1.631  0.2042 -0.3014 -0.1750
 8854TIP3    H126526   6.360   1.877   1.568  0.0776 -0.6222  0.1434
 8854TIP3    H226527   6.489   1.955   1.576 -0.5397  0.4887 -0.5438
 8855TIP3   OH226528   3.212   4.774   1.021  0.6475 -0.2144 -0.3994
 8855TIP3    H126529   3.120   4.750   1.020  0.6986 -0.5180  0.8880
 8855TIP3    H226530   3.250   4.731   0.945 -0.2926  0.0102 -0.9999
 8856TIP3   OH226531   2.043   0.394   1.354  0.1034  0.3038  0.1610
 8856TIP3    H126532   1.987   0.319   1.335  1.4654 -0.2887 -1.8426
 8856TIP3    H226533   2.068   0.383   1.446 -1.9537 -0.1089  0.7176
 8857TIP3   OH226534   0.754   4.135   1.581  0.1005 -0.4422  0.1556
 8857TIP3    H126535   0.746   4.044   1.551  1.6049 -0.6501  0.2967
 8857TIP3    H226536   0.832   4.134   1.637  0.3068  0.9963 -0.0806
 8858TIP3   OH226537   4.404   0.990   4.403 -0.0715  0.1085  0.2149
 8858TIP3    H126538   4.482   0.942   4.429 -0.4860 -1.9898 -1.9607
 8858TIP3    H226539   4.333   0.948   4.451 -0.1782  0.0874  0.0399
 8859TIP3   OH226540   1.604   3.307   0.993 -0.0447 -0.1435 -0.0165
 8859TIP3    H126541   1.588   3.273   1.081 -0.7945  0.3430  0.0410
 8859TIP3    H226542   1.697   3.327   0.992  0.4153 -2.0552 -0.0099
 8860TIP3   OH226543   7.114   2.574   4.357 -0.2804  0.2112  0.3124
 8860TIP3    H126544   7.151   2.660   4.338  1.0998 -0.6444 -1.1350
 8860TIP3    H226545   7.145   2.519   4.285 -2.0931 -1.2371  0.5771
 8861TIP3   OH226546   1.074   3.253   3.667  0.1437 -0.8888 -0.5117
 8861TIP3    H126547   1.002   3.220   3.720  0.1828  0.3537  0.3765
 8861TIP3    H226548   1.146   3.192   3.682 -0.1484 -1.0767  0.1211
 8862TIP3   OH226549   5.937  -0.015   2.833 -0.3027 -0.2785 -0.2123
 8862TIP3    H126550   6.014   0.034   2.803  0.7730 -2.1087 -0.6389
 8862TIP3    H226551   5.866   0.049   2.833  1.2536  1.5616  0.4638
 8863TIP3   OH226552   5.116   4.854   2.901  0.2177  0.5334 -0.0613
 8863TIP3    H126553   5.186   4.831   2.961 -0.6513  0.6582  1.0466
 8863TIP3    H226554   5.097   4.946   2.922 -0.4836  0.4031 -0.1039
 8864TIP3   OH226555   5.637   5.156   3.776 -0.8198 -0.8053  0.4048
 8864TIP3    H126556   5.666   5.207   3.700  0.8069  0.1189  1.5938
 8864TIP3    H226557   5.542   5.166   3.777 -0.6484  1.2815 -0.0643
 8865TIP3   OH226558   6.803   5.706   0.109 -0.3877  0.3585  0.4926
 8865TIP3    H126559   6.731   5.756   0.070 -0.4245  1.2650  1.6889
 8865TIP3    H226560   6.882   5.745   0.071 -0.4537  0.7188  0.7207
 8866TIP3   OH226561   0.491   0.733   5.178  0.0415 -0.0067 -0.2142
 8866TIP3    H126562   0.477   0.644   5.210  1.9056  0.3495  1.8439
 8866TIP3    H226563   0.405   0.761   5.148 -0.0917 -3.5111 -3.9228
 8867TIP3   OH226564   4.947   3.439   0.167  0.4571  0.2732 -0.0718
 8867TIP3    H126565   4.869   3.493   0.184  1.2113  1.5116 -0.4294
 8867TIP3    H226566   4.970   3.457   0.076 -0.5297 -2.3729 -0.9382
 8868TIP3   OH226567   0.905   4.749   2.265  0.4814  0.2295 -0.1786
 8868TIP3    H126568   0.980   4.699   2.233  0.2213 -0.8597  0.8050
 8868TIP3    H226569   0.942   4.810   2.329  0.7343  0.9500 -0.9934
 8869TIP3   OH226570   1.291   5.204   3.269 -0.7583  0.1508 -0.5555
 8869TIP3    H126571   1.286   5.125   3.322  0.2264 -0.4962 -1.3971
 8869TIP3    H226572   1.203   5.214   3.233 -1.7634  1.1812  1.9289
 8870TIP3   OH226573   0.757   1.631   3.666  0.3613 -0.6218  0.5275
 8870TIP3    H126574   0.838   1.635   3.615 -0.0673 -2.7582 -0.4173
 8870TIP3    H226575   0.713   1.714   3.647  2.3697  0.6560  1.2055
 8871TIP3   OH226576   1.699   4.600   5.835  0.2630 -0.1961 -0.2940
 8871TIP3    H126577   1.707   4.506   5.817  2.3170 -0.0949 -0.1391
 8871TIP3    H226578   1.622   4.607   5.892 -0.3986 -1.6685 -0.9433
 8872TIP3   OH226579   6.600   0.721   5.374 -0.0869 -0.6091  0.4930
 8872TIP3    H126580   6.646   0.727   5.290  0.9384 -0.3888  1.0476
 8872TIP3    H226581   6.648   0.653   5.422 -1.6129 -1.8500  0.3454
 8873TIP3   OH226582   1.662   4.138   3.621  0.5245  0.3973 -0.2232
 8873TIP3    H126583   1.601   4.080   3.576 -0.9140  1.8602 -0.2427
 8873TIP3    H226584   1.713   4.080   3.677 -0.7312 -0.9003 -0.3602
 8874TIP3   OH226585   5.951   6.544   5.381  0.1633 -0.4789  0.3017
 8874TIP3    H126586   5.948   6.557   5.475 -0.4186 -1.0408  0.3708
 8874TIP3    H226587   6.015   6.607   5.349 -0.5816  0.6293  0.9251
 8875TIP3   OH226588   4.029   4.368   2.569 -0.3491  0.3487 -0.1145
 8875TIP3    H126589   4.075   4.294   2.610 -0.5271  0.1828 -0.2092
 8875TIP3    H226590   4.098   4.431   2.549 -0.0730 -0.1593 -0.8172
 8876TIP3   OH226591   2.337   0.425   3.804 -0.1120  0.1005  0.1000
 8876TIP3    H126592   2.290   0.342   3.807  0.4420 -0.2139  3.2982
 8876TIP3    H226593   2.375   0.428   3.716  0.6521 -3.5093  0.1561
 8877TIP3   OH226594   4.087   2.988   0.891 -0.0208 -0.7089 -0.2890
 8877TIP3    H126595   4.160   2.954   0.838  0.0090 -0.3724 -0.4652
 8877TIP3    H226596   4.125   3.060   0.941 -0.6186  0.6121 -1.6589
 8878TIP3   OH226597   1.217   0.465   3.128  0.0400  0.1917  0.0270
 8878TIP3    H126598   1.296   0.508   3.095 -0.7372  0.8487 -1.0374
 8878TIP3    H226599   1.247   0.416   3.204  1.9883 -1.6328 -1.7835
 8879TIP3   OH226600   2.496   0.507   1.151 -0.3179 -0.0902 -0.2480
 8879TIP3    H126601   2.412   0.490   1.194 -0.1535 -3.0124 -0.8415
 8879TIP3    H226602   2.562   0.484   1.216 -0.0666 -1.7897 -1.0336
 8880TIP3   OH226603   6.962   4.918   4.622 -0.5941  0.3231  0.7747
 8880TIP3    H126604   6.947   5.012   4.625 -0.8244  0.3624 -0.6438
 8880TIP3    H226605   6.909   4.882   4.693 -0.6841  1.2347  1.1748
 8881TIP3   OH226606   5.610   5.142   0.601 -0.4967  0.4552 -0.1992
 8881TIP3    H126607   5.596   5.232   0.572 -2.7934  0.5177  0.9300
 8881TIP3    H226608   5.628   5.149   0.694 -1.6495 -0.2968  0.0957
 8882TIP3   OH226609   2.671   4.129   4.706 -0.0882  0.0714  0.7711
 8882TIP3    H126610   2.587   4.088   4.728 -0.7411  1.2975  0.6629
 8882TIP3    H226611   2.649   4.194   4.640  0.7030  1.4582  1.8309
 8883TIP3   OH226612   6.677   0.561   4.092 -0.0132 -0.4123  0.0179
 8883TIP3    H126613   6.753   0.502   4.095  1.4049  1.2794 -0.3822
 8883TIP3    H226614   6.613   0.516   4.038  1.1790 -1.4217 -0.6115
 8884TIP3   OH226615   0.894   1.475   1.310  0.6745  0.7535  0.0491
 8884TIP3    H126616   0.936   1.561   1.305  1.7397  0.1956 -1.2148
 8884TIP3    H226617   0.829   1.476   1.239  2.5682 -0.3963 -1.8168
 8885TIP3   OH226618   3.241   0.998   0.350 -0.0889  0.0456 -0.2022
 8885TIP3    H126619   3.261   0.938   0.422 -0.0608 -0.8152 -0.9055
 8885TIP3    H226620   3.292   0.964   0.276 -0.8047  0.3778 -0.8608
 8886TIP3   OH226621   5.876   5.963   3.247 -0.0554  0.0160  0.2287
 8886TIP3    H126622   5.899   5.991   3.158 -0.3675  0.3190  0.2445
 8886TIP3    H226623   5.958   5.968   3.296 -0.4932  3.1680  0.8419
 8887TIP3   OH226624   6.071   3.019   2.756 -0.5868  0.0703  0.0909
 8887TIP3    H126625   6.068   2.998   2.849  1.0273  3.4066  1.0117
 8887TIP3    H226626   6.157   2.988   2.727 -0.1301  1.1148  0.3064
 8888TIP3   OH226627   5.768   4.050   1.011  0.0913  0.4343  0.2448
 8888TIP3    H126628   5.807   4.103   1.081  1.0097  0.6617 -0.4173
 8888TIP3    H226629   5.777   4.104   0.932 -2.2430  0.8019  0.1637
 8889TIP3   OH226630   4.951   3.218   2.704  0.1367 -0.4959  0.5418
 8889TIP3    H126631   4.985   3.137   2.666  0.5149 -1.1249  2.1269
 8889TIP3    H226632   4.962   3.284   2.636  1.0904 -1.4923 -0.2954
 8890TIP3   OH226633   1.479   4.935   1.680 -0.1737  0.4345 -0.4050
 8890TIP3    H126634   1.547   4.891   1.731  0.4883 -0.3086 -1.8752
 8890TIP3    H226635   1.443   4.867   1.624 -0.9542  1.1948 -0.8561
 8891TIP3   OH226636   0.173   6.117   1.136  0.7994 -0.2698  0.0732
 8891TIP3    H126637   0.121   6.195   1.160 -0.5235 -0.4714 -1.9154
 8891TIP3    H226638   0.235   6.107   1.208 -1.3775  0.4947  2.1929
 8892TIP3   OH226639   2.799   2.725   2.314 -0.1191 -0.9615  0.5515
 8892TIP3    H126640   2.709   2.721   2.281 -0.2325 -0.4735  0.7898
 8892TIP3    H226641   2.853   2.740   2.237 -0.3843  0.2282  0.5756
 8893TIP3   OH226642   4.605   2.557   0.103  0.5948  0.0063  0.2626
 8893TIP3    H126643   4.562   2.531   0.021 -1.2714  0.4749  1.0412
 8893TIP3    H226644   4.654   2.480   0.130  0.3831 -0.5058 -0.7526
 8894TIP3   OH226645   1.699   2.889   3.991 -0.3930  1.2634 -0.5645
 8894TIP3    H126646   1.752   2.809   3.986 -0.5079  1.0988  0.5280
 8894TIP3    H226647   1.610   2.858   4.005 -0.1352  1.5340  2.4171
 8895TIP3   OH226648   2.949   4.230   0.113  0.2788  0.0679  0.0688
 8895TIP3    H126649   2.989   4.177   0.044  0.0769  1.4956 -1.2045
 8895TIP3    H226650   3.014   4.231   0.183  1.2701  0.0150 -0.8194
 8896TIP3   OH226651   7.027   2.723   3.257 -0.8219 -0.4506 -1.0200
 8896TIP3    H126652   6.968   2.649   3.244 -0.6216 -0.7468 -0.2989
 8896TIP3    H226653   6.995   2.766   3.336 -0.2649 -0.4302 -0.7988
 8897TIP3   OH226654   1.967   3.294   0.269 -0.4239  0.0950  0.2205
 8897TIP3    H126655   1.929   3.244   0.341  0.3703  0.3044  0.8033
 8897TIP3    H226656   2.053   3.256   0.256 -0.8734 -0.4858 -1.1962
 8898TIP3   OH226657   1.426   6.070   0.659  0.1840 -0.1092  0.0049
 8898TIP3    H126658   1.458   6.078   0.749  0.5238  1.0939 -0.1938
 8898TIP3    H226659   1.340   6.028   0.667  0.6269 -0.8723  0.7995
 8899TIP3   OH226660   2.872   0.887   3.565  0.4773  0.7453  0.1613
 8899TIP3    H126661   2.809   0.956   3.547  0.1359  0.1091 -1.2409
 8899TIP3    H226662   2.824   0.806   3.552  0.7407  0.1884  2.2637
 8900TIP3   OH226663   5.891   3.809   1.708  0.3457  0.0395 -0.0992
 8900TIP3    H126664   5.830   3.768   1.770  0.5866 -0.8149 -0.4134
 8900TIP3    H226665   5.936   3.876   1.760  0.9657 -1.0620  0.8171
 8901TIP3   OH226666   6.832   4.604   5.026 -0.3058  0.0159 -0.4766
 8901TIP3    H126667   6.844   4.646   5.111  2.1493  1.1901 -1.2912
 8901TIP3    H226668   6.788   4.521   5.046  2.5033 -1.0211  2.3373
 8902TIP3   OH226669   2.762   4.328   0.871  0.1883 -0.1105  0.0770
 8902TIP3    H126670   2.756   4.412   0.916  0.7358  0.9232 -1.6852
 8902TIP3    H226671   2.673   4.312   0.838  0.7277  1.4865 -2.4106
 8903TIP3   OH226672   0.261   1.213   3.456 -0.5461  0.3073  0.1009
 8903TIP3    H126673   0.238   1.306   3.456 -0.2015  0.4004 -1.2421
 8903TIP3    H226674   0.193   1.172   3.403  0.3447  0.0662 -0.8691
 8904TIP3   OH226675   3.732   2.336   3.704  0.0809 -0.3892 -0.1214
 8904TIP3    H126676   3.802   2.271   3.699  0.6803  0.1967  0.4851
 8904TIP3    H226677   3.731   2.364   3.795 -1.7865 -1.2693  0.1705
 8905TIP3   OH226678   6.381   1.611   4.057 -0.2574 -0.3922  0.0109
 8905TIP3    H126679   6.290   1.630   4.035 -0.3530 -1.0293 -0.1350
 8905TIP3    H226680   6.381   1.601   4.153 -0.5081 -1.2787 -0.0738
 8906TIP3   OH226681   0.835   0.971   3.633 -0.2617 -0.1221  0.3633
 8906TIP3    H126682   0.883   0.892   3.607 -0.7516 -0.1597 -0.4571
 8906TIP3    H226683   0.831   1.024   3.553  2.5502  2.0960  1.5227
 8907TIP3   OH226684   6.457   5.245   4.633 -0.0897 -0.3715  0.0592
 8907TIP3    H126685   6.534   5.201   4.668 -0.2281  0.4770  1.5076
 8907TIP3    H226686   6.468   5.242   4.538  1.4027 -0.8281  0.2295
 8908TIP3   OH226687   7.141   0.809   0.944 -0.0360  0.3759  0.3315
 8908TIP3    H126688   7.133   0.852   1.030  0.0776  0.8884  0.0922
 8908TIP3    H226689   7.138   0.882   0.882 -0.5749 -0.0363 -0.1231
 8909TIP3   OH226690   1.607   6.736   2.598 -0.0135 -0.1664  0.0682
 8909TIP3    H126691   1.625   6.651   2.639  0.5123 -0.8958 -1.5879
 8909TIP3    H226692   1.634   6.800   2.663  2.0706 -1.2606  0.3785
 8910TIP3   OH226693   1.311   0.988   3.101  0.0589 -0.1514 -0.3274
 8910TIP3    H126694   1.237   0.970   3.158  0.3611 -0.0104  0.1169
 8910TIP3    H226695   1.318   0.912   3.044 -0.3746 -0.1997 -0.3155
 8911TIP3   OH226696   5.399   2.920   2.863  0.7736 -0.2911  0.3513
 8911TIP3    H126697   5.467   2.871   2.816  0.1242 -0.3931 -0.4983
 8911TIP3    H226698   5.328   2.857   2.875  0.0107  0.3576 -0.5784
 8912TIP3   OH226699   3.685   3.086   2.644 -0.2048  0.5014  0.2437
 8912TIP3    H126700   3.732   3.077   2.727  0.5493 -2.5466 -0.3882
 8912TIP3    H226701   3.739   3.039   2.581 -1.7882  0.9714 -1.5283
 8913TIP3   OH226702   6.703   6.240   4.857 -0.5768  0.0816 -0.1253
 8913TIP3    H126703   6.607   6.238   4.853 -0.5860 -2.0783 -0.4159
 8913TIP3    H226704   6.730   6.167   4.801  1.3401  1.8260 -1.5952
 8914TIP3   OH226705   0.315   2.962   4.110  0.3160  0.3144  0.3206
 8914TIP3    H126706   0.294   3.052   4.137  2.3290 -0.1297  3.9259
 8914TIP3    H226707   0.391   2.972   4.053 -1.0876  0.9685 -1.5548
 8915TIP3   OH226708   3.946   2.161   5.165 -0.0927 -0.1141  0.2532
 8915TIP3    H126709   4.001   2.162   5.086  1.3855 -1.4764  1.2042
 8915TIP3    H226710   3.987   2.225   5.223 -0.4271 -0.0462  0.4146
 8916TIP3   OH226711   0.336   3.287   2.404  0.1628  0.3701  0.1787
 8916TIP3    H126712   0.348   3.243   2.488  0.4666  2.2535  1.1754
 8916TIP3    H226713   0.250   3.257   2.374 -0.4322  0.4681  1.6810
 8917TIP3   OH226714   6.684   6.037   5.339  0.1985 -0.9921 -0.3237
 8917TIP3    H126715   6.633   6.056   5.417  0.5231 -0.1863 -0.2977
 8917TIP3    H226716   6.622   5.996   5.279 -0.2017 -1.0539  0.1251
 8918TIP3   OH226717   4.932   4.557   2.598  0.1083  0.3537 -0.0644
 8918TIP3    H126718   4.837   4.569   2.603  0.1761  0.4094  1.7242
 8918TIP3    H226719   4.951   4.553   2.504 -1.6516  0.3674 -0.4511
 8919TIP3   OH226720   6.247   4.851   5.041 -0.4410  0.4175 -0.3228
 8919TIP3    H126721   6.327   4.899   5.059  1.3203 -2.0458 -1.0638
 8919TIP3    H226722   6.202   4.847   5.125  0.6433  1.0793  0.3154
 8920TIP3   OH226723   0.696   4.033   5.643  0.7327 -0.3511  0.1690
 8920TIP3    H126724   0.787   4.061   5.643  0.4876  0.5350  1.2428
 8920TIP3    H226725   0.700   3.938   5.643  1.6261 -0.3375 -1.0458
 8921TIP3   OH226726   3.076   0.793   0.069  0.4724  0.5143 -0.2420
 8921TIP3    H126727   3.011   0.747   0.121  0.0621  2.3121  0.9078
 8921TIP3    H226728   3.159   0.751   0.091 -0.1557 -1.2737 -1.1254
 8922TIP3   OH226729   2.130   2.441   0.610  0.2486 -0.3520  0.1027
 8922TIP3    H126730   2.046   2.472   0.575 -0.5014  1.3251  3.0265
 8922TIP3    H226731   2.112   2.352   0.638 -0.1968 -0.4236 -0.3773
 8923TIP3   OH226732   7.067   1.224   4.418 -0.5653 -0.0035  0.3664
 8923TIP3    H126733   7.016   1.146   4.441  1.0634 -0.8924  1.1783
 8923TIP3    H226734   7.117   1.244   4.498 -1.3001  2.2005  0.3430
 8924TIP3   OH226735   3.897   6.684   5.170 -0.0530  0.0189  0.0738
 8924TIP3    H126736   3.864   6.768   5.139  0.2013  0.4317  0.8776
 8924TIP3    H226737   3.842   6.664   5.247  0.7085  0.0820  0.6465
 8925TIP3   OH226738   2.136   1.696   0.805  0.0518 -1.2734 -0.2801
 8925TIP3    H126739   2.048   1.713   0.837  0.0596 -0.2758 -0.7471
 8925TIP3    H226740   2.128   1.615   0.754 -0.4943 -1.4189  0.0297
 8926TIP3   OH226741   5.477   5.480   3.471  0.5882 -0.7409 -0.0134
 8926TIP3    H126742   5.462   5.508   3.381  0.7985  1.2742  0.5404
 8926TIP3    H226743   5.449   5.554   3.525 -0.2130 -2.1740  1.6321
 8927TIP3   OH226744   6.824   4.790   4.819 -0.1579  0.1531 -0.0555
 8927TIP3    H126745   6.731   4.780   4.795 -0.0776  0.1174 -0.3572
 8927TIP3    H226746   6.832   4.744   4.903 -0.5583  0.7295  0.3082
 8928TIP3   OH226747   0.667   5.051   3.667  0.6889 -0.2179 -0.5974
 8928TIP3    H126748   0.688   5.050   3.761  1.7494  1.9697 -0.7504
 8928TIP3    H226749   0.746   5.020   3.624  0.7655  0.2572 -0.8129
 8929TIP3   OH226750   4.044   6.488   0.043 -0.1464  0.5034 -0.6998
 8929TIP3    H126751   4.022   6.525   0.128 -0.9707 -0.9582 -0.2430
 8929TIP3    H226752   4.118   6.540   0.012 -0.2342  1.4503  0.6204
 8930TIP3   OH226753   6.831   1.827   5.179 -0.0364 -0.5120 -0.6717
 8930TIP3    H126754   6.765   1.760   5.164 -0.9158  0.7376 -2.9389
 8930TIP3    H226755   6.793   1.883   5.248 -0.0833 -1.3034 -0.0391
 8931TIP3   OH226756   3.400   2.525   0.526  0.1053 -0.1026 -0.4200
 8931TIP3    H126757   3.391   2.599   0.465 -0.1819  0.4201  0.2417
 8931TIP3    H226758   3.480   2.544   0.575  1.2736 -1.3733 -1.7515
 8932TIP3   OH226759   5.258   2.390   1.855 -0.4567 -0.0914  0.1827
 8932TIP3    H126760   5.316   2.463   1.876  0.5661 -1.0607  0.8546
 8932TIP3    H226761   5.220   2.364   1.939  1.4302 -2.1494  0.4766
 8933TIP3   OH226762   0.342   4.853   0.944  0.0447 -0.4222  0.0372
 8933TIP3    H126763   0.327   4.889   0.856 -0.2207  0.3694  0.4022
 8933TIP3    H226764   0.264   4.801   0.962 -0.1966 -0.0501  0.0681
 8934TIP3   OH226765   2.473   3.606   4.496  0.0671  0.4726 -0.6396
 8934TIP3    H126766   2.485   3.610   4.402  0.8250  0.6471 -0.5427
 8934TIP3    H226767   2.552   3.561   4.528 -0.2564  0.2765 -0.1075
 8935TIP3   OH226768   3.193   5.153   1.691 -0.1639 -0.3051  0.2459
 8935TIP3    H126769   3.185   5.059   1.708 -0.4986 -0.3291 -0.0524
 8935TIP3    H226770   3.109   5.190   1.718  0.1560 -0.0097  0.8768
 8936TIP3   OH226771   2.131   6.299   5.578  0.4232  0.2355 -0.0026
 8936TIP3    H126772   2.098   6.361   5.644  0.2851  0.0340  0.1166
 8936TIP3    H226773   2.181   6.235   5.629  1.5325  0.8828 -0.2415
 8937TIP3   OH226774   3.160   1.124   3.771 -0.5394  0.5659  0.0696
 8937TIP3    H126775   3.213   1.203   3.763  0.3909  0.0175  0.5784
 8937TIP3    H226776   3.072   1.156   3.791 -0.0469  1.4587  0.8990
 8938TIP3   OH226777   2.296   6.272   3.873 -0.1310 -0.4067 -0.1255
 8938TIP3    H126778   2.322   6.285   3.782  0.9199 -0.6773  0.1288
 8938TIP3    H226779   2.228   6.204   3.869 -0.0734 -0.4318 -0.7050
 8939TIP3   OH226780   5.139   4.828   2.172 -0.3001 -0.1206 -0.0666
 8939TIP3    H126781   5.151   4.807   2.079 -1.4772  0.3613 -0.3434
 8939TIP3    H226782   5.228   4.835   2.206  0.1944  0.9949 -1.4668
 8940TIP3   OH226783   4.903   5.897   2.309 -0.4312  0.6937 -0.0346
 8940TIP3    H126784   4.863   5.963   2.365 -1.3000  1.7305 -1.7956
 8940TIP3    H226785   4.830   5.843   2.280 -0.0189  0.2710 -0.2954
 8941TIP3   OH226786   2.157   4.278   0.943 -0.3134  0.4826  0.4421
 8941TIP3    H126787   2.232   4.279   0.884  0.8241 -2.3775  1.6693
 8941TIP3    H226788   2.178   4.344   1.010  0.4012  0.7125 -0.0030
 8942TIP3   OH226789   2.164   3.398   5.790  0.3185  0.0960  0.1173
 8942TIP3    H126790   2.073   3.411   5.815 -0.2022 -0.9934 -1.1202
 8942TIP3    H226791   2.210   3.383   5.873 -0.9190 -0.9970  0.6402
 8943TIP3   OH226792   1.984   6.288   5.166  0.1611 -0.2789 -0.3246
 8943TIP3    H126793   1.917   6.249   5.109  1.3218 -1.7953 -0.7302
 8943TIP3    H226794   2.066   6.274   5.119  1.2188 -1.9558  1.8685
 8944TIP3   OH226795   2.013   5.651   5.109  0.2952  0.0589  0.1026
 8944TIP3    H126796   2.015   5.747   5.106 -1.3833  0.1147  0.0117
 8944TIP3    H226797   2.016   5.631   5.203  2.8969  0.0785  0.0902
 8945TIP3   OH226798   3.182   5.207   0.748  0.1500  0.3470  0.1415
 8945TIP3    H126799   3.094   5.172   0.757  0.6617 -1.1611 -0.2724
 8945TIP3    H226800   3.172   5.288   0.698 -0.7582 -1.2868 -2.5223
 8946TIP3   OH226801   5.702   2.466   1.825 -0.1966 -0.0983  0.4601
 8946TIP3    H126802   5.778   2.435   1.873  0.6499  0.6234 -0.3733
 8946TIP3    H226803   5.688   2.402   1.756  1.8899  1.5152 -1.6059
 8947TIP3   OH226804   2.745   4.536   1.557 -0.3371  0.4331 -0.1642
 8947TIP3    H126805   2.788   4.456   1.587 -2.3031  0.6128  3.8243
 8947TIP3    H226806   2.668   4.505   1.509  0.7425  0.0689 -1.7377
 8948TIP3   OH226807   0.338   5.780   1.972  0.0330  0.4009 -0.2545
 8948TIP3    H126808   0.380   5.846   2.027  2.4446 -1.3025  0.1096
 8948TIP3    H226809   0.294   5.722   2.034  1.1583 -0.4450 -0.2085
 8949TIP3   OH226810   2.198   3.758   4.783 -0.5657 -0.4763  0.3568
 8949TIP3    H126811   2.271   3.716   4.828 -1.3515 -1.3514  0.8411
 8949TIP3    H226812   2.196   3.847   4.820  0.9712 -0.0371 -0.5255
 8950TIP3   OH226813   7.068   0.584   4.196  0.3243 -0.1704 -0.6137
 8950TIP3    H126814   7.023   0.555   4.276  1.9378  0.4417  0.5786
 8950TIP3    H226815   7.039   0.523   4.129  1.2613 -2.6843  1.1094
 8951TIP3   OH226816   0.880   6.206   5.129 -0.4569  0.1469  0.7901
 8951TIP3    H126817   0.848   6.290   5.162 -1.7653 -0.5118  1.2360
 8951TIP3    H226818   0.968   6.199   5.166  1.0858  2.7927 -1.8684
 8952TIP3   OH226819   1.371   3.771   5.570 -0.1397  0.4190 -1.1156
 8952TIP3    H126820   1.314   3.844   5.593  0.4238  0.0070  2.1175
 8952TIP3    H226821   1.433   3.765   5.643 -0.1197 -3.2047 -1.2184
 8953TIP3   OH226822   3.281   0.973   5.573  0.2129  0.0804 -0.4044
 8953TIP3    H126823   3.271   1.067   5.564 -1.0026 -0.0363 -0.4584
 8953TIP3    H226824   3.320   0.961   5.660 -1.1321  0.5758  0.3026
 8954TIP3   OH226825   2.151   3.122   3.254  0.1527 -0.2319  0.4794
 8954TIP3    H126826   2.118   3.211   3.244  0.0461 -0.4415 -1.3334
 8954TIP3    H226827   2.239   3.125   3.216  1.7706 -0.0569  3.8287
 8955TIP3   OH226828   6.107   4.450   1.107  0.0263 -0.3527 -0.1186
 8955TIP3    H126829   6.106   4.514   1.036 -1.0950  0.3384  0.4945
 8955TIP3    H226830   6.016   4.446   1.136  0.5944  0.0034  1.8215
 8956TIP3   OH226831   0.961   1.048   4.578  0.2083  0.3581  0.2511
 8956TIP3    H126832   1.046   1.092   4.579  0.4195 -0.0242 -0.3422
 8956TIP3    H226833   0.898   1.118   4.561  0.5007  0.5095 -0.2519
 8957TIP3   OH226834   0.802   5.275   1.192  0.1280  0.4968 -0.4997
 8957TIP3    H126835   0.820   5.356   1.239 -1.2517  1.5297 -1.6439
 8957TIP3    H226836   0.708   5.262   1.202  0.4920 -1.6868  0.6996
 8958TIP3   OH226837   5.726   0.442   0.764  0.1507 -0.0840  0.0968
 8958TIP3    H126838   5.821   0.444   0.776  0.4746  0.6608 -2.1518
 8958TIP3    H226839   5.692   0.496   0.835  1.3525 -0.6081  1.1194
 8959TIP3   OH226840   3.181   4.825   5.165 -0.3536 -0.3359 -0.7507
 8959TIP3    H126841   3.107   4.870   5.206 -0.7669 -1.0844 -0.6695
 8959TIP3    H226842   3.244   4.814   5.235 -0.3094 -0.0192 -0.7370
 8960TIP3   OH226843   0.516   2.819   2.757 -0.2365  0.1970  0.0374
 8960TIP3    H126844   0.453   2.844   2.690  0.8092 -0.1340 -1.0867
 8960TIP3    H226845   0.463   2.807   2.836 -1.4942  0.4838 -0.7376
 8961TIP3   OH226846   6.636   3.330   3.068 -0.5536  0.2809 -0.6396
 8961TIP3    H126847   6.627   3.379   3.150 -2.2214 -2.1042  0.7382
 8961TIP3    H226848   6.556   3.351   3.020 -1.1637 -0.8426 -0.1443
 8962TIP3   OH226849   7.028   4.081   0.760 -0.1890 -0.1060  0.1912
 8962TIP3    H126850   7.108   4.036   0.735 -1.0683 -1.0452 -1.0735
 8962TIP3    H226851   6.964   4.056   0.693 -0.5267  3.7343 -1.1908
 8963TIP3   OH226852   6.832   1.883   2.365 -0.0504  0.1467 -0.2634
 8963TIP3    H126853   6.867   1.813   2.310 -1.3025 -0.1497 -0.7210
 8963TIP3    H226854   6.745   1.899   2.330 -1.1022 -0.3759  1.9517
 8964TIP3   OH226855   1.646   4.437   2.526  0.4919 -0.3122  0.1195
 8964TIP3    H126856   1.672   4.373   2.459  0.8062 -1.5372  1.3433
 8964TIP3    H226857   1.653   4.388   2.609  0.5463  1.2724  1.0865
 8965TIP3   OH226858   1.349   0.259   2.916 -0.1201  0.3654  0.2194
 8965TIP3    H126859   1.325   0.236   3.006  2.3540 -0.7747  0.6593
 8965TIP3    H226860   1.408   0.334   2.926  0.1754  0.2260 -0.4788
 8966TIP3   OH226861   7.129   3.851   4.915 -0.2458 -0.9226  0.3298
 8966TIP3    H126862   7.132   3.755   4.920  0.8598 -0.9397 -0.4547
 8966TIP3    H226863   7.106   3.878   5.004  0.0422 -1.8926  0.7165
 8967TIP3   OH226864   6.433   6.207   4.747 -0.3218  0.1719  0.6219
 8967TIP3    H126865   6.406   6.121   4.715 -1.4629  0.5244  0.5950
 8967TIP3    H226866   6.462   6.254   4.669 -2.2696  0.7296  0.1956
 8968TIP3   OH226867   0.530   6.335   0.460 -0.3281  0.2744  0.0975
 8968TIP3    H126868   0.555   6.423   0.434 -0.8426  0.3078 -0.2990
 8968TIP3    H226869   0.523   6.287   0.377 -1.4710  0.2401  0.1988
 8969TIP3   OH226870   5.886   1.133   1.568 -0.0049 -0.7116  0.0745
 8969TIP3    H126871   5.907   1.219   1.603  1.2769 -0.5421 -1.0271
 8969TIP3    H226872   5.853   1.150   1.480 -3.0975 -1.1297  1.0417
 8970TIP3   OH226873   1.729   2.574   4.506  0.1602 -0.2317 -0.4963
 8970TIP3    H126874   1.811   2.568   4.458  0.2894  0.0184 -0.3097
 8970TIP3    H226875   1.664   2.536   4.447  0.7412 -2.4036  0.1846
 8971TIP3   OH226876   0.139   3.837   2.563 -0.4372  0.0181  0.1400
 8971TIP3    H126877   0.214   3.854   2.621 -1.2192  0.0900  1.1577
 8971TIP3    H226878   0.176   3.840   2.475  1.0498 -1.4316  0.6720
 8972TIP3   OH226879   3.110   0.480   1.161 -0.5462 -0.2898  0.3721
 8972TIP3    H126880   3.028   0.502   1.117 -0.1662 -0.4206 -0.4171
 8972TIP3    H226881   3.159   0.430   1.096  0.3698  0.2272  0.6498
 8973TIP3   OH226882   0.180   3.069   2.406 -0.2835  0.3788  0.0899
 8973TIP3    H126883   0.122   3.136   2.443  1.1571  1.7045  0.0766
 8973TIP3    H226884   0.161   3.070   2.312 -1.4929 -0.5005  0.3086
 8974TIP3   OH226885   4.061   1.992   4.674 -0.0785  0.2015  0.0960
 8974TIP3    H126886   4.085   2.029   4.588  1.2445  0.3927  0.5125
 8974TIP3    H226887   4.140   1.946   4.702  0.0953  1.5106  1.9379
 8975TIP3   OH226888   2.337   3.241   0.093 -0.1143 -0.0546 -0.1868
 8975TIP3    H126889   2.413   3.261   0.148 -1.0824  1.0133  0.8247
 8975TIP3    H226890   2.280   3.189   0.150 -0.6579  0.1496 -0.5388
 8976TIP3   OH226891   5.370   1.213   0.438 -0.0919 -0.4745  0.1479
 8976TIP3    H126892   5.360   1.160   0.359  0.6661 -1.4409  0.6774
 8976TIP3    H226893   5.454   1.258   0.425  1.6939 -3.0874  1.7269
 8977TIP3   OH226894   2.851   6.735   4.525  0.2838  0.3659 -0.2336
 8977TIP3    H126895   2.829   6.706   4.614  1.4061 -0.5799 -0.2278
 8977TIP3    H226896   2.889   6.658   4.484  1.7731  1.3557 -0.8153
 8978TIP3   OH226897   6.528   3.358   3.461 -0.0542 -0.0822  0.1769
 8978TIP3    H126898   6.530   3.426   3.393  1.0160  0.1501  0.4241
 8978TIP3    H226899   6.562   3.401   3.539 -1.4453 -0.2935  0.9359
 8979TIP3   OH226900   4.716   4.993   5.748  0.4030  0.1642 -0.5180
 8979TIP3    H126901   4.782   5.061   5.733  0.3132  0.3736  0.0183
 8979TIP3    H226902   4.745   4.919   5.694  2.2134 -0.5145  1.2826
 8980TIP3   OH226903   3.964   0.077   2.977 -0.3826 -0.2903  0.5401
 8980TIP3    H126904   4.011   0.009   3.026  0.9586  1.0838  1.2418
 8980TIP3    H226905   3.957   0.149   3.039 -1.0916  0.5008 -0.4417
 8981TIP3   OH226906   1.735   2.400   4.919  0.1960  0.4123 -0.2559
 8981TIP3    H126907   1.728   2.451   5.000 -1.6174  0.8998 -0.6787
 8981TIP3    H226908   1.751   2.465   4.851  0.5357  0.1219 -0.4587
 8982TIP3   OH226909   2.737   6.665   2.309  0.2759 -0.2300 -0.0879
 8982TIP3    H126910   2.676   6.728   2.346 -1.0970 -1.0812 -0.8436
 8982TIP3    H226911   2.726   6.586   2.362 -0.3663 -0.8612 -1.1344
 8983TIP3   OH226912   2.883   1.012   5.528  0.2863 -0.0049  0.4537
 8983TIP3    H126913   2.798   1.016   5.484  0.5569 -0.8779 -0.1901
 8983TIP3    H226914   2.917   0.926   5.504 -0.0720 -1.0427  3.3443
 8984TIP3   OH226915   3.886   6.451   0.724 -0.1184 -0.7626 -0.2871
 8984TIP3    H126916   3.868   6.522   0.786 -2.4785 -1.0223 -0.6168
 8984TIP3    H226917   3.801   6.429   0.687  0.9617 -1.9391 -2.2081
 8985TIP3   OH226918   4.496   2.004   4.176  0.1637  0.0873 -0.0651
 8985TIP3    H126919   4.589   1.983   4.182 -0.2747 -2.0758 -0.0863
 8985TIP3    H226920   4.452   1.919   4.164 -1.8464  0.9946  0.3386
 8986TIP3   OH226921   3.039   0.794   4.859  0.1752  0.3159  0.4290
 8986TIP3    H126922   3.001   0.872   4.819 -1.0595 -1.9241 -3.2177
 8986TIP3    H226923   2.998   0.790   4.946 -1.8405  2.2499 -0.3303
 8987TIP3   OH226924   1.781   0.464   5.698  0.2857  0.3087 -0.7900
 8987TIP3    H126925   1.862   0.414   5.709 -0.1381 -0.0913  0.7961
 8987TIP3    H226926   1.807   0.554   5.718  0.4312  0.2495 -0.7077
 8988TIP3   OH226927   6.473   5.648   5.324  0.0821 -0.0610  0.0814
 8988TIP3    H126928   6.540   5.648   5.393  0.5701  0.9733 -0.3666
 8988TIP3    H226929   6.481   5.734   5.283 -1.7923  0.2448  0.2647
 8989TIP3   OH226930   2.704   0.253   2.076 -0.1616 -0.1798  0.2807
 8989TIP3    H126931   2.761   0.176   2.069  0.8342  0.6772 -1.9493
 8989TIP3    H226932   2.626   0.221   2.122  1.3239 -1.8339  1.8184
 8990TIP3   OH226933   1.333   2.510   4.947 -0.5285 -0.0239  0.2943
 8990TIP3    H126934   1.276   2.552   5.012 -0.8648 -0.7521  0.4761
 8990TIP3    H226935   1.274   2.481   4.878 -0.1061  1.2835 -0.6549
 8991TIP3   OH226936   6.886   0.658   0.659 -0.1220  0.4496 -0.3105
 8991TIP3    H126937   6.864   0.671   0.751 -0.2033  0.1179 -0.2805
 8991TIP3    H226938   6.938   0.735   0.636  0.7331  0.0564  0.2759
 8992TIP3   OH226939   5.292   1.538   1.731  0.2759 -0.2905  0.0719
 8992TIP3    H126940   5.344   1.479   1.677 -0.2473 -1.2320  0.5750
 8992TIP3    H226941   5.206   1.538   1.689 -0.0617 -0.8331  0.7532
 8993TIP3   OH226942   6.973   4.005   4.312 -0.4185  0.2955  0.4654
 8993TIP3    H126943   6.893   4.036   4.269  0.6538  0.4136 -1.5573
 8993TIP3    H226944   7.028   4.083   4.319 -0.2472  0.1006  1.3307
 8994TIP3   OH226945   4.427   6.438   0.093 -0.1379  0.0897 -0.5483
 8994TIP3    H126946   4.485   6.510   0.117  1.3150 -1.5661  1.2210
 8994TIP3    H226947   4.368   6.475   0.027  1.1943  2.5784 -0.4385
 8995TIP3   OH226948   4.351   6.517   2.760  0.4344  0.3877  0.1304
 8995TIP3    H126949   4.444   6.510   2.741 -0.2174  0.4141 -3.8542
 8995TIP3    H226950   4.326   6.430   2.791  1.6478  0.2487  0.7753
 8996TIP3   OH226951   5.761   6.245   1.845 -0.2796 -0.2037  0.3122
 8996TIP3    H126952   5.716   6.330   1.854  0.9336  0.5351 -0.3837
 8996TIP3    H226953   5.853   6.265   1.862  0.0340 -1.3790  0.0467
 8997TIP3   OH226954   2.555   2.072   4.368  0.0123  0.0010 -0.2510
 8997TIP3    H126955   2.615   2.142   4.395  0.0045  0.1117 -0.5187
 8997TIP3    H226956   2.582   2.050   4.279  0.2287 -0.5719 -0.0442
 8998TIP3   OH226957   0.900   2.045   5.144 -0.2767  0.1499 -0.1365
 8998TIP3    H126958   0.929   1.956   5.163  1.2043  0.8400  1.0119
 8998TIP3    H226959   0.956   2.101   5.198 -1.9580  1.7210  0.0889
 8999TIP3   OH226960   0.926   0.210   1.628  0.5756 -0.0987 -0.3827
 8999TIP3    H126961   0.961   0.124   1.650  0.6409 -0.3471 -1.4164
 8999TIP3    H226962   0.952   0.224   1.537 -2.0880 -0.3626 -1.2792
 9000TIP3   OH226963   3.417   4.047   4.413 -0.0862 -0.4849  0.3555
 9000TIP3    H126964   3.354   4.083   4.475  0.2899  1.6205 -0.4310
 9000TIP3    H226965   3.378   4.063   4.327  0.5195 -1.1992 -0.0647
 9001TIP3   OH226966   5.098   5.769   2.006  0.2819 -0.6435 -0.0132
 9001TIP3    H126967   5.032   5.828   1.971  1.2373 -0.0096 -0.7828
 9001TIP3    H226968   5.137   5.728   1.928 -0.2052 -2.1336  0.4893
 9002TIP3   OH226969   3.944   1.910   2.884 -0.1283  0.1481  0.5394
 9002TIP3    H126970   4.034   1.928   2.858  0.1698 -1.7876  0.1002
 9002TIP3    H226971   3.950   1.884   2.976  0.0042 -1.5179  0.0833
 9003TIP3   OH226972   5.577   1.882   2.906  0.3826  0.3144  0.3117
 9003TIP3    H126973   5.633   1.886   2.828 -0.7276 -0.2472 -0.5285
 9003TIP3    H226974   5.587   1.968   2.946 -0.1868  1.1628 -1.2837
 9004TIP3   OH226975   5.078   2.646   4.045  0.4125 -0.5718  0.3946
 9004TIP3    H126976   5.100   2.734   4.075  0.3842 -0.3233 -0.3044
 9004TIP3    H226977   5.005   2.659   3.984  1.3367 -0.9260 -0.8188
 9005TIP3   OH226978   5.134   3.406   1.543  0.0317  0.4301  0.4617
 9005TIP3    H126979   5.040   3.419   1.545  0.3521  3.3350  1.8662
 9005TIP3    H226980   5.150   3.339   1.610 -1.0303 -0.6973 -0.3614
 9006TIP3   OH226981   1.076   5.215   1.094 -0.1714 -0.0450  0.1599
 9006TIP3    H126982   1.044   5.247   1.010  0.9403 -0.8614 -0.5967
 9006TIP3    H226983   1.041   5.277   1.158 -1.6863  0.1358 -0.8101
 9007TIP3   OH226984   2.892   0.894   3.842 -0.1808  0.1377  0.6483
 9007TIP3    H126985   2.855   0.911   3.756 -1.3518  0.0331  1.1038
 9007TIP3    H226986   2.855   0.963   3.898 -0.3214 -0.4332  1.2822
 9008TIP3   OH226987   3.595   1.636   5.359 -0.6164 -0.0995 -0.0433
 9008TIP3    H126988   3.609   1.683   5.277 -1.0738 -0.2488 -0.2122
 9008TIP3    H226989   3.642   1.688   5.425 -0.7074  0.3247 -0.3069
 9009TIP3   OH226990   3.298   0.835   5.026 -0.3542 -0.0326 -0.3131
 9009TIP3    H126991   3.287   0.930   5.027  0.1442  0.0265 -0.0069
 9009TIP3    H226992   3.235   0.804   4.961 -0.4439  0.5169 -0.4927
 9010TIP3   OH226993   1.365   5.461   1.718 -0.4146  0.1441 -0.6437
 9010TIP3    H126994   1.285   5.478   1.670 -1.1085 -2.2193 -0.4695
 9010TIP3    H226995   1.346   5.382   1.769  1.2999  0.7948  1.1410
 9011TIP3   OH226996   6.341   5.425   2.346  0.0717  0.2148 -0.6429
 9011TIP3    H126997   6.302   5.470   2.421  0.9015 -0.1376  0.0042
 9011TIP3    H226998   6.328   5.332   2.363  1.1364  0.0901 -0.4422
 9012TIP3   OH226999   5.540   2.597   4.998 -0.3431  0.0467 -0.3128
 9012TIP3    H127000   5.447   2.593   4.975 -0.4037  0.3478 -0.1184
 9012TIP3    H227001   5.542   2.631   5.087 -0.0132  0.8181 -0.6044
 9013TIP3   OH227002   2.638   0.921   5.698 -0.0743  0.2974  0.3905
 9013TIP3    H127003   2.576   0.971   5.751  0.0778  0.5137  0.3645
 9013TIP3    H227004   2.661   0.979   5.626  0.5732  0.4286  0.6947
 9014TIP3   OH227005   2.843   4.893   0.877  0.3226 -0.4515  0.2281
 9014TIP3    H127006   2.876   4.972   0.833  0.9465 -1.0850 -0.4593
 9014TIP3    H227007   2.870   4.821   0.821 -1.2417 -1.0925  0.2416
 9015TIP3   OH227008   5.295   0.076   0.040  0.0247 -0.1394  0.6295
 9015TIP3    H127009   5.300   0.121  -0.044  0.3401  1.1646  1.3252
 9015TIP3    H227010   5.344  -0.005   0.028  0.7016  0.3948 -0.2166
 9016TIP3   OH227011   0.984   5.251   1.474  0.6598  0.0706  0.6659
 9016TIP3    H127012   1.049   5.310   1.435  2.3104 -1.4994  0.9188
 9016TIP3    H227013   1.003   5.253   1.567 -1.4525  1.6303  1.1459
 9017TIP3   OH227014   6.387   5.108   1.597 -0.1503 -0.4808  0.3964
 9017TIP3    H127015   6.471   5.155   1.601 -1.2860  1.6451  1.1214
 9017TIP3    H227016   6.382   5.075   1.508  0.6730  0.9601 -0.2201
 9018TIP3   OH227017   1.942   4.143   2.777  0.6691  0.3585 -0.7060
 9018TIP3    H127018   1.975   4.166   2.864  0.9025  0.1660 -0.7430
 9018TIP3    H227019   2.008   4.176   2.716  0.1119  1.2450 -0.8686
 9019TIP3   OH227020   4.534   0.945   3.723  0.3997 -0.3972 -0.0125
 9019TIP3    H127021   4.580   0.865   3.701  0.8042 -0.2720  0.3558
 9019TIP3    H227022   4.505   0.932   3.813 -0.1854 -0.4267 -0.2012
 9020TIP3   OH227023   0.835   6.653   0.305  0.2642 -0.1648 -0.4897
 9020TIP3    H127024   0.793   6.608   0.379  0.3430  0.2596 -0.1848
 9020TIP3    H227025   0.770   6.716   0.275  0.6352  0.4304 -0.0728
 9021TIP3   OH227026   6.118   5.238   5.878  0.1884 -0.6096 -0.2209
 9021TIP3    H127027   6.106   5.309   5.815 -0.9122 -1.2057 -0.7248
 9021TIP3    H227028   6.113   5.280   5.964 -3.6481 -0.3771 -0.3754
 9022TIP3   OH227029   2.144   5.377   2.621  0.0495  0.8235 -0.2048
 9022TIP3    H127030   2.137   5.401   2.713  0.0493  0.1458 -0.0211
 9022TIP3    H227031   2.154   5.460   2.575  0.8933  1.1196  0.4838
 9023TIP3   OH227032   5.620   6.187   5.738  0.7443 -0.7914 -0.5778
 9023TIP3    H127033   5.527   6.192   5.760  0.1652  0.4304 -2.9383
 9023TIP3    H227034   5.664   6.236   5.807 -0.8115  2.0166 -1.4211
 9024TIP3   OH227035   3.108   3.534   0.255 -0.1785  0.3160 -0.1381
 9024TIP3    H127036   3.130   3.577   0.172  0.3703  0.9264  0.3176
 9024TIP3    H227037   3.167   3.459   0.259  0.6289  0.9594  0.2510
 9025TIP3   OH227038   6.006   1.387   3.144  0.1294  0.3436 -0.6133
 9025TIP3    H127039   5.939   1.319   3.141 -0.5150  0.7504  2.2659
 9025TIP3    H227040   6.038   1.392   3.054 -2.0557 -1.4761 -1.5947
 9026TIP3   OH227041   1.467   4.259   5.129 -0.6016  0.0699  0.2775
 9026TIP3    H127042   1.494   4.258   5.037 -0.2865 -1.1894  0.3765
 9026TIP3    H227043   1.388   4.205   5.132 -1.3808  1.1681  0.5436
 9027TIP3   OH227044   5.178   6.176   0.713 -0.0427  0.9316 -0.3666
 9027TIP3    H127045   5.232   6.253   0.730  1.4215 -0.4562  1.8408
 9027TIP3    H227046   5.229   6.123   0.652 -0.0755  0.7580 -0.2441
 9028TIP3   OH227047   1.999   5.031   5.757 -0.2622  0.8517 -0.1797
 9028TIP3    H127048   2.086   4.992   5.764 -0.2626  1.0903  1.7996
 9028TIP3    H227049   2.004   5.090   5.682  0.9331  0.0696 -0.7485
 9029TIP3   OH227050   0.055   4.997   5.352 -0.0349 -0.1007  0.1611
 9029TIP3    H127051  -0.036   4.990   5.380 -0.3637 -1.4822 -1.1044
 9029TIP3    H227052   0.059   5.080   5.305  0.1177  1.4017  2.6224
 9030TIP3   OH227053   1.043   5.962   5.236  0.6331 -0.3427 -0.4923
 9030TIP3    H127054   1.078   6.049   5.253  2.9797 -1.3482  0.2466
 9030TIP3    H227055   1.053   5.916   5.319 -2.0514 -0.8962 -0.4087
 9031TIP3   OH227056   5.867   3.948   5.214  0.7628 -0.1441  0.3218
 9031TIP3    H127057   5.894   3.998   5.291  2.0615  1.4391 -1.1096
 9031TIP3    H227058   5.949   3.926   5.169  0.0458 -1.2989 -0.4845
 9032TIP3   OH227059   2.554   3.966   3.542 -0.0220 -0.4511 -0.1469
 9032TIP3    H127060   2.477   4.017   3.518  0.2898  0.3455  0.5003
 9032TIP3    H227061   2.602   3.954   3.460  0.0185  0.5151 -0.2753
 9033TIP3   OH227062   2.719   6.214   0.426 -0.1074 -0.5177 -0.4429
 9033TIP3    H127063   2.685   6.125   0.439 -0.1684 -0.3781  0.3501
 9033TIP3    H227064   2.785   6.225   0.494  0.5140 -0.2659 -1.0813
 9034TIP3   OH227065   3.172   6.739   4.702 -0.6675  0.0526  0.3842
 9034TIP3    H127066   3.193   6.724   4.794 -0.9881  2.2709  0.8732
 9034TIP3    H227067   3.130   6.658   4.673 -1.7472 -0.2441  2.5670
 9035TIP3   OH227068   1.123   4.753   0.923  0.1030 -0.3145 -0.1050
 9035TIP3    H127069   1.164   4.670   0.947 -0.6307 -1.0816 -1.3922
 9035TIP3    H227070   1.161   4.775   0.838 -0.7213 -0.0676 -0.4219
 9036TIP3   OH227071   3.229   3.070   3.844  0.1509  0.6851 -0.3246
 9036TIP3    H127072   3.250   3.040   3.756  0.8381  1.4031 -0.4222
 9036TIP3    H227073   3.215   3.164   3.834 -0.5008  0.6488  0.2128
 9037TIP3   OH227074   1.524   0.580   0.616 -0.0268 -0.3065 -0.1369
 9037TIP3    H127075   1.467   0.515   0.658  0.3141  0.2106  1.1729
 9037TIP3    H227076   1.477   0.606   0.537 -0.9403 -0.9243  0.1912
 9038TIP3   OH227077   4.042   4.538   5.424 -0.4039 -0.0048 -0.2982
 9038TIP3    H127078   4.127   4.578   5.405 -1.7719  2.6090 -1.4402
 9038TIP3    H227079   4.032   4.470   5.358 -0.2558  1.4272 -1.8613
 9039TIP3   OH227080   1.902   3.669   4.873  0.2160 -0.0334  0.0571
 9039TIP3    H127081   1.851   3.692   4.951  1.4351  0.9203  0.6231
 9039TIP3    H227082   1.942   3.752   4.846 -0.9345 -0.1514 -2.1832
 9040TIP3   OH227083   1.836   2.393   2.817 -0.0160 -0.0717 -0.2723
 9040TIP3    H127084   1.927   2.368   2.835 -0.2496 -0.2816  0.6662
 9040TIP3    H227085   1.841   2.445   2.737  0.5980 -2.3926 -1.8418
 9041TIP3   OH227086   5.374   3.359   0.765  0.2422 -0.6108  0.1269
 9041TIP3    H127087   5.311   3.430   0.758  1.2854  0.3163 -0.2531
 9041TIP3    H227088   5.459   3.403   0.760  0.9109 -1.8998 -0.1418
 9042TIP3   OH227089   2.477   2.980   2.707 -0.3817 -0.3110 -0.1390
 9042TIP3    H127090   2.541   2.909   2.709  1.1136  1.0231  0.3969
 9042TIP3    H227091   2.512   3.043   2.645 -0.5455  1.0054  1.0554
 9043TIP3   OH227092   4.045   1.843   3.608 -0.0191  0.4791  0.0209
 9043TIP3    H127093   4.006   1.840   3.521 -1.6174  0.7073  0.6915
 9043TIP3    H227094   3.973   1.825   3.667  1.1689 -0.3325  1.2842
 9044TIP3   OH227095   0.969   6.757   5.426  0.4080 -0.1193  0.1715
 9044TIP3    H127096   0.941   6.666   5.438 -0.0426 -0.0144 -0.0697
 9044TIP3    H227097   1.064   6.753   5.423  0.4292 -0.4843  1.0339
 9045TIP3   OH227098   5.148   6.304   2.456 -0.8509  0.2319 -0.1413
 9045TIP3    H127099   5.217   6.242   2.431 -0.8546  0.4302 -0.6568
 9045TIP3    H227100   5.090   6.307   2.380 -1.0896  0.5364  0.0520
 9046TIP3   OH227101   2.635   6.606   2.922  0.2942 -0.0183 -0.2788
 9046TIP3    H127102   2.657   6.674   2.859  0.1323  0.0312 -0.2843
 9046TIP3    H227103   2.683   6.629   3.001  0.3002  0.0591 -0.3055
 9047TIP3   OH227104   0.080   5.016   4.961 -0.2721 -0.1239  0.1979
 9047TIP3    H127105   0.096   5.048   4.872 -0.1830  1.2486  0.6812
 9047TIP3    H227106   0.149   5.057   5.014 -0.4243 -0.7926  0.9271
 9048TIP3   OH227107   1.807   6.135   0.231 -0.5308  0.5887  0.1116
 9048TIP3    H127108   1.765   6.063   0.184 -2.0630  1.5522 -0.0288
 9048TIP3    H227109   1.802   6.209   0.172  0.8035  0.9106  0.3611
 9049TIP3   OH227110   3.872   0.491   2.717 -0.0634  0.3246  0.6392
 9049TIP3    H127111   3.787   0.450   2.732  0.1445 -0.0016  0.9414
 9049TIP3    H227112   3.907   0.444   2.641 -0.0195  0.2453  0.7080
 9050TIP3   OH227113   2.304   1.948   5.562 -0.1744 -0.2804  0.2022
 9050TIP3    H127114   2.264   1.995   5.635 -0.0678 -1.4842  1.0875
 9050TIP3    H227115   2.244   1.959   5.489 -1.2455 -0.5911  1.0153
 9051TIP3   OH227116   0.089   1.455   2.676 -0.5997  0.3487  0.3566
 9051TIP3    H127117   0.124   1.413   2.597 -1.0077 -0.7554  0.7473
 9051TIP3    H227118   0.074   1.546   2.650  0.5062  0.3180 -0.4505
 9052TIP3   OH227119   5.973   2.560   1.175  0.5158 -0.7307 -0.1721
 9052TIP3    H127120   5.905   2.532   1.114  0.8919 -0.2694 -0.8128
 9052TIP3    H227121   5.997   2.648   1.146  1.9395 -1.1856 -0.4426
 9053TIP3   OH227122   7.041   4.214   2.318 -0.2399  0.2731  0.8550
 9053TIP3    H127123   6.948   4.226   2.334 -0.3208  0.5889  0.1942
 9053TIP3    H227124   7.071   4.299   2.285  0.4233  0.3805  1.6986
 9054TIP3   OH227125   2.507   1.799   4.039 -0.1535  0.2557  0.8087
 9054TIP3    H127126   2.587   1.788   4.090  0.2572  1.5594  0.4767
 9054TIP3    H227127   2.533   1.779   3.949  0.5073  3.1188  0.2585
 9055TIP3   OH227128   0.892   1.747   2.428  0.1586  0.2146 -0.2236
 9055TIP3    H127129   0.962   1.688   2.398  0.8679  0.3482  1.0754
 9055TIP3    H227130   0.928   1.835   2.415  0.9078  0.2732  1.8427
 9056TIP3   OH227131   1.609   2.100   5.007 -0.4362 -0.4104  0.1747
 9056TIP3    H127132   1.533   2.043   4.998 -0.2617 -0.4746 -0.9939
 9056TIP3    H227133   1.572   2.188   5.020 -0.7197 -0.4074 -0.6222
 9057TIP3   OH227134   2.516   3.676   3.368 -0.1623 -0.1006 -0.5942
 9057TIP3    H127135   2.545   3.594   3.409 -0.6530 -1.0845 -2.1177
 9057TIP3    H227136   2.595   3.728   3.359  0.1749 -0.4344  0.3453
 9058TIP3   OH227137   2.475   5.697   0.250 -0.1214  0.2236 -0.0385
 9058TIP3    H127138   2.424   5.712   0.170 -0.3340 -0.6696 -0.0871
 9058TIP3    H227139   2.416   5.646   0.306  0.3378  0.1002  0.3376
 9059TIP3   OH227140   5.246   5.916   5.497 -0.0852 -0.4040  0.2199
 9059TIP3    H127141   5.260   5.960   5.413  2.0386  0.3838  0.9160
 9059TIP3    H227142   5.334   5.895   5.528 -0.6653  0.9395  3.0773
 9060TIP3   OH227143   2.900   5.237   4.380 -0.0263 -0.0663 -0.8306
 9060TIP3    H127144   2.994   5.221   4.370  0.5144  0.9281  1.7900
 9060TIP3    H227145   2.873   5.178   4.450 -1.0815  0.4321 -0.8006
 9061TIP3   OH227146   1.168   0.605   1.310 -0.3192 -0.3596 -0.4114
 9061TIP3    H127147   1.237   0.543   1.333  0.5675  0.4369 -0.8551
 9061TIP3    H227148   1.212   0.689   1.306 -1.4701  0.2762 -0.0170
 9062TIP3   OH227149   2.809   5.788   5.642 -0.3329  0.5880  0.2938
 9062TIP3    H127150   2.801   5.731   5.718 -0.3045 -0.3268 -0.3768
 9062TIP3    H227151   2.898   5.775   5.610 -0.7800 -0.1301 -0.7272
 9063TIP3   OH227152   0.757   0.648   4.125 -0.1038  0.5186 -0.2490
 9063TIP3    H127153   0.833   0.612   4.171  0.5871 -1.0545 -2.4407
 9063TIP3    H227154   0.700   0.573   4.111 -1.1519  1.3187 -0.3386
 9064TIP3   OH227155   5.577   5.209   3.215 -0.1783 -0.3645 -0.0098
 9064TIP3    H127156   5.650   5.153   3.189  0.1932  0.1300 -0.0597
 9064TIP3    H227157   5.547   5.249   3.134 -0.5064 -0.5718  0.0108
 9065TIP3   OH227158   1.237   5.323   3.601  0.4380 -0.3622 -0.2836
 9065TIP3    H127159   1.256   5.237   3.562 -0.2777 -0.3532 -0.6733
 9065TIP3    H227160   1.268   5.316   3.691  0.8834 -0.8437 -0.4668
 9066TIP3   OH227161   5.736   0.075   0.280  0.5992  0.1646 -0.1851
 9066TIP3    H127162   5.743   0.150   0.221  1.4114 -0.5546 -1.0306
 9066TIP3    H227163   5.649   0.039   0.263  0.7313  0.1126 -0.7702
 9067TIP3   OH227164   1.898   2.562   1.162  0.0925  0.2172 -0.0429
 9067TIP3    H127165   1.965   2.526   1.220  1.5803  0.4102 -1.5575
 9067TIP3    H227166   1.879   2.649   1.197  0.0576 -0.1495  0.8532
 9068TIP3   OH227167   5.704   0.477   2.490  0.1946  0.0729  0.6466
 9068TIP3    H127168   5.700   0.520   2.405 -0.7900  1.0442  1.1493
 9068TIP3    H227169   5.770   0.526   2.539  0.7113 -0.4406  0.4612
 9069TIP3   OH227170   6.363   5.418   4.236 -0.2407  0.2499  0.2316
 9069TIP3    H127171   6.349   5.501   4.281  0.1147  1.0966 -1.1553
 9069TIP3    H227172   6.327   5.432   4.148  1.6923 -0.3453 -0.7059
 9070TIP3   OH227173   2.730   5.472   4.296  0.1485  0.6378  0.4214
 9070TIP3    H127174   2.637   5.461   4.316 -0.0543  0.3768 -0.6109
 9070TIP3    H227175   2.774   5.402   4.344 -0.1446  0.9378  1.1417
 9071TIP3   OH227176   0.133   6.691   0.249  0.4453 -0.3729  0.2842
 9071TIP3    H127177   0.107   6.703   0.340  2.5728 -0.5897  0.9880
 9071TIP3    H227178   0.051   6.679   0.201 -0.7746  0.7230  2.0065
 9072TIP3   OH227179   3.151   1.902   0.728 -0.3916  0.4747  0.4022
 9072TIP3    H127180   3.092   1.943   0.791 -0.2536  1.3006  0.0109
 9072TIP3    H227181   3.228   1.879   0.780 -0.7807  0.0071  0.7798
 9073TIP3   OH227182   0.705   2.457   0.396 -0.2253 -0.2164  0.1126
 9073TIP3    H127183   0.672   2.547   0.397 -0.4007 -0.2756  1.0761
 9073TIP3    H227184   0.651   2.412   0.331 -1.6699 -0.1528  1.2118
 9074TIP3   OH227185   2.714   1.102   4.873  0.3048  0.0060 -0.3824
 9074TIP3    H127186   2.694   1.025   4.926 -1.1392  0.9295  0.4831
 9074TIP3    H227187   2.796   1.080   4.829  0.4401 -1.6296  0.5967
 9075TIP3   OH227188   1.741   4.709   1.441 -0.2056 -0.0530 -0.1367
 9075TIP3    H127189   1.714   4.649   1.511  1.2358  1.3370  1.7263
 9075TIP3    H227190   1.768   4.788   1.487  1.4696  0.6994 -2.2419
 9076TIP3   OH227191   6.268   5.358   3.030  0.0914 -0.5264  0.0467
 9076TIP3    H127192   6.307   5.444   3.048  1.8567 -1.3261  0.2567
 9076TIP3    H227193   6.186   5.358   3.079  0.3798  0.8001  0.5749
 9077TIP3   OH227194   5.562   5.169   1.252 -0.2390  0.4286 -0.3643
 9077TIP3    H127195   5.642   5.116   1.250 -0.9749 -0.7606  0.0802
 9077TIP3    H227196   5.577   5.233   1.321  0.4693  0.4514 -0.5352
 9078TIP3   OH227197   6.241   0.944   0.335  0.1960  0.3323  0.1227
 9078TIP3    H127198   6.254   0.940   0.240  2.0207 -1.0369  0.3562
 9078TIP3    H227199   6.282   1.026   0.362  0.1994  0.4375 -0.2035
 9079TIP3   OH227200   6.670   5.548   3.588  0.7610  0.1252 -0.8265
 9079TIP3    H127201   6.639   5.462   3.561  0.1392  0.6185 -1.7444
 9079TIP3    H227202   6.753   5.560   3.542 -0.2592  0.9331 -2.5619
 9080TIP3   OH227203   5.362   1.362   3.320 -0.5448  0.1787 -0.2466
 9080TIP3    H127204   5.371   1.272   3.290 -1.1995  0.1680 -0.4366
 9080TIP3    H227205   5.414   1.413   3.259 -1.1732  0.0607 -0.8964
 9081TIP3   OH227206   0.045   1.951   1.361  0.1979 -0.4367 -0.3835
 9081TIP3    H127207  -0.002   1.896   1.423 -0.7723  1.0254  0.2155
 9081TIP3    H227208   0.128   1.971   1.404 -0.6290  0.8926  0.6666
 9082TIP3   OH227209   1.387   2.393   4.546 -0.3182 -0.0533 -0.3155
 9082TIP3    H127210   1.383   2.418   4.454 -0.0340 -0.0427 -0.3258
 9082TIP3    H227211   1.320   2.446   4.589 -0.5116 -0.1233 -0.5314
 9083TIP3   OH227212   4.009   4.849   0.578  0.5933  0.0049  0.6269
 9083TIP3    H127213   4.032   4.821   0.666 -0.4371  1.8744  1.5571
 9083TIP3    H227214   4.090   4.886   0.542  0.6696  0.6113  1.3947
 9084TIP3   OH227215   5.946   3.017   5.419  0.7461 -0.1281 -0.5021
 9084TIP3    H127216   5.901   3.020   5.335  2.6955  0.7321 -1.5776
 9084TIP3    H227217   5.995   2.934   5.418  0.9640 -0.0043 -0.3101
 9085TIP3   OH227218   4.991   1.280   0.633 -0.3977  0.1924 -0.0676
 9085TIP3    H127219   4.986   1.367   0.673 -2.4970 -0.4922  1.2951
 9085TIP3    H227220   5.067   1.239   0.674  1.1406  1.6075 -1.3442
 9086TIP3   OH227221   2.916   0.252   1.518 -0.4840 -0.0051  0.6583
 9086TIP3    H127222   2.915   0.334   1.469 -2.4014 -0.1965  0.2912
 9086TIP3    H227223   2.988   0.202   1.480  1.3782  1.8782  1.5857
 9087TIP3   OH227224   4.270   2.014   4.958  0.3466  0.5720 -0.4973
 9087TIP3    H127225   4.356   2.000   4.918 -0.5483 -2.5790 -1.5986
 9087TIP3    H227226   4.228   2.080   4.903  1.5638  1.2170 -0.6839
 9088TIP3   OH227227   6.002   5.677   3.956  0.3412 -0.2606 -0.0459
 9088TIP3    H127228   6.082   5.625   3.951 -0.6489 -1.7743 -4.4176
 9088TIP3    H227229   5.934   5.615   3.984  0.1134  0.2068  0.4703
 9089TIP3   OH227230   6.174   2.958   3.150 -0.1498 -0.1624  0.3145
 9089TIP3    H127231   6.153   2.932   3.240  0.3406 -0.4447  0.3561
 9089TIP3    H227232   6.135   3.045   3.140 -0.6558 -0.3471  0.6265
 9090TIP3   OH227233   2.224   0.221   0.828  0.1189  0.5319  0.4058
 9090TIP3    H127234   2.173   0.302   0.828 -2.0913 -0.7649  0.0560
 9090TIP3    H227235   2.213   0.186   0.917 -0.0524 -0.0097  0.1779
 9091TIP3   OH227236   5.755   5.515   3.682 -0.2924  0.1605 -0.3877
 9091TIP3    H127237   5.660   5.524   3.693 -0.0830  1.2996  0.8431
 9091TIP3    H227238   5.768   5.500   3.589 -1.6571  0.4103 -0.6309
 9092TIP3   OH227239   1.344   1.467   2.313  0.1770  0.6626  0.4812
 9092TIP3    H127240   1.397   1.407   2.365  0.9248  0.7109 -0.2025
 9092TIP3    H227241   1.314   1.533   2.375 -1.5911 -0.9958  1.4724
 9093TIP3   OH227242   2.830   0.156   5.582 -0.1997  0.4626 -0.1547
 9093TIP3    H127243   2.886   0.206   5.523  0.9004  1.6447  1.7827
 9093TIP3    H227244   2.777   0.221   5.627  0.9512 -0.0420  2.1036
 9094TIP3   OH227245   5.298   4.366   5.775 -0.3525 -0.5618 -0.3182
 9094TIP3    H127246   5.249   4.413   5.843 -1.9689 -2.0439 -0.3924
 9094TIP3    H227247   5.328   4.286   5.819  2.5606  0.5213 -0.1199
 9095TIP3   OH227248   4.406   2.819   5.564  0.2911 -0.7690 -0.5891
 9095TIP3    H127249   4.489   2.801   5.520  1.5385  0.0440  1.3325
 9095TIP3    H227250   4.399   2.750   5.631 -1.6495 -2.0781 -2.0377
 9096TIP3   OH227251   1.348   0.383   1.292  0.1795 -0.1492  0.6700
 9096TIP3    H127252   1.295   0.305   1.273 -0.6272  0.6658 -0.5886
 9096TIP3    H227253   1.379   0.370   1.382  0.7019 -2.2668  0.2390
 9097TIP3   OH227254   3.492   6.249   1.806 -0.1326 -0.3032  0.6591
 9097TIP3    H127255   3.427   6.245   1.735 -0.3573 -0.5347  0.8779
 9097TIP3    H227256   3.553   6.179   1.785 -0.1961 -0.3682  0.6897
 9098TIP3   OH227257   4.002   4.791   2.937 -0.3611 -0.1672  0.4239
 9098TIP3    H127258   3.910   4.772   2.915 -0.3250 -0.8317  0.8027
 9098TIP3    H227259   4.050   4.716   2.902 -0.0572 -0.1950  0.8965
 9099TIP3   OH227260   1.179   5.464   1.169  0.0352 -0.2663 -0.4306
 9099TIP3    H127261   1.245   5.522   1.130  0.7290 -0.3043  0.6406
 9099TIP3    H227262   1.218   5.436   1.251 -1.8061  0.6898  0.8403
 9100TIP3   OH227263   1.688   4.818   1.819 -0.2190  0.0110 -0.4860
 9100TIP3    H127264   1.683   4.827   1.915 -2.2913  0.2701 -0.5706
 9100TIP3    H227265   1.751   4.748   1.805 -0.0270 -0.1762  1.0805
 9101TIP3   OH227266   5.384   3.349   4.634 -0.0170  0.3415 -0.0046
 9101TIP3    H127267   5.299   3.368   4.674 -1.4436 -0.4706 -2.4349
 9101TIP3    H227268   5.400   3.256   4.654  1.2321  0.8953  1.9062
 9102TIP3   OH227269   2.538   5.863   5.670 -0.6408 -0.1307  0.6688
 9102TIP3    H127270   2.491   5.794   5.718  0.2797 -1.3243 -0.0930
 9102TIP3    H227271   2.630   5.843   5.685 -0.3530  1.2365  0.8199
 9103TIP3   OH227272   2.235   4.880   0.988  0.3348  0.2678 -0.3801
 9103TIP3    H127273   2.171   4.945   0.959  0.9586  0.7328 -0.7519
 9103TIP3    H227274   2.243   4.895   1.082  0.1209  0.4153 -0.3837
 9104TIP3   OH227275   6.424   0.648   1.704 -0.1757  0.2375  0.4045
 9104TIP3    H127276   6.427   0.583   1.634 -1.2427  0.3907  0.1969
 9104TIP3    H227277   6.364   0.715   1.672  1.0533  1.4418  0.5370
 9105TIP3   OH227278   4.098   1.817   5.422 -0.1253  0.4671 -0.4025
 9105TIP3    H127279   4.179   1.857   5.453 -0.5655  0.4373  0.8371
 9105TIP3    H227280   4.124   1.764   5.347  1.1597 -0.2695  0.5288
 9106TIP3   OH227281   0.562   0.711   0.454  0.2009 -0.1167 -0.5168
 9106TIP3    H127282   0.616   0.633   0.470 -2.8152 -1.9992  1.6003
 9106TIP3    H227283   0.513   0.689   0.375  0.4997  0.3491 -0.8315
 9107TIP3   OH227284   6.248   5.045   0.054 -0.5538 -0.0917 -0.2525
 9107TIP3    H127285   6.332   5.003   0.072 -0.9200 -2.2380 -2.9725
 9107TIP3    H227286   6.262   5.137   0.078  1.8019 -0.8015  1.4700
 9108TIP3   OH227287   1.052   1.965   4.260  0.1632 -0.0734  0.3705
 9108TIP3    H127288   1.033   1.930   4.172  1.2076 -0.4232  0.2761
 9108TIP3    H227289   0.966   1.973   4.301 -0.3962  0.5744 -0.8606
 9109TIP3   OH227290   6.424   0.419   5.416 -0.1592 -0.2503 -0.0522
 9109TIP3    H127291   6.450   0.345   5.470  0.8564 -0.3833 -0.6906
 9109TIP3    H227292   6.487   0.488   5.438  0.8882 -0.6137 -1.7208
 9110TIP3   OH227293   0.160   2.231   0.139  0.4536  0.2985  0.1551
 9110TIP3    H127294   0.205   2.199   0.061 -1.2467  0.3927 -0.9356
 9110TIP3    H227295   0.176   2.325   0.140  0.7982  0.2407  0.1474
 9111TIP3   OH227296   3.354   1.005   1.061  0.2364  0.2315 -0.0617
 9111TIP3    H127297   3.357   1.089   1.108  1.8876  0.1492  0.0416
 9111TIP3    H227298   3.308   0.946   1.121  0.3948  0.6918  0.5277
 9112TIP3   OH227299   3.573   2.793   4.072  0.6790 -0.0608  0.1108
 9112TIP3    H127300   3.561   2.871   4.127  1.7710  0.9625 -1.0417
 9112TIP3    H227301   3.529   2.723   4.120 -1.9392  1.6057  0.3596
 9113TIP3   OH227302   1.692   3.759   3.963  0.1722 -0.4272  0.8190
 9113TIP3    H127303   1.599   3.740   3.972  0.1582 -0.6842  0.1412
 9113TIP3    H227304   1.727   3.749   4.052 -0.5099  0.0409  1.1505
 9114TIP3   OH227305   6.549   6.341   1.192 -0.1784  0.8952 -0.0319
 9114TIP3    H127306   6.574   6.393   1.269  0.6483  1.4068 -0.6248
 9114TIP3    H227307   6.539   6.252   1.226  1.3367  0.8818  0.4866
 9115TIP3   OH227308   2.065   4.040   3.016 -0.3301 -0.0412  0.3214
 9115TIP3    H127309   2.087   4.030   3.109  0.7095 -1.1590 -0.0182
 9115TIP3    H227310   2.150   4.047   2.972 -0.7861 -0.3612 -0.6313
 9116TIP3   OH227311   0.770   4.068   3.539  0.4012  0.2594 -0.1538
 9116TIP3    H127312   0.721   3.986   3.532  1.8865 -0.8378  1.3733
 9116TIP3    H227313   0.832   4.066   3.465 -0.5716  0.7842 -1.0152
 9117TIP3   OH227314   7.121   1.815   0.703  0.5392  0.1171 -0.4839
 9117TIP3    H127315   7.038   1.861   0.716  1.5023  1.5883  0.9460
 9117TIP3    H227316   7.111   1.732   0.750  0.6927  1.3870  2.0060
 9118TIP3   OH227317   1.576   1.132   1.389 -0.0158  0.2235  0.9637
 9118TIP3    H127318   1.553   1.147   1.298  1.5647  1.6692  0.7545
 9118TIP3    H227319   1.562   1.216   1.432  0.5033 -0.0824  1.7526
 9119TIP3   OH227320   5.410   1.033   5.751  0.0759  0.6501 -0.2457
 9119TIP3    H127321   5.352   1.027   5.827  0.4728  0.8596  0.0847
 9119TIP3    H227322   5.497   1.013   5.787  0.5192  2.2461 -0.3137
 9120TIP3   OH227323   2.055   4.119   1.682  0.3731 -0.1919 -0.3777
 9120TIP3    H127324   2.040   4.151   1.593 -2.2410  1.2410  0.4383
 9120TIP3    H227325   1.997   4.043   1.691 -1.7701  1.4718  0.9079
 9121TIP3   OH227326   0.774   3.226   1.933  0.5103  0.3145  0.0920
 9121TIP3    H127327   0.791   3.266   2.018 -1.7859  0.8968  0.3382
 9121TIP3    H227328   0.690   3.182   1.944  0.5186 -0.2076 -1.6911
 9122TIP3   OH227329   4.517   4.951   1.147 -0.3899 -0.6838 -0.5184
 9122TIP3    H127330   4.580   4.901   1.096 -0.2204 -0.9857 -0.0227
 9122TIP3    H227331   4.570   4.997   1.213 -0.5407  0.1705 -0.9850
 9123TIP3   OH227332   0.631   5.979   1.053  0.5931 -0.7225 -0.0108
 9123TIP3    H127333   0.552   5.932   1.027  1.9721 -2.1941 -1.7678
 9123TIP3    H227334   0.703   5.922   1.026  2.2906  1.0089  0.6462
 9124TIP3   OH227335   3.319   1.696   1.380 -0.2694 -0.0219 -0.1184
 9124TIP3    H127336   3.404   1.652   1.373  0.1914  0.8055  0.2093
 9124TIP3    H227337   3.329   1.758   1.452 -0.8818  0.6844 -0.6243
 9125TIP3   OH227338   5.039   2.304   1.271  0.2825 -0.3602  0.6685
 9125TIP3    H127339   5.004   2.240   1.209  2.0092  0.1938 -0.9559
 9125TIP3    H227340   4.969   2.316   1.335 -0.3615 -3.3641  0.6838
 9126TIP3   OH227341   5.207   4.311   1.832 -0.2536  0.2452 -0.1083
 9126TIP3    H127342   5.233   4.222   1.807  1.5662  1.0956 -1.4706
 9126TIP3    H227343   5.132   4.331   1.776 -1.1465 -0.6722  0.7304
 9127TIP3   OH227344   1.308   3.063   4.951  0.1589 -0.2366 -0.1886
 9127TIP3    H127345   1.219   3.028   4.948  0.0599 -0.1525  1.1574
 9127TIP3    H227346   1.347   3.035   4.868 -0.3681 -2.3062  0.2134
 9128TIP3   OH227347   5.279   2.093   3.843  0.2432  0.5426 -0.4355
 9128TIP3    H127348   5.371   2.097   3.816  1.2870 -1.1873  2.4334
 9128TIP3    H227349   5.253   2.003   3.828 -1.3521  1.2063 -2.0238
 9129TIP3   OH227350   3.322   6.314   1.584 -0.2300 -0.2499 -0.3388
 9129TIP3    H127351   3.343   6.401   1.551  1.7367 -0.7847 -0.5987
 9129TIP3    H227352   3.301   6.263   1.506 -1.9901  0.0937 -0.1404
 9130TIP3   OH227353   5.272   5.797   1.078  0.1543 -0.1495 -0.2836
 9130TIP3    H127354   5.290   5.783   1.171  1.9761  1.7531 -0.2597
 9130TIP3    H227355   5.308   5.884   1.060 -1.8165  0.3203 -2.3647
 9131TIP3   OH227356   1.101   3.281   2.334 -0.2700  0.0155 -0.3135
 9131TIP3    H127357   1.124   3.200   2.289 -1.2241 -0.6887  0.4204
 9131TIP3    H227358   1.063   3.253   2.417  0.4459  1.2538  0.4816
 9132TIP3   OH227359   6.116   3.822   3.772 -0.7295 -0.7768 -0.6408
 9132TIP3    H127360   6.072   3.789   3.694  0.0329  0.8523 -1.8280
 9132TIP3    H227361   6.045   3.843   3.833 -1.6143  0.9956 -2.1804
 9133TIP3   OH227362   3.385   2.652   5.060 -0.2163  0.9122 -0.8854
 9133TIP3    H127363   3.421   2.611   5.139 -1.5461 -0.1256 -0.7801
 9133TIP3    H227364   3.405   2.745   5.070  0.5382  0.6596  0.1688
 9134TIP3   OH227365   5.023   0.432   0.245  0.3486 -0.5789  0.2639
 9134TIP3    H127366   5.103   0.459   0.291 -1.2508  0.3637  2.6530
 9134TIP3    H227367   4.997   0.351   0.288  0.5349 -1.4579 -1.2153
 9135TIP3   OH227368   3.600   0.483   0.584 -0.0310 -0.0497  0.1350
 9135TIP3    H127369   3.553   0.490   0.501  1.3673 -0.1049 -0.6841
 9135TIP3    H227370   3.565   0.555   0.637 -2.0284 -0.9260  0.0879
 9136TIP3   OH227371   0.368   0.420   2.607  0.0943  0.1042  0.5607
 9136TIP3    H127372   0.406   0.343   2.650 -0.0958 -0.4291 -0.1967
 9136TIP3    H227373   0.391   0.410   2.514 -2.3765 -0.5940 -0.0684
 9137TIP3   OH227374   1.491   2.813   0.340  0.9105 -0.4256 -0.1065
 9137TIP3    H127375   1.407   2.772   0.318 -0.2328  1.2223  0.9816
 9137TIP3    H227376   1.480   2.842   0.430  3.2006 -1.4364  0.5760
 9138TIP3   OH227377   3.025   4.093   5.638 -0.1323 -0.0024  0.1002
 9138TIP3    H127378   2.957   4.062   5.578  2.5533 -2.2754 -2.1251
 9138TIP3    H227379   3.013   4.041   5.717 -2.0454  1.0099  0.5229
 9139TIP3   OH227380   1.671   3.968   5.367 -0.4886  0.1276  0.3802
 9139TIP3    H127381   1.674   3.892   5.425  1.2676  0.3698  0.6591
 9139TIP3    H227382   1.635   4.039   5.421 -0.6851 -0.1250  0.5811
 9140TIP3   OH227383   3.278   5.907   4.903  0.0480  0.5836 -0.3046
 9140TIP3    H127384   3.212   5.975   4.919 -0.4212  0.2735 -0.8907
 9140TIP3    H227385   3.235   5.846   4.844 -0.0594 -1.0077  1.3361
 9141TIP3   OH227386   5.752   4.004   5.602  0.2201  0.0771 -0.5960
 9141TIP3    H127387   5.691   4.047   5.662 -0.2312 -0.8824 -0.3609
 9141TIP3    H227388   5.762   4.068   5.530 -0.2957  0.6544 -0.1719
 9142TIP3   OH227389   1.014   2.378   3.704  0.0801  0.1754  0.0781
 9142TIP3    H127390   1.053   2.431   3.635  0.6381  0.2674  0.4503
 9142TIP3    H227391   0.921   2.398   3.700  0.2455  0.9832  0.0330
 9143TIP3   OH227392   5.707   1.165   2.312  1.0878 -0.7266  0.4539
 9143TIP3    H127393   5.696   1.214   2.393 -2.6151 -0.5034  0.0172
 9143TIP3    H227394   5.687   1.075   2.336  0.6808 -0.7734 -0.0463
 9144TIP3   OH227395   1.963   4.329   5.064  0.3170 -0.0935  0.2795
 9144TIP3    H127396   2.031   4.263   5.053  1.5774  1.0540  0.8172
 9144TIP3    H227397   1.892   4.283   5.108  0.8578 -1.2617 -0.0206
 9145TIP3   OH227398   2.562   1.924   1.878 -0.3457 -0.0532  0.1284
 9145TIP3    H127399   2.497   1.988   1.850  0.7525  1.4614  0.9080
 9145TIP3    H227400   2.605   1.965   1.953  0.8690 -1.4162  0.2155
 9146TIP3   OH227401   4.628   1.947   5.780  0.4707 -0.5938  1.1364
 9146TIP3    H127402   4.549   1.990   5.813  1.4082  1.7516  0.5162
 9146TIP3    H227403   4.596   1.887   5.712 -0.7166  1.2386 -0.0011
 9147TIP3   OH227404   1.564   1.325   4.187  0.4281 -0.0868  0.2526
 9147TIP3    H127405   1.532   1.407   4.225 -0.2749 -0.6464  0.8636
 9147TIP3    H227406   1.649   1.311   4.228  0.7503  0.5454 -0.1692
 9148TIP3   OH227407   0.243   4.948   3.631 -0.4769 -0.1025  0.2201
 9148TIP3    H127408   0.190   5.027   3.617  2.4985  2.1093  0.2942
 9148TIP3    H227409   0.310   4.953   3.563  1.3810 -1.0678  1.8889
 9149TIP3   OH227410   4.939   5.955   1.893 -0.5777 -0.9976  0.0623
 9149TIP3    H127411   4.950   5.976   1.800 -0.6724  0.7355  0.4164
 9149TIP3    H227412   4.847   5.929   1.900 -1.2040  1.0833  0.0348
 9150TIP3   OH227413   3.869   2.336   1.624  0.2275 -0.1619  0.0344
 9150TIP3    H127414   3.885   2.344   1.718  0.4161  1.5223 -0.0927
 9150TIP3    H227415   3.778   2.363   1.613 -0.1063 -1.3545 -0.1608
 9151TIP3   OH227416   1.607   1.121   3.762  0.4118  0.1483 -0.0309
 9151TIP3    H127417   1.634   1.030   3.764 -0.7262 -0.1941  0.6561
 9151TIP3    H227418   1.640   1.155   3.679 -0.7964 -1.4100 -1.1950
 9152TIP3   OH227419   3.210   4.533   4.372 -0.1522  0.5826 -0.0290
 9152TIP3    H127420   3.226   4.489   4.289 -0.5265 -0.8795  0.6417
 9152TIP3    H227421   3.294   4.533   4.417  0.1184  1.6284 -0.4899
 9153TIP3   OH227422   3.424   0.372   3.587  0.2614  0.0369 -0.2101
 9153TIP3    H127423   3.349   0.351   3.532  0.3403 -1.1859  0.1020
 9153TIP3    H227424   3.439   0.292   3.638  1.8342  0.2217 -0.3347
 9154TIP3   OH227425   4.501   4.327   3.195 -0.7387  0.0020 -0.0204
 9154TIP3    H127426   4.567   4.266   3.227  0.0543 -0.0073 -1.5601
 9154TIP3    H227427   4.420   4.276   3.192 -0.4742 -0.4456  0.4224
 9155TIP3   OH227428   6.635   6.256   2.856 -0.7034  0.2185 -0.4590
 9155TIP3    H127429   6.583   6.328   2.822  0.0980  0.6239 -0.8470
 9155TIP3    H227430   6.626   6.261   2.951  0.1460  1.4537 -0.4246
 9156TIP3   OH227431   1.625   2.044   3.235  0.0145  0.1624  0.3254
 9156TIP3    H127432   1.532   2.048   3.213  0.0291 -1.3219 -0.1345
 9156TIP3    H227433   1.627   2.057   3.330 -0.9912 -2.5588  0.8130
 9157TIP3   OH227434   4.363   5.755   1.659 -0.3102 -0.1044 -0.0429
 9157TIP3    H127435   4.367   5.680   1.719 -0.7916 -0.5913 -0.6149
 9157TIP3    H227436   4.399   5.828   1.710  2.1096 -1.1295 -0.1243
 9158TIP3   OH227437   4.555   2.631   4.246  0.4751 -0.1752 -0.4162
 9158TIP3    H127438   4.467   2.593   4.253  0.2487  0.3502 -0.4188
 9158TIP3    H227439   4.543   2.713   4.199  0.9285  0.0334 -0.1822
 9159TIP3   OH227440   6.880   5.905   4.744 -0.5598  0.3823 -0.3077
 9159TIP3    H127441   6.920   5.899   4.831 -0.0371  0.7953 -0.5152
 9159TIP3    H227442   6.945   5.950   4.691 -1.0206  0.4373 -0.8305
 9160TIP3   OH227443   5.110   0.369   5.091  0.6348 -0.1781  0.5242
 9160TIP3    H127444   5.031   0.377   5.144 -0.0715 -2.3588 -0.1229
 9160TIP3    H227445   5.181   0.363   5.155  0.4142  2.3410  1.1061
 9161TIP3   OH227446   0.861   5.530   1.316  0.5748  0.0872  0.2300
 9161TIP3    H127447   0.932   5.590   1.341  0.6852 -0.1193  0.4120
 9161TIP3    H227448   0.785   5.562   1.365  0.6654 -0.0002  0.4294
 9162TIP3   OH227449   3.484   2.430   0.140 -0.5656  0.0244 -0.2978
 9162TIP3    H127450   3.417   2.382   0.188  0.8069 -0.4873  1.1770
 9162TIP3    H227451   3.567   2.394   0.170  0.4170  0.1211 -2.6227
 9163TIP3   OH227452   5.972   0.184   5.554 -0.1977  0.4174  0.2245
 9163TIP3    H127453   6.043   0.248   5.555 -0.4902  0.7409  0.3153
 9163TIP3    H227454   5.945   0.179   5.462 -1.1073  1.4686  0.4129
 9164TIP3   OH227455   2.437   0.684   2.231  0.6827 -0.6687  0.0149
 9164TIP3    H127456   2.477   0.764   2.197 -2.3757 -0.2989 -3.4202
 9164TIP3    H227457   2.474   0.614   2.177  0.0039 -0.8783 -0.1948
 9165TIP3   OH227458   0.383   2.040   4.411  0.1015  0.5664  0.0632
 9165TIP3    H127459   0.430   2.115   4.377  1.0286  0.8161  1.7795
 9165TIP3    H227460   0.311   2.026   4.349  1.6245  1.0049 -1.8930
 9166TIP3   OH227461   4.761   6.375   2.952 -0.6226 -0.1858 -0.1763
 9166TIP3    H127462   4.678   6.394   2.997  0.5666 -0.8303  2.4686
 9166TIP3    H227463   4.794   6.461   2.925 -1.2022  0.2822  0.5504
 9167TIP3   OH227464   1.060   4.021   5.119 -0.2099  0.4005  0.1571
 9167TIP3    H127465   1.122   4.079   5.164 -0.7101  0.7003  0.4692
 9167TIP3    H227466   1.065   4.046   5.027 -0.2193  0.7486  0.2520
 9168TIP3   OH227467   5.555   3.041   5.401  0.1061  0.2175  0.2522
 9168TIP3    H127468   5.625   3.074   5.458 -0.3388 -0.7180  1.3927
 9168TIP3    H227469   5.474   3.063   5.448 -0.3391  0.4718 -0.6104
 9169TIP3   OH227470   1.122   1.128   2.587 -0.0028 -0.8219  0.2275
 9169TIP3    H127471   1.149   1.039   2.564  0.7174 -0.5475 -0.0126
 9169TIP3    H227472   1.039   1.117   2.634  0.8578 -1.7486  1.6070
 9170TIP3   OH227473   0.480   4.870   3.757  0.4676 -0.1759 -0.5045
 9170TIP3    H127474   0.506   4.962   3.769  0.0330 -0.3577  2.6560
 9170TIP3    H227475   0.392   4.876   3.718  0.4220  0.7595 -0.2960
 9171TIP3   OH227476   2.557   6.443   4.944  0.3405 -1.1396 -0.5787
 9171TIP3    H127477   2.603   6.496   5.009  2.7094 -1.9648 -1.4720
 9171TIP3    H227478   2.515   6.374   4.995  0.5748 -0.6972  0.2345
 9172TIP3   OH227479   5.450   2.267   0.418 -0.3630 -0.9572  1.2044
 9172TIP3    H127480   5.506   2.201   0.376 -0.4411 -1.4745  1.8892
 9172TIP3    H227481   5.487   2.351   0.392 -0.2857 -1.2720  0.2741
 9173TIP3   OH227482   5.301   1.353   4.593  0.3321  0.3593 -0.1562
 9173TIP3    H127483   5.374   1.293   4.580  0.7561  0.7659  0.3212
 9173TIP3    H227484   5.243   1.337   4.518  0.8059 -0.1065 -0.4292
 9174TIP3   OH227485   1.938   4.033   5.258  0.1233  0.5768  0.5439
 9174TIP3    H127486   2.015   4.071   5.299  0.1177 -0.8601  2.0200
 9174TIP3    H227487   1.886   4.000   5.331 -1.3125  0.4512 -0.4900
 9175TIP3   OH227488   4.333   5.402   0.929 -0.1194 -0.0973  0.0917
 9175TIP3    H127489   4.246   5.423   0.961 -0.4506 -1.3514  0.0577
 9175TIP3    H227490   4.392   5.423   1.001 -0.5734 -0.3467  0.5368
 9176TIP3   OH227491   5.465   3.855   5.595 -0.0605 -0.2473 -0.3886
 9176TIP3    H127492   5.515   3.774   5.599  0.5671  0.1495 -0.0575
 9176TIP3    H227493   5.447   3.868   5.502  1.2777  0.0984 -0.6166
 9177TIP3   OH227494   2.889   3.131   4.754 -0.7101  0.3769  0.4359
 9177TIP3    H127495   2.923   3.060   4.808  0.4748  0.3808 -0.2858
 9177TIP3    H227496   2.907   3.210   4.805  1.7031  0.5243 -0.5089
 9178TIP3   OH227497   6.981   0.036   3.547  0.1057 -0.1207 -0.1110
 9178TIP3    H127498   6.936   0.018   3.464  2.2816  0.6201 -1.5403
 9178TIP3    H227499   6.988  -0.050   3.589 -2.1682 -0.3242 -0.0206
 9179TIP3   OH227500   5.761   4.708   3.092  0.0740 -0.2641 -0.2551
 9179TIP3    H127501   5.826   4.776   3.110 -1.0387  0.8921 -0.4545
 9179TIP3    H227502   5.709   4.744   3.020  0.3381 -1.9570 -1.3426
 9180TIP3   OH227503   2.940   0.371   4.428  0.3512 -0.5469  0.0822
 9180TIP3    H127504   3.006   0.399   4.364  0.9300 -0.8813  0.5212
 9180TIP3    H227505   2.876   0.442   4.429  0.3781 -0.5090 -0.8112
 9181TIP3   OH227506   1.586   5.134   5.140  0.7352  0.0560 -0.1436
 9181TIP3    H127507   1.679   5.127   5.161  1.2550 -0.8871 -2.3965
 9181TIP3    H227508   1.559   5.045   5.118 -0.6916  0.3385  0.3541
 9182TIP3   OH227509   4.088   0.098   3.495 -0.0575 -0.5822  0.3366
 9182TIP3    H127510   4.009   0.044   3.502  0.2792 -1.0467  0.6685
 9182TIP3    H227511   4.095   0.141   3.580 -2.5454  3.2214 -1.1338
 9183TIP3   OH227512   5.490   4.646   2.405 -0.0217  0.0855 -0.2608
 9183TIP3    H127513   5.486   4.603   2.319  0.2913 -1.2768  0.3869
 9183TIP3    H227514   5.419   4.608   2.455 -1.0476  1.8393 -0.2947
 9184TIP3   OH227515   3.757   6.348   2.760 -0.2386 -0.4390  0.7237
 9184TIP3    H127516   3.849   6.344   2.787  0.6782  0.2259 -1.9664
 9184TIP3    H227517   3.748   6.279   2.695 -1.1479  0.6254 -0.3327
 9185TIP3   OH227518   5.687   6.281   4.129  0.5612  0.3795 -0.4469
 9185TIP3    H127519   5.655   6.281   4.219  1.3115 -0.7650 -0.1453
 9185TIP3    H227520   5.750   6.353   4.126  0.4911  0.4614 -0.0706
 9186TIP3   OH227521   4.333   0.674   5.823 -0.1047  0.0843  0.3372
 9186TIP3    H127522   4.399   0.742   5.810  0.3761 -0.3184  0.6362
 9186TIP3    H227523   4.266   0.693   5.757  0.2616  0.5566  0.0933
 9187TIP3   OH227524   4.705   3.549   0.228  0.5794  0.0887 -0.1933
 9187TIP3    H127525   4.669   3.630   0.262  0.3194 -0.4310  0.7908
 9187TIP3    H227526   4.647   3.526   0.155  0.1395  0.3305  0.0791
 9188TIP3   OH227527   0.632   0.517   0.698 -0.4523  0.1892  0.5013
 9188TIP3    H127528   0.615   0.580   0.768  0.5609  0.4563  0.5165
 9188TIP3    H227529   0.690   0.452   0.737  0.6256  0.6733 -0.2462
 9189TIP3   OH227530   1.360   2.084   0.472 -0.4252  0.6826  0.1852
 9189TIP3    H127531   1.393   2.007   0.424  1.8207  2.4163 -1.2262
 9189TIP3    H227532   1.342   2.051   0.560  0.2964 -1.4879 -0.4056
 9190TIP3   OH227533   6.846   3.029   2.365 -0.6357  0.7003 -0.4609
 9190TIP3    H127534   6.876   2.955   2.419 -1.8710  1.2874  1.0998
 9190TIP3    H227535   6.911   3.036   2.296 -0.0480 -1.3427 -0.1838
 9191TIP3   OH227536   2.083   2.746   1.772  0.1345  0.1695  0.3370
 9191TIP3    H127537   2.154   2.801   1.737 -0.3482  0.0778 -0.8408
 9191TIP3    H227538   2.063   2.784   1.857  0.7254  0.9909  0.1215
 9192TIP3   OH227539   4.194   3.280   5.406  0.5787 -0.1385 -0.4684
 9192TIP3    H127540   4.226   3.193   5.430 -0.1635 -0.1026  0.7075
 9192TIP3    H227541   4.269   3.338   5.420  0.5528 -0.3237  0.4954
 9193TIP3   OH227542   2.003   5.193   5.538 -0.5523 -0.1762 -0.6974
 9193TIP3    H127543   1.923   5.246   5.533  0.2692  1.0537 -1.4888
 9193TIP3    H227544   2.061   5.233   5.473  1.7745  0.8076  1.8196
 9194TIP3   OH227545   6.438   3.547   5.848 -0.3088  0.5925  0.4451
 9194TIP3    H127546   6.505   3.590   5.795 -0.4544 -0.0653 -0.2756
 9194TIP3    H227547   6.404   3.617   5.905  1.2881  0.8299  1.1439
 9195TIP3   OH227548   6.906   0.040   4.751  0.3540  0.3983  0.5323
 9195TIP3    H127549   6.842   0.110   4.759  1.0727  1.1108  0.1058
 9195TIP3    H227550   6.856  -0.040   4.770 -0.8742  0.8474 -0.6568
 9196TIP3   OH227551   3.496   2.062   4.647 -0.0418 -0.0715  0.4465
 9196TIP3    H127552   3.582   2.019   4.657 -0.3489 -0.5514  1.1232
 9196TIP3    H227553   3.435   2.002   4.690 -0.8430 -0.1246 -0.7351
 9197TIP3   OH227554   2.190   2.004   2.161  0.3185 -0.3229  0.4056
 9197TIP3    H127555   2.223   2.014   2.072 -1.0782 -1.6770 -0.3231
 9197TIP3    H227556   2.233   1.925   2.194  1.1915  0.4364  1.1350
 9198TIP3   OH227557   6.147   0.151   2.702 -0.0555  0.5112 -0.3068
 9198TIP3    H127558   6.131   0.180   2.612 -1.0784 -0.8593 -0.6040
 9198TIP3    H227559   6.203   0.219   2.739  0.0127  1.3458 -1.8301
 9199TIP3   OH227560   1.673   0.711   2.722  0.1372 -0.0766 -0.2041
 9199TIP3    H127561   1.626   0.667   2.794  2.4680 -1.6685  0.4406
 9199TIP3    H227562   1.625   0.793   2.709 -2.6576 -1.4700  0.5348
 9200TIP3   OH227563   4.428   2.624   5.769  0.1270 -0.2243 -0.1052
 9200TIP3    H127564   4.381   2.551   5.808  1.3599  0.8569  3.8520
 9200TIP3    H227565   4.514   2.589   5.747  0.4984 -0.1365  1.1794
 9201TIP3   OH227566   5.369   4.012   5.044  0.1790 -0.3999  0.5242
 9201TIP3    H127567   5.326   4.098   5.046  0.7462 -0.0959  2.3333
 9201TIP3    H227568   5.394   3.999   4.953 -3.2604 -0.3923 -0.5566
 9202TIP3   OH227569   7.197   6.400   5.511 -0.1846  0.6128  0.0074
 9202TIP3    H127570   7.191   6.370   5.602  1.9730 -1.0629 -0.3183
 9202TIP3    H227571   7.150   6.483   5.510 -1.5541 -0.0393  2.2995
 9203TIP3   OH227572   6.645   2.224   5.364 -0.2281 -0.2126  0.3200
 9203TIP3    H127573   6.658   2.315   5.338  3.3624 -1.4489 -3.1829
 9203TIP3    H227574   6.577   2.192   5.305 -0.4042 -0.1763  0.5032
 9204TIP3   OH227575   1.946   1.758   1.945  0.0508 -0.2879 -0.1825
 9204TIP3    H127576   1.956   1.835   1.888 -0.8246 -0.9596 -1.2794
 9204TIP3    H227577   1.911   1.690   1.888 -0.4365 -1.1270  1.0666
 9205TIP3   OH227578   4.110   0.166   2.763  0.2920 -0.0859  0.0374
 9205TIP3    H127579   4.177   0.218   2.809  0.2222 -0.2131  0.2839
 9205TIP3    H227580   4.041   0.153   2.828  0.0003  0.0901 -0.2339
 9206TIP3   OH227581   4.878   5.559   4.091 -0.1847  0.6307 -0.2019
 9206TIP3    H127582   4.889   5.636   4.147  0.4141 -0.0669  0.6715
 9206TIP3    H227583   4.931   5.576   4.014  0.1490  0.9818  0.1063
 9207TIP3   OH227584   5.628   0.886   3.413 -0.2279  0.2877 -0.6057
 9207TIP3    H127585   5.550   0.929   3.450 -0.4647 -0.3164 -0.3953
 9207TIP3    H227586   5.608   0.876   3.320 -1.0612 -1.2493 -0.2904
 9208TIP3   OH227587   4.439   4.213   2.563  0.2525 -0.1052  0.1607
 9208TIP3    H127588   4.364   4.264   2.594 -0.3704 -0.4808 -0.6926
 9208TIP3    H227589   4.400   4.141   2.513  1.1782 -0.4775 -0.0434
 9209TIP3   OH227590   0.742   1.090   0.593  0.0180 -0.1802 -0.3478
 9209TIP3    H127591   0.820   1.113   0.643 -1.1475  0.8549  1.0938
 9209TIP3    H227592   0.699   1.023   0.646 -0.6091  0.0319 -0.5733
 9210TIP3   OH227593   3.369   5.431   2.292 -0.0014 -0.0772  0.1512
 9210TIP3    H127594   3.462   5.444   2.311 -0.5054  1.3460  1.8899
 9210TIP3    H227595   3.339   5.372   2.360 -0.7023  0.7790  0.6019
 9211TIP3   OH227596   1.033   1.486   2.024 -0.7788  0.0849  0.2728
 9211TIP3    H127597   1.075   1.570   2.004 -0.5151 -0.2606 -0.7161
 9211TIP3    H227598   0.941   1.508   2.040 -0.7747  0.5391 -0.2684
 9212TIP3   OH227599   4.205   0.837   0.687  0.1061  0.2544 -0.7050
 9212TIP3    H127600   4.238   0.747   0.697 -0.5244 -0.0114 -0.9701
 9212TIP3    H227601   4.133   0.829   0.625  0.3530  1.0240 -1.1036
 9213TIP3   OH227602   6.051   1.018   1.765 -0.3770 -0.1148 -0.4181
 9213TIP3    H127603   6.107   1.095   1.771 -1.8593  1.1477 -1.9333
 9213TIP3    H227604   6.006   1.027   1.681 -1.1648 -2.2477 -0.2821
 9214TIP3   OH227605   1.349   1.467   5.221 -0.2789  0.0420 -0.0304
 9214TIP3    H127606   1.328   1.467   5.128 -0.7421  0.4655  0.0729
 9214TIP3    H227607   1.414   1.537   5.231 -0.8910  0.5997  0.1071
 9215TIP3   OH227608   6.133   4.626   0.858  0.2003 -0.4309 -0.2814
 9215TIP3    H127609   6.215   4.674   0.873 -0.4825  1.0222 -0.9670
 9215TIP3    H227610   6.149   4.576   0.778  0.8078 -1.1017  0.2459
 9216TIP3   OH227611   1.830   1.395   4.179 -0.7299 -0.1996  0.2973
 9216TIP3    H127612   1.817   1.489   4.168  0.6001 -0.0570 -0.2406
 9216TIP3    H227613   1.875   1.368   4.099  0.6452 -0.9327  1.2781
 9217TIP3   OH227614   4.571   2.366   1.432 -0.1239 -0.1017  0.2227
 9217TIP3    H127615   4.650   2.416   1.410 -0.1277 -0.7730 -1.3855
 9217TIP3    H227616   4.552   2.314   1.355 -1.9422 -0.2495  0.7122
 9218TIP3   OH227617   6.865   2.444   4.159  0.1871 -0.4592  0.3447
 9218TIP3    H127618   6.940   2.447   4.099  0.5167  1.2134  0.7922
 9218TIP3    H227619   6.803   2.508   4.123  0.5637  0.8743  1.9764
 9219TIP3   OH227620   6.059   5.435   4.374 -0.8568  0.3780 -0.0209
 9219TIP3    H127621   6.098   5.522   4.365 -0.1494 -0.0493 -1.2232
 9219TIP3    H227622   5.965   5.451   4.370 -0.7927  1.2293  1.1939
 9220TIP3   OH227623   7.099   6.287   1.812 -0.0363 -0.1011  0.6811
 9220TIP3    H127624   7.004   6.296   1.808  0.0083 -0.2068 -1.0023
 9220TIP3    H227625   7.127   6.360   1.867 -0.9828  0.6850  0.1429
 9221TIP3   OH227626   2.352   6.490   5.477 -0.4522 -0.1592  0.4680
 9221TIP3    H127627   2.304   6.483   5.559 -0.4187  0.1554  0.5178
 9221TIP3    H227628   2.417   6.420   5.481  1.4516  1.5460  1.9951
 9222TIP3   OH227629   3.350   6.584   1.532  0.0330  0.3903 -0.5804
 9222TIP3    H127630   3.262   6.620   1.543  0.0872  0.4951 -0.4822
 9222TIP3    H227631   3.402   6.657   1.499  0.7198  1.1494  1.9415
 9223TIP3   OH227632   2.010   5.722   5.770  0.2008 -0.5296 -0.3684
 9223TIP3    H127633   1.985   5.807   5.735 -0.0886 -1.2293 -1.9488
 9223TIP3    H227634   2.022   5.737   5.864  0.3189  1.2695 -0.6435
 9224TIP3   OH227635   3.713   6.773   1.993  0.1792  0.5386 -0.0046
 9224TIP3    H127636   3.684   6.766   2.083  1.8881  0.5092  0.5827
 9224TIP3    H227637   3.667   6.703   1.946 -0.9530  0.7527  0.7595
 9225TIP3   OH227638   1.051   1.549   0.500 -0.3543  0.3249 -0.0376
 9225TIP3    H127639   0.982   1.594   0.549 -1.2538 -0.5913 -0.4424
 9225TIP3    H227640   1.089   1.618   0.445 -0.9061  0.8575  0.2307
 9226TIP3   OH227641   2.406   4.922   2.140 -0.1231  0.4563  0.3277
 9226TIP3    H127642   2.493   4.949   2.170  0.7383  0.2598 -1.8316
 9226TIP3    H227643   2.423   4.854   2.074 -1.9315  0.1936  0.0677
 9227TIP3   OH227644   7.035   2.120   2.711  0.1814 -0.0178 -0.2220
 9227TIP3    H127645   7.080   2.037   2.695 -1.4695 -1.2830  1.3061
 9227TIP3    H227646   7.099   2.187   2.688  1.7646 -1.7045 -0.9633
 9228TIP3   OH227647   5.908   0.983   1.080  0.1391  0.3094 -0.2675
 9228TIP3    H127648   5.987   1.002   1.131 -0.1887  1.5832 -0.1902
 9228TIP3    H227649   5.848   0.944   1.143  0.1714  0.7424  0.0330
 9229TIP3   OH227650   0.671   2.066   4.766 -0.4217  0.0030  0.7535
 9229TIP3    H127651   0.617   1.987   4.769  1.6809 -1.5729 -0.0238
 9229TIP3    H227652   0.610   2.136   4.743 -2.2329 -1.5228  0.6516
 9230TIP3   OH227653   6.150   2.691   2.219 -0.0737 -0.0176 -0.5191
 9230TIP3    H127654   6.085   2.749   2.178 -0.0634  0.0768 -0.4041
 9230TIP3    H227655   6.153   2.614   2.162  2.2453  1.4170 -2.5501
 9231TIP3   OH227656   4.980   0.272   2.789 -0.7007 -0.0814 -0.1883
 9231TIP3    H127657   4.918   0.302   2.855  0.4394 -1.3629  1.5599
 9231TIP3    H227658   4.999   0.350   2.737 -1.4669  1.0423  1.1470
 9232TIP3   OH227659   4.968   4.845   1.276 -0.0174 -0.2633 -0.0919
 9232TIP3    H127660   5.049   4.800   1.298 -0.4052 -0.6919  0.4820
 9232TIP3    H227661   4.906   4.819   1.344 -1.1287 -1.2542 -1.4229
 9233TIP3   OH227662   1.184   4.532   4.555 -0.1167  0.3296 -0.6580
 9233TIP3    H127663   1.194   4.624   4.531 -1.6731 -0.0477 -3.0934
 9233TIP3    H227664   1.242   4.485   4.495 -0.5611 -0.3680 -0.5497
 9234TIP3   OH227665   1.899   4.820   4.492  0.0507  0.1411  0.0365
 9234TIP3    H127666   1.829   4.771   4.536 -0.8296 -0.1765 -1.6303
 9234TIP3    H227667   1.959   4.753   4.461  0.7053  0.3688  0.7819
 9235TIP3   OH227668   4.571   6.301   1.220  0.2513  0.3187 -0.0530
 9235TIP3    H127669   4.603   6.228   1.168 -3.0547 -0.7214 -0.8893
 9235TIP3    H227670   4.606   6.286   1.308  1.2799 -1.1085 -0.6842
 9236TIP3   OH227671   3.070   6.630   1.171 -0.3079  0.2760  0.2337
 9236TIP3    H127672   3.042   6.719   1.150  0.2786  0.3689 -0.1584
 9236TIP3    H227673   3.043   6.618   1.262 -1.8008  0.2896 -0.1721
 9237TIP3   OH227674   0.045   4.701   0.293  0.2960  0.1666 -0.3071
 9237TIP3    H127675   0.127   4.673   0.336  1.7897  1.8920 -1.8459
 9237TIP3    H227676   0.029   4.788   0.328 -0.4958  0.1258 -0.5632
 9238TIP3   OH227677   4.937   6.502   5.717  0.0517  0.3595 -0.4358
 9238TIP3    H127678   4.951   6.494   5.811  2.2412  0.6108 -0.6726
 9238TIP3    H227679   4.897   6.588   5.706 -2.7025 -0.7287  0.4096
 9239TIP3   OH227680   3.829   5.319   5.127  0.0016 -0.0733 -0.3508
 9239TIP3    H127681   3.845   5.327   5.221 -2.3853 -1.6298  0.2709
 9239TIP3    H227682   3.849   5.406   5.092  0.8928  0.5570  1.5863
 9240TIP3   OH227683   3.264   4.618   1.842  0.4854 -0.4586 -0.0518
 9240TIP3    H127684   3.357   4.642   1.837  0.5269 -0.6264 -0.0668
 9240TIP3    H227685   3.261   4.546   1.905  0.0479  1.2589  2.0578
 9241TIP3   OH227686   6.553   4.856   3.822  0.0581 -0.3058 -0.1973
 9241TIP3    H127687   6.542   4.813   3.906  0.5470 -0.0079  0.0252
 9241TIP3    H227688   6.638   4.900   3.829  0.2834 -0.6018 -0.9861
 9242TIP3   OH227689   2.382   1.005   1.953  0.9040  0.3884 -0.3839
 9242TIP3    H127690   2.293   0.976   1.935  0.9510 -0.6669  0.8750
 9242TIP3    H227691   2.372   1.091   1.993  0.4916  0.5297 -0.7845
 9243TIP3   OH227692   0.761   0.489   2.108  0.2615  0.0110 -0.2845
 9243TIP3    H127693   0.820   0.416   2.125  0.7033  0.6790  1.2257
 9243TIP3    H227694   0.758   0.538   2.191 -0.6551  1.2499 -1.0059
 9244TIP3   OH227695   1.044   1.451   2.488  0.0614 -0.7472 -0.0346
 9244TIP3    H127696   0.982   1.455   2.415 -1.8031  0.4569  1.5171
 9244TIP3    H227697   1.025   1.368   2.531  0.8495 -1.2480 -0.6361
 9245TIP3   OH227698   2.627   5.330   3.501  0.2513  0.3804  0.6952
 9245TIP3    H127699   2.721   5.320   3.488  0.6595  3.4966  0.4071
 9245TIP3    H227700   2.590   5.320   3.413  0.9233  3.4610 -0.0583
 9246TIP3   OH227701   1.286   2.321   1.150 -0.1906 -0.3151 -0.4356
 9246TIP3    H127702   1.316   2.230   1.161 -1.5218 -0.8050 -0.6515
 9246TIP3    H227703   1.203   2.313   1.103  0.2574  1.1028 -1.5258
 9247TIP3   OH227704   4.048   3.880   1.635 -0.4664 -0.6591 -0.3959
 9247TIP3    H127705   4.022   3.970   1.616 -0.6105 -0.6091  0.0284
 9247TIP3    H227706   3.980   3.826   1.596  1.3813 -0.7732 -3.8033
 9248TIP3   OH227707   5.861   5.966   2.595 -0.1999  0.5624 -0.1220
 9248TIP3    H127708   5.867   5.892   2.655  1.8065  0.7277 -0.0606
 9248TIP3    H227709   5.777   6.007   2.616  0.9951  1.4568  3.5743
 9249TIP3   OH227710   4.020   6.796   2.401 -0.8943  0.0879  0.0305
 9249TIP3    H127711   4.098   6.848   2.423 -0.8215 -0.5941  1.4882
 9249TIP3    H227712   4.047   6.743   2.326  0.6170 -1.3191  1.4916
 9250TIP3   OH227713   3.432   4.413   3.116 -0.5405 -0.0453  0.0796
 9250TIP3    H127714   3.398   4.469   3.185  0.2301 -0.6326  0.9533
 9250TIP3    H227715   3.396   4.326   3.134 -0.7356 -0.1034 -0.5473
 9251TIP3   OH227716   2.195   5.587   4.885  0.1153 -0.5469  0.6534
 9251TIP3    H127717   2.165   5.629   4.966 -0.1753 -2.1607  1.4227
 9251TIP3    H227718   2.178   5.652   4.817  1.0313  1.1466  1.9586
 9252TIP3   OH227719   5.395   4.950   1.177  0.3311 -0.1868 -0.0093
 9252TIP3    H127720   5.448   5.022   1.211 -0.0746  0.3734 -0.5433
 9252TIP3    H227721   5.319   4.947   1.236 -0.3617  0.7721 -0.8085
 9253TIP3   OH227722   1.860   0.990   4.551 -0.1609  0.4215 -0.2376
 9253TIP3    H127723   1.848   1.060   4.487  0.4297  0.0327 -0.7874
 9253TIP3    H227724   1.792   0.926   4.529 -0.8112  0.8911  0.3745
 9254TIP3   OH227725   3.934   0.516   0.164  0.1791 -0.2411 -0.2820
 9254TIP3    H127726   3.876   0.525   0.239 -0.9192 -0.2264 -1.1058
 9254TIP3    H227727   4.022   0.518   0.201 -0.3430 -0.4521  1.0139
 9255TIP3   OH227728   1.392   2.089   0.056 -0.7171 -0.2284  0.0025
 9255TIP3    H127729   1.479   2.117   0.027 -0.3948 -0.9574  0.2598
 9255TIP3    H227730   1.408   2.013   0.111 -1.3458  0.8908  1.8232
 9256TIP3   OH227731   3.639   3.196   3.237 -0.2868  0.1547  0.1394
 9256TIP3    H127732   3.550   3.196   3.203 -0.0330 -1.0089 -0.6068
 9256TIP3    H227733   3.669   3.106   3.225  0.3885  0.0806  2.0145
 9257TIP3   OH227734   3.149   4.429   2.935 -0.1408  0.4425  0.3900
 9257TIP3    H127735   3.238   4.423   2.902 -0.0786 -1.8170  0.8217
 9257TIP3    H227736   3.095   4.388   2.867 -0.7898  1.2343  0.4035
 9258TIP3   OH227737   0.005   0.341   1.418  0.0901 -0.6201  0.0061
 9258TIP3    H127738   0.074   0.279   1.398  0.4475 -0.0947 -0.4237
 9258TIP3    H227739  -0.073   0.305   1.375  0.4633 -0.3902 -0.8665
 9259TIP3   OH227740   4.616   2.249   1.695 -0.4550  0.0419  0.1328
 9259TIP3    H127741   4.636   2.297   1.614 -0.5675 -1.8641 -1.0757
 9259TIP3    H227742   4.691   2.269   1.752 -0.2309  1.1996 -0.5157
 9260TIP3   OH227743   5.354   0.495   4.031 -0.1822 -0.7456 -0.1739
 9260TIP3    H127744   5.427   0.521   4.087 -0.6855 -0.1655  0.2270
 9260TIP3    H227745   5.321   0.577   3.994 -0.6930 -0.9856 -0.2690
 9261TIP3   OH227746   5.499   3.633   0.094  0.0278  0.0778 -0.2436
 9261TIP3    H127747   5.540   3.560   0.142 -0.7427 -0.1295  0.1089
 9261TIP3    H227748   5.470   3.594   0.012 -1.0131 -0.1827  0.2402
 9262TIP3   OH227749   6.835   6.421   2.592  0.9378 -0.1501 -0.0561
 9262TIP3    H127750   6.876   6.504   2.566 -0.3487  0.6507  0.3634
 9262TIP3    H227751   6.875   6.400   2.676  0.0796  0.9494  0.6563
 9263TIP3   OH227752   6.622   1.045   1.269 -0.1554  0.4563 -0.1699
 9263TIP3    H127753   6.615   1.034   1.174  1.5621 -1.2210 -0.1589
 9263TIP3    H227754   6.559   0.983   1.305  2.7940 -2.9014 -0.2510
 9264TIP3   OH227755   3.422   1.235   3.957  0.1659 -0.4210  0.4735
 9264TIP3    H127756   3.384   1.277   3.880 -0.7800 -0.4450  0.9052
 9264TIP3    H227757   3.511   1.213   3.931 -0.7223 -2.2096 -1.2951
 9265TIP3   OH227758   6.569   5.550   1.547 -0.3029 -0.2173  0.0035
 9265TIP3    H127759   6.621   5.486   1.596  0.5556  0.8315  0.4995
 9265TIP3    H227760   6.511   5.589   1.613  0.2595  0.5888  0.0471
 9266TIP3   OH227761   5.435   3.810   2.321  0.2955  0.1443  0.3797
 9266TIP3    H127762   5.424   3.866   2.398 -0.8418  0.3375  0.0922
 9266TIP3    H227763   5.468   3.868   2.253 -1.3049  0.6025 -0.0481
 9267TIP3   OH227764   3.031   1.168   2.347 -0.5730 -0.0794  0.0788
 9267TIP3    H127765   2.943   1.147   2.316  0.8154 -0.9668 -3.7903
 9267TIP3    H227766   3.076   1.084   2.353  1.1458  0.5673 -2.2432
 9268TIP3   OH227767   2.986   0.392   2.100  0.1974 -0.2615 -0.2991
 9268TIP3    H127768   2.905   0.343   2.117  0.8199 -0.2932  3.3267
 9268TIP3    H227769   3.056   0.332   2.124  1.1653  0.8993 -0.1499
 9269TIP3   OH227770   4.976   2.183   2.652 -0.1354  0.4651 -0.0251
 9269TIP3    H127771   5.069   2.159   2.645 -0.1215 -0.0536  1.5164
 9269TIP3    H227772   4.975   2.252   2.718 -0.7191  1.4142 -1.0079
 9270TIP3   OH227773   6.714   5.692   5.762  0.1911  0.0120  0.1883
 9270TIP3    H127774   6.770   5.769   5.762  0.7178 -0.3619  0.0207
 9270TIP3    H227775   6.698   5.673   5.670 -0.3327  0.1970  0.2356
 9271TIP3   OH227776   0.966   5.072   4.989  0.0317 -0.0583  0.4665
 9271TIP3    H127777   0.975   5.030   5.075 -2.3016  0.3830  0.9942
 9271TIP3    H227778   0.949   5.164   5.009  0.2624  0.2021 -0.5041
 9272TIP3   OH227779   3.942   4.463   3.396  0.1505  0.3843  0.2674
 9272TIP3    H127780   3.963   4.547   3.437 -2.3658  1.0177  0.4489
 9272TIP3    H227781   3.868   4.483   3.338 -2.1938 -2.0803  2.1562
 9273TIP3   OH227782   6.664   5.073   1.757  0.4725 -0.0113  0.9502
 9273TIP3    H127783   6.711   5.002   1.801 -0.9777 -0.8865  1.1261
 9273TIP3    H227784   6.599   5.102   1.820 -0.8667 -0.4941 -0.1611
 9274TIP3   OH227785   3.597   3.494   4.136  0.3099  0.1917  0.0970
 9274TIP3    H127786   3.649   3.429   4.088 -1.1752  0.3819 -1.9099
 9274TIP3    H227787   3.659   3.563   4.159  1.4382 -0.7881  0.0890
 9275TIP3   OH227788   0.578   5.913   3.368 -0.2334 -0.0003  0.1083
 9275TIP3    H127789   0.577   5.862   3.287 -1.3310 -1.2090  0.8335
 9275TIP3    H227790   0.507   5.976   3.357  0.9681  1.2792 -0.6889
 9276TIP3   OH227791   0.157   4.927   4.503 -0.3585 -0.3855 -0.0549
 9276TIP3    H127792   0.062   4.939   4.497 -0.1289  0.8163 -2.5678
 9276TIP3    H227793   0.170   4.835   4.481 -0.8583  0.0375 -2.4716
 9277TIP3   OH227794   2.412   2.768   3.353 -0.1563 -0.7396  0.1210
 9277TIP3    H127795   2.487   2.808   3.398  0.2651 -0.2038 -1.0283
 9277TIP3    H227796   2.433   2.675   3.350 -0.7594 -0.9873  2.0798
 9278TIP3   OH227797   6.371   1.834   2.431 -0.2559  0.2461  0.1623
 9278TIP3    H127798   6.324   1.864   2.353  1.5732  1.6170 -0.4924
 9278TIP3    H227799   6.428   1.764   2.399 -1.4353 -1.0754  0.8516
 9279TIP3   OH227800   5.558   6.006   3.552 -0.3276  0.6455 -0.0541
 9279TIP3    H127801   5.588   6.060   3.625  0.4250 -1.3404  1.2027
 9279TIP3    H227802   5.636   5.957   3.525 -1.3034 -1.0475  0.0334
 9280TIP3   OH227803   1.242   3.964   1.276  0.2204  0.9538 -0.5253
 9280TIP3    H127804   1.164   3.925   1.236  0.8555 -0.7039 -0.2154
 9280TIP3    H227805   1.223   3.965   1.370  1.3637 -1.4860 -0.2013
 9281TIP3   OH227806   0.354   3.832   4.696 -0.1024 -0.0418 -0.7627
 9281TIP3    H127807   0.323   3.921   4.681  0.5936  0.9354  2.6916
 9281TIP3    H227808   0.449   3.840   4.702  0.3061 -1.6471 -3.3799
 9282TIP3   OH227809   3.213   0.688   3.462 -0.2673  0.2811 -0.2522
 9282TIP3    H127810   3.214   0.758   3.526  1.7629  0.8401 -0.8341
 9282TIP3    H227811   3.178   0.729   3.382 -0.9904  0.0702 -0.0591
 9283TIP3   OH227812   1.017   3.673   1.421  0.2511 -1.1417  0.1242
 9283TIP3    H127813   1.090   3.614   1.402 -0.5962 -2.1232 -0.0980
 9283TIP3    H227814   0.985   3.701   1.335  0.1464 -0.9652  0.2187
 9284TIP3   OH227815   1.769   1.805   1.650  0.0452  0.0123  0.4380
 9284TIP3    H127816   1.714   1.745   1.701  1.5462 -1.1505  0.7448
 9284TIP3    H227817   1.847   1.754   1.629  1.2342  1.7582  0.4279
 9285TIP3   OH227818   5.064   6.118   5.533 -0.0951  0.7534 -0.3739
 9285TIP3    H127819   5.097   6.173   5.461 -0.8109 -0.0853 -1.3748
 9285TIP3    H227820   5.111   6.035   5.522 -0.9612  0.2721 -0.5141
 9286TIP3   OH227821   2.853   2.465   4.601 -0.4771 -0.0245 -0.3297
 9286TIP3    H127822   2.828   2.462   4.694 -3.5508 -0.5295 -1.0527
 9286TIP3    H227823   2.811   2.545   4.568 -0.0360 -0.2370 -1.4390
 9287TIP3   OH227824   0.879   1.797   1.853  0.1377  0.5137  0.2327
 9287TIP3    H127825   0.815   1.820   1.921  0.6638 -0.0902  0.9412
 9287TIP3    H227826   0.956   1.766   1.901 -0.6768 -3.2849 -0.6030
 9288TIP3   OH227827   2.238   4.022   1.958  0.1975 -0.5336  0.1580
 9288TIP3    H127828   2.168   4.035   1.894  1.3605  1.0246 -0.8511
 9288TIP3    H227829   2.316   4.059   1.917  1.2091 -0.4424  2.0562
 9289TIP3   OH227830   5.738   6.539   1.535  0.6905  0.3782 -0.1455
 9289TIP3    H127831   5.648   6.518   1.560  0.8260 -0.7272 -0.5365
 9289TIP3    H227832   5.742   6.522   1.441  1.0518  1.3816 -0.3244
 9290TIP3   OH227833   7.181   1.496   2.372 -0.0295 -0.1458 -0.2779
 9290TIP3    H127834   7.235   1.572   2.394 -1.3568  0.4748  1.0079
 9290TIP3    H227835   7.203   1.476   2.281  1.9192  0.4238  0.0208
 9291TIP3   OH227836   4.531   1.345   5.088  0.6360  0.2784 -0.1794
 9291TIP3    H127837   4.459   1.378   5.035 -0.6084 -2.7025 -0.5724
 9291TIP3    H227838   4.488   1.293   5.156  2.3678 -1.2768 -0.2032
 9292TIP3   OH227839   2.581   2.379   3.756 -0.4254 -0.5245  0.3597
 9292TIP3    H127840   2.641   2.337   3.818 -1.3601 -1.7988  0.4323
 9292TIP3    H227841   2.630   2.382   3.674 -0.1151 -1.2191  0.5107
 9293TIP3   OH227842   6.740   4.406   5.603  0.2326 -0.8777 -0.1295
 9293TIP3    H127843   6.757   4.317   5.573 -1.0834 -1.8445  1.8372
 9293TIP3    H227844   6.646   4.418   5.591  0.3856  0.2804 -0.3465
 9294TIP3   OH227845   1.598   6.682   2.171  0.0109 -0.1074 -0.0248
 9294TIP3    H127846   1.614   6.610   2.111  1.8694  1.0701 -1.0286
 9294TIP3    H227847   1.551   6.747   2.118 -1.4076 -0.4226  0.7945
 9295TIP3   OH227848   6.452   2.586   2.074  0.0944 -0.2019  0.0917
 9295TIP3    H127849   6.448   2.682   2.076  0.9125 -0.0820 -1.9511
 9295TIP3    H227850   6.361   2.558   2.085 -0.7587  0.9835 -2.9596
 9296TIP3   OH227851   2.960   0.499   1.411  0.1505 -0.3333 -0.3000
 9296TIP3    H127852   3.026   0.499   1.341  1.2588  0.8249  0.7007
 9296TIP3    H227853   2.958   0.590   1.442 -1.6674 -0.4248 -0.0452
 9297TIP3   OH227854   6.038   4.872   5.226  0.1665 -0.0153  0.5042
 9297TIP3    H127855   6.037   4.962   5.262 -1.0395 -0.1836  0.9614
 9297TIP3    H227856   6.041   4.816   5.304  1.4321 -0.3834  0.2050
 9298TIP3   OH227857   4.091   0.059   0.599 -0.5187 -0.0613  0.3098
 9298TIP3    H127858   4.178   0.069   0.638  0.0930  2.7905 -1.5196
 9298TIP3    H227859   4.030   0.078   0.670  0.3946 -0.3001  1.1747
 9299TIP3   OH227860   3.914   2.124   1.041 -0.5626 -0.0078  0.0568
 9299TIP3    H127861   3.830   2.171   1.043 -0.1139  0.7949  0.7746
 9299TIP3    H227862   3.935   2.116   0.948 -0.5609  1.4135 -0.0962
 9300TIP3   OH227863   0.033   6.506   4.634 -0.6716 -0.0724  0.6399
 9300TIP3    H127864   0.103   6.551   4.681 -0.3823  0.8732 -0.6456
 9300TIP3    H227865   0.049   6.527   4.542 -1.2530 -1.8246  0.1138
 9301TIP3   OH227866   5.799   2.026   3.872  0.7140  0.2831  0.0507
 9301TIP3    H127867   5.778   2.030   3.965  1.0665  2.1489  0.0952
 9301TIP3    H227868   5.890   2.054   3.866  1.4409 -1.9960 -0.6900
 9302TIP3   OH227869   4.382   5.669   1.405  0.2495  0.0267 -0.5852
 9302TIP3    H127870   4.328   5.727   1.350 -1.4327 -1.4016 -0.5632
 9302TIP3    H227871   4.379   5.708   1.492 -1.1004 -0.1899 -0.5084
 9303TIP3   OH227872   3.354   3.018   0.099  0.0029 -0.6656 -0.1736
 9303TIP3    H127873   3.288   3.051   0.038 -1.6740 -2.9096  0.3082
 9303TIP3    H227874   3.305   2.999   0.179  1.8267  0.4229  1.2820
 9304TIP3   OH227875   1.098   0.680   5.312  0.3587  0.2719  0.2954
 9304TIP3    H127876   1.045   0.617   5.262  0.4571  0.0233  0.4995
 9304TIP3    H227877   1.036   0.748   5.338  0.3149  0.4253 -0.2017
 9305TIP3   OH227878   5.700   3.108   2.409  0.3314  0.1861 -0.7258
 9305TIP3    H127879   5.761   3.072   2.473 -1.2866 -2.0786 -0.3514
 9305TIP3    H227880   5.648   3.172   2.458 -0.5813 -1.1921  0.1503
 9306TIP3   OH227881   2.917   4.149   2.480 -0.1152 -0.7458 -0.6134
 9306TIP3    H127882   2.939   4.109   2.564 -1.0414  0.5009  0.2671
 9306TIP3    H227883   2.824   4.130   2.469 -0.5719  1.0161 -0.1959
 9307TIP3   OH227884   6.916   5.873   5.000  0.1005 -0.3678 -0.3764
 9307TIP3    H127885   6.843   5.812   4.993  0.2055 -0.4662 -0.6300
 9307TIP3    H227886   6.892   5.932   5.071 -0.2457 -0.3710 -0.4901
 9308TIP3   OH227887   5.068   3.757   4.315 -0.1704  0.4615 -0.3301
 9308TIP3    H127888   5.088   3.851   4.312 -0.0272  0.4509  0.1592
 9308TIP3    H227889   5.144   3.715   4.274  0.2630  0.4985  0.4130
 9309TIP3   OH227890   2.862   5.222   2.653  0.3276 -0.2424  0.3586
 9309TIP3    H127891   2.948   5.247   2.617  0.0478 -0.4075 -0.4384
 9309TIP3    H227892   2.846   5.286   2.723  0.9493 -0.0015  0.2888
 9310TIP3   OH227893   4.744   4.871   1.021 -0.0788 -0.4054  0.3122
 9310TIP3    H127894   4.713   4.947   0.972 -2.1420 -0.7949  0.9434
 9310TIP3    H227895   4.824   4.902   1.064  0.2841  0.7479 -1.1009
 9311TIP3   OH227896   3.957   1.064   1.195  0.0168  0.6277  0.0350
 9311TIP3    H127897   4.052   1.057   1.190  0.0366  0.0526  1.0423
 9311TIP3    H227898   3.928   1.060   1.103  0.8398 -1.1313 -0.2010
 9312TIP3   OH227899   6.272   3.272   1.529 -0.0011  0.1095 -0.1956
 9312TIP3    H127900   6.211   3.327   1.579 -0.5335 -1.7370  1.3115
 9312TIP3    H227901   6.291   3.198   1.587 -0.6021 -2.1551 -2.6566
 9313TIP3   OH227902   1.401   3.141   3.982  0.2676  0.5313  0.1339
 9313TIP3    H127903   1.325   3.117   4.036  0.6631  3.8903  2.5212
 9313TIP3    H227904   1.476   3.106   4.029  0.4253  0.8638  0.1353
 9314TIP3   OH227905   2.830   5.404   2.868 -0.4700 -0.4386 -0.5656
 9314TIP3    H127906   2.765   5.449   2.922  0.2342 -1.1960  0.9880
 9314TIP3    H227907   2.848   5.323   2.915  2.2025  0.1094 -0.4851
 9315TIP3   OH227908   1.675   3.524   5.639 -0.3355 -0.4452 -0.0454
 9315TIP3    H127909   1.603   3.581   5.665 -1.2347 -1.8910  0.7551
 9315TIP3    H227910   1.634   3.440   5.619  0.8322 -0.5372 -2.3119
 9316TIP3   OH227911   1.419   6.561   2.431  0.2373  0.4850  0.4569
 9316TIP3    H127912   1.441   6.648   2.465  0.6601  0.4686  0.2280
 9316TIP3    H227913   1.357   6.579   2.359 -1.2600  0.4795  1.6859
 9317TIP3   OH227914   4.278   1.242   5.794 -0.2708  0.6173  0.5151
 9317TIP3    H127915   4.263   1.186   5.870 -1.5866  0.3564  0.0901
 9317TIP3    H227916   4.372   1.257   5.794 -0.1485  0.0238  1.7697
 9318TIP3   OH227917   5.557   0.897   3.108  0.0828  0.2699  0.3645
 9318TIP3    H127918   5.534   0.811   3.143 -1.4687 -0.3426 -1.9181
 9318TIP3    H227919   5.649   0.890   3.083  0.3250 -0.2792  1.3691
 9319TIP3   OH227920   4.132   5.993   3.943 -0.6002 -0.1573  0.4086
 9319TIP3    H127921   4.171   5.917   3.985 -1.3577 -0.8093 -0.0503
 9319TIP3    H227922   4.204   6.057   3.938  0.3376 -1.2212 -0.1484
 9320TIP3   OH227923   3.138   3.008   0.862  0.6828  0.0474  0.2398
 9320TIP3    H127924   3.219   3.054   0.841  0.8653 -0.1522  0.5116
 9320TIP3    H227925   3.127   2.944   0.791  0.1145  0.9041 -0.4696
 9321TIP3   OH227926   4.910   4.252   3.944 -0.5864  0.2491  0.0227
 9321TIP3    H127927   4.949   4.214   3.865 -0.6023 -0.1786  0.2144
 9321TIP3    H227928   4.932   4.189   4.013  0.0427  0.9776  0.4895
 9322TIP3   OH227929   2.969   0.102   2.321  0.4153  0.2978  0.3236
 9322TIP3    H127930   3.001   0.033   2.380 -1.9416 -0.2762  1.0367
 9322TIP3    H227931   2.949   0.056   2.239 -1.9077 -0.1300  1.0480
 9323TIP3   OH227932   6.869   5.983   4.191  0.0860 -0.0332 -0.0186
 9323TIP3    H127933   6.868   5.938   4.275 -0.2124  0.2406  0.1224
 9323TIP3    H227934   6.785   5.963   4.151 -0.2242  0.7557  0.2301
 9324TIP3   OH227935   3.377   1.900   3.511 -0.5976  0.3565  0.1566
 9324TIP3    H127936   3.324   1.847   3.570 -0.1056 -0.0753  0.2192
 9324TIP3    H227937   3.418   1.965   3.568  0.4211 -0.4877  0.4174
 9325TIP3   OH227938   6.183   3.459   1.054 -0.1415  0.4751  0.5017
 9325TIP3    H127939   6.195   3.521   1.126 -0.7641  1.0180  0.1499
 9325TIP3    H227940   6.247   3.487   0.988 -0.1303  0.4795  0.5146
 9326TIP3   OH227941   7.066   3.097   1.818 -0.4641  0.0257 -0.3917
 9326TIP3    H127942   7.121   3.022   1.843 -0.6920 -0.0559 -0.1200
 9326TIP3    H227943   7.124   3.154   1.768  0.3379  0.7256  1.2321
 9327TIP3   OH227944   1.705   3.688   0.858  0.0184 -0.0506  0.1251
 9327TIP3    H127945   1.693   3.729   0.773 -3.4331 -1.3458 -0.1619
 9327TIP3    H227946   1.658   3.745   0.919  0.0497 -0.5966  0.6689
 9328TIP3   OH227947   1.326   0.446   0.007 -0.6118 -0.6174 -0.6864
 9328TIP3    H127948   1.291   0.362   0.035  0.8865 -0.2783  2.5989
 9328TIP3    H227949   1.249   0.498  -0.017 -1.8810 -1.7263  0.8147
 9329TIP3   OH227950   2.036   2.756   0.183  0.0844  0.2828 -0.1649
 9329TIP3    H127951   2.034   2.667   0.146 -0.4499 -0.5339  1.7266
 9329TIP3    H227952   1.963   2.801   0.142 -0.0498 -0.3569 -0.6462
 9330TIP3   OH227953   0.409   4.099   2.273  0.0141 -0.0043  0.4860
 9330TIP3    H127954   0.430   4.082   2.365  0.3350  2.4991  0.9510
 9330TIP3    H227955   0.490   4.081   2.226  0.3580  0.3609  0.9362
 9331TIP3   OH227956   1.313   2.112   4.663  0.5594  0.8109 -0.1246
 9331TIP3    H127957   1.356   2.197   4.651  1.5913  0.3180 -0.0115
 9331TIP3    H227958   1.364   2.051   4.610 -2.8681  0.9588 -4.0914
 9332TIP3   OH227959   0.932   4.694   5.334 -0.3005 -0.3107 -0.0873
 9332TIP3    H127960   0.904   4.785   5.341  1.1203  0.0239  3.7066
 9332TIP3    H227961   0.864   4.651   5.282 -1.9816  2.5204 -0.4168
 9333TIP3   OH227962   1.205   4.670   4.089  0.2655 -0.1159  0.0198
 9333TIP3    H127963   1.270   4.689   4.022  0.1514  0.2311  0.0050
 9333TIP3    H227964   1.153   4.750   4.095 -0.2448 -0.4355 -0.0651
 9334TIP3   OH227965   6.171   1.808   2.622  0.0568 -0.0237  0.0151
 9334TIP3    H127966   6.251   1.829   2.574  1.3682  0.2642  2.1759
 9334TIP3    H227967   6.138   1.728   2.581  1.0382  0.2491 -1.3688
 9335TIP3   OH227968   5.723   0.464   4.501  0.8069  0.2623 -0.2636
 9335TIP3    H127969   5.704   0.441   4.410 -0.0731 -0.3756  0.0708
 9335TIP3    H227970   5.657   0.417   4.552 -0.2849  2.5662  0.5632
 9336TIP3   OH227971   6.554   2.125   0.768  0.1455 -0.3088 -0.3050
 9336TIP3    H127972   6.509   2.041   0.780  0.3115 -0.7310 -2.2966
 9336TIP3    H227973   6.566   2.132   0.673  0.9803  1.5367 -0.0974
 9337TIP3   OH227974   4.835   1.343   3.409  0.0757  0.1296 -0.4667
 9337TIP3    H127975   4.852   1.280   3.480  0.3450 -1.6946 -2.0733
 9337TIP3    H227976   4.744   1.367   3.421 -0.5447 -1.8832 -0.7592
 9338TIP3   OH227977   1.096   2.981   3.155 -0.4075  0.4380 -0.9353
 9338TIP3    H127978   1.179   2.987   3.108  1.3714 -1.9551  1.5085
 9338TIP3    H227979   1.120   2.996   3.247 -2.5097 -0.9949 -0.0695
 9339TIP3   OH227980   4.127   2.926   3.172  0.2430 -0.1655 -0.5056
 9339TIP3    H127981   4.126   2.945   3.266  2.6301 -1.4609 -0.1508
 9339TIP3    H227982   4.037   2.943   3.144 -0.0002  2.6279  1.4828
 9340TIP3   OH227983   0.245   5.445   2.596 -0.1579 -0.3663 -0.0441
 9340TIP3    H127984   0.208   5.534   2.594  1.1719  0.2090 -0.3972
 9340TIP3    H227985   0.176   5.390   2.560 -1.6110  0.2632  1.6137
 9341TIP3   OH227986   4.867   5.389   3.342  1.1556 -0.9300  0.0611
 9341TIP3    H127987   4.958   5.374   3.317  1.1733 -1.7827  0.5750
 9341TIP3    H227988   4.852   5.482   3.327  2.2433 -0.6873  0.3964
 9342TIP3   OH227989   1.170   2.235   4.253  0.1572  0.1533 -0.0125
 9342TIP3    H127990   1.150   2.148   4.288  0.6372 -1.0362 -2.5101
 9342TIP3    H227991   1.257   2.227   4.215 -0.4705  1.2081 -1.8117
 9343TIP3   OH227992   6.989   0.380   4.696  0.1345  0.3164 -0.3566
 9343TIP3    H127993   6.950   0.460   4.662 -0.1292  1.5572  2.5250
 9343TIP3    H227994   6.917   0.335   4.740  0.6764 -0.5809 -0.3523
 9344TIP3   OH227995   4.220   3.782   1.826  0.2128  0.0602  0.1746
 9344TIP3    H127996   4.152   3.815   1.768 -0.1476 -1.6484 -0.4303
 9344TIP3    H227997   4.210   3.833   1.906 -0.4237  1.2487 -0.6224
 9345TIP3   OH227998   4.990   3.055   4.997 -0.1866  0.5349  0.1999
 9345TIP3    H127999   5.004   3.118   5.067  1.4047  0.7791 -0.2813
 9345TIP3    H228000   5.073   3.054   4.949 -0.3642 -1.5023 -0.1584
 9346TIP3   OH228001   0.982   0.782   4.636 -0.0169 -0.7353 -0.1914
 9346TIP3    H128002   0.974   0.866   4.591 -1.4501 -1.8659 -2.1728
 9346TIP3    H228003   1.051   0.736   4.589  0.9199 -0.6580  1.0307
 9347TIP3   OH228004   2.669   1.781   1.424 -0.3853  0.2970  0.6362
 9347TIP3    H128005   2.612   1.704   1.434 -0.6461  0.4788  0.5642
 9347TIP3    H228006   2.621   1.852   1.467  0.7326  0.0139  2.4305
 9348TIP3   OH228007   0.431   5.262   3.786  0.0687 -0.3228 -0.0394
 9348TIP3    H128008   0.523   5.285   3.793 -0.0932  0.2294  0.3207
 9348TIP3    H228009   0.417   5.250   3.692  0.2700  0.6152 -0.1962
 9349TIP3   OH228010   1.811   2.087   0.862  1.0055 -0.4211 -0.5037
 9349TIP3    H128011   1.722   2.121   0.865  0.6754 -1.3566  0.6021
 9349TIP3    H228012   1.852   2.119   0.942  1.5326 -0.3670 -0.7896
 9350TIP3   OH228013   5.959   1.708   1.310 -0.2381  0.4345 -0.3821
 9350TIP3    H128014   5.908   1.654   1.371 -0.5107 -0.0899 -1.0587
 9350TIP3    H228015   6.050   1.697   1.338 -0.1415 -1.4082 -1.2567
 9351TIP3   OH228016   5.121   1.435   1.095  0.3138  0.6008  0.0011
 9351TIP3    H128017   5.130   1.488   1.015  1.1725  1.1709  0.4647
 9351TIP3    H228018   5.205   1.390   1.103 -0.0751 -0.1020  0.1344
 9352TIP3   OH228019   2.495   0.591   0.638  0.1197  0.1692  0.6912
 9352TIP3    H128020   2.494   0.559   0.728  0.1048  1.4859  1.1830
 9352TIP3    H228021   2.588   0.598   0.616  0.1239 -0.1066  0.6205
 9353TIP3   OH228022   1.239   6.618   2.221  0.5019  0.6299  0.0672
 9353TIP3    H128023   1.160   6.568   2.240  0.9223 -0.0065  0.1888
 9353TIP3    H228024   1.280   6.571   2.148 -0.4213  2.2910 -1.5855
 9354TIP3   OH228025   0.985   3.931   5.353  0.3699  0.4801 -0.2079
 9354TIP3    H128026   1.014   3.960   5.266  0.2783 -0.9577 -0.7444
 9354TIP3    H228027   0.904   3.884   5.337  1.1071 -1.0854  0.4377
 9355TIP3   OH228028   1.187   4.305   3.792 -0.1172  0.0935  0.3705
 9355TIP3    H128029   1.218   4.385   3.835 -0.6910 -0.0843  1.1574
 9355TIP3    H228030   1.259   4.277   3.737  0.0943  1.1547  0.0866
 9356TIP3   OH228031   5.350   1.775   3.790 -0.4159  0.4217 -0.3707
 9356TIP3    H128032   5.328   1.763   3.882 -3.9527 -2.4492 -1.3669
 9356TIP3    H228033   5.436   1.734   3.781  0.5440  1.7649  1.7244
 9357TIP3   OH228034   0.339   1.001   5.428 -0.5426 -0.5461 -0.2692
 9357TIP3    H128035   0.411   1.064   5.427 -1.6330  0.9402  2.3382
 9357TIP3    H228036   0.373   0.927   5.479 -0.5578 -0.2028  0.2538
 9358TIP3   OH228037   2.158   1.371   1.596  0.2692 -0.2453 -0.0482
 9358TIP3    H128038   2.220   1.320   1.543  0.8882  0.3145  0.1282
 9358TIP3    H228039   2.214   1.424   1.653 -0.3476  1.0215 -0.5898
 9359TIP3   OH228040   2.540   4.749  -0.011 -0.1425 -0.3951  0.2436
 9359TIP3    H128041   2.556   4.698   0.069  1.4848  1.9013  1.5228
 9359TIP3    H228042   2.453   4.786   0.001 -0.5829 -1.3728  0.1523
 9360TIP3   OH228043   4.640   6.659   4.086 -0.1044  0.1352  0.4270
 9360TIP3    H128044   4.688   6.633   4.007 -0.1300  1.5186 -0.0730
 9360TIP3    H228045   4.632   6.578   4.137 -0.4365 -0.8783 -1.1655
 9361TIP3   OH228046   6.279   3.793   4.769 -0.3940 -0.0052  0.1737
 9361TIP3    H128047   6.238   3.710   4.744 -0.9653  0.0590  0.8521
 9361TIP3    H228048   6.208   3.843   4.809  0.0037  0.7214 -0.0213
 9362TIP3   OH228049   2.273   3.725   2.319 -0.4695 -0.0518  0.5917
 9362TIP3    H128050   2.292   3.819   2.325  0.6101 -0.2850  1.1137
 9362TIP3    H228051   2.178   3.720   2.316 -0.5325  1.0865  0.0304
 9363TIP3   OH228052   1.088   6.291   2.660 -0.1702 -0.1381  0.4624
 9363TIP3    H128053   1.093   6.201   2.628  0.3675 -1.1142  3.0797
 9363TIP3    H228054   1.173   6.329   2.637 -0.1416 -0.5085 -0.0640
 9364TIP3   OH228055   6.196   2.751   3.919  0.5294 -0.2796 -0.1316
 9364TIP3    H128056   6.177   2.664   3.884  1.2728 -0.3297 -0.4381
 9364TIP3    H228057   6.120   2.804   3.894  0.1600 -0.7870 -0.1094
 9365TIP3   OH228058   6.083   2.996   0.722  0.2928 -0.4918 -0.6276
 9365TIP3    H128059   6.075   2.919   0.778 -0.9078 -0.1275 -0.2742
 9365TIP3    H228060   6.149   3.051   0.765  0.2923 -0.7854 -0.2527
 9366TIP3   OH228061   0.418   5.995   2.147 -0.1830 -0.2676  0.0537
 9366TIP3    H128062   0.501   5.958   2.177 -0.1527 -0.0159  0.2779
 9366TIP3    H228063   0.361   5.991   2.224 -0.3038 -0.2117 -0.0329
 9367TIP3   OH228064   4.286   0.729   1.876 -0.1545  0.3730  0.3517
 9367TIP3    H128065   4.264   0.780   1.798  2.1619 -0.2662 -0.8258
 9367TIP3    H228066   4.281   0.792   1.947  1.3636  2.0031 -0.8811
 9368TIP3   OH228067   1.048   0.426   1.062  0.1039 -0.1167 -0.2392
 9368TIP3    H128068   1.138   0.415   1.030  0.1683  2.6355 -1.2186
 9368TIP3    H228069   1.059   0.467   1.148 -0.2005  0.5015 -0.4910
 9369TIP3   OH228070   0.678   2.273   2.554  0.2473 -0.1401  0.4304
 9369TIP3    H128071   0.640   2.359   2.534  1.0225  0.0305 -0.3838
 9369TIP3    H228072   0.661   2.220   2.476  2.9794  0.4190 -0.6918
 9370TIP3   OH228073   4.169   3.084   2.930  0.1357 -0.0622  0.3339
 9370TIP3    H128074   4.143   3.086   3.022 -0.2721 -0.2735  0.2252
 9370TIP3    H228075   4.175   2.991   2.909 -1.5641 -0.0457 -0.3499
 9371TIP3   OH228076   6.491   0.519   0.733 -0.0083 -0.0318 -0.2456
 9371TIP3    H128077   6.432   0.593   0.748 -0.1660 -0.1438 -0.3171
 9371TIP3    H228078   6.558   0.528   0.801 -1.4718 -1.3223  1.4454
 9372TIP3   OH228079   3.628   2.778   0.827 -0.5510  0.0225  0.2286
 9372TIP3    H128080   3.705   2.834   0.834 -1.1965  1.1944 -1.3899
 9372TIP3    H228081   3.560   2.823   0.876 -1.1985  0.9660 -1.4521
 9373TIP3   OH228082   6.872   5.687   1.781 -0.3356  0.0232 -0.6919
 9373TIP3    H128083   6.916   5.772   1.786  0.7676 -0.5985  0.5318
 9373TIP3    H228084   6.911   5.643   1.706 -0.0026  0.0954 -0.5601
 9374TIP3   OH228085   4.379   3.362   2.191  0.0103  0.0210  0.8894
 9374TIP3    H128086   4.354   3.425   2.123 -0.0227  0.0962  0.9706
 9374TIP3    H228087   4.431   3.296   2.145  0.0331  0.1005  0.8012
 9375TIP3   OH228088   1.315   0.896   4.602  0.1915  0.3194 -0.1049
 9375TIP3    H128089   1.309   0.907   4.507  3.3714  0.2506 -0.4353
 9375TIP3    H228090   1.367   0.817   4.614  0.9287  1.0079  1.6362
 9376TIP3   OH228091   4.271   3.713   0.288  0.0466  0.3179 -0.1759
 9376TIP3    H128092   4.235   3.661   0.216  1.4656 -1.4139  0.2873
 9376TIP3    H228093   4.230   3.799   0.279 -1.6964 -0.6026 -1.5378
 9377TIP3   OH228094   6.916   1.358   5.758 -0.2775 -0.6005 -0.7210
 9377TIP3    H128095   6.971   1.430   5.789  0.1911 -1.0442 -0.5093
 9377TIP3    H228096   6.863   1.397   5.688 -1.6282  0.5104  0.8273
 9378TIP3   OH228097   2.922   3.930   1.861 -0.4915  0.3698 -0.4108
 9378TIP3    H128098   2.907   4.013   1.815  0.3995  0.4093 -0.6394
 9378TIP3    H228099   2.999   3.946   1.915  0.4337 -0.6819 -1.3917
 9379TIP3   OH228100   3.987   6.788   4.449 -0.4776  0.6472  0.1716
 9379TIP3    H128101   3.972   6.736   4.370  0.6881 -0.0724  0.3973
 9379TIP3    H228102   4.030   6.868   4.418  1.5992 -0.3828  0.1817
 9380TIP3   OH228103   6.527   0.330   0.473  0.3443  0.0597  0.1762
 9380TIP3    H128104   6.551   0.361   0.386 -2.7992 -0.4161 -0.9643
 9380TIP3    H228105   6.523   0.410   0.526  0.7711  0.5307 -0.4896
 9381TIP3   OH228106   0.351   2.564   0.490 -0.1546 -0.0916  0.1088
 9381TIP3    H128107   0.295   2.631   0.451 -2.0097 -1.2226  0.7060
 9381TIP3    H228108   0.382   2.603   0.572 -1.2551  0.0356  0.4754
 9382TIP3   OH228109   5.853   6.637   0.969 -0.5005 -0.1799 -0.4605
 9382TIP3    H128110   5.773   6.636   1.022 -0.2181 -0.3626 -0.0301
 9382TIP3    H228111   5.879   6.545   0.963 -0.9396 -0.2420 -1.5601
 9383TIP3   OH228112   3.132   2.018   5.776 -0.1112 -0.7690 -0.1022
 9383TIP3    H128113   3.116   2.034   5.683 -1.6079  1.4711  0.4554
 9383TIP3    H228114   3.046   2.024   5.816  0.6950 -0.1377  1.6288
 9384TIP3   OH228115   2.770   6.141   1.595  0.5648  0.2007 -0.1718
 9384TIP3    H128116   2.789   6.103   1.682 -0.6462 -0.3246 -0.1150
 9384TIP3    H228117   2.693   6.196   1.609 -0.8027 -1.3393 -1.2377
 9385TIP3   OH228118   5.857   3.917   2.181 -0.2503  0.2480 -0.0466
 9385TIP3    H128119   5.793   3.847   2.169  1.2970 -1.0963 -0.7818
 9385TIP3    H228120   5.942   3.873   2.180  0.6926  1.9113  1.4622
 9386TIP3   OH228121   4.713   2.562   5.673  0.1754  0.3239 -0.0919
 9386TIP3    H128122   4.695   2.502   5.601  1.8694 -0.6719  0.2576
 9386TIP3    H228123   4.795   2.604   5.649  1.8899 -1.5286  2.1133
 9387TIP3   OH228124   2.702   3.142   2.803 -0.0465  0.2031  0.0745
 9387TIP3    H128125   2.607   3.151   2.812  0.0310  0.3948  0.7106
 9387TIP3    H228126   2.736   3.147   2.892  0.5301 -0.2961 -0.1086
 9388TIP3   OH228127   6.373   3.709   3.692  0.0885  0.1192 -0.6401
 9388TIP3    H128128   6.344   3.618   3.687 -1.0735  0.4872 -0.7479
 9388TIP3    H228129   6.294   3.761   3.680  0.7511  1.1558 -0.6733
 9389TIP3   OH228130   1.499   1.288   1.875 -0.2181  0.2967 -0.0090
 9389TIP3    H128131   1.506   1.222   1.806 -1.9656 -0.5746  0.5835
 9389TIP3    H228132   1.519   1.371   1.832 -0.6106 -0.3072 -1.4025
 9390TIP3   OH228133   1.091   3.581   1.148 -0.0320  0.1616 -0.7643
 9390TIP3    H128134   1.036   3.616   1.078 -1.0358  0.0249 -0.0823
 9390TIP3    H228135   1.092   3.487   1.133  0.1847  0.1863 -0.8975
 9391TIP3   OH228136   6.500   0.904   4.511  0.6351  0.2629  0.0317
 9391TIP3    H128137   6.527   0.994   4.532  4.1842 -0.3451 -1.2683
 9391TIP3    H228138   6.441   0.914   4.436 -0.8602  1.5533  1.3024
 9392TIP3   OH228139   7.162   4.447   4.007  0.3723 -0.1892 -0.2127
 9392TIP3    H128140   7.194   4.435   3.917  0.8306  0.4223 -0.1351
 9392TIP3    H228141   7.241   4.459   4.059  0.0310  2.2661 -0.1529
 9393TIP3   OH228142   3.035   0.743   0.898  0.4342  0.1777 -0.3297
 9393TIP3    H128143   2.980   0.817   0.924 -1.2488 -0.7380 -1.1537
 9393TIP3    H228144   2.977   0.685   0.850  1.8864 -1.3727 -0.3138
 9394TIP3   OH228145   5.594   5.099   0.936 -0.0032 -0.2785 -0.0866
 9394TIP3    H128146   5.656   5.169   0.953 -0.2225 -0.5615  2.1145
 9394TIP3    H228147   5.527   5.109   1.003  0.3644 -3.0398  0.8158
 9395TIP3   OH228148   2.899   2.206   4.155  0.2645  0.4036 -0.2787
 9395TIP3    H128149   2.946   2.138   4.107  0.1033  1.3217 -1.8191
 9395TIP3    H228150   2.860   2.160   4.230  0.5058 -1.1151 -1.0361
 9396TIP3   OH228151   2.145   0.959   2.362 -0.2068 -0.1418  0.4692
 9396TIP3    H128152   2.103   1.008   2.291 -1.1681  1.7687  2.2029
 9396TIP3    H228153   2.236   0.988   2.361  0.3027 -1.6611 -1.1668
 9397TIP3   OH228154   0.454   5.555   5.741 -0.2255 -0.0150  0.3733
 9397TIP3    H128155   0.476   5.635   5.694 -1.3152 -0.6423 -1.3249
 9397TIP3    H228156   0.358   5.551   5.736 -0.1572 -1.6737 -0.0314
 9398TIP3   OH228157   3.910   3.481   0.214  0.2433  0.2172 -0.6461
 9398TIP3    H128158   3.877   3.440   0.134 -1.8689  0.3570  0.0924
 9398TIP3    H228159   3.978   3.422   0.246 -0.8047 -1.2655 -1.0831
 9399TIP3   OH228160   3.708   0.824   0.410  0.5819 -0.4697 -0.3192
 9399TIP3    H128161   3.668   0.738   0.395  1.5259 -0.9344 -0.2293
 9399TIP3    H228162   3.636   0.877   0.445 -0.5553 -0.5786 -2.3756
 9400TIP3   OH228163   0.310   6.590   5.327  0.2424  0.0570  0.1789
 9400TIP3    H128164   0.327   6.670   5.378 -0.0112 -0.3143  0.8530
 9400TIP3    H228165   0.318   6.519   5.390 -2.0305 -0.2830  0.1745
 9401TIP3   OH228166   4.723   5.816   0.338  0.0626  0.0453 -0.2559
 9401TIP3    H128167   4.691   5.876   0.405  3.0996  0.1675  1.2689
 9401TIP3    H228168   4.715   5.864   0.256 -0.9979  1.0634  0.4165
 9402TIP3   OH228169   7.159   3.082   4.527 -0.0184  0.7130 -0.6395
 9402TIP3    H128170   7.096   3.053   4.460 -0.7420  0.8425 -0.0329
 9402TIP3    H228171   7.110   3.077   4.609  0.3373  2.0819 -0.3167
 9403TIP3   OH228172   1.042   6.507   5.856  0.2649 -0.0887 -0.2225
 9403TIP3    H128173   0.980   6.437   5.875  0.4357 -1.0181 -2.7939
 9403TIP3    H228174   1.123   6.461   5.832  0.8124  1.0371 -0.6016
 9404TIP3   OH228175   2.143   5.642   2.102 -0.3701  0.1517 -0.2208
 9404TIP3    H128176   2.161   5.605   2.015  1.1241  0.1551  0.0686
 9404TIP3    H228177   2.048   5.653   2.103 -0.3957  0.4286 -1.9716
 9405TIP3   OH228178   4.423   1.836   0.549  0.4359  0.4849  0.2679
 9405TIP3    H128179   4.339   1.841   0.505  0.2189  0.2291  0.6449
 9405TIP3    H228180   4.423   1.912   0.609  0.5361  0.5694  0.1615
 9406TIP3   OH228181   0.676   0.535   2.893 -0.0847 -0.4141  0.0965
 9406TIP3    H128182   0.682   0.470   2.964  1.4845 -0.4416 -0.0488
 9406TIP3    H228183   0.749   0.595   2.908 -1.3703  1.2326  0.1006
 9407TIP3   OH228184   6.973   2.057   5.369  0.0912 -0.3118 -0.1800
 9407TIP3    H128185   6.966   2.151   5.383  0.1865 -0.1835 -0.9531
 9407TIP3    H228186   6.908   2.019   5.428 -0.4811  0.2919 -0.4081
 9408TIP3   OH228187   6.855   0.052   1.057 -0.2444 -0.0037  0.0101
 9408TIP3    H128188   6.930   0.026   1.004  0.6273  1.1856  0.6188
 9408TIP3    H228189   6.781   0.003   1.020  0.5405 -0.0641 -1.5456
 9409TIP3   OH228190   5.876   0.449   2.219 -0.1584 -0.2662 -0.1645
 9409TIP3    H128191   5.836   0.392   2.154 -0.1942  0.1791 -0.5408
 9409TIP3    H228192   5.869   0.537   2.181 -1.6728  0.2380  1.1377
 9410TIP3   OH228193   3.354   1.674   1.783  0.4541  0.3143  0.0352
 9410TIP3    H128194   3.450   1.672   1.782  0.4574  0.0503  0.7349
 9410TIP3    H228195   3.332   1.762   1.751  0.9546  0.7915  0.9702
 9411TIP3   OH228196   4.729   2.588   4.646  0.2955  0.4607  0.4123
 9411TIP3    H128197   4.656   2.648   4.636  0.6601  0.7127 -0.9526
 9411TIP3    H228198   4.691   2.508   4.682 -0.9516  0.0440 -1.6873
 9412TIP3   OH228199   4.582   3.462   0.478  0.1276  0.8628 -0.1206
 9412TIP3    H128200   4.619   3.503   0.400  1.3635  1.0542  0.5332
 9412TIP3    H228201   4.644   3.485   0.548 -0.0013 -0.7799  0.5793
 9413TIP3   OH228202   6.296   2.002   5.681  0.1814 -0.1951 -0.0538
 9413TIP3    H128203   6.250   2.085   5.670  1.9430  0.7730 -0.3719
 9413TIP3    H228204   6.250   1.941   5.623 -1.2232  0.4885  0.2962
 9414TIP3   OH228205   3.233   0.299   2.254 -0.3563 -1.1261 -0.0713
 9414TIP3    H128206   3.288   0.226   2.227  0.2429 -0.0028 -2.1226
 9414TIP3    H228207   3.295   0.365   2.286 -0.3476  0.1963 -2.5085
 9415TIP3   OH228208   4.917   1.553   2.280  0.1943  0.5086 -0.1317
 9415TIP3    H128209   4.855   1.524   2.212  1.2430 -1.9082 -0.1487
 9415TIP3    H228210   4.990   1.591   2.232  0.7593 -0.8529 -0.4121
 9416TIP3   OH228211   3.404   0.377   3.090  0.2931  0.2577 -0.7150
 9416TIP3    H128212   3.493   0.396   3.060  0.9668 -0.4211  0.7181
 9416TIP3    H228213   3.399   0.419   3.176 -0.6232 -0.0816 -0.5949
 9417TIP3   OH228214   4.611   4.843   3.875 -0.1414 -0.0624  0.4480
 9417TIP3    H128215   4.542   4.780   3.854 -0.2439  0.1511  0.1239
 9417TIP3    H228216   4.671   4.838   3.800  0.9831 -1.2942  1.3843
 9418TIP3   OH228217   5.634   0.296   3.121 -0.1994  0.0593  0.0720
 9418TIP3    H128218   5.722   0.333   3.115 -0.2208 -0.1435 -2.3256
 9418TIP3    H228219   5.645   0.218   3.175  0.8171  0.7224  0.8779
 9419TIP3   OH228220   0.580   0.863   2.077  0.6606  0.0054 -0.1068
 9419TIP3    H128221   0.640   0.819   2.137  0.3425  0.9140  0.9053
 9419TIP3    H228222   0.593   0.818   1.993  1.3414 -1.0809  0.5555
 9420TIP3   OH228223   1.234   1.326   4.247  0.3230  0.0984 -0.5466
 9420TIP3    H128224   1.251   1.247   4.298 -1.1545  1.0710  1.6050
 9420TIP3    H228225   1.142   1.318   4.222  0.2427  0.9872 -0.5614
 9421TIP3   OH228226   5.664   0.339   5.217 -0.1892 -0.0319 -0.2060
 9421TIP3    H128227   5.674   0.434   5.217 -1.9190  0.1836 -1.2429
 9421TIP3    H228228   5.717   0.310   5.142 -0.4205  0.2133 -0.4671
 9422TIP3   OH228229   4.730   3.476   3.345 -0.1703 -0.5520 -0.6071
 9422TIP3    H128230   4.766   3.510   3.262 -0.6868  0.3242 -0.4872
 9422TIP3    H228231   4.716   3.383   3.328  0.1133 -0.4697 -1.3738
 9423TIP3   OH228232   6.349   4.773   0.607 -0.0145  0.0798  0.5702
 9423TIP3    H128233   6.435   4.747   0.639  0.7178  2.7306  0.9550
 9423TIP3    H228234   6.316   4.834   0.673 -2.8372 -1.7985  1.1311
 9424TIP3   OH228235   3.376   6.654   5.707 -0.1926  0.0091  0.0959
 9424TIP3    H128236   3.350   6.569   5.671 -0.8256  1.2423 -2.5520
 9424TIP3    H228237   3.309   6.715   5.678  0.3968  1.5184  1.7020
 9425TIP3   OH228238   5.170   4.581   3.471  0.3483  0.6127  0.5229
 9425TIP3    H128239   5.233   4.640   3.431 -0.9922  1.8126  0.0961
 9425TIP3    H228240   5.119   4.547   3.397  0.5823 -0.4806  0.8414
 9426TIP3   OH228241   3.059   2.156  -0.008  0.6268  0.5617 -0.0020
 9426TIP3    H128242   3.081   2.171   0.084  1.7948  0.1718 -0.2108
 9426TIP3    H228243   3.125   2.205  -0.056  0.8482 -0.3588 -0.6470
 9427TIP3   OH228244   2.584   0.180   4.722  0.3610 -0.0839  0.4275
 9427TIP3    H128245   2.513   0.167   4.784  0.2042  0.1514  0.2968
 9427TIP3    H228246   2.659   0.205   4.776  0.9153 -2.3335  0.7869
 9428TIP3   OH228247   0.948   5.862   0.780 -0.5196 -0.7703 -0.3582
 9428TIP3    H128248   0.853   5.853   0.774 -0.5023 -0.8458 -0.5282
 9428TIP3    H228249   0.961   5.946   0.823 -0.6681 -1.0284  0.1988
 9429TIP3   OH228250   5.619   5.373   1.412  0.5272 -0.5492  0.3597
 9429TIP3    H128251   5.637   5.456   1.368 -1.7250  0.1091  0.5255
 9429TIP3    H228252   5.627   5.392   1.505 -1.7300  0.0279  0.4878
 9430TIP3   OH228253   3.224   4.397   0.824  0.4422  0.3813  1.0126
 9430TIP3    H128254   3.142   4.364   0.787  0.7231 -0.6597  1.2830
 9430TIP3    H228255   3.235   4.483   0.784  0.5682 -0.5611 -1.0926
 9431TIP3   OH228256   4.667   1.032   0.988  0.1376 -0.0209  0.0852
 9431TIP3    H128257   4.642   0.947   1.023 -0.6270  0.3334  0.4179
 9431TIP3    H228258   4.648   1.025   0.894 -1.5949  0.3484  0.3755
 9432TIP3   OH228259   6.478   0.761   3.977 -0.6675  0.2402 -0.0240
 9432TIP3    H128260   6.572   0.757   3.993 -0.4044  1.3603 -1.1333
 9432TIP3    H228261   6.466   0.718   3.892 -1.5621 -2.3723  1.2931
 9433TIP3   OH228262   5.499   3.156   1.606  0.3095 -0.2750  1.0340
 9433TIP3    H128263   5.477   3.249   1.610 -2.1456 -0.8222  1.6209
 9433TIP3    H228264   5.565   3.144   1.675 -1.1632  0.6150  2.6669
 9434TIP3   OH228265   2.266   1.967   1.160 -0.3845 -0.4752  0.4565
 9434TIP3    H128266   2.286   1.945   1.069 -1.9791  0.0801 -0.0662
 9434TIP3    H228267   2.316   2.047   1.177  0.5141 -1.0025  0.3218
 9435TIP3   OH228268   1.289   3.068   0.558 -0.2557  0.1015  0.5864
 9435TIP3    H128269   1.356   3.133   0.580 -0.3697  0.6648 -0.6301
 9435TIP3    H228270   1.206   3.112   0.579 -0.3894  0.8081 -1.1953
 9436TIP3   OH228271   6.517   5.925   4.388  0.4196  0.1973  0.8151
 9436TIP3    H128272   6.540   6.016   4.373  1.0782 -0.0964 -0.0176
 9436TIP3    H228273   6.446   5.907   4.326  2.2261 -0.6330 -1.1493
 9437TIP3   OH228274   4.451   4.179   1.687 -0.2812 -0.0832  0.6543
 9437TIP3    H128275   4.453   4.203   1.780 -0.2966  0.7513  0.4483
 9437TIP3    H228276   4.370   4.219   1.654  0.0417  0.1501  0.1447
 9438TIP3   OH228277   4.256   2.442   1.492 -0.0890 -1.0704  0.4656
 9438TIP3    H128278   4.252   2.351   1.463  1.1437 -1.2496  0.8112
 9438TIP3    H228279   4.330   2.445   1.554 -1.9258 -0.4756  2.7814
 9439TIP3   OH228280   0.157   1.073   2.768  0.3416 -0.5730 -0.0357
 9439TIP3    H128281   0.237   1.044   2.813  0.4214 -0.7756 -0.3051
 9439TIP3    H228282   0.096   1.093   2.839  0.8304  0.1585  0.1869
 9440TIP3   OH228283   6.177   3.810   5.396 -0.0379  0.0738 -0.5596
 9440TIP3    H128284   6.244   3.741   5.396 -1.2068 -1.1410  0.8900
 9440TIP3    H228285   6.097   3.765   5.425 -0.9223  1.9750  0.1092
 9441TIP3   OH228286   6.043   2.611   0.517  0.1646 -0.5273  0.7173
 9441TIP3    H128287   5.971   2.553   0.492 -0.0803 -0.0291  0.2620
 9441TIP3    H228288   6.024   2.694   0.474  1.4831 -0.6509 -0.1854
 9442TIP3   OH228289   3.169   5.542   1.650 -0.5619  0.4084  0.0173
 9442TIP3    H128290   3.107   5.491   1.703  0.8382 -1.3178  0.0855
 9442TIP3    H228291   3.205   5.605   1.712 -0.1981 -0.4616  0.7233
 9443TIP3   OH228292   3.927   0.750   2.826  0.1202  0.4443 -0.4668
 9443TIP3    H128293   3.904   0.663   2.793  0.5887  0.0170  0.3038
 9443TIP3    H228294   3.946   0.801   2.747 -1.6403  0.2960 -1.0120
 9444TIP3   OH228295   4.352   4.730   0.365 -0.6162  0.3262  0.1904
 9444TIP3    H128296   4.343   4.769   0.278  1.5156 -1.4793 -0.9218
 9444TIP3    H228297   4.335   4.637   0.351 -0.1710 -0.0021  1.6964
 9445TIP3   OH228298   0.715   2.981   0.213 -0.0178 -0.8681 -0.1599
 9445TIP3    H128299   0.770   2.973   0.135 -0.0572  0.3094 -0.3346
 9445TIP3    H228300   0.635   3.022   0.181  0.8235  1.7408  0.8155
 9446TIP3   OH228301   4.974   4.324   2.196  0.6561 -0.2398  0.5150
 9446TIP3    H128302   4.922   4.404   2.197  0.3859 -0.3747 -0.9217
 9446TIP3    H228303   4.950   4.279   2.277 -2.9224 -1.1722 -0.8642
 9447TIP3   OH228304   4.328   0.347   5.184 -0.2456 -0.0965 -0.2137
 9447TIP3    H128305   4.319   0.255   5.210 -1.1851  0.0342 -0.0080
 9447TIP3    H228306   4.295   0.396   5.260  2.7641  0.5566  0.8152
 9448TIP3   OH228307   4.851   1.755   5.062  0.6239 -0.7832  0.1756
 9448TIP3    H128308   4.893   1.841   5.071  0.6473 -0.7426 -0.2905
 9448TIP3    H228309   4.774   1.760   5.118  0.5955 -0.4339  0.1087
 9449TIP3   OH228310   4.936   4.159   3.363  0.1173  0.1494 -0.2868
 9449TIP3    H128311   4.899   4.070   3.361  1.4398 -0.4278 -0.2000
 9449TIP3    H228312   5.030   4.145   3.356  0.3878  1.5262  0.4351
 9450TIP3   OH228313   2.311   3.994   2.249  0.3118 -0.0707  0.3912
 9450TIP3    H128314   2.322   4.002   2.155 -1.1296  1.0487  0.2804
 9450TIP3    H228315   2.322   4.083   2.282  0.1338 -0.3339  1.1916
 9451TIP3   OH228316   3.722   6.570   1.006 -0.1261 -0.4707  0.3366
 9451TIP3    H128317   3.777   6.629   0.954 -2.0816  0.6892 -0.5490
 9451TIP3    H228318   3.766   6.564   1.091  3.2526 -2.5101 -1.3332
 9452TIP3   OH228319   3.900   6.678   5.801  0.2544 -0.0267  1.1626
 9452TIP3    H128320   3.821   6.689   5.748 -0.8575 -0.5655  2.6445
 9452TIP3    H228321   3.908   6.583   5.813  0.1462  0.1011  2.4043
 9453TIP3   OH228322   5.413   4.783   5.563  1.2375 -0.2670  0.6437
 9453TIP3    H128323   5.321   4.812   5.567  1.2411  0.0386 -1.0747
 9453TIP3    H228324   5.463   4.865   5.558  1.5543 -0.4602  0.6493
 9454TIP3   OH228325   4.684   5.007   4.400  0.0815  0.2294  0.1501
 9454TIP3    H128326   4.678   4.915   4.375 -0.5995 -0.7161  3.3453
 9454TIP3    H228327   4.777   5.023   4.413  0.1978 -0.0226 -0.3812
 9455TIP3   OH228328   2.451   2.325   4.126  0.0862  0.2896 -0.4684
 9455TIP3    H128329   2.511   2.366   4.187  1.8083  1.6617 -2.8916
 9455TIP3    H228330   2.501   2.252   4.088 -1.2786 -1.1476  0.3716
 9456TIP3   OH228331   3.038   6.258   3.555  0.4173 -0.0913  0.3409
 9456TIP3    H128332   3.040   6.221   3.643  1.2367 -1.0652 -0.0716
 9456TIP3    H228333   3.093   6.200   3.503 -1.8926 -0.9364 -1.3657
 9457TIP3   OH228334   5.784   2.254   3.240 -0.4015  0.6650  0.2296
 9457TIP3    H128335   5.865   2.288   3.279  0.6216 -1.9715  0.6391
 9457TIP3    H228336   5.779   2.296   3.154  1.1518  1.2508  0.3968
 9458TIP3   OH228337   1.721   1.813   1.331  0.1119 -0.8506 -0.6421
 9458TIP3    H128338   1.645   1.872   1.333  1.2535  0.7257 -1.8595
 9458TIP3    H228339   1.742   1.799   1.423 -0.2373  0.6100 -0.3147
 9459TIP3   OH228340   5.064   6.633   1.003  0.4141 -0.7354  0.2226
 9459TIP3    H128341   5.090   6.644   0.912 -1.6999  0.0597 -0.3339
 9459TIP3    H228342   4.992   6.570   1.000  0.0098 -0.3400  1.2830
 9460TIP3   OH228343   6.099   2.156   1.871 -0.2543 -0.3368 -0.1637
 9460TIP3    H128344   6.096   2.233   1.814 -0.4805 -0.3584 -0.1838
 9460TIP3    H228345   6.102   2.082   1.810  0.5381 -0.3266 -0.1423
 9461TIP3   OH228346   5.691   4.982   4.651  0.0224 -0.1940 -0.7466
 9461TIP3    H128347   5.741   4.921   4.597  0.5301 -0.0911 -0.4036
 9461TIP3    H228348   5.741   5.064   4.647 -0.9711  0.3801 -1.6905
 9462TIP3   OH228349   4.649   0.695   5.177  0.2439  0.2734  0.0218
 9462TIP3    H128350   4.649   0.688   5.082 -0.2526  1.5985 -0.0938
 9462TIP3    H228351   4.558   0.712   5.200  0.4243  0.3346  0.7082
 9463TIP3   OH228352   3.772   5.125   0.818  0.0089 -0.2470 -0.0985
 9463TIP3    H128353   3.721   5.143   0.739  0.8287  0.3646 -0.4980
 9463TIP3    H228354   3.742   5.190   0.882 -1.2107 -1.2238  0.3807
 9464TIP3   OH228355   1.416   6.530   1.583  0.1120 -0.2416 -0.2210
 9464TIP3    H128356   1.487   6.578   1.627  0.4814 -1.0878  0.1332
 9464TIP3    H228357   1.427   6.551   1.490 -2.0837  3.4525  0.1593
 9465TIP3   OH228358   4.351   0.319   3.394  0.5747 -0.2212  0.1243
 9465TIP3    H128359   4.407   0.284   3.464  1.1573 -1.9112 -1.0940
 9465TIP3    H228360   4.289   0.377   3.438 -0.6411 -3.0233  2.4550
 9466TIP3   OH228361   1.970   4.705   2.642  0.0201  0.3287 -0.6217
 9466TIP3    H128362   1.998   4.773   2.704 -0.9998  0.0121  0.2184
 9466TIP3    H228363   1.932   4.637   2.697 -0.5326 -0.1506 -1.5773
 9467TIP3   OH228364   0.877   4.336   0.163 -0.4671  0.6010  0.1486
 9467TIP3    H128365   0.945   4.270   0.145 -0.4390  0.8811 -0.8811
 9467TIP3    H228366   0.824   4.299   0.233 -1.0192 -0.9467 -1.0468
 9468TIP3   OH228367   2.118   6.469   4.506  0.2231  0.5729  0.2428
 9468TIP3    H128368   2.087   6.409   4.574 -2.1195  0.9063 -0.4341
 9468TIP3    H228369   2.194   6.512   4.544 -0.4715  0.0814  2.3087
 9469TIP3   OH228370   5.923   1.082   4.563  0.1462  0.2131 -0.0367
 9469TIP3    H128371   6.010   1.064   4.599  0.1453 -0.4050 -0.3291
 9469TIP3    H228372   5.940   1.104   4.471 -0.3053 -4.8057 -1.6239
 9470TIP3   OH228373   2.638   2.087   0.069  0.1174  0.3243 -0.0023
 9470TIP3    H128374   2.616   2.060  -0.020  0.8643 -0.7534  0.1258
 9470TIP3    H228375   2.609   2.014   0.124  0.5851  0.5416  0.5452
 9471TIP3   OH228376   0.481   5.435   4.374 -0.3394 -0.0872 -0.4657
 9471TIP3    H128377   0.453   5.523   4.400 -0.6092  0.1950 -1.6514
 9471TIP3    H228378   0.575   5.433   4.395 -0.7935 -0.3646  1.7385
 9472TIP3   OH228379   2.089   0.017   4.169  0.5519  0.0649 -0.4960
 9472TIP3    H128380   2.111   0.085   4.106  0.4200 -0.3312 -0.9798
 9472TIP3    H228381   2.166   0.011   4.226  0.7707  0.2632 -0.7688
 9473TIP3   OH228382   6.122   5.034   4.041  0.2317  0.9965 -0.3051
 9473TIP3    H128383   6.164   5.073   4.118 -0.3512 -1.0160  1.1023
 9473TIP3    H228384   6.192   5.028   3.976  1.5690 -0.1161  1.1639
 9474TIP3   OH228385   0.402   5.454   1.871 -0.0026 -0.0252 -0.3929
 9474TIP3    H128386   0.307   5.461   1.885  0.3104  1.4948  1.2312
 9474TIP3    H228387   0.411   5.384   1.806 -2.1614 -1.0776  0.3447
 9475TIP3   OH228388   2.489   5.269   4.003  0.5524  0.6690  0.0825
 9475TIP3    H128389   2.424   5.202   4.022 -0.2685  0.8318 -1.9260
 9475TIP3    H228390   2.442   5.352   4.017  0.4732  0.7859 -0.8095
 9476TIP3   OH228391   1.906   2.027   2.109  0.3201 -0.1235 -0.2851
 9476TIP3    H128392   1.882   2.078   2.032  0.8744 -0.9971 -1.0483
 9476TIP3    H228393   1.999   2.006   2.096  0.7127  0.6057  1.1277
 9477TIP3   OH228394   5.270   1.036   4.611 -0.9025 -0.3202  0.3160
 9477TIP3    H128395   5.300   1.106   4.669 -1.3654 -0.1769  0.3839
 9477TIP3    H228396   5.349   1.010   4.563 -0.2625 -1.1605  1.7352
 9478TIP3   OH228397   0.448   6.332   5.827 -0.0675 -0.0493 -0.4768
 9478TIP3    H128398   0.413   6.418   5.851  0.2104  0.3859 -1.5664
 9478TIP3    H228399   0.380   6.293   5.772  0.2517 -0.0765 -0.8593
 9479TIP3   OH228400   1.102   1.422   5.389 -0.5372 -0.0677 -0.4232
 9479TIP3    H128401   1.067   1.406   5.301  0.2799  2.5817 -1.3660
 9479TIP3    H228402   1.197   1.418   5.377 -0.4084  0.7879  0.1941
 9480TIP3   OH228403   5.495   5.244   2.179 -0.4179 -0.2578  0.7254
 9480TIP3    H128404   5.412   5.241   2.132 -0.8685  0.4736  1.4315
 9480TIP3    H228405   5.492   5.328   2.227  1.4574  0.5994 -0.5362
 9481TIP3   OH228406   0.951   0.743   1.427  0.3566 -0.1875  0.8638
 9481TIP3    H128407   0.923   0.762   1.337  2.9657  0.0159 -0.0104
 9481TIP3    H228408   1.038   0.704   1.416  1.2549  0.9468  3.3533
 9482TIP3   OH228409   1.830   6.704   4.580 -0.1397  0.3503 -0.0106
 9482TIP3    H128410   1.793   6.623   4.614 -1.7826  1.3599  0.7310
 9482TIP3    H228411   1.925   6.690   4.581 -0.3945 -2.0574 -1.2466
 9483TIP3   OH228412   1.341   4.743   1.516 -0.1674 -0.1960  0.6155
 9483TIP3    H128413   1.292   4.732   1.434 -1.2643  0.0081  1.2317
 9483TIP3    H228414   1.276   4.729   1.585  0.1871  2.0170  1.4632
 9484TIP3   OH228415   1.430   0.929   1.500 -0.0252 -1.0451  0.5549
 9484TIP3    H128416   1.407   0.872   1.427 -0.0521 -0.4978  0.1233
 9484TIP3    H228417   1.493   0.991   1.463 -2.0253  0.9219  0.2633
 9485TIP3   OH228418   5.502   1.547   2.830  0.1735 -0.0688 -0.5992
 9485TIP3    H128419   5.567   1.485   2.862  0.7535  0.7956 -0.0407
 9485TIP3    H228420   5.549   1.631   2.827 -0.8237  0.5096 -0.4834
 9486TIP3   OH228421   0.716   3.830   4.026 -0.3327  0.2300  0.2192
 9486TIP3    H128422   0.804   3.798   4.003 -1.1162  0.0508 -3.1433
 9486TIP3    H228423   0.726   3.926   4.029 -0.0029  0.2087 -0.0649
 9487TIP3   OH228424   4.550   5.366   2.462  0.1191  0.1102 -0.1637
 9487TIP3    H128425   4.507   5.346   2.379 -0.4518  1.5476 -0.2500
 9487TIP3    H228426   4.480   5.359   2.527  0.0884  0.9610 -0.0936
 9488TIP3   OH228427   2.215   4.475   1.146  0.2272 -0.5178  0.2581
 9488TIP3    H128428   2.211   4.478   1.241  0.3504 -0.4333  0.2594
 9488TIP3    H228429   2.151   4.540   1.117  1.7707  1.0467  0.2815
 9489TIP3   OH228430   4.179   2.721   4.824 -0.0841 -0.1187  0.2355
 9489TIP3    H128431   4.229   2.795   4.859  1.6636 -0.5040 -1.2638
 9489TIP3    H228432   4.128   2.758   4.752 -0.7523 -0.0265  0.7473
 9490TIP3   OH228433   4.631   2.927   0.603 -0.4422 -0.3658  0.3520
 9490TIP3    H128434   4.699   2.872   0.642 -0.6100 -0.4212  0.5695
 9490TIP3    H228435   4.612   2.993   0.671  1.6740  1.6461 -0.8687
 9491TIP3   OH228436   5.804   2.672   4.992 -0.0815 -0.0233 -0.0937
 9491TIP3    H128437   5.852   2.617   5.054  0.6255 -0.2564 -0.8158
 9491TIP3    H228438   5.712   2.649   5.005  0.1120 -0.5217  0.4368
 9492TIP3   OH228439   4.561   4.747   4.685 -0.1116  0.2959 -0.3961
 9492TIP3    H128440   4.626   4.771   4.751 -0.6518  0.6679  0.0171
 9492TIP3    H228441   4.512   4.675   4.725  0.0537  0.0137 -0.7058
 9493TIP3   OH228442   5.390   3.631   5.911  0.3737  0.0459 -0.2661
 9493TIP3    H128443   5.440   3.625   5.829  0.3637  0.5707 -0.3179
 9493TIP3    H228444   5.299   3.622   5.884  0.4981 -3.1339  0.0730
 9494TIP3   OH228445   5.236   3.060   3.907 -0.1755 -0.6909 -0.1934
 9494TIP3    H128446   5.249   3.057   4.002  1.9145 -0.9589 -0.4477
 9494TIP3    H228447   5.245   2.969   3.878  0.0711 -0.5028 -0.7340
 9495TIP3   OH228448   3.730   5.899   0.331 -0.4979 -0.4180 -0.3890
 9495TIP3    H128449   3.711   5.809   0.358 -1.4337 -0.6137 -1.6175
 9495TIP3    H228450   3.645   5.943   0.336 -0.7211 -0.4405 -2.8322
 9496TIP3   OH228451   5.951   6.524   4.093  0.3832  0.4877  0.7561
 9496TIP3    H128452   5.931   6.593   4.030 -1.6622 -0.1432  0.6553
 9496TIP3    H228453   5.886   6.535   4.162  0.5786 -0.7908  1.1744
 9497TIP3   OH228454   6.013   4.507   5.441 -0.3958 -1.5097  0.2175
 9497TIP3    H128455   5.995   4.598   5.466  3.2888 -0.1335 -1.4541
 9497TIP3    H228456   5.962   4.494   5.361 -1.7449 -1.3360  1.0133
 9498TIP3   OH228457   2.492   1.784   0.962 -0.3306  0.1317  0.0804
 9498TIP3    H128458   2.469   1.712   0.903 -1.6217  0.3133  0.3163
 9498TIP3    H228459   2.513   1.741   1.045  1.4965 -0.1236 -0.4840
 9499TIP3   OH228460   0.632   3.496   3.899 -0.5205 -0.1315 -0.2180
 9499TIP3    H128461   0.605   3.587   3.889 -0.6204 -0.0427  0.8062
 9499TIP3    H228462   0.708   3.499   3.956 -0.1229 -0.6417 -0.7086
 9500TIP3   OH228463   0.820   3.345   2.183  0.0276 -0.2373 -0.0711
 9500TIP3    H128464   0.768   3.363   2.261 -0.7536  1.9541 -1.0135
 9500TIP3    H228465   0.910   3.360   2.210 -0.1325 -0.6447  0.6998
 9501TIP3   OH228466   3.051   5.613   2.363  0.1915 -0.2326 -0.0121
 9501TIP3    H128467   3.084   5.544   2.305  2.3009  0.8382 -0.1757
 9501TIP3    H228468   2.963   5.584   2.387 -0.0867 -1.5669 -2.3408
 9502TIP3   OH228469   4.108   5.122   3.993  0.3660  0.0413 -0.5082
 9502TIP3    H128470   4.152   5.199   3.956  1.3437 -1.0922 -1.8497
 9502TIP3    H228471   4.179   5.062   4.014 -0.3914 -0.6043  0.2863
 9503TIP3   OH228472   3.783   1.588   4.155 -0.0680 -0.5277  0.0761
 9503TIP3    H128473   3.862   1.642   4.159 -0.0864 -0.4411 -0.6459
 9503TIP3    H228474   3.721   1.641   4.106 -0.6286 -0.5402  0.7555
 9504TIP3   OH228475   5.266   0.406   2.755  0.7209  0.1478 -0.0032
 9504TIP3    H128476   5.342   0.348   2.747 -0.7098 -1.7509 -0.4699
 9504TIP3    H228477   5.263   0.429   2.848  1.7752  0.1520  0.0403
 9505TIP3   OH228478   5.936   6.059   0.890 -0.5900 -0.1871 -0.5459
 9505TIP3    H128479   5.926   6.085   0.982 -0.5064 -1.1041 -0.2690
 9505TIP3    H228480   6.017   6.008   0.888  1.5835  2.9911 -1.8515
 9506TIP3   OH228481   6.696   4.019   0.199 -0.0721  0.0442 -0.4200
 9506TIP3    H128482   6.762   4.068   0.248 -0.1487 -0.2505 -0.0167
 9506TIP3    H228483   6.653   4.084   0.144 -1.8383  0.9457  1.8579
 9507TIP3   OH228484   4.498   3.742   2.140 -0.0389 -0.1885 -0.0251
 9507TIP3    H128485   4.564   3.775   2.079 -0.1909 -3.2340 -2.1207
 9507TIP3    H228486   4.544   3.729   2.222  0.9065  1.4705 -0.2619
 9508TIP3   OH228487   5.420   2.373   3.681  0.4383 -0.2695 -0.2354
 9508TIP3    H128488   5.476   2.375   3.604  1.2661 -0.9581  0.3353
 9508TIP3    H228489   5.374   2.290   3.676 -2.1282  1.1129 -1.7649
 9509TIP3   OH228490   4.916   0.062   3.958 -1.3810  0.2004  0.2447
 9509TIP3    H128491   4.876   0.033   4.040  0.0428 -1.1989  0.5021
 9509TIP3    H228492   4.913   0.158   3.962 -0.5303  0.1848  2.3700
 9510TIP3   OH228493   2.724   1.071   1.885  0.6349  0.1969 -0.1872
 9510TIP3    H128494   2.632   1.077   1.860  0.8091  0.7566 -0.7421
 9510TIP3    H228495   2.755   1.162   1.883  1.3634 -0.0543 -0.6673
 9511TIP3   OH228496   3.084   4.281   5.244 -0.1473  0.0026 -0.2318
 9511TIP3    H128497   3.046   4.369   5.240  3.8093  1.9389 -0.6014
 9511TIP3    H228498   3.074   4.247   5.155  0.4049  1.1698 -0.7706
 9512TIP3   OH228499   2.085   5.499   4.126 -0.1110 -0.1661  0.3279
 9512TIP3    H128500   2.019   5.532   4.186  1.6394  2.2562  1.0925
 9512TIP3    H228501   2.086   5.405   4.141 -0.5027  0.2053  3.3597
 9513TIP3   OH228502   0.656   0.812   2.942  0.0337 -0.6926 -0.3273
 9513TIP3    H128503   0.742   0.847   2.963 -0.1111 -0.0071 -0.8460
 9513TIP3    H228504   0.666   0.773   2.855  0.1320 -1.7574  0.1374
 9514TIP3   OH228505   3.217   4.105   0.299  0.4048  0.5170 -0.5462
 9514TIP3    H128506   3.163   4.045   0.350  0.3981  1.1747  0.2501
 9514TIP3    H228507   3.307   4.080   0.320  0.4273 -0.2239 -1.4486
 9515TIP3   OH228508   4.988   6.087   0.341  0.1829 -0.0057  0.4966
 9515TIP3    H128509   4.919   6.098   0.275  0.7748  0.6476 -0.0258
 9515TIP3    H228510   4.944   6.100   0.425 -0.5605 -0.7322  0.2330
 9516TIP3   OH228511   0.876   6.086   2.792 -0.0371  0.4152 -0.2887
 9516TIP3    H128512   0.918   6.170   2.813 -0.0209  0.0848  1.1013
 9516TIP3    H228513   0.914   6.060   2.709 -2.0766  3.1370 -2.2815
 9517TIP3   OH228514   2.552   6.268   0.131 -0.2068  0.3452  0.0391
 9517TIP3    H128515   2.602   6.215   0.070 -0.9934  0.1307 -0.4312
 9517TIP3    H228516   2.551   6.216   0.212 -0.8117 -0.2872 -0.3601
 9518TIP3   OH228517   1.797   2.815   1.757 -0.4854  0.3701  0.1217
 9518TIP3    H128518   1.888   2.791   1.743 -0.4743 -0.3118  1.1964
 9518TIP3    H228519   1.747   2.758   1.698 -0.2499  0.4222 -0.1277
 9519TIP3   OH228520   5.565   1.489   4.242  0.2213  0.0384  0.4439
 9519TIP3    H128521   5.519   1.569   4.269  0.9158  0.7945 -0.5556
 9519TIP3    H228522   5.643   1.520   4.197  1.2932 -1.2263  1.3461
 9520TIP3   OH228523   3.803   5.079   4.356  0.0635 -0.2742 -0.3433
 9520TIP3    H128524   3.751   4.998   4.355 -1.0595  0.4157 -0.2271
 9520TIP3    H228525   3.806   5.107   4.265  1.9468 -1.3276 -0.6581
 9521TIP3   OH228526   3.669   3.118   0.711  0.0982 -0.2711  0.0629
 9521TIP3    H128527   3.739   3.083   0.765  0.5031 -0.1642 -0.3852
 9521TIP3    H228528   3.661   3.057   0.638 -0.6444 -0.5736  0.3884
 9522TIP3   OH228529   1.917   3.362   1.270 -0.3076 -0.4651 -0.1548
 9522TIP3    H128530   1.893   3.413   1.193 -0.2946 -1.1697 -0.6434
 9522TIP3    H228531   1.985   3.302   1.239  1.2027  0.6300  0.9022
 9523TIP3   OH228532   1.158   2.268   2.248 -0.1928  0.0199 -0.1850
 9523TIP3    H128533   1.179   2.226   2.165 -1.3866  1.2471 -1.1486
 9523TIP3    H228534   1.080   2.320   2.230  1.0009  2.3916  1.0297
 9524TIP3   OH228535   2.912   1.828   4.615  0.0497  0.0571  0.0689
 9524TIP3    H128536   2.886   1.759   4.677  2.2757 -0.0502  0.9611
 9524TIP3    H228537   2.910   1.908   4.667  3.4035 -0.2316  0.8387
 9525TIP3   OH228538   7.118   4.232   0.111 -0.0186  0.0779  0.4173
 9525TIP3    H128539   7.194   4.201   0.161 -0.3229 -1.5471 -0.0610
 9525TIP3    H228540   7.050   4.243   0.177  0.1910  0.0369  0.6430
 9526TIP3   OH228541   5.445   0.240   1.777 -0.0148 -0.4595  0.3374
 9526TIP3    H128542   5.368   0.248   1.721  0.1204 -0.0563  0.2087
 9526TIP3    H228543   5.410   0.228   1.865 -0.2265  0.0185  0.3193
 9527TIP3   OH228544   3.840   2.933   0.893 -0.2426 -0.1210  0.2367
 9527TIP3    H128545   3.931   2.954   0.871 -0.1225 -0.7769  0.0775
 9527TIP3    H228546   3.816   2.998   0.959  0.0340  0.6515 -0.3993
 9528TIP3   OH228547   5.170   0.898   2.263 -0.5847  0.3778  0.2934
 9528TIP3    H128548   5.144   0.891   2.354  0.6894  0.5235  0.6818
 9528TIP3    H228549   5.262   0.873   2.262 -0.7473 -0.2609 -1.0513
 9529TIP3   OH228550   6.492   6.058   1.277  0.1458  0.1356  1.2188
 9529TIP3    H128551   6.489   5.970   1.314  1.7803  0.6267  2.6593
 9529TIP3    H228552   6.426   6.057   1.207 -1.4645 -1.5385  2.6461
 9530TIP3   OH228553   5.653   4.044   0.535 -0.1612 -0.8312  1.1559
 9530TIP3    H128554   5.717   4.103   0.496 -0.1917 -1.4115  0.1911
 9530TIP3    H228555   5.660   3.964   0.483 -0.8142 -1.3263  1.8157
 9531TIP3   OH228556   5.078   0.312   4.814  0.7728 -0.9660 -0.0376
 9531TIP3    H128557   5.064   0.334   4.906 -1.2989 -0.5830 -0.3912
 9531TIP3    H228558   5.173   0.301   4.806  1.1550  0.4567  1.8090
 9532TIP3   OH228559   3.659   5.296   2.746 -0.0460  0.0342 -0.0608
 9532TIP3    H128560   3.638   5.329   2.834  0.3044  0.3453 -0.0926
 9532TIP3    H228561   3.645   5.202   2.752 -0.8682  0.1611  0.0861
 9533TIP3   OH228562   5.221   4.156   3.473 -0.9602  0.0977  0.3450
 9533TIP3    H128563   5.267   4.175   3.555 -1.9213 -1.6820  1.3539
 9533TIP3    H228564   5.281   4.100   3.425 -0.2694  1.3859 -0.3435
 9534TIP3   OH228565   1.251   0.438   4.445  0.0288 -0.3581 -0.6155
 9534TIP3    H128566   1.232   0.531   4.440 -0.7993 -0.3459  1.5490
 9534TIP3    H228567   1.334   0.427   4.399  0.5628  1.5885 -0.1837
 9535TIP3   OH228568   3.461   4.753   5.203 -0.2586  0.2798 -0.3539
 9535TIP3    H128569   3.392   4.689   5.220  0.7413 -0.5484  0.7041
 9535TIP3    H228570   3.461   4.810   5.280  1.5469 -0.9701  0.6506
 9536TIP3   OH228571   0.248   2.048   4.649 -0.1340  0.5623  0.4869
 9536TIP3    H128572   0.255   2.141   4.671  0.3436  0.3146  1.4420
 9536TIP3    H228573   0.297   2.039   4.567  0.3798  1.0419  0.7322
 9537TIP3   OH228574   4.747   2.447   2.956 -0.1516 -0.3759  0.0407
 9537TIP3    H128575   4.796   2.400   3.023 -1.7589 -2.3113 -0.0631
 9537TIP3    H228576   4.814   2.495   2.908  1.4021 -1.3399  1.1360
 9538TIP3   OH228577   2.850   1.471   1.413 -0.2436 -0.8011 -0.0943
 9538TIP3    H128578   2.863   1.508   1.326 -0.2911 -0.3055  0.1044
 9538TIP3    H228579   2.924   1.504   1.465 -0.6442 -0.4317  0.2568
 9539TIP3   OH228580   1.299   1.401   1.431 -0.5336  0.4275  0.2381
 9539TIP3    H128581   1.228   1.458   1.462 -2.0031 -1.3214  0.2454
 9539TIP3    H228582   1.276   1.314   1.463 -0.3106 -0.8760 -2.8162
 9540TIP3   OH228583   1.132   2.804   0.842 -0.4935 -0.1566 -0.8582
 9540TIP3    H128584   1.191   2.738   0.878 -1.9720 -1.3512 -0.5052
 9540TIP3    H228585   1.100   2.765   0.761  0.0453  0.9683 -1.6300
 9541TIP3   OH228586   6.578   2.192   3.076 -0.0119 -0.7521 -0.1642
 9541TIP3    H128587   6.496   2.150   3.099 -0.2414 -0.0882  0.2567
 9541TIP3    H228588   6.615   2.220   3.160 -0.0232  0.1613 -0.4590
 9542TIP3   OH228589   4.682   0.860   4.308 -0.0791  0.3056  0.0178
 9542TIP3    H128590   4.775   0.845   4.288 -0.0348  0.2814  0.2436
 9542TIP3    H228591   4.678   0.862   4.403 -0.3360  0.1475  0.0113
 9543TIP3   OH228592   5.333   1.458   2.592 -0.0211 -0.1466 -0.1899
 9543TIP3    H128593   5.412   1.445   2.644 -0.4958 -0.0042  0.5829
 9543TIP3    H228594   5.356   1.525   2.528  0.6956 -0.6272 -0.4473
 9544TIP3   OH228595   1.398   1.026   5.841 -0.4292  0.1735 -0.0091
 9544TIP3    H128596   1.356   1.090   5.783  0.5339  1.0127  0.1843
 9544TIP3    H228597   1.441   1.080   5.908  1.6029 -0.5808 -0.6388
 9545TIP3   OH228598   3.868   6.752   0.810 -0.2762 -0.6959  0.0283
 9545TIP3    H128599   3.807   6.800   0.754  0.2582 -1.6448 -1.4064
 9545TIP3    H228600   3.955   6.785   0.785 -0.0478 -0.9179  0.5146
 9546TIP3   OH228601   0.151   3.676   0.670  0.2028 -0.2063  0.2245
 9546TIP3    H128602   0.200   3.643   0.746  0.3854 -2.1349 -0.6714
 9546TIP3    H228603   0.152   3.603   0.608 -2.7503  0.1071 -0.3240
 9547TIP3   OH228604   0.940   0.995   5.094  0.6364 -0.2671 -0.5530
 9547TIP3    H128605   0.930   0.928   5.026 -0.0140  1.1724 -1.9531
 9547TIP3    H228606   0.861   0.985   5.148 -0.0557  0.1187 -1.4671
 9548TIP3   OH228607   2.932   3.847   0.156 -0.1754 -0.0958  0.2523
 9548TIP3    H128608   2.840   3.825   0.169 -0.5463  0.5430 -1.0987
 9548TIP3    H228609   2.967   3.774   0.106 -0.0515 -0.1406  0.4046
 9549TIP3   OH228610   1.051   5.626   4.812  0.1670  0.1809 -0.5944
 9549TIP3    H128611   1.017   5.715   4.823 -3.3650 -1.0443 -0.4547
 9549TIP3    H228612   1.094   5.606   4.895 -1.6775  0.7367  0.5326
 9550TIP3   OH228613   1.706   2.712   3.397  0.4840  0.5864  0.3378
 9550TIP3    H128614   1.797   2.684   3.390  0.2462 -0.4983  1.3509
 9550TIP3    H228615   1.692   2.725   3.491 -0.1809  1.5592  0.1221
 9551TIP3   OH228616   0.639   6.687   5.535 -0.1875 -0.6357 -0.0228
 9551TIP3    H128617   0.714   6.666   5.480 -2.0570 -1.6389 -2.3314
 9551TIP3    H228618   0.626   6.609   5.588 -0.3902 -0.9661 -0.5583
 9552TIP3   OH228619   2.482   2.137   3.455 -0.3828  0.0399  0.3567
 9552TIP3    H128620   2.525   2.209   3.409  0.4803  0.3924  1.6684
 9552TIP3    H228621   2.435   2.089   3.386  0.5402  0.7688 -0.8195
 9553TIP3   OH228622   6.136   3.060   2.320  0.2733  0.0914  0.7559
 9553TIP3    H128623   6.176   3.142   2.292  0.6646  0.0240  1.1027
 9553TIP3    H228624   6.210   2.999   2.328  0.0856 -0.0757  1.2621
 9554TIP3   OH228625   0.857   3.770  -0.004 -0.0609 -0.1489 -0.2103
 9554TIP3    H128626   0.862   3.858  -0.041 -0.0040  0.2600  0.7186
 9554TIP3    H228627   0.813   3.783   0.081 -1.7956 -1.2917 -0.8853
 9555TIP3   OH228628   1.697   5.149   1.194 -0.5583 -0.1304 -0.1794
 9555TIP3    H128629   1.652   5.229   1.222 -0.1258 -0.0174  0.2070
 9555TIP3    H228630   1.657   5.079   1.246 -1.0615 -0.1972 -0.6460
 9556TIP3   OH228631   3.094   6.351   1.326 -0.4522  0.5182  0.0293
 9556TIP3    H128632   3.082   6.276   1.384  0.7635  1.5722  1.7422
 9556TIP3    H228633   3.173   6.331   1.276  0.7388  1.2227  1.5419
 9557TIP3   OH228634   5.858   2.158   2.813 -0.2305 -0.0544  0.1063
 9557TIP3    H128635   5.906   2.237   2.788  0.1059 -0.4892 -0.6539
 9557TIP3    H228636   5.768   2.176   2.786 -0.0437 -0.1538 -0.6022
 9558TIP3   OH228637   4.777   1.293   2.240 -0.2607  0.4730 -0.2269
 9558TIP3    H128638   4.706   1.258   2.295 -0.7857 -1.1020 -1.8146
 9558TIP3    H228639   4.851   1.235   2.256  0.1227  1.0225  0.0442
 9559TIP3   OH228640   1.708   5.212   0.231 -0.0328  0.0635  0.0582
 9559TIP3    H128641   1.775   5.166   0.180  0.3233  0.9871 -0.3247
 9559TIP3    H228642   1.654   5.256   0.166  0.7578  1.7174  0.4596
 9560TIP3   OH228643   7.002   4.647   3.508  0.0354 -0.4524  0.1138
 9560TIP3    H128644   6.937   4.594   3.555  0.6885 -1.5275 -0.1416
 9560TIP3    H228645   7.082   4.594   3.511  0.8627  0.7677  0.2762
 9561TIP3   OH228646   4.705   5.589   2.779 -0.7604 -0.5455 -0.3261
 9561TIP3    H128647   4.643   5.517   2.766 -1.7119 -0.0305  1.1674
 9561TIP3    H228648   4.671   5.637   2.854 -0.3621  1.7112 -1.5030
 9562TIP3   OH228649   2.853   5.091   4.627  0.3290  0.0661  0.7235
 9562TIP3    H128650   2.826   5.168   4.678  1.4147  0.7806  0.2562
 9562TIP3    H228651   2.938   5.067   4.663  0.6033 -0.0927 -0.0090
 9563TIP3   OH228652   3.935   3.158   5.520 -0.4685  0.1827  0.3866
 9563TIP3    H128653   3.939   3.073   5.564 -0.5874  0.8625  1.7778
 9563TIP3    H228654   3.994   3.213   5.570  0.4477  0.6628 -1.1559
 9564TIP3   OH228655   5.865   0.584   2.695 -0.4530 -0.7059 -1.3756
 9564TIP3    H128656   5.956   0.568   2.721 -0.0034  1.4206 -1.4939
 9564TIP3    H228657   5.843   0.668   2.735 -2.3129 -1.0873 -1.5288
 9565TIP3   OH228658   1.379   6.503   1.991 -0.1710  0.4090  0.4985
 9565TIP3    H128659   1.461   6.533   1.951  0.2165 -0.0501  0.9324
 9565TIP3    H228660   1.328   6.469   1.918  0.7080 -0.8256  0.4115
 9566TIP3   OH228661   1.618   3.228   5.267  0.1870  0.0131  0.7427
 9566TIP3    H128662   1.542   3.243   5.212  0.4261 -1.0567  0.0813
 9566TIP3    H228663   1.615   3.134   5.287  1.2192 -0.0110  0.8467
 9567TIP3   OH228664   3.959   5.919   0.789 -0.1183 -0.1261 -0.1179
 9567TIP3    H128665   3.947   5.971   0.709 -0.2448  1.4612  0.8801
 9567TIP3    H228666   3.999   5.838   0.759 -0.3338  0.3435 -1.8146
 9568TIP3   OH228667   5.366   1.828   2.736  0.2709  0.0625 -0.5112
 9568TIP3    H128668   5.434   1.838   2.802 -0.0137  1.0481 -0.3396
 9568TIP3    H228669   5.396   1.881   2.662 -0.3986  0.6964 -0.3459
 9569TIP3   OH228670   7.114   3.979   3.347 -0.4191  0.5117 -0.4387
 9569TIP3    H128671   7.083   3.959   3.436  0.0267  0.4404 -0.2967
 9569TIP3    H228672   7.201   3.938   3.342 -0.5587  0.2743 -1.0020
 9570TIP3   OH228673   3.368   5.366   0.891  0.1596 -0.1979 -0.1928
 9570TIP3    H128674   3.315   5.305   0.839  0.9166  0.3203 -1.6236
 9570TIP3    H228675   3.318   5.377   0.972 -1.9609  0.2940 -1.4847
 9571TIP3   OH228676   2.807   2.403   1.138  0.6064  0.0419 -0.2867
 9571TIP3    H128677   2.734   2.452   1.100 -0.0482 -0.2147  0.6067
 9571TIP3    H228678   2.794   2.313   1.107  0.0666 -0.1699  0.5032
 9572TIP3   OH228679   1.361   5.565   4.808  0.1393 -0.2779 -0.2726
 9572TIP3    H128680   1.355   5.469   4.815 -0.0807 -0.2443  0.0184
 9572TIP3    H228681   1.397   5.593   4.892  0.8895 -0.1636 -0.6285
 9573TIP3   OH228682   5.983   3.863   4.860  0.0148 -0.3920 -0.1605
 9573TIP3    H128683   5.912   3.810   4.824 -1.7236  2.4941 -1.3504
 9573TIP3    H228684   6.006   3.819   4.942 -0.9550 -3.1517 -1.2482
 9574TIP3   OH228685   3.931   5.832   1.701  0.6311 -0.3715 -0.2926
 9574TIP3    H128686   3.927   5.856   1.608  0.1439 -0.7389 -0.3710
 9574TIP3    H228687   3.855   5.775   1.714  0.2975  0.2308  0.4977
 9575TIP3   OH228688   0.497   2.045   2.973  0.6084  0.0515 -0.0570
 9575TIP3    H128689   0.528   2.120   2.921  1.0768 -0.8266 -1.0741
 9575TIP3    H228690   0.514   1.969   2.918  2.0401 -1.0324  1.7501
 9576TIP3   OH228691   6.342   1.214   1.464 -0.1437 -0.4138  0.1175
 9576TIP3    H128692   6.412   1.198   1.527 -0.0010  1.2715  0.4279
 9576TIP3    H228693   6.261   1.200   1.513 -0.1195  3.2236  1.5342
 9577TIP3   OH228694   0.809   6.154   1.244 -0.1609 -0.4635 -0.7941
 9577TIP3    H128695   0.734   6.201   1.208 -0.0516  0.8677  0.6043
 9577TIP3    H228696   0.883   6.214   1.232 -0.3015  0.5483  2.4372
 9578TIP3   OH228697   3.951   6.015   2.921 -0.6213 -0.0826 -0.7506
 9578TIP3    H128698   3.944   6.093   2.976 -2.0997  0.5560 -1.7806
 9578TIP3    H228699   3.875   5.962   2.946 -1.3542  0.2465 -2.1788
 9579TIP3   OH228700   2.788   5.187   0.571 -0.0219 -0.3105 -0.5076
 9579TIP3    H128701   2.741   5.270   0.570  1.1918  0.4118 -1.9275
 9579TIP3    H228702   2.740   5.131   0.510 -1.1928 -0.9161  0.8980
 9580TIP3   OH228703   2.037   3.777   2.879  0.1708  0.4310  0.1527
 9580TIP3    H128704   2.000   3.766   2.792  2.0601  0.8346 -0.7408
 9580TIP3    H228705   2.019   3.868   2.901 -1.2016  0.0641  0.6538
 9581TIP3   OH228706   6.744   2.416   0.995 -0.0431 -0.3600  0.1712
 9581TIP3    H128707   6.820   2.391   1.049  0.0256 -1.0698 -0.2426
 9581TIP3    H228708   6.777   2.415   0.905 -0.5946 -0.9228 -0.0373
 9582TIP3   OH228709   6.776   5.435   5.224 -0.0633 -0.1491 -0.1587
 9582TIP3    H128710   6.789   5.380   5.302 -0.3317 -0.5008 -0.3577
 9582TIP3    H228711   6.763   5.372   5.153 -1.9240  0.1697 -0.1408
 9583TIP3   OH228712   5.262   6.432   0.218 -0.1883  0.1446 -0.3713
 9583TIP3    H128713   5.309   6.374   0.279  2.4421  0.8314 -1.5835
 9583TIP3    H228714   5.332   6.476   0.170 -2.1497  2.1592 -1.5150
 9584TIP3   OH228715   1.501   6.366   2.260 -0.5284  0.1966  0.2963
 9584TIP3    H128716   1.499   6.401   2.171  1.3838 -1.6975 -0.5800
 9584TIP3    H228717   1.492   6.443   2.317 -1.1318  1.5090 -1.4989
 9585TIP3   OH228718   5.986   0.464   0.788  0.3888  0.2100  0.1025
 9585TIP3    H128719   6.018   0.554   0.776  0.9021  0.3934  2.3522
 9585TIP3    H228720   6.065   0.411   0.794  0.1564 -0.0764  0.7523
 9586TIP3   OH228721   3.066   0.026   4.732  0.3456  0.1449 -0.2580
 9586TIP3    H128722   2.983   0.039   4.778 -0.3893  1.4420 -1.8520
 9586TIP3    H228723   3.102   0.114   4.722  1.5745 -0.3416 -0.1881
 9587TIP3   OH228724   0.277   5.179   5.850 -0.4447 -0.1610  0.6042
 9587TIP3    H128725   0.199   5.123   5.849 -1.5457  1.2386  2.2125
 9587TIP3    H228726   0.329   5.149   5.776 -2.0583 -1.7796  0.0554
 9588TIP3   OH228727   3.399   4.326   0.275  0.2691  0.1735 -0.5008
 9588TIP3    H128728   3.342   4.250   0.276 -0.3743  0.6399 -0.8574
 9588TIP3    H228729   3.383   4.369   0.359 -1.7244  1.5958 -1.5229
 9589TIP3   OH228730   4.381   5.660   1.050  0.0989 -0.3118 -0.0192
 9589TIP3    H128731   4.372   5.705   1.134 -1.1001 -0.4482 -0.0676
 9589TIP3    H228732   4.476   5.655   1.036  0.2860  1.4675  0.3694
 9590TIP3   OH228733   3.809   3.755   1.532 -0.3238 -0.1286  0.1690
 9590TIP3    H128734   3.792   3.742   1.625  2.4342 -3.9212  0.3611
 9590TIP3    H228735   3.776   3.675   1.490 -0.3274  0.9183 -1.9462
 9591TIP3   OH228736   3.852   3.904   4.692 -0.0063 -0.5245 -0.1552
 9591TIP3    H128737   3.871   3.889   4.784  1.5494  3.2475  0.2938
 9591TIP3    H228738   3.756   3.899   4.686 -0.1861 -0.0631  1.8107
 9592TIP3   OH228739   3.062   4.431   3.437  0.5020 -0.0190 -0.1818
 9592TIP3    H128740   3.018   4.513   3.416 -1.0039 -0.4683  1.0298
 9592TIP3    H228741   3.072   4.387   3.352  1.3800  1.4073 -0.8508
 9593TIP3   OH228742   2.145   6.023   3.921  0.2837  0.2721 -0.1534
 9593TIP3    H128743   2.162   5.999   4.012 -0.0082  0.2062 -0.1174
 9593TIP3    H228744   2.053   6.001   3.906  0.7522 -1.2688 -0.9634
 9594TIP3   OH228745   0.484   2.869   0.507 -0.0950 -0.2186 -0.3320
 9594TIP3    H128746   0.437   2.951   0.520  0.5270 -0.0615  1.1224
 9594TIP3    H228747   0.451   2.811   0.575  0.2304 -0.8303 -0.6878
 9595TIP3   OH228748   5.773   5.503   2.170  0.7305 -0.2651  0.3050
 9595TIP3    H128749   5.821   5.511   2.252 -0.3673 -2.1568  1.2129
 9595TIP3    H228750   5.687   5.470   2.196  0.3209 -0.8142 -1.6040
 9596TIP3   OH228751   4.757   1.992   3.375 -0.0727 -0.2517 -0.0229
 9596TIP3    H128752   4.813   1.918   3.354 -0.6040 -0.2874 -1.3941
 9596TIP3    H228753   4.673   1.953   3.400  0.3201 -0.1778  1.5269
 9597TIP3   OH228754   4.581   2.324   4.710  0.3028 -0.1242 -0.2323
 9597TIP3    H128755   4.513   2.377   4.752  0.8171  1.9675 -1.8265
 9597TIP3    H228756   4.650   2.318   4.776 -0.8898 -1.2499  0.9754
 9598TIP3   OH228757   1.405   0.432   1.898  0.1940  0.0239  0.2517
 9598TIP3    H128758   1.355   0.354   1.921  0.7591 -0.2307  0.6248
 9598TIP3    H228759   1.458   0.451   1.975 -1.1217  1.7520  0.7966
 9599TIP3   OH228760   2.787   0.818   4.548  0.0759  0.0216 -0.4035
 9599TIP3    H128761   2.752   0.859   4.469  0.5618  0.0607 -0.6043
 9599TIP3    H228762   2.815   0.731   4.519  0.6011  0.1757 -0.3624
 9600TIP3   OH228763   2.072   4.766   5.306  0.0116  0.3106  0.0483
 9600TIP3    H128764   2.099   4.785   5.216  1.6024  0.9229  0.6157
 9600TIP3    H228765   2.110   4.681   5.325 -2.0650 -0.8076 -0.4943
 9601TIP3   OH228766   4.276   6.173   2.477  0.1437 -0.1571 -0.0013
 9601TIP3    H128767   4.330   6.252   2.480  0.2731 -0.2231 -0.5254
 9601TIP3    H228768   4.211   6.191   2.409 -0.3805 -0.1494  0.5033
 9602TIP3   OH228769   4.961   1.072   4.882  0.6084 -0.1879 -1.1251
 9602TIP3    H128770   5.052   1.074   4.913  0.3178 -0.2844 -0.2465
 9602TIP3    H228771   4.948   0.981   4.853  0.5249 -0.3971 -0.4343
 9603TIP3   OH228772   5.727   2.539   3.734 -0.1286 -0.3858  0.5482
 9603TIP3    H128773   5.763   2.615   3.779 -0.0964 -0.7520  1.1554
 9603TIP3    H228774   5.695   2.482   3.804  0.1677 -1.0942  0.1261
 9604TIP3   OH228775   2.193   1.055   1.275  0.1806 -0.0326  0.0094
 9604TIP3    H128776   2.279   1.093   1.297 -0.0093  0.8065 -0.6496
 9604TIP3    H228777   2.202   0.962   1.296  0.6775  0.3406  1.6454
 9605TIP3   OH228778   4.345   1.013   5.045 -0.2027 -0.1156 -0.1441
 9605TIP3    H128779   4.359   1.033   4.953 -1.7978 -0.9239 -0.6009
 9605TIP3    H228780   4.252   1.033   5.060 -0.1918 -0.8617  1.0519
 9606TIP3   OH228781   6.622   5.645   0.456  0.2987  1.0768  0.4310
 9606TIP3    H128782   6.694   5.636   0.519 -0.7152  1.2190  1.6590
 9606TIP3    H228783   6.657   5.700   0.387  1.8219 -0.0326  0.2721
 9607TIP3   OH228784   0.793   3.395   4.797 -0.4455 -0.4343  0.4406
 9607TIP3    H128785   0.733   3.322   4.782 -0.1271 -0.2802 -1.8841
 9607TIP3    H228786   0.877   3.353   4.816  0.2099 -0.8452 -2.7421
 9608TIP3   OH228787   6.178   4.956   4.801 -0.1113  0.1514  0.8248
 9608TIP3    H128788   6.093   4.914   4.805  0.1064 -0.4553 -0.3677
 9608TIP3    H228789   6.218   4.939   4.886 -0.1792 -1.7811  0.5196
 9609TIP3   OH228790   0.714   3.803   0.223  0.6417 -0.6175  0.0554
 9609TIP3    H128791   0.744   3.874   0.280 -2.2054  1.0691 -0.3378
 9609TIP3    H228792   0.678   3.738   0.284 -1.8005  0.8873  0.3486
 9610TIP3   OH228793   5.341   3.840   4.525 -0.4237  0.0363  0.4413
 9610TIP3    H128794   5.320   3.881   4.441 -0.6695 -1.0107 -0.0229
 9610TIP3    H228795   5.258   3.807   4.558  0.0866 -2.4682 -0.5095
 9611TIP3   OH228796   3.906   4.126   4.495 -0.3766 -0.1351 -0.1663
 9611TIP3    H128797   3.864   4.081   4.569 -0.8618 -0.0652 -0.3921
 9611TIP3    H228798   3.870   4.082   4.417 -3.7639  2.9038 -0.5990
 9612TIP3   OH228799   5.664   3.747   2.124 -0.7577 -0.2294  0.3977
 9612TIP3    H128800   5.663   3.670   2.180 -0.1527 -0.0756  0.6256
 9612TIP3    H228801   5.643   3.713   2.037  1.3947 -0.9766  0.1130
 9613TIP3   OH228802   2.273   5.032   0.470  0.1426  0.0407  0.7365
 9613TIP3    H128803   2.220   5.111   0.480 -0.1476 -0.1493  0.7002
 9613TIP3    H228804   2.223   4.964   0.515  0.6983  0.0130  1.3270
 9614TIP3   OH228805   0.100   5.395   3.677 -0.3372 -0.4061  0.6189
 9614TIP3    H128806   0.132   5.331   3.614  0.9613  0.6824  0.1228
 9614TIP3    H228807   0.125   5.359   3.762 -0.8783 -1.2194  0.4463
 9615TIP3   OH228808   4.812   2.921   5.181 -0.0492  0.1570 -0.6572
 9615TIP3    H128809   4.790   2.982   5.252  0.0263 -0.6189  0.0518
 9615TIP3    H228810   4.874   2.970   5.126 -0.3258  0.8716 -0.3505
 9616TIP3   OH228811   7.074   0.247   3.696 -0.5924  0.1785  0.3568
 9616TIP3    H128812   7.124   0.176   3.737 -0.3679  0.8171  1.1885
 9616TIP3    H228813   7.049   0.211   3.610  3.1522  0.5569 -1.0918
 9617TIP3   OH228814   0.901   1.451   5.907 -0.3244 -0.2230  0.0527
 9617TIP3    H128815   0.809   1.430   5.891  0.1248 -1.5214 -1.0252
 9617TIP3    H228816   0.934   1.484   5.823  0.5591 -1.2839 -0.0499
 9618TIP3   OH228817   6.660   5.557   1.279 -0.2433  0.2265  0.6198
 9618TIP3    H128818   6.633   5.557   1.371 -0.4329 -1.0697  0.5890
 9618TIP3    H228819   6.702   5.642   1.266  0.5961  0.0883  2.1507
 9619TIP3   OH228820   1.777   0.108   3.606  0.0503 -0.1848 -0.1602
 9619TIP3    H128821   1.853   0.074   3.558 -0.9371 -1.9725 -0.5561
 9619TIP3    H228822   1.722   0.031   3.620 -2.8273  1.3960 -1.9369
 9620TIP3   OH228823   1.070   3.216   0.630  0.3028 -0.7503  0.3099
 9620TIP3    H128824   1.022   3.155   0.686  0.2067 -0.5764  0.4173
 9620TIP3    H228825   1.004   3.258   0.576  0.4265 -1.1231 -0.1375
 9621TIP3   OH228826   4.034   1.667   1.042 -0.0453  0.1906  0.1750
 9621TIP3    H128827   3.957   1.685   1.097  0.9212 -0.2818  1.7294
 9621TIP3    H228828   4.028   1.732   0.972 -1.0824  1.1282  1.0828
 9622TIP3   OH228829   0.365   2.880   3.001 -0.0153  0.0394 -0.3026
 9622TIP3    H128830   0.306   2.919   3.065 -0.3669 -0.7445 -0.1406
 9622TIP3    H228831   0.452   2.912   3.026 -0.1969  0.0507  0.3287
 9623TIP3   OH228832   2.891   1.489   2.454  0.2086  0.4523 -0.0275
 9623TIP3    H128833   2.818   1.451   2.406 -0.8829  0.3117  1.6489
 9623TIP3    H228834   2.966   1.433   2.433 -0.4685 -0.1992 -0.7464
 9624TIP3   OH228835   6.072   6.081   2.203  0.2893 -0.1381  0.3621
 9624TIP3    H128836   6.093   6.010   2.143  0.2810 -0.0320  0.2340
 9624TIP3    H228837   5.983   6.063   2.233  0.7930 -0.9669  1.4366
 9625TIP3   OH228838   0.499   0.854   1.336 -0.4947 -0.5720  0.5217
 9625TIP3    H128839   0.492   0.949   1.342  0.1222 -0.3044 -1.9984
 9625TIP3    H228840   0.411   0.822   1.357 -0.8998  0.5942  0.6837
 9626TIP3   OH228841   6.914   3.578   4.859  0.8623  0.4160  0.2542
 9626TIP3    H128842   6.974   3.558   4.931  1.4053  1.5816  0.1459
 9626TIP3    H228843   6.862   3.498   4.849 -0.0729  0.6302  2.7349
 9627TIP3   OH228844   5.015   2.590   3.071  0.3510 -0.0485 -0.1299
 9627TIP3    H128845   4.972   2.554   3.149  0.1541 -1.0647 -0.6855
 9627TIP3    H228846   4.950   2.650   3.034  0.5171  0.5882  0.5750
 9628TIP3   OH228847   6.866   3.348   2.919 -0.2874 -0.3043  0.6909
 9628TIP3    H128848   6.775   3.375   2.936 -0.9583 -2.0247  0.0177
 9628TIP3    H228849   6.863   3.308   2.833  1.4833  1.0659 -0.0639
 9629TIP3   OH228850   1.011   0.643   2.405 -0.5960 -0.0707  0.2554
 9629TIP3    H128851   1.064   0.693   2.342  0.1805 -1.0841  0.0749
 9629TIP3    H228852   0.952   0.707   2.443  1.0498  1.2032  0.7703
 9630TIP3   OH228853   2.913   5.168   0.810 -0.2466 -0.0530  0.2379
 9630TIP3    H128854   2.887   5.165   0.718  1.4572 -0.5841 -0.2593
 9630TIP3    H228855   2.833   5.193   0.857 -1.2302 -0.1211 -1.3383
 9631TIP3   OH228856   1.131   6.568   1.516  0.0419  0.1891 -0.1859
 9631TIP3    H128857   1.211   6.521   1.540 -0.8780 -0.6432  1.4035
 9631TIP3    H228858   1.091   6.514   1.449  0.9629  0.8102 -1.2851
 9632TIP3   OH228859   4.387   3.274   2.962 -1.2642  0.1221 -0.6194
 9632TIP3    H128860   4.365   3.266   3.055  1.0220  0.3522  0.0114
 9632TIP3    H228861   4.383   3.184   2.929  0.4182 -0.3721  0.3846
 9633TIP3   OH228862   6.286   2.128   2.395  0.0124  0.6057 -0.1771
 9633TIP3    H128863   6.254   2.062   2.333  0.4837  0.8780 -0.7252
 9633TIP3    H228864   6.381   2.121   2.389  0.0793  0.1068  1.1028
 9634TIP3   OH228865   4.042   1.156   2.961 -0.3072 -0.1315 -0.0113
 9634TIP3    H128866   3.962   1.203   2.982  0.2167  0.5550  0.5335
 9634TIP3    H228867   4.110   1.203   3.011  0.4978 -0.3860 -0.8471
 9635TIP3   OH228868   5.851   2.992   5.133 -0.0996  0.6453 -0.1131
 9635TIP3    H128869   5.892   2.986   5.047  0.1996  0.9142  0.0049
 9635TIP3    H228870   5.769   2.945   5.125  1.5648 -2.6382  0.4615
 9636TIP3   OH228871   2.717   4.943   4.446 -0.1112  0.1141 -0.0708
 9636TIP3    H128872   2.635   4.930   4.493 -0.1260 -0.4445 -0.2383
 9636TIP3    H228873   2.775   4.984   4.509 -0.2726 -0.2123  0.2927
 9637TIP3   OH228874   4.663   2.146   0.722  0.0063  0.5381 -0.1042
 9637TIP3    H128875   4.754   2.175   0.711  0.6938 -1.5241 -0.1512
 9637TIP3    H228876   4.645   2.161   0.815  1.5515 -1.9987  0.7004
 9638TIP3   OH228877   2.533   2.066   1.420 -0.8372  0.4820  0.1171
 9638TIP3    H128878   2.484   2.149   1.414 -1.0207  0.2634 -2.2095
 9638TIP3    H228879   2.608   2.078   1.362 -0.4332 -0.7329  0.3554
 9639TIP3   OH228880   0.206   1.491   3.387  0.5276  0.3602 -0.2928
 9639TIP3    H128881   0.206   1.577   3.429  0.5250  0.6321 -0.8338
 9639TIP3    H228882   0.172   1.507   3.299 -0.1357 -0.3178 -0.1678
 9640TIP3   OH228883   3.002   0.197   5.034  0.6126  0.1715 -0.0608
 9640TIP3    H128884   2.963   0.145   5.105 -1.3871 -1.2956 -2.0991
 9640TIP3    H228885   3.080   0.148   5.010 -0.0112 -0.6612 -0.4365
 9641TIP3   OH228886   2.040   5.339   5.302 -0.9288 -0.6770  0.0860
 9641TIP3    H128887   2.082   5.326   5.217  2.5004  0.8048  1.3593
 9641TIP3    H228888   1.964   5.393   5.283 -0.3646 -0.5415 -2.0615
 9642TIP3   OH228889   0.199   2.178   1.658  0.1545 -0.3264  0.0086
 9642TIP3    H128890   0.244   2.262   1.666 -0.0977 -0.0662 -1.2069
 9642TIP3    H228891   0.237   2.137   1.580 -1.3990 -0.2831 -0.7970
 9643TIP3   OH228892   6.757   3.218   3.414 -0.1025 -0.5537  0.0365
 9643TIP3    H128893   6.768   3.175   3.499  0.0369 -0.7250 -0.0659
 9643TIP3    H228894   6.671   3.260   3.419  0.5898  0.8356  0.8679
 9644TIP3   OH228895   1.091   0.798   3.899  0.2029  0.2779 -0.1345
 9644TIP3    H128896   1.008   0.807   3.947 -0.3949  0.4139 -1.1704
 9644TIP3    H228897   1.157   0.833   3.959 -0.7968  2.4380 -0.2086
 9645TIP3   OH228898   6.112   4.123   4.952 -0.2168 -0.3670  0.4306
 9645TIP3    H128899   6.094   4.074   4.872 -0.8735 -0.1803  0.4576
 9645TIP3    H228900   6.171   4.067   5.002 -1.1766 -1.2662  0.5851
 9646TIP3   OH228901   5.875   6.541   5.658 -0.1369  1.1149 -0.4484
 9646TIP3    H128902   5.869   6.626   5.702 -3.4909  1.0571 -0.5040
 9646TIP3    H228903   5.784   6.516   5.643  0.6360 -2.9835  0.4593
 9647TIP3   OH228904   1.687   3.449   2.665  0.2343  0.1882 -0.2038
 9647TIP3    H128905   1.658   3.484   2.581 -0.2481  0.1262 -0.0658
 9647TIP3    H228906   1.617   3.472   2.726  0.2014 -0.4615  0.0153
 9648TIP3   OH228907   5.655   2.174   5.017 -0.5591 -0.5474  0.1299
 9648TIP3    H128908   5.751   2.176   5.024 -0.5796  1.8203  0.6549
 9648TIP3    H228909   5.635   2.245   4.956 -1.9975 -1.1204 -0.0916
 9649TIP3   OH228910   4.326   1.982   4.411 -0.8196  0.0934  0.4599
 9649TIP3    H128911   4.365   2.032   4.482  0.0261  0.0071  0.0734
 9649TIP3    H228912   4.398   1.968   4.349 -1.2842 -0.7235  0.0837
 9650TIP3   OH228913   4.789   3.101   0.430  0.1926 -0.0857  0.0118
 9650TIP3    H128914   4.700   3.110   0.463  0.0710 -0.5762 -0.1778
 9650TIP3    H228915   4.843   3.093   0.508  0.2917  1.9531  0.2110
 9651TIP3   OH228916   0.323   2.239   2.333  0.2200  0.2801 -0.0172
 9651TIP3    H128917   0.253   2.200   2.280  0.0706  0.1177  0.3014
 9651TIP3    H228918   0.278   2.281   2.406  0.4336  0.4609  0.0131
 9652TIP3   OH228919   2.552   6.734   5.188  0.1982  0.5047  0.0428
 9652TIP3    H128920   2.548   6.768   5.277 -1.2584 -3.5822  1.7450
 9652TIP3    H228921   2.467   6.757   5.150 -1.0793 -1.5509  1.4327
 9653TIP3   OH228922   0.354   3.144   5.179 -0.0718 -0.3560  0.0237
 9653TIP3    H128923   0.446   3.153   5.155 -0.1604 -0.3369 -0.3153
 9653TIP3    H228924   0.307   3.153   5.096 -0.3100 -1.4133  0.0238
 9654TIP3   OH228925   4.039   1.398   3.639 -0.1671  0.0765 -0.4715
 9654TIP3    H128926   4.121   1.384   3.687 -1.0949 -0.9957  0.8956
 9654TIP3    H228927   3.970   1.380   3.704 -1.4974 -1.2599 -2.1685
 9655TIP3   OH228928   5.622   6.652   1.124  0.0655  0.3336  0.1896
 9655TIP3    H128929   5.536   6.615   1.145  0.6721 -0.4612  1.3756
 9655TIP3    H228930   5.606   6.746   1.113 -0.8839  0.2633  0.8667
 9656TIP3   OH228931   1.471   1.452   4.574  0.2683 -0.0022  0.0841
 9656TIP3    H128932   1.388   1.451   4.623  0.1596  1.1411 -0.0559
 9656TIP3    H228933   1.467   1.532   4.522  2.0763  0.8561  1.1762
 9657TIP3   OH228934   3.905   0.941   2.628  0.3670  0.5384  0.0515
 9657TIP3    H128935   3.899   0.884   2.551  1.7110  0.6684 -0.1592
 9657TIP3    H228936   3.955   1.017   2.598  0.2484  0.9425  0.8556
 9658TIP3   OH228937   4.647   4.628   1.130  0.1531 -0.2221  0.1084
 9658TIP3    H128938   4.680   4.712   1.095  1.8434 -0.4892  0.9712
 9658TIP3    H228939   4.620   4.579   1.052  0.0968  0.7321 -0.4907
 9659TIP3   OH228940   7.018   3.380   1.345  0.3778  0.0991 -0.0438
 9659TIP3    H128941   7.084   3.427   1.294  1.7930 -1.4067  0.3005
 9659TIP3    H228942   7.033   3.288   1.324 -0.4697 -0.3995  1.4013
 9660TIP3   OH228943   3.074   5.361   2.211 -0.1518 -0.1289 -0.0979
 9660TIP3    H128944   3.069   5.324   2.299  0.1425 -1.0942 -0.4750
 9660TIP3    H228945   2.997   5.326   2.166 -0.0245 -0.0496 -0.3770
 9661TIP3   OH228946   1.047   2.201   3.204  0.5818 -0.1631  0.6419
 9661TIP3    H128947   0.954   2.182   3.194  0.6115  0.3464 -0.6821
 9661TIP3    H228948   1.091   2.127   3.162  0.7421  0.4959 -0.3833
 9662TIP3   OH228949   2.300   0.812   4.326 -0.2293  0.4753 -0.0940
 9662TIP3    H128950   2.224   0.851   4.283 -0.9147  0.5143  1.1124
 9662TIP3    H228951   2.268   0.786   4.412 -0.0835 -3.5088 -1.0337
 9663TIP3   OH228952   3.749   6.453   3.117  0.2447 -0.3017  0.4909
 9663TIP3    H128953   3.675   6.415   3.069 -0.6399  1.3506  0.4700
 9663TIP3    H228954   3.761   6.539   3.079  1.4338 -0.0865  1.2995
 9664TIP3   OH228955   0.021   5.961   3.697 -0.2337 -0.2455  0.3573
 9664TIP3    H128956   0.021   5.903   3.773 -0.2611  0.3449  0.8150
 9664TIP3    H228957   0.038   5.903   3.622  3.8720 -0.3569  1.1613
 9665TIP3   OH228958   1.660   6.500   4.002 -0.8759  0.3759 -0.1947
 9665TIP3    H128959   1.635   6.585   3.965 -0.2125 -0.2483 -2.2013
 9665TIP3    H228960   1.697   6.451   3.928  0.7321 -0.9070  1.3657
 9666TIP3   OH228961   2.992   4.557   4.547  0.1878  0.0020  0.6851
 9666TIP3    H128962   2.918   4.601   4.505 -0.3953 -1.0355  0.6060
 9666TIP3    H228963   3.054   4.540   4.476 -0.0378 -0.2120  0.5377
 9667TIP3   OH228964   2.572   4.955   3.949 -0.4490  0.1946  0.0134
 9667TIP3    H128965   2.508   4.938   4.019  0.0498  0.8332  0.6362
 9667TIP3    H228966   2.605   5.042   3.968  0.2785  0.0519 -0.5734
 9668TIP3   OH228967   2.676   0.289   2.910  0.8369 -0.5646  0.2655
 9668TIP3    H128968   2.609   0.357   2.919  0.7496 -0.6892  0.5815
 9668TIP3    H228969   2.722   0.311   2.830 -0.5094 -1.2694 -0.7555
 9669TIP3   OH228970   5.752   0.520   3.346  0.1405 -0.0392 -0.2745
 9669TIP3    H128971   5.716   0.552   3.429 -0.3291 -0.2482 -0.3936
 9669TIP3    H228972   5.757   0.598   3.291  0.9251  0.1917  0.1124
 9670TIP3   OH228973   3.274   2.782   3.951 -0.7174  0.5249 -0.5221
 9670TIP3    H128974   3.300   2.715   4.013 -0.8412  0.8064 -0.1593
 9670TIP3    H228975   3.314   2.756   3.868 -2.0269 -0.8305 -0.7704
 9671TIP3   OH228976   0.562   2.535   2.529  0.0210  0.2224 -0.1517
 9671TIP3    H128977   0.490   2.521   2.467 -0.3417  0.9187  0.0987
 9671TIP3    H228978   0.602   2.617   2.500 -0.6956  1.0182  1.0348
 9672TIP3   OH228979   4.599   6.109   5.425  0.0681  0.4970 -0.5053
 9672TIP3    H128980   4.569   6.183   5.479  1.1274  1.7966 -1.6123
 9672TIP3    H228981   4.522   6.055   5.413 -0.0522 -0.3728  3.0384
 9673TIP3   OH228982   4.788   1.488   3.063 -0.1632 -0.4365  0.4003
 9673TIP3    H128983   4.846   1.422   3.100  1.5781 -1.3189 -3.3573
 9673TIP3    H228984   4.822   1.572   3.095  1.5182 -1.0983  0.4458
 9674TIP3   OH228985   0.510   6.263   0.199  0.1419  0.3658  0.4308
 9674TIP3    H128986   0.536   6.173   0.220  0.7936  0.6781  0.9829
 9674TIP3    H228987   0.592   6.309   0.181 -0.1835  0.8598  0.1785
 9675TIP3   OH228988   0.480   3.293   0.676  0.8140 -0.5658 -0.3775
 9675TIP3    H128989   0.557   3.323   0.629  0.4367 -0.2069 -0.7829
 9675TIP3    H228990   0.491   3.328   0.765  1.2282 -0.7219 -0.3672
 9676TIP3   OH228991   3.350   2.574   5.385  0.5010  0.7256  0.3712
 9676TIP3    H128992   3.432   2.603   5.425  0.1342  1.2369  0.7525
 9676TIP3    H228993   3.285   2.578   5.455  0.4370 -1.0779  0.4646
 9677TIP3   OH228994   4.776   6.112   2.878 -0.1776 -0.7133 -0.3185
 9677TIP3    H128995   4.851   6.113   2.819  0.7529  0.4634  0.8367
 9677TIP3    H228996   4.763   6.204   2.902 -2.4909 -0.7820 -1.0897
 9678TIP3   OH228997   5.140   6.009   4.628 -0.4212 -0.0654  0.1775
 9678TIP3    H128998   5.141   6.097   4.591 -3.3624  0.0395  0.1217
 9678TIP3    H228999   5.206   5.961   4.577  0.1750  1.6993 -0.7905
 9679TIP3   OH229000   1.079   4.670   0.514 -0.0204  0.2061  0.2257
 9679TIP3    H129001   1.150   4.733   0.520 -1.7420  2.5509 -2.0297
 9679TIP3    H229002   1.086   4.633   0.426 -0.9765 -0.3349  0.3573
 9680TIP3   OH229003   3.225   4.954   5.636 -0.1214  0.7267  0.3601
 9680TIP3    H129004   3.198   4.929   5.725  3.2610  2.4582  2.0726
 9680TIP3    H229005   3.212   5.049   5.633 -0.3383  0.6632 -1.0880
 9681TIP3   OH229006   0.504   0.534   4.572 -0.0795  0.2132 -0.2330
 9681TIP3    H129007   0.464   0.569   4.651  1.6514 -0.2666  0.9244
 9681TIP3    H229008   0.468   0.586   4.501  0.5761  2.7463  1.1787
 9682TIP3   OH229009   6.184   6.410   3.446  0.6336  0.0053 -0.0992
 9682TIP3    H129010   6.215   6.321   3.465 -0.5897 -0.2840  0.6481
 9682TIP3    H229011   6.256   6.450   3.396  0.6132 -1.8969 -1.7880
 9683TIP3   OH229012   6.581   4.666   5.245 -0.4067  0.1232 -0.2222
 9683TIP3    H129013   6.605   4.574   5.238 -0.0701  0.0430  1.5133
 9683TIP3    H229014   6.486   4.666   5.258 -0.2354 -0.1180  1.2707
 9684TIP3   OH229015   2.236   3.479   3.878  0.1476 -0.5320 -0.3867
 9684TIP3    H129016   2.270   3.518   3.958 -0.2459  0.0759 -0.5119
 9684TIP3    H229017   2.153   3.523   3.863 -0.0615 -1.0569 -0.8145
 9685TIP3   OH229018   6.703   5.170   4.769 -0.3777 -0.9032 -0.2923
 9685TIP3    H129019   6.681   5.091   4.720 -0.3138  0.0259 -1.9018
 9685TIP3    H229020   6.796   5.184   4.752 -0.6941  0.2745 -1.2314
 9686TIP3   OH229021   1.979   5.920   5.153 -0.1951 -0.0146  0.2402
 9686TIP3    H129022   1.996   5.977   5.228  0.0015 -0.0088  0.1901
 9686TIP3    H229023   1.993   5.975   5.076 -2.3663  0.5805  0.1874
 9687TIP3   OH229024   0.330   4.945   5.439 -0.1020  0.1919  0.2662
 9687TIP3    H129025   0.244   4.923   5.403  0.5293  2.0813 -2.7573
 9687TIP3    H229026   0.315   5.028   5.485 -0.1894 -0.3553  1.2473
 9688TIP3   OH229027   1.218   2.510   1.955  0.2694 -0.4099 -0.0106
 9688TIP3    H129028   1.236   2.519   2.049 -0.7141 -1.6865  0.3236
 9688TIP3    H229029   1.305   2.508   1.914  0.7050  0.2049  0.8546
 9689TIP3   OH229030   5.066   5.835   0.846  0.1501 -0.1098  0.1354
 9689TIP3    H129031   5.014   5.911   0.870  1.8742  0.6683  1.7332
 9689TIP3    H229032   5.135   5.831   0.913  1.2931 -1.9005 -1.0367
 9690TIP3   OH229033   2.522   4.557   0.480 -0.1102  0.1811 -0.4818
 9690TIP3    H129034   2.436   4.575   0.442 -0.1875 -0.3035 -0.5502
 9690TIP3    H229035   2.519   4.596   0.567  0.5136  2.4400 -1.3979
 9691TIP3   OH229036   0.350   4.310   5.401  0.0181 -1.0859 -0.5860
 9691TIP3    H129037   0.398   4.290   5.482  1.9607  0.8212 -1.1707
 9691TIP3    H229038   0.273   4.359   5.429  1.4740  0.9218  0.0739
 9692TIP3   OH229039   0.345   0.854   2.198 -0.6627 -0.0525  0.1476
 9692TIP3    H129040   0.286   0.924   2.170  0.1344  0.9677  0.9718
 9692TIP3    H229041   0.425   0.868   2.147 -0.0565  0.3938  1.1924
 9693TIP3   OH229042   6.626   2.117   2.159  0.0738 -0.6294  0.8596
 9693TIP3    H129043   6.577   2.099   2.239  0.2166 -1.2964  0.8027
 9693TIP3    H229044   6.594   2.053   2.096  0.3545 -0.4614  0.5414
 9694TIP3   OH229045   1.578   3.265   2.907 -0.0956  0.0937  0.3431
 9694TIP3    H129046   1.547   3.201   2.843 -2.4195 -0.8695  2.2844
 9694TIP3    H229047   1.505   3.325   2.919  0.7466  0.9862  1.1961
 9695TIP3   OH229048   5.818   3.537   1.898  0.5078  0.1656 -0.2602
 9695TIP3    H129049   5.894   3.575   1.941 -0.2219  1.1420  0.1938
 9695TIP3    H229050   5.778   3.481   1.965 -0.1328  1.0005  0.0706
 9696TIP3   OH229051   2.724   4.797   4.159  0.6891 -0.2045 -0.0410
 9696TIP3    H129052   2.633   4.767   4.165  0.6411 -0.2805 -1.0313
 9696TIP3    H229053   2.733   4.828   4.069  1.2581  1.1068  0.4475
 9697TIP3   OH229054   1.314   1.978   2.640 -0.0424  0.1809  0.1727
 9697TIP3    H129055   1.290   1.972   2.547  1.3058 -0.1815 -0.1759
 9697TIP3    H229056   1.238   2.019   2.682 -0.8557 -0.0652 -1.0112
 9698TIP3   OH229057   1.459   6.489   1.303  0.2099  0.3311  0.2233
 9698TIP3    H129058   1.416   6.565   1.264  0.2026  0.3324  0.2337
 9698TIP3    H229059   1.524   6.461   1.238 -2.0217 -1.7178 -1.3350
 9699TIP3   OH229060   5.997   4.447   3.624  0.4544  0.4353  0.1695
 9699TIP3    H129061   6.001   4.493   3.708  0.1561  0.1129  0.3618
 9699TIP3    H229062   5.964   4.360   3.645  1.6015 -0.0910 -0.1108
 9700TIP3   OH229063   1.511   4.894   4.788 -0.2548  0.5245  0.1910
 9700TIP3    H129064   1.489   4.943   4.868 -0.0182  1.0581 -0.0623
 9700TIP3    H229065   1.443   4.919   4.726  1.0369  2.2482 -0.6242
 9701TIP3   OH229066   2.254   4.048   4.081  0.5183 -0.3161 -0.0985
 9701TIP3    H129067   2.167   4.066   4.115  0.6960  1.5220 -0.4736
 9701TIP3    H229068   2.271   4.121   4.021  2.1549 -0.8407 -0.3171
 9702TIP3   OH229069   4.458   3.205   1.216 -0.6717  0.1629 -0.4480
 9702TIP3    H129070   4.449   3.200   1.311 -2.4036  1.3242 -0.5036
 9702TIP3    H229071   4.430   3.119   1.185 -2.7221  0.6098 -0.0064
 9703TIP3   OH229072   4.295   1.204   3.491 -0.1609 -0.5761  0.0635
 9703TIP3    H129073   4.345   1.152   3.554 -0.9142 -0.4681  0.7714
 9703TIP3    H229074   4.216   1.229   3.539  0.4824  1.8287 -0.0034
 9704TIP3   OH229075   6.839   5.339   2.618  0.1922  0.1027  0.3319
 9704TIP3    H129076   6.755   5.295   2.608  0.6655 -1.1190  1.3368
 9704TIP3    H229077   6.896   5.297   2.553  0.5973 -0.6784  1.1700
 9705TIP3   OH229078   0.096   0.468   3.311 -0.0009  0.2480 -0.1961
 9705TIP3    H129079   0.075   0.481   3.403  0.4441 -0.7780  0.0769
 9705TIP3    H229080   0.174   0.521   3.296 -0.2364  0.6335 -0.0576
 9706TIP3   OH229081   6.286   4.201   3.116 -0.0166 -0.6838 -0.4117
 9706TIP3    H129082   6.328   4.133   3.169 -0.1016  0.3368  1.0101
 9706TIP3    H229083   6.296   4.170   3.025 -1.4344 -3.3774  0.2277
 9707TIP3   OH229084   1.200   0.263   2.022  0.0680 -0.4608 -0.1243
 9707TIP3    H129085   1.192   0.332   2.089  0.4241 -1.1099  0.6043
 9707TIP3    H229086   1.134   0.286   1.956 -0.1786  0.2860  0.3670
 9708TIP3   OH229087   5.432   1.019   0.644  0.4499  0.5624 -0.1005
 9708TIP3    H129088   5.522   1.039   0.669  0.6868  0.7618 -1.0667
 9708TIP3    H229089   5.415   1.075   0.568 -1.2235  2.1063  1.3169
 9709TIP3   OH229090   1.369   3.615   1.593  0.5511  0.1434 -0.5486
 9709TIP3    H129091   1.442   3.647   1.646  0.1914 -0.2376  0.1946
 9709TIP3    H229092   1.373   3.666   1.512  2.4372 -0.7845 -1.0782
 9710TIP3   OH229093   0.376   3.356   2.098 -0.1062  0.4020  0.5990
 9710TIP3    H129094   0.415   3.270   2.111 -0.9325  0.1513  1.5410
 9710TIP3    H229095   0.301   3.339   2.040  0.5007  0.7089 -0.3020
 9711TIP3   OH229096   3.175   6.691   0.577 -0.4228 -0.3562 -0.1576
 9711TIP3    H129097   3.128   6.701   0.494  0.5749 -0.3217 -0.7390
 9711TIP3    H229098   3.175   6.597   0.594  0.2055 -0.4669 -0.7131
 9712TIP3   OH229099   0.394   2.327   0.801  0.4576  0.3532 -0.5925
 9712TIP3    H129100   0.450   2.278   0.862  1.8188  0.2660 -1.8481
 9712TIP3    H229101   0.422   2.418   0.811 -0.3503  0.5560 -0.0507
 9713TIP3   OH229102   4.508   6.076   4.511  0.2355 -0.1902 -0.2656
 9713TIP3    H129103   4.504   6.043   4.421 -1.1808 -1.2524  0.1614
 9713TIP3    H229104   4.467   6.008   4.564  0.6344  0.6224  1.1357
 9714TIP3   OH229105   6.701   0.561   0.963  0.8528  0.1669 -0.2994
 9714TIP3    H129106   6.741   0.476   0.982  0.4442  0.4722  2.1337
 9714TIP3    H229107   6.765   0.625   0.993  0.5201  0.7281 -0.7494
 9715TIP3   OH229108   6.646   0.942   0.370 -0.6676 -0.0862  0.0930
 9715TIP3    H129109   6.729   0.987   0.357 -1.0184  1.0726  1.5255
 9715TIP3    H229110   6.585   0.984   0.310 -0.5130 -0.0397 -0.0297
 9716TIP3   OH229111   4.498   0.719   0.759  0.2342 -0.5002 -0.0972
 9716TIP3    H129112   4.482   0.679   0.674 -1.6238 -1.8055  0.7990
 9716TIP3    H229113   4.520   0.810   0.739 -0.3318 -0.7335 -1.9539
 9717TIP3   OH229114   4.275   0.815   2.194 -0.7321  0.5473 -0.3222
 9717TIP3    H129115   4.291   0.883   2.128  1.6044 -0.8080 -1.2904
 9717TIP3    H229116   4.362   0.794   2.227 -1.2910 -2.3134 -0.4670
 9718TIP3   OH229117   0.752   4.744   4.167  0.1228  0.0958  0.1058
 9718TIP3    H129118   0.701   4.820   4.195  2.2112  0.6233  2.9978
 9718TIP3    H229119   0.688   4.674   4.160 -1.3895  1.3084  0.9424
 9719TIP3   OH229120   6.999   4.719   1.744 -0.2918 -0.3113 -0.2889
 9719TIP3    H129121   7.055   4.661   1.794 -0.4848  0.2205  0.5679
 9719TIP3    H229122   6.956   4.662   1.680 -1.2458 -1.3258  1.1825
 9720TIP3   OH229123   4.445   5.321   3.451  0.3686  0.1229 -0.3016
 9720TIP3    H129124   4.469   5.285   3.536 -1.3316 -0.4940 -0.0317
 9720TIP3    H229125   4.480   5.410   3.451  4.1437 -1.2181 -0.7223
 9721TIP3   OH229126   2.410   3.177   2.541 -1.2999 -0.2448  0.4679
 9721TIP3    H129127   2.350   3.165   2.468 -0.9468 -1.3259  0.3379
 9721TIP3    H229128   2.436   3.269   2.536  0.1136 -0.6666 -1.9068
 9722TIP3   OH229129   1.224   3.391   3.497 -0.3296  0.2643  0.0654
 9722TIP3    H129130   1.306   3.416   3.539 -0.1095 -0.0555 -0.1762
 9722TIP3    H229131   1.171   3.354   3.568 -1.5214  3.3153  0.9484
 9723TIP3   OH229132   2.248   0.187   3.650 -0.2512  0.5132  0.1552
 9723TIP3    H129133   2.215   0.208   3.563  0.4664  1.7608  0.1640
 9723TIP3    H229134   2.332   0.144   3.635 -0.6489 -0.3081  0.2134
 9724TIP3   OH229135   0.928   4.244   2.019  0.6005  0.2596  0.2804
 9724TIP3    H129136   0.939   4.209   2.107  2.6269  1.1628  0.4460
 9724TIP3    H229137   0.840   4.282   2.019  0.4604  0.0150  1.8270
 9725TIP3   OH229138   1.970   2.638   3.743  0.3119 -0.4981  0.1523
 9725TIP3    H129139   1.991   2.575   3.812 -0.5917 -2.3122 -1.1570
 9725TIP3    H229140   2.055   2.668   3.711  0.7837 -1.8028  0.1417
 9726TIP3   OH229141   4.842   2.956   3.814  0.0556 -0.0464 -0.5391
 9726TIP3    H129142   4.808   3.045   3.817  0.2860  0.1352 -2.4077
 9726TIP3    H229143   4.908   2.957   3.745  0.6235 -1.4845 -0.0631
 9727TIP3   OH229144   1.275   2.776   1.211 -0.3652 -0.2367 -0.2291
 9727TIP3    H129145   1.255   2.736   1.296 -1.0466  1.6551  0.5671
 9727TIP3    H229146   1.194   2.818   1.185  0.4052  0.9474 -0.8089
 9728TIP3   OH229147   0.759   1.219   4.094 -0.2007  0.0089 -0.6345
 9728TIP3    H129148   0.707   1.292   4.062  0.9821  0.9629 -0.4453
 9728TIP3    H229149   0.702   1.174   4.157 -1.4144 -0.0438 -1.7216
 9729TIP3   OH229150   0.543   1.683   1.331  0.1891  0.0782 -0.2538
 9729TIP3    H129151   0.579   1.707   1.245 -0.0922  1.1667 -0.0863
 9729TIP3    H229152   0.620   1.658   1.382  0.3882 -0.3326 -0.7382
 9730TIP3   OH229153   6.278   3.302   2.511 -0.1652  0.2295 -0.2630
 9730TIP3    H129154   6.368   3.286   2.540  0.1647  1.0066 -0.8402
 9730TIP3    H229155   6.274   3.265   2.423 -0.7835 -0.9166  0.2100
 9731TIP3   OH229156   2.085   0.141   5.365 -0.1215  0.1132 -0.8321
 9731TIP3    H129157   2.146   0.071   5.342 -0.0799  0.2546 -1.1566
 9731TIP3    H229158   2.061   0.181   5.281  1.4216  1.8013 -0.5381
 9732TIP3   OH229159   4.323   5.744   0.790  0.3962 -0.0354 -0.3854
 9732TIP3    H129160   4.237   5.701   0.793 -0.0296  0.8328  0.1480
 9732TIP3    H229161   4.364   5.720   0.873 -0.1786  1.2400  0.2903
 9733TIP3   OH229162   6.710   2.496   5.302 -0.4025 -0.1743 -1.1096
 9733TIP3    H129163   6.649   2.570   5.311  0.5911  0.3812  3.1881
 9733TIP3    H229164   6.792   2.536   5.275 -0.9868 -0.5146 -3.6908
 9734TIP3   OH229165   4.174   3.500   2.947 -0.1323 -0.3053  0.3687
 9734TIP3    H129166   4.243   3.438   2.972 -0.3419 -0.5014  0.4594
 9734TIP3    H229167   4.170   3.562   3.020 -0.8214 -0.9429  0.8821
 9735TIP3   OH229168   3.366   6.388   2.283 -0.0607  0.1333  0.4504
 9735TIP3    H129169   3.373   6.436   2.365 -1.4977  0.4227  0.4363
 9735TIP3    H229170   3.456   6.379   2.252  0.2884  2.9911  0.3590
 9736TIP3   OH229171   4.298   5.420   2.497  0.6738  0.3907  0.0215
 9736TIP3    H129172   4.307   5.420   2.402  0.8678 -0.5461  0.0272
 9736TIP3    H229173   4.227   5.481   2.514 -0.4304 -0.5981 -0.8493
 9737TIP3   OH229174   3.633   0.646   2.608  0.4362  0.3100  0.3788
 9737TIP3    H129175   3.654   0.646   2.701  2.2735  0.7268  0.0073
 9737TIP3    H229176   3.564   0.713   2.599 -1.2069 -1.1004  1.6614
 9738TIP3   OH229177   1.123   3.034   2.230  0.1593 -0.3211  0.0214
 9738TIP3    H129178   1.077   2.987   2.160 -0.0027 -0.4346  0.2038
 9738TIP3    H229179   1.215   3.027   2.207  0.0833 -0.0589 -0.3679
 9739TIP3   OH229180   6.823   5.803   5.349  0.0928  0.0333  0.3567
 9739TIP3    H129181   6.828   5.772   5.258  1.9669 -0.7110  0.6722
 9739TIP3    H229182   6.791   5.893   5.341  2.0175  0.6680 -1.2432
 9740TIP3   OH229183   4.236   1.783   4.708  0.1695 -0.4410  0.1186
 9740TIP3    H129184   4.330   1.785   4.689  0.1351 -2.2878 -0.4450
 9740TIP3    H229185   4.225   1.708   4.767 -0.6656  1.1654  2.1170
 9741TIP3   OH229186   5.928   3.716   4.006  0.3352  0.0417  0.2958
 9741TIP3    H129187   5.859   3.756   4.059 -1.9707 -0.4121 -2.1406
 9741TIP3    H229188   5.970   3.653   4.065 -2.0592 -0.4487  1.6390
 9742TIP3   OH229189   6.480   1.027   2.686  0.2359  0.4061 -0.5307
 9742TIP3    H129190   6.452   1.065   2.602 -2.0379 -1.4598 -0.7278
 9742TIP3    H229191   6.558   0.976   2.665 -0.0335  0.3478 -1.4180
 9743TIP3   OH229192   5.909   0.784   0.360 -0.3757  0.3859 -0.1271
 9743TIP3    H129193   5.978   0.743   0.308  1.5828  1.3382  1.5501
 9743TIP3    H229194   5.828   0.759   0.317  1.0411  0.1525 -2.9004
 9744TIP3   OH229195   6.499   1.614   2.265  0.5163  0.0754  0.0329
 9744TIP3    H129196   6.564   1.594   2.333  1.4466 -0.1544 -0.8954
 9744TIP3    H229197   6.480   1.530   2.224 -0.0593  0.2081  0.0163
 9745TIP3   OH229198   4.749   3.872   5.660 -0.1579  0.5250 -0.6395
 9745TIP3    H129199   4.818   3.938   5.656  0.5978 -0.0282  1.6218
 9745TIP3    H229200   4.687   3.906   5.725 -0.3236 -0.4458 -0.2617
 9746TIP3   OH229201   3.729   4.916   0.555  0.2153 -0.6423 -0.1290
 9746TIP3    H129202   3.823   4.927   0.536  0.0047  0.3057 -0.7139
 9746TIP3    H229203   3.726   4.887   0.646  1.0864 -0.8877 -0.1702
 9747TIP3   OH229204   1.760   4.833   5.567  0.2738 -0.0771 -0.4027
 9747TIP3    H129205   1.768   4.742   5.597  1.6944  0.3085  0.4990
 9747TIP3    H229206   1.782   4.830   5.474 -0.4638 -0.7489 -0.5705
 9748TIP3   OH229207   3.018   2.174   2.008  0.1049 -0.3678 -0.9822
 9748TIP3    H129208   3.075   2.250   2.012 -0.9259  0.3930 -0.2601
 9748TIP3    H229209   3.072   2.101   2.039  1.8701 -0.4631 -3.8948
 9749TIP3   OH229210   6.250   3.168   4.247 -0.1417  0.7557 -0.4047
 9749TIP3    H129211   6.176   3.108   4.239 -1.5564  2.2029  1.0753
 9749TIP3    H229212   6.242   3.227   4.173  0.4601 -0.0121 -1.1008
   7.21004   6.79770   5.88697   0.00000   0.00000  -2.40335   0.00000  -2.40335  -3.39884
