Title t= 153.00000 step= 76500
19942
    1ASP      N    1   2.184   2.396   2.803
    1ASP    HT1    2   2.230   2.339   2.877
    1ASP    HT2    3   2.170   2.494   2.836
    1ASP    HT3    4   2.248   2.397   2.721
    1ASP     CA    5   2.050   2.345   2.767
    1ASP     HA    6   1.986   2.363   2.852
    1ASP     CB    7   1.997   2.436   2.659
    1ASP    HB1    8   2.058   2.415   2.569
    1ASP    HB2    9   2.009   2.538   2.702
    1ASP     CG   10   1.851   2.408   2.630
    1ASP    OD1   11   1.812   2.426   2.513
    1ASP    OD2   12   1.777   2.382   2.726
    1ASP      C   13   2.039   2.193   2.727
    1ASP      O   14   2.138   2.140   2.671
    2ALA      N   15   1.931   2.120   2.754
    2ALA     HN   16   1.850   2.168   2.788
    2ALA     CA   17   1.918   1.982   2.710
    2ALA     HA   18   1.973   1.963   2.618
    2ALA     CB   19   1.968   1.890   2.817
    2ALA    HB1   20   1.955   1.781   2.799
    2ALA    HB2   21   1.927   1.915   2.917
    2ALA    HB3   22   2.078   1.900   2.828
    2ALA      C   23   1.764   1.955   2.681
    2ALA      O   24   1.676   2.018   2.739
    3ASP      N   25   1.741   1.864   2.584
    3ASP     HN   26   1.805   1.812   2.528
    3ASP     CA   27   1.612   1.828   2.535
    3ASP     HA   28   1.563   1.923   2.521
    3ASP     CB   29   1.624   1.763   2.400
    3ASP    HB1   30   1.526   1.736   2.354
    3ASP    HB2   31   1.687   1.672   2.410
    3ASP     CG   32   1.693   1.848   2.301
    3ASP    OD1   33   1.751   1.790   2.201
    3ASP    OD2   34   1.667   1.966   2.297
    3ASP      C   35   1.532   1.736   2.624
    3ASP      O   36   1.573   1.625   2.655
    4GLY      N   37   1.414   1.787   2.676
    4GLY     HN   38   1.388   1.881   2.656
    4GLY     CA   39   1.323   1.722   2.769
    4GLY    HA1   40   1.228   1.771   2.774
    4GLY    HA2   41   1.372   1.734   2.865
    4GLY      C   42   1.298   1.575   2.753
    4GLY      O   43   1.313   1.521   2.641
    5PRO      N   44   1.254   1.507   2.856
    5PRO     CD   45   1.243   1.561   2.991
    5PRO    HD1   46   1.155   1.628   3.000
    5PRO    HD2   47   1.340   1.609   3.017
    5PRO     CA   48   1.225   1.371   2.844
    5PRO     HA   49   1.296   1.317   2.783
    5PRO     CB   50   1.254   1.317   2.983
    5PRO    HB1   51   1.364   1.306   2.991
    5PRO    HB2   52   1.199   1.221   2.994
    5PRO     CG   53   1.214   1.432   3.079
    5PRO    HG1   54   1.104   1.421   3.094
    5PRO    HG2   55   1.247   1.437   3.185
    5PRO      C   56   1.084   1.337   2.787
    5PRO      O   57   0.989   1.392   2.831
    6GLY      N   58   1.085   1.239   2.690
    6GLY     HN   59   1.178   1.212   2.666
    6GLY     CA   60   0.977   1.184   2.612
    6GLY    HA1   61   1.022   1.118   2.540
    6GLY    HA2   62   0.927   1.269   2.568
    6GLY      C   63   0.877   1.099   2.682
    6GLY      O   64   0.860   1.118   2.797
    7ASP      N   65   0.804   1.003   2.620
    7ASP     HN   66   0.820   0.986   2.523
    7ASP     CA   67   0.705   0.920   2.685
    7ASP     HA   68   0.626   0.981   2.728
    7ASP     CB   69   0.642   0.830   2.581
    7ASP    HB1   70   0.712   0.749   2.551
    7ASP    HB2   71   0.614   0.892   2.493
    7ASP     CG   72   0.516   0.765   2.623
    7ASP    OD1   73   0.462   0.682   2.546
    7ASP    OD2   74   0.456   0.811   2.725
    7ASP      C   75   0.774   0.829   2.793
    7ASP      O   76   0.881   0.771   2.767
    8PRO      N   77   0.724   0.815   2.913
    8PRO     CD   78   0.655   0.917   2.986
    8PRO    HD1   79   0.545   0.909   2.971
    8PRO    HD2   80   0.681   1.019   2.952
    8PRO     CA   81   0.788   0.719   2.999
    8PRO     HA   82   0.894   0.734   3.009
    8PRO     CB   83   0.725   0.754   3.136
    8PRO    HB1   84   0.794   0.724   3.217
    8PRO    HB2   85   0.632   0.698   3.158
    8PRO     CG   86   0.697   0.904   3.130
    8PRO    HG1   87   0.618   0.929   3.204
    8PRO    HG2   88   0.779   0.973   3.158
    8PRO      C   89   0.769   0.568   2.964
    8PRO      O   90   0.814   0.485   3.046
    9ASP      N   91   0.709   0.534   2.848
    9ASP     HN   92   0.659   0.602   2.795
    9ASP     CA   93   0.714   0.398   2.788
    9ASP     HA   94   0.738   0.313   2.850
    9ASP     CB   95   0.567   0.369   2.726
    9ASP    HB1   96   0.571   0.279   2.662
    9ASP    HB2   97   0.535   0.460   2.671
    9ASP     CG   98   0.467   0.336   2.840
    9ASP    OD1   99   0.344   0.348   2.814
    9ASP    OD2  100   0.517   0.302   2.951
    9ASP      C  101   0.819   0.396   2.674
    9ASP      O  102   0.835   0.300   2.597
   10ALA      N  103   0.904   0.502   2.664
   10ALA     HN  104   0.891   0.584   2.720
   10ALA     CA  105   1.017   0.513   2.573
   10ALA     HA  106   1.048   0.418   2.531
   10ALA     CB  107   0.984   0.605   2.456
   10ALA    HB1  108   1.060   0.610   2.376
   10ALA    HB2  109   0.960   0.705   2.498
   10ALA    HB3  110   0.890   0.568   2.409
   10ALA      C  111   1.135   0.568   2.648
   10ALA      O  112   1.118   0.609   2.765
   11GLY      N  113   1.255   0.563   2.586
   11GLY     HN  114   1.249   0.532   2.492
   11GLY     CA  115   1.375   0.605   2.656
   11GLY    HA1  116   1.381   0.553   2.750
   11GLY    HA2  117   1.375   0.712   2.666
   11GLY      C  118   1.502   0.551   2.586
   11GLY    OT1  119   1.533   0.598   2.472
   11GLY    OT2  120   1.570   0.476   2.653
   12LIT    LIT  121   4.727   4.809   3.830
   13LIT    LIT  122   1.271   2.053   2.296
   14LIT    LIT  123   6.031   4.417   1.529
   15LIT    LIT  124   0.435   1.829   3.101
   16LIT    LIT  125   4.103   5.768   4.007
   17LIT    LIT  126   3.071   5.414   4.371
   18LIT    LIT  127   0.268   5.722   3.292
   19LIT    LIT  128   0.261   0.287   2.647
   20LIT    LIT  129   3.606   2.071   3.645
   21LIT    LIT  130   2.508   5.252   2.339
   22LIT    LIT  131   5.594   3.219   0.672
   23LIT    LIT  132   2.370   2.560   1.842
   24LIT    LIT  133   4.591   2.894   2.561
   25LIT    LIT  134   0.456   4.849   0.228
   26LIT    LIT  135   2.117   0.712   3.798
   27LIT    LIT  136   0.352   1.631   3.561
   28LIT    LIT  137   1.743   1.489   4.344
   29LIT    LIT  138   1.492   4.262   0.620
   30LIT    LIT  139   2.793   2.780   2.588
   31LIT    LIT  140   1.245   3.728   4.882
   32LIT    LIT  141   5.223   5.577   1.432
   33LIT    LIT  142   3.548   0.376   1.145
   34CLA    CLA  143   3.309   2.847   2.462
   35CLA    CLA  144   1.360   2.779   4.924
   36CLA    CLA  145   5.576   3.612   1.564
   37CLA    CLA  146   0.589   5.301   2.501
   38CLA    CLA  147   4.795   5.836   1.763
   39CLA    CLA  148   4.178   3.996   3.037
   40CLA    CLA  149   0.906   2.469   2.498
   41CLA    CLA  150   4.331   1.066   4.281
   42CLA    CLA  151   4.946   3.632   1.026
   43CLA    CLA  152   1.055   3.304   0.621
   44CLA    CLA  153   5.667   2.125   3.850
   45CLA    CLA  154   3.893   2.096   5.182
   46CLA    CLA  155   3.753   2.744   0.457
   47CLA    CLA  156   1.979   0.649   3.623
   48CLA    CLA  157   2.264   4.333   3.899
   49CLA    CLA  158   2.062   2.608   4.319
   50CLA    CLA  159   1.626   1.770   0.506
   51CLA    CLA  160   2.290   5.578   1.007
   52TIP3   OH2  161   5.645   0.836   1.933
   52TIP3    H1  162   5.671   0.928   1.936
   52TIP3    H2  163   5.561   0.834   1.978
   53TIP3   OH2  164   5.750   4.510   4.817
   53TIP3    H1  165   5.843   4.510   4.794
   53TIP3    H2  166   5.722   4.600   4.799
   54TIP3   OH2  167   0.326   2.228   3.630
   54TIP3    H1  168   0.231   2.225   3.642
   54TIP3    H2  169   0.362   2.239   3.718
   55TIP3   OH2  170   5.194   2.062   2.869
   55TIP3    H1  171   5.222   2.104   2.787
   55TIP3    H2  172   5.183   2.135   2.930
   56TIP3   OH2  173   5.455   5.014   2.045
   56TIP3    H1  174   5.455   5.104   2.076
   56TIP3    H2  175   5.409   5.017   1.961
   57TIP3   OH2  176   1.486   2.676   1.331
   57TIP3    H1  177   1.536   2.616   1.387
   57TIP3    H2  178   1.415   2.623   1.297
   58TIP3   OH2  179   0.905   3.448   2.828
   58TIP3    H1  180   0.946   3.478   2.746
   58TIP3    H2  181   0.895   3.528   2.880
   59TIP3   OH2  182   2.078   1.752   3.876
   59TIP3    H1  183   2.018   1.687   3.840
   59TIP3    H2  184   2.073   1.740   3.971
   60TIP3   OH2  185   2.961   4.696   2.101
   60TIP3    H1  186   2.920   4.747   2.171
   60TIP3    H2  187   2.889   4.657   2.053
   61TIP3   OH2  188   5.166   1.140   1.952
   61TIP3    H1  189   5.231   1.186   2.006
   61TIP3    H2  190   5.218   1.086   1.893
   62TIP3   OH2  191   5.080   3.211   3.249
   62TIP3    H1  192   4.986   3.226   3.239
   62TIP3    H2  193   5.088   3.123   3.286
   63TIP3   OH2  194   5.107   2.118   0.756
   63TIP3    H1  195   5.106   2.026   0.785
   63TIP3    H2  196   5.191   2.151   0.787
   64TIP3   OH2  197   5.736   0.393   0.713
   64TIP3    H1  198   5.827   0.365   0.729
   64TIP3    H2  199   5.700   0.407   0.800
   65TIP3   OH2  200   4.989   2.637   2.602
   65TIP3    H1  201   4.927   2.570   2.632
   65TIP3    H2  202   5.049   2.649   2.677
   66TIP3   OH2  203   5.966   2.279   0.936
   66TIP3    H1  204   5.898   2.302   0.872
   66TIP3    H2  205   6.024   2.219   0.889
   67TIP3   OH2  206   4.414   3.270   4.926
   67TIP3    H1  207   4.403   3.179   4.899
   67TIP3    H2  208   4.451   3.313   4.849
   68TIP3   OH2  209   1.959   4.099   0.348
   68TIP3    H1  210   1.988   4.162   0.414
   68TIP3    H2  211   2.029   4.033   0.345
   69TIP3   OH2  212   2.442   4.600   1.154
   69TIP3    H1  213   2.486   4.676   1.192
   69TIP3    H2  214   2.495   4.577   1.078
   70TIP3   OH2  215   5.833   1.422   3.697
   70TIP3    H1  216   5.764   1.481   3.729
   70TIP3    H2  217   5.797   1.385   3.616
   71TIP3   OH2  218   3.738   1.796   4.673
   71TIP3    H1  219   3.705   1.799   4.763
   71TIP3    H2  220   3.811   1.735   4.677
   72TIP3   OH2  221   4.604   2.344   0.726
   72TIP3    H1  222   4.688   2.314   0.762
   72TIP3    H2  223   4.549   2.266   0.726
   73TIP3   OH2  224   5.649   5.351   2.400
   73TIP3    H1  225   5.734   5.310   2.418
   73TIP3    H2  226   5.623   5.390   2.483
   74TIP3   OH2  227   2.340   0.883   2.156
   74TIP3    H1  228   2.434   0.894   2.140
   74TIP3    H2  229   2.298   0.925   2.081
   75TIP3   OH2  230   0.678   1.342   2.877
   75TIP3    H1  231   0.763   1.300   2.863
   75TIP3    H2  232   0.638   1.345   2.791
   76TIP3   OH2  233   2.721   2.298   3.340
   76TIP3    H1  234   2.807   2.260   3.322
   76TIP3    H2  235   2.710   2.286   3.435
   77TIP3   OH2  236   1.251   2.801   1.091
   77TIP3    H1  237   1.165   2.831   1.120
   77TIP3    H2  238   1.302   2.881   1.081
   78TIP3   OH2  239   3.717   2.406   4.477
   78TIP3    H1  240   3.704   2.501   4.479
   78TIP3    H2  241   3.798   2.392   4.526
   79TIP3   OH2  242   3.385   5.995   0.485
   79TIP3    H1  243   3.386   6.011   0.391
   79TIP3    H2  244   3.317   5.929   0.497
   80TIP3   OH2  245   0.151   0.111   0.226
   80TIP3    H1  246   0.209   0.171   0.179
   80TIP3    H2  247   0.191   0.025   0.215
   81TIP3   OH2  248   3.987   3.997   4.280
   81TIP3    H1  249   4.082   4.002   4.289
   81TIP3    H2  250   3.970   4.006   4.186
   82TIP3   OH2  251   3.525   5.750   0.785
   82TIP3    H1  252   3.587   5.681   0.761
   82TIP3    H2  253   3.571   5.832   0.766
   83TIP3   OH2  254   5.356   2.113   4.745
   83TIP3    H1  255   5.420   2.046   4.722
   83TIP3    H2  256   5.294   2.113   4.672
   84TIP3   OH2  257   3.969   2.612   3.210
   84TIP3    H1  258   3.908   2.641   3.278
   84TIP3    H2  259   4.056   2.637   3.243
   85TIP3   OH2  260   2.171   4.687   1.546
   85TIP3    H1  261   2.150   4.732   1.464
   85TIP3    H2  262   2.094   4.698   1.601
   86TIP3   OH2  263   6.151   1.735   1.785
   86TIP3    H1  264   6.077   1.790   1.813
   86TIP3    H2  265   6.186   1.781   1.709
   87TIP3   OH2  266   0.537   3.873   3.019
   87TIP3    H1  267   0.490   3.853   2.938
   87TIP3    H2  268   0.620   3.910   2.989
   88TIP3   OH2  269   2.469   0.516   2.928
   88TIP3    H1  270   2.508   0.443   2.977
   88TIP3    H2  271   2.462   0.587   2.992
   89TIP3   OH2  272   6.195   5.624   0.382
   89TIP3    H1  273   6.132   5.552   0.389
   89TIP3    H2  274   6.152   5.698   0.425
   90TIP3   OH2  275   0.029   0.038   4.216
   90TIP3    H1  276   0.115   0.008   4.242
   90TIP3    H2  277   0.014  -0.001   4.130
   91TIP3   OH2  278   6.074   3.157   1.382
   91TIP3    H1  279   6.166   3.132   1.390
   91TIP3    H2  280   6.026   3.084   1.419
   92TIP3   OH2  281   3.739   4.560   2.766
   92TIP3    H1  282   3.716   4.560   2.673
   92TIP3    H2  283   3.781   4.474   2.780
   93TIP3   OH2  284   5.528   2.417   1.482
   93TIP3    H1  285   5.522   2.456   1.394
   93TIP3    H2  286   5.568   2.484   1.536
   94TIP3   OH2  287   3.520   4.088   3.944
   94TIP3    H1  288   3.486   4.022   4.004
   94TIP3    H2  289   3.454   4.157   3.943
   95TIP3   OH2  290   4.325   0.904   3.720
   95TIP3    H1  291   4.259   0.966   3.690
   95TIP3    H2  292   4.322   0.911   3.816
   96TIP3   OH2  293   0.276   0.401   1.238
   96TIP3    H1  294   0.294   0.322   1.186
   96TIP3    H2  295   0.360   0.421   1.280
   97TIP3   OH2  296   4.817   5.440   4.820
   97TIP3    H1  297   4.765   5.388   4.882
   97TIP3    H2  298   4.805   5.396   4.736
   98TIP3   OH2  299   0.303   4.865   3.616
   98TIP3    H1  300   0.269   4.777   3.602
   98TIP3    H2  301   0.359   4.881   3.540
   99TIP3   OH2  302   5.094   3.783   1.292
   99TIP3    H1  303   5.160   3.714   1.306
   99TIP3    H2  304   5.017   3.735   1.262
  100TIP3   OH2  305   3.665   2.062   4.570
  100TIP3    H1  306   3.695   1.973   4.588
  100TIP3    H2  307   3.666   2.105   4.656
  101TIP3   OH2  308   3.593   1.506   1.271
  101TIP3    H1  309   3.646   1.583   1.247
  101TIP3    H2  310   3.581   1.459   1.188
  102TIP3   OH2  311   5.018   3.929   0.549
  102TIP3    H1  312   5.113   3.933   0.562
  102TIP3    H2  313   5.002   3.840   0.517
  103TIP3   OH2  314   3.251   5.044   3.171
  103TIP3    H1  315   3.238   5.104   3.098
  103TIP3    H2  316   3.193   4.971   3.152
  104TIP3   OH2  317   6.219   5.844   2.253
  104TIP3    H1  318   6.209   5.926   2.301
  104TIP3    H2  319   6.302   5.808   2.285
  105TIP3   OH2  320   0.586   4.671   1.620
  105TIP3    H1  321   0.503   4.654   1.574
  105TIP3    H2  322   0.618   4.584   1.644
  106TIP3   OH2  323   1.172   4.957   1.108
  106TIP3    H1  324   1.144   5.047   1.122
  106TIP3    H2  325   1.162   4.942   1.014
  107TIP3   OH2  326   3.836   4.573   4.301
  107TIP3    H1  327   3.857   4.505   4.236
  107TIP3    H2  328   3.787   4.527   4.369
  108TIP3   OH2  329   4.889   1.236   4.949
  108TIP3    H1  330   4.869   1.256   4.858
  108TIP3    H2  331   4.874   1.141   4.956
  109TIP3   OH2  332   1.597   2.827   3.583
  109TIP3    H1  333   1.591   2.922   3.576
  109TIP3    H2  334   1.653   2.811   3.659
  110TIP3   OH2  335   2.557   5.926   1.793
  110TIP3    H1  336   2.648   5.958   1.793
  110TIP3    H2  337   2.530   5.930   1.702
  111TIP3   OH2  338   4.428   4.314   3.965
  111TIP3    H1  339   4.515   4.353   3.977
  111TIP3    H2  340   4.369   4.374   4.011
  112TIP3   OH2  341   5.973   5.630   2.750
  112TIP3    H1  342   5.978   5.566   2.679
  112TIP3    H2  343   5.960   5.714   2.707
  113TIP3   OH2  344   4.617   0.507   3.745
  113TIP3    H1  345   4.667   0.502   3.664
  113TIP3    H2  346   4.622   0.419   3.782
  114TIP3   OH2  347   4.469   5.680   1.466
  114TIP3    H1  348   4.504   5.752   1.517
  114TIP3    H2  349   4.418   5.628   1.529
  115TIP3   OH2  350   5.767   2.570  -0.029
  115TIP3    H1  351   5.695   2.519   0.007
  115TIP3    H2  352   5.770   2.649   0.025
  116TIP3   OH2  353   4.702   4.018   2.585
  116TIP3    H1  354   4.703   4.012   2.680
  116TIP3    H2  355   4.614   4.049   2.564
  117TIP3   OH2  356   2.214   3.960   0.995
  117TIP3    H1  357   2.148   3.890   0.990
  117TIP3    H2  358   2.235   3.978   0.904
  118TIP3   OH2  359   3.673   4.254   2.527
  118TIP3    H1  360   3.603   4.249   2.593
  118TIP3    H2  361   3.649   4.188   2.462
  119TIP3   OH2  362   6.088   2.781   1.955
  119TIP3    H1  363   6.157   2.845   1.936
  119TIP3    H2  364   6.006   2.832   1.949
  120TIP3   OH2  365   3.839   5.195   3.617
  120TIP3    H1  366   3.924   5.152   3.606
  120TIP3    H2  367   3.806   5.206   3.527
  121TIP3   OH2  368   5.433   0.449   0.731
  121TIP3    H1  369   5.525   0.426   0.716
  121TIP3    H2  370   5.437   0.521   0.794
  122TIP3   OH2  371   0.645   3.551   1.163
  122TIP3    H1  372   0.660   3.485   1.095
  122TIP3    H2  373   0.637   3.633   1.116
  123TIP3   OH2  374   6.106   1.012   4.522
  123TIP3    H1  375   6.173   0.996   4.456
  123TIP3    H2  376   6.150   1.063   4.590
  124TIP3   OH2  377   3.948   5.030   2.724
  124TIP3    H1  378   3.868   5.050   2.772
  124TIP3    H2  379   3.933   4.944   2.686
  125TIP3   OH2  380   1.438   0.942   0.741
  125TIP3    H1  381   1.478   1.009   0.685
  125TIP3    H2  382   1.502   0.926   0.810
  126TIP3   OH2  383   3.096   2.851   1.920
  126TIP3    H1  384   3.152   2.899   1.982
  126TIP3    H2  385   3.149   2.844   1.841
  127TIP3   OH2  386   2.028   3.384   3.422
  127TIP3    H1  387   2.096   3.446   3.396
  127TIP3    H2  388   1.991   3.354   3.340
  128TIP3   OH2  389   5.388   1.986   0.561
  128TIP3    H1  390   5.476   1.974   0.525
  128TIP3    H2  391   5.329   1.966   0.488
  129TIP3   OH2  392   5.307   3.596   2.937
  129TIP3    H1  393   5.251   3.607   2.860
  129TIP3    H2  394   5.246   3.574   3.007
  130TIP3   OH2  395   5.071   2.444   1.404
  130TIP3    H1  396   5.067   2.396   1.321
  130TIP3    H2  397   5.003   2.404   1.458
  131TIP3   OH2  398   3.295   2.025   0.570
  131TIP3    H1  399   3.253   2.020   0.656
  131TIP3    H2  400   3.311   1.933   0.545
  132TIP3   OH2  401   4.515   1.008   0.725
  132TIP3    H1  402   4.481   1.096   0.709
  132TIP3    H2  403   4.451   0.967   0.783
  133TIP3   OH2  404   2.933   2.736   0.655
  133TIP3    H1  405   2.999   2.701   0.714
  133TIP3    H2  406   2.983   2.776   0.584
  134TIP3   OH2  407   4.532   0.741   3.050
  134TIP3    H1  408   4.523   0.759   3.143
  134TIP3    H2  409   4.548   0.826   3.010
  135TIP3   OH2  410   2.884   2.292   2.929
  135TIP3    H1  411   2.838   2.245   2.859
  135TIP3    H2  412   2.857   2.383   2.918
  136TIP3   OH2  413   1.945   0.047   0.328
  136TIP3    H1  414   1.930  -0.016   0.399
  136TIP3    H2  415   2.036   0.073   0.337
  137TIP3   OH2  416   2.244   3.407   3.724
  137TIP3    H1  417   2.278   3.496   3.708
  137TIP3    H2  418   2.213   3.378   3.639
  138TIP3   OH2  419   4.837   1.373   4.711
  138TIP3    H1  420   4.750   1.406   4.690
  138TIP3    H2  421   4.876   1.354   4.626
  139TIP3   OH2  422   3.455   4.344   0.210
  139TIP3    H1  423   3.435   4.267   0.157
  139TIP3    H2  424   3.422   4.418   0.159
  140TIP3   OH2  425   0.276   1.181   2.592
  140TIP3    H1  426   0.263   1.208   2.682
  140TIP3    H2  427   0.290   1.263   2.544
  141TIP3   OH2  428   3.501   5.024   0.650
  141TIP3    H1  429   3.534   5.111   0.670
  141TIP3    H2  430   3.406   5.034   0.644
  142TIP3   OH2  431   3.354   1.710   3.512
  142TIP3    H1  432   3.425   1.667   3.560
  142TIP3    H2  433   3.335   1.789   3.563
  143TIP3   OH2  434   5.924   0.776   2.232
  143TIP3    H1  435   5.936   0.867   2.202
  143TIP3    H2  436   5.879   0.784   2.316
  144TIP3   OH2  437   4.091   4.797   1.644
  144TIP3    H1  438   4.015   4.764   1.596
  144TIP3    H2  439   4.054   4.838   1.722
  145TIP3   OH2  440   0.097   4.356   2.834
  145TIP3    H1  441   0.187   4.323   2.846
  145TIP3    H2  442   0.076   4.333   2.743
  146TIP3   OH2  443   4.366   4.434   2.595
  146TIP3    H1  444   4.444   4.435   2.540
  146TIP3    H2  445   4.294   4.420   2.534
  147TIP3   OH2  446   5.381   2.810   1.710
  147TIP3    H1  447   5.418   2.841   1.627
  147TIP3    H2  448   5.429   2.730   1.729
  148TIP3   OH2  449   1.805   1.360   1.910
  148TIP3    H1  450   1.825   1.318   1.994
  148TIP3    H2  451   1.835   1.297   1.844
  149TIP3   OH2  452   5.553   5.334   3.154
  149TIP3    H1  453   5.571   5.403   3.218
  149TIP3    H2  454   5.580   5.372   3.070
  150TIP3   OH2  455   5.301   0.079   4.835
  150TIP3    H1  456   5.256   0.061   4.917
  150TIP3    H2  457   5.346  -0.004   4.814
  151TIP3   OH2  458   4.434   1.904   3.075
  151TIP3    H1  459   4.463   1.982   3.123
  151TIP3    H2  460   4.501   1.838   3.093
  152TIP3   OH2  461   2.451   4.387   3.663
  152TIP3    H1  462   2.502   4.462   3.693
  152TIP3    H2  463   2.397   4.363   3.739
  153TIP3   OH2  464   1.739   5.485   4.190
  153TIP3    H1  465   1.789   5.463   4.269
  153TIP3    H2  466   1.803   5.526   4.132
  154TIP3   OH2  467   6.049   3.566   4.521
  154TIP3    H1  468   6.058   3.630   4.591
  154TIP3    H2  469   5.980   3.507   4.552
  155TIP3   OH2  470   1.763   4.237   5.135
  155TIP3    H1  471   1.754   4.240   5.230
  155TIP3    H2  472   1.704   4.167   5.108
  156TIP3   OH2  473   4.371   1.284   3.533
  156TIP3    H1  474   4.289   1.238   3.515
  156TIP3    H2  475   4.344   1.375   3.549
  157TIP3   OH2  476   4.033   4.827   5.094
  157TIP3    H1  477   3.940   4.823   5.119
  157TIP3    H2  478   4.072   4.887   5.158
  158TIP3   OH2  479   6.159   4.986   2.659
  158TIP3    H1  480   6.254   4.999   2.661
  158TIP3    H2  481   6.123   5.073   2.643
  159TIP3   OH2  482   1.615   2.574   0.328
  159TIP3    H1  483   1.530   2.618   0.316
  159TIP3    H2  484   1.600   2.512   0.398
  160TIP3   OH2  485   4.170   0.280   2.415
  160TIP3    H1  486   4.081   0.295   2.447
  160TIP3    H2  487   4.160   0.216   2.345
  161TIP3   OH2  488   3.600   0.262   4.468
  161TIP3    H1  489   3.528   0.262   4.531
  161TIP3    H2  490   3.645   0.178   4.484
  162TIP3   OH2  491   2.922   0.308   1.286
  162TIP3    H1  492   2.949   0.228   1.241
  162TIP3    H2  493   2.830   0.293   1.308
  163TIP3   OH2  494   4.481   5.958   4.431
  163TIP3    H1  495   4.395   5.916   4.429
  163TIP3    H2  496   4.539   5.895   4.387
  164TIP3   OH2  497   0.378   1.075   3.339
  164TIP3    H1  498   0.467   1.108   3.335
  164TIP3    H2  499   0.386   0.986   3.374
  165TIP3   OH2  500   5.029   0.986   2.633
  165TIP3    H1  501   5.030   1.022   2.722
  165TIP3    H2  502   5.041   0.892   2.646
  166TIP3   OH2  503   5.825   4.775   0.331
  166TIP3    H1  504   5.819   4.684   0.361
  166TIP3    H2  505   5.758   4.782   0.263
  167TIP3   OH2  506   3.495   5.969   0.096
  167TIP3    H1  507   3.460   6.026   0.164
  167TIP3    H2  508   3.575   6.013   0.065
  168TIP3   OH2  509   4.547   3.673   4.684
  168TIP3    H1  510   4.497   3.609   4.735
  168TIP3    H2  511   4.514   3.663   4.595
  169TIP3   OH2  512   5.037   3.461   0.699
  169TIP3    H1  513   4.993   3.547   0.695
  169TIP3    H2  514   5.037   3.430   0.609
  170TIP3   OH2  515   4.129   4.897   4.856
  170TIP3    H1  516   4.073   4.966   4.822
  170TIP3    H2  517   4.084   4.867   4.935
  171TIP3   OH2  518   0.585   2.579   4.483
  171TIP3    H1  519   0.585   2.530   4.400
  171TIP3    H2  520   0.652   2.646   4.471
  172TIP3   OH2  521   2.794   0.809   1.040
  172TIP3    H1  522   2.769   0.765   0.959
  172TIP3    H2  523   2.761   0.752   1.109
  173TIP3   OH2  524   4.388   1.302   0.630
  173TIP3    H1  525   4.441   1.381   0.629
  173TIP3    H2  526   4.339   1.304   0.548
  174TIP3   OH2  527   5.867   0.225   4.573
  174TIP3    H1  528   5.868   0.295   4.639
  174TIP3    H2  529   5.959   0.217   4.545
  175TIP3   OH2  530   3.172   0.262   3.798
  175TIP3    H1  531   3.113   0.188   3.814
  175TIP3    H2  532   3.131   0.309   3.725
  176TIP3   OH2  533   2.389   0.807   0.996
  176TIP3    H1  534   2.385   0.902   0.991
  176TIP3    H2  535   2.369   0.786   1.087
  177TIP3   OH2  536   3.318   4.174   3.352
  177TIP3    H1  537   3.252   4.237   3.322
  177TIP3    H2  538   3.402   4.219   3.340
  178TIP3   OH2  539   1.900   4.259   2.184
  178TIP3    H1  540   1.945   4.341   2.205
  178TIP3    H2  541   1.951   4.192   2.230
  179TIP3   OH2  542   4.197   1.721   1.137
  179TIP3    H1  543   4.251   1.787   1.181
  179TIP3    H2  544   4.133   1.694   1.202
  180TIP3   OH2  545   0.617   1.517   4.230
  180TIP3    H1  546   0.536   1.469   4.246
  180TIP3    H2  547   0.686   1.453   4.244
  181TIP3   OH2  548   5.960   4.964   2.857
  181TIP3    H1  549   6.028   4.934   2.797
  181TIP3    H2  550   5.955   5.059   2.842
  182TIP3   OH2  551   4.855   4.479   0.872
  182TIP3    H1  552   4.817   4.437   0.949
  182TIP3    H2  553   4.900   4.556   0.908
  183TIP3   OH2  554   5.873   0.321   1.722
  183TIP3    H1  555   5.848   0.243   1.672
  183TIP3    H2  556   5.799   0.336   1.781
  184TIP3   OH2  557   2.665   1.318   2.619
  184TIP3    H1  558   2.576   1.304   2.652
  184TIP3    H2  559   2.712   1.355   2.694
  185TIP3   OH2  560   1.935   0.785   2.916
  185TIP3    H1  561   1.887   0.751   2.841
  185TIP3    H2  562   1.908   0.876   2.924
  186TIP3   OH2  563   0.546   1.535   0.116
  186TIP3    H1  564   0.451   1.537   0.104
  186TIP3    H2  565   0.578   1.481   0.043
  187TIP3   OH2  566   5.143   0.241   1.559
  187TIP3    H1  567   5.213   0.177   1.548
  187TIP3    H2  568   5.187   0.326   1.558
  188TIP3   OH2  569   1.228   1.180   5.215
  188TIP3    H1  570   1.162   1.123   5.177
  188TIP3    H2  571   1.234   1.255   5.156
  189TIP3   OH2  572   6.306   5.125   0.138
  189TIP3    H1  573   6.353   5.203   0.170
  189TIP3    H2  574   6.225   5.159   0.101
  190TIP3   OH2  575   3.639   2.395   1.817
  190TIP3    H1  576   3.649   2.304   1.845
  190TIP3    H2  577   3.649   2.446   1.898
  191TIP3   OH2  578   0.593   4.571   4.449
  191TIP3    H1  579   0.644   4.491   4.434
  191TIP3    H2  580   0.638   4.614   4.522
  192TIP3   OH2  581   5.131   3.071   0.789
  192TIP3    H1  582   5.130   3.056   0.884
  192TIP3    H2  583   5.096   3.159   0.778
  193TIP3   OH2  584   4.561   4.920   3.384
  193TIP3    H1  585   4.510   4.843   3.407
  193TIP3    H2  586   4.606   4.897   3.303
  194TIP3   OH2  587   2.254   2.863   3.039
  194TIP3    H1  588   2.170   2.910   3.037
  194TIP3    H2  589   2.279   2.865   3.132
  195TIP3   OH2  590   4.526   0.078   1.312
  195TIP3    H1  591   4.608   0.107   1.273
  195TIP3    H2  592   4.459   0.099   1.246
  196TIP3   OH2  593   1.293   2.818   1.899
  196TIP3    H1  594   1.273   2.836   1.808
  196TIP3    H2  595   1.240   2.741   1.921
  197TIP3   OH2  596   1.027   1.739   1.116
  197TIP3    H1  597   1.092   1.731   1.186
  197TIP3    H2  598   1.056   1.677   1.049
  198TIP3   OH2  599   3.173   2.383   4.202
  198TIP3    H1  600   3.086   2.394   4.164
  198TIP3    H2  601   3.159   2.385   4.296
  199TIP3   OH2  602   5.657   3.895   3.700
  199TIP3    H1  603   5.572   3.932   3.678
  199TIP3    H2  604   5.709   3.968   3.732
  200TIP3   OH2  605   4.059   5.623   2.780
  200TIP3    H1  606   4.088   5.543   2.825
  200TIP3    H2  607   4.123   5.636   2.710
  201TIP3   OH2  608   5.277   4.669   5.010
  201TIP3    H1  609   5.228   4.612   5.069
  201TIP3    H2  610   5.332   4.722   5.067
  202TIP3   OH2  611   1.526   3.906   2.118
  202TIP3    H1  612   1.460   3.908   2.049
  202TIP3    H2  613   1.601   3.953   2.081
  203TIP3   OH2  614   0.041   4.416   4.566
  203TIP3    H1  615   0.040   4.476   4.492
  203TIP3    H2  616   0.048   4.472   4.643
  204TIP3   OH2  617   2.525   2.755   0.754
  204TIP3    H1  618   2.542   2.810   0.830
  204TIP3    H2  619   2.484   2.676   0.789
  205TIP3   OH2  620   2.001   0.365   1.388
  205TIP3    H1  621   2.057   0.289   1.372
  205TIP3    H2  622   1.949   0.339   1.464
  206TIP3   OH2  623   2.991   3.108   3.966
  206TIP3    H1  624   2.939   3.127   4.045
  206TIP3    H2  625   3.056   3.179   3.963
  207TIP3   OH2  626   6.332   4.477   3.697
  207TIP3    H1  627   6.336   4.391   3.739
  207TIP3    H2  628   6.239   4.492   3.682
  208TIP3   OH2  629   6.220   1.097   1.887
  208TIP3    H1  630   6.302   1.068   1.849
  208TIP3    H2  631   6.159   1.024   1.870
  209TIP3   OH2  632   0.232   4.143   1.510
  209TIP3    H1  633   0.190   4.130   1.425
  209TIP3    H2  634   0.160   4.151   1.572
  210TIP3   OH2  635   2.059   1.189   1.781
  210TIP3    H1  636   2.085   1.149   1.864
  210TIP3    H2  637   2.081   1.281   1.791
  211TIP3   OH2  638   2.942   0.911   5.096
  211TIP3    H1  639   2.920   0.931   5.006
  211TIP3    H2  640   2.942   0.996   5.141
  212TIP3   OH2  641   1.491   0.314   1.277
  212TIP3    H1  642   1.431   0.335   1.349
  212TIP3    H2  643   1.494   0.394   1.225
  213TIP3   OH2  644   3.147   2.255   4.888
  213TIP3    H1  645   3.185   2.323   4.944
  213TIP3    H2  646   3.089   2.205   4.946
  214TIP3   OH2  647   4.428   4.649   3.485
  214TIP3    H1  648   4.364   4.583   3.513
  214TIP3    H2  649   4.510   4.620   3.524
  215TIP3   OH2  650   0.810   3.073   0.432
  215TIP3    H1  651   0.886   3.088   0.376
  215TIP3    H2  652   0.847   3.041   0.514
  216TIP3   OH2  653   0.569   3.971   1.820
  216TIP3    H1  654   0.575   4.026   1.898
  216TIP3    H2  655   0.475   3.952   1.812
  217TIP3   OH2  656   4.573   1.703   1.474
  217TIP3    H1  657   4.510   1.663   1.535
  217TIP3    H2  658   4.583   1.639   1.404
  218TIP3   OH2  659   4.499   3.384   4.057
  218TIP3    H1  660   4.568   3.326   4.089
  218TIP3    H2  661   4.539   3.431   3.983
  219TIP3   OH2  662   0.243   1.130   4.438
  219TIP3    H1  663   0.191   1.121   4.518
  219TIP3    H2  664   0.185   1.172   4.376
  220TIP3   OH2  665   0.035   0.877   2.460
  220TIP3    H1  666   0.091   0.826   2.402
  220TIP3    H2  667   0.069   0.859   2.548
  221TIP3   OH2  668   3.425   0.580   3.631
  221TIP3    H1  669   3.386   0.526   3.563
  221TIP3    H2  670   3.350   0.615   3.680
  222TIP3   OH2  671   4.758   4.680   0.031
  222TIP3    H1  672   4.705   4.613   0.076
  222TIP3    H2  673   4.786   4.739   0.101
  223TIP3   OH2  674   4.412   1.899   1.294
  223TIP3    H1  675   4.352   1.936   1.359
  223TIP3    H2  676   4.477   1.852   1.346
  224TIP3   OH2  677   3.284   3.220   3.166
  224TIP3    H1  678   3.300   3.308   3.131
  224TIP3    H2  679   3.193   3.221   3.193
  225TIP3   OH2  680   2.080   4.799   2.687
  225TIP3    H1  681   2.007   4.807   2.749
  225TIP3    H2  682   2.099   4.889   2.661
  226TIP3   OH2  683   4.401   2.227   3.171
  226TIP3    H1  684   4.484   2.229   3.123
  226TIP3    H2  685   4.356   2.307   3.145
  227TIP3   OH2  686   5.025   3.042   4.006
  227TIP3    H1  687   5.063   3.037   4.094
  227TIP3    H2  688   5.057   3.125   3.971
  228TIP3   OH2  689   5.008   2.807   4.256
  228TIP3    H1  690   5.079   2.826   4.194
  228TIP3    H2  691   5.053   2.782   4.337
  229TIP3   OH2  692   1.626   0.655   0.954
  229TIP3    H1  693   1.659   0.636   1.042
  229TIP3    H2  694   1.627   0.570   0.910
  230TIP3   OH2  695   6.214   4.665   0.414
  230TIP3    H1  696   6.137   4.632   0.368
  230TIP3    H2  697   6.248   4.733   0.357
  231TIP3   OH2  698   3.791   4.338   0.893
  231TIP3    H1  699   3.834   4.413   0.936
  231TIP3    H2  700   3.823   4.342   0.802
  232TIP3   OH2  701   3.825   4.832   3.850
  232TIP3    H1  702   3.916   4.807   3.840
  232TIP3    H2  703   3.791   4.774   3.919
  233TIP3   OH2  704   5.065   2.705   3.514
  233TIP3    H1  705   5.129   2.639   3.540
  233TIP3    H2  706   5.008   2.713   3.591
  234TIP3   OH2  707   4.391   0.345   2.840
  234TIP3    H1  708   4.345   0.426   2.862
  234TIP3    H2  709   4.408   0.351   2.746
  235TIP3   OH2  710   3.945   0.178   3.164
  235TIP3    H1  711   3.991   0.261   3.175
  235TIP3    H2  712   3.986   0.119   3.227
  236TIP3   OH2  713   2.985   4.565   3.695
  236TIP3    H1  714   2.914   4.582   3.633
  236TIP3    H2  715   2.956   4.488   3.744
  237TIP3   OH2  716   4.463   2.931   4.068
  237TIP3    H1  717   4.385   2.876   4.063
  237TIP3    H2  718   4.515   2.905   3.992
  238TIP3   OH2  719   4.191   4.531   2.049
  238TIP3    H1  720   4.201   4.441   2.015
  238TIP3    H2  721   4.277   4.551   2.088
  239TIP3   OH2  722   3.501   4.958   4.977
  239TIP3    H1  723   3.570   4.894   4.961
  239TIP3    H2  724   3.526   5.000   5.059
  240TIP3   OH2  725   2.566   0.842   1.582
  240TIP3    H1  726   2.557   0.780   1.654
  240TIP3    H2  727   2.481   0.841   1.538
  241TIP3   OH2  728   1.016   0.314   2.953
  241TIP3    H1  729   1.074   0.389   2.966
  241TIP3    H2  730   0.931   0.344   2.985
  242TIP3   OH2  731   0.815   1.872   0.105
  242TIP3    H1  732   0.846   1.867   0.014
  242TIP3    H2  733   0.817   1.782   0.136
  243TIP3   OH2  734   4.127   4.646   3.676
  243TIP3    H1  735   4.188   4.635   3.748
  243TIP3    H2  736   4.164   4.593   3.605
  244TIP3   OH2  737   2.499   0.728   3.136
  244TIP3    H1  738   2.467   0.791   3.071
  244TIP3    H2  739   2.525   0.782   3.211
  245TIP3   OH2  740   5.061   5.736   5.063
  245TIP3    H1  741   5.058   5.641   5.061
  245TIP3    H2  742   4.974   5.763   5.032
  246TIP3   OH2  743   2.321   0.972   4.985
  246TIP3    H1  744   2.416   0.965   4.983
  246TIP3    H2  745   2.293   0.900   5.042
  247TIP3   OH2  746   1.346   1.081   0.963
  247TIP3    H1  747   1.354   1.001   1.015
  247TIP3    H2  748   1.320   1.050   0.876
  248TIP3   OH2  749   1.864   4.193   3.140
  248TIP3    H1  750   1.826   4.137   3.073
  248TIP3    H2  751   1.790   4.241   3.177
  249TIP3   OH2  752   1.268   3.217   0.073
  249TIP3    H1  753   1.319   3.229   0.153
  249TIP3    H2  754   1.203   3.288   0.074
  250TIP3   OH2  755   1.437   4.468   3.870
  250TIP3    H1  756   1.484   4.526   3.929
  250TIP3    H2  757   1.490   4.387   3.868
  251TIP3   OH2  758   0.837   2.353   4.580
  251TIP3    H1  759   0.752   2.322   4.612
  251TIP3    H2  760   0.841   2.445   4.608
  252TIP3   OH2  761   6.075   1.561   3.719
  252TIP3    H1  762   6.020   1.483   3.726
  252TIP3    H2  763   6.020   1.633   3.749
  253TIP3   OH2  764   4.592   2.402   1.839
  253TIP3    H1  765   4.610   2.447   1.757
  253TIP3    H2  766   4.541   2.325   1.815
  254TIP3   OH2  767   0.792   4.215   1.575
  254TIP3    H1  768   0.815   4.289   1.519
  254TIP3    H2  769   0.802   4.138   1.520
  255TIP3   OH2  770   2.800   2.080   3.110
  255TIP3    H1  771   2.862   2.021   3.067
  255TIP3    H2  772   2.822   2.167   3.077
  256TIP3   OH2  773   5.549   5.049   4.512
  256TIP3    H1  774   5.496   5.065   4.589
  256TIP3    H2  775   5.500   5.089   4.440
  257TIP3   OH2  776   1.015   3.052   2.656
  257TIP3    H1  777   1.073   3.109   2.606
  257TIP3    H2  778   0.991   2.983   2.594
  258TIP3   OH2  779   3.231   5.063   4.055
  258TIP3    H1  780   3.221   5.018   3.971
  258TIP3    H2  781   3.323   5.088   4.057
  259TIP3   OH2  782   0.975   4.203   2.655
  259TIP3    H1  783   1.010   4.238   2.572
  259TIP3    H2  784   0.880   4.201   2.642
  260TIP3   OH2  785   0.767   0.489   0.934
  260TIP3    H1  786   0.785   0.560   0.996
  260TIP3    H2  787   0.754   0.533   0.850
  261TIP3   OH2  788   3.955   4.457   4.076
  261TIP3    H1  789   3.903   4.378   4.058
  261TIP3    H2  790   3.960   4.501   3.991
  262TIP3   OH2  791   6.217   0.626   1.914
  262TIP3    H1  792   6.152   0.696   1.925
  262TIP3    H2  793   6.195   0.563   1.983
  263TIP3   OH2  794   2.352   0.248   4.989
  263TIP3    H1  795   2.325   0.203   4.909
  263TIP3    H2  796   2.446   0.233   4.995
  264TIP3   OH2  797   0.951   1.215   5.091
  264TIP3    H1  798   0.963   1.126   5.127
  264TIP3    H2  799   0.859   1.219   5.067
  265TIP3   OH2  800   3.070   2.505   1.624
  265TIP3    H1  801   3.099   2.461   1.544
  265TIP3    H2  802   3.026   2.584   1.592
  266TIP3   OH2  803   3.976   3.695   2.276
  266TIP3    H1  804   4.010   3.713   2.364
  266TIP3    H2  805   3.883   3.719   2.281
  267TIP3   OH2  806   6.352   0.578   2.553
  267TIP3    H1  807   6.372   0.560   2.645
  267TIP3    H2  808   6.275   0.633   2.555
  268TIP3   OH2  809   4.694   0.140   3.702
  268TIP3    H1  810   4.736   0.088   3.634
  268TIP3    H2  811   4.601   0.141   3.677
  269TIP3   OH2  812   1.825   3.163   0.206
  269TIP3    H1  813   1.838   3.159   0.111
  269TIP3    H2  814   1.909   3.135   0.242
  270TIP3   OH2  815   2.436   4.380   2.599
  270TIP3    H1  816   2.347   4.347   2.588
  270TIP3    H2  817   2.425   4.465   2.640
  271TIP3   OH2  818   5.511   2.343   4.709
  271TIP3    H1  819   5.464   2.260   4.717
  271TIP3    H2  820   5.472   2.399   4.776
  272TIP3   OH2  821   6.174   1.222   4.750
  272TIP3    H1  822   6.197   1.311   4.724
  272TIP3    H2  823   6.244   1.196   4.810
  273TIP3   OH2  824   1.353   1.143   3.789
  273TIP3    H1  825   1.355   1.061   3.740
  273TIP3    H2  826   1.399   1.123   3.871
  274TIP3   OH2  827   0.431   0.162   1.305
  274TIP3    H1  828   0.409   0.237   1.360
  274TIP3    H2  829   0.480   0.104   1.363
  275TIP3   OH2  830   4.221   2.649   3.335
  275TIP3    H1  831   4.261   2.731   3.305
  275TIP3    H2  832   4.236   2.649   3.430
  276TIP3   OH2  833   5.213   5.988   4.288
  276TIP3    H1  834   5.282   5.923   4.302
  276TIP3    H2  835   5.247   6.068   4.327
  277TIP3   OH2  836   1.601   0.646   3.469
  277TIP3    H1  837   1.670   0.712   3.478
  277TIP3    H2  838   1.597   0.629   3.375
  278TIP3   OH2  839   2.440   0.680   3.582
  278TIP3    H1  840   2.535   0.674   3.574
  278TIP3    H2  841   2.407   0.651   3.497
  279TIP3   OH2  842   4.002   1.925   3.100
  279TIP3    H1  843   4.061   1.885   3.035
  279TIP3    H2  844   4.044   2.008   3.122
  280TIP3   OH2  845   0.589   2.054   1.665
  280TIP3    H1  846   0.651   2.033   1.735
  280TIP3    H2  847   0.605   1.988   1.597
  281TIP3   OH2  848   3.402   5.248   2.053
  281TIP3    H1  849   3.471   5.255   2.119
  281TIP3    H2  850   3.357   5.333   2.056
  282TIP3   OH2  851   0.810   3.572   1.739
  282TIP3    H1  852   0.890   3.538   1.779
  282TIP3    H2  853   0.820   3.551   1.646
  283TIP3   OH2  854   5.497   4.353   1.036
  283TIP3    H1  855   5.438   4.277   1.040
  283TIP3    H2  856   5.488   4.394   1.122
  284TIP3   OH2  857   1.569   5.267   2.227
  284TIP3    H1  858   1.648   5.309   2.194
  284TIP3    H2  859   1.578   5.270   2.322
  285TIP3   OH2  860   5.793   1.728   2.020
  285TIP3    H1  861   5.866   1.683   1.977
  285TIP3    H2  862   5.739   1.760   1.948
  286TIP3   OH2  863   0.632   5.256   0.833
  286TIP3    H1  864   0.586   5.255   0.917
  286TIP3    H2  865   0.641   5.349   0.812
  287TIP3   OH2  866   3.186   0.728   0.637
  287TIP3    H1  867   3.236   0.735   0.556
  287TIP3    H2  868   3.251   0.740   0.706
  288TIP3   OH2  869   2.092   3.081   0.433
  288TIP3    H1  870   2.070   3.162   0.480
  288TIP3    H2  871   2.099   3.015   0.501
  289TIP3   OH2  872   1.501   0.974   3.414
  289TIP3    H1  873   1.459   0.947   3.495
  289TIP3    H2  874   1.524   0.892   3.370
  290TIP3   OH2  875   1.337   1.598   2.070
  290TIP3    H1  876   1.323   1.604   2.164
  290TIP3    H2  877   1.420   1.644   2.055
  291TIP3   OH2  878   1.559   3.708   1.401
  291TIP3    H1  879   1.526   3.628   1.441
  291TIP3    H2  880   1.621   3.743   1.465
  292TIP3   OH2  881   0.726   1.438   0.986
  292TIP3    H1  882   0.747   1.424   1.078
  292TIP3    H2  883   0.788   1.382   0.939
  293TIP3   OH2  884   4.495   4.549   4.772
  293TIP3    H1  885   4.418   4.603   4.790
  293TIP3    H2  886   4.554   4.565   4.847
  294TIP3   OH2  887   0.014   1.231   2.991
  294TIP3    H1  888   0.091   1.223   2.935
  294TIP3    H2  889   0.040   1.188   3.073
  295TIP3   OH2  890   2.059   1.637   1.542
  295TIP3    H1  891   2.040   1.670   1.630
  295TIP3    H2  892   1.990   1.672   1.487
  296TIP3   OH2  893   0.732   2.127   3.982
  296TIP3    H1  894   0.699   2.192   4.044
  296TIP3    H2  895   0.772   2.059   4.037
  297TIP3   OH2  896   2.543   4.034   3.259
  297TIP3    H1  897   2.585   3.973   3.320
  297TIP3    H2  898   2.451   4.034   3.286
  298TIP3   OH2  899   2.652   3.876   0.067
  298TIP3    H1  900   2.748   3.867   0.061
  298TIP3    H2  901   2.628   3.822   0.142
  299TIP3   OH2  902   1.671   2.175   2.115
  299TIP3    H1  903   1.670   2.096   2.170
  299TIP3    H2  904   1.627   2.241   2.168
  300TIP3   OH2  905   2.061   5.007   4.105
  300TIP3    H1  906   2.100   4.926   4.072
  300TIP3    H2  907   2.029   5.052   4.027
  301TIP3   OH2  908   0.296   4.178   3.587
  301TIP3    H1  909   0.336   4.140   3.509
  301TIP3    H2  910   0.202   4.173   3.572
  302TIP3   OH2  911   4.802   4.096   0.577
  302TIP3    H1  912   4.865   4.025   0.587
  302TIP3    H2  913   4.833   4.164   0.637
  303TIP3   OH2  914   2.411   0.661   4.163
  303TIP3    H1  915   2.329   0.627   4.197
  303TIP3    H2  916   2.397   0.756   4.155
  304TIP3   OH2  917   6.249   2.369   4.607
  304TIP3    H1  918   6.217   2.457   4.591
  304TIP3    H2  919   6.344   2.379   4.619
  305TIP3   OH2  920   0.119   5.486   2.663
  305TIP3    H1  921   0.188   5.459   2.602
  305TIP3    H2  922   0.156   5.564   2.706
  306TIP3   OH2  923   2.377   1.891   2.237
  306TIP3    H1  924   2.407   1.801   2.247
  306TIP3    H2  925   2.286   1.883   2.209
  307TIP3   OH2  926   2.098   2.998   3.973
  307TIP3    H1  927   2.059   2.925   4.022
  307TIP3    H2  928   2.044   3.005   3.894
  308TIP3   OH2  929   0.729   1.815   0.526
  308TIP3    H1  930   0.797   1.802   0.460
  308TIP3    H2  931   0.656   1.760   0.496
  309TIP3   OH2  932   5.748   0.238   4.083
  309TIP3    H1  933   5.738   0.169   4.018
  309TIP3    H2  934   5.775   0.193   4.163
  310TIP3   OH2  935   6.133   3.975   3.890
  310TIP3    H1  936   6.177   4.049   3.930
  310TIP3    H2  937   6.160   3.899   3.942
  311TIP3   OH2  938   3.532   3.573   3.736
  311TIP3    H1  939   3.509   3.622   3.657
  311TIP3    H2  940   3.619   3.536   3.716
  312TIP3   OH2  941   5.687   1.059   0.449
  312TIP3    H1  942   5.736   1.134   0.481
  312TIP3    H2  943   5.596   1.088   0.448
  313TIP3   OH2  944   6.248   3.583   1.989
  313TIP3    H1  945   6.159   3.549   1.974
  313TIP3    H2  946   6.300   3.546   1.918
  314TIP3   OH2  947   2.172   4.736   4.525
  314TIP3    H1  948   2.103   4.730   4.590
  314TIP3    H2  949   2.187   4.645   4.497
  315TIP3   OH2  950   3.446   5.469   4.005
  315TIP3    H1  951   3.509   5.419   3.954
  315TIP3    H2  952   3.499   5.519   4.067
  316TIP3   OH2  953   5.845   0.771   3.080
  316TIP3    H1  954   5.756   0.752   3.110
  316TIP3    H2  955   5.839   0.860   3.044
  317TIP3   OH2  956   0.859   4.125   1.834
  317TIP3    H1  957   0.845   4.194   1.769
  317TIP3    H2  958   0.796   4.057   1.810
  318TIP3   OH2  959   6.230   5.927   3.754
  318TIP3    H1  960   6.215   5.858   3.819
  318TIP3    H2  961   6.146   5.971   3.745
  319TIP3   OH2  962   4.969   0.192   3.991
  319TIP3    H1  963   4.894   0.134   4.007
  319TIP3    H2  964   5.003   0.212   4.078
  320TIP3   OH2  965   1.972   4.586   4.650
  320TIP3    H1  966   1.976   4.564   4.557
  320TIP3    H2  967   1.900   4.648   4.657
  321TIP3   OH2  968   1.664   1.184   0.852
  321TIP3    H1  969   1.687   1.195   0.760
  321TIP3    H2  970   1.660   1.089   0.865
  322TIP3   OH2  971   5.753   2.998   0.106
  322TIP3    H1  972   5.687   2.964   0.165
  322TIP3    H2  973   5.728   3.089   0.091
  323TIP3   OH2  974   2.845   3.040   1.173
  323TIP3    H1  975   2.884   3.044   1.086
  323TIP3    H2  976   2.890   3.109   1.223
  324TIP3   OH2  977   3.898   1.590   4.810
  324TIP3    H1  978   3.903   1.613   4.903
  324TIP3    H2  979   3.989   1.581   4.783
  325TIP3   OH2  980   1.745   5.559   0.081
  325TIP3    H1  981   1.726   5.563   0.175
  325TIP3    H2  982   1.820   5.500   0.074
  326TIP3   OH2  983   6.327   2.189   1.892
  326TIP3    H1  984   6.419   2.216   1.890
  326TIP3    H2  985   6.290   2.225   1.812
  327TIP3   OH2  986   4.592   2.093   0.322
  327TIP3    H1  987   4.530   2.147   0.273
  327TIP3    H2  988   4.657   2.155   0.355
  328TIP3   OH2  989   5.069   3.691   2.070
  328TIP3    H1  990   4.983   3.675   2.110
  328TIP3    H2  991   5.099   3.604   2.044
  329TIP3   OH2  992   5.335   5.164   4.654
  329TIP3    H1  993   5.345   5.150   4.748
  329TIP3    H2  994   5.246   5.133   4.635
  330TIP3   OH2  995   6.088   0.377   4.850
  330TIP3    H1  996   6.012   0.423   4.815
  330TIP3    H2  997   6.133   0.441   4.905
  331TIP3   OH2  998   6.217   4.418   1.599
  331TIP3    H1  999   6.270   4.346   1.632
  331TIP3    H2 1000   6.268   4.454   1.527
  332TIP3   OH2 1001   5.613   3.930   0.314
  332TIP3    H1 1002   5.615   3.877   0.394
  332TIP3    H2 1003   5.520   3.941   0.295
  333TIP3   OH2 1004   4.701   4.690   0.320
  333TIP3    H1 1005   4.646   4.618   0.290
  333TIP3    H2 1006   4.652   4.727   0.394
  334TIP3   OH2 1007   4.855   0.217   0.632
  334TIP3    H1 1008   4.921   0.214   0.701
  334TIP3    H2 1009   4.871   0.138   0.579
  335TIP3   OH2 1010   4.412   5.416   0.594
  335TIP3    H1 1011   4.485   5.449   0.647
  335TIP3    H2 1012   4.335   5.425   0.650
  336TIP3   OH2 1013   0.928   2.740   2.760
  336TIP3    H1 1014   0.984   2.733   2.837
  336TIP3    H2 1015   0.856   2.797   2.788
  337TIP3   OH2 1016  -0.016   1.084   1.078
  337TIP3    H1 1017  -0.018   0.989   1.092
  337TIP3    H2 1018   0.056   1.097   1.016
  338TIP3   OH2 1019   5.869   4.080   4.556
  338TIP3    H1 1020   5.899   4.147   4.494
  338TIP3    H2 1021   5.949   4.051   4.600
  339TIP3   OH2 1022   2.432   3.717   3.730
  339TIP3    H1 1023   2.527   3.720   3.723
  339TIP3    H2 1024   2.415   3.692   3.820
  340TIP3   OH2 1025   3.478   1.274   4.650
  340TIP3    H1 1026   3.526   1.260   4.732
  340TIP3    H2 1027   3.491   1.194   4.600
  341TIP3   OH2 1028   3.700   3.006   0.118
  341TIP3    H1 1029   3.795   3.017   0.120
  341TIP3    H2 1030   3.665   3.095   0.127
  342TIP3   OH2 1031   6.208   3.842   0.967
  342TIP3    H1 1032   6.117   3.824   0.988
  342TIP3    H2 1033   6.245   3.758   0.941
  343TIP3   OH2 1034   6.210   5.453   1.784
  343TIP3    H1 1035   6.225   5.512   1.858
  343TIP3    H2 1036   6.298   5.421   1.762
  344TIP3   OH2 1037   0.686   5.726   2.168
  344TIP3    H1 1038   0.652   5.758   2.084
  344TIP3    H2 1039   0.646   5.640   2.179
  345TIP3   OH2 1040   2.526   5.467   1.569
  345TIP3    H1 1041   2.580   5.545   1.580
  345TIP3    H2 1042   2.470   5.464   1.646
  346TIP3   OH2 1043   2.541   3.111   0.177
  346TIP3    H1 1044   2.549   3.038   0.115
  346TIP3    H2 1045   2.607   3.094   0.244
  347TIP3   OH2 1046   0.109   2.962   3.968
  347TIP3    H1 1047   0.099   2.942   4.061
  347TIP3    H2 1048   0.058   2.895   3.923
  348TIP3   OH2 1049   6.396   4.143   3.465
  348TIP3    H1 1050   6.400   4.118   3.373
  348TIP3    H2 1051   6.310   4.182   3.476
  349TIP3   OH2 1052   1.336   2.344   1.392
  349TIP3    H1 1053   1.249   2.306   1.382
  349TIP3    H2 1054   1.358   2.330   1.484
  350TIP3   OH2 1055   4.793   1.546   0.756
  350TIP3    H1 1056   4.826   1.630   0.788
  350TIP3    H2 1057   4.793   1.489   0.833
  351TIP3   OH2 1058   2.984   1.862   0.737
  351TIP3    H1 1059   2.954   1.835   0.649
  351TIP3    H2 1060   2.926   1.933   0.761
  352TIP3   OH2 1061   2.979   2.527   4.871
  352TIP3    H1 1062   2.977   2.599   4.934
  352TIP3    H2 1063   2.909   2.468   4.898
  353TIP3   OH2 1064   4.298   4.159   4.518
  353TIP3    H1 1065   4.230   4.186   4.456
  353TIP3    H2 1066   4.252   4.153   4.602
  354TIP3   OH2 1067   4.052   2.702   0.511
  354TIP3    H1 1068   4.072   2.769   0.576
  354TIP3    H2 1069   3.959   2.712   0.493
  355TIP3   OH2 1070   5.827   1.390   4.615
  355TIP3    H1 1071   5.736   1.413   4.633
  355TIP3    H2 1072   5.866   1.469   4.579
  356TIP3   OH2 1073   2.211   5.667   4.258
  356TIP3    H1 1074   2.154   5.713   4.196
  356TIP3    H2 1075   2.158   5.594   4.289
  357TIP3   OH2 1076   1.960   1.259   0.324
  357TIP3    H1 1077   1.989   1.274   0.234
  357TIP3    H2 1078   1.980   1.167   0.341
  358TIP3   OH2 1079   4.239   1.045   1.231
  358TIP3    H1 1080   4.176   1.116   1.238
  358TIP3    H2 1081   4.193   0.976   1.182
  359TIP3   OH2 1082   0.912   0.723   1.887
  359TIP3    H1 1083   0.831   0.773   1.896
  359TIP3    H2 1084   0.982   0.786   1.900
  360TIP3   OH2 1085   6.073   1.694   2.631
  360TIP3    H1 1086   6.081   1.762   2.699
  360TIP3    H2 1087   6.075   1.743   2.549
  361TIP3   OH2 1088   5.093   4.654   3.615
  361TIP3    H1 1089   5.175   4.704   3.613
  361TIP3    H2 1090   5.054   4.668   3.529
  362TIP3   OH2 1091   2.786   1.592   0.658
  362TIP3    H1 1092   2.697   1.596   0.694
  362TIP3    H2 1093   2.785   1.517   0.600
  363TIP3   OH2 1094   4.117   2.482   2.666
  363TIP3    H1 1095   4.087   2.549   2.727
  363TIP3    H2 1096   4.039   2.459   2.615
  364TIP3   OH2 1097   0.847   1.533   1.515
  364TIP3    H1 1098   0.832   1.603   1.579
  364TIP3    H2 1099   0.941   1.516   1.521
  365TIP3   OH2 1100   3.395   3.470   0.846
  365TIP3    H1 1101   3.316   3.467   0.792
  365TIP3    H2 1102   3.385   3.549   0.899
  366TIP3   OH2 1103   6.106   0.214   5.098
  366TIP3    H1 1104   6.088   0.284   5.035
  366TIP3    H2 1105   6.199   0.194   5.086
  367TIP3   OH2 1106   4.970   5.304   4.006
  367TIP3    H1 1107   5.021   5.381   4.030
  367TIP3    H2 1108   4.982   5.296   3.911
  368TIP3   OH2 1109   2.996   0.477   4.164
  368TIP3    H1 1110   2.915   0.498   4.211
  368TIP3    H2 1111   2.995   0.382   4.155
  369TIP3   OH2 1112   2.543   1.013   3.114
  369TIP3    H1 1113   2.456   1.053   3.117
  369TIP3    H2 1114   2.547   0.957   3.191
  370TIP3   OH2 1115   5.002   2.957   4.788
  370TIP3    H1 1116   4.965   3.036   4.749
  370TIP3    H2 1117   4.929   2.895   4.790
  371TIP3   OH2 1118   0.785   1.495   1.871
  371TIP3    H1 1119   0.697   1.466   1.848
  371TIP3    H2 1120   0.793   1.582   1.831
  372TIP3   OH2 1121   2.472   3.242   1.384
  372TIP3    H1 1122   2.554   3.278   1.417
  372TIP3    H2 1123   2.410   3.314   1.391
  373TIP3   OH2 1124   0.570   0.968   2.143
  373TIP3    H1 1125   0.536   0.970   2.054
  373TIP3    H2 1126   0.548   0.881   2.176
  374TIP3   OH2 1127   5.838   3.538   0.386
  374TIP3    H1 1128   5.872   3.623   0.413
  374TIP3    H2 1129   5.901   3.475   0.421
  375TIP3   OH2 1130   4.105   0.420   3.143
  375TIP3    H1 1131   4.089   0.398   3.051
  375TIP3    H2 1132   4.048   0.495   3.160
  376TIP3   OH2 1133   5.150   2.053   1.331
  376TIP3    H1 1134   5.117   2.130   1.286
  376TIP3    H2 1135   5.140   1.982   1.268
  377TIP3   OH2 1136   0.084   0.469   0.000
  377TIP3    H1 1137   0.055   0.518   0.076
  377TIP3    H2 1138   0.004   0.457  -0.052
  378TIP3   OH2 1139   1.271   2.201   4.643
  378TIP3    H1 1140   1.349   2.223   4.592
  378TIP3    H2 1141   1.291   2.230   4.731
  379TIP3   OH2 1142   4.604   4.275   0.224
  379TIP3    H1 1143   4.679   4.227   0.259
  379TIP3    H2 1144   4.528   4.223   0.251
  380TIP3   OH2 1145   4.045   5.880   4.941
  380TIP3    H1 1146   4.059   5.792   4.905
  380TIP3    H2 1147   3.995   5.926   4.874
  381TIP3   OH2 1148   3.064   4.575   2.520
  381TIP3    H1 1149   2.987   4.592   2.466
  381TIP3    H2 1150   3.138   4.581   2.459
  382TIP3   OH2 1151   4.095   3.455   2.615
  382TIP3    H1 1152   4.014   3.418   2.650
  382TIP3    H2 1153   4.082   3.550   2.618
  383TIP3   OH2 1154   6.122   2.816   2.470
  383TIP3    H1 1155   6.049   2.788   2.525
  383TIP3    H2 1156   6.129   2.749   2.402
  384TIP3   OH2 1157   4.286   1.531   4.255
  384TIP3    H1 1158   4.298   1.614   4.209
  384TIP3    H2 1159   4.370   1.485   4.245
  385TIP3   OH2 1160   4.534   3.900   1.024
  385TIP3    H1 1161   4.557   3.841   1.096
  385TIP3    H2 1162   4.570   3.858   0.946
  386TIP3   OH2 1163   2.752   3.284   1.495
  386TIP3    H1 1164   2.787   3.235   1.421
  386TIP3    H2 1165   2.799   3.367   1.494
  387TIP3   OH2 1166   4.839   0.899   3.977
  387TIP3    H1 1167   4.794   0.816   3.989
  387TIP3    H2 1168   4.770   0.960   3.949
  388TIP3   OH2 1169   5.360   1.729   4.888
  388TIP3    H1 1170   5.313   1.673   4.826
  388TIP3    H2 1171   5.362   1.679   4.969
  389TIP3   OH2 1172   1.117   1.807   3.614
  389TIP3    H1 1173   1.053   1.855   3.667
  389TIP3    H2 1174   1.127   1.723   3.659
  390TIP3   OH2 1175   1.095   1.735   2.538
  390TIP3    H1 1176   1.052   1.779   2.612
  390TIP3    H2 1177   1.049   1.651   2.531
  391TIP3   OH2 1178   2.124   4.481   4.836
  391TIP3    H1 1179   2.059   4.523   4.780
  391TIP3    H2 1180   2.165   4.552   4.884
  392TIP3   OH2 1181   5.861   3.148   4.820
  392TIP3    H1 1182   5.844   3.072   4.876
  392TIP3    H2 1183   5.821   3.125   4.736
  393TIP3   OH2 1184   3.659   4.345   2.013
  393TIP3    H1 1185   3.717   4.273   2.036
  393TIP3    H2 1186   3.718   4.417   1.992
  394TIP3   OH2 1187   3.093   1.708   4.907
  394TIP3    H1 1188   3.010   1.729   4.951
  394TIP3    H2 1189   3.121   1.791   4.868
  395TIP3   OH2 1190   1.714   2.991   1.227
  395TIP3    H1 1191   1.784   2.958   1.170
  395TIP3    H2 1192   1.636   2.992   1.172
  396TIP3   OH2 1193   3.365   0.530   4.744
  396TIP3    H1 1194   3.330   0.511   4.657
  396TIP3    H2 1195   3.335   0.619   4.763
  397TIP3   OH2 1196   0.241   1.625   0.106
  397TIP3    H1 1197   0.195   1.693   0.058
  397TIP3    H2 1198   0.276   1.669   0.184
  398TIP3   OH2 1199   4.387   2.902   2.941
  398TIP3    H1 1200   4.381   2.959   2.865
  398TIP3    H2 1201   4.362   2.816   2.909
  399TIP3   OH2 1202   2.084   1.805   5.081
  399TIP3    H1 1203   2.052   1.725   5.123
  399TIP3    H2 1204   2.130   1.775   5.003
  400TIP3   OH2 1205   0.213   1.577   0.863
  400TIP3    H1 1206   0.190   1.600   0.773
  400TIP3    H2 1207   0.294   1.527   0.854
  401TIP3   OH2 1208   3.377   4.420   3.474
  401TIP3    H1 1209   3.371   4.434   3.568
  401TIP3    H2 1210   3.287   4.429   3.443
  402TIP3   OH2 1211   4.123   0.216   0.684
  402TIP3    H1 1212   4.031   0.241   0.689
  402TIP3    H2 1213   4.171   0.286   0.729
  403TIP3   OH2 1214   3.260   0.441   3.442
  403TIP3    H1 1215   3.199   0.461   3.371
  403TIP3    H2 1216   3.204   0.416   3.515
  404TIP3   OH2 1217   1.958   0.475   3.041
  404TIP3    H1 1218   2.034   0.421   3.020
  404TIP3    H2 1219   1.905   0.475   2.961
  405TIP3   OH2 1220   1.789   5.145   1.568
  405TIP3    H1 1221   1.869   5.152   1.622
  405TIP3    H2 1222   1.724   5.107   1.628
  406TIP3   OH2 1223   1.631   2.549   1.591
  406TIP3    H1 1224   1.599   2.600   1.666
  406TIP3    H2 1225   1.714   2.591   1.567
  407TIP3   OH2 1226   0.863   2.656   2.250
  407TIP3    H1 1227   0.870   2.620   2.338
  407TIP3    H2 1228   0.792   2.720   2.256
  408TIP3   OH2 1229   2.655   5.850   4.396
  408TIP3    H1 1230   2.583   5.789   4.413
  408TIP3    H2 1231   2.708   5.807   4.329
  409TIP3   OH2 1232   2.052   2.616   3.232
  409TIP3    H1 1233   2.124   2.578   3.282
  409TIP3    H2 1234   2.058   2.710   3.249
  410TIP3   OH2 1235   0.125   3.854   4.398
  410TIP3    H1 1236   0.163   3.894   4.476
  410TIP3    H2 1237   0.069   3.784   4.431
  411TIP3   OH2 1238   5.317   2.774   0.217
  411TIP3    H1 1239   5.381   2.705   0.203
  411TIP3    H2 1240   5.250   2.733   0.273
  412TIP3   OH2 1241   1.070   0.285   4.675
  412TIP3    H1 1242   1.147   0.340   4.659
  412TIP3    H2 1243   1.004   0.346   4.708
  413TIP3   OH2 1244   2.983   4.814   3.373
  413TIP3    H1 1245   2.912   4.767   3.418
  413TIP3    H2 1246   3.012   4.754   3.304
  414TIP3   OH2 1247   2.411   1.292   0.186
  414TIP3    H1 1248   2.361   1.354   0.238
  414TIP3    H2 1249   2.377   1.302   0.097
  415TIP3   OH2 1250   2.312   2.549   1.654
  415TIP3    H1 1251   2.271   2.631   1.625
  415TIP3    H2 1252   2.346   2.510   1.574
  416TIP3   OH2 1253   1.376   2.092   0.693
  416TIP3    H1 1254   1.288   2.066   0.721
  416TIP3    H2 1255   1.362   2.145   0.615
  417TIP3   OH2 1256   2.624   0.032   0.292
  417TIP3    H1 1257   2.545   0.029   0.239
  417TIP3    H2 1258   2.682   0.093   0.247
  418TIP3   OH2 1259   4.034   1.260   1.316
  418TIP3    H1 1260   3.982   1.301   1.247
  418TIP3    H2 1261   3.970   1.237   1.383
  419TIP3   OH2 1262   5.013   1.821   0.836
  419TIP3    H1 1263   4.971   1.837   0.921
  419TIP3    H2 1264   5.080   1.755   0.854
  420TIP3   OH2 1265   4.765   2.456   2.676
  420TIP3    H1 1266   4.682   2.485   2.714
  420TIP3    H2 1267   4.740   2.398   2.604
  421TIP3   OH2 1268   6.116   1.920   3.750
  421TIP3    H1 1269   6.043   1.971   3.715
  421TIP3    H2 1270   6.074   1.847   3.797
  422TIP3   OH2 1271   1.094   1.456   0.393
  422TIP3    H1 1272   1.118   1.538   0.350
  422TIP3    H2 1273   1.032   1.415   0.332
  423TIP3   OH2 1274   3.131   0.117   5.110
  423TIP3    H1 1275   3.156   0.025   5.121
  423TIP3    H2 1276   3.067   0.133   5.180
  424TIP3   OH2 1277   2.444   5.347   5.029
  424TIP3    H1 1278   2.364   5.309   5.065
  424TIP3    H2 1279   2.514   5.316   5.087
  425TIP3   OH2 1280   2.920   1.337   4.749
  425TIP3    H1 1281   3.004   1.303   4.719
  425TIP3    H2 1282   2.902   1.289   4.830
  426TIP3   OH2 1283   3.235   1.235   1.287
  426TIP3    H1 1284   3.157   1.191   1.252
  426TIP3    H2 1285   3.275   1.169   1.344
  427TIP3   OH2 1286   4.163   4.671   2.766
  427TIP3    H1 1287   4.215   4.669   2.685
  427TIP3    H2 1288   4.226   4.692   2.834
  428TIP3   OH2 1289   1.465   4.463   0.629
  428TIP3    H1 1290   1.407   4.509   0.690
  428TIP3    H2 1291   1.504   4.532   0.576
  429TIP3   OH2 1292   5.956   4.845   3.526
  429TIP3    H1 1293   6.020   4.897   3.476
  429TIP3    H2 1294   5.933   4.773   3.467
  430TIP3   OH2 1295   1.395   1.288   0.301
  430TIP3    H1 1296   1.314   1.241   0.277
  430TIP3    H2 1297   1.374   1.331   0.384
  431TIP3   OH2 1298   5.237   3.114   4.544
  431TIP3    H1 1299   5.232   3.189   4.604
  431TIP3    H2 1300   5.303   3.057   4.583
  432TIP3   OH2 1301   2.462   3.400   3.496
  432TIP3    H1 1302   2.528   3.451   3.449
  432TIP3    H2 1303   2.378   3.431   3.461
  433TIP3   OH2 1304   1.170   2.617   2.585
  433TIP3    H1 1305   1.129   2.657   2.662
  433TIP3    H2 1306   1.103   2.557   2.550
  434TIP3   OH2 1307   2.109   3.256   4.564
  434TIP3    H1 1308   2.093   3.328   4.503
  434TIP3    H2 1309   2.203   3.242   4.561
  435TIP3   OH2 1310   5.092   0.192   4.715
  435TIP3    H1 1311   5.027   0.128   4.745
  435TIP3    H2 1312   5.174   0.165   4.758
  436TIP3   OH2 1313   4.337   3.662   2.777
  436TIP3    H1 1314   4.253   3.701   2.752
  436TIP3    H2 1315   4.361   3.706   2.858
  437TIP3   OH2 1316   4.320   2.220   2.426
  437TIP3    H1 1317   4.368   2.170   2.360
  437TIP3    H2 1318   4.325   2.311   2.395
  438TIP3   OH2 1319   4.138   2.360   3.329
  438TIP3    H1 1320   4.086   2.366   3.409
  438TIP3    H2 1321   4.162   2.451   3.310
  439TIP3   OH2 1322   1.872   0.544   2.232
  439TIP3    H1 1323   1.932   0.494   2.177
  439TIP3    H2 1324   1.833   0.478   2.290
  440TIP3   OH2 1325   1.752   0.154   2.577
  440TIP3    H1 1326   1.656   0.146   2.578
  440TIP3    H2 1327   1.768   0.248   2.564
  441TIP3   OH2 1328   2.665   0.728   4.707
  441TIP3    H1 1329   2.611   0.681   4.644
  441TIP3    H2 1330   2.687   0.810   4.664
  442TIP3   OH2 1331   1.858   5.292   0.098
  442TIP3    H1 1332   1.927   5.308   0.163
  442TIP3    H2 1333   1.776   5.296   0.148
  443TIP3   OH2 1334   3.088   0.424   0.794
  443TIP3    H1 1335   3.071   0.468   0.877
  443TIP3    H2 1336   3.118   0.336   0.820
  444TIP3   OH2 1337   3.626   2.000   0.906
  444TIP3    H1 1338   3.621   1.976   0.814
  444TIP3    H2 1339   3.694   1.944   0.943
  445TIP3   OH2 1340   1.227   5.920   5.139
  445TIP3    H1 1341   1.289   5.923   5.067
  445TIP3    H2 1342   1.280   5.934   5.217
  446TIP3   OH2 1343   3.026   3.814   1.762
  446TIP3    H1 1344   3.104   3.761   1.783
  446TIP3    H2 1345   2.955   3.772   1.810
  447TIP3   OH2 1346   5.118   4.631   2.119
  447TIP3    H1 1347   5.112   4.538   2.142
  447TIP3    H2 1348   5.211   4.646   2.104
  448TIP3   OH2 1349   5.054   4.380   3.684
  448TIP3    H1 1350   4.987   4.343   3.626
  448TIP3    H2 1351   5.060   4.472   3.657
  449TIP3   OH2 1352   1.488   0.193   2.570
  449TIP3    H1 1353   1.397   0.189   2.599
  449TIP3    H2 1354   1.512   0.286   2.578
  450TIP3   OH2 1355   6.004   5.422   0.377
  450TIP3    H1 1356   6.035   5.340   0.415
  450TIP3    H2 1357   5.910   5.423   0.394
  451TIP3   OH2 1358   3.537   3.641   2.901
  451TIP3    H1 1359   3.629   3.639   2.874
  451TIP3    H2 1360   3.488   3.645   2.819
  452TIP3   OH2 1361   1.792   5.311   0.563
  452TIP3    H1 1362   1.709   5.348   0.590
  452TIP3    H2 1363   1.785   5.218   0.585
  453TIP3   OH2 1364   4.459   2.733   2.287
  453TIP3    H1 1365   4.468   2.674   2.211
  453TIP3    H2 1366   4.404   2.683   2.348
  454TIP3   OH2 1367   5.335   0.801   1.241
  454TIP3    H1 1368   5.344   0.709   1.219
  454TIP3    H2 1369   5.403   0.817   1.306
  455TIP3   OH2 1370   0.279   3.998   2.883
  455TIP3    H1 1371   0.307   4.088   2.871
  455TIP3    H2 1372   0.347   3.946   2.840
  456TIP3   OH2 1373   4.489   4.366   3.675
  456TIP3    H1 1374   4.405   4.329   3.647
  456TIP3    H2 1375   4.505   4.327   3.761
  457TIP3   OH2 1376   2.439   1.320   4.853
  457TIP3    H1 1377   2.461   1.289   4.941
  457TIP3    H2 1378   2.354   1.279   4.834
  458TIP3   OH2 1379   2.344   4.215   2.051
  458TIP3    H1 1380   2.270   4.223   1.991
  458TIP3    H2 1381   2.393   4.140   2.018
  459TIP3   OH2 1382   4.129   3.695   3.984
  459TIP3    H1 1383   4.164   3.762   4.042
  459TIP3    H2 1384   4.037   3.718   3.974
  460TIP3   OH2 1385   0.340   1.443   2.466
  460TIP3    H1 1386   0.324   1.537   2.463
  460TIP3    H2 1387   0.342   1.417   2.374
  461TIP3   OH2 1388   1.609   2.364   4.189
  461TIP3    H1 1389   1.668   2.411   4.248
  461TIP3    H2 1390   1.522   2.376   4.227
  462TIP3   OH2 1391   4.250   0.473   4.582
  462TIP3    H1 1392   4.279   0.422   4.657
  462TIP3    H2 1393   4.300   0.554   4.586
  463TIP3   OH2 1394   1.082   2.491   0.337
  463TIP3    H1 1395   1.144   2.539   0.391
  463TIP3    H2 1396   0.997   2.530   0.356
  464TIP3   OH2 1397   1.272   2.208   4.943
  464TIP3    H1 1398   1.288   2.225   5.036
  464TIP3    H2 1399   1.180   2.228   4.930
  465TIP3   OH2 1400   0.613   1.845   1.160
  465TIP3    H1 1401   0.671   1.793   1.103
  465TIP3    H2 1402   0.632   1.936   1.138
  466TIP3   OH2 1403   3.857   2.718   1.247
  466TIP3    H1 1404   3.922   2.657   1.212
  466TIP3    H2 1405   3.879   2.802   1.208
  467TIP3   OH2 1406   2.743   4.571   0.317
  467TIP3    H1 1407   2.720   4.558   0.409
  467TIP3    H2 1408   2.838   4.565   0.315
  468TIP3   OH2 1409   2.502   2.245   0.806
  468TIP3    H1 1410   2.550   2.327   0.815
  468TIP3    H2 1411   2.536   2.190   0.878
  469TIP3   OH2 1412   3.394   1.044   0.630
  469TIP3    H1 1413   3.316   1.077   0.674
  469TIP3    H2 1414   3.385   1.073   0.539
  470TIP3   OH2 1415   0.571   0.432   1.290
  470TIP3    H1 1416   0.560   0.523   1.264
  470TIP3    H2 1417   0.586   0.435   1.384
  471TIP3   OH2 1418   5.047   3.650   5.120
  471TIP3    H1 1419   5.045   3.556   5.100
  471TIP3    H2 1420   4.984   3.660   5.192
  472TIP3   OH2 1421   1.322   4.177   0.171
  472TIP3    H1 1422   1.404   4.136   0.142
  472TIP3    H2 1423   1.316   4.257   0.119
  473TIP3   OH2 1424   2.622   4.587   2.538
  473TIP3    H1 1425   2.564   4.512   2.526
  473TIP3    H2 1426   2.623   4.602   2.632
  474TIP3   OH2 1427   0.326   4.267   3.986
  474TIP3    H1 1428   0.315   4.348   3.936
  474TIP3    H2 1429   0.261   4.272   4.055
  475TIP3   OH2 1430   4.629   0.075   4.845
  475TIP3    H1 1431   4.645   0.083   4.751
  475TIP3    H2 1432   4.556   0.013   4.852
  476TIP3   OH2 1433   2.229   2.953   4.973
  476TIP3    H1 1434   2.196   3.036   5.007
  476TIP3    H2 1435   2.291   2.979   4.904
  477TIP3   OH2 1436   2.208   1.139   4.801
  477TIP3    H1 1437   2.254   1.081   4.862
  477TIP3    H2 1438   2.146   1.082   4.756
  478TIP3   OH2 1439   2.718   2.706   2.429
  478TIP3    H1 1440   2.776   2.677   2.360
  478TIP3    H2 1441   2.631   2.679   2.400
  479TIP3   OH2 1442   3.831   3.745   4.005
  479TIP3    H1 1443   3.792   3.795   3.934
  479TIP3    H2 1444   3.766   3.677   4.024
  480TIP3   OH2 1445   2.994   3.763   0.508
  480TIP3    H1 1446   3.001   3.700   0.436
  480TIP3    H2 1447   3.073   3.748   0.561
  481TIP3   OH2 1448   1.420   5.723   2.821
  481TIP3    H1 1449   1.481   5.736   2.894
  481TIP3    H2 1450   1.471   5.744   2.743
  482TIP3   OH2 1451   2.246   1.602   2.876
  482TIP3    H1 1452   2.279   1.592   2.787
  482TIP3    H2 1453   2.260   1.516   2.917
  483TIP3   OH2 1454   1.156   2.461   4.523
  483TIP3    H1 1455   1.063   2.460   4.501
  483TIP3    H2 1456   1.176   2.370   4.546
  484TIP3   OH2 1457   0.246   3.176   3.862
  484TIP3    H1 1458   0.337   3.181   3.892
  484TIP3    H2 1459   0.209   3.100   3.907
  485TIP3   OH2 1460   3.624   5.600   4.171
  485TIP3    H1 1461   3.644   5.632   4.259
  485TIP3    H2 1462   3.709   5.588   4.130
  486TIP3   OH2 1463   2.367   4.249   0.928
  486TIP3    H1 1464   2.277   4.280   0.941
  486TIP3    H2 1465   2.376   4.241   0.834
  487TIP3   OH2 1466   4.479   1.741   3.671
  487TIP3    H1 1467   4.444   1.793   3.744
  487TIP3    H2 1468   4.468   1.797   3.595
  488TIP3   OH2 1469   1.653   3.837   2.569
  488TIP3    H1 1470   1.713   3.768   2.597
  488TIP3    H2 1471   1.580   3.832   2.631
  489TIP3   OH2 1472   5.574   2.868   2.576
  489TIP3    H1 1473   5.600   2.917   2.654
  489TIP3    H2 1474   5.532   2.789   2.611
  490TIP3   OH2 1475   2.465   4.530   0.731
  490TIP3    H1 1476   2.424   4.597   0.787
  490TIP3    H2 1477   2.410   4.527   0.653
  491TIP3   OH2 1478   2.343   0.663   1.619
  491TIP3    H1 1479   2.382   0.590   1.668
  491TIP3    H2 1480   2.248   0.651   1.631
  492TIP3   OH2 1481   6.036   4.401   2.723
  492TIP3    H1 1482   5.951   4.404   2.768
  492TIP3    H2 1483   6.040   4.482   2.673
  493TIP3   OH2 1484   1.392   4.615   2.282
  493TIP3    H1 1485   1.425   4.646   2.366
  493TIP3    H2 1486   1.297   4.622   2.290
  494TIP3   OH2 1487   4.677   1.978   2.535
  494TIP3    H1 1488   4.735   2.038   2.580
  494TIP3    H2 1489   4.629   1.933   2.605
  495TIP3   OH2 1490   4.725   3.430   1.531
  495TIP3    H1 1491   4.729   3.335   1.538
  495TIP3    H2 1492   4.814   3.459   1.552
  496TIP3   OH2 1493   1.213   2.793   5.192
  496TIP3    H1 1494   1.234   2.806   5.100
  496TIP3    H2 1495   1.263   2.862   5.237
  497TIP3   OH2 1496   0.597   5.970   2.328
  497TIP3    H1 1497   0.617   5.883   2.295
  497TIP3    H2 1498   0.678   6.000   2.368
  498TIP3   OH2 1499   3.631   2.627   2.751
  498TIP3    H1 1500   3.678   2.677   2.817
  498TIP3    H2 1501   3.700   2.586   2.698
  499TIP3   OH2 1502   4.780   0.241   2.271
  499TIP3    H1 1503   4.864   0.266   2.232
  499TIP3    H2 1504   4.792   0.256   2.364
  500TIP3   OH2 1505   2.391   1.426   2.409
  500TIP3    H1 1506   2.431   1.351   2.365
  500TIP3    H2 1507   2.297   1.416   2.393
  501TIP3   OH2 1508   3.459   3.066   3.326
  501TIP3    H1 1509   3.474   3.131   3.395
  501TIP3    H2 1510   3.396   3.108   3.268
  502TIP3   OH2 1511   2.773   4.648   2.988
  502TIP3    H1 1512   2.856   4.609   3.018
  502TIP3    H2 1513   2.797   4.733   2.954
  503TIP3   OH2 1514   3.415   2.301   0.447
  503TIP3    H1 1515   3.388   2.216   0.483
  503TIP3    H2 1516   3.387   2.299   0.356
  504TIP3   OH2 1517   4.874   2.771   2.980
  504TIP3    H1 1518   4.886   2.715   2.903
  504TIP3    H2 1519   4.884   2.712   3.054
  505TIP3   OH2 1520   3.081   2.752   3.310
  505TIP3    H1 1521   3.028   2.787   3.382
  505TIP3    H2 1522   3.171   2.755   3.342
  506TIP3   OH2 1523   5.642   0.313   0.464
  506TIP3    H1 1524   5.667   0.221   0.463
  506TIP3    H2 1525   5.665   0.344   0.552
  507TIP3   OH2 1526   5.183   0.541   3.732
  507TIP3    H1 1527   5.120   0.584   3.790
  507TIP3    H2 1528   5.266   0.542   3.781
  508TIP3   OH2 1529   1.583   1.495   4.007
  508TIP3    H1 1530   1.651   1.552   3.970
  508TIP3    H2 1531   1.526   1.475   3.933
  509TIP3   OH2 1532   3.921   3.212   0.252
  509TIP3    H1 1533   3.920   3.117   0.260
  509TIP3    H2 1534   3.992   3.241   0.309
  510TIP3   OH2 1535   2.706   4.863   0.667
  510TIP3    H1 1536   2.671   4.942   0.626
  510TIP3    H2 1537   2.736   4.892   0.753
  511TIP3   OH2 1538   4.548   3.134   4.687
  511TIP3    H1 1539   4.527   3.043   4.669
  511TIP3    H2 1540   4.641   3.133   4.712
  512TIP3   OH2 1541   3.180   5.185   1.813
  512TIP3    H1 1542   3.109   5.179   1.877
  512TIP3    H2 1543   3.258   5.202   1.867
  513TIP3   OH2 1544   2.205   0.791   3.410
  513TIP3    H1 1545   2.157   0.764   3.332
  513TIP3    H2 1546   2.149   0.764   3.483
  514TIP3   OH2 1547   1.571   4.077   1.734
  514TIP3    H1 1548   1.528   4.001   1.773
  514TIP3    H2 1549   1.664   4.054   1.731
  515TIP3   OH2 1550   4.668   3.385   2.250
  515TIP3    H1 1551   4.640   3.359   2.337
  515TIP3    H2 1552   4.610   3.458   2.226
  516TIP3   OH2 1553   0.148   5.330   0.198
  516TIP3    H1 1554   0.113   5.404   0.247
  516TIP3    H2 1555   0.198   5.369   0.126
  517TIP3   OH2 1556   0.065   5.616   2.962
  517TIP3    H1 1557  -0.016   5.635   2.915
  517TIP3    H2 1558   0.134   5.627   2.897
  518TIP3   OH2 1559   4.045   5.639   3.396
  518TIP3    H1 1560   3.991   5.607   3.468
  518TIP3    H2 1561   4.018   5.730   3.384
  519TIP3   OH2 1562   2.915   1.190   0.243
  519TIP3    H1 1563   2.893   1.138   0.320
  519TIP3    H2 1564   2.871   1.145   0.170
  520TIP3   OH2 1565   1.131   1.479   1.523
  520TIP3    H1 1566   1.166   1.395   1.493
  520TIP3    H2 1567   1.155   1.484   1.615
  521TIP3   OH2 1568   0.622   1.845   1.476
  521TIP3    H1 1569   0.627   1.865   1.382
  521TIP3    H2 1570   0.704   1.799   1.495
  522TIP3   OH2 1571   1.761   2.554   4.344
  522TIP3    H1 1572   1.854   2.575   4.336
  522TIP3    H2 1573   1.741   2.566   4.437
  523TIP3   OH2 1574   1.795   1.593   4.186
  523TIP3    H1 1575   1.764   1.653   4.118
  523TIP3    H2 1576   1.847   1.528   4.138
  524TIP3   OH2 1577   5.663   4.809   0.089
  524TIP3    H1 1578   5.632   4.729   0.046
  524TIP3    H2 1579   5.681   4.869   0.017
  525TIP3   OH2 1580   4.811   0.743   0.941
  525TIP3    H1 1581   4.899   0.708   0.956
  525TIP3    H2 1582   4.765   0.726   1.024
  526TIP3   OH2 1583   3.123   2.564   3.851
  526TIP3    H1 1584   3.101   2.657   3.857
  526TIP3    H2 1585   3.039   2.519   3.841
  527TIP3   OH2 1586   5.492   2.446   3.404
  527TIP3    H1 1587   5.513   2.397   3.483
  527TIP3    H2 1588   5.546   2.407   3.335
  528TIP3   OH2 1589   5.897   2.030   2.093
  528TIP3    H1 1590   5.870   2.105   2.040
  528TIP3    H2 1591   5.984   2.008   2.061
  529TIP3   OH2 1592   5.946   0.161   2.415
  529TIP3    H1 1593   6.040   0.179   2.406
  529TIP3    H2 1594   5.917   0.222   2.482
  530TIP3   OH2 1595   4.866   5.832   1.211
  530TIP3    H1 1596   4.862   5.757   1.271
  530TIP3    H2 1597   4.897   5.795   1.129
  531TIP3   OH2 1598   5.161   5.432   2.908
  531TIP3    H1 1599   5.154   5.338   2.929
  531TIP3    H2 1600   5.084   5.471   2.950
  532TIP3   OH2 1601   4.199   5.478   0.788
  532TIP3    H1 1602   4.185   5.571   0.772
  532TIP3    H2 1603   4.111   5.443   0.802
  533TIP3   OH2 1604   0.176   5.017   4.958
  533TIP3    H1 1605   0.217   5.091   5.002
  533TIP3    H2 1606   0.157   5.048   4.870
  534TIP3   OH2 1607   3.759   1.332   1.432
  534TIP3    H1 1608   3.699   1.396   1.394
  534TIP3    H2 1609   3.704   1.277   1.488
  535TIP3   OH2 1610   0.142   0.064   1.337
  535TIP3    H1 1611   0.229   0.093   1.308
  535TIP3    H2 1612   0.159  -0.018   1.382
  536TIP3   OH2 1613   2.133   1.765   3.078
  536TIP3    H1 1614   2.170   1.732   2.996
  536TIP3    H2 1615   2.063   1.704   3.099
  537TIP3   OH2 1616   1.928   3.025   3.756
  537TIP3    H1 1617   1.875   2.955   3.717
  537TIP3    H2 1618   1.973   3.065   3.681
  538TIP3   OH2 1619   1.063   0.955   2.895
  538TIP3    H1 1620   1.027   0.875   2.858
  538TIP3    H2 1621   1.014   1.026   2.853
  539TIP3   OH2 1622   1.571   3.219   4.637
  539TIP3    H1 1623   1.511   3.146   4.651
  539TIP3    H2 1624   1.651   3.179   4.603
  540TIP3   OH2 1625   0.729   0.147   1.947
  540TIP3    H1 1626   0.821   0.127   1.927
  540TIP3    H2 1627   0.721   0.241   1.933
  541TIP3   OH2 1628   3.333   5.385   3.607
  541TIP3    H1 1629   3.412   5.378   3.660
  541TIP3    H2 1630   3.340   5.471   3.565
  542TIP3   OH2 1631   3.545   3.634   0.260
  542TIP3    H1 1632   3.489   3.710   0.275
  542TIP3    H2 1633   3.617   3.645   0.322
  543TIP3   OH2 1634   3.941   1.900   4.004
  543TIP3    H1 1635   3.891   1.848   4.067
  543TIP3    H2 1636   3.935   1.850   3.922
  544TIP3   OH2 1637   3.546   3.286   3.812
  544TIP3    H1 1638   3.639   3.303   3.829
  544TIP3    H2 1639   3.508   3.373   3.796
  545TIP3   OH2 1640   3.519   3.810   0.694
  545TIP3    H1 1641   3.608   3.775   0.701
  545TIP3    H2 1642   3.510   3.868   0.770
  546TIP3   OH2 1643   5.677   4.394   2.121
  546TIP3    H1 1644   5.758   4.398   2.171
  546TIP3    H2 1645   5.611   4.434   2.179
  547TIP3   OH2 1646   6.124   3.557   1.101
  547TIP3    H1 1647   6.070   3.519   1.171
  547TIP3    H2 1648   6.063   3.609   1.049
  548TIP3   OH2 1649   4.313   0.695   1.139
  548TIP3    H1 1650   4.372   0.631   1.098
  548TIP3    H2 1651   4.351   0.780   1.117
  549TIP3   OH2 1652   6.083   5.532   1.270
  549TIP3    H1 1653   5.996   5.562   1.293
  549TIP3    H2 1654   6.139   5.609   1.278
  550TIP3   OH2 1655   0.829   2.165   2.852
  550TIP3    H1 1656   0.840   2.150   2.946
  550TIP3    H2 1657   0.844   2.258   2.840
  551TIP3   OH2 1658   1.425   0.112   1.041
  551TIP3    H1 1659   1.386   0.028   1.064
  551TIP3    H2 1660   1.400   0.170   1.113
  552TIP3   OH2 1661   1.988   3.961   3.480
  552TIP3    H1 1662   2.062   3.913   3.517
  552TIP3    H2 1663   1.953   3.902   3.413
  553TIP3   OH2 1664   1.179   3.589   1.681
  553TIP3    H1 1665   1.184   3.635   1.597
  553TIP3    H2 1666   1.117   3.518   1.666
  554TIP3   OH2 1667   0.950   2.808   2.488
  554TIP3    H1 1668   0.918   2.747   2.555
  554TIP3    H2 1669   1.039   2.779   2.470
  555TIP3   OH2 1670   3.277   0.311   1.865
  555TIP3    H1 1671   3.359   0.276   1.829
  555TIP3    H2 1672   3.231   0.234   1.898
  556TIP3   OH2 1673   5.443   3.473   1.053
  556TIP3    H1 1674   5.368   3.478   0.994
  556TIP3    H2 1675   5.448   3.560   1.093
  557TIP3   OH2 1676   5.956   2.262   0.376
  557TIP3    H1 1677   6.012   2.213   0.317
  557TIP3    H2 1678   5.870   2.261   0.334
  558TIP3   OH2 1679   0.339   3.225   2.846
  558TIP3    H1 1680   0.295   3.187   2.770
  558TIP3    H2 1681   0.352   3.152   2.906
  559TIP3   OH2 1682   3.090   1.217   0.561
  559TIP3    H1 1683   3.164   1.231   0.620
  559TIP3    H2 1684   3.016   1.199   0.618
  560TIP3   OH2 1685   3.179   3.807   4.053
  560TIP3    H1 1686   3.139   3.827   4.138
  560TIP3    H2 1687   3.160   3.714   4.039
  561TIP3   OH2 1688   0.306   2.702   4.794
  561TIP3    H1 1689   0.231   2.697   4.854
  561TIP3    H2 1690   0.328   2.795   4.792
  562TIP3   OH2 1691   0.065   5.645   3.940
  562TIP3    H1 1692   0.137   5.686   3.892
  562TIP3    H2 1693   0.001   5.622   3.872
  563TIP3   OH2 1694   1.751   1.950   0.200
  563TIP3    H1 1695   1.775   1.951   0.293
  563TIP3    H2 1696   1.835   1.948   0.154
  564TIP3   OH2 1697   1.158   0.400   3.696
  564TIP3    H1 1698   1.243   0.403   3.740
  564TIP3    H2 1699   1.097   0.436   3.760
  565TIP3   OH2 1700   3.017   5.618   3.711
  565TIP3    H1 1701   2.939   5.597   3.763
  565TIP3    H2 1702   3.082   5.647   3.775
  566TIP3   OH2 1703   6.012   5.179   3.700
  566TIP3    H1 1704   5.983   5.255   3.749
  566TIP3    H2 1705   6.084   5.143   3.752
  567TIP3   OH2 1706   0.887   0.286   4.164
  567TIP3    H1 1707   0.815   0.339   4.200
  567TIP3    H2 1708   0.955   0.289   4.231
  568TIP3   OH2 1709   2.093   2.203   2.139
  568TIP3    H1 1710   2.058   2.215   2.051
  568TIP3    H2 1711   2.016   2.183   2.193
  569TIP3   OH2 1712   0.681   3.644   4.798
  569TIP3    H1 1713   0.634   3.686   4.870
  569TIP3    H2 1714   0.617   3.637   4.727
  570TIP3   OH2 1715   4.336   3.016   1.118
  570TIP3    H1 1716   4.430   3.021   1.097
  570TIP3    H2 1717   4.333   3.008   1.213
  571TIP3   OH2 1718   5.373   1.213   3.730
  571TIP3    H1 1719   5.453   1.200   3.679
  571TIP3    H2 1720   5.323   1.278   3.680
  572TIP3   OH2 1721   3.402   1.663   0.998
  572TIP3    H1 1722   3.367   1.579   1.027
  572TIP3    H2 1723   3.325   1.714   0.972
  573TIP3   OH2 1724   1.756   4.510   0.041
  573TIP3    H1 1725   1.771   4.419   0.068
  573TIP3    H2 1726   1.832   4.558   0.073
  574TIP3   OH2 1727   4.310   5.594   2.258
  574TIP3    H1 1728   4.397   5.620   2.289
  574TIP3    H2 1729   4.267   5.557   2.335
  575TIP3   OH2 1730   2.593   3.184   3.349
  575TIP3    H1 1731   2.551   3.250   3.403
  575TIP3    H2 1732   2.566   3.101   3.388
  576TIP3   OH2 1733   4.885   3.333   0.904
  576TIP3    H1 1734   4.896   3.339   0.810
  576TIP3    H2 1735   4.870   3.423   0.933
  577TIP3   OH2 1736   3.452   1.676   0.357
  577TIP3    H1 1737   3.394   1.624   0.301
  577TIP3    H2 1738   3.519   1.710   0.297
  578TIP3   OH2 1739   3.551   1.492   4.180
  578TIP3    H1 1740   3.550   1.536   4.095
  578TIP3    H2 1741   3.460   1.466   4.194
  579TIP3   OH2 1742   4.921   3.670   4.127
  579TIP3    H1 1743   4.905   3.760   4.157
  579TIP3    H2 1744   5.007   3.674   4.085
  580TIP3   OH2 1745   1.783   2.936   2.641
  580TIP3    H1 1746   1.759   3.010   2.585
  580TIP3    H2 1747   1.736   2.861   2.603
  581TIP3   OH2 1748   2.287   0.130   2.696
  581TIP3    H1 1749   2.363   0.092   2.739
  581TIP3    H2 1750   2.322   0.173   2.617
  582TIP3   OH2 1751   3.092   5.762   2.483
  582TIP3    H1 1752   3.118   5.750   2.574
  582TIP3    H2 1753   3.137   5.842   2.455
  583TIP3   OH2 1754   5.990   2.895   1.480
  583TIP3    H1 1755   5.969   2.832   1.548
  583TIP3    H2 1756   6.076   2.867   1.447
  584TIP3   OH2 1757   4.992   4.529   4.015
  584TIP3    H1 1758   5.008   4.446   3.970
  584TIP3    H2 1759   5.077   4.555   4.050
  585TIP3   OH2 1760   2.327   1.603   3.989
  585TIP3    H1 1761   2.384   1.673   4.021
  585TIP3    H2 1762   2.245   1.614   4.037
  586TIP3   OH2 1763   5.808   5.710   3.170
  586TIP3    H1 1764   5.781   5.624   3.203
  586TIP3    H2 1765   5.766   5.717   3.084
  587TIP3   OH2 1766   1.331   5.101   1.629
  587TIP3    H1 1767   1.360   5.020   1.671
  587TIP3    H2 1768   1.300   5.074   1.543
  588TIP3   OH2 1769   4.074   4.205   2.517
  588TIP3    H1 1770   4.080   4.186   2.610
  588TIP3    H2 1771   4.022   4.285   2.512
  589TIP3   OH2 1772   0.261   0.600   3.977
  589TIP3    H1 1773   0.252   0.524   3.918
  589TIP3    H2 1774   0.353   0.623   3.973
  590TIP3   OH2 1775   1.256   3.936   0.556
  590TIP3    H1 1776   1.300   4.010   0.599
  590TIP3    H2 1777   1.267   3.863   0.617
  591TIP3   OH2 1778   4.949   5.510   3.029
  591TIP3    H1 1779   4.911   5.598   3.032
  591TIP3    H2 1780   4.873   5.451   3.033
  592TIP3   OH2 1781   5.448   3.260   2.634
  592TIP3    H1 1782   5.376   3.252   2.696
  592TIP3    H2 1783   5.410   3.235   2.550
  593TIP3   OH2 1784   0.346   1.419   4.222
  593TIP3    H1 1785   0.266   1.377   4.190
  593TIP3    H2 1786   0.337   1.511   4.196
  594TIP3   OH2 1787   2.049   3.389   4.339
  594TIP3    H1 1788   2.064   3.478   4.306
  594TIP3    H2 1789   1.992   3.348   4.274
  595TIP3   OH2 1790   4.680   4.834   5.052
  595TIP3    H1 1791   4.591   4.851   5.085
  595TIP3    H2 1792   4.679   4.741   5.029
  596TIP3   OH2 1793   2.369   5.343   2.443
  596TIP3    H1 1794   2.373   5.430   2.484
  596TIP3    H2 1795   2.275   5.325   2.436
  597TIP3   OH2 1796   4.141   5.580   2.040
  597TIP3    H1 1797   4.208   5.621   1.986
  597TIP3    H2 1798   4.187   5.556   2.121
  598TIP3   OH2 1799   5.117   4.908   3.985
  598TIP3    H1 1800   5.038   4.918   4.037
  598TIP3    H2 1801   5.086   4.909   3.894
  599TIP3   OH2 1802   4.455   3.186   0.902
  599TIP3    H1 1803   4.494   3.267   0.934
  599TIP3    H2 1804   4.402   3.212   0.827
  600TIP3   OH2 1805   1.297   4.113   2.273
  600TIP3    H1 1806   1.248   4.042   2.233
  600TIP3    H2 1807   1.374   4.071   2.312
  601TIP3   OH2 1808   4.418   3.681   5.013
  601TIP3    H1 1809   4.374   3.757   5.052
  601TIP3    H2 1810   4.367   3.606   5.043
  602TIP3   OH2 1811   5.538   4.716   2.556
  602TIP3    H1 1812   5.458   4.767   2.546
  602TIP3    H2 1813   5.510   4.638   2.605
  603TIP3   OH2 1814   4.793   1.778   1.306
  603TIP3    H1 1815   4.869   1.770   1.363
  603TIP3    H2 1816   4.726   1.820   1.360
  604TIP3   OH2 1817   0.772   0.949   0.413
  604TIP3    H1 1818   0.788   0.981   0.325
  604TIP3    H2 1819   0.707   0.879   0.402
  605TIP3   OH2 1820   0.771   0.424   1.503
  605TIP3    H1 1821   0.716   0.371   1.560
  605TIP3    H2 1822   0.765   0.512   1.539
  606TIP3   OH2 1823   2.677   3.423   0.641
  606TIP3    H1 1824   2.748   3.370   0.605
  606TIP3    H2 1825   2.687   3.415   0.736
  607TIP3   OH2 1826   3.884   1.330   4.288
  607TIP3    H1 1827   3.942   1.257   4.268
  607TIP3    H2 1828   3.798   1.290   4.303
  608TIP3   OH2 1829   2.231   2.963   0.777
  608TIP3    H1 1830   2.146   2.931   0.748
  608TIP3    H2 1831   2.285   2.961   0.698
  609TIP3   OH2 1832   4.844   0.073   0.027
  609TIP3    H1 1833   4.914   0.017  -0.005
  609TIP3    H2 1834   4.859   0.077   0.122
  610TIP3   OH2 1835   5.817   5.199   2.530
  610TIP3    H1 1836   5.767   5.199   2.612
  610TIP3    H2 1837   5.907   5.219   2.557
  611TIP3   OH2 1838   5.213   4.526   2.984
  611TIP3    H1 1839   5.202   4.432   2.998
  611TIP3    H2 1840   5.130   4.564   3.012
  612TIP3   OH2 1841   0.172   3.478   3.502
  612TIP3    H1 1842   0.163   3.431   3.418
  612TIP3    H2 1843   0.226   3.554   3.481
  613TIP3   OH2 1844   4.873   3.206   2.399
  613TIP3    H1 1845   4.780   3.215   2.422
  613TIP3    H2 1846   4.919   3.253   2.468
  614TIP3   OH2 1847   1.379   3.232   4.031
  614TIP3    H1 1848   1.403   3.237   3.938
  614TIP3    H2 1849   1.463   3.232   4.077
  615TIP3   OH2 1850   0.833   1.945   0.771
  615TIP3    H1 1851   0.772   1.927   0.699
  615TIP3    H2 1852   0.790   1.909   0.848
  616TIP3   OH2 1853   1.124   3.416   1.103
  616TIP3    H1 1854   1.030   3.414   1.118
  616TIP3    H2 1855   1.156   3.488   1.158
  617TIP3   OH2 1856   0.072   5.945   3.574
  617TIP3    H1 1857   0.020   5.985   3.504
  617TIP3    H2 1858   0.013   5.945   3.650
  618TIP3   OH2 1859   2.047   1.078   4.163
  618TIP3    H1 1860   1.991   1.072   4.241
  618TIP3    H2 1861   2.069   0.988   4.142
  619TIP3   OH2 1862   3.931   4.851   2.195
  619TIP3    H1 1863   3.954   4.783   2.258
  619TIP3    H2 1864   3.853   4.817   2.150
  620TIP3   OH2 1865   1.575   0.348   4.549
  620TIP3    H1 1866   1.667   0.370   4.558
  620TIP3    H2 1867   1.542   0.408   4.482
  621TIP3   OH2 1868   4.577   1.172   1.120
  621TIP3    H1 1869   4.634   1.249   1.116
  621TIP3    H2 1870   4.498   1.198   1.073
  622TIP3   OH2 1871   4.180   4.662   3.124
  622TIP3    H1 1872   4.096   4.695   3.092
  622TIP3    H2 1873   4.245   4.698   3.064
  623TIP3   OH2 1874   2.181   1.587   1.989
  623TIP3    H1 1875   2.169   1.667   2.042
  623TIP3    H2 1876   2.276   1.578   1.983
  624TIP3   OH2 1877   1.323   4.776   0.168
  624TIP3    H1 1878   1.270   4.751   0.244
  624TIP3    H2 1879   1.288   4.725   0.096
  625TIP3   OH2 1880   1.644   4.033   0.330
  625TIP3    H1 1881   1.730   4.075   0.326
  625TIP3    H2 1882   1.630   4.000   0.241
  626TIP3   OH2 1883   3.080   3.962   4.619
  626TIP3    H1 1884   3.086   3.999   4.532
  626TIP3    H2 1885   3.025   3.884   4.608
  627TIP3   OH2 1886   4.782   0.805   3.342
  627TIP3    H1 1887   4.868   0.829   3.377
  627TIP3    H2 1888   4.757   0.727   3.392
  628TIP3   OH2 1889   2.774   3.343   3.919
  628TIP3    H1 1890   2.695   3.352   3.865
  628TIP3    H2 1891   2.805   3.254   3.901
  629TIP3   OH2 1892   4.143   5.371   0.135
  629TIP3    H1 1893   4.165   5.362   0.042
  629TIP3    H2 1894   4.114   5.462   0.144
  630TIP3   OH2 1895   4.444   3.683   2.526
  630TIP3    H1 1896   4.420   3.635   2.606
  630TIP3    H2 1897   4.407   3.770   2.539
  631TIP3   OH2 1898   0.289   1.977   1.477
  631TIP3    H1 1899   0.328   1.951   1.393
  631TIP3    H2 1900   0.328   2.062   1.496
  632TIP3   OH2 1901   2.457   4.093   3.941
  632TIP3    H1 1902   2.392   4.164   3.939
  632TIP3    H2 1903   2.535   4.131   3.900
  633TIP3   OH2 1904   6.108   0.598   5.011
  633TIP3    H1 1905   6.051   0.665   4.973
  633TIP3    H2 1906   6.181   0.647   5.049
  634TIP3   OH2 1907   5.277   3.720   0.485
  634TIP3    H1 1908   5.346   3.671   0.532
  634TIP3    H2 1909   5.308   3.723   0.395
  635TIP3   OH2 1910   0.497   3.867   4.326
  635TIP3    H1 1911   0.439   3.902   4.394
  635TIP3    H2 1912   0.457   3.896   4.244
  636TIP3   OH2 1913   5.279   2.134   5.000
  636TIP3    H1 1914   5.290   2.120   4.906
  636TIP3    H2 1915   5.224   2.061   5.029
  637TIP3   OH2 1916   5.548   1.710   3.150
  637TIP3    H1 1917   5.560   1.762   3.229
  637TIP3    H2 1918   5.519   1.773   3.084
  638TIP3   OH2 1919   4.650   5.801   3.095
  638TIP3    H1 1920   4.740   5.776   3.074
  638TIP3    H2 1921   4.659   5.866   3.165
  639TIP3   OH2 1922   1.437   6.027   1.356
  639TIP3    H1 1923   1.426   5.932   1.365
  639TIP3    H2 1924   1.499   6.037   1.285
  640TIP3   OH2 1925   0.307   1.437   1.584
  640TIP3    H1 1926   0.319   1.439   1.489
  640TIP3    H2 1927   0.298   1.529   1.609
  641TIP3   OH2 1928   3.585   5.966   5.012
  641TIP3    H1 1929   3.641   6.005   4.945
  641TIP3    H2 1930   3.644   5.947   5.085
  642TIP3   OH2 1931   1.347   5.370   2.056
  642TIP3    H1 1932   1.428   5.340   2.097
  642TIP3    H2 1933   1.347   5.465   2.069
  643TIP3   OH2 1934   0.707   1.346   0.477
  643TIP3    H1 1935   0.636   1.299   0.521
  643TIP3    H2 1936   0.738   1.409   0.542
  644TIP3   OH2 1937   1.525   3.414   4.432
  644TIP3    H1 1938   1.509   3.347   4.499
  644TIP3    H2 1939   1.504   3.370   4.349
  645TIP3   OH2 1940   1.690   0.365   1.486
  645TIP3    H1 1941   1.705   0.306   1.560
  645TIP3    H2 1942   1.595   0.377   1.484
  646TIP3   OH2 1943   0.274   2.847   2.990
  646TIP3    H1 1944   0.309   2.891   3.067
  646TIP3    H2 1945   0.351   2.828   2.936
  647TIP3   OH2 1946   5.673   1.206   5.071
  647TIP3    H1 1947   5.753   1.158   5.047
  647TIP3    H2 1948   5.607   1.173   5.010
  648TIP3   OH2 1949   5.856   0.852   3.550
  648TIP3    H1 1950   5.764   0.877   3.542
  648TIP3    H2 1951   5.889   0.904   3.624
  649TIP3   OH2 1952   1.877   0.215   3.871
  649TIP3    H1 1953   1.859   0.309   3.867
  649TIP3    H2 1954   1.805   0.179   3.922
  650TIP3   OH2 1955   2.089   0.371   3.634
  650TIP3    H1 1956   2.073   0.465   3.626
  650TIP3    H2 1957   2.032   0.344   3.707
  651TIP3   OH2 1958   4.971   1.782   3.826
  651TIP3    H1 1959   5.058   1.755   3.858
  651TIP3    H2 1960   4.923   1.700   3.815
  652TIP3   OH2 1961   4.035   0.980   4.701
  652TIP3    H1 1962   3.990   0.996   4.618
  652TIP3    H2 1963   4.128   0.989   4.681
  653TIP3   OH2 1964   3.548   2.999   4.292
  653TIP3    H1 1965   3.561   2.927   4.230
  653TIP3    H2 1966   3.614   2.985   4.359
  654TIP3   OH2 1967   3.752   3.950   3.829
  654TIP3    H1 1968   3.675   3.998   3.859
  654TIP3    H2 1969   3.824   4.013   3.834
  655TIP3   OH2 1970   1.455   3.354   1.847
  655TIP3    H1 1971   1.444   3.306   1.765
  655TIP3    H2 1972   1.547   3.341   1.871
  656TIP3   OH2 1973   3.505   4.173   1.878
  656TIP3    H1 1974   3.520   4.113   1.951
  656TIP3    H2 1975   3.562   4.248   1.896
  657TIP3   OH2 1976   5.223   1.012   0.249
  657TIP3    H1 1977   5.181   0.991   0.165
  657TIP3    H2 1978   5.163   0.977   0.315
  658TIP3   OH2 1979   5.881   3.982   4.274
  658TIP3    H1 1980   5.852   4.014   4.360
  658TIP3    H2 1981   5.972   3.957   4.288
  659TIP3   OH2 1982   1.407   2.466   2.863
  659TIP3    H1 1983   1.466   2.390   2.862
  659TIP3    H2 1984   1.395   2.486   2.956
  660TIP3   OH2 1985   0.270   4.312   4.315
  660TIP3    H1 1986   0.292   4.386   4.259
  660TIP3    H2 1987   0.225   4.352   4.390
  661TIP3   OH2 1988   1.962   3.217   2.935
  661TIP3    H1 1989   1.883   3.182   2.893
  661TIP3    H2 1990   2.017   3.246   2.862
  662TIP3   OH2 1991   3.385   2.410   4.043
  662TIP3    H1 1992   3.366   2.346   3.974
  662TIP3    H2 1993   3.308   2.407   4.100
  663TIP3   OH2 1994   0.762   0.979   3.487
  663TIP3    H1 1995   0.746   1.057   3.540
  663TIP3    H2 1996   0.857   0.974   3.479
  664TIP3   OH2 1997   2.516   4.404   1.928
  664TIP3    H1 1998   2.524   4.354   1.847
  664TIP3    H2 1999   2.468   4.347   1.987
  665TIP3   OH2 2000   3.792   5.583   3.682
  665TIP3    H1 2001   3.758   5.553   3.597
  665TIP3    H2 2002   3.883   5.554   3.682
  666TIP3   OH2 2003   1.194   5.007   1.407
  666TIP3    H1 2004   1.217   4.915   1.394
  666TIP3    H2 2005   1.150   5.032   1.325
  667TIP3   OH2 2006   1.699   2.278   1.535
  667TIP3    H1 2007   1.669   2.367   1.554
  667TIP3    H2 2008   1.788   2.275   1.569
  668TIP3   OH2 2009   3.425   1.827   1.528
  668TIP3    H1 2010   3.341   1.791   1.555
  668TIP3    H2 2011   3.433   1.804   1.435
  669TIP3   OH2 2012   0.640   4.092   0.342
  669TIP3    H1 2013   0.557   4.133   0.319
  669TIP3    H2 2014   0.617   4.013   0.390
  670TIP3   OH2 2015   5.035   1.668   4.934
  670TIP3    H1 2016   4.999   1.623   4.858
  670TIP3    H2 2017   5.071   1.597   4.988
  671TIP3   OH2 2018   1.512   0.963   2.120
  671TIP3    H1 2019   1.530   1.036   2.180
  671TIP3    H2 2020   1.489   0.890   2.177
  672TIP3   OH2 2021   1.407   0.130   3.416
  672TIP3    H1 2022   1.424   0.168   3.502
  672TIP3    H2 2023   1.476   0.065   3.404
  673TIP3   OH2 2024   2.311   4.704   2.363
  673TIP3    H1 2025   2.230   4.677   2.405
  673TIP3    H2 2026   2.350   4.768   2.422
  674TIP3   OH2 2027   1.445   2.653   0.990
  674TIP3    H1 2028   1.379   2.697   1.044
  674TIP3    H2 2029   1.440   2.561   1.015
  675TIP3   OH2 2030   5.641   1.748   2.255
  675TIP3    H1 2031   5.612   1.669   2.301
  675TIP3    H2 2032   5.687   1.716   2.178
  676TIP3   OH2 2033   1.014   3.736   0.772
  676TIP3    H1 2034   1.081   3.668   0.772
  676TIP3    H2 2035   0.942   3.700   0.720
  677TIP3   OH2 2036   1.343   2.544   2.343
  677TIP3    H1 2037   1.268   2.489   2.320
  677TIP3    H2 2038   1.309   2.602   2.412
  678TIP3   OH2 2039   2.320   2.598   0.263
  678TIP3    H1 2040   2.282   2.686   0.264
  678TIP3    H2 2041   2.414   2.613   0.276
  679TIP3   OH2 2042   5.877   0.819   0.385
  679TIP3    H1 2043   5.785   0.837   0.406
  679TIP3    H2 2044   5.894   0.733   0.421
  680TIP3   OH2 2045   3.391   2.754   1.923
  680TIP3    H1 2046   3.352   2.689   1.864
  680TIP3    H2 2047   3.334   2.752   2.001
  681TIP3   OH2 2048   1.451   2.270   4.486
  681TIP3    H1 2049   1.522   2.326   4.517
  681TIP3    H2 2050   1.416   2.316   4.410
  682TIP3   OH2 2051   1.390   4.690   3.454
  682TIP3    H1 2052   1.295   4.698   3.461
  682TIP3    H2 2053   1.423   4.780   3.458
  683TIP3   OH2 2054   0.484   2.780   4.253
  683TIP3    H1 2055   0.440   2.697   4.233
  683TIP3    H2 2056   0.447   2.842   4.191
  684TIP3   OH2 2057   2.693   1.463   4.310
  684TIP3    H1 2058   2.733   1.390   4.358
  684TIP3    H2 2059   2.736   1.541   4.345
  685TIP3   OH2 2060   2.413   0.175   1.653
  685TIP3    H1 2061   2.487   0.221   1.615
  685TIP3    H2 2062   2.422   0.187   1.748
  686TIP3   OH2 2063   2.295   4.812   3.298
  686TIP3    H1 2064   2.314   4.904   3.319
  686TIP3    H2 2065   2.201   4.803   3.311
  687TIP3   OH2 2066   1.660   1.774   3.975
  687TIP3    H1 2067   1.614   1.751   3.894
  687TIP3    H2 2068   1.636   1.865   3.992
  688TIP3   OH2 2069   5.283   5.485   3.554
  688TIP3    H1 2070   5.351   5.546   3.525
  688TIP3    H2 2071   5.201   5.526   3.526
  689TIP3   OH2 2072   2.914   0.778   1.557
  689TIP3    H1 2073   2.952   0.846   1.613
  689TIP3    H2 2074   2.897   0.705   1.617
  690TIP3   OH2 2075   4.764   3.009   0.604
  690TIP3    H1 2076   4.787   2.917   0.595
  690TIP3    H2 2077   4.713   3.014   0.685
  691TIP3   OH2 2078   4.712   1.027   2.731
  691TIP3    H1 2079   4.786   1.084   2.753
  691TIP3    H2 2080   4.700   1.037   2.637
  692TIP3   OH2 2081   1.550   4.398   2.191
  692TIP3    H1 2082   1.500   4.467   2.234
  692TIP3    H2 2083   1.605   4.362   2.260
  693TIP3   OH2 2084   4.846   2.712   0.721
  693TIP3    H1 2085   4.812   2.664   0.645
  693TIP3    H2 2086   4.883   2.645   0.777
  694TIP3   OH2 2087   4.332   3.160   4.359
  694TIP3    H1 2088   4.324   3.066   4.373
  694TIP3    H2 2089   4.314   3.199   4.444
  695TIP3   OH2 2090   1.687   0.795   1.318
  695TIP3    H1 2091   1.628   0.845   1.261
  695TIP3    H2 2092   1.768   0.786   1.268
  696TIP3   OH2 2093   0.982   1.475   5.189
  696TIP3    H1 2094   1.012   1.505   5.103
  696TIP3    H2 2095   0.963   1.382   5.176
  697TIP3   OH2 2096   2.611   4.492   4.491
  697TIP3    H1 2097   2.693   4.532   4.521
  697TIP3    H2 2098   2.635   4.445   4.411
  698TIP3   OH2 2099   4.286   3.834   1.492
  698TIP3    H1 2100   4.266   3.927   1.508
  698TIP3    H2 2101   4.368   3.819   1.539
  699TIP3   OH2 2102   2.477   4.330   2.896
  699TIP3    H1 2103   2.437   4.365   2.975
  699TIP3    H2 2104   2.405   4.326   2.833
  700TIP3   OH2 2105   0.861   0.119   0.039
  700TIP3    H1 2106   0.868   0.027   0.067
  700TIP3    H2 2107   0.915   0.125  -0.040
  701TIP3   OH2 2108   3.129   3.668   2.924
  701TIP3    H1 2109   3.094   3.752   2.956
  701TIP3    H2 2110   3.202   3.649   2.983
  702TIP3   OH2 2111   3.266   4.867   4.257
  702TIP3    H1 2112   3.312   4.786   4.236
  702TIP3    H2 2113   3.257   4.911   4.173
  703TIP3   OH2 2114   4.389   5.201   3.720
  703TIP3    H1 2115   4.387   5.157   3.805
  703TIP3    H2 2116   4.457   5.155   3.671
  704TIP3   OH2 2117   1.331   2.413   4.286
  704TIP3    H1 2118   1.272   2.444   4.354
  704TIP3    H2 2119   1.294   2.448   4.204
  705TIP3   OH2 2120   2.339   3.114   4.560
  705TIP3    H1 2121   2.424   3.133   4.599
  705TIP3    H2 2122   2.316   3.027   4.594
  706TIP3   OH2 2123   0.564   4.447   2.368
  706TIP3    H1 2124   0.533   4.357   2.374
  706TIP3    H2 2125   0.647   4.441   2.321
  707TIP3   OH2 2126   5.175   4.066   1.289
  707TIP3    H1 2127   5.119   4.094   1.362
  707TIP3    H2 2128   5.153   3.974   1.276
  708TIP3   OH2 2129   6.181   3.810   1.831
  708TIP3    H1 2130   6.114   3.764   1.780
  708TIP3    H2 2131   6.191   3.757   1.910
  709TIP3   OH2 2132   4.644   3.009   0.838
  709TIP3    H1 2133   4.645   2.955   0.917
  709TIP3    H2 2134   4.570   3.069   0.850
  710TIP3   OH2 2135   2.421   0.058   0.100
  710TIP3    H1 2136   2.442   0.138   0.051
  710TIP3    H2 2137   2.338   0.028   0.063
  711TIP3   OH2 2138   5.023   4.870   2.228
  711TIP3    H1 2139   4.931   4.847   2.239
  711TIP3    H2 2140   5.061   4.796   2.179
  712TIP3   OH2 2141   3.466   0.161   3.833
  712TIP3    H1 2142   3.528   0.213   3.884
  712TIP3    H2 2143   3.389   0.217   3.824
  713TIP3   OH2 2144   1.999   1.466   2.165
  713TIP3    H1 2145   1.981   1.375   2.144
  713TIP3    H2 2146   2.060   1.495   2.097
  714TIP3   OH2 2147   4.396   3.990   4.340
  714TIP3    H1 2148   4.364   4.050   4.407
  714TIP3    H2 2149   4.334   3.917   4.342
  715TIP3   OH2 2150   0.498   3.550   0.148
  715TIP3    H1 2151   0.489   3.622   0.212
  715TIP3    H2 2152   0.503   3.471   0.202
  716TIP3   OH2 2153   2.190   1.460   5.080
  716TIP3    H1 2154   2.210   1.369   5.103
  716TIP3    H2 2155   2.158   1.455   4.990
  717TIP3   OH2 2156   4.671   4.543   2.071
  717TIP3    H1 2157   4.656   4.454   2.104
  717TIP3    H2 2158   4.689   4.532   1.978
  718TIP3   OH2 2159   1.434   1.716   1.436
  718TIP3    H1 2160   1.476   1.792   1.397
  718TIP3    H2 2161   1.417   1.742   1.527
  719TIP3   OH2 2162   1.315   4.154   0.697
  719TIP3    H1 2163   1.294   4.107   0.778
  719TIP3    H2 2164   1.233   4.196   0.671
  720TIP3   OH2 2165   4.564   4.491   2.424
  720TIP3    H1 2166   4.600   4.572   2.459
  720TIP3    H2 2167   4.637   4.429   2.428
  721TIP3   OH2 2168   0.872   3.587   1.462
  721TIP3    H1 2169   0.784   3.605   1.429
  721TIP3    H2 2170   0.922   3.562   1.384
  722TIP3   OH2 2171   0.932   4.163   0.045
  722TIP3    H1 2172   1.024   4.173   0.022
  722TIP3    H2 2173   0.890   4.242   0.014
  723TIP3   OH2 2174   0.050   4.446   2.214
  723TIP3    H1 2175   0.020   4.495   2.137
  723TIP3    H2 2176  -0.005   4.368   2.216
  724TIP3   OH2 2177   2.345   5.492   1.780
  724TIP3    H1 2178   2.354   5.575   1.828
  724TIP3    H2 2179   2.253   5.469   1.789
  725TIP3   OH2 2180   4.766   1.886   0.720
  725TIP3    H1 2181   4.857   1.873   0.744
  725TIP3    H2 2182   4.765   1.884   0.625
  726TIP3   OH2 2183   2.992   3.560   1.228
  726TIP3    H1 2184   2.898   3.581   1.225
  726TIP3    H2 2185   2.995   3.467   1.248
  727TIP3   OH2 2186   3.193   4.656   1.049
  727TIP3    H1 2187   3.236   4.652   0.964
  727TIP3    H2 2188   3.256   4.701   1.106
  728TIP3   OH2 2189   4.610   0.042   2.148
  728TIP3    H1 2190   4.645  -0.046   2.161
  728TIP3    H2 2191   4.677   0.100   2.186
  729TIP3   OH2 2192   5.465   0.791   1.521
  729TIP3    H1 2193   5.437   0.881   1.535
  729TIP3    H2 2194   5.559   0.791   1.539
  730TIP3   OH2 2195   5.412   4.260   1.598
  730TIP3    H1 2196   5.466   4.243   1.675
  730TIP3    H2 2197   5.323   4.237   1.626
  731TIP3   OH2 2198   3.514   3.905   2.571
  731TIP3    H1 2199   3.571   3.829   2.585
  731TIP3    H2 2200   3.489   3.933   2.658
  732TIP3   OH2 2201   0.741   0.527   4.258
  732TIP3    H1 2202   0.812   0.559   4.314
  732TIP3    H2 2203   0.664   0.576   4.287
  733TIP3   OH2 2204   2.651   4.094   2.981
  733TIP3    H1 2205   2.589   4.162   2.953
  733TIP3    H2 2206   2.629   4.079   3.073
  734TIP3   OH2 2207   0.839   2.111   4.874
  734TIP3    H1 2208   0.751   2.106   4.910
  734TIP3    H2 2209   0.834   2.066   4.790
  735TIP3   OH2 2210   5.691   4.361   5.166
  735TIP3    H1 2211   5.739   4.300   5.110
  735TIP3    H2 2212   5.598   4.341   5.150
  736TIP3   OH2 2213   0.468   3.865   2.733
  736TIP3    H1 2214   0.479   3.936   2.671
  736TIP3    H2 2215   0.527   3.796   2.702
  737TIP3   OH2 2216   2.751   5.701   5.037
  737TIP3    H1 2217   2.680   5.693   4.973
  737TIP3    H2 2218   2.813   5.761   4.997
  738TIP3   OH2 2219   4.465   0.096   1.909
  738TIP3    H1 2220   4.491   0.021   1.855
  738TIP3    H2 2221   4.531   0.100   1.978
  739TIP3   OH2 2222   1.022   5.794   4.497
  739TIP3    H1 2223   1.045   5.714   4.451
  739TIP3    H2 2224   1.063   5.786   4.583
  740TIP3   OH2 2225   6.116   3.988   2.771
  740TIP3    H1 2226   6.128   4.060   2.709
  740TIP3    H2 2227   6.205   3.965   2.798
  741TIP3   OH2 2228   2.862   0.220   1.674
  741TIP3    H1 2229   2.918   0.143   1.663
  741TIP3    H2 2230   2.916   0.293   1.645
  742TIP3   OH2 2231   3.659   1.470   4.450
  742TIP3    H1 2232   3.643   1.438   4.361
  742TIP3    H2 2233   3.607   1.412   4.506
  743TIP3   OH2 2234   0.088   2.677   3.344
  743TIP3    H1 2235   0.049   2.740   3.283
  743TIP3    H2 2236   0.016   2.618   3.366
  744TIP3   OH2 2237   4.291   4.424   1.127
  744TIP3    H1 2238   4.278   4.515   1.156
  744TIP3    H2 2239   4.386   4.415   1.121
  745TIP3   OH2 2240   0.792   4.996   0.501
  745TIP3    H1 2241   0.877   5.019   0.539
  745TIP3    H2 2242   0.812   4.927   0.438
  746TIP3   OH2 2243   3.617   5.860   2.803
  746TIP3    H1 2244   3.699   5.811   2.795
  746TIP3    H2 2245   3.633   5.943   2.759
  747TIP3   OH2 2246   1.700   1.072   1.800
  747TIP3    H1 2247   1.772   1.041   1.745
  747TIP3    H2 2248   1.720   1.040   1.887
  748TIP3   OH2 2249   4.101   5.668   0.474
  748TIP3    H1 2250   4.062   5.683   0.388
  748TIP3    H2 2251   4.121   5.574   0.475
  749TIP3   OH2 2252   3.973   3.106   2.521
  749TIP3    H1 2253   3.945   3.166   2.451
  749TIP3    H2 2254   3.919   3.028   2.508
  750TIP3   OH2 2255   3.355   5.279   0.779
  750TIP3    H1 2256   3.344   5.361   0.731
  750TIP3    H2 2257   3.296   5.218   0.736
  751TIP3   OH2 2258   0.698   4.172   2.356
  751TIP3    H1 2259   0.740   4.173   2.270
  751TIP3    H2 2260   0.754   4.226   2.411
  752TIP3   OH2 2261   4.632   5.598   0.422
  752TIP3    H1 2262   4.673   5.512   0.432
  752TIP3    H2 2263   4.547   5.579   0.383
  753TIP3   OH2 2264   2.215   2.628   2.357
  753TIP3    H1 2265   2.188   2.577   2.281
  753TIP3    H2 2266   2.134   2.643   2.406
  754TIP3   OH2 2267   1.319   0.706   4.461
  754TIP3    H1 2268   1.364   0.741   4.539
  754TIP3    H2 2269   1.372   0.736   4.387
  755TIP3   OH2 2270   2.774   2.246   3.661
  755TIP3    H1 2271   2.844   2.203   3.612
  755TIP3    H2 2272   2.755   2.186   3.733
  756TIP3   OH2 2273   2.827   2.142   2.388
  756TIP3    H1 2274   2.731   2.134   2.384
  756TIP3    H2 2275   2.854   2.142   2.296
  757TIP3   OH2 2276   2.662   2.156   0.072
  757TIP3    H1 2277   2.627   2.228   0.123
  757TIP3    H2 2278   2.742   2.190   0.033
  758TIP3   OH2 2279   6.181   0.187   2.581
  758TIP3    H1 2280   6.147   0.098   2.580
  758TIP3    H2 2281   6.164   0.218   2.670
  759TIP3   OH2 2282   2.036   4.861   3.338
  759TIP3    H1 2283   2.070   4.949   3.354
  759TIP3    H2 2284   1.942   4.868   3.357
  760TIP3   OH2 2285   1.319   1.157   2.520
  760TIP3    H1 2286   1.403   1.120   2.494
  760TIP3    H2 2287   1.286   1.198   2.440
  761TIP3   OH2 2288   6.203   1.867   0.111
  761TIP3    H1 2289   6.168   1.781   0.135
  761TIP3    H2 2290   6.294   1.850   0.087
  762TIP3   OH2 2291   2.559   2.360   2.205
  762TIP3    H1 2292   2.476   2.317   2.184
  762TIP3    H2 2293   2.623   2.318   2.147
  763TIP3   OH2 2294   0.627   4.834   2.104
  763TIP3    H1 2295   0.645   4.914   2.153
  763TIP3    H2 2296   0.566   4.786   2.160
  764TIP3   OH2 2297   1.540   2.838   2.817
  764TIP3    H1 2298   1.509   2.784   2.745
  764TIP3    H2 2299   1.635   2.831   2.815
  765TIP3   OH2 2300   1.771   1.348   5.139
  765TIP3    H1 2301   1.731   1.261   5.145
  765TIP3    H2 2302   1.697   1.408   5.138
  766TIP3   OH2 2303   1.380   2.078   2.744
  766TIP3    H1 2304   1.427   2.096   2.825
  766TIP3    H2 2305   1.326   2.156   2.729
  767TIP3   OH2 2306   5.380   1.504   3.142
  767TIP3    H1 2307   5.413   1.457   3.066
  767TIP3    H2 2308   5.425   1.589   3.140
  768TIP3   OH2 2309   1.509   1.497   5.117
  768TIP3    H1 2310   1.442   1.470   5.179
  768TIP3    H2 2311   1.505   1.592   5.116
  769TIP3   OH2 2312   3.265   3.776   2.209
  769TIP3    H1 2313   3.330   3.721   2.253
  769TIP3    H2 2314   3.183   3.730   2.222
  770TIP3   OH2 2315   4.646   4.829   0.899
  770TIP3    H1 2316   4.579   4.867   0.956
  770TIP3    H2 2317   4.726   4.878   0.921
  771TIP3   OH2 2318   1.012   5.255   4.188
  771TIP3    H1 2319   1.052   5.250   4.275
  771TIP3    H2 2320   0.952   5.180   4.185
  772TIP3   OH2 2321   4.799   4.693   4.187
  772TIP3    H1 2322   4.848   4.663   4.111
  772TIP3    H2 2323   4.734   4.625   4.203
  773TIP3   OH2 2324   5.824   3.335   3.663
  773TIP3    H1 2325   5.740   3.316   3.705
  773TIP3    H2 2326   5.883   3.268   3.696
  774TIP3   OH2 2327   0.617   4.229   3.021
  774TIP3    H1 2328   0.610   4.212   3.115
  774TIP3    H2 2329   0.663   4.152   2.987
  775TIP3   OH2 2330   2.945   0.522   3.876
  775TIP3    H1 2331   2.974   0.530   3.967
  775TIP3    H2 2332   2.850   0.510   3.881
  776TIP3   OH2 2333   1.886   4.552   3.205
  776TIP3    H1 2334   1.927   4.558   3.118
  776TIP3    H2 2335   1.925   4.474   3.243
  777TIP3   OH2 2336   0.818   4.545   3.430
  777TIP3    H1 2337   0.846   4.464   3.388
  777TIP3    H2 2338   0.857   4.614   3.378
  778TIP3   OH2 2339   2.972   3.769   4.974
  778TIP3    H1 2340   2.939   3.853   5.004
  778TIP3    H2 2341   3.001   3.723   5.053
  779TIP3   OH2 2342   2.082   4.345   0.457
  779TIP3    H1 2343   2.168   4.377   0.429
  779TIP3    H2 2344   2.068   4.384   0.543
  780TIP3   OH2 2345   1.051   1.300   4.735
  780TIP3    H1 2346   1.059   1.214   4.694
  780TIP3    H2 2347   0.970   1.337   4.698
  781TIP3   OH2 2348   4.873   0.181   0.284
  781TIP3    H1 2349   4.821   0.112   0.326
  781TIP3    H2 2350   4.872   0.253   0.346
  782TIP3   OH2 2351   2.064   0.252   4.747
  782TIP3    H1 2352   2.117   0.175   4.768
  782TIP3    H2 2353   1.976   0.229   4.775
  783TIP3   OH2 2354   2.545   0.067   2.125
  783TIP3    H1 2355   2.633   0.086   2.093
  783TIP3    H2 2356   2.558   0.020   2.207
  784TIP3   OH2 2357   4.749   1.865   0.429
  784TIP3    H1 2358   4.718   1.940   0.378
  784TIP3    H2 2359   4.694   1.792   0.400
  785TIP3   OH2 2360   0.006   3.303   0.502
  785TIP3    H1 2361  -0.041   3.295   0.585
  785TIP3    H2 2362  -0.029   3.383   0.462
  786TIP3   OH2 2363   3.544   0.827   0.932
  786TIP3    H1 2364   3.611   0.894   0.949
  786TIP3    H2 2365   3.463   0.865   0.968
  787TIP3   OH2 2366   1.304   4.281   2.673
  787TIP3    H1 2367   1.292   4.258   2.581
  787TIP3    H2 2368   1.391   4.247   2.695
  788TIP3   OH2 2369   0.733   2.974   3.806
  788TIP3    H1 2370   0.739   3.068   3.789
  788TIP3    H2 2371   0.679   2.941   3.734
  789TIP3   OH2 2372   2.648   3.888   1.759
  789TIP3    H1 2373   2.575   3.885   1.697
  789TIP3    H2 2374   2.721   3.925   1.709
  790TIP3   OH2 2375   2.204   5.530   3.233
  790TIP3    H1 2376   2.245   5.524   3.320
  790TIP3    H2 2377   2.210   5.442   3.198
  791TIP3   OH2 2378   0.393   0.631   2.940
  791TIP3    H1 2379   0.411   0.541   2.911
  791TIP3    H2 2380   0.430   0.686   2.872
  792TIP3   OH2 2381   4.288   3.548   1.321
  792TIP3    H1 2382   4.266   3.641   1.314
  792TIP3    H2 2383   4.242   3.518   1.399
  793TIP3   OH2 2384   4.557   1.727   4.402
  793TIP3    H1 2385   4.636   1.768   4.367
  793TIP3    H2 2386   4.485   1.779   4.368
  794TIP3   OH2 2387   6.299   5.416   3.115
  794TIP3    H1 2388   6.343   5.498   3.094
  794TIP3    H2 2389   6.344   5.350   3.062
  795TIP3   OH2 2390   2.070   3.045   0.112
  795TIP3    H1 2391   2.008   2.973   0.101
  795TIP3    H2 2392   2.131   3.036   0.039
  796TIP3   OH2 2393   5.723   3.925   4.047
  796TIP3    H1 2394   5.772   3.976   3.982
  796TIP3    H2 2395   5.777   3.929   4.126
  797TIP3   OH2 2396   0.639   5.571   4.129
  797TIP3    H1 2397   0.674   5.657   4.150
  797TIP3    H2 2398   0.716   5.517   4.109
  798TIP3   OH2 2399   1.916   1.902   0.445
  798TIP3    H1 2400   1.833   1.870   0.478
  798TIP3    H2 2401   1.965   1.823   0.421
  799TIP3   OH2 2402   3.642   1.811   3.371
  799TIP3    H1 2403   3.608   1.737   3.321
  799TIP3    H2 2404   3.683   1.771   3.448
  800TIP3   OH2 2405   3.938   3.538   0.900
  800TIP3    H1 2406   3.972   3.604   0.839
  800TIP3    H2 2407   4.011   3.522   0.961
  801TIP3   OH2 2408   1.314   4.701   2.740
  801TIP3    H1 2409   1.241   4.705   2.678
  801TIP3    H2 2410   1.273   4.688   2.825
  802TIP3   OH2 2411   0.798   2.226   2.117
  802TIP3    H1 2412   0.784   2.300   2.176
  802TIP3    H2 2413   0.713   2.210   2.077
  803TIP3   OH2 2414   4.699   4.923   3.981
  803TIP3    H1 2415   4.763   4.957   4.043
  803TIP3    H2 2416   4.615   4.931   4.026
  804TIP3   OH2 2417   3.241   4.313   0.831
  804TIP3    H1 2418   3.184   4.353   0.765
  804TIP3    H2 2419   3.307   4.380   0.849
  805TIP3   OH2 2420   2.383   0.279   2.248
  805TIP3    H1 2421   2.476   0.263   2.233
  805TIP3    H2 2422   2.376   0.292   2.343
  806TIP3   OH2 2423   4.769   3.924   1.936
  806TIP3    H1 2424   4.819   4.005   1.942
  806TIP3    H2 2425   4.807   3.866   2.002
  807TIP3   OH2 2426   5.813   2.524   3.412
  807TIP3    H1 2427   5.882   2.551   3.351
  807TIP3    H2 2428   5.797   2.601   3.466
  808TIP3   OH2 2429   3.728   1.502   2.107
  808TIP3    H1 2430   3.801   1.442   2.120
  808TIP3    H2 2431   3.658   1.466   2.162
  809TIP3   OH2 2432   5.006   0.455   2.431
  809TIP3    H1 2433   5.033   0.522   2.495
  809TIP3    H2 2434   4.922   0.487   2.398
  810TIP3   OH2 2435   5.635   3.718   5.103
  810TIP3    H1 2436   5.650   3.803   5.061
  810TIP3    H2 2437   5.674   3.726   5.190
  811TIP3   OH2 2438   1.561   0.250   1.727
  811TIP3    H1 2439   1.484   0.207   1.767
  811TIP3    H2 2440   1.621   0.262   1.800
  812TIP3   OH2 2441   2.949   5.701   0.213
  812TIP3    H1 2442   2.960   5.687   0.119
  812TIP3    H2 2443   2.999   5.780   0.231
  813TIP3   OH2 2444   3.685   1.463   3.388
  813TIP3    H1 2445   3.774   1.500   3.394
  813TIP3    H2 2446   3.683   1.420   3.302
  814TIP3   OH2 2447   1.091   4.410   4.094
  814TIP3    H1 2448   1.117   4.461   4.018
  814TIP3    H2 2449   1.172   4.398   4.144
  815TIP3   OH2 2450   3.068   5.447   1.451
  815TIP3    H1 2451   3.133   5.515   1.466
  815TIP3    H2 2452   3.035   5.463   1.363
  816TIP3   OH2 2453   3.847   2.103   1.172
  816TIP3    H1 2454   3.896   2.069   1.246
  816TIP3    H2 2455   3.914   2.143   1.116
  817TIP3   OH2 2456   4.215   1.692   3.998
  817TIP3    H1 2457   4.185   1.741   3.922
  817TIP3    H2 2458   4.208   1.754   4.071
  818TIP3   OH2 2459   1.164   5.489   2.364
  818TIP3    H1 2460   1.151   5.520   2.274
  818TIP3    H2 2461   1.247   5.527   2.391
  819TIP3   OH2 2462   1.683   4.376   3.237
  819TIP3    H1 2463   1.674   4.389   3.331
  819TIP3    H2 2464   1.748   4.441   3.210
  820TIP3   OH2 2465   0.911   2.647   4.537
  820TIP3    H1 2466   0.933   2.708   4.608
  820TIP3    H2 2467   0.899   2.703   4.461
  821TIP3   OH2 2468   0.899   0.356   5.025
  821TIP3    H1 2469   0.849   0.275   5.033
  821TIP3    H2 2470   0.990   0.328   5.027
  822TIP3   OH2 2471   5.930   5.574   0.138
  822TIP3    H1 2472   5.876   5.650   0.160
  822TIP3    H2 2473   5.974   5.552   0.220
  823TIP3   OH2 2474   1.841   0.954   3.181
  823TIP3    H1 2475   1.935   0.963   3.192
  823TIP3    H2 2476   1.817   0.877   3.232
  824TIP3   OH2 2477   5.977   2.413   2.311
  824TIP3    H1 2478   6.051   2.378   2.260
  824TIP3    H2 2479   5.951   2.491   2.263
  825TIP3   OH2 2480   4.107   5.284   3.863
  825TIP3    H1 2481   4.037   5.229   3.899
  825TIP3    H2 2482   4.188   5.245   3.896
  826TIP3   OH2 2483   1.212   3.138   4.293
  826TIP3    H1 2484   1.230   3.166   4.203
  826TIP3    H2 2485   1.269   3.063   4.307
  827TIP3   OH2 2486   3.149   1.814   1.280
  827TIP3    H1 2487   3.240   1.789   1.263
  827TIP3    H2 2488   3.152   1.853   1.368
  828TIP3   OH2 2489   1.959   2.807   2.447
  828TIP3    H1 2490   1.898   2.758   2.502
  828TIP3    H2 2491   1.922   2.799   2.359
  829TIP3   OH2 2492   3.601   5.567   5.155
  829TIP3    H1 2493   3.640   5.622   5.223
  829TIP3    H2 2494   3.673   5.549   5.095
  830TIP3   OH2 2495   0.340   3.980   4.536
  830TIP3    H1 2496   0.330   3.931   4.618
  830TIP3    H2 2497   0.422   4.028   4.547
  831TIP3   OH2 2498   5.984   3.500   3.287
  831TIP3    H1 2499   6.043   3.555   3.235
  831TIP3    H2 2500   5.948   3.437   3.225
  832TIP3   OH2 2501   3.876   0.509   1.117
  832TIP3    H1 2502   3.870   0.520   1.212
  832TIP3    H2 2503   3.966   0.480   1.102
  833TIP3   OH2 2504   2.490   3.429   4.034
  833TIP3    H1 2505   2.444   3.510   4.011
  833TIP3    H2 2506   2.571   3.459   4.075
  834TIP3   OH2 2507   0.839   5.296   0.538
  834TIP3    H1 2508   0.873   5.349   0.466
  834TIP3    H2 2509   0.847   5.351   0.615
  835TIP3   OH2 2510   0.953  -0.014   3.400
  835TIP3    H1 2511   0.996   0.059   3.445
  835TIP3    H2 2512   0.921   0.024   3.318
  836TIP3   OH2 2513   2.714   0.697   1.344
  836TIP3    H1 2514   2.696   0.747   1.424
  836TIP3    H2 2515   2.806   0.672   1.351
  837TIP3   OH2 2516   3.415   1.247   3.647
  837TIP3    H1 2517   3.486   1.213   3.591
  837TIP3    H2 2518   3.460   1.300   3.712
  838TIP3   OH2 2519   6.304   0.993   3.728
  838TIP3    H1 2520   6.340   0.904   3.721
  838TIP3    H2 2521   6.214   0.985   3.698
  839TIP3   OH2 2522   5.666   5.209   0.471
  839TIP3    H1 2523   5.643   5.283   0.415
  839TIP3    H2 2524   5.701   5.143   0.411
  840TIP3   OH2 2525   4.097   5.364   2.926
  840TIP3    H1 2526   4.151   5.388   3.002
  840TIP3    H2 2527   4.035   5.300   2.961
  841TIP3   OH2 2528   0.291   2.031   0.076
  841TIP3    H1 2529   0.337   2.083   0.010
  841TIP3    H2 2530   0.232   2.093   0.118
  842TIP3   OH2 2531   6.274   1.322   0.657
  842TIP3    H1 2532   6.237   1.353   0.739
  842TIP3    H2 2533   6.369   1.327   0.670
  843TIP3   OH2 2534   4.392   0.959   2.400
  843TIP3    H1 2535   4.414   0.940   2.491
  843TIP3    H2 2536   4.476   0.973   2.357
  844TIP3   OH2 2537   5.530   5.266   2.162
  844TIP3    H1 2538   5.611   5.273   2.111
  844TIP3    H2 2539   5.559   5.258   2.253
  845TIP3   OH2 2540   3.691   5.293   3.259
  845TIP3    H1 2541   3.757   5.224   3.258
  845TIP3    H2 2542   3.607   5.247   3.262
  846TIP3   OH2 2543   5.033   1.724   2.540
  846TIP3    H1 2544   5.112   1.759   2.499
  846TIP3    H2 2545   5.065   1.658   2.601
  847TIP3   OH2 2546   4.348   5.738   3.454
  847TIP3    H1 2547   4.399   5.660   3.431
  847TIP3    H2 2548   4.260   5.704   3.472
  848TIP3   OH2 2549   1.191   3.587   2.906
  848TIP3    H1 2550   1.212   3.603   2.814
  848TIP3    H2 2551   1.270   3.611   2.954
  849TIP3   OH2 2552   1.589   0.520   1.881
  849TIP3    H1 2553   1.646   0.460   1.929
  849TIP3    H2 2554   1.500   0.495   1.904
  850TIP3   OH2 2555   1.570   3.276   0.204
  850TIP3    H1 2556   1.660   3.244   0.202
  850TIP3    H2 2557   1.540   3.267   0.113
  851TIP3   OH2 2558   4.468   1.187   1.796
  851TIP3    H1 2559   4.509   1.265   1.833
  851TIP3    H2 2560   4.443   1.213   1.707
  852TIP3   OH2 2561   3.738   4.899   1.509
  852TIP3    H1 2562   3.748   4.963   1.578
  852TIP3    H2 2563   3.733   4.951   1.428
  853TIP3   OH2 2564   2.179   2.057   1.670
  853TIP3    H1 2565   2.117   2.090   1.605
  853TIP3    H2 2566   2.260   2.042   1.622
  854TIP3   OH2 2567   4.983   1.052   4.724
  854TIP3    H1 2568   5.022   0.969   4.696
  854TIP3    H2 2569   4.889   1.036   4.720
  855TIP3   OH2 2570   2.393   4.816   1.711
  855TIP3    H1 2571   2.367   4.731   1.676
  855TIP3    H2 2572   2.463   4.846   1.653
  856TIP3   OH2 2573   2.946   5.682   1.788
  856TIP3    H1 2574   2.968   5.613   1.851
  856TIP3    H2 2575   3.008   5.752   1.809
  857TIP3   OH2 2576   0.032   4.012   2.513
  857TIP3    H1 2577   0.041   3.977   2.602
  857TIP3    H2 2578  -0.048   4.064   2.516
  858TIP3   OH2 2579   1.575   5.376   2.502
  858TIP3    H1 2580   1.656   5.404   2.461
  858TIP3    H2 2581   1.599   5.297   2.551
  859TIP3   OH2 2582   2.054   0.613   1.374
  859TIP3    H1 2583   2.007   0.641   1.452
  859TIP3    H2 2584   2.032   0.521   1.364
  860TIP3   OH2 2585   0.960   1.891   3.934
  860TIP3    H1 2586   0.958   1.926   3.845
  860TIP3    H2 2587   1.053   1.894   3.959
  861TIP3   OH2 2588   5.441   3.724   1.182
  861TIP3    H1 2589   5.391   3.803   1.160
  861TIP3    H2 2590   5.418   3.705   1.273
  862TIP3   OH2 2591   0.825   2.225   1.584
  862TIP3    H1 2592   0.866   2.253   1.502
  862TIP3    H2 2593   0.737   2.197   1.559
  863TIP3   OH2 2594   2.980   5.083   2.626
  863TIP3    H1 2595   3.042   5.022   2.665
  863TIP3    H2 2596   2.960   5.145   2.696
  864TIP3   OH2 2597   4.656   2.689   1.768
  864TIP3    H1 2598   4.590   2.646   1.822
  864TIP3    H2 2599   4.728   2.708   1.828
  865TIP3   OH2 2600   5.063   0.467   3.479
  865TIP3    H1 2601   5.007   0.403   3.524
  865TIP3    H2 2602   5.123   0.497   3.546
  866TIP3   OH2 2603   1.828   0.010   4.223
  866TIP3    H1 2604   1.870  -0.068   4.260
  866TIP3    H2 2605   1.768   0.039   4.292
  867TIP3   OH2 2606   4.406   2.152   2.800
  867TIP3    H1 2607   4.367   2.081   2.749
  867TIP3    H2 2608   4.488   2.114   2.834
  868TIP3   OH2 2609   3.436   2.595   3.198
  868TIP3    H1 2610   3.380   2.598   3.120
  868TIP3    H2 2611   3.427   2.681   3.237
  869TIP3   OH2 2612   0.125   0.832   1.985
  869TIP3    H1 2613   0.141   0.788   2.068
  869TIP3    H2 2614   0.071   0.770   1.935
  870TIP3   OH2 2615   1.876   4.121   4.425
  870TIP3    H1 2616   1.915   4.186   4.483
  870TIP3    H2 2617   1.923   4.040   4.446
  871TIP3   OH2 2618   1.185   2.440   0.746
  871TIP3    H1 2619   1.180   2.496   0.823
  871TIP3    H2 2620   1.253   2.481   0.691
  872TIP3   OH2 2621   0.509   4.486   2.074
  872TIP3    H1 2622   0.491   4.393   2.085
  872TIP3    H2 2623   0.539   4.515   2.160
  873TIP3   OH2 2624   0.992   4.952   3.267
  873TIP3    H1 2625   1.018   5.011   3.196
  873TIP3    H2 2626   0.993   5.007   3.345
  874TIP3   OH2 2627   6.271  -0.042   3.976
  874TIP3    H1 2628   6.224   0.033   4.013
  874TIP3    H2 2629   6.290  -0.015   3.886
  875TIP3   OH2 2630   3.624   0.557   1.935
  875TIP3    H1 2631   3.621   0.608   2.016
  875TIP3    H2 2632   3.570   0.480   1.953
  876TIP3   OH2 2633   5.401   2.506   4.894
  876TIP3    H1 2634   5.328   2.482   4.951
  876TIP3    H2 2635   5.447   2.575   4.941
  877TIP3   OH2 2636   3.004   3.260   1.299
  877TIP3    H1 2637   3.056   3.303   1.367
  877TIP3    H2 2638   3.063   3.253   1.224
  878TIP3   OH2 2639   1.355   4.457   1.392
  878TIP3    H1 2640   1.320   4.404   1.464
  878TIP3    H2 2641   1.364   4.395   1.319
  879TIP3   OH2 2642   5.526   3.671   2.484
  879TIP3    H1 2643   5.559   3.605   2.545
  879TIP3    H2 2644   5.590   3.673   2.413
  880TIP3   OH2 2645   1.633   2.070   4.543
  880TIP3    H1 2646   1.652   2.055   4.450
  880TIP3    H2 2647   1.568   2.139   4.543
  881TIP3   OH2 2648   0.828   3.609   3.447
  881TIP3    H1 2649   0.811   3.645   3.360
  881TIP3    H2 2650   0.793   3.676   3.507
  882TIP3   OH2 2651   1.795   1.289   3.569
  882TIP3    H1 2652   1.780   1.236   3.491
  882TIP3    H2 2653   1.707   1.310   3.600
  883TIP3   OH2 2654   4.330   5.641   1.235
  883TIP3    H1 2655   4.413   5.619   1.192
  883TIP3    H2 2656   4.357   5.678   1.320
  884TIP3   OH2 2657   3.003   1.758   4.605
  884TIP3    H1 2658   3.032   1.840   4.646
  884TIP3    H2 2659   3.019   1.692   4.672
  885TIP3   OH2 2660   5.965   3.335   1.214
  885TIP3    H1 2661   5.998   3.262   1.265
  885TIP3    H2 2662   5.878   3.353   1.251
  886TIP3   OH2 2663   1.854   5.847   1.508
  886TIP3    H1 2664   1.882   5.761   1.475
  886TIP3    H2 2665   1.912   5.909   1.464
  887TIP3   OH2 2666   4.221   4.013   4.067
  887TIP3    H1 2667   4.292   3.951   4.085
  887TIP3    H2 2668   4.240   4.088   4.123
  888TIP3   OH2 2669   5.457   1.972   3.262
  888TIP3    H1 2670   5.404   2.044   3.294
  888TIP3    H2 2671   5.450   1.977   3.167
  889TIP3   OH2 2672   0.682   4.714   3.624
  889TIP3    H1 2673   0.623   4.658   3.674
  889TIP3    H2 2674   0.714   4.658   3.553
  890TIP3   OH2 2675   1.377   0.372   4.142
  890TIP3    H1 2676   1.411   0.442   4.198
  890TIP3    H2 2677   1.428   0.295   4.166
  891TIP3   OH2 2678   2.570   3.191   4.691
  891TIP3    H1 2679   2.556   3.266   4.632
  891TIP3    H2 2680   2.656   3.157   4.666
  892TIP3   OH2 2681   0.389   1.826   4.838
  892TIP3    H1 2682   0.367   1.900   4.895
  892TIP3    H2 2683   0.306   1.780   4.827
  893TIP3   OH2 2684   5.185   3.357   1.401
  893TIP3    H1 2685   5.117   3.403   1.452
  893TIP3    H2 2686   5.149   3.353   1.312
  894TIP3   OH2 2687   4.593   0.408   1.166
  894TIP3    H1 2688   4.520   0.353   1.136
  894TIP3    H2 2689   4.601   0.476   1.100
  895TIP3   OH2 2690   3.047   3.579   1.938
  895TIP3    H1 2691   3.002   3.654   1.977
  895TIP3    H2 2692   3.045   3.512   2.007
  896TIP3   OH2 2693   0.193   3.165   0.174
  896TIP3    H1 2694   0.178   3.096   0.110
  896TIP3    H2 2695   0.191   3.246   0.123
  897TIP3   OH2 2696   6.090   4.914   3.091
  897TIP3    H1 2697   6.017   4.944   3.036
  897TIP3    H2 2698   6.155   4.884   3.028
  898TIP3   OH2 2699   0.736   2.172   3.718
  898TIP3    H1 2700   0.725   2.265   3.699
  898TIP3    H2 2701   0.721   2.164   3.812
  899TIP3   OH2 2702   0.387   5.720   3.148
  899TIP3    H1 2703   0.423   5.637   3.117
  899TIP3    H2 2704   0.364   5.768   3.068
  900TIP3   OH2 2705   0.216   1.686   4.640
  900TIP3    H1 2706   0.289   1.631   4.669
  900TIP3    H2 2707   0.221   1.683   4.545
  901TIP3   OH2 2708   2.682   0.025   3.920
  901TIP3    H1 2709   2.773   0.049   3.907
  901TIP3    H2 2710   2.649   0.089   3.983
  902TIP3   OH2 2711   1.147   5.391   3.142
  902TIP3    H1 2712   1.154   5.377   3.237
  902TIP3    H2 2713   1.236   5.415   3.116
  903TIP3   OH2 2714   3.112   4.846   4.835
  903TIP3    H1 2715   3.129   4.890   4.918
  903TIP3    H2 2716   3.118   4.753   4.856
  904TIP3   OH2 2717   5.020   1.819   4.157
  904TIP3    H1 2718   5.080   1.748   4.136
  904TIP3    H2 2719   5.076   1.889   4.190
  905TIP3   OH2 2720   4.473   3.378   4.640
  905TIP3    H1 2721   4.382   3.373   4.612
  905TIP3    H2 2722   4.501   3.287   4.650
  906TIP3   OH2 2723   2.100   1.085   3.099
  906TIP3    H1 2724   2.064   1.167   3.135
  906TIP3    H2 2725   2.172   1.063   3.158
  907TIP3   OH2 2726   4.164   0.817   4.413
  907TIP3    H1 2727   4.200   0.897   4.375
  907TIP3    H2 2728   4.184   0.825   4.507
  908TIP3   OH2 2729   5.384   0.392   5.084
  908TIP3    H1 2730   5.292   0.404   5.062
  908TIP3    H2 2731   5.428   0.385   4.999
  909TIP3   OH2 2732   0.243   3.753   3.451
  909TIP3    H1 2733   0.299   3.782   3.379
  909TIP3    H2 2734   0.154   3.772   3.420
  910TIP3   OH2 2735   2.552   1.825   2.541
  910TIP3    H1 2736   2.531   1.797   2.452
  910TIP3    H2 2737   2.493   1.897   2.559
  911TIP3   OH2 2738   3.994   5.094   4.036
  911TIP3    H1 2739   3.909   5.059   4.065
  911TIP3    H2 2740   4.035   5.127   4.116
  912TIP3   OH2 2741   5.762   4.569   1.325
  912TIP3    H1 2742   5.774   4.623   1.403
  912TIP3    H2 2743   5.697   4.503   1.351
  913TIP3   OH2 2744   5.870   3.091   1.682
  913TIP3    H1 2745   5.840   3.057   1.598
  913TIP3    H2 2746   5.862   3.186   1.675
  914TIP3   OH2 2747   1.401   1.349   4.904
  914TIP3    H1 2748   1.474   1.340   4.844
  914TIP3    H2 2749   1.433   1.408   4.973
  915TIP3   OH2 2750   4.501   0.561   1.396
  915TIP3    H1 2751   4.548   0.509   1.331
  915TIP3    H2 2752   4.523   0.522   1.480
  916TIP3   OH2 2753   3.038   3.415   2.477
  916TIP3    H1 2754   3.130   3.424   2.453
  916TIP3    H2 2755   3.039   3.367   2.559
  917TIP3   OH2 2756   3.704   3.498   1.388
  917TIP3    H1 2757   3.721   3.550   1.309
  917TIP3    H2 2758   3.609   3.492   1.393
  918TIP3   OH2 2759   2.454   3.884   1.577
  918TIP3    H1 2760   2.392   3.812   1.568
  918TIP3    H2 2761   2.493   3.893   1.490
  919TIP3   OH2 2762   5.975   1.375   3.133
  919TIP3    H1 2763   6.051   1.433   3.131
  919TIP3    H2 2764   5.905   1.427   3.172
  920TIP3   OH2 2765   2.607   3.981   0.424
  920TIP3    H1 2766   2.684   4.018   0.468
  920TIP3    H2 2767   2.584   4.046   0.357
  921TIP3   OH2 2768   1.394   4.911   2.435
  921TIP3    H1 2769   1.392   4.967   2.358
  921TIP3    H2 2770   1.319   4.938   2.487
  922TIP3   OH2 2771   0.338   2.813   0.954
  922TIP3    H1 2772   0.290   2.791   0.875
  922TIP3    H2 2773   0.394   2.887   0.929
  923TIP3   OH2 2774   4.579   2.901   2.106
  923TIP3    H1 2775   4.521   2.911   2.181
  923TIP3    H2 2776   4.601   2.808   2.106
  924TIP3   OH2 2777   3.340   3.515   4.553
  924TIP3    H1 2778   3.328   3.548   4.643
  924TIP3    H2 2779   3.432   3.492   4.549
  925TIP3   OH2 2780   1.863   4.114   0.891
  925TIP3    H1 2781   1.953   4.146   0.893
  925TIP3    H2 2782   1.871   4.020   0.876
  926TIP3   OH2 2783   0.799   2.620   1.092
  926TIP3    H1 2784   0.741   2.546   1.106
  926TIP3    H2 2785   0.887   2.583   1.094
  927TIP3   OH2 2786   3.568   0.013   4.085
  927TIP3    H1 2787   3.542   0.104   4.067
  927TIP3    H2 2788   3.548  -0.034   4.004
  928TIP3   OH2 2789   1.168   3.665   4.468
  928TIP3    H1 2790   1.098   3.728   4.454
  928TIP3    H2 2791   1.191   3.634   4.381
  929TIP3   OH2 2792   5.895   5.807   0.808
  929TIP3    H1 2793   5.965   5.757   0.766
  929TIP3    H2 2794   5.820   5.748   0.810
  930TIP3   OH2 2795   0.718   3.037   4.594
  930TIP3    H1 2796   0.630   3.012   4.566
  930TIP3    H2 2797   0.776   3.003   4.527
  931TIP3   OH2 2798   0.839   5.365   2.112
  931TIP3    H1 2799   0.920   5.379   2.162
  931TIP3    H2 2800   0.827   5.270   2.111
  932TIP3   OH2 2801   2.285   4.192   5.150
  932TIP3    H1 2802   2.198   4.221   5.124
  932TIP3    H2 2803   2.339   4.208   5.073
  933TIP3   OH2 2804   1.770   1.166   4.620
  933TIP3    H1 2805   1.735   1.237   4.674
  933TIP3    H2 2806   1.785   1.094   4.681
  934TIP3   OH2 2807   1.114   2.719   3.640
  934TIP3    H1 2808   1.205   2.714   3.614
  934TIP3    H2 2809   1.109   2.669   3.722
  935TIP3   OH2 2810   4.310  -0.015   4.044
  935TIP3    H1 2811   4.281   0.066   4.002
  935TIP3    H2 2812   4.336   0.011   4.132
  936TIP3   OH2 2813   2.105   4.115   0.081
  936TIP3    H1 2814   2.105   4.104   0.176
  936TIP3    H2 2815   2.178   4.062   0.050
  937TIP3   OH2 2816   2.117   1.373   2.384
  937TIP3    H1 2817   2.070   1.417   2.314
  937TIP3    H2 2818   2.108   1.279   2.364
  938TIP3   OH2 2819   4.119   5.380   0.422
  938TIP3    H1 2820   4.181   5.378   0.349
  938TIP3    H2 2821   4.043   5.331   0.391
  939TIP3   OH2 2822   5.749   4.482   2.685
  939TIP3    H1 2823   5.737   4.404   2.631
  939TIP3    H2 2824   5.734   4.452   2.775
  940TIP3   OH2 2825   1.020   1.862   3.142
  940TIP3    H1 2826   1.015   1.900   3.230
  940TIP3    H2 2827   1.060   1.931   3.089
  941TIP3   OH2 2828   3.952   5.078   0.773
  941TIP3    H1 2829   3.907   5.037   0.847
  941TIP3    H2 2830   3.924   5.026   0.697
  942TIP3   OH2 2831   1.174   2.677   0.519
  942TIP3    H1 2832   1.116   2.735   0.569
  942TIP3    H2 2833   1.246   2.657   0.579
  943TIP3   OH2 2834   4.351   3.226   1.795
  943TIP3    H1 2835   4.369   3.133   1.806
  943TIP3    H2 2836   4.434   3.269   1.816
  944TIP3   OH2 2837   0.612   1.957   0.266
  944TIP3    H1 2838   0.546   1.887   0.267
  944TIP3    H2 2839   0.676   1.929   0.201
  945TIP3   OH2 2840   4.451   1.886   0.519
  945TIP3    H1 2841   4.419   1.885   0.429
  945TIP3    H2 2842   4.502   1.966   0.526
  946TIP3   OH2 2843   6.034   4.377   4.841
  946TIP3    H1 2844   6.120   4.342   4.818
  946TIP3    H2 2845   5.997   4.313   4.901
  947TIP3   OH2 2846   3.428   2.316   4.418
  947TIP3    H1 2847   3.391   2.237   4.457
  947TIP3    H2 2848   3.522   2.297   4.412
  948TIP3   OH2 2849   5.452   1.899   2.602
  948TIP3    H1 2850   5.385   1.908   2.534
  948TIP3    H2 2851   5.523   1.851   2.560
  949TIP3   OH2 2852   0.375   4.533   1.353
  949TIP3    H1 2853   0.330   4.497   1.430
  949TIP3    H2 2854   0.309   4.587   1.309
  950TIP3   OH2 2855   4.076   2.779   4.672
  950TIP3    H1 2856   4.157   2.774   4.723
  950TIP3    H2 2857   4.010   2.806   4.735
  951TIP3   OH2 2858   4.122   5.174   1.873
  951TIP3    H1 2859   4.064   5.247   1.895
  951TIP3    H2 2860   4.115   5.165   1.778
  952TIP3   OH2 2861   2.159   5.579   0.054
  952TIP3    H1 2862   2.219   5.539   0.117
  952TIP3    H2 2863   2.137   5.508  -0.007
  953TIP3   OH2 2864   5.231   3.418   0.889
  953TIP3    H1 2865   5.160   3.432   0.951
  953TIP3    H2 2866   5.193   3.435   0.803
  954TIP3   OH2 2867   0.986   4.447   2.082
  954TIP3    H1 2868   0.926   4.506   2.036
  954TIP3    H2 2869   1.068   4.452   2.031
  955TIP3   OH2 2870   5.746   0.050   3.854
  955TIP3    H1 2871   5.780   0.087   3.772
  955TIP3    H2 2872   5.656   0.024   3.832
  956TIP3   OH2 2873   3.766   5.851   3.063
  956TIP3    H1 2874   3.794   5.781   3.122
  956TIP3    H2 2875   3.800   5.825   2.978
  957TIP3   OH2 2876   0.279   4.533   3.284
  957TIP3    H1 2877   0.372   4.534   3.259
  957TIP3    H2 2878   0.245   4.451   3.249
  958TIP3   OH2 2879   3.167   4.310   4.812
  958TIP3    H1 2880   3.122   4.294   4.894
  958TIP3    H2 2881   3.143   4.237   4.756
  959TIP3   OH2 2882   2.542   1.467   3.443
  959TIP3    H1 2883   2.541   1.376   3.471
  959TIP3    H2 2884   2.617   1.505   3.488
  960TIP3   OH2 2885   0.292   1.825   3.524
  960TIP3    H1 2886   0.216   1.859   3.570
  960TIP3    H2 2887   0.342   1.902   3.499
  961TIP3   OH2 2888   1.913   5.204   4.861
  961TIP3    H1 2889   1.861   5.132   4.897
  961TIP3    H2 2890   1.896   5.202   4.767
  962TIP3   OH2 2891   4.597   2.762   5.164
  962TIP3    H1 2892   4.682   2.807   5.164
  962TIP3    H2 2893   4.557   2.786   5.081
  963TIP3   OH2 2894   2.242   0.752   5.141
  963TIP3    H1 2895   2.257   0.747   5.235
  963TIP3    H2 2896   2.288   0.676   5.105
  964TIP3   OH2 2897   6.314   5.923   2.627
  964TIP3    H1 2898   6.268   5.871   2.693
  964TIP3    H2 2899   6.370   5.982   2.678
  965TIP3   OH2 2900   2.062   1.331   2.926
  965TIP3    H1 2901   2.049   1.375   2.842
  965TIP3    H2 2902   2.157   1.332   2.940
  966TIP3   OH2 2903   5.964   5.070   0.303
  966TIP3    H1 2904   6.009   5.104   0.226
  966TIP3    H2 2905   6.026   5.081   0.375
  967TIP3   OH2 2906   5.263   2.042   2.222
  967TIP3    H1 2907   5.210   2.048   2.302
  967TIP3    H2 2908   5.254   2.127   2.180
  968TIP3   OH2 2909   3.971   0.755   3.464
  968TIP3    H1 2910   3.987   0.781   3.374
  968TIP3    H2 2911   3.877   0.734   3.467
  969TIP3   OH2 2912   6.330   4.513   0.650
  969TIP3    H1 2913   6.404   4.467   0.611
  969TIP3    H2 2914   6.272   4.532   0.576
  970TIP3   OH2 2915   0.415   2.861   3.689
  970TIP3    H1 2916   0.349   2.881   3.623
  970TIP3    H2 2917   0.364   2.827   3.763
  971TIP3   OH2 2918   4.619   4.816   2.854
  971TIP3    H1 2919   4.623   4.887   2.790
  971TIP3    H2 2920   4.703   4.772   2.848
  972TIP3   OH2 2921   2.811   5.401   1.032
  972TIP3    H1 2922   2.887   5.357   0.993
  972TIP3    H2 2923   2.848   5.470   1.087
  973TIP3   OH2 2924   0.549   2.951   4.005
  973TIP3    H1 2925   0.606   2.956   3.929
  973TIP3    H2 2926   0.540   3.041   4.035
  974TIP3   OH2 2927   6.197   1.857   1.254
  974TIP3    H1 2928   6.220   1.880   1.164
  974TIP3    H2 2929   6.116   1.905   1.272
  975TIP3   OH2 2930   5.346   4.147   0.634
  975TIP3    H1 2931   5.316   4.208   0.701
  975TIP3    H2 2932   5.326   4.060   0.669
  976TIP3   OH2 2933   3.683   2.349   4.068
  976TIP3    H1 2934   3.676   2.281   4.136
  976TIP3    H2 2935   3.600   2.397   4.075
  977TIP3   OH2 2936   1.792   0.250   3.597
  977TIP3    H1 2937   1.829   0.242   3.685
  977TIP3    H2 2938   1.716   0.192   3.597
  978TIP3   OH2 2939   1.201   4.840   3.662
  978TIP3    H1 2940   1.147   4.803   3.592
  978TIP3    H2 2941   1.276   4.878   3.617
  979TIP3   OH2 2942   1.908   2.108   4.460
  979TIP3    H1 2943   1.828   2.124   4.510
  979TIP3    H2 2944   1.910   2.014   4.446
  980TIP3   OH2 2945   2.109   2.497   2.128
  980TIP3    H1 2946   2.034   2.439   2.140
  980TIP3    H2 2947   2.089   2.547   2.049
  981TIP3   OH2 2948   0.103   2.767   2.097
  981TIP3    H1 2949   0.030   2.828   2.087
  981TIP3    H2 2950   0.062   2.682   2.109
  982TIP3   OH2 2951   5.157   1.908   4.922
  982TIP3    H1 2952   5.251   1.907   4.906
  982TIP3    H2 2953   5.133   1.816   4.936
  983TIP3   OH2 2954   0.680   0.096   2.996
  983TIP3    H1 2955   0.611   0.162   2.996
  983TIP3    H2 2956   0.673   0.054   2.910
  984TIP3   OH2 2957   4.478   0.635   4.483
  984TIP3    H1 2958   4.528   0.679   4.551
  984TIP3    H2 2959   4.511   0.672   4.401
  985TIP3   OH2 2960   5.138   0.557   2.881
  985TIP3    H1 2961   5.141   0.640   2.835
  985TIP3    H2 2962   5.095   0.576   2.965
  986TIP3   OH2 2963   0.121   3.762   3.846
  986TIP3    H1 2964   0.094   3.820   3.917
  986TIP3    H2 2965   0.103   3.811   3.766
  987TIP3   OH2 2966   4.766   1.068   1.577
  987TIP3    H1 2967   4.746   1.150   1.533
  987TIP3    H2 2968   4.822   1.094   1.651
  988TIP3   OH2 2969   3.156   3.502   1.714
  988TIP3    H1 2970   3.100   3.530   1.787
  988TIP3    H2 2971   3.243   3.495   1.752
  989TIP3   OH2 2972   2.534   1.036   0.263
  989TIP3    H1 2973   2.507   1.120   0.225
  989TIP3    H2 2974   2.601   1.060   0.327
  990TIP3   OH2 2975   4.031   1.873   3.451
  990TIP3    H1 2976   4.000   1.785   3.429
  990TIP3    H2 2977   4.123   1.874   3.424
  991TIP3   OH2 2978   2.211   3.430   1.513
  991TIP3    H1 2979   2.131   3.448   1.464
  991TIP3    H2 2980   2.279   3.482   1.468
  992TIP3   OH2 2981   1.131   5.875   1.815
  992TIP3    H1 2982   1.119   5.894   1.721
  992TIP3    H2 2983   1.046   5.843   1.844
  993TIP3   OH2 2984   4.707   5.136   0.836
  993TIP3    H1 2985   4.672   5.217   0.799
  993TIP3    H2 2986   4.667   5.130   0.923
  994TIP3   OH2 2987   6.013   1.247   4.436
  994TIP3    H1 2988   5.965   1.276   4.514
  994TIP3    H2 2989   6.006   1.152   4.437
  995TIP3   OH2 2990   1.759   0.714   2.424
  995TIP3    H1 2991   1.677   0.675   2.455
  995TIP3    H2 2992   1.787   0.658   2.352
  996TIP3   OH2 2993   6.039   2.225   3.463
  996TIP3    H1 2994   6.066   2.313   3.492
  996TIP3    H2 2995   5.946   2.235   3.442
  997TIP3   OH2 2996   4.816   3.709   2.180
  997TIP3    H1 2997   4.765   3.721   2.260
  997TIP3    H2 2998   4.839   3.616   2.180
  998TIP3   OH2 2999   1.183   3.902   4.808
  998TIP3    H1 3000   1.208   3.947   4.727
  998TIP3    H2 3001   1.136   3.969   4.858
  999TIP3   OH2 3002   0.664   3.716   2.585
  999TIP3    H1 3003   0.668   3.627   2.551
  999TIP3    H2 3004   0.728   3.765   2.534
 1000TIP3   OH2 3005   0.023   4.658   4.719
 1000TIP3    H1 3006   0.009   4.622   4.807
 1000TIP3    H2 3007  -0.043   4.726   4.710
 1001TIP3   OH2 3008   1.680   3.784   4.501
 1001TIP3    H1 3009   1.590   3.753   4.501
 1001TIP3    H2 3010   1.732   3.707   4.476
 1002TIP3   OH2 3011   6.298   5.398   5.153
 1002TIP3    H1 3012   6.228   5.461   5.137
 1002TIP3    H2 3013   6.260   5.334   5.213
 1003TIP3   OH2 3014   0.055   3.225   3.235
 1003TIP3    H1 3015   0.104   3.200   3.313
 1003TIP3    H2 3016  -0.035   3.198   3.255
 1004TIP3   OH2 3017   4.401   5.053   1.380
 1004TIP3    H1 3018   4.348   4.974   1.376
 1004TIP3    H2 3019   4.337   5.124   1.392
 1005TIP3   OH2 3020   1.167   3.560   2.180
 1005TIP3    H1 3021   1.218   3.575   2.100
 1005TIP3    H2 3022   1.130   3.472   2.168
 1006TIP3   OH2 3023   5.554   5.811   2.093
 1006TIP3    H1 3024   5.581   5.738   2.149
 1006TIP3    H2 3025   5.508   5.871   2.152
 1007TIP3   OH2 3026   3.363   2.700   2.819
 1007TIP3    H1 3027   3.450   2.662   2.811
 1007TIP3    H2 3028   3.340   2.727   2.730
 1008TIP3   OH2 3029   2.747   4.098   1.530
 1008TIP3    H1 3030   2.679   4.083   1.465
 1008TIP3    H2 3031   2.824   4.052   1.495
 1009TIP3   OH2 3032   1.626   5.347   1.212
 1009TIP3    H1 3033   1.565   5.320   1.143
 1009TIP3    H2 3034   1.712   5.347   1.169
 1010TIP3   OH2 3035   4.074   2.717   2.016
 1010TIP3    H1 3036   4.040   2.656   1.951
 1010TIP3    H2 3037   4.048   2.803   1.984
 1011TIP3   OH2 3038   5.896   2.055   3.657
 1011TIP3    H1 3039   5.829   2.078   3.721
 1011TIP3    H2 3040   5.905   2.133   3.602
 1012TIP3   OH2 3041   4.885   5.505   3.326
 1012TIP3    H1 3042   4.889   5.518   3.231
 1012TIP3    H2 3043   4.972   5.531   3.357
 1013TIP3   OH2 3044   1.830   1.323   2.610
 1013TIP3    H1 3045   1.915   1.368   2.612
 1013TIP3    H2 3046   1.850   1.233   2.638
 1014TIP3   OH2 3047   3.945   1.585   3.370
 1014TIP3    H1 3048   3.904   1.635   3.299
 1014TIP3    H2 3049   4.028   1.555   3.333
 1015TIP3   OH2 3050   5.258   0.320   2.911
 1015TIP3    H1 3051   5.230   0.401   2.867
 1015TIP3    H2 3052   5.301   0.350   2.992
 1016TIP3   OH2 3053   1.482   3.426   1.448
 1016TIP3    H1 3054   1.531   3.363   1.396
 1016TIP3    H2 3055   1.409   3.376   1.484
 1017TIP3   OH2 3056   4.356   0.910   3.997
 1017TIP3    H1 3057   4.340   0.926   4.090
 1017TIP3    H2 3058   4.415   0.834   3.995
 1018TIP3   OH2 3059   5.419   5.816   3.972
 1018TIP3    H1 3060   5.439   5.779   4.058
 1018TIP3    H2 3061   5.361   5.890   3.991
 1019TIP3   OH2 3062   1.345   2.797   3.521
 1019TIP3    H1 3063   1.438   2.779   3.525
 1019TIP3    H2 3064   1.337   2.888   3.551
 1020TIP3   OH2 3065   0.845   2.434   2.814
 1020TIP3    H1 3066   0.892   2.435   2.730
 1020TIP3    H2 3067   0.789   2.511   2.810
 1021TIP3   OH2 3068   4.794   2.206   1.187
 1021TIP3    H1 3069   4.737   2.134   1.214
 1021TIP3    H2 3070   4.751   2.242   1.109
 1022TIP3   OH2 3071   4.405   3.910   4.785
 1022TIP3    H1 3072   4.472   3.850   4.754
 1022TIP3    H2 3073   4.452   3.992   4.803
 1023TIP3   OH2 3074   1.523   0.651   3.850
 1023TIP3    H1 3075   1.464   0.667   3.777
 1023TIP3    H2 3076   1.499   0.718   3.915
 1024TIP3   OH2 3077   2.084   0.604   0.443
 1024TIP3    H1 3078   2.036   0.567   0.517
 1024TIP3    H2 3079   2.103   0.530   0.386
 1025TIP3   OH2 3080   0.121   4.631   3.905
 1025TIP3    H1 3081   0.081   4.582   3.833
 1025TIP3    H2 3082   0.205   4.661   3.870
 1026TIP3   OH2 3083   6.079   5.725   1.511
 1026TIP3    H1 3084   6.040   5.793   1.566
 1026TIP3    H2 3085   6.021   5.649   1.521
 1027TIP3   OH2 3086   5.130   1.685   4.582
 1027TIP3    H1 3087   5.130   1.593   4.553
 1027TIP3    H2 3088   5.217   1.717   4.558
 1028TIP3   OH2 3089   3.099   1.979   4.178
 1028TIP3    H1 3090   3.121   1.907   4.237
 1028TIP3    H2 3091   3.176   2.035   4.179
 1029TIP3   OH2 3092   6.213   4.777   1.084
 1029TIP3    H1 3093   6.266   4.831   1.142
 1029TIP3    H2 3094   6.270   4.758   1.010
 1030TIP3   OH2 3095   3.357   2.131   5.128
 1030TIP3    H1 3096   3.335   2.110   5.218
 1030TIP3    H2 3097   3.320   2.219   5.114
 1031TIP3   OH2 3098   1.717   4.853   4.322
 1031TIP3    H1 3099   1.673   4.782   4.369
 1031TIP3    H2 3100   1.809   4.845   4.348
 1032TIP3   OH2 3101   5.942   0.944   0.959
 1032TIP3    H1 3102   5.993   1.025   0.954
 1032TIP3    H2 3103   5.851   0.974   0.952
 1033TIP3   OH2 3104   0.870   2.657   3.482
 1033TIP3    H1 3105   0.808   2.729   3.491
 1033TIP3    H2 3106   0.953   2.694   3.513
 1034TIP3   OH2 3107   2.841   4.373   0.852
 1034TIP3    H1 3108   2.871   4.291   0.891
 1034TIP3    H2 3109   2.878   4.373   0.764
 1035TIP3   OH2 3110   2.214   1.299   0.554
 1035TIP3    H1 3111   2.275   1.304   0.481
 1035TIP3    H2 3112   2.193   1.390   0.575
 1036TIP3   OH2 3113   2.957   0.965   2.996
 1036TIP3    H1 3114   2.882   1.024   2.990
 1036TIP3    H2 3115   2.942   0.900   2.928
 1037TIP3   OH2 3116   2.393   5.917   3.887
 1037TIP3    H1 3117   2.313   5.935   3.936
 1037TIP3    H2 3118   2.375   5.950   3.799
 1038TIP3   OH2 3119   3.736   1.135   0.112
 1038TIP3    H1 3120   3.812   1.079   0.101
 1038TIP3    H2 3121   3.724   1.142   0.206
 1039TIP3   OH2 3122   5.038   4.851   0.014
 1039TIP3    H1 3123   4.952   4.865   0.052
 1039TIP3    H2 3124   5.021   4.802  -0.067
 1040TIP3   OH2 3125   5.771   5.599   1.708
 1040TIP3    H1 3126   5.714   5.548   1.651
 1040TIP3    H2 3127   5.750   5.690   1.687
 1041TIP3   OH2 3128   6.230   0.853   3.203
 1041TIP3    H1 3129   6.150   0.816   3.239
 1041TIP3    H2 3130   6.214   0.947   3.200
 1042TIP3   OH2 3131   5.246   2.513   3.303
 1042TIP3    H1 3132   5.336   2.492   3.325
 1042TIP3    H2 3133   5.194   2.448   3.349
 1043TIP3   OH2 3134   1.884   5.779   1.963
 1043TIP3    H1 3135   1.856   5.870   1.955
 1043TIP3    H2 3136   1.938   5.764   1.886
 1044TIP3   OH2 3137   4.641   5.514   3.826
 1044TIP3    H1 3138   4.655   5.530   3.733
 1044TIP3    H2 3139   4.606   5.596   3.859
 1045TIP3   OH2 3140   3.922   2.387   0.772
 1045TIP3    H1 3141   3.848   2.348   0.818
 1045TIP3    H2 3142   3.891   2.402   0.683
 1046TIP3   OH2 3143   1.162   0.819   3.995
 1046TIP3    H1 3144   1.066   0.822   3.985
 1046TIP3    H2 3145   1.180   0.728   4.020
 1047TIP3   OH2 3146   3.111   4.027   3.486
 1047TIP3    H1 3147   3.196   4.060   3.456
 1047TIP3    H2 3148   3.117   3.932   3.475
 1048TIP3   OH2 3149   0.029   1.149   4.925
 1048TIP3    H1 3150  -0.026   1.123   4.999
 1048TIP3    H2 3151   0.094   1.208   4.964
 1049TIP3   OH2 3152   5.509   4.504   4.660
 1049TIP3    H1 3153   5.580   4.463   4.710
 1049TIP3    H2 3154   5.429   4.473   4.703
 1050TIP3   OH2 3155   1.608   5.008   2.974
 1050TIP3    H1 3156   1.542   4.968   2.918
 1050TIP3    H2 3157   1.595   4.966   3.059
 1051TIP3   OH2 3158   4.718   1.975   3.707
 1051TIP3    H1 3159   4.623   1.981   3.719
 1051TIP3    H2 3160   4.730   1.901   3.647
 1052TIP3   OH2 3161   5.325   2.947   2.859
 1052TIP3    H1 3162   5.283   2.911   2.781
 1052TIP3    H2 3163   5.272   2.916   2.932
 1053TIP3   OH2 3164   3.047   5.339   0.865
 1053TIP3    H1 3165   3.054   5.353   0.771
 1053TIP3    H2 3166   3.136   5.316   0.893
 1054TIP3   OH2 3167   0.017   0.500   4.895
 1054TIP3    H1 3168   0.044   0.437   4.961
 1054TIP3    H2 3169  -0.009   0.577   4.945
 1055TIP3   OH2 3170   0.910   4.510   4.702
 1055TIP3    H1 3171   0.904   4.538   4.610
 1055TIP3    H2 3172   0.873   4.421   4.702
 1056TIP3   OH2 3173   3.747   4.303   3.584
 1056TIP3    H1 3174   3.741   4.306   3.488
 1056TIP3    H2 3175   3.666   4.260   3.612
 1057TIP3   OH2 3176   5.276   5.204   3.856
 1057TIP3    H1 3177   5.345   5.168   3.800
 1057TIP3    H2 3178   5.194   5.184   3.809
 1058TIP3   OH2 3179   2.240   5.807   2.098
 1058TIP3    H1 3180   2.238   5.723   2.145
 1058TIP3    H2 3181   2.310   5.796   2.033
 1059TIP3   OH2 3182   3.730   0.969   0.541
 1059TIP3    H1 3183   3.797   0.911   0.578
 1059TIP3    H2 3184   3.648   0.937   0.579
 1060TIP3   OH2 3185   0.013   0.815   1.072
 1060TIP3    H1 3186   0.006   0.784   0.981
 1060TIP3    H2 3187   0.067   0.749   1.115
 1061TIP3   OH2 3188   4.285   1.353   1.418
 1061TIP3    H1 3189   4.332   1.273   1.392
 1061TIP3    H2 3190   4.193   1.331   1.405
 1062TIP3   OH2 3191   0.988   3.857   3.375
 1062TIP3    H1 3192   1.054   3.901   3.429
 1062TIP3    H2 3193   1.039   3.799   3.318
 1063TIP3   OH2 3194   1.170   4.432   2.876
 1063TIP3    H1 3195   1.110   4.497   2.840
 1063TIP3    H2 3196   1.209   4.390   2.799
 1064TIP3   OH2 3197   4.834   5.127   3.748
 1064TIP3    H1 3198   4.778   5.170   3.812
 1064TIP3    H2 3199   4.871   5.199   3.696
 1065TIP3   OH2 3200   1.115   2.809   1.344
 1065TIP3    H1 3201   1.031   2.845   1.317
 1065TIP3    H2 3202   1.107   2.715   1.329
 1066TIP3   OH2 3203   5.031   4.005   2.991
 1066TIP3    H1 3204   4.968   3.936   2.972
 1066TIP3    H2 3205   5.089   4.006   2.915
 1067TIP3   OH2 3206   5.828   0.960   1.719
 1067TIP3    H1 3207   5.791   1.017   1.786
 1067TIP3    H2 3208   5.888   1.016   1.670
 1068TIP3   OH2 3209   3.526   2.893   4.941
 1068TIP3    H1 3210   3.512   2.870   4.849
 1068TIP3    H2 3211   3.570   2.978   4.937
 1069TIP3   OH2 3212   2.787   4.976   2.144
 1069TIP3    H1 3213   2.835   4.989   2.226
 1069TIP3    H2 3214   2.708   4.928   2.171
 1070TIP3   OH2 3215   4.141   1.093   3.665
 1070TIP3    H1 3216   4.064   1.110   3.611
 1070TIP3    H2 3217   4.148   1.170   3.722
 1071TIP3   OH2 3218   3.193   5.178   2.954
 1071TIP3    H1 3219   3.264   5.177   2.890
 1071TIP3    H2 3220   3.127   5.236   2.916
 1072TIP3   OH2 3221   3.810   0.223   5.090
 1072TIP3    H1 3222   3.803   0.218   5.185
 1072TIP3    H2 3223   3.903   0.231   5.073
 1073TIP3   OH2 3224   0.076   4.271   3.824
 1073TIP3    H1 3225   0.157   4.221   3.821
 1073TIP3    H2 3226   0.029   4.237   3.900
 1074TIP3   OH2 3227   2.777   4.712   1.547
 1074TIP3    H1 3228   2.868   4.683   1.557
 1074TIP3    H2 3229   2.760   4.767   1.623
 1075TIP3   OH2 3230   5.265   4.666   4.352
 1075TIP3    H1 3231   5.242   4.759   4.346
 1075TIP3    H2 3232   5.361   4.665   4.356
 1076TIP3   OH2 3233   1.179   1.867   4.077
 1076TIP3    H1 3234   1.197   1.774   4.087
 1076TIP3    H2 3235   1.234   1.909   4.143
 1077TIP3   OH2 3236   1.062   0.010   2.879
 1077TIP3    H1 3237   1.030  -0.005   2.791
 1077TIP3    H2 3238   1.028   0.096   2.903
 1078TIP3   OH2 3239   0.893   5.222   3.796
 1078TIP3    H1 3240   0.935   5.136   3.784
 1078TIP3    H2 3241   0.855   5.242   3.711
 1079TIP3   OH2 3242   5.260   3.266   0.591
 1079TIP3    H1 3243   5.200   3.195   0.570
 1079TIP3    H2 3244   5.298   3.291   0.507
 1080TIP3   OH2 3245   4.249   0.210   3.907
 1080TIP3    H1 3246   4.211   0.230   3.822
 1080TIP3    H2 3247   4.240   0.292   3.957
 1081TIP3   OH2 3248   6.000   3.209   2.194
 1081TIP3    H1 3249   6.069   3.272   2.175
 1081TIP3    H2 3250   5.937   3.220   2.122
 1082TIP3   OH2 3251   5.297   1.658   0.438
 1082TIP3    H1 3252   5.262   1.664   0.350
 1082TIP3    H2 3253   5.220   1.655   0.495
 1083TIP3   OH2 3254  -0.030   5.624   3.667
 1083TIP3    H1 3255   0.041   5.687   3.649
 1083TIP3    H2 3256   0.014   5.539   3.671
 1084TIP3   OH2 3257   5.476   2.271   4.031
 1084TIP3    H1 3258   5.517   2.231   3.955
 1084TIP3    H2 3259   5.386   2.288   4.004
 1085TIP3   OH2 3260   3.415   4.408   4.689
 1085TIP3    H1 3261   3.329   4.388   4.727
 1085TIP3    H2 3262   3.396   4.462   4.613
 1086TIP3   OH2 3263   3.471   2.471   4.680
 1086TIP3    H1 3264   3.438   2.429   4.601
 1086TIP3    H2 3265   3.393   2.505   4.723
 1087TIP3   OH2 3266   2.365   0.555   4.995
 1087TIP3    H1 3267   2.315   0.530   4.918
 1087TIP3    H2 3268   2.453   0.522   4.979
 1088TIP3   OH2 3269   5.705   5.823   0.109
 1088TIP3    H1 3270   5.623   5.783   0.135
 1088TIP3    H2 3271   5.681   5.911   0.080
 1089TIP3   OH2 3272   3.987   0.541   2.797
 1089TIP3    H1 3273   4.004   0.450   2.818
 1089TIP3    H2 3274   3.966   0.582   2.881
 1090TIP3   OH2 3275   1.854   3.975   3.751
 1090TIP3    H1 3276   1.895   4.045   3.801
 1090TIP3    H2 3277   1.852   4.007   3.661
 1091TIP3   OH2 3278   0.258   0.486   0.247
 1091TIP3    H1 3279   0.243   0.530   0.163
 1091TIP3    H2 3280   0.314   0.412   0.225
 1092TIP3   OH2 3281   5.885   2.379   3.844
 1092TIP3    H1 3282   5.831   2.452   3.873
 1092TIP3    H2 3283   5.823   2.307   3.831
 1093TIP3   OH2 3284   4.090   2.676   2.872
 1093TIP3    H1 3285   4.053   2.603   2.922
 1093TIP3    H2 3286   4.180   2.683   2.902
 1094TIP3   OH2 3287   2.387   0.394   4.007
 1094TIP3    H1 3288   2.450   0.443   4.061
 1094TIP3    H2 3289   2.302   0.414   4.046
 1095TIP3   OH2 3290   0.432   4.206   2.621
 1095TIP3    H1 3291   0.391   4.144   2.560
 1095TIP3    H2 3292   0.452   4.283   2.566
 1096TIP3   OH2 3293   3.935   1.409   5.127
 1096TIP3    H1 3294   3.944   1.359   5.046
 1096TIP3    H2 3295   3.993   1.365   5.189
 1097TIP3   OH2 3296   1.766   4.386   2.751
 1097TIP3    H1 3297   1.814   4.407   2.671
 1097TIP3    H2 3298   1.714   4.465   2.768
 1098TIP3   OH2 3299   4.525   2.765   0.040
 1098TIP3    H1 3300   4.555   2.849   0.073
 1098TIP3    H2 3301   4.599   2.706   0.053
 1099TIP3   OH2 3302   3.003   3.517   0.072
 1099TIP3    H1 3303   2.911   3.526   0.096
 1099TIP3    H2 3304   3.002   3.478  -0.015
 1100TIP3   OH2 3305   3.860   2.511   5.046
 1100TIP3    H1 3306   3.794   2.566   5.005
 1100TIP3    H2 3307   3.844   2.520   5.140
 1101TIP3   OH2 3308   2.718   4.324   1.184
 1101TIP3    H1 3309   2.675   4.323   1.269
 1101TIP3    H2 3310   2.657   4.371   1.127
 1102TIP3   OH2 3311   1.009   5.777   0.399
 1102TIP3    H1 3312   0.968   5.828   0.330
 1102TIP3    H2 3313   1.096   5.814   0.409
 1103TIP3   OH2 3314   1.376   2.655   0.715
 1103TIP3    H1 3315   1.415   2.669   0.802
 1103TIP3    H2 3316   1.405   2.730   0.664
 1104TIP3   OH2 3317   6.115   1.348   3.963
 1104TIP3    H1 3318   6.037   1.384   4.007
 1104TIP3    H2 3319   6.185   1.410   3.985
 1105TIP3   OH2 3320   5.214   2.292   3.933
 1105TIP3    H1 3321   5.139   2.284   3.992
 1105TIP3    H2 3322   5.190   2.239   3.857
 1106TIP3   OH2 3323   3.659   3.291   2.528
 1106TIP3    H1 3324   3.573   3.293   2.572
 1106TIP3    H2 3325   3.658   3.209   2.479
 1107TIP3   OH2 3326   5.963   1.635   4.560
 1107TIP3    H1 3327   6.042   1.619   4.509
 1107TIP3    H2 3328   5.990   1.697   4.628
 1108TIP3   OH2 3329   0.126   3.039   2.837
 1108TIP3    H1 3330   0.172   2.957   2.858
 1108TIP3    H2 3331   0.081   3.021   2.755
 1109TIP3   OH2 3332   3.048   1.130   2.787
 1109TIP3    H1 3333   2.993   1.081   2.849
 1109TIP3    H2 3334   3.079   1.205   2.838
 1110TIP3   OH2 3335   3.290   4.047   1.081
 1110TIP3    H1 3336   3.296   4.056   1.176
 1110TIP3    H2 3337   3.201   4.014   1.065
 1111TIP3   OH2 3338   4.580   1.421   4.923
 1111TIP3    H1 3339   4.541   1.382   5.001
 1111TIP3    H2 3340   4.657   1.467   4.955
 1112TIP3   OH2 3341   0.624   2.603   2.939
 1112TIP3    H1 3342   0.599   2.681   2.891
 1112TIP3    H2 3343   0.699   2.631   2.992
 1113TIP3   OH2 3344   5.189   2.420   4.749
 1113TIP3    H1 3345   5.231   2.402   4.665
 1113TIP3    H2 3346   5.215   2.347   4.805
 1114TIP3   OH2 3347   1.072   3.493   3.423
 1114TIP3    H1 3348   1.124   3.497   3.504
 1114TIP3    H2 3349   0.986   3.526   3.449
 1115TIP3   OH2 3350   1.239   0.039   2.255
 1115TIP3    H1 3351   1.283   0.122   2.241
 1115TIP3    H2 3352   1.193   0.050   2.339
 1116TIP3   OH2 3353   3.287   5.709   2.239
 1116TIP3    H1 3354   3.203   5.697   2.282
 1116TIP3    H2 3355   3.281   5.795   2.197
 1117TIP3   OH2 3356   6.086   4.348   3.209
 1117TIP3    H1 3357   6.099   4.266   3.163
 1117TIP3    H2 3358   6.061   4.410   3.141
 1118TIP3   OH2 3359   0.872   4.235   4.778
 1118TIP3    H1 3360   0.831   4.283   4.850
 1118TIP3    H2 3361   0.872   4.144   4.807
 1119TIP3   OH2 3362   1.256   3.171   1.094
 1119TIP3    H1 3363   1.310   3.179   1.016
 1119TIP3    H2 3364   1.200   3.248   1.093
 1120TIP3   OH2 3365   6.110   3.726   5.121
 1120TIP3    H1 3366   6.203   3.732   5.142
 1120TIP3    H2 3367   6.087   3.635   5.136
 1121TIP3   OH2 3368   1.916   4.790   5.014
 1121TIP3    H1 3369   1.865   4.716   5.047
 1121TIP3    H2 3370   2.005   4.773   5.043
 1122TIP3   OH2 3371   2.337   1.860   2.845
 1122TIP3    H1 3372   2.309   1.897   2.762
 1122TIP3    H2 3373   2.348   1.767   2.827
 1123TIP3   OH2 3374   5.412   3.180   4.302
 1123TIP3    H1 3375   5.425   3.086   4.290
 1123TIP3    H2 3376   5.350   3.186   4.375
 1124TIP3   OH2 3377   5.024   5.698   0.977
 1124TIP3    H1 3378   5.018   5.788   0.943
 1124TIP3    H2 3379   5.113   5.691   1.010
 1125TIP3   OH2 3380   4.352   2.096   3.404
 1125TIP3    H1 3381   4.287   2.144   3.456
 1125TIP3    H2 3382   4.370   2.152   3.329
 1126TIP3   OH2 3383   6.172   2.858   3.928
 1126TIP3    H1 3384   6.123   2.931   3.965
 1126TIP3    H2 3385   6.131   2.780   3.964
 1127TIP3   OH2 3386   4.467   3.303   3.000
 1127TIP3    H1 3387   4.401   3.234   2.996
 1127TIP3    H2 3388   4.507   3.293   3.087
 1128TIP3   OH2 3389   2.964   4.962   4.627
 1128TIP3    H1 3390   2.885   4.924   4.587
 1128TIP3    H2 3391   2.994   4.895   4.688
 1129TIP3   OH2 3392   0.040   2.857   4.547
 1129TIP3    H1 3393   0.012   2.836   4.636
 1129TIP3    H2 3394   0.065   2.949   4.551
 1130TIP3   OH2 3395   0.980   5.771   3.513
 1130TIP3    H1 3396   0.989   5.829   3.588
 1130TIP3    H2 3397   0.924   5.700   3.543
 1131TIP3   OH2 3398   2.521   1.589   0.748
 1131TIP3    H1 3399   2.466   1.666   0.763
 1131TIP3    H2 3400   2.503   1.533   0.823
 1132TIP3   OH2 3401   5.000   0.336   1.092
 1132TIP3    H1 3402   4.927   0.394   1.070
 1132TIP3    H2 3403   4.995   0.325   1.186
 1133TIP3   OH2 3404   0.274   4.855   2.493
 1133TIP3    H1 3405   0.308   4.838   2.581
 1133TIP3    H2 3406   0.247   4.947   2.496
 1134TIP3   OH2 3407   3.518   1.539   2.819
 1134TIP3    H1 3408   3.451   1.578   2.763
 1134TIP3    H2 3409   3.575   1.490   2.759
 1135TIP3   OH2 3410   2.559   1.488   2.873
 1135TIP3    H1 3411   2.583   1.554   2.939
 1135TIP3    H2 3412   2.544   1.539   2.793
 1136TIP3   OH2 3413   1.898   5.484   2.069
 1136TIP3    H1 3414   1.916   5.567   2.026
 1136TIP3    H2 3415   1.807   5.465   2.049
 1137TIP3   OH2 3416   5.059   2.363   0.022
 1137TIP3    H1 3417   4.998   2.437   0.016
 1137TIP3    H2 3418   5.114   2.371  -0.056
 1138TIP3   OH2 3419   2.439   3.165   4.927
 1138TIP3    H1 3420   2.503   3.113   4.975
 1138TIP3    H2 3421   2.479   3.180   4.841
 1139TIP3   OH2 3422   4.573   5.804   1.967
 1139TIP3    H1 3423   4.629   5.812   2.044
 1139TIP3    H2 3424   4.628   5.833   1.894
 1140TIP3   OH2 3425   2.038   1.809   4.438
 1140TIP3    H1 3426   2.083   1.871   4.496
 1140TIP3    H2 3427   2.045   1.725   4.483
 1141TIP3   OH2 3428   5.737   0.710   4.228
 1141TIP3    H1 3429   5.669   0.642   4.231
 1141TIP3    H2 3430   5.726   0.758   4.310
 1142TIP3   OH2 3431   5.132   5.705   2.792
 1142TIP3    H1 3432   5.156   5.731   2.702
 1142TIP3    H2 3433   5.120   5.610   2.787
 1143TIP3   OH2 3434   6.228   3.812   2.304
 1143TIP3    H1 3435   6.265   3.729   2.276
 1143TIP3    H2 3436   6.191   3.795   2.390
 1144TIP3   OH2 3437   5.872   4.946   3.261
 1144TIP3    H1 3438   5.881   5.023   3.317
 1144TIP3    H2 3439   5.961   4.925   3.233
 1145TIP3   OH2 3440   3.224   3.267   3.933
 1145TIP3    H1 3441   3.309   3.250   3.974
 1145TIP3    H2 3442   3.234   3.236   3.843
 1146TIP3   OH2 3443   5.008   0.700   0.513
 1146TIP3    H1 3444   4.989   0.782   0.467
 1146TIP3    H2 3445   4.971   0.632   0.457
 1147TIP3   OH2 3446   4.604   1.617   3.343
 1147TIP3    H1 3447   4.529   1.565   3.316
 1147TIP3    H2 3448   4.568   1.703   3.363
 1148TIP3   OH2 3449   0.594   1.496   3.199
 1148TIP3    H1 3450   0.598   1.413   3.246
 1148TIP3    H2 3451   0.685   1.517   3.180
 1149TIP3   OH2 3452   5.726   5.490   0.333
 1149TIP3    H1 3453   5.662   5.547   0.376
 1149TIP3    H2 3454   5.682   5.461   0.253
 1150TIP3   OH2 3455   2.107   3.817   3.833
 1150TIP3    H1 3456   2.194   3.832   3.796
 1150TIP3    H2 3457   2.062   3.901   3.824
 1151TIP3   OH2 3458   2.578   1.746   2.964
 1151TIP3    H1 3459   2.618   1.742   3.050
 1151TIP3    H2 3460   2.497   1.796   2.976
 1152TIP3   OH2 3461   1.904   5.416   3.812
 1152TIP3    H1 3462   1.829   5.360   3.832
 1152TIP3    H2 3463   1.902   5.483   3.880
 1153TIP3   OH2 3464   4.446   2.342   3.607
 1153TIP3    H1 3465   4.367   2.395   3.596
 1153TIP3    H2 3466   4.453   2.329   3.701
 1154TIP3   OH2 3467   2.098   3.711   2.613
 1154TIP3    H1 3468   2.163   3.779   2.631
 1154TIP3    H2 3469   2.014   3.753   2.630
 1155TIP3   OH2 3470   5.413   4.246   0.022
 1155TIP3    H1 3471   5.334   4.281  -0.019
 1155TIP3    H2 3472   5.435   4.310   0.090
 1156TIP3   OH2 3473   0.804   2.619   3.195
 1156TIP3    H1 3474   0.877   2.681   3.195
 1156TIP3    H2 3475   0.788   2.601   3.288
 1157TIP3   OH2 3476   2.955   1.054   2.141
 1157TIP3    H1 3477   3.049   1.036   2.135
 1157TIP3    H2 3478   2.922   1.038   2.053
 1158TIP3   OH2 3479   1.843   0.575   1.606
 1158TIP3    H1 3480   1.798   0.630   1.670
 1158TIP3    H2 3481   1.774   0.523   1.566
 1159TIP3   OH2 3482   5.988   0.050   1.916
 1159TIP3    H1 3483   6.022   0.029   1.829
 1159TIP3    H2 3484   6.065   0.072   1.968
 1160TIP3   OH2 3485   3.253   1.975   2.700
 1160TIP3    H1 3486   3.162   1.999   2.682
 1160TIP3    H2 3487   3.289   2.052   2.745
 1161TIP3   OH2 3488   3.937   0.451   0.035
 1161TIP3    H1 3489   3.861   0.464  -0.022
 1161TIP3    H2 3490   3.939   0.356   0.050
 1162TIP3   OH2 3491   1.983   3.610   1.792
 1162TIP3    H1 3492   2.035   3.552   1.847
 1162TIP3    H2 3493   1.932   3.551   1.736
 1163TIP3   OH2 3494   2.617   0.915   2.123
 1163TIP3    H1 3495   2.671   0.889   2.049
 1163TIP3    H2 3496   2.674   0.905   2.199
 1164TIP3   OH2 3497   2.840   1.944   4.130
 1164TIP3    H1 3498   2.934   1.958   4.143
 1164TIP3    H2 3499   2.798   2.018   4.173
 1165TIP3   OH2 3500   5.708   2.057   0.976
 1165TIP3    H1 3501   5.779   1.995   0.961
 1165TIP3    H2 3502   5.633   2.019   0.931
 1166TIP3   OH2 3503   5.605   2.745   3.691
 1166TIP3    H1 3504   5.510   2.736   3.680
 1166TIP3    H2 3505   5.616   2.829   3.735
 1167TIP3   OH2 3506   2.828   5.454   2.667
 1167TIP3    H1 3507   2.770   5.528   2.645
 1167TIP3    H2 3508   2.897   5.458   2.600
 1168TIP3   OH2 3509   5.195   1.682   0.152
 1168TIP3    H1 3510   5.248   1.670   0.074
 1168TIP3    H2 3511   5.104   1.674   0.121
 1169TIP3   OH2 3512   1.522   0.156   4.217
 1169TIP3    H1 3513   1.507   0.063   4.230
 1169TIP3    H2 3514   1.553   0.163   4.127
 1170TIP3   OH2 3515   4.088   0.641   2.320
 1170TIP3    H1 3516   4.048   0.573   2.266
 1170TIP3    H2 3517   4.159   0.675   2.267
 1171TIP3   OH2 3518   1.961   4.258   4.639
 1171TIP3    H1 3519   2.005   4.338   4.667
 1171TIP3    H2 3520   1.878   4.258   4.687
 1172TIP3   OH2 3521   1.102   4.718   2.558
 1172TIP3    H1 3522   1.122   4.679   2.473
 1172TIP3    H2 3523   1.037   4.660   2.596
 1173TIP3   OH2 3524   1.553   4.016   2.361
 1173TIP3    H1 3525   1.593   3.950   2.417
 1173TIP3    H2 3526   1.561   3.980   2.272
 1174TIP3   OH2 3527   5.429   4.579   1.917
 1174TIP3    H1 3528   5.427   4.625   2.001
 1174TIP3    H2 3529   5.362   4.512   1.926
 1175TIP3   OH2 3530   5.033   2.692   1.652
 1175TIP3    H1 3531   5.054   2.766   1.596
 1175TIP3    H2 3532   5.099   2.626   1.630
 1176TIP3   OH2 3533   0.881   1.410   4.575
 1176TIP3    H1 3534   0.947   1.476   4.554
 1176TIP3    H2 3535   0.843   1.385   4.491
 1177TIP3   OH2 3536   5.601   3.993   3.028
 1177TIP3    H1 3537   5.612   3.929   3.098
 1177TIP3    H2 3538   5.616   4.078   3.069
 1178TIP3   OH2 3539   2.732   4.033   2.297
 1178TIP3    H1 3540   2.817   4.027   2.341
 1178TIP3    H2 3541   2.678   4.085   2.356
 1179TIP3   OH2 3542   1.206   4.802   4.425
 1179TIP3    H1 3543   1.200   4.885   4.378
 1179TIP3    H2 3544   1.244   4.741   4.362
 1180TIP3   OH2 3545   5.221   3.633   4.228
 1180TIP3    H1 3546   5.243   3.550   4.187
 1180TIP3    H2 3547   5.297   3.654   4.282
 1181TIP3   OH2 3548   6.352   3.720   0.240
 1181TIP3    H1 3549   6.272   3.714   0.188
 1181TIP3    H2 3550   6.417   3.672   0.189
 1182TIP3   OH2 3551   3.460   5.970   4.316
 1182TIP3    H1 3552   3.527   5.957   4.384
 1182TIP3    H2 3553   3.497   5.928   4.238
 1183TIP3   OH2 3554   2.349   0.749   0.360
 1183TIP3    H1 3555   2.404   0.708   0.428
 1183TIP3    H2 3556   2.260   0.723   0.382
 1184TIP3   OH2 3557   4.984   1.990   2.701
 1184TIP3    H1 3558   5.057   2.006   2.761
 1184TIP3    H2 3559   4.998   1.901   2.669
 1185TIP3   OH2 3560   1.508   4.501   1.097
 1185TIP3    H1 3561   1.458   4.422   1.115
 1185TIP3    H2 3562   1.443   4.564   1.066
 1186TIP3   OH2 3563   0.727   3.553   3.806
 1186TIP3    H1 3564   0.690   3.610   3.738
 1186TIP3    H2 3565   0.688   3.585   3.888
 1187TIP3   OH2 3566   1.891   3.278   0.578
 1187TIP3    H1 3567   1.932   3.327   0.649
 1187TIP3    H2 3568   1.834   3.341   0.535
 1188TIP3   OH2 3569   4.412   2.099   1.785
 1188TIP3    H1 3570   4.373   2.167   1.840
 1188TIP3    H2 3571   4.485   2.066   1.837
 1189TIP3   OH2 3572   0.730   2.333   0.201
 1189TIP3    H1 3573   0.709   2.405   0.261
 1189TIP3    H2 3574   0.743   2.376   0.116
 1190TIP3   OH2 3575   0.101   5.098   1.684
 1190TIP3    H1 3576   0.136   5.186   1.700
 1190TIP3    H2 3577   0.135   5.045   1.756
 1191TIP3   OH2 3578   4.654   4.434   4.232
 1191TIP3    H1 3579   4.680   4.424   4.323
 1191TIP3    H2 3580   4.635   4.345   4.203
 1192TIP3   OH2 3581   4.829   2.253   0.433
 1192TIP3    H1 3582   4.902   2.222   0.380
 1192TIP3    H2 3583   4.869   2.307   0.501
 1193TIP3   OH2 3584   4.650   0.058   4.540
 1193TIP3    H1 3585   4.710   0.012   4.481
 1193TIP3    H2 3586   4.571   0.073   4.488
 1194TIP3   OH2 3587   1.740   1.408   1.615
 1194TIP3    H1 3588   1.651   1.406   1.579
 1194TIP3    H2 3589   1.733   1.463   1.693
 1195TIP3   OH2 3590   2.434   5.173   0.046
 1195TIP3    H1 3591   2.495   5.101   0.030
 1195TIP3    H2 3592   2.407   5.201  -0.041
 1196TIP3   OH2 3593   5.079   5.014   3.722
 1196TIP3    H1 3594   5.134   5.023   3.644
 1196TIP3    H2 3595   4.999   5.063   3.701
 1197TIP3   OH2 3596   5.615   4.522   1.716
 1197TIP3    H1 3597   5.534   4.541   1.762
 1197TIP3    H2 3598   5.657   4.454   1.768
 1198TIP3   OH2 3599   4.810   3.818   2.962
 1198TIP3    H1 3600   4.735   3.799   3.019
 1198TIP3    H2 3601   4.811   3.747   2.898
 1199TIP3   OH2 3602   5.235   1.766   1.876
 1199TIP3    H1 3603   5.217   1.732   1.964
 1199TIP3    H2 3604   5.154   1.749   1.827
 1200TIP3   OH2 3605   3.700   4.092   0.906
 1200TIP3    H1 3606   3.721   4.185   0.904
 1200TIP3    H2 3607   3.755   4.057   0.976
 1201TIP3   OH2 3608   0.544   3.913   0.795
 1201TIP3    H1 3609   0.560   3.876   0.882
 1201TIP3    H2 3610   0.450   3.904   0.782
 1202TIP3   OH2 3611   0.068   1.324   1.935
 1202TIP3    H1 3612   0.140   1.387   1.940
 1202TIP3    H2 3613   0.097   1.250   1.989
 1203TIP3   OH2 3614   5.743   0.971   3.959
 1203TIP3    H1 3615   5.766   0.879   3.945
 1203TIP3    H2 3616   5.815   1.020   3.919
 1204TIP3   OH2 3617   5.347   3.281   1.639
 1204TIP3    H1 3618   5.372   3.193   1.668
 1204TIP3    H2 3619   5.300   3.267   1.557
 1205TIP3   OH2 3620   4.637   4.783   0.631
 1205TIP3    H1 3621   4.658   4.797   0.723
 1205TIP3    H2 3622   4.690   4.708   0.604
 1206TIP3   OH2 3623   3.208   5.953   2.127
 1206TIP3    H1 3624   3.258   6.020   2.175
 1206TIP3    H2 3625   3.117   5.985   2.131
 1207TIP3   OH2 3626   1.314   5.970   2.321
 1207TIP3    H1 3627   1.322   5.896   2.380
 1207TIP3    H2 3628   1.402   5.980   2.283
 1208TIP3   OH2 3629   0.547   5.947   5.172
 1208TIP3    H1 3630   0.571   6.037   5.148
 1208TIP3    H2 3631   0.619   5.917   5.227
 1209TIP3   OH2 3632   6.256   4.775   1.694
 1209TIP3    H1 3633   6.332   4.805   1.644
 1209TIP3    H2 3634   6.194   4.745   1.628
 1210TIP3   OH2 3635   0.885   0.315   2.268
 1210TIP3    H1 3636   0.907   0.371   2.193
 1210TIP3    H2 3637   0.807   0.355   2.306
 1211TIP3   OH2 3638   4.347   5.681   4.894
 1211TIP3    H1 3639   4.365   5.632   4.974
 1211TIP3    H2 3640   4.433   5.710   4.864
 1212TIP3   OH2 3641   0.648   0.232   1.647
 1212TIP3    H1 3642   0.691   0.190   1.722
 1212TIP3    H2 3643   0.608   0.159   1.599
 1213TIP3   OH2 3644   3.461   0.237   0.194
 1213TIP3    H1 3645   3.542   0.214   0.147
 1213TIP3    H2 3646   3.403   0.161   0.179
 1214TIP3   OH2 3647   3.773   4.788   4.122
 1214TIP3    H1 3648   3.778   4.749   4.209
 1214TIP3    H2 3649   3.778   4.883   4.137
 1215TIP3   OH2 3650   2.260   5.774   4.674
 1215TIP3    H1 3651   2.248   5.682   4.700
 1215TIP3    H2 3652   2.261   5.823   4.756
 1216TIP3   OH2 3653   1.057   1.456   1.827
 1216TIP3    H1 3654   1.099   1.528   1.875
 1216TIP3    H2 3655   0.965   1.464   1.850
 1217TIP3   OH2 3656   1.391   4.291   4.102
 1217TIP3    H1 3657   1.364   4.208   4.141
 1217TIP3    H2 3658   1.472   4.271   4.057
 1218TIP3   OH2 3659   0.856   0.754   2.224
 1218TIP3    H1 3660   0.822   0.832   2.268
 1218TIP3    H2 3661   0.950   0.755   2.243
 1219TIP3   OH2 3662   6.011   2.575   2.821
 1219TIP3    H1 3663   6.029   2.548   2.731
 1219TIP3    H2 3664   5.971   2.662   2.813
 1220TIP3   OH2 3665   1.787   5.037   1.067
 1220TIP3    H1 3666   1.752   4.948   1.055
 1220TIP3    H2 3667   1.822   5.037   1.156
 1221TIP3   OH2 3668   2.862   1.297   4.473
 1221TIP3    H1 3669   2.944   1.306   4.423
 1221TIP3    H2 3670   2.878   1.347   4.554
 1222TIP3   OH2 3671   3.684   3.931   1.688
 1222TIP3    H1 3672   3.745   4.004   1.693
 1222TIP3    H2 3673   3.669   3.905   1.779
 1223TIP3   OH2 3674   2.602   1.022   5.196
 1223TIP3    H1 3675   2.644   0.999   5.280
 1223TIP3    H2 3676   2.621   0.948   5.139
 1224TIP3   OH2 3677   0.292   0.574   3.187
 1224TIP3    H1 3678   0.206   0.533   3.183
 1224TIP3    H2 3679   0.314   0.592   3.095
 1225TIP3   OH2 3680   3.476   4.818   1.546
 1225TIP3    H1 3681   3.570   4.810   1.537
 1225TIP3    H2 3682   3.462   4.909   1.573
 1226TIP3   OH2 3683   3.714   0.908   3.414
 1226TIP3    H1 3684   3.678   0.995   3.436
 1226TIP3    H2 3685   3.778   0.925   3.346
 1227TIP3   OH2 3686   0.215   5.166   1.338
 1227TIP3    H1 3687   0.293   5.221   1.334
 1227TIP3    H2 3688   0.149   5.221   1.380
 1228TIP3   OH2 3689   2.650   3.708   1.977
 1228TIP3    H1 3690   2.660   3.745   1.889
 1228TIP3    H2 3691   2.728   3.737   2.024
 1229TIP3   OH2 3692   1.696   2.713   0.907
 1229TIP3    H1 3693   1.744   2.664   0.841
 1229TIP3    H2 3694   1.620   2.658   0.927
 1230TIP3   OH2 3695   5.140   0.929   2.975
 1230TIP3    H1 3696   5.059   0.962   3.014
 1230TIP3    H2 3697   5.199   1.004   2.976
 1231TIP3   OH2 3698   6.306   2.927   3.639
 1231TIP3    H1 3699   6.240   2.936   3.570
 1231TIP3    H2 3700   6.292   3.003   3.695
 1232TIP3   OH2 3701   4.321   3.153   0.224
 1232TIP3    H1 3702   4.311   3.060   0.202
 1232TIP3    H2 3703   4.289   3.199   0.147
 1233TIP3   OH2 3704   2.712   2.922   0.616
 1233TIP3    H1 3705   2.659   2.876   0.681
 1233TIP3    H2 3706   2.780   2.860   0.592
 1234TIP3   OH2 3707   0.617   2.724   0.912
 1234TIP3    H1 3708   0.542   2.667   0.899
 1234TIP3    H2 3709   0.675   2.676   0.970
 1235TIP3   OH2 3710   4.953   0.480   0.210
 1235TIP3    H1 3711   5.020   0.422   0.172
 1235TIP3    H2 3712   4.964   0.471   0.305
 1236TIP3   OH2 3713   2.730   3.096   2.780
 1236TIP3    H1 3714   2.769   3.010   2.763
 1236TIP3    H2 3715   2.804   3.156   2.785
 1237TIP3   OH2 3716   2.991   5.148   2.003
 1237TIP3    H1 3717   2.903   5.110   1.998
 1237TIP3    H2 3718   3.024   5.120   2.089
 1238TIP3   OH2 3719   2.267   0.674   4.530
 1238TIP3    H1 3720   2.358   0.651   4.512
 1238TIP3    H2 3721   2.247   0.628   4.612
 1239TIP3   OH2 3722   0.484   1.160   2.309
 1239TIP3    H1 3723   0.484   1.096   2.380
 1239TIP3    H2 3724   0.505   1.109   2.231
 1240TIP3   OH2 3725   0.366   1.670   3.026
 1240TIP3    H1 3726   0.425   1.650   2.954
 1240TIP3    H2 3727   0.330   1.585   3.052
 1241TIP3   OH2 3728   3.462  -0.010   3.158
 1241TIP3    H1 3729   3.420   0.073   3.180
 1241TIP3    H2 3730   3.390  -0.071   3.146
 1242TIP3   OH2 3731   5.639   3.366   4.658
 1242TIP3    H1 3732   5.670   3.337   4.744
 1242TIP3    H2 3733   5.567   3.425   4.677
 1243TIP3   OH2 3734   5.525   1.217   1.340
 1243TIP3    H1 3735   5.561   1.243   1.425
 1243TIP3    H2 3736   5.601   1.205   1.284
 1244TIP3   OH2 3737   5.124   1.383   5.029
 1244TIP3    H1 3738   5.197   1.322   5.032
 1244TIP3    H2 3739   5.051   1.331   4.997
 1245TIP3   OH2 3740   2.842   2.280   4.338
 1245TIP3    H1 3741   2.882   2.345   4.279
 1245TIP3    H2 3742   2.916   2.243   4.386
 1246TIP3   OH2 3743   4.434   5.150   4.505
 1246TIP3    H1 3744   4.419   5.068   4.553
 1246TIP3    H2 3745   4.521   5.138   4.465
 1247TIP3   OH2 3746   0.242   0.321   4.160
 1247TIP3    H1 3747   0.250   0.324   4.065
 1247TIP3    H2 3748   0.328   0.293   4.191
 1248TIP3   OH2 3749   5.251   2.623   3.075
 1248TIP3    H1 3750   5.205   2.707   3.078
 1248TIP3    H2 3751   5.252   2.592   3.166
 1249TIP3   OH2 3752   1.149   0.692   0.976
 1249TIP3    H1 3753   1.069   0.744   0.974
 1249TIP3    H2 3754   1.137   0.627   0.906
 1250TIP3   OH2 3755   4.662   4.328   0.533
 1250TIP3    H1 3756   4.575   4.306   0.566
 1250TIP3    H2 3757   4.704   4.244   0.517
 1251TIP3   OH2 3758   2.932   5.124   0.185
 1251TIP3    H1 3759   2.906   5.183   0.256
 1251TIP3    H2 3760   2.889   5.041   0.207
 1252TIP3   OH2 3761   1.328   1.759   5.077
 1252TIP3    H1 3762   1.376   1.824   5.026
 1252TIP3    H2 3763   1.321   1.798   5.164
 1253TIP3   OH2 3764   5.523   0.903   2.880
 1253TIP3    H1 3765   5.444   0.956   2.890
 1253TIP3    H2 3766   5.491   0.815   2.864
 1254TIP3   OH2 3767   2.668   1.510   4.989
 1254TIP3    H1 3768   2.649   1.419   5.013
 1254TIP3    H2 3769   2.594   1.560   5.023
 1255TIP3   OH2 3770   3.464   5.080   4.741
 1255TIP3    H1 3771   3.389   5.139   4.750
 1255TIP3    H2 3772   3.465   5.031   4.824
 1256TIP3   OH2 3773   3.383   1.892   3.188
 1256TIP3    H1 3774   3.304   1.858   3.229
 1256TIP3    H2 3775   3.414   1.821   3.132
 1257TIP3   OH2 3776   0.508   4.922   4.032
 1257TIP3    H1 3777   0.453   4.934   4.109
 1257TIP3    H2 3778   0.537   5.011   4.009
 1258TIP3   OH2 3779   2.190   2.694   5.042
 1258TIP3    H1 3780   2.225   2.679   5.129
 1258TIP3    H2 3781   2.208   2.785   5.023
 1259TIP3   OH2 3782   6.215   5.022   3.802
 1259TIP3    H1 3783   6.256   4.993   3.721
 1259TIP3    H2 3784   6.270   4.984   3.871
 1260TIP3   OH2 3785   0.782   1.826   5.073
 1260TIP3    H1 3786   0.742   1.850   4.989
 1260TIP3    H2 3787   0.875   1.814   5.054
 1261TIP3   OH2 3788   3.931   2.472   2.976
 1261TIP3    H1 3789   3.845   2.511   2.961
 1261TIP3    H2 3790   3.951   2.492   3.067
 1262TIP3   OH2 3791   3.593   1.828   1.834
 1262TIP3    H1 3792   3.581   1.786   1.748
 1262TIP3    H2 3793   3.516   1.884   1.844
 1263TIP3   OH2 3794   2.622   1.482   1.236
 1263TIP3    H1 3795   2.579   1.533   1.304
 1263TIP3    H2 3796   2.623   1.392   1.269
 1264TIP3   OH2 3797   4.376   2.188   4.555
 1264TIP3    H1 3798   4.466   2.158   4.551
 1264TIP3    H2 3799   4.325   2.109   4.573
 1265TIP3   OH2 3800   3.948   4.423   3.094
 1265TIP3    H1 3801   3.913   4.509   3.071
 1265TIP3    H2 3802   3.878   4.362   3.072
 1266TIP3   OH2 3803   4.921   4.976   0.732
 1266TIP3    H1 3804   4.981   4.961   0.804
 1266TIP3    H2 3805   4.844   5.017   0.772
 1267TIP3   OH2 3806   5.807   3.479   5.135
 1267TIP3    H1 3807   5.754   3.447   5.208
 1267TIP3    H2 3808   5.787   3.572   5.130
 1268TIP3   OH2 3809   6.162   3.760   2.562
 1268TIP3    H1 3810   6.206   3.788   2.642
 1268TIP3    H2 3811   6.071   3.744   2.589
 1269TIP3   OH2 3812   5.006   4.798   2.504
 1269TIP3    H1 3813   5.017   4.816   2.410
 1269TIP3    H2 3814   5.036   4.708   2.515
 1270TIP3   OH2 3815   2.798   0.394   3.489
 1270TIP3    H1 3816   2.788   0.340   3.568
 1270TIP3    H2 3817   2.708   0.415   3.464
 1271TIP3   OH2 3818   1.349   2.525   5.096
 1271TIP3    H1 3819   1.258   2.505   5.075
 1271TIP3    H2 3820   1.359   2.618   5.076
 1272TIP3   OH2 3821   6.236   5.599   2.029
 1272TIP3    H1 3822   6.226   5.506   2.047
 1272TIP3    H2 3823   6.247   5.639   2.115
 1273TIP3   OH2 3824   5.941   5.790   2.190
 1273TIP3    H1 3825   6.022   5.821   2.231
 1273TIP3    H2 3826   5.876   5.792   2.260
 1274TIP3   OH2 3827   2.318   2.552   1.114
 1274TIP3    H1 3828   2.338   2.645   1.128
 1274TIP3    H2 3829   2.285   2.548   1.025
 1275TIP3   OH2 3830   0.896   2.886   1.184
 1275TIP3    H1 3831   0.818   2.842   1.217
 1275TIP3    H2 3832   0.889   2.881   1.088
 1276TIP3   OH2 3833   3.668   1.429   0.236
 1276TIP3    H1 3834   3.636   1.410   0.148
 1276TIP3    H2 3835   3.661   1.347   0.283
 1277TIP3   OH2 3836   3.761   5.254   1.986
 1277TIP3    H1 3837   3.806   5.219   1.909
 1277TIP3    H2 3838   3.723   5.177   2.028
 1278TIP3   OH2 3839   2.056   3.167   1.410
 1278TIP3    H1 3840   2.115   3.169   1.485
 1278TIP3    H2 3841   2.035   3.259   1.394
 1279TIP3   OH2 3842   3.950   5.447   0.977
 1279TIP3    H1 3843   3.882   5.405   0.924
 1279TIP3    H2 3844   3.934   5.414   1.066
 1280TIP3   OH2 3845   2.276   2.807   4.285
 1280TIP3    H1 3846   2.199   2.753   4.305
 1280TIP3    H2 3847   2.350   2.749   4.302
 1281TIP3   OH2 3848   4.150   1.302   2.474
 1281TIP3    H1 3849   4.132   1.268   2.562
 1281TIP3    H2 3850   4.240   1.335   2.479
 1282TIP3   OH2 3851   3.905   3.476   0.432
 1282TIP3    H1 3852   4.000   3.463   0.439
 1282TIP3    H2 3853   3.867   3.402   0.481
 1283TIP3   OH2 3854   2.856   2.622   2.675
 1283TIP3    H1 3855   2.789   2.594   2.737
 1283TIP3    H2 3856   2.903   2.542   2.651
 1284TIP3   OH2 3857   2.944   4.087   2.746
 1284TIP3    H1 3858   2.858   4.057   2.775
 1284TIP3    H2 3859   2.929   4.174   2.711
 1285TIP3   OH2 3860   0.039   2.879   0.310
 1285TIP3    H1 3861   0.067   2.887   0.219
 1285TIP3    H2 3862   0.082   2.952   0.355
 1286TIP3   OH2 3863   2.329   5.739   3.122
 1286TIP3    H1 3864   2.285   5.657   3.146
 1286TIP3    H2 3865   2.344   5.783   3.205
 1287TIP3   OH2 3866   3.005   0.788   3.885
 1287TIP3    H1 3867   3.027   0.707   3.839
 1287TIP3    H2 3868   3.057   0.784   3.965
 1288TIP3   OH2 3869   3.050   3.171   0.944
 1288TIP3    H1 3870   3.001   3.247   0.913
 1288TIP3    H2 3871   3.133   3.206   0.976
 1289TIP3   OH2 3872   0.915   4.875   2.898
 1289TIP3    H1 3873   0.997   4.829   2.918
 1289TIP3    H2 3874   0.847   4.810   2.916
 1290TIP3   OH2 3875   3.154   2.085   1.446
 1290TIP3    H1 3876   3.237   2.127   1.469
 1290TIP3    H2 3877   3.130   2.124   1.363
 1291TIP3   OH2 3878   6.280   3.458   3.692
 1291TIP3    H1 3879   6.339   3.480   3.620
 1291TIP3    H2 3880   6.195   3.445   3.649
 1292TIP3   OH2 3881   3.714   5.028   2.908
 1292TIP3    H1 3882   3.641   5.086   2.930
 1292TIP3    H2 3883   3.673   4.952   2.867
 1293TIP3   OH2 3884   1.018   3.494   1.914
 1293TIP3    H1 3885   1.039   3.466   1.826
 1293TIP3    H2 3886   1.014   3.414   1.965
 1294TIP3   OH2 3887   5.169   0.250   4.189
 1294TIP3    H1 3888   5.258   0.226   4.214
 1294TIP3    H2 3889   5.117   0.172   4.210
 1295TIP3   OH2 3890   5.747   3.329   0.745
 1295TIP3    H1 3891   5.810   3.373   0.688
 1295TIP3    H2 3892   5.773   3.355   0.834
 1296TIP3   OH2 3893   5.373   3.726   0.210
 1296TIP3    H1 3894   5.455   3.683   0.235
 1296TIP3    H2 3895   5.399   3.795   0.150
 1297TIP3   OH2 3896   5.394   2.535   2.063
 1297TIP3    H1 3897   5.471   2.518   2.009
 1297TIP3    H2 3898   5.321   2.536   2.001
 1298TIP3   OH2 3899   5.908   2.301   1.680
 1298TIP3    H1 3900   5.890   2.321   1.588
 1298TIP3    H2 3901   5.846   2.231   1.701
 1299TIP3   OH2 3902   0.257   1.771   2.629
 1299TIP3    H1 3903   0.341   1.782   2.585
 1299TIP3    H2 3904   0.262   1.827   2.706
 1300TIP3   OH2 3905   3.725   0.631   2.774
 1300TIP3    H1 3906   3.689   0.566   2.833
 1300TIP3    H2 3907   3.820   0.616   2.777
 1301TIP3   OH2 3908   0.035   1.716   1.395
 1301TIP3    H1 3909  -0.038   1.771   1.367
 1301TIP3    H2 3910   0.064   1.755   1.478
 1302TIP3   OH2 3911   4.247   3.260   5.218
 1302TIP3    H1 3912   4.329   3.282   5.173
 1302TIP3    H2 3913   4.244   3.165   5.216
 1303TIP3   OH2 3914   3.006   4.475   0.285
 1303TIP3    H1 3915   3.020   4.470   0.191
 1303TIP3    H2 3916   3.043   4.393   0.319
 1304TIP3   OH2 3917   2.199   5.701   1.554
 1304TIP3    H1 3918   2.229   5.717   1.465
 1304TIP3    H2 3919   2.230   5.778   1.603
 1305TIP3   OH2 3920   6.223   2.479   3.315
 1305TIP3    H1 3921   6.143   2.525   3.291
 1305TIP3    H2 3922   6.245   2.427   3.238
 1306TIP3   OH2 3923   0.981   0.630   0.016
 1306TIP3    H1 3924   1.053   0.569   0.001
 1306TIP3    H2 3925   0.921   0.583   0.073
 1307TIP3   OH2 3926   0.127   4.169   4.599
 1307TIP3    H1 3927   0.222   4.163   4.590
 1307TIP3    H2 3928   0.108   4.262   4.591
 1308TIP3   OH2 3929   3.906   1.295   2.081
 1308TIP3    H1 3930   3.830   1.239   2.096
 1308TIP3    H2 3931   3.975   1.256   2.134
 1309TIP3   OH2 3932   1.804   5.200   3.094
 1309TIP3    H1 3933   1.758   5.200   3.010
 1309TIP3    H2 3934   1.897   5.190   3.069
 1310TIP3   OH2 3935   0.900   5.960   0.218
 1310TIP3    H1 3936   0.914   6.047   0.254
 1310TIP3    H2 3937   0.813   5.935   0.249
 1311TIP3   OH2 3938   5.476   5.674   3.484
 1311TIP3    H1 3939   5.478   5.704   3.575
 1311TIP3    H2 3940   5.443   5.750   3.436
 1312TIP3   OH2 3941   1.652   0.896   0.477
 1312TIP3    H1 3942   1.741   0.930   0.463
 1312TIP3    H2 3943   1.664   0.824   0.539
 1313TIP3   OH2 3944   1.360   4.057   4.233
 1313TIP3    H1 3945   1.447   4.018   4.241
 1313TIP3    H2 3946   1.340   4.089   4.321
 1314TIP3   OH2 3947   4.089   0.745   1.521
 1314TIP3    H1 3948   4.047   0.745   1.606
 1314TIP3    H2 3949   4.158   0.811   1.528
 1315TIP3   OH2 3950   4.589   4.808   4.774
 1315TIP3    H1 3951   4.605   4.773   4.686
 1315TIP3    H2 3952   4.675   4.807   4.816
 1316TIP3   OH2 3953   3.675   4.117   1.346
 1316TIP3    H1 3954   3.680   4.164   1.263
 1316TIP3    H2 3955   3.679   4.186   1.413
 1317TIP3   OH2 3956   0.284   2.390   2.158
 1317TIP3    H1 3957   0.267   2.311   2.209
 1317TIP3    H2 3958   0.244   2.461   2.209
 1318TIP3   OH2 3959   0.585   0.101   2.164
 1318TIP3    H1 3960   0.649   0.112   2.094
 1318TIP3    H2 3961   0.612   0.162   2.232
 1319TIP3   OH2 3962   3.608   1.739   4.025
 1319TIP3    H1 3963   3.683   1.712   4.077
 1319TIP3    H2 3964   3.543   1.767   4.089
 1320TIP3   OH2 3965   0.110   4.177   1.271
 1320TIP3    H1 3966   0.179   4.236   1.239
 1320TIP3    H2 3967   0.062   4.152   1.193
 1321TIP3   OH2 3968   0.277   4.882   0.516
 1321TIP3    H1 3969   0.328   4.906   0.594
 1321TIP3    H2 3970   0.269   4.964   0.467
 1322TIP3   OH2 3971   0.185   4.647   2.841
 1322TIP3    H1 3972   0.119   4.592   2.883
 1322TIP3    H2 3973   0.222   4.591   2.772
 1323TIP3   OH2 3974   2.261   5.031   4.956
 1323TIP3    H1 3975   2.356   5.028   4.945
 1323TIP3    H2 3976   2.231   5.086   4.883
 1324TIP3   OH2 3977   5.186   2.553   3.897
 1324TIP3    H1 3978   5.178   2.577   3.990
 1324TIP3    H2 3979   5.201   2.459   3.898
 1325TIP3   OH2 3980   1.360   2.651   4.610
 1325TIP3    H1 3981   1.362   2.666   4.704
 1325TIP3    H2 3982   1.291   2.587   4.596
 1326TIP3   OH2 3983   1.932   3.654   3.982
 1326TIP3    H1 3984   1.939   3.558   3.980
 1326TIP3    H2 3985   1.977   3.682   3.902
 1327TIP3   OH2 3986   6.101   2.364   3.992
 1327TIP3    H1 3987   6.028   2.345   4.051
 1327TIP3    H2 3988   6.061   2.374   3.906
 1328TIP3   OH2 3989   5.209   1.204   3.006
 1328TIP3    H1 3990   5.173   1.288   2.980
 1328TIP3    H2 3991   5.219   1.210   3.101
 1329TIP3   OH2 3992   0.409   0.935   4.891
 1329TIP3    H1 3993   0.450   0.859   4.850
 1329TIP3    H2 3994   0.482   0.996   4.904
 1330TIP3   OH2 3995   6.017   4.801   0.129
 1330TIP3    H1 3996   6.017   4.888   0.088
 1330TIP3    H2 3997   5.942   4.802   0.188
 1331TIP3   OH2 3998   1.051   3.109   1.648
 1331TIP3    H1 3999   1.050   3.076   1.558
 1331TIP3    H2 4000   1.030   3.032   1.701
 1332TIP3   OH2 4001   1.482   5.037   0.696
 1332TIP3    H1 4002   1.556   5.015   0.640
 1332TIP3    H2 4003   1.414   4.974   0.671
 1333TIP3   OH2 4004   3.306   2.284   3.235
 1333TIP3    H1 4005   3.237   2.325   3.183
 1333TIP3    H2 4006   3.366   2.355   3.257
 1334TIP3   OH2 4007   1.704   4.854   2.212
 1334TIP3    H1 4008   1.671   4.775   2.170
 1334TIP3    H2 4009   1.630   4.914   2.212
 1335TIP3   OH2 4010   3.254   3.106   1.462
 1335TIP3    H1 4011   3.321   3.049   1.500
 1335TIP3    H2 4012   3.172   3.058   1.473
 1336TIP3   OH2 4013   2.884   3.150   4.213
 1336TIP3    H1 4014   2.897   3.244   4.209
 1336TIP3    H2 4015   2.795   3.138   4.245
 1337TIP3   OH2 4016   4.461   2.875   4.642
 1337TIP3    H1 4017   4.410   2.814   4.696
 1337TIP3    H2 4018   4.457   2.837   4.554
 1338TIP3   OH2 4019   3.208   2.550   3.014
 1338TIP3    H1 4020   3.162   2.482   2.964
 1338TIP3    H2 4021   3.269   2.589   2.951
 1339TIP3   OH2 4022   5.531   4.134   3.976
 1339TIP3    H1 4023   5.467   4.077   3.933
 1339TIP3    H2 4024   5.561   4.083   4.052
 1340TIP3   OH2 4025   6.044   4.578   4.209
 1340TIP3    H1 4026   6.048   4.494   4.163
 1340TIP3    H2 4027   6.001   4.637   4.148
 1341TIP3   OH2 4028   5.070   3.247   2.595
 1341TIP3    H1 4029   5.116   3.262   2.678
 1341TIP3    H2 4030   5.073   3.332   2.550
 1342TIP3   OH2 4031   1.112   2.441   1.593
 1342TIP3    H1 4032   1.100   2.347   1.577
 1342TIP3    H2 4033   1.190   2.446   1.647
 1343TIP3   OH2 4034   5.879   0.880   1.328
 1343TIP3    H1 4035   5.878   0.973   1.349
 1343TIP3    H2 4036   5.972   0.859   1.320
 1344TIP3   OH2 4037   2.898   2.619   1.979
 1344TIP3    H1 4038   2.875   2.595   2.069
 1344TIP3    H2 4039   2.972   2.680   1.989
 1345TIP3   OH2 4040   4.024   2.084   1.372
 1345TIP3    H1 4041   4.113   2.120   1.366
 1345TIP3    H2 4042   4.028   2.024   1.445
 1346TIP3   OH2 4043   1.197   0.385   0.248
 1346TIP3    H1 4044   1.287   0.400   0.278
 1346TIP3    H2 4045   1.207   0.335   0.167
 1347TIP3   OH2 4046   4.985   0.422   0.484
 1347TIP3    H1 4047   5.059   0.369   0.512
 1347TIP3    H2 4048   4.946   0.454   0.565
 1348TIP3   OH2 4049   1.629   4.263   3.615
 1348TIP3    H1 4050   1.623   4.352   3.579
 1348TIP3    H2 4051   1.708   4.227   3.575
 1349TIP3   OH2 4052   5.980   1.797   0.827
 1349TIP3    H1 4053   6.063   1.844   0.836
 1349TIP3    H2 4054   5.919   1.863   0.792
 1350TIP3   OH2 4055   1.384   0.063   1.847
 1350TIP3    H1 4056   1.425   0.011   1.915
 1350TIP3    H2 4057   1.291   0.038   1.849
 1351TIP3   OH2 4058   1.401   0.826   0.484
 1351TIP3    H1 4059   1.491   0.858   0.474
 1351TIP3    H2 4060   1.382   0.837   0.577
 1352TIP3   OH2 4061   4.431   4.962   2.573
 1352TIP3    H1 4062   4.482   4.992   2.497
 1352TIP3    H2 4063   4.426   4.867   2.562
 1353TIP3   OH2 4064   1.441   2.637   2.644
 1353TIP3    H1 4065   1.470   2.554   2.681
 1353TIP3    H2 4066   1.346   2.630   2.640
 1354TIP3   OH2 4067   4.254   3.895   0.958
 1354TIP3    H1 4068   4.221   3.920   1.044
 1354TIP3    H2 4069   4.349   3.910   0.963
 1355TIP3   OH2 4070   5.617   2.106   2.723
 1355TIP3    H1 4071   5.565   2.026   2.711
 1355TIP3    H2 4072   5.706   2.081   2.698
 1356TIP3   OH2 4073   5.565   3.775   3.219
 1356TIP3    H1 4074   5.594   3.692   3.257
 1356TIP3    H2 4075   5.617   3.842   3.264
 1357TIP3   OH2 4076   0.853   1.731   1.714
 1357TIP3    H1 4077   0.938   1.774   1.725
 1357TIP3    H2 4078   0.788   1.799   1.731
 1358TIP3   OH2 4079   0.346   3.305   3.641
 1358TIP3    H1 4080   0.296   3.381   3.613
 1358TIP3    H2 4081   0.304   3.278   3.723
 1359TIP3   OH2 4082   0.248   1.169   2.872
 1359TIP3    H1 4083   0.209   1.088   2.839
 1359TIP3    H2 4084   0.334   1.142   2.906
 1360TIP3   OH2 4085   4.569   1.497   0.603
 1360TIP3    H1 4086   4.608   1.561   0.543
 1360TIP3    H2 4087   4.621   1.504   0.683
 1361TIP3   OH2 4088   0.484   4.523   1.074
 1361TIP3    H1 4089   0.569   4.554   1.104
 1361TIP3    H2 4090   0.461   4.580   1.001
 1362TIP3   OH2 4091   3.053   0.439   3.614
 1362TIP3    H1 4092   2.975   0.417   3.563
 1362TIP3    H2 4093   3.021   0.497   3.683
 1363TIP3   OH2 4094   4.380   2.423   2.712
 1363TIP3    H1 4095   4.383   2.329   2.693
 1363TIP3    H2 4096   4.287   2.444   2.711
 1364TIP3   OH2 4097   1.263   4.516   4.575
 1364TIP3    H1 4098   1.241   4.584   4.511
 1364TIP3    H2 4099   1.203   4.444   4.555
 1365TIP3   OH2 4100   5.543   5.657   5.067
 1365TIP3    H1 4101   5.481   5.730   5.061
 1365TIP3    H2 4102   5.495   5.582   5.032
 1366TIP3   OH2 4103   5.910   4.393   2.261
 1366TIP3    H1 4104   5.955   4.475   2.281
 1366TIP3    H2 4105   5.978   4.338   2.223
 1367TIP3   OH2 4106   0.594   5.826   4.923
 1367TIP3    H1 4107   0.604   5.845   5.016
 1367TIP3    H2 4108   0.660   5.760   4.904
 1368TIP3   OH2 4109   3.831   0.698   1.406
 1368TIP3    H1 4110   3.925   0.716   1.413
 1368TIP3    H2 4111   3.813   0.638   1.478
 1369TIP3   OH2 4112   1.882   1.991   2.097
 1369TIP3    H1 4113   1.810   1.946   2.142
 1369TIP3    H2 4114   1.841   2.028   2.019
 1370TIP3   OH2 4115   4.336   1.067   2.003
 1370TIP3    H1 4116   4.379   1.117   1.934
 1370TIP3    H2 4117   4.243   1.068   1.980
 1371TIP3   OH2 4118   6.081   4.009   4.869
 1371TIP3    H1 4119   6.149   3.992   4.935
 1371TIP3    H2 4120   6.022   4.071   4.912
 1372TIP3   OH2 4121   4.568   0.148   3.296
 1372TIP3    H1 4122   4.570   0.095   3.217
 1372TIP3    H2 4123   4.598   0.088   3.365
 1373TIP3   OH2 4124   4.593   4.709   1.289
 1373TIP3    H1 4125   4.509   4.754   1.298
 1373TIP3    H2 4126   4.585   4.630   1.343
 1374TIP3   OH2 4127   3.884   1.362   2.510
 1374TIP3    H1 4128   3.958   1.305   2.488
 1374TIP3    H2 4129   3.912   1.409   2.588
 1375TIP3   OH2 4130   5.378   2.809   0.850
 1375TIP3    H1 4131   5.293   2.793   0.810
 1375TIP3    H2 4132   5.358   2.861   0.928
 1376TIP3   OH2 4133   5.107   3.717   3.921
 1376TIP3    H1 4134   5.133   3.641   3.869
 1376TIP3    H2 4135   5.180   3.778   3.911
 1377TIP3   OH2 4136   5.109   2.978   3.365
 1377TIP3    H1 4137   5.067   2.901   3.405
 1377TIP3    H2 4138   5.196   2.948   3.340
 1378TIP3   OH2 4139   5.643   0.109   2.683
 1378TIP3    H1 4140   5.636   0.067   2.597
 1378TIP3    H2 4141   5.553   0.131   2.706
 1379TIP3   OH2 4142   1.009   2.944   3.745
 1379TIP3    H1 4143   0.917   2.965   3.726
 1379TIP3    H2 4144   1.019   2.853   3.719
 1380TIP3   OH2 4145   1.586   3.783   1.798
 1380TIP3    H1 4146   1.649   3.730   1.846
 1380TIP3    H2 4147   1.536   3.721   1.746
 1381TIP3   OH2 4148   0.285   4.771   0.162
 1381TIP3    H1 4149   0.224   4.728   0.222
 1381TIP3    H2 4150   0.264   4.735   0.076
 1382TIP3   OH2 4151   2.752   2.081   3.889
 1382TIP3    H1 4152   2.691   2.012   3.862
 1382TIP3    H2 4153   2.767   2.065   3.982
 1383TIP3   OH2 4154   4.370   0.358   3.622
 1383TIP3    H1 4155   4.340   0.339   3.533
 1383TIP3    H2 4156   4.361   0.452   3.631
 1384TIP3   OH2 4157   3.325   4.954   2.733
 1384TIP3    H1 4158   3.398   4.893   2.736
 1384TIP3    H2 4159   3.255   4.905   2.690
 1385TIP3   OH2 4160   5.777   4.195   1.174
 1385TIP3    H1 4161   5.822   4.123   1.219
 1385TIP3    H2 4162   5.684   4.171   1.179
 1386TIP3   OH2 4163   0.608   5.633   0.461
 1386TIP3    H1 4164   0.541   5.590   0.409
 1386TIP3    H2 4165   0.686   5.578   0.451
 1387TIP3   OH2 4166   0.606   3.219   0.606
 1387TIP3    H1 4167   0.640   3.146   0.555
 1387TIP3    H2 4168   0.667   3.228   0.679
 1388TIP3   OH2 4169   5.488   3.746   3.979
 1388TIP3    H1 4170   5.503   3.668   4.032
 1388TIP3    H2 4171   5.567   3.798   3.989
 1389TIP3   OH2 4172   4.758   3.459   0.051
 1389TIP3    H1 4173   4.810   3.520  -0.001
 1389TIP3    H2 4174   4.690   3.513   0.091
 1390TIP3   OH2 4175   5.088   5.579   0.055
 1390TIP3    H1 4176   5.070   5.615  -0.033
 1390TIP3    H2 4177   5.182   5.561   0.055
 1391TIP3   OH2 4178   2.993   0.441   1.900
 1391TIP3    H1 4179   3.074   0.392   1.884
 1391TIP3    H2 4180   2.961   0.408   1.984
 1392TIP3   OH2 4181   2.593   4.431   0.975
 1392TIP3    H1 4182   2.684   4.418   0.949
 1392TIP3    H2 4183   2.543   4.404   0.898
 1393TIP3   OH2 4184   4.836   1.837   5.043
 1393TIP3    H1 4185   4.752   1.831   4.997
 1393TIP3    H2 4186   4.900   1.800   4.982
 1394TIP3   OH2 4187   2.230   4.783   2.105
 1394TIP3    H1 4188   2.214   4.870   2.069
 1394TIP3    H2 4189   2.281   4.799   2.184
 1395TIP3   OH2 4190   4.719   2.280   2.473
 1395TIP3    H1 4191   4.641   2.224   2.484
 1395TIP3    H2 4192   4.773   2.233   2.410
 1396TIP3   OH2 4193   4.843   2.116   5.058
 1396TIP3    H1 4194   4.778   2.145   4.993
 1396TIP3    H2 4195   4.856   2.023   5.039
 1397TIP3   OH2 4196   1.637   4.959   2.548
 1397TIP3    H1 4197   1.706   4.901   2.515
 1397TIP3    H2 4198   1.558   4.930   2.501
 1398TIP3   OH2 4199   2.772   1.833   0.515
 1398TIP3    H1 4200   2.699   1.837   0.452
 1398TIP3    H2 4201   2.764   1.746   0.554
 1399TIP3   OH2 4202   1.304   5.279   4.725
 1399TIP3    H1 4203   1.249   5.325   4.788
 1399TIP3    H2 4204   1.279   5.187   4.731
 1400TIP3   OH2 4205   4.575   0.913   3.729
 1400TIP3    H1 4206   4.623   0.953   3.657
 1400TIP3    H2 4207   4.484   0.911   3.699
 1401TIP3   OH2 4208   0.710   4.970   1.441
 1401TIP3    H1 4209   0.674   4.881   1.445
 1401TIP3    H2 4210   0.783   4.969   1.503
 1402TIP3   OH2 4211   6.203   1.790   3.118
 1402TIP3    H1 4212   6.231   1.749   3.201
 1402TIP3    H2 4213   6.120   1.748   3.097
 1403TIP3   OH2 4214   1.739   5.935   2.987
 1403TIP3    H1 4215   1.805   5.962   3.051
 1403TIP3    H2 4216   1.788   5.898   2.914
 1404TIP3   OH2 4217   6.155   2.106   3.193
 1404TIP3    H1 4218   6.089   2.086   3.127
 1404TIP3    H2 4219   6.110   2.097   3.277
 1405TIP3   OH2 4220   4.540   5.071   4.851
 1405TIP3    H1 4221   4.446   5.080   4.866
 1405TIP3    H2 4222   4.556   4.977   4.852
 1406TIP3   OH2 4223   0.230   3.008   1.807
 1406TIP3    H1 4224   0.269   3.068   1.870
 1406TIP3    H2 4225   0.292   2.935   1.803
 1407TIP3   OH2 4226   4.739   0.787   0.388
 1407TIP3    H1 4227   4.678   0.759   0.457
 1407TIP3    H2 4228   4.699   0.866   0.352
 1408TIP3   OH2 4229   0.401   2.235   1.494
 1408TIP3    H1 4230   0.471   2.222   1.430
 1408TIP3    H2 4231   0.428   2.312   1.544
 1409TIP3   OH2 4232   1.576   4.187   2.746
 1409TIP3    H1 4233   1.578   4.139   2.829
 1409TIP3    H2 4234   1.652   4.245   2.750
 1410TIP3   OH2 4235   5.151   4.009   3.244
 1410TIP3    H1 4236   5.209   3.936   3.223
 1410TIP3    H2 4237   5.093   4.016   3.168
 1411TIP3   OH2 4238   5.424   4.783   4.614
 1411TIP3    H1 4239   5.466   4.742   4.538
 1411TIP3    H2 4240   5.497   4.801   4.674
 1412TIP3   OH2 4241   0.231   5.897   2.963
 1412TIP3    H1 4242   0.161   5.940   3.013
 1412TIP3    H2 4243   0.282   5.969   2.927
 1413TIP3   OH2 4244   5.878   5.142   1.727
 1413TIP3    H1 4245   5.872   5.225   1.774
 1413TIP3    H2 4246   5.788   5.121   1.704
 1414TIP3   OH2 4247   2.599   2.663   1.273
 1414TIP3    H1 4248   2.634   2.595   1.215
 1414TIP3    H2 4249   2.542   2.616   1.333
 1415TIP3   OH2 4250   4.186   5.233   2.706
 1415TIP3    H1 4251   4.103   5.198   2.672
 1415TIP3    H2 4252   4.159   5.298   2.771
 1416TIP3   OH2 4253   1.315   0.216   4.442
 1416TIP3    H1 4254   1.360   0.286   4.490
 1416TIP3    H2 4255   1.384   0.177   4.387
 1417TIP3   OH2 4256   2.590   4.082   4.177
 1417TIP3    H1 4257   2.537   4.091   4.097
 1417TIP3    H2 4258   2.562   4.155   4.232
 1418TIP3   OH2 4259   4.234   1.362   0.365
 1418TIP3    H1 4260   4.140   1.376   0.357
 1418TIP3    H2 4261   4.272   1.450   0.363
 1419TIP3   OH2 4262   3.601   1.208   3.447
 1419TIP3    H1 4263   3.631   1.179   3.361
 1419TIP3    H2 4264   3.599   1.303   3.442
 1420TIP3   OH2 4265   6.339   3.779   3.331
 1420TIP3    H1 4266   6.275   3.831   3.379
 1420TIP3    H2 4267   6.302   3.690   3.331
 1421TIP3   OH2 4268   5.663   3.716   2.230
 1421TIP3    H1 4269   5.746   3.687   2.192
 1421TIP3    H2 4270   5.685   3.795   2.278
 1422TIP3   OH2 4271   5.710   5.905   4.351
 1422TIP3    H1 4272   5.718   5.879   4.442
 1422TIP3    H2 4273   5.748   5.832   4.302
 1423TIP3   OH2 4274   4.989   4.820   4.367
 1423TIP3    H1 4275   5.044   4.857   4.298
 1423TIP3    H2 4276   4.929   4.761   4.321
 1424TIP3   OH2 4277   5.287   4.046   4.846
 1424TIP3    H1 4278   5.354   4.100   4.805
 1424TIP3    H2 4279   5.222   4.032   4.777
 1425TIP3   OH2 4280   5.729   3.035   1.174
 1425TIP3    H1 4281   5.649   3.066   1.132
 1425TIP3    H2 4282   5.715   2.941   1.185
 1426TIP3   OH2 4283   2.694   1.217   2.167
 1426TIP3    H1 4284   2.604   1.185   2.153
 1426TIP3    H2 4285   2.749   1.151   2.126
 1427TIP3   OH2 4286   3.655   5.531   3.441
 1427TIP3    H1 4287   3.669   5.455   3.384
 1427TIP3    H2 4288   3.658   5.606   3.382
 1428TIP3   OH2 4289   4.128   0.824   2.768
 1428TIP3    H1 4290   4.092   0.735   2.765
 1428TIP3    H2 4291   4.218   0.814   2.739
 1429TIP3   OH2 4292   1.547   3.083   3.466
 1429TIP3    H1 4293   1.491   3.087   3.543
 1429TIP3    H2 4294   1.580   3.172   3.455
 1430TIP3   OH2 4295   3.765   5.797   1.951
 1430TIP3    H1 4296   3.804   5.882   1.934
 1430TIP3    H2 4297   3.807   5.767   2.032
 1431TIP3   OH2 4298   3.237   1.984   0.216
 1431TIP3    H1 4299   3.248   1.896   0.180
 1431TIP3    H2 4300   3.151   1.983   0.258
 1432TIP3   OH2 4301   2.663   0.423   0.673
 1432TIP3    H1 4302   2.749   0.452   0.642
 1432TIP3    H2 4303   2.633   0.361   0.607
 1433TIP3   OH2 4304   5.214   1.192   4.767
 1433TIP3    H1 4305   5.227   1.142   4.848
 1433TIP3    H2 4306   5.126   1.169   4.738
 1434TIP3   OH2 4307   3.319   3.978   2.758
 1434TIP3    H1 4308   3.285   4.056   2.715
 1434TIP3    H2 4309   3.317   3.999   2.851
 1435TIP3   OH2 4310   2.326   1.788   0.778
 1435TIP3    H1 4311   2.279   1.818   0.700
 1435TIP3    H2 4312   2.261   1.738   0.828
 1436TIP3   OH2 4313   0.426   0.672   1.191
 1436TIP3    H1 4314   0.435   0.635   1.103
 1436TIP3    H2 4315   0.332   0.665   1.210
 1437TIP3   OH2 4316   3.713   5.590   1.409
 1437TIP3    H1 4317   3.798   5.610   1.369
 1437TIP3    H2 4318   3.658   5.560   1.337
 1438TIP3   OH2 4319   3.937   3.530   4.912
 1438TIP3    H1 4320   3.973   3.591   4.976
 1438TIP3    H2 4321   3.911   3.453   4.963
 1439TIP3   OH2 4322   3.945   4.587   3.857
 1439TIP3    H1 4323   3.873   4.591   3.794
 1439TIP3    H2 4324   4.022   4.614   3.807
 1440TIP3   OH2 4325   2.128   1.855   2.104
 1440TIP3    H1 4326   2.170   1.915   2.042
 1440TIP3    H2 4327   2.036   1.882   2.104
 1441TIP3   OH2 4328   2.508   3.210   2.077
 1441TIP3    H1 4329   2.507   3.162   1.994
 1441TIP3    H2 4330   2.482   3.299   2.053
 1442TIP3   OH2 4331   2.079   2.094   0.783
 1442TIP3    H1 4332   2.151   2.057   0.833
 1442TIP3    H2 4333   2.007   2.031   0.793
 1443TIP3   OH2 4334   2.103   5.481   1.259
 1443TIP3    H1 4335   2.169   5.508   1.196
 1443TIP3    H2 4336   2.035   5.440   1.206
 1444TIP3   OH2 4337   3.907   4.692   1.451
 1444TIP3    H1 4338   3.891   4.614   1.397
 1444TIP3    H2 4339   3.820   4.730   1.464
 1445TIP3   OH2 4340   5.909   2.742   1.679
 1445TIP3    H1 4341   5.912   2.667   1.738
 1445TIP3    H2 4342   5.867   2.811   1.731
 1446TIP3   OH2 4343   3.879   1.407   1.123
 1446TIP3    H1 4344   3.916   1.449   1.045
 1446TIP3    H2 4345   3.795   1.371   1.093
 1447TIP3   OH2 4346   2.027   2.138   0.507
 1447TIP3    H1 4347   1.988   2.056   0.475
 1447TIP3    H2 4348   2.066   2.114   0.591
 1448TIP3   OH2 4349   5.386   4.865   1.787
 1448TIP3    H1 4350   5.408   4.783   1.832
 1448TIP3    H2 4351   5.311   4.842   1.731
 1449TIP3   OH2 4352   4.864   0.230   2.913
 1449TIP3    H1 4353   4.852   0.301   2.976
 1449TIP3    H2 4354   4.780   0.223   2.868
 1450TIP3   OH2 4355   5.949   1.448   1.372
 1450TIP3    H1 4356   6.041   1.470   1.365
 1450TIP3    H2 4357   5.912   1.516   1.428
 1451TIP3   OH2 4358   4.707   5.841   2.186
 1451TIP3    H1 4359   4.792   5.798   2.193
 1451TIP3    H2 4360   4.726   5.934   2.193
 1452TIP3   OH2 4361   2.050   0.660   3.967
 1452TIP3    H1 4362   2.004   0.699   4.041
 1452TIP3    H2 4363   2.076   0.573   3.998
 1453TIP3   OH2 4364   2.402   5.559   2.604
 1453TIP3    H1 4365   2.492   5.578   2.634
 1453TIP3    H2 4366   2.354   5.543   2.685
 1454TIP3   OH2 4367   2.365   2.172   2.111
 1454TIP3    H1 4368   2.399   2.085   2.088
 1454TIP3    H2 4369   2.271   2.159   2.122
 1455TIP3   OH2 4370   1.976   2.847   2.816
 1455TIP3    H1 4371   1.960   2.899   2.737
 1455TIP3    H2 4372   1.911   2.777   2.812
 1456TIP3   OH2 4373   0.080   5.845   1.457
 1456TIP3    H1 4374   0.165   5.877   1.489
 1456TIP3    H2 4375   0.070   5.759   1.497
 1457TIP3   OH2 4376   3.203   1.411   0.429
 1457TIP3    H1 4377   3.153   1.332   0.450
 1457TIP3    H2 4378   3.254   1.387   0.352
 1458TIP3   OH2 4379   3.322   0.315   4.934
 1458TIP3    H1 4380   3.234   0.281   4.954
 1458TIP3    H2 4381   3.306   0.387   4.874
 1459TIP3   OH2 4382   2.516   1.895   1.294
 1459TIP3    H1 4383   2.460   1.877   1.219
 1459TIP3    H2 4384   2.597   1.848   1.276
 1460TIP3   OH2 4385   2.383   1.005   3.559
 1460TIP3    H1 4386   2.356   0.921   3.597
 1460TIP3    H2 4387   2.316   1.067   3.587
 1461TIP3   OH2 4388   4.771   1.820   4.279
 1461TIP3    H1 4389   4.855   1.786   4.248
 1461TIP3    H2 4390   4.730   1.857   4.201
 1462TIP3   OH2 4391   2.781   4.714   1.254
 1462TIP3    H1 4392   2.842   4.654   1.212
 1462TIP3    H2 4393   2.814   4.723   1.344
 1463TIP3   OH2 4394   4.023   2.821  -0.046
 1463TIP3    H1 4395   4.109   2.782  -0.056
 1463TIP3    H2 4396   4.030   2.876   0.032
 1464TIP3   OH2 4397   6.115   1.325   2.002
 1464TIP3    H1 4398   6.046   1.294   2.062
 1464TIP3    H2 4399   6.148   1.246   1.961
 1465TIP3   OH2 4400   6.341   4.143   4.061
 1465TIP3    H1 4401   6.309   4.196   4.133
 1465TIP3    H2 4402   6.421   4.102   4.094
 1466TIP3   OH2 4403   3.693   1.793   4.958
 1466TIP3    H1 4404   3.680   1.877   5.003
 1466TIP3    H2 4405   3.711   1.731   5.029
 1467TIP3   OH2 4406   5.942   1.749   3.859
 1467TIP3    H1 4407   5.909   1.684   3.922
 1467TIP3    H2 4408   5.920   1.833   3.898
 1468TIP3   OH2 4409   4.297   2.436   2.286
 1468TIP3    H1 4410   4.352   2.471   2.215
 1468TIP3    H2 4411   4.303   2.501   2.356
 1469TIP3   OH2 4412   3.277   2.152   3.780
 1469TIP3    H1 4413   3.262   2.236   3.737
 1469TIP3    H2 4414   3.199   2.139   3.834
 1470TIP3   OH2 4415   4.604   2.540   3.463
 1470TIP3    H1 4416   4.523   2.515   3.507
 1470TIP3    H2 4417   4.598   2.636   3.456
 1471TIP3   OH2 4418   4.744   5.320   3.055
 1471TIP3    H1 4419   4.776   5.270   2.980
 1471TIP3    H2 4420   4.658   5.281   3.074
 1472TIP3   OH2 4421   3.942   3.464   3.073
 1472TIP3    H1 4422   4.037   3.471   3.076
 1472TIP3    H2 4423   3.923   3.374   3.097
 1473TIP3   OH2 4424   5.499   1.909   0.841
 1473TIP3    H1 4425   5.471   1.848   0.773
 1473TIP3    H2 4426   5.417   1.940   0.880
 1474TIP3   OH2 4427   0.980   1.523   2.422
 1474TIP3    H1 4428   0.947   1.582   2.354
 1474TIP3    H2 4429   0.927   1.444   2.413
 1475TIP3   OH2 4430   4.385   5.906   3.193
 1475TIP3    H1 4431   4.391   5.838   3.259
 1475TIP3    H2 4432   4.462   5.961   3.207
 1476TIP3   OH2 4433   3.060   1.428   0.935
 1476TIP3    H1 4434   2.980   1.383   0.912
 1476TIP3    H2 4435   3.032   1.516   0.961
 1477TIP3   OH2 4436   1.995   2.929   0.661
 1477TIP3    H1 4437   1.919   2.984   0.680
 1477TIP3    H2 4438   1.964   2.867   0.595
 1478TIP3   OH2 4439   3.364   2.093   4.544
 1478TIP3    H1 4440   3.347   1.999   4.543
 1478TIP3    H2 4441   3.447   2.102   4.591
 1479TIP3   OH2 4442   2.191   5.238   5.120
 1479TIP3    H1 4443   2.229   5.155   5.091
 1479TIP3    H2 4444   2.099   5.218   5.137
 1480TIP3   OH2 4445   2.700   5.936   0.413
 1480TIP3    H1 4446   2.654   5.875   0.355
 1480TIP3    H2 4447   2.648   5.935   0.494
 1481TIP3   OH2 4448   2.168   5.764   3.630
 1481TIP3    H1 4449   2.115   5.843   3.628
 1481TIP3    H2 4450   2.110   5.695   3.597
 1482TIP3   OH2 4451   0.954   4.025   0.825
 1482TIP3    H1 4452   0.961   3.932   0.804
 1482TIP3    H2 4453   0.900   4.062   0.755
 1483TIP3   OH2 4454   0.841   0.529   0.238
 1483TIP3    H1 4455   0.929   0.537   0.274
 1483TIP3    H2 4456   0.824   0.435   0.236
 1484TIP3   OH2 4457   3.455   3.968   0.439
 1484TIP3    H1 4458   3.397   4.017   0.497
 1484TIP3    H2 4459   3.508   3.914   0.498
 1485TIP3   OH2 4460   5.807   2.886   0.547
 1485TIP3    H1 4461   5.901   2.883   0.562
 1485TIP3    H2 4462   5.781   2.795   0.533
 1486TIP3   OH2 4463   1.420   0.571   0.059
 1486TIP3    H1 4464   1.468   0.499   0.100
 1486TIP3    H2 4465   1.414   0.639   0.126
 1487TIP3   OH2 4466   1.032   3.552   4.085
 1487TIP3    H1 4467   0.937   3.538   4.079
 1487TIP3    H2 4468   1.043   3.646   4.076
 1488TIP3   OH2 4469   2.967   0.617   3.135
 1488TIP3    H1 4470   2.995   0.659   3.217
 1488TIP3    H2 4471   2.876   0.592   3.152
 1489TIP3   OH2 4472   3.573   2.869   2.633
 1489TIP3    H1 4473   3.571   2.789   2.686
 1489TIP3    H2 4474   3.501   2.859   2.572
 1490TIP3   OH2 4475   4.222   4.079   0.447
 1490TIP3    H1 4476   4.225   4.050   0.538
 1490TIP3    H2 4477   4.131   4.103   0.432
 1491TIP3   OH2 4478   4.863   4.540   4.532
 1491TIP3    H1 4479   4.852   4.631   4.561
 1491TIP3    H2 4480   4.950   4.539   4.491
 1492TIP3   OH2 4481   1.090   1.925   4.762
 1492TIP3    H1 4482   1.085   2.020   4.766
 1492TIP3    H2 4483   1.089   1.896   4.853
 1493TIP3   OH2 4484   1.089   0.965   2.307
 1493TIP3    H1 4485   1.129   0.900   2.249
 1493TIP3    H2 4486   1.090   0.923   2.394
 1494TIP3   OH2 4487   0.361   0.229   2.050
 1494TIP3    H1 4488   0.285   0.194   2.096
 1494TIP3    H2 4489   0.436   0.186   2.090
 1495TIP3   OH2 4490   5.930   1.915   1.826
 1495TIP3    H1 4491   5.841   1.904   1.795
 1495TIP3    H2 4492   5.921   1.954   1.913
 1496TIP3   OH2 4493   1.857   4.897   3.831
 1496TIP3    H1 4494   1.931   4.956   3.818
 1496TIP3    H2 4495   1.812   4.930   3.909
 1497TIP3   OH2 4496   3.082   0.924   0.085
 1497TIP3    H1 4497   3.055   0.833   0.076
 1497TIP3    H2 4498   3.116   0.931   0.174
 1498TIP3   OH2 4499   4.112   5.694   0.166
 1498TIP3    H1 4500   4.154   5.779   0.161
 1498TIP3    H2 4501   4.025   5.708   0.129
 1499TIP3   OH2 4502   0.152   4.321   0.773
 1499TIP3    H1 4503   0.070   4.362   0.747
 1499TIP3    H2 4504   0.128   4.260   0.842
 1500TIP3   OH2 4505   5.434   3.229   0.779
 1500TIP3    H1 4506   5.356   3.237   0.723
 1500TIP3    H2 4507   5.415   3.284   0.855
 1501TIP3   OH2 4508   0.475   1.731   2.133
 1501TIP3    H1 4509   0.449   1.748   2.042
 1501TIP3    H2 4510   0.438   1.803   2.183
 1502TIP3   OH2 4511   4.823   4.787   3.370
 1502TIP3    H1 4512   4.833   4.880   3.347
 1502TIP3    H2 4513   4.859   4.740   3.295
 1503TIP3   OH2 4514   1.137   4.761   3.398
 1503TIP3    H1 4515   1.126   4.679   3.349
 1503TIP3    H2 4516   1.067   4.817   3.365
 1504TIP3   OH2 4517   2.622   0.063   3.433
 1504TIP3    H1 4518   2.716   0.080   3.441
 1504TIP3    H2 4519   2.583   0.113   3.505
 1505TIP3   OH2 4520   5.798   2.562   0.690
 1505TIP3    H1 4521   5.722   2.572   0.747
 1505TIP3    H2 4522   5.861   2.626   0.722
 1506TIP3   OH2 4523   6.295   4.265   4.815
 1506TIP3    H1 4524   6.319   4.188   4.868
 1506TIP3    H2 4525   6.338   4.250   4.731
 1507TIP3   OH2 4526   0.398   4.859   1.458
 1507TIP3    H1 4527   0.466   4.816   1.406
 1507TIP3    H2 4528   0.446   4.906   1.526
 1508TIP3   OH2 4529   1.500   4.209   1.463
 1508TIP3    H1 4530   1.477   4.202   1.556
 1508TIP3    H2 4531   1.595   4.201   1.461
 1509TIP3   OH2 4532   0.412   4.728   2.287
 1509TIP3    H1 4533   0.332   4.698   2.244
 1509TIP3    H2 4534   0.384   4.749   2.377
 1510TIP3   OH2 4535   5.293   4.846   2.526
 1510TIP3    H1 4536   5.199   4.850   2.508
 1510TIP3    H2 4537   5.304   4.898   2.605
 1511TIP3   OH2 4538   3.308   3.870   4.738
 1511TIP3    H1 4539   3.296   3.776   4.756
 1511TIP3    H2 4540   3.222   3.900   4.710
 1512TIP3   OH2 4541   4.045   5.629   4.854
 1512TIP3    H1 4542   4.134   5.608   4.882
 1512TIP3    H2 4543   4.033   5.579   4.773
 1513TIP3   OH2 4544   0.776   1.286   4.285
 1513TIP3    H1 4545   0.701   1.231   4.309
 1513TIP3    H2 4546   0.812   1.243   4.206
 1514TIP3   OH2 4547   4.598   1.383   1.938
 1514TIP3    H1 4548   4.693   1.375   1.926
 1514TIP3    H2 4549   4.572   1.451   1.877
 1515TIP3   OH2 4550   0.146   3.854   0.476
 1515TIP3    H1 4551   0.164   3.877   0.567
 1515TIP3    H2 4552   0.068   3.904   0.453
 1516TIP3   OH2 4553   4.929   4.878   5.116
 1516TIP3    H1 4554   4.849   4.885   5.064
 1516TIP3    H2 4555   4.970   4.797   5.087
 1517TIP3   OH2 4556   3.043   3.565   0.337
 1517TIP3    H1 4557   3.051   3.480   0.382
 1517TIP3    H2 4558   3.018   3.542   0.248
 1518TIP3   OH2 4559   2.567   4.047   3.571
 1518TIP3    H1 4560   2.483   4.056   3.616
 1518TIP3    H2 4561   2.612   4.131   3.587
 1519TIP3   OH2 4562   1.125   5.991   3.702
 1519TIP3    H1 4563   1.143   5.958   3.790
 1519TIP3    H2 4564   1.199   6.050   3.683
 1520TIP3   OH2 4565   3.102   1.267   1.949
 1520TIP3    H1 4566   3.131   1.326   1.879
 1520TIP3    H2 4567   3.043   1.321   2.002
 1521TIP3   OH2 4568   2.358   0.563   3.328
 1521TIP3    H1 4569   2.281   0.612   3.356
 1521TIP3    H2 4570   2.389   0.609   3.250
 1522TIP3   OH2 4571   1.008   5.269   1.339
 1522TIP3    H1 4572   1.026   5.260   1.433
 1522TIP3    H2 4573   0.950   5.195   1.319
 1523TIP3   OH2 4574   0.070   3.504   4.372
 1523TIP3    H1 4575   0.129   3.465   4.436
 1523TIP3    H2 4576   0.001   3.545   4.425
 1524TIP3   OH2 4577   3.817   2.259   2.430
 1524TIP3    H1 4578   3.866   2.179   2.446
 1524TIP3    H2 4579   3.849   2.290   2.345
 1525TIP3   OH2 4580   3.098   1.311   3.021
 1525TIP3    H1 4581   3.031   1.378   3.011
 1525TIP3    H2 4582   3.168   1.339   2.962
 1526TIP3   OH2 4583   5.796   3.682   3.592
 1526TIP3    H1 4584   5.775   3.759   3.645
 1526TIP3    H2 4585   5.765   3.608   3.643
 1527TIP3   OH2 4586   3.991   2.077   0.768
 1527TIP3    H1 4587   4.032   2.155   0.730
 1527TIP3    H2 4588   3.939   2.111   0.841
 1528TIP3   OH2 4589   0.605   3.359   0.360
 1528TIP3    H1 4590   0.620   3.297   0.432
 1528TIP3    H2 4591   0.510   3.365   0.354
 1529TIP3   OH2 4592   1.358   1.326   2.054
 1529TIP3    H1 4593   1.313   1.410   2.046
 1529TIP3    H2 4594   1.439   1.346   2.101
 1530TIP3   OH2 4595   1.854   5.748   2.241
 1530TIP3    H1 4596   1.855   5.746   2.145
 1530TIP3    H2 4597   1.922   5.811   2.265
 1531TIP3   OH2 4598   2.679   4.263   3.845
 1531TIP3    H1 4599   2.771   4.283   3.862
 1531TIP3    H2 4600   2.645   4.340   3.800
 1532TIP3   OH2 4601   1.429   2.400   2.042
 1532TIP3    H1 4602   1.446   2.439   1.956
 1532TIP3    H2 4603   1.466   2.463   2.104
 1533TIP3   OH2 4604   2.563   4.936   3.610
 1533TIP3    H1 4605   2.513   4.998   3.558
 1533TIP3    H2 4606   2.555   4.852   3.565
 1534TIP3   OH2 4607   5.464   5.354   4.923
 1534TIP3    H1 4608   5.425   5.270   4.946
 1534TIP3    H2 4609   5.394   5.402   4.878
 1535TIP3   OH2 4610   5.679   5.124   2.760
 1535TIP3    H1 4611   5.703   5.045   2.712
 1535TIP3    H2 4612   5.679   5.097   2.852
 1536TIP3   OH2 4613   4.548   1.213   4.711
 1536TIP3    H1 4614   4.542   1.263   4.629
 1536TIP3    H2 4615   4.553   1.279   4.779
 1537TIP3   OH2 4616   5.325   0.512   4.431
 1537TIP3    H1 4617   5.316   0.557   4.514
 1537TIP3    H2 4618   5.261   0.441   4.435
 1538TIP3   OH2 4619   5.678   3.254   0.058
 1538TIP3    H1 4620   5.739   3.308   0.108
 1538TIP3    H2 4621   5.647   3.312  -0.012
 1539TIP3   OH2 4622   5.860   3.488   0.123
 1539TIP3    H1 4623   5.874   3.559   0.060
 1539TIP3    H2 4624   5.838   3.533   0.205
 1540TIP3   OH2 4625   1.022   3.114   5.028
 1540TIP3    H1 4626   1.069   3.179   4.976
 1540TIP3    H2 4627   1.024   3.035   4.975
 1541TIP3   OH2 4628   5.233   3.721   0.923
 1541TIP3    H1 4629   5.147   3.690   0.952
 1541TIP3    H2 4630   5.263   3.779   0.993
 1542TIP3   OH2 4631   1.236   0.650   1.305
 1542TIP3    H1 4632   1.249   0.678   1.396
 1542TIP3    H2 4633   1.158   0.595   1.309
 1543TIP3   OH2 4634   1.054   4.592   1.471
 1543TIP3    H1 4635   1.117   4.603   1.542
 1543TIP3    H2 4636   1.085   4.514   1.424
 1544TIP3   OH2 4637   4.988   1.877   4.671
 1544TIP3    H1 4638   5.023   1.790   4.651
 1544TIP3    H2 4639   5.034   1.905   4.749
 1545TIP3   OH2 4640   1.053   5.968   3.177
 1545TIP3    H1 4641   0.961   5.964   3.151
 1545TIP3    H2 4642   1.074   5.879   3.205
 1546TIP3   OH2 4643   4.237   0.200   4.958
 1546TIP3    H1 4644   4.262   0.279   4.911
 1546TIP3    H2 4645   4.257   0.129   4.898
 1547TIP3   OH2 4646   5.898   1.241   2.645
 1547TIP3    H1 4647   5.844   1.191   2.706
 1547TIP3    H2 4648   5.951   1.298   2.701
 1548TIP3   OH2 4649   2.319   4.627   2.702
 1548TIP3    H1 4650   2.362   4.684   2.766
 1548TIP3    H2 4651   2.226   4.644   2.713
 1549TIP3   OH2 4652   5.888   2.955   1.913
 1549TIP3    H1 4653   5.875   3.023   1.847
 1549TIP3    H2 4654   5.845   2.989   1.992
 1550TIP3   OH2 4655   5.035   1.850   0.436
 1550TIP3    H1 4656   4.940   1.859   0.439
 1550TIP3    H2 4657   5.059   1.870   0.346
 1551TIP3   OH2 4658   3.170   1.649   0.242
 1551TIP3    H1 4659   3.111   1.576   0.230
 1551TIP3    H2 4660   3.156   1.677   0.333
 1552TIP3   OH2 4661   4.175   4.117   3.564
 1552TIP3    H1 4662   4.223   4.124   3.481
 1552TIP3    H2 4663   4.243   4.110   3.630
 1553TIP3   OH2 4664   2.409   2.943   0.543
 1553TIP3    H1 4665   2.470   2.880   0.580
 1553TIP3    H2 4666   2.463   3.019   0.520
 1554TIP3   OH2 4667   0.218   1.984   4.992
 1554TIP3    H1 4668   0.241   1.955   5.080
 1554TIP3    H2 4669   0.128   1.953   4.980
 1555TIP3   OH2 4670   4.552   4.512   0.090
 1555TIP3    H1 4671   4.567   4.433   0.142
 1555TIP3    H2 4672   4.460   4.506   0.064
 1556TIP3   OH2 4673   0.371   0.206   0.107
 1556TIP3    H1 4674   0.379   0.282   0.049
 1556TIP3    H2 4675   0.438   0.145   0.076
 1557TIP3   OH2 4676   5.065   2.290   1.958
 1557TIP3    H1 4677   5.053   2.210   1.907
 1557TIP3    H2 4678   4.977   2.318   1.980
 1558TIP3   OH2 4679   2.925   2.598   0.142
 1558TIP3    H1 4680   3.000   2.640   0.101
 1558TIP3    H2 4681   2.859   2.668   0.149
 1559TIP3   OH2 4682   5.280   4.495   1.252
 1559TIP3    H1 4683   5.266   4.550   1.175
 1559TIP3    H2 4684   5.223   4.532   1.319
 1560TIP3   OH2 4685   4.200   1.833   1.476
 1560TIP3    H1 4686   4.221   1.756   1.423
 1560TIP3    H2 4687   4.106   1.826   1.493
 1561TIP3   OH2 4688   0.056   5.308   1.023
 1561TIP3    H1 4689  -0.013   5.334   1.085
 1561TIP3    H2 4690   0.013   5.247   0.963
 1562TIP3   OH2 4691   2.854   4.087   0.522
 1562TIP3    H1 4692   2.911   4.045   0.587
 1562TIP3    H2 4693   2.883   4.178   0.519
 1563TIP3   OH2 4694   4.218   1.628   3.266
 1563TIP3    H1 4695   4.276   1.553   3.272
 1563TIP3    H2 4696   4.224   1.656   3.174
 1564TIP3   OH2 4697   2.395   4.875   4.639
 1564TIP3    H1 4698   2.460   4.806   4.649
 1564TIP3    H2 4699   2.320   4.832   4.598
 1565TIP3   OH2 4700   4.123   4.216   4.843
 1565TIP3    H1 4701   4.211   4.251   4.827
 1565TIP3    H2 4702   4.092   4.264   4.920
 1566TIP3   OH2 4703   2.659   3.081   5.055
 1566TIP3    H1 4704   2.683   3.026   5.130
 1566TIP3    H2 4705   2.731   3.144   5.048
 1567TIP3   OH2 4706   6.097   3.971   3.221
 1567TIP3    H1 4707   6.078   3.918   3.143
 1567TIP3    H2 4708   6.027   3.949   3.282
 1568TIP3   OH2 4709   3.137   0.825   4.110
 1568TIP3    H1 4710   3.204   0.889   4.084
 1568TIP3    H2 4711   3.140   0.824   4.205
 1569TIP3   OH2 4712   2.703   1.270   0.942
 1569TIP3    H1 4713   2.706   1.246   1.035
 1569TIP3    H2 4714   2.635   1.337   0.937
 1570TIP3   OH2 4715   4.363   4.892   0.587
 1570TIP3    H1 4716   4.444   4.847   0.610
 1570TIP3    H2 4717   4.366   4.974   0.635
 1571TIP3   OH2 4718   4.090   5.322   4.990
 1571TIP3    H1 4719   4.069   5.245   4.937
 1571TIP3    H2 4720   4.021   5.385   4.970
 1572TIP3   OH2 4721   3.316   5.721   1.931
 1572TIP3    H1 4722   3.257   5.775   1.984
 1572TIP3    H2 4723   3.396   5.772   1.924
 1573TIP3   OH2 4724   0.644   0.089   3.445
 1573TIP3    H1 4725   0.616   0.181   3.442
 1573TIP3    H2 4726   0.720   0.085   3.387
 1574TIP3   OH2 4727   1.519   1.369   3.535
 1574TIP3    H1 4728   1.441   1.335   3.491
 1574TIP3    H2 4729   1.559   1.428   3.471
 1575TIP3   OH2 4730   4.897   1.498   3.357
 1575TIP3    H1 4731   4.814   1.538   3.382
 1575TIP3    H2 4732   4.956   1.517   3.430
 1576TIP3   OH2 4733   2.250   5.148   0.684
 1576TIP3    H1 4734   2.238   5.230   0.730
 1576TIP3    H2 4735   2.178   5.145   0.620
 1577TIP3   OH2 4736   1.577   5.765   2.286
 1577TIP3    H1 4737   1.581   5.858   2.263
 1577TIP3    H2 4738   1.667   5.733   2.274
 1578TIP3   OH2 4739   6.299   2.597   2.895
 1578TIP3    H1 4740   6.216   2.565   2.861
 1578TIP3    H2 4741   6.365   2.536   2.862
 1579TIP3   OH2 4742   0.242   2.207   2.899
 1579TIP3    H1 4743   0.272   2.117   2.887
 1579TIP3    H2 4744   0.312   2.249   2.948
 1580TIP3   OH2 4745   2.739   0.526   1.109
 1580TIP3    H1 4746   2.677   0.547   1.039
 1580TIP3    H2 4747   2.701   0.566   1.188
 1581TIP3   OH2 4748   5.948   3.270   3.131
 1581TIP3    H1 4749   5.866   3.230   3.102
 1581TIP3    H2 4750   5.981   3.316   3.054
 1582TIP3   OH2 4751   5.258   0.034   3.579
 1582TIP3    H1 4752   5.201   0.053   3.653
 1582TIP3    H2 4753   5.205  -0.022   3.521
 1583TIP3   OH2 4754   5.698   5.801   4.633
 1583TIP3    H1 4755   5.738   5.795   4.720
 1583TIP3    H2 4756   5.631   5.869   4.642
 1584TIP3   OH2 4757   1.287   4.434   0.066
 1584TIP3    H1 4758   1.293   4.466   0.156
 1584TIP3    H2 4759   1.347   4.491   0.017
 1585TIP3   OH2 4760   4.100   1.031   1.854
 1585TIP3    H1 4761   4.057   0.946   1.851
 1585TIP3    H2 4762   4.067   1.077   1.777
 1586TIP3   OH2 4763   5.527   2.813   3.000
 1586TIP3    H1 4764   5.581   2.882   3.040
 1586TIP3    H2 4765   5.463   2.860   2.947
 1587TIP3   OH2 4766   5.560   2.885   0.234
 1587TIP3    H1 4767   5.564   2.865   0.328
 1587TIP3    H2 4768   5.472   2.860   0.208
 1588TIP3   OH2 4769   0.860   2.204   0.857
 1588TIP3    H1 4770   0.785   2.224   0.801
 1588TIP3    H2 4771   0.903   2.130   0.813
 1589TIP3   OH2 4772   3.287   0.054   0.112
 1589TIP3    H1 4773   3.197   0.085   0.106
 1589TIP3    H2 4774   3.286  -0.008   0.184
 1590TIP3   OH2 4775   5.100   0.933   1.177
 1590TIP3    H1 4776   5.183   0.889   1.196
 1590TIP3    H2 4777   5.122   0.994   1.107
 1591TIP3   OH2 4778   4.314   1.619   0.420
 1591TIP3    H1 4779   4.354   1.592   0.502
 1591TIP3    H2 4780   4.279   1.707   0.438
 1592TIP3   OH2 4781   3.219   1.655   1.906
 1592TIP3    H1 4782   3.226   1.661   2.001
 1592TIP3    H2 4783   3.136   1.698   1.885
 1593TIP3   OH2 4784   5.638   1.717   0.179
 1593TIP3    H1 4785   5.573   1.781   0.210
 1593TIP3    H2 4786   5.624   1.640   0.235
 1594TIP3   OH2 4787   2.936   2.906   2.609
 1594TIP3    H1 4788   3.019   2.903   2.656
 1594TIP3    H2 4789   2.944   2.980   2.549
 1595TIP3   OH2 4790   1.675   2.692   2.526
 1595TIP3    H1 4791   1.712   2.604   2.517
 1595TIP3    H2 4792   1.580   2.678   2.529
 1596TIP3   OH2 4793   5.490   0.439   2.021
 1596TIP3    H1 4794   5.580   0.410   2.003
 1596TIP3    H2 4795   5.436   0.390   1.959
 1597TIP3   OH2 4796   2.386   1.639   0.113
 1597TIP3    H1 4797   2.382   1.724   0.068
 1597TIP3    H2 4798   2.476   1.633   0.143
 1598TIP3   OH2 4799   1.848   2.942   0.977
 1598TIP3    H1 4800   1.796   2.862   0.966
 1598TIP3    H2 4801   1.819   2.999   0.906
 1599TIP3   OH2 4802   1.987   5.886   4.882
 1599TIP3    H1 4803   1.976   5.944   4.806
 1599TIP3    H2 4804   1.912   5.906   4.938
 1600TIP3   OH2 4805   3.886   4.086   3.060
 1600TIP3    H1 4806   3.981   4.085   3.056
 1600TIP3    H2 4807   3.865   4.048   3.146
 1601TIP3   OH2 4808   4.009   0.341   4.274
 1601TIP3    H1 4809   3.957   0.269   4.239
 1601TIP3    H2 4810   3.946   0.394   4.322
 1602TIP3   OH2 4811   3.574   0.774   0.666
 1602TIP3    H1 4812   3.540   0.784   0.754
 1602TIP3    H2 4813   3.608   0.685   0.662
 1603TIP3   OH2 4814   2.880   5.194   4.786
 1603TIP3    H1 4815   2.941   5.187   4.859
 1603TIP3    H2 4816   2.902   5.120   4.729
 1604TIP3   OH2 4817   2.479   5.313   2.152
 1604TIP3    H1 4818   2.539   5.339   2.082
 1604TIP3    H2 4819   2.392   5.317   2.112
 1605TIP3   OH2 4820   6.295   5.381   1.255
 1605TIP3    H1 4821   6.219   5.436   1.276
 1605TIP3    H2 4822   6.292   5.311   1.320
 1606TIP3   OH2 4823   4.203   4.826   3.364
 1606TIP3    H1 4824   4.175   4.802   3.275
 1606TIP3    H2 4825   4.275   4.766   3.383
 1607TIP3   OH2 4826   2.802   0.937   2.323
 1607TIP3    H1 4827   2.862   0.997   2.280
 1607TIP3    H2 4828   2.849   0.853   2.322
 1608TIP3   OH2 4829   4.162   4.438   2.924
 1608TIP3    H1 4830   4.145   4.513   2.867
 1608TIP3    H2 4831   4.085   4.433   2.981
 1609TIP3   OH2 4832   3.795   0.496   4.369
 1609TIP3    H1 4833   3.733   0.425   4.362
 1609TIP3    H2 4834   3.757   0.567   4.318
 1610TIP3   OH2 4835   6.064   4.564   0.224
 1610TIP3    H1 4836   6.082   4.651   0.188
 1610TIP3    H2 4837   6.120   4.505   0.175
 1611TIP3   OH2 4838   1.646   0.237   0.139
 1611TIP3    H1 4839   1.610   0.311   0.188
 1611TIP3    H2 4840   1.642   0.164   0.201
 1612TIP3   OH2 4841   3.009   3.631   3.213
 1612TIP3    H1 4842   2.977   3.639   3.123
 1612TIP3    H2 4843   2.970   3.550   3.244
 1613TIP3   OH2 4844   1.129   4.126   4.126
 1613TIP3    H1 4845   1.165   4.159   4.043
 1613TIP3    H2 4846   1.206   4.098   4.176
 1614TIP3   OH2 4847   3.006   0.550   2.658
 1614TIP3    H1 4848   3.030   0.620   2.598
 1614TIP3    H2 4849   2.950   0.492   2.606
 1615TIP3   OH2 4850   1.819   4.329   4.877
 1615TIP3    H1 4851   1.788   4.350   4.965
 1615TIP3    H2 4852   1.828   4.234   4.876
 1616TIP3   OH2 4853   2.110   5.642   0.579
 1616TIP3    H1 4854   2.037   5.611   0.633
 1616TIP3    H2 4855   2.178   5.665   0.642
 1617TIP3   OH2 4856   1.967   1.809   4.740
 1617TIP3    H1 4857   2.019   1.870   4.792
 1617TIP3    H2 4858   2.030   1.748   4.703
 1618TIP3   OH2 4859   4.062   2.131   4.625
 1618TIP3    H1 4860   4.056   2.040   4.597
 1618TIP3    H2 4861   4.041   2.182   4.547
 1619TIP3   OH2 4862   4.564   3.867   3.211
 1619TIP3    H1 4863   4.650   3.896   3.238
 1619TIP3    H2 4864   4.504   3.904   3.275
 1620TIP3   OH2 4865   2.744   5.160   4.350
 1620TIP3    H1 4866   2.693   5.107   4.411
 1620TIP3    H2 4867   2.782   5.097   4.289
 1621TIP3   OH2 4868   5.289   4.977   2.772
 1621TIP3    H1 4869   5.255   5.017   2.852
 1621TIP3    H2 4870   5.357   5.037   2.742
 1622TIP3   OH2 4871   5.897   1.543   4.073
 1622TIP3    H1 4872   5.852   1.466   4.107
 1622TIP3    H2 4873   5.888   1.609   4.143
 1623TIP3   OH2 4874   1.534   3.562   2.595
 1623TIP3    H1 4875   1.445   3.582   2.623
 1623TIP3    H2 4876   1.559   3.485   2.647
 1624TIP3   OH2 4877   1.852   1.687   1.975
 1624TIP3    H1 4878   1.881   1.610   2.024
 1624TIP3    H2 4879   1.812   1.743   2.042
 1625TIP3   OH2 4880   5.704   2.105   1.632
 1625TIP3    H1 4881   5.616   2.088   1.598
 1625TIP3    H2 4882   5.760   2.040   1.588
 1626TIP3   OH2 4883   4.529   5.125   3.041
 1626TIP3    H1 4884   4.450   5.150   3.087
 1626TIP3    H2 4885   4.499   5.100   2.953
 1627TIP3   OH2 4886   1.394   3.901   3.251
 1627TIP3    H1 4887   1.305   3.919   3.220
 1627TIP3    H2 4888   1.442   3.982   3.235
 1628TIP3   OH2 4889   6.063   2.644   4.050
 1628TIP3    H1 4890   6.110   2.563   4.029
 1628TIP3    H2 4891   6.021   2.626   4.134
 1629TIP3   OH2 4892   1.778   2.471   0.143
 1629TIP3    H1 4893   1.823   2.393   0.176
 1629TIP3    H2 4894   1.726   2.502   0.216
 1630TIP3   OH2 4895   5.675   4.232   4.842
 1630TIP3    H1 4896   5.616   4.206   4.771
 1630TIP3    H2 4897   5.697   4.323   4.823
 1631TIP3   OH2 4898   0.537   0.430   3.188
 1631TIP3    H1 4899   0.460   0.485   3.201
 1631TIP3    H2 4900   0.534   0.407   3.095
 1632TIP3   OH2 4901   0.022   2.959   0.772
 1632TIP3    H1 4902  -0.073   2.951   0.781
 1632TIP3    H2 4903   0.054   2.869   0.778
 1633TIP3   OH2 4904   1.767   5.784   1.110
 1633TIP3    H1 4905   1.817   5.864   1.127
 1633TIP3    H2 4906   1.833   5.718   1.091
 1634TIP3   OH2 4907   4.099   5.174   3.481
 1634TIP3    H1 4908   4.183   5.129   3.488
 1634TIP3    H2 4909   4.121   5.263   3.453
 1635TIP3   OH2 4910   0.957   0.576   0.745
 1635TIP3    H1 4911   0.865   0.571   0.718
 1635TIP3    H2 4912   0.988   0.659   0.708
 1636TIP3   OH2 4913   2.153   3.553   2.845
 1636TIP3    H1 4914   2.241   3.517   2.832
 1636TIP3    H2 4915   2.127   3.583   2.758
 1637TIP3   OH2 4916   1.590   2.030   4.008
 1637TIP3    H1 4917   1.645   2.100   3.973
 1637TIP3    H2 4918   1.500   2.060   3.992
 1638TIP3   OH2 4919   4.032   3.537   4.670
 1638TIP3    H1 4920   3.999   3.536   4.760
 1638TIP3    H2 4921   4.109   3.595   4.673
 1639TIP3   OH2 4922   2.797   4.618   3.512
 1639TIP3    H1 4923   2.714   4.661   3.495
 1639TIP3    H2 4924   2.788   4.530   3.476
 1640TIP3   OH2 4925   0.384   0.745   1.903
 1640TIP3    H1 4926   0.290   0.760   1.910
 1640TIP3    H2 4927   0.393   0.650   1.898
 1641TIP3   OH2 4928   2.855   2.774   1.272
 1641TIP3    H1 4929   2.849   2.866   1.247
 1641TIP3    H2 4930   2.767   2.740   1.259
 1642TIP3   OH2 4931   5.217   5.615   0.750
 1642TIP3    H1 4932   5.179   5.656   0.827
 1642TIP3    H2 4933   5.307   5.648   0.747
 1643TIP3   OH2 4934   0.844   5.678   1.551
 1643TIP3    H1 4935   0.886   5.618   1.612
 1643TIP3    H2 4936   0.817   5.622   1.477
 1644TIP3   OH2 4937   3.483   2.036   3.501
 1644TIP3    H1 4938   3.397   2.003   3.529
 1644TIP3    H2 4939   3.503   1.986   3.422
 1645TIP3   OH2 4940   0.201   4.616   3.588
 1645TIP3    H1 4941   0.220   4.576   3.503
 1645TIP3    H2 4942   0.115   4.583   3.611
 1646TIP3   OH2 4943   4.935   1.121   0.129
 1646TIP3    H1 4944   4.916   1.167   0.211
 1646TIP3    H2 4945   4.979   1.186   0.075
 1647TIP3   OH2 4946   2.208   2.264   2.387
 1647TIP3    H1 4947   2.195   2.285   2.295
 1647TIP3    H2 4948   2.120   2.241   2.419
 1648TIP3   OH2 4949   6.304   4.845   5.035
 1648TIP3    H1 4950   6.391   4.871   5.004
 1648TIP3    H2 4951   6.244   4.908   4.994
 1649TIP3   OH2 4952   3.690   0.270   1.054
 1649TIP3    H1 4953   3.770   0.292   1.006
 1649TIP3    H2 4954   3.705   0.180   1.084
 1650TIP3   OH2 4955   5.016   5.002   4.736
 1650TIP3    H1 4956   5.027   5.048   4.820
 1650TIP3    H2 4957   5.094   4.946   4.730
 1651TIP3   OH2 4958   1.584   2.261   2.557
 1651TIP3    H1 4959   1.656   2.317   2.586
 1651TIP3    H2 4960   1.586   2.186   2.617
 1652TIP3   OH2 4961   5.485   1.495   1.850
 1652TIP3    H1 4962   5.464   1.579   1.809
 1652TIP3    H2 4963   5.466   1.430   1.782
 1653TIP3   OH2 4964   0.549   2.045   2.269
 1653TIP3    H1 4965   0.517   2.101   2.340
 1653TIP3    H2 4966   0.525   2.092   2.189
 1654TIP3   OH2 4967  -0.034   3.462   2.754
 1654TIP3    H1 4968  -0.045   3.467   2.659
 1654TIP3    H2 4969   0.022   3.536   2.776
 1655TIP3   OH2 4970   4.583   2.634   4.229
 1655TIP3    H1 4971   4.505   2.631   4.284
 1655TIP3    H2 4972   4.621   2.720   4.247
 1656TIP3   OH2 4973   3.773   3.959   3.281
 1656TIP3    H1 4974   3.709   3.914   3.226
 1656TIP3    H2 4975   3.765   3.917   3.367
 1657TIP3   OH2 4976   4.900   1.496   0.495
 1657TIP3    H1 4977   4.857   1.508   0.579
 1657TIP3    H2 4978   4.898   1.583   0.454
 1658TIP3   OH2 4979   5.567   3.484   4.126
 1658TIP3    H1 4980   5.565   3.476   4.221
 1658TIP3    H2 4981   5.656   3.512   4.106
 1659TIP3   OH2 4982   5.526   4.093   1.968
 1659TIP3    H1 4983   5.529   4.150   2.045
 1659TIP3    H2 4984   5.534   4.005   2.004
 1660TIP3   OH2 4985   4.247   0.816   0.034
 1660TIP3    H1 4986   4.330   0.861   0.019
 1660TIP3    H2 4987   4.268   0.723   0.026
 1661TIP3   OH2 4988   5.988   4.815   2.121
 1661TIP3    H1 4989   6.035   4.780   2.197
 1661TIP3    H2 4990   5.946   4.739   2.082
 1662TIP3   OH2 4991   3.352   1.838   4.621
 1662TIP3    H1 4992   3.352   1.745   4.602
 1662TIP3    H2 4993   3.397   1.846   4.705
 1663TIP3   OH2 4994   1.912   0.137   1.558
 1663TIP3    H1 4995   1.962   0.165   1.635
 1663TIP3    H2 4996   1.977   0.094   1.502
 1664TIP3   OH2 4997   2.243   4.089   1.551
 1664TIP3    H1 4998   2.278   4.175   1.531
 1664TIP3    H2 4999   2.317   4.041   1.588
 1665TIP3   OH2 5000   2.006   5.219   2.124
 1665TIP3    H1 5001   1.970   5.308   2.124
 1665TIP3    H2 5002   1.984   5.185   2.210
 1666TIP3   OH2 5003   5.375   2.678   3.523
 1666TIP3    H1 5004   5.361   2.726   3.441
 1666TIP3    H2 5005   5.414   2.595   3.496
 1667TIP3   OH2 5006   6.058   5.266   4.556
 1667TIP3    H1 5007   5.968   5.262   4.526
 1667TIP3    H2 5008   6.092   5.178   4.543
 1668TIP3   OH2 5009   1.253   4.451   1.934
 1668TIP3    H1 5010   1.296   4.410   1.859
 1668TIP3    H2 5011   1.292   4.407   2.010
 1669TIP3   OH2 5012   5.945   2.761   0.867
 1669TIP3    H1 5013   5.945   2.682   0.922
 1669TIP3    H2 5014   5.873   2.814   0.901
 1670TIP3   OH2 5015   1.566   0.499   4.307
 1670TIP3    H1 5016   1.566   0.594   4.292
 1670TIP3    H2 5017   1.656   0.471   4.290
 1671TIP3   OH2 5018   5.564   5.344   1.785
 1671TIP3    H1 5019   5.647   5.354   1.831
 1671TIP3    H2 5020   5.571   5.260   1.741
 1672TIP3   OH2 5021   1.524   5.822   0.055
 1672TIP3    H1 5022   1.525   5.876   0.134
 1672TIP3    H2 5023   1.582   5.749   0.076
 1673TIP3   OH2 5024   6.203   1.514   1.331
 1673TIP3    H1 5025   6.271   1.568   1.370
 1673TIP3    H2 5026   6.242   1.481   1.250
 1674TIP3   OH2 5027   1.527   5.939   3.706
 1674TIP3    H1 5028   1.466   6.000   3.747
 1674TIP3    H2 5029   1.497   5.853   3.734
 1675TIP3   OH2 5030   4.441   5.919   4.769
 1675TIP3    H1 5031   4.365   5.878   4.810
 1675TIP3    H2 5032   4.411   5.943   4.682
 1676TIP3   OH2 5033   1.574   1.928   0.752
 1676TIP3    H1 5034   1.615   1.882   0.679
 1676TIP3    H2 5035   1.508   1.985   0.712
 1677TIP3   OH2 5036   0.525   0.055   1.016
 1677TIP3    H1 5037   0.540   0.147   1.036
 1677TIP3    H2 5038   0.547   0.009   1.097
 1678TIP3   OH2 5039   2.142   3.003   1.048
 1678TIP3    H1 5040   2.211   3.067   1.031
 1678TIP3    H2 5041   2.098   2.992   0.963
 1679TIP3   OH2 5042   4.745   3.293   2.746
 1679TIP3    H1 5043   4.800   3.269   2.820
 1679TIP3    H2 5044   4.699   3.372   2.776
 1680TIP3   OH2 5045   1.852   2.563   0.732
 1680TIP3    H1 5046   1.899   2.487   0.765
 1680TIP3    H2 5047   1.897   2.586   0.651
 1681TIP3   OH2 5048   3.051   2.684   2.380
 1681TIP3    H1 5049   3.010   2.752   2.327
 1681TIP3    H2 5050   3.130   2.726   2.415
 1682TIP3   OH2 5051   4.382   2.843   0.492
 1682TIP3    H1 5052   4.397   2.807   0.404
 1682TIP3    H2 5053   4.441   2.918   0.498
 1683TIP3   OH2 5054   3.739   1.723   1.202
 1683TIP3    H1 5055   3.834   1.729   1.191
 1683TIP3    H2 5056   3.718   1.796   1.261
 1684TIP3   OH2 5057   2.642   1.853   3.645
 1684TIP3    H1 5058   2.719   1.802   3.621
 1684TIP3    H2 5059   2.600   1.874   3.562
 1685TIP3   OH2 5060   5.671   0.562   2.878
 1685TIP3    H1 5061   5.623   0.523   2.951
 1685TIP3    H2 5062   5.759   0.524   2.884
 1686TIP3   OH2 5063   4.328   5.428   1.577
 1686TIP3    H1 5064   4.401   5.367   1.582
 1686TIP3    H2 5065   4.320   5.448   1.483
 1687TIP3   OH2 5066   5.138   2.824   0.661
 1687TIP3    H1 5067   5.124   2.902   0.714
 1687TIP3    H2 5068   5.065   2.766   0.682
 1688TIP3   OH2 5069   3.030   0.643   3.411
 1688TIP3    H1 5070   3.040   0.581   3.484
 1688TIP3    H2 5071   3.105   0.702   3.418
 1689TIP3   OH2 5072   0.121   0.292   2.949
 1689TIP3    H1 5073   0.210   0.316   2.925
 1689TIP3    H2 5074   0.121   0.289   3.045
 1690TIP3   OH2 5075   4.404   1.188   0.232
 1690TIP3    H1 5076   4.370   1.250   0.297
 1690TIP3    H2 5077   4.332   1.178   0.169
 1691TIP3   OH2 5078   1.527   3.290   4.956
 1691TIP3    H1 5079   1.477   3.228   4.903
 1691TIP3    H2 5080   1.560   3.354   4.893
 1692TIP3   OH2 5081   0.698   5.720   1.270
 1692TIP3    H1 5082   0.779   5.684   1.234
 1692TIP3    H2 5083   0.629   5.673   1.224
 1693TIP3   OH2 5084   3.016   5.486   2.475
 1693TIP3    H1 5085   3.055   5.572   2.490
 1693TIP3    H2 5086   3.091   5.427   2.465
 1694TIP3   OH2 5087   5.873   3.829   2.666
 1694TIP3    H1 5088   5.845   3.768   2.734
 1694TIP3    H2 5089   5.938   3.885   2.710
 1695TIP3   OH2 5090   6.091   0.983   2.903
 1695TIP3    H1 5091   6.073   1.040   2.978
 1695TIP3    H2 5092   6.185   0.990   2.890
 1696TIP3   OH2 5093   2.494   1.658   2.241
 1696TIP3    H1 5094   2.468   1.599   2.313
 1696TIP3    H2 5095   2.568   1.613   2.199
 1697TIP3   OH2 5096   0.850   5.953   1.613
 1697TIP3    H1 5097   0.938   5.970   1.579
 1697TIP3    H2 5098   0.828   5.865   1.582
 1698TIP3   OH2 5099   4.169   0.285   3.430
 1698TIP3    H1 5100   4.127   0.365   3.463
 1698TIP3    H2 5101   4.176   0.300   3.335
 1699TIP3   OH2 5102   1.516   5.311   4.976
 1699TIP3    H1 5103   1.594   5.279   4.930
 1699TIP3    H2 5104   1.508   5.402   4.949
 1700TIP3   OH2 5105   4.007   3.350   1.342
 1700TIP3    H1 5106   3.929   3.303   1.314
 1700TIP3    H2 5107   3.978   3.441   1.349
 1701TIP3   OH2 5108   0.310   3.288   1.283
 1701TIP3    H1 5109   0.385   3.245   1.243
 1701TIP3    H2 5110   0.285   3.231   1.356
 1702TIP3   OH2 5111   4.128   5.871   2.281
 1702TIP3    H1 5112   4.197   5.862   2.215
 1702TIP3    H2 5113   4.058   5.813   2.250
 1703TIP3   OH2 5114   4.584   1.969   5.002
 1703TIP3    H1 5115   4.504   2.005   5.041
 1703TIP3    H2 5116   4.567   1.971   4.908
 1704TIP3   OH2 5117   4.481   0.367   4.438
 1704TIP3    H1 5118   4.466   0.460   4.459
 1704TIP3    H2 5119   4.470   0.362   4.343
 1705TIP3   OH2 5120   5.907   0.773   4.884
 1705TIP3    H1 5121   5.936   0.770   4.793
 1705TIP3    H2 5122   5.818   0.737   4.883
 1706TIP3   OH2 5123   3.733   4.505   2.466
 1706TIP3    H1 5124   3.664   4.541   2.411
 1706TIP3    H2 5125   3.704   4.416   2.486
 1707TIP3   OH2 5126   6.135   4.642   2.329
 1707TIP3    H1 5127   6.077   4.636   2.406
 1707TIP3    H2 5128   6.205   4.701   2.356
 1708TIP3   OH2 5129   6.250   1.537   3.280
 1708TIP3    H1 5130   6.339   1.507   3.299
 1708TIP3    H2 5131   6.239   1.521   3.186
 1709TIP3   OH2 5132   4.274   0.786   2.185
 1709TIP3    H1 5133   4.302   0.868   2.224
 1709TIP3    H2 5134   4.344   0.763   2.124
 1710TIP3   OH2 5135   1.303   0.965   1.658
 1710TIP3    H1 5136   1.276   1.039   1.714
 1710TIP3    H2 5137   1.376   0.999   1.607
 1711TIP3   OH2 5138   4.736   4.969   3.154
 1711TIP3    H1 5139   4.681   5.041   3.123
 1711TIP3    H2 5140   4.805   4.961   3.088
 1712TIP3   OH2 5141   2.010   3.391   3.931
 1712TIP3    H1 5142   2.086   3.375   3.874
 1712TIP3    H2 5143   1.948   3.322   3.909
 1713TIP3   OH2 5144   3.666   0.664   4.201
 1713TIP3    H1 5145   3.610   0.642   4.126
 1713TIP3    H2 5146   3.716   0.741   4.172
 1714TIP3   OH2 5147   5.744   0.790   1.531
 1714TIP3    H1 5148   5.785   0.831   1.608
 1714TIP3    H2 5149   5.798   0.817   1.458
 1715TIP3   OH2 5150   0.145   2.266   4.549
 1715TIP3    H1 5151   0.188   2.183   4.572
 1715TIP3    H2 5152   0.150   2.319   4.628
 1716TIP3   OH2 5153   3.469   4.538   3.706
 1716TIP3    H1 5154   3.447   4.625   3.673
 1716TIP3    H2 5155   3.563   4.528   3.688
 1717TIP3   OH2 5156   0.427   5.759   0.767
 1717TIP3    H1 5157   0.446   5.805   0.685
 1717TIP3    H2 5158   0.346   5.710   0.749
 1718TIP3   OH2 5159   3.248   0.556   1.198
 1718TIP3    H1 5160   3.186   0.564   1.125
 1718TIP3    H2 5161   3.201   0.504   1.263
 1719TIP3   OH2 5162   4.315   2.866   3.185
 1719TIP3    H1 5163   4.317   2.859   3.089
 1719TIP3    H2 5164   4.381   2.932   3.205
 1720TIP3   OH2 5165   1.314   0.467   1.032
 1720TIP3    H1 5166   1.258   0.407   1.081
 1720TIP3    H2 5167   1.272   0.553   1.041
 1721TIP3   OH2 5168   2.366   1.071   0.654
 1721TIP3    H1 5169   2.303   1.141   0.636
 1721TIP3    H2 5170   2.399   1.091   0.741
 1722TIP3   OH2 5171   0.011   2.785   4.821
 1722TIP3    H1 5172  -0.003   2.703   4.868
 1722TIP3    H2 5173   0.010   2.852   4.889
 1723TIP3   OH2 5174   0.963   5.116   3.501
 1723TIP3    H1 5175   0.889   5.157   3.458
 1723TIP3    H2 5176   0.925   5.044   3.552
 1724TIP3   OH2 5177   5.764   4.103   3.810
 1724TIP3    H1 5178   5.708   4.161   3.861
 1724TIP3    H2 5179   5.765   4.141   3.722
 1725TIP3   OH2 5180   2.681   1.856   4.789
 1725TIP3    H1 5181   2.695   1.934   4.735
 1725TIP3    H2 5182   2.613   1.807   4.744
 1726TIP3   OH2 5183   3.481   1.231   2.857
 1726TIP3    H1 5184   3.508   1.223   2.948
 1726TIP3    H2 5185   3.561   1.255   2.810
 1727TIP3   OH2 5186   4.448   1.259   2.156
 1727TIP3    H1 5187   4.504   1.291   2.086
 1727TIP3    H2 5188   4.416   1.174   2.125
 1728TIP3   OH2 5189   4.209   3.779   4.359
 1728TIP3    H1 5190   4.192   3.755   4.450
 1728TIP3    H2 5191   4.254   3.703   4.322
 1729TIP3   OH2 5192   5.221   2.952   2.303
 1729TIP3    H1 5193   5.316   2.957   2.315
 1729TIP3    H2 5194   5.201   2.859   2.304
 1730TIP3   OH2 5195   2.604   3.129   0.468
 1730TIP3    H1 5196   2.659   3.068   0.517
 1730TIP3    H2 5197   2.662   3.203   0.448
 1731TIP3   OH2 5198   5.336   5.833   3.661
 1731TIP3    H1 5199   5.352   5.904   3.723
 1731TIP3    H2 5200   5.244   5.843   3.636
 1732TIP3   OH2 5201   3.989   1.318   4.886
 1732TIP3    H1 5202   4.020   1.366   4.809
 1732TIP3    H2 5203   3.920   1.261   4.852
 1733TIP3   OH2 5204   0.286   4.387   2.365
 1733TIP3    H1 5205   0.303   4.297   2.339
 1733TIP3    H2 5206   0.208   4.412   2.314
 1734TIP3   OH2 5207   3.467   4.186   4.325
 1734TIP3    H1 5208   3.450   4.138   4.407
 1734TIP3    H2 5209   3.438   4.125   4.257
 1735TIP3   OH2 5210   1.856   4.052   4.931
 1735TIP3    H1 5211   1.849   3.983   4.865
 1735TIP3    H2 5212   1.765   4.071   4.955
 1736TIP3   OH2 5213   5.129   2.874   3.043
 1736TIP3    H1 5214   5.111   2.917   3.126
 1736TIP3    H2 5215   5.045   2.877   2.996
 1737TIP3   OH2 5216   3.360   0.805   2.287
 1737TIP3    H1 5217   3.334   0.714   2.278
 1737TIP3    H2 5218   3.339   0.828   2.377
 1738TIP3   OH2 5219   4.636   0.404   3.323
 1738TIP3    H1 5220   4.611   0.312   3.312
 1738TIP3    H2 5221   4.558   0.453   3.297
 1739TIP3   OH2 5222   2.640   5.263   1.280
 1739TIP3    H1 5223   2.592   5.343   1.260
 1739TIP3    H2 5224   2.639   5.258   1.376
 1740TIP3   OH2 5225   3.741   3.267   1.246
 1740TIP3    H1 5226   3.699   3.337   1.296
 1740TIP3    H2 5227   3.736   3.295   1.155
 1741TIP3   OH2 5228   0.061   2.435   0.287
 1741TIP3    H1 5229   0.107   2.462   0.207
 1741TIP3    H2 5230  -0.021   2.398   0.255
 1742TIP3   OH2 5231   1.694   3.520   2.883
 1742TIP3    H1 5232   1.731   3.463   2.815
 1742TIP3    H2 5233   1.637   3.462   2.934
 1743TIP3   OH2 5234   1.240   5.713   4.281
 1743TIP3    H1 5235   1.317   5.662   4.256
 1743TIP3    H2 5236   1.165   5.664   4.246
 1744TIP3   OH2 5237   4.255   4.669   3.910
 1744TIP3    H1 5238   4.222   4.755   3.935
 1744TIP3    H2 5239   4.336   4.659   3.959
 1745TIP3   OH2 5240   1.118   0.516   4.099
 1745TIP3    H1 5241   1.048   0.466   4.143
 1745TIP3    H2 5242   1.191   0.454   4.093
 1746TIP3   OH2 5243   2.622   1.214   3.499
 1746TIP3    H1 5244   2.701   1.201   3.552
 1746TIP3    H2 5245   2.586   1.126   3.489
 1747TIP3   OH2 5246   1.546   0.020   5.032
 1747TIP3    H1 5247   1.548   0.028   5.128
 1747TIP3    H2 5248   1.627   0.063   5.003
 1748TIP3   OH2 5249   1.745   0.554   3.199
 1748TIP3    H1 5250   1.777   0.530   3.286
 1748TIP3    H2 5251   1.820   0.537   3.141
 1749TIP3   OH2 5252   1.056   5.009   2.271
 1749TIP3    H1 5253   1.109   5.088   2.263
 1749TIP3    H2 5254   0.997   5.028   2.344
 1750TIP3   OH2 5255   1.085   1.731   0.362
 1750TIP3    H1 5256   1.046   1.818   0.361
 1750TIP3    H2 5257   1.175   1.745   0.393
 1751TIP3   OH2 5258   4.939   3.466   2.231
 1751TIP3    H1 5259   4.875   3.396   2.246
 1751TIP3    H2 5260   4.989   3.470   2.313
 1752TIP3   OH2 5261   1.730   0.525   2.868
 1752TIP3    H1 5262   1.673   0.507   2.793
 1752TIP3    H2 5263   1.672   0.562   2.934
 1753TIP3   OH2 5264   4.514   5.569   3.075
 1753TIP3    H1 5265   4.573   5.645   3.081
 1753TIP3    H2 5266   4.433   5.605   3.040
 1754TIP3   OH2 5267   1.759   1.148   3.833
 1754TIP3    H1 5268   1.751   1.174   3.741
 1754TIP3    H2 5269   1.794   1.059   3.829
 1755TIP3   OH2 5270   6.252   0.642   0.156
 1755TIP3    H1 5271   6.253   0.644   0.252
 1755TIP3    H2 5272   6.160   0.628   0.133
 1756TIP3   OH2 5273   0.878   3.652   0.044
 1756TIP3    H1 5274   0.877   3.604   0.127
 1756TIP3    H2 5275   0.814   3.722   0.056
 1757TIP3   OH2 5276   1.782   5.620   2.588
 1757TIP3    H1 5277   1.771   5.715   2.594
 1757TIP3    H2 5278   1.810   5.594   2.676
 1758TIP3   OH2 5279   0.232   3.668   2.215
 1758TIP3    H1 5280   0.316   3.623   2.211
 1758TIP3    H2 5281   0.228   3.718   2.133
 1759TIP3   OH2 5282   5.484   4.980   3.986
 1759TIP3    H1 5283   5.428   5.030   3.927
 1759TIP3    H2 5284   5.457   4.889   3.976
 1760TIP3   OH2 5285   1.695   5.168   3.466
 1760TIP3    H1 5286   1.613   5.208   3.438
 1760TIP3    H2 5287   1.673   5.123   3.548
 1761TIP3   OH2 5288   4.703   0.827   2.477
 1761TIP3    H1 5289   4.796   0.818   2.455
 1761TIP3    H2 5290   4.699   0.803   2.570
 1762TIP3   OH2 5291   2.246   5.448   2.839
 1762TIP3    H1 5292   2.287   5.362   2.844
 1762TIP3    H2 5293   2.251   5.482   2.928
 1763TIP3   OH2 5294   0.367   1.707   1.600
 1763TIP3    H1 5295   0.441   1.714   1.540
 1763TIP3    H2 5296   0.315   1.785   1.583
 1764TIP3   OH2 5297   5.401   4.089   2.865
 1764TIP3    H1 5298   5.335   4.030   2.830
 1764TIP3    H2 5299   5.463   4.031   2.911
 1765TIP3   OH2 5300   6.055   5.052   1.496
 1765TIP3    H1 5301   5.999   5.069   1.571
 1765TIP3    H2 5302   6.023   5.111   1.427
 1766TIP3   OH2 5303   4.733   5.381   4.569
 1766TIP3    H1 5304   4.784   5.390   4.489
 1766TIP3    H2 5305   4.725   5.286   4.582
 1767TIP3   OH2 5306   0.877   3.966   4.087
 1767TIP3    H1 5307   0.846   3.995   4.001
 1767TIP3    H2 5308   0.925   4.041   4.122
 1768TIP3   OH2 5309   3.521   4.316   5.103
 1768TIP3    H1 5310   3.549   4.226   5.120
 1768TIP3    H2 5311   3.426   4.313   5.106
 1769TIP3   OH2 5312   2.233   3.033   2.805
 1769TIP3    H1 5313   2.236   2.947   2.848
 1769TIP3    H2 5314   2.180   3.018   2.726
 1770TIP3   OH2 5315   1.111   3.827   4.016
 1770TIP3    H1 5316   1.133   3.826   3.923
 1770TIP3    H2 5317   1.074   3.914   4.031
 1771TIP3   OH2 5318   0.290   3.851   0.730
 1771TIP3    H1 5319   0.237   3.887   0.801
 1771TIP3    H2 5320   0.258   3.761   0.719
 1772TIP3   OH2 5321   1.479   2.979   0.262
 1772TIP3    H1 5322   1.531   3.059   0.273
 1772TIP3    H2 5323   1.424   2.975   0.339
 1773TIP3   OH2 5324   1.916   3.816   3.251
 1773TIP3    H1 5325   1.917   3.798   3.157
 1773TIP3    H2 5326   1.825   3.806   3.277
 1774TIP3   OH2 5327   3.843   2.500   2.543
 1774TIP3    H1 5328   3.777   2.558   2.505
 1774TIP3    H2 5329   3.823   2.414   2.506
 1775TIP3   OH2 5330   3.480   1.072   3.136
 1775TIP3    H1 5331   3.436   1.015   3.072
 1775TIP3    H2 5332   3.409   1.105   3.191
 1776TIP3   OH2 5333   4.003   2.927   0.233
 1776TIP3    H1 5334   4.087   2.896   0.266
 1776TIP3    H2 5335   3.940   2.862   0.266
 1777TIP3   OH2 5336   2.919   0.736   0.407
 1777TIP3    H1 5337   2.903   0.764   0.497
 1777TIP3    H2 5338   3.005   0.771   0.386
 1778TIP3   OH2 5339   3.654   4.257   3.295
 1778TIP3    H1 5340   3.688   4.168   3.307
 1778TIP3    H2 5341   3.666   4.275   3.202
 1779TIP3   OH2 5342   1.549   1.914   1.285
 1779TIP3    H1 5343   1.578   1.860   1.212
 1779TIP3    H2 5344   1.578   2.002   1.263
 1780TIP3   OH2 5345   3.187   2.871   1.243
 1780TIP3    H1 5346   3.152   2.898   1.328
 1780TIP3    H2 5347   3.277   2.904   1.242
 1781TIP3   OH2 5348   4.445   2.623   0.646
 1781TIP3    H1 5349   4.384   2.552   0.665
 1781TIP3    H2 5350   4.392   2.691   0.605
 1782TIP3   OH2 5351   3.348   2.264   2.406
 1782TIP3    H1 5352   3.303   2.249   2.322
 1782TIP3    H2 5353   3.349   2.178   2.448
 1783TIP3   OH2 5354   3.239   0.745   0.941
 1783TIP3    H1 5355   3.205   0.830   0.914
 1783TIP3    H2 5356   3.170   0.683   0.919
 1784TIP3   OH2 5357  -0.004   3.493   1.473
 1784TIP3    H1 5358   0.072   3.439   1.496
 1784TIP3    H2 5359   0.021   3.537   1.392
 1785TIP3   OH2 5360   1.114   2.461   4.121
 1785TIP3    H1 5361   1.120   2.366   4.129
 1785TIP3    H2 5362   1.025   2.477   4.091
 1786TIP3   OH2 5363   4.118   3.570   1.556
 1786TIP3    H1 5364   4.023   3.567   1.559
 1786TIP3    H2 5365   4.145   3.570   1.648
 1787TIP3   OH2 5366   3.504   4.502   1.643
 1787TIP3    H1 5367   3.428   4.444   1.633
 1787TIP3    H2 5368   3.496   4.564   1.570
 1788TIP3   OH2 5369   4.652   3.626   0.886
 1788TIP3    H1 5370   4.632   3.705   0.836
 1788TIP3    H2 5371   4.742   3.638   0.915
 1789TIP3   OH2 5372   6.351   0.704   3.753
 1789TIP3    H1 5373   6.379   0.684   3.843
 1789TIP3    H2 5374   6.321   0.619   3.718
 1790TIP3   OH2 5375   0.950   4.598   0.501
 1790TIP3    H1 5376   0.953   4.684   0.460
 1790TIP3    H2 5377   0.964   4.614   0.594
 1791TIP3   OH2 5378   3.962   1.866   1.613
 1791TIP3    H1 5379   3.868   1.858   1.600
 1791TIP3    H2 5380   3.983   1.799   1.678
 1792TIP3   OH2 5381   3.632   0.305   3.986
 1792TIP3    H1 5382   3.574   0.349   4.048
 1792TIP3    H2 5383   3.641   0.367   3.913
 1793TIP3   OH2 5384   5.497   1.590   2.771
 1793TIP3    H1 5385   5.475   1.517   2.828
 1793TIP3    H2 5386   5.564   1.555   2.712
 1794TIP3   OH2 5387   3.414   3.001   1.165
 1794TIP3    H1 5388   3.499   3.001   1.209
 1794TIP3    H2 5389   3.427   3.057   1.088
 1795TIP3   OH2 5390   0.300   1.343   1.316
 1795TIP3    H1 5391   0.272   1.259   1.353
 1795TIP3    H2 5392   0.393   1.332   1.300
 1796TIP3   OH2 5393   2.306   3.286   3.116
 1796TIP3    H1 5394   2.373   3.237   3.069
 1796TIP3    H2 5395   2.235   3.295   3.052
 1797TIP3   OH2 5396   1.455   1.757   1.703
 1797TIP3    H1 5397   1.475   1.672   1.742
 1797TIP3    H2 5398   1.526   1.814   1.732
 1798TIP3   OH2 5399   3.263   4.339   1.596
 1798TIP3    H1 5400   3.199   4.373   1.658
 1798TIP3    H2 5401   3.221   4.346   1.511
 1799TIP3   OH2 5402   5.719   2.195   0.256
 1799TIP3    H1 5403   5.669   2.247   0.192
 1799TIP3    H2 5404   5.727   2.109   0.217
 1800TIP3   OH2 5405   4.865   2.550   0.000
 1800TIP3    H1 5406   4.832   2.602   0.073
 1800TIP3    H2 5407   4.787   2.525  -0.050
 1801TIP3   OH2 5408   1.633   5.722   3.355
 1801TIP3    H1 5409   1.591   5.807   3.366
 1801TIP3    H2 5410   1.633   5.707   3.260
 1802TIP3   OH2 5411   2.124   0.868   1.765
 1802TIP3    H1 5412   2.088   0.919   1.692
 1802TIP3    H2 5413   2.120   0.777   1.736
 1803TIP3   OH2 5414   1.726   2.864   4.038
 1803TIP3    H1 5415   1.734   2.905   4.124
 1803TIP3    H2 5416   1.815   2.836   4.016
 1804TIP3   OH2 5417   2.298   1.022   3.277
 1804TIP3    H1 5418   2.295   0.934   3.315
 1804TIP3    H2 5419   2.322   1.078   3.350
 1805TIP3   OH2 5420   5.579   1.513   3.437
 1805TIP3    H1 5421   5.572   1.594   3.489
 1805TIP3    H2 5422   5.545   1.445   3.494
 1806TIP3   OH2 5423   1.432   5.463   0.555
 1806TIP3    H1 5424   1.385   5.396   0.506
 1806TIP3    H2 5425   1.363   5.523   0.586
 1807TIP3   OH2 5426   0.549   5.779   1.955
 1807TIP3    H1 5427   0.482   5.843   1.978
 1807TIP3    H2 5428   0.530   5.757   1.863
 1808TIP3   OH2 5429   2.415   0.546   0.546
 1808TIP3    H1 5430   2.398   0.459   0.508
 1808TIP3    H2 5431   2.357   0.550   0.622
 1809TIP3   OH2 5432   5.236   4.493   0.434
 1809TIP3    H1 5433   5.252   4.477   0.527
 1809TIP3    H2 5434   5.147   4.528   0.430
 1810TIP3   OH2 5435   4.046   3.455   3.959
 1810TIP3    H1 5436   4.121   3.397   3.970
 1810TIP3    H2 5437   4.084   3.542   3.949
 1811TIP3   OH2 5438   4.769   2.012   1.731
 1811TIP3    H1 5439   4.709   2.074   1.689
 1811TIP3    H2 5440   4.856   2.036   1.698
 1812TIP3   OH2 5441   4.776   4.282   2.440
 1812TIP3    H1 5442   4.722   4.245   2.370
 1812TIP3    H2 5443   4.866   4.262   2.414
 1813TIP3   OH2 5444   1.030   3.454   2.562
 1813TIP3    H1 5445   1.070   3.385   2.509
 1813TIP3    H2 5446   0.936   3.442   2.551
 1814TIP3   OH2 5447   3.127   2.493   0.486
 1814TIP3    H1 5448   3.130   2.397   0.484
 1814TIP3    H2 5449   3.063   2.514   0.553
 1815TIP3   OH2 5450   0.447   2.547   1.588
 1815TIP3    H1 5451   0.353   2.527   1.597
 1815TIP3    H2 5452   0.458   2.570   1.496
 1816TIP3   OH2 5453   5.796   1.188   2.376
 1816TIP3    H1 5454   5.883   1.227   2.388
 1816TIP3    H2 5455   5.785   1.132   2.453
 1817TIP3   OH2 5456   2.159   1.152   4.510
 1817TIP3    H1 5457   2.162   1.079   4.449
 1817TIP3    H2 5458   2.216   1.125   4.582
 1818TIP3   OH2 5459   5.806   1.499   3.317
 1818TIP3    H1 5460   5.722   1.507   3.363
 1818TIP3    H2 5461   5.836   1.590   3.307
 1819TIP3   OH2 5462   1.334   2.083   1.606
 1819TIP3    H1 5463   1.420   2.070   1.646
 1819TIP3    H2 5464   1.351   2.081   1.512
 1820TIP3   OH2 5465   3.858   2.844   2.508
 1820TIP3    H1 5466   3.767   2.815   2.506
 1820TIP3    H2 5467   3.884   2.839   2.600
 1821TIP3   OH2 5468   0.770   5.879   4.630
 1821TIP3    H1 5469   0.834   5.870   4.559
 1821TIP3    H2 5470   0.814   5.936   4.694
 1822TIP3   OH2 5471   0.970   4.140   3.267
 1822TIP3    H1 5472   1.003   4.056   3.237
 1822TIP3    H2 5473   1.041   4.177   3.319
 1823TIP3   OH2 5474   4.720   2.861   4.792
 1823TIP3    H1 5475   4.626   2.859   4.809
 1823TIP3    H2 5476   4.728   2.898   4.704
 1824TIP3   OH2 5477   1.709   1.693   0.027
 1824TIP3    H1 5478   1.689   1.728   0.113
 1824TIP3    H2 5479   1.764   1.617   0.044
 1825TIP3   OH2 5480   4.325   0.800   1.762
 1825TIP3    H1 5481   4.340   0.886   1.723
 1825TIP3    H2 5482   4.264   0.757   1.701
 1826TIP3   OH2 5483   1.329   2.055   4.244
 1826TIP3    H1 5484   1.414   2.035   4.283
 1826TIP3    H2 5485   1.346   2.129   4.186
 1827TIP3   OH2 5486   5.474   2.527   0.141
 1827TIP3    H1 5487   5.470   2.547   0.048
 1827TIP3    H2 5488   5.506   2.437   0.144
 1828TIP3   OH2 5489   4.855   1.664   3.129
 1828TIP3    H1 5490   4.945   1.664   3.096
 1828TIP3    H2 5491   4.858   1.608   3.207
 1829TIP3   OH2 5492   5.416   0.796   3.557
 1829TIP3    H1 5493   5.454   0.708   3.557
 1829TIP3    H2 5494   5.368   0.801   3.640
 1830TIP3   OH2 5495   4.856   0.566   4.509
 1830TIP3    H1 5496   4.846   0.587   4.416
 1830TIP3    H2 5497   4.840   0.472   4.514
 1831TIP3   OH2 5498   0.438   2.734   0.499
 1831TIP3    H1 5499   0.526   2.771   0.492
 1831TIP3    H2 5500   0.379   2.807   0.483
 1832TIP3   OH2 5501   4.103   5.762   0.768
 1832TIP3    H1 5502   4.180   5.810   0.797
 1832TIP3    H2 5503   4.098   5.779   0.674
 1833TIP3   OH2 5504   0.233   5.281   2.317
 1833TIP3    H1 5505   0.258   5.364   2.358
 1833TIP3    H2 5506   0.139   5.274   2.333
 1834TIP3   OH2 5507   2.213   5.207   4.743
 1834TIP3    H1 5508   2.170   5.282   4.702
 1834TIP3    H2 5509   2.306   5.219   4.724
 1835TIP3   OH2 5510   2.762   5.906   1.222
 1835TIP3    H1 5511   2.810   5.917   1.304
 1835TIP3    H2 5512   2.764   5.812   1.206
 1836TIP3   OH2 5513   5.659   2.619   4.276
 1836TIP3    H1 5514   5.604   2.609   4.198
 1836TIP3    H2 5515   5.738   2.663   4.244
 1837TIP3   OH2 5516   3.730   3.508   2.399
 1837TIP3    H1 5517   3.727   3.481   2.307
 1837TIP3    H2 5518   3.702   3.430   2.448
 1838TIP3   OH2 5519   2.014   2.911   1.345
 1838TIP3    H1 5520   2.039   3.001   1.366
 1838TIP3    H2 5521   2.033   2.902   1.252
 1839TIP3   OH2 5522   5.054   0.206   0.834
 1839TIP3    H1 5523   5.051   0.267   0.907
 1839TIP3    H2 5524   5.046   0.120   0.875
 1840TIP3   OH2 5525   1.733   5.785   0.298
 1840TIP3    H1 5526   1.829   5.794   0.293
 1840TIP3    H2 5527   1.715   5.780   0.392
 1841TIP3   OH2 5528   5.655   2.471   2.411
 1841TIP3    H1 5529   5.580   2.429   2.453
 1841TIP3    H2 5530   5.730   2.445   2.465
 1842TIP3   OH2 5531   1.325   4.758   1.369
 1842TIP3    H1 5532   1.347   4.665   1.362
 1842TIP3    H2 5533   1.397   4.803   1.326
 1843TIP3   OH2 5534   4.450   4.170   2.652
 1843TIP3    H1 5535   4.420   4.260   2.643
 1843TIP3    H2 5536   4.445   4.152   2.746
 1844TIP3   OH2 5537   1.950   2.905   1.866
 1844TIP3    H1 5538   2.014   2.973   1.889
 1844TIP3    H2 5539   1.915   2.933   1.781
 1845TIP3   OH2 5540   0.712   4.226   3.284
 1845TIP3    H1 5541   0.683   4.243   3.374
 1845TIP3    H2 5542   0.797   4.183   3.295
 1846TIP3   OH2 5543   4.134   5.003   4.466
 1846TIP3    H1 5544   4.167   5.026   4.379
 1846TIP3    H2 5545   4.099   4.914   4.455
 1847TIP3   OH2 5546   1.094   4.279   0.625
 1847TIP3    H1 5547   1.090   4.265   0.531
 1847TIP3    H2 5548   1.013   4.326   0.646
 1848TIP3   OH2 5549   5.690   5.730   2.870
 1848TIP3    H1 5550   5.648   5.812   2.896
 1848TIP3    H2 5551   5.621   5.681   2.826
 1849TIP3   OH2 5552   1.010   5.861   3.965
 1849TIP3    H1 5553   1.022   5.771   3.935
 1849TIP3    H2 5554   1.029   5.859   4.059
 1850TIP3   OH2 5555   0.554   3.772   1.525
 1850TIP3    H1 5556   0.619   3.829   1.485
 1850TIP3    H2 5557   0.482   3.769   1.462
 1851TIP3   OH2 5558   3.591   5.007   1.085
 1851TIP3    H1 5559   3.522   4.946   1.112
 1851TIP3    H2 5560   3.545   5.089   1.067
 1852TIP3   OH2 5561   2.462   5.672   3.720
 1852TIP3    H1 5562   2.527   5.712   3.778
 1852TIP3    H2 5563   2.380   5.716   3.743
 1853TIP3   OH2 5564   0.192   0.795   2.683
 1853TIP3    H1 5565   0.286   0.813   2.693
 1853TIP3    H2 5566   0.179   0.714   2.732
 1854TIP3   OH2 5567   4.348   0.074   0.680
 1854TIP3    H1 5568   4.259   0.105   0.665
 1854TIP3    H2 5569   4.353  -0.009   0.632
 1855TIP3   OH2 5570   2.750   1.087   4.283
 1855TIP3    H1 5571   2.660   1.118   4.295
 1855TIP3    H2 5572   2.799   1.131   4.353
 1856TIP3   OH2 5573   1.655   2.855   5.019
 1856TIP3    H1 5574   1.569   2.887   5.047
 1856TIP3    H2 5575   1.637   2.790   4.952
 1857TIP3   OH2 5576   2.331   3.583   0.246
 1857TIP3    H1 5577   2.391   3.603   0.173
 1857TIP3    H2 5578   2.365   3.502   0.283
 1858TIP3   OH2 5579   5.291   3.652   1.427
 1858TIP3    H1 5580   5.367   3.648   1.484
 1858TIP3    H2 5581   5.261   3.561   1.421
 1859TIP3   OH2 5582   5.709   2.965   3.153
 1859TIP3    H1 5583   5.677   2.963   3.243
 1859TIP3    H2 5584   5.700   3.057   3.126
 1860TIP3   OH2 5585   0.858   1.340   3.772
 1860TIP3    H1 5586   0.950   1.335   3.799
 1860TIP3    H2 5587   0.845   1.432   3.749
 1861TIP3   OH2 5588   3.705   2.108   1.830
 1861TIP3    H1 5589   3.795   2.134   1.811
 1861TIP3    H2 5590   3.707   2.013   1.830
 1862TIP3   OH2 5591   3.638   0.941   3.902
 1862TIP3    H1 5592   3.648   0.899   3.817
 1862TIP3    H2 5593   3.552   0.984   3.898
 1863TIP3   OH2 5594   3.121   4.119   5.089
 1863TIP3    H1 5595   3.042   4.073   5.059
 1863TIP3    H2 5596   3.193   4.075   5.044
 1864TIP3   OH2 5597   0.546   3.020   2.996
 1864TIP3    H1 5598   0.482   3.054   3.059
 1864TIP3    H2 5599   0.608   3.092   2.985
 1865TIP3   OH2 5600   4.621   2.263   3.013
 1865TIP3    H1 5601   4.671   2.217   2.946
 1865TIP3    H2 5602   4.652   2.353   3.008
 1866TIP3   OH2 5603   2.191   5.402   1.507
 1866TIP3    H1 5604   2.199   5.492   1.541
 1866TIP3    H2 5605   2.166   5.413   1.415
 1867TIP3   OH2 5606   1.377   3.043   3.244
 1867TIP3    H1 5607   1.395   2.962   3.196
 1867TIP3    H2 5608   1.450   3.050   3.306
 1868TIP3   OH2 5609   3.164   0.643   4.925
 1868TIP3    H1 5610   3.125   0.671   5.008
 1868TIP3    H2 5611   3.090   0.630   4.867
 1869TIP3   OH2 5612   2.596   0.305   1.366
 1869TIP3    H1 5613   2.570   0.265   1.283
 1869TIP3    H2 5614   2.544   0.384   1.373
 1870TIP3   OH2 5615   0.027   2.372   4.024
 1870TIP3    H1 5616  -0.066   2.374   4.001
 1870TIP3    H2 5617   0.048   2.462   4.046
 1871TIP3   OH2 5618   1.907   0.955   0.407
 1871TIP3    H1 5619   1.950   0.908   0.335
 1871TIP3    H2 5620   1.980   0.983   0.463
 1872TIP3   OH2 5621   2.131   1.609   4.614
 1872TIP3    H1 5622   2.168   1.541   4.558
 1872TIP3    H2 5623   2.126   1.568   4.701
 1873TIP3   OH2 5624   2.285   4.333   0.244
 1873TIP3    H1 5625   2.339   4.351   0.167
 1873TIP3    H2 5626   2.286   4.238   0.253
 1874TIP3   OH2 5627   2.276   2.620   0.597
 1874TIP3    H1 5628   2.273   2.532   0.560
 1874TIP3    H2 5629   2.364   2.652   0.578
 1875TIP3   OH2 5630   2.201   0.878   3.775
 1875TIP3    H1 5631   2.294   0.882   3.799
 1875TIP3    H2 5632   2.166   0.964   3.800
 1876TIP3   OH2 5633   5.602   0.061   3.439
 1876TIP3    H1 5634   5.583   0.048   3.532
 1876TIP3    H2 5635   5.530   0.114   3.406
 1877TIP3   OH2 5636   0.465   2.491   4.702
 1877TIP3    H1 5637   0.420   2.563   4.745
 1877TIP3    H2 5638   0.490   2.525   4.616
 1878TIP3   OH2 5639   0.805   2.915   0.680
 1878TIP3    H1 5640   0.846   2.831   0.696
 1878TIP3    H2 5641   0.787   2.951   0.767
 1879TIP3   OH2 5642   4.201   1.530   5.054
 1879TIP3    H1 5643   4.125   1.589   5.050
 1879TIP3    H2 5644   4.231   1.522   4.964
 1880TIP3   OH2 5645   5.664   2.655   2.823
 1880TIP3    H1 5646   5.592   2.714   2.844
 1880TIP3    H2 5647   5.654   2.582   2.884
 1881TIP3   OH2 5648   5.955   5.943   3.667
 1881TIP3    H1 5649   5.915   5.959   3.582
 1881TIP3    H2 5650   5.921   5.857   3.693
 1882TIP3   OH2 5651   5.569   1.188   3.530
 1882TIP3    H1 5652   5.652   1.198   3.483
 1882TIP3    H2 5653   5.502   1.205   3.464
 1883TIP3   OH2 5654   5.369   2.232   0.694
 1883TIP3    H1 5655   5.453   2.235   0.741
 1883TIP3    H2 5656   5.372   2.150   0.645
 1884TIP3   OH2 5657   1.024   2.558   1.365
 1884TIP3    H1 5658   0.976   2.498   1.307
 1884TIP3    H2 5659   1.053   2.502   1.438
 1885TIP3   OH2 5660   4.013   2.973   1.897
 1885TIP3    H1 5661   4.055   3.049   1.857
 1885TIP3    H2 5662   3.940   2.952   1.839
 1886TIP3   OH2 5663   4.666   5.267   4.969
 1886TIP3    H1 5664   4.681   5.224   5.053
 1886TIP3    H2 5665   4.646   5.195   4.908
 1887TIP3   OH2 5666   0.434   1.458   2.186
 1887TIP3    H1 5667   0.432   1.423   2.097
 1887TIP3    H2 5668   0.447   1.552   2.174
 1888TIP3   OH2 5669   3.202   0.142   4.563
 1888TIP3    H1 5670   3.152   0.063   4.584
 1888TIP3    H2 5671   3.293   0.120   4.586
 1889TIP3   OH2 5672   3.795   2.783   5.083
 1889TIP3    H1 5673   3.728   2.836   5.128
 1889TIP3    H2 5674   3.830   2.725   5.151
 1890TIP3   OH2 5675   4.127   1.098   4.992
 1890TIP3    H1 5676   4.101   1.190   4.991
 1890TIP3    H2 5677   4.107   1.067   4.903
 1891TIP3   OH2 5678   5.381   5.034   0.197
 1891TIP3    H1 5679   5.460   5.023   0.250
 1891TIP3    H2 5680   5.335   4.950   0.204
 1892TIP3   OH2 5681   3.452   4.487   0.903
 1892TIP3    H1 5682   3.485   4.486   0.813
 1892TIP3    H2 5683   3.529   4.506   0.956
 1893TIP3   OH2 5684   0.748   3.901   0.124
 1893TIP3    H1 5685   0.796   3.977   0.157
 1893TIP3    H2 5686   0.656   3.922   0.141
 1894TIP3   OH2 5687  -0.018   0.599   4.038
 1894TIP3    H1 5688  -0.053   0.551   4.113
 1894TIP3    H2 5689   0.076   0.578   4.040
 1895TIP3   OH2 5690   0.597   0.957   3.984
 1895TIP3    H1 5691   0.545   0.930   3.908
 1895TIP3    H2 5692   0.596   1.053   3.980
 1896TIP3   OH2 5693   5.885   5.372   3.220
 1896TIP3    H1 5694   5.794   5.402   3.221
 1896TIP3    H2 5695   5.907   5.366   3.127
 1897TIP3   OH2 5696   2.808   0.063   4.306
 1897TIP3    H1 5697   2.834  -0.029   4.301
 1897TIP3    H2 5698   2.716   0.061   4.331
 1898TIP3   OH2 5699   3.930   4.720   2.432
 1898TIP3    H1 5700   3.939   4.745   2.524
 1898TIP3    H2 5701   3.875   4.642   2.433
 1899TIP3   OH2 5702   2.485   5.183   4.621
 1899TIP3    H1 5703   2.455   5.274   4.617
 1899TIP3    H2 5704   2.536   5.170   4.541
 1900TIP3   OH2 5705   2.115   5.729   3.955
 1900TIP3    H1 5706   2.144   5.730   3.864
 1900TIP3    H2 5707   2.137   5.816   3.989
 1901TIP3   OH2 5708   4.288   2.706   4.045
 1901TIP3    H1 5709   4.336   2.623   4.044
 1901TIP3    H2 5710   4.243   2.709   3.961
 1902TIP3   OH2 5711   5.699   5.228   1.243
 1902TIP3    H1 5712   5.762   5.211   1.313
 1902TIP3    H2 5713   5.738   5.186   1.166
 1903TIP3   OH2 5714   4.332   1.096   5.198
 1903TIP3    H1 5715   4.292   1.011   5.217
 1903TIP3    H2 5716   4.297   1.120   5.113
 1904TIP3   OH2 5717   5.924   4.832   4.867
 1904TIP3    H1 5718   5.961   4.917   4.893
 1904TIP3    H2 5719   5.989   4.768   4.896
 1905TIP3   OH2 5720   2.580   3.078   1.205
 1905TIP3    H1 5721   2.676   3.083   1.201
 1905TIP3    H2 5722   2.557   3.129   1.283
 1906TIP3   OH2 5723   1.625   4.000   4.328
 1906TIP3    H1 5724   1.634   3.921   4.382
 1906TIP3    H2 5725   1.710   4.045   4.337
 1907TIP3   OH2 5726   2.203   1.424   4.433
 1907TIP3    H1 5727   2.191   1.407   4.340
 1907TIP3    H2 5728   2.214   1.338   4.472
 1908TIP3   OH2 5729   3.074   4.818   2.655
 1908TIP3    H1 5730   3.078   4.728   2.623
 1908TIP3    H2 5731   3.013   4.815   2.729
 1909TIP3   OH2 5732   4.784   2.609   3.827
 1909TIP3    H1 5733   4.821   2.566   3.750
 1909TIP3    H2 5734   4.854   2.607   3.892
 1910TIP3   OH2 5735   0.434   3.673   4.151
 1910TIP3    H1 5736   0.432   3.760   4.112
 1910TIP3    H2 5737   0.428   3.689   4.245
 1911TIP3   OH2 5738   2.128   3.861   0.462
 1911TIP3    H1 5739   2.047   3.846   0.412
 1911TIP3    H2 5740   2.139   3.781   0.514
 1912TIP3   OH2 5741   6.288   1.114   2.293
 1912TIP3    H1 5742   6.375   1.123   2.254
 1912TIP3    H2 5743   6.300   1.056   2.367
 1913TIP3   OH2 5744   4.081   4.166   2.801
 1913TIP3    H1 5745   4.128   4.224   2.860
 1913TIP3    H2 5746   4.076   4.083   2.849
 1914TIP3   OH2 5747   2.617   5.889   3.447
 1914TIP3    H1 5748   2.682   5.928   3.388
 1914TIP3    H2 5749   2.668   5.861   3.523
 1915TIP3   OH2 5750   5.153   1.121   4.245
 1915TIP3    H1 5751   5.092   1.165   4.185
 1915TIP3    H2 5752   5.143   1.028   4.224
 1916TIP3   OH2 5753   1.172   0.732   2.204
 1916TIP3    H1 5754   1.203   0.645   2.231
 1916TIP3    H2 5755   1.196   0.739   2.112
 1917TIP3   OH2 5756   4.963   1.195   4.011
 1917TIP3    H1 5757   5.015   1.236   3.942
 1917TIP3    H2 5758   4.888   1.157   3.966
 1918TIP3   OH2 5759   1.527   2.035   0.348
 1918TIP3    H1 5760   1.576   2.035   0.265
 1918TIP3    H2 5761   1.549   1.952   0.389
 1919TIP3   OH2 5762   3.864   2.040   2.158
 1919TIP3    H1 5763   3.908   1.997   2.084
 1919TIP3    H2 5764   3.880   2.133   2.146
 1920TIP3   OH2 5765   5.713   2.534   4.817
 1920TIP3    H1 5766   5.674   2.596   4.879
 1920TIP3    H2 5767   5.656   2.538   4.740
 1921TIP3   OH2 5768   6.041   0.900   0.161
 1921TIP3    H1 5769   5.973   0.907   0.228
 1921TIP3    H2 5770   6.066   0.990   0.142
 1922TIP3   OH2 5771   1.293   3.545   0.054
 1922TIP3    H1 5772   1.259   3.493  -0.019
 1922TIP3    H2 5773   1.219   3.554   0.114
 1923TIP3   OH2 5774   1.911   3.630   1.445
 1923TIP3    H1 5775   1.900   3.580   1.526
 1923TIP3    H2 5776   1.877   3.717   1.467
 1924TIP3   OH2 5777   4.527   2.713   2.620
 1924TIP3    H1 5778   4.448   2.674   2.583
 1924TIP3    H2 5779   4.534   2.675   2.708
 1925TIP3   OH2 5780   4.578   0.675   0.799
 1925TIP3    H1 5781   4.660   0.711   0.832
 1925TIP3    H2 5782   4.580   0.692   0.705
 1926TIP3   OH2 5783   4.727   2.656   2.064
 1926TIP3    H1 5784   4.762   2.615   2.143
 1926TIP3    H2 5785   4.805   2.689   2.019
 1927TIP3   OH2 5786   3.252   5.719   0.682
 1927TIP3    H1 5787   3.324   5.742   0.740
 1927TIP3    H2 5788   3.196   5.796   0.680
 1928TIP3   OH2 5789   6.093   5.634   3.528
 1928TIP3    H1 5790   6.084   5.609   3.436
 1928TIP3    H2 5791   6.182   5.610   3.552
 1929TIP3   OH2 5792   4.139   2.979   0.587
 1929TIP3    H1 5793   4.097   2.942   0.665
 1929TIP3    H2 5794   4.224   2.936   0.582
 1930TIP3   OH2 5795   3.905   2.271   4.921
 1930TIP3    H1 5796   3.883   2.359   4.951
 1930TIP3    H2 5797   3.894   2.216   4.998
 1931TIP3   OH2 5798   0.704   5.442   3.457
 1931TIP3    H1 5799   0.755   5.454   3.377
 1931TIP3    H2 5800   0.760   5.476   3.527
 1932TIP3   OH2 5801   5.645   4.653   5.129
 1932TIP3    H1 5802   5.647   4.561   5.155
 1932TIP3    H2 5803   5.623   4.650   5.036
 1933TIP3   OH2 5804   5.325   4.646   3.303
 1933TIP3    H1 5805   5.341   4.707   3.231
 1933TIP3    H2 5806   5.324   4.701   3.381
 1934TIP3   OH2 5807   2.740   0.664   3.504
 1934TIP3    H1 5808   2.785   0.748   3.492
 1934TIP3    H2 5809   2.788   0.602   3.450
 1935TIP3   OH2 5810   0.655   1.829   4.542
 1935TIP3    H1 5811   0.727   1.838   4.481
 1935TIP3    H2 5812   0.615   1.916   4.545
 1936TIP3   OH2 5813   4.993   2.955   1.518
 1936TIP3    H1 5814   4.910   2.917   1.546
 1936TIP3    H2 5815   5.008   3.028   1.578
 1937TIP3   OH2 5816   1.771   0.890   1.568
 1937TIP3    H1 5817   1.742   0.833   1.639
 1937TIP3    H2 5818   1.725   0.858   1.490
 1938TIP3   OH2 5819   1.932   3.373   3.164
 1938TIP3    H1 5820   1.934   3.453   3.113
 1938TIP3    H2 5821   1.954   3.303   3.102
 1939TIP3   OH2 5822   3.015   2.416   2.364
 1939TIP3    H1 5823   3.015   2.369   2.447
 1939TIP3    H2 5824   3.018   2.508   2.388
 1940TIP3   OH2 5825   0.665   2.210   4.308
 1940TIP3    H1 5826   0.643   2.273   4.240
 1940TIP3    H2 5827   0.745   2.243   4.348
 1941TIP3   OH2 5828   4.005   4.039   0.841
 1941TIP3    H1 5829   3.948   3.992   0.902
 1941TIP3    H2 5830   4.031   4.119   0.888
 1942TIP3   OH2 5831   6.168   3.032   4.254
 1942TIP3    H1 5832   6.240   2.970   4.262
 1942TIP3    H2 5833   6.204   3.114   4.286
 1943TIP3   OH2 5834   0.273   1.524   1.934
 1943TIP3    H1 5835   0.198   1.570   1.897
 1943TIP3    H2 5836   0.342   1.591   1.938
 1944TIP3   OH2 5837   4.665   1.544   2.743
 1944TIP3    H1 5838   4.585   1.491   2.737
 1944TIP3    H2 5839   4.656   1.606   2.670
 1945TIP3   OH2 5840   2.331   5.456   0.230
 1945TIP3    H1 5841   2.384   5.456   0.309
 1945TIP3    H2 5842   2.376   5.396   0.170
 1946TIP3   OH2 5843   4.881   3.085   1.076
 1946TIP3    H1 5844   4.856   3.166   1.031
 1946TIP3    H2 5845   4.854   3.016   1.016
 1947TIP3   OH2 5846   6.188   2.248   1.371
 1947TIP3    H1 5847   6.276   2.237   1.335
 1947TIP3    H2 5848   6.202   2.261   1.465
 1948TIP3   OH2 5849   6.302   1.797   2.202
 1948TIP3    H1 5850   6.316   1.712   2.161
 1948TIP3    H2 5851   6.327   1.785   2.293
 1949TIP3   OH2 5852   4.863   4.712   2.793
 1949TIP3    H1 5853   4.958   4.725   2.783
 1949TIP3    H2 5854   4.855   4.636   2.850
 1950TIP3   OH2 5855   5.276   3.304   4.742
 1950TIP3    H1 5856   5.194   3.332   4.783
 1950TIP3    H2 5857   5.313   3.241   4.805
 1951TIP3   OH2 5858   0.101   6.005   4.786
 1951TIP3    H1 5859   0.140   5.956   4.859
 1951TIP3    H2 5860   0.031   5.947   4.754
 1952TIP3   OH2 5861  -0.012   2.630   0.462
 1952TIP3    H1 5862   0.037   2.565   0.412
 1952TIP3    H2 5863  -0.023   2.703   0.401
 1953TIP3   OH2 5864   3.090   3.024   0.263
 1953TIP3    H1 5865   3.160   3.083   0.292
 1953TIP3    H2 5866   3.133   2.965   0.202
 1954TIP3   OH2 5867   5.556   4.078   2.279
 1954TIP3    H1 5868   5.545   4.018   2.353
 1954TIP3    H2 5869   5.486   4.143   2.291
 1955TIP3   OH2 5870   0.343   1.823   0.268
 1955TIP3    H1 5871   0.352   1.904   0.218
 1955TIP3    H2 5872   0.319   1.852   0.356
 1956TIP3   OH2 5873   2.234   1.714   0.512
 1956TIP3    H1 5874   2.297   1.648   0.481
 1956TIP3    H2 5875   2.162   1.662   0.550
 1957TIP3   OH2 5876   5.739   2.315   1.122
 1957TIP3    H1 5877   5.688   2.254   1.175
 1957TIP3    H2 5878   5.791   2.258   1.065
 1958TIP3   OH2 5879   4.181   5.042   2.998
 1958TIP3    H1 5880   4.089   5.043   2.970
 1958TIP3    H2 5881   4.182   5.093   3.079
 1959TIP3   OH2 5882   1.937   1.346   3.169
 1959TIP3    H1 5883   1.993   1.377   3.098
 1959TIP3    H2 5884   1.858   1.315   3.125
 1960TIP3   OH2 5885   0.261   4.255   5.005
 1960TIP3    H1 5886   0.202   4.180   5.012
 1960TIP3    H2 5887   0.343   4.219   4.973
 1961TIP3   OH2 5888   2.983   4.727   4.019
 1961TIP3    H1 5889   3.006   4.764   4.104
 1961TIP3    H2 5890   3.036   4.776   3.956
 1962TIP3   OH2 5891   4.408  -0.008   1.575
 1962TIP3    H1 5892   4.384   0.060   1.637
 1962TIP3    H2 5893   4.445   0.039   1.501
 1963TIP3   OH2 5894   0.584   2.169   4.973
 1963TIP3    H1 5895   0.492   2.188   4.952
 1963TIP3    H2 5896   0.600   2.218   5.053
 1964TIP3   OH2 5897   5.127   0.065   0.463
 1964TIP3    H1 5898   5.182   0.142   0.479
 1964TIP3    H2 5899   5.067   0.092   0.394
 1965TIP3   OH2 5900   0.333   5.613   1.406
 1965TIP3    H1 5901   0.352   5.707   1.401
 1965TIP3    H2 5902   0.263   5.607   1.471
 1966TIP3   OH2 5903   0.696   4.738   2.953
 1966TIP3    H1 5904   0.689   4.660   2.898
 1966TIP3    H2 5905   0.607   4.771   2.960
 1967TIP3   OH2 5906   3.703   5.484   4.578
 1967TIP3    H1 5907   3.646   5.410   4.556
 1967TIP3    H2 5908   3.730   5.468   4.668
 1968TIP3   OH2 5909   0.922   0.632   4.903
 1968TIP3    H1 5910   0.925   0.545   4.862
 1968TIP3    H2 5911   0.868   0.684   4.844
 1969TIP3   OH2 5912   5.898   2.417   2.568
 1969TIP3    H1 5913   5.977   2.395   2.616
 1969TIP3    H2 5914   5.916   2.389   2.478
 1970TIP3   OH2 5915   3.582   5.724   0.329
 1970TIP3    H1 5916   3.533   5.807   0.327
 1970TIP3    H2 5917   3.569   5.686   0.242
 1971TIP3   OH2 5918   0.411   4.021   1.327
 1971TIP3    H1 5919   0.352   3.945   1.326
 1971TIP3    H2 5920   0.378   4.075   1.398
 1972TIP3   OH2 5921   2.879   2.705   1.544
 1972TIP3    H1 5922   2.870   2.728   1.452
 1972TIP3    H2 5923   2.832   2.622   1.553
 1973TIP3   OH2 5924   3.933   4.731   3.054
 1973TIP3    H1 5925   3.868   4.733   3.124
 1973TIP3    H2 5926   3.904   4.799   2.993
 1974TIP3   OH2 5927   5.180   1.414   4.474
 1974TIP3    H1 5928   5.235   1.370   4.409
 1974TIP3    H2 5929   5.094   1.373   4.465
 1975TIP3   OH2 5930   0.292   4.712   0.903
 1975TIP3    H1 5931   0.332   4.645   0.847
 1975TIP3    H2 5932   0.317   4.795   0.863
 1976TIP3   OH2 5933   1.947   2.457   3.658
 1976TIP3    H1 5934   1.949   2.376   3.709
 1976TIP3    H2 5935   2.019   2.510   3.694
 1977TIP3   OH2 5936   5.131   1.705   3.023
 1977TIP3    H1 5937   5.215   1.715   2.978
 1977TIP3    H2 5938   5.118   1.789   3.067
 1978TIP3   OH2 5939   1.352   3.262   0.606
 1978TIP3    H1 5940   1.362   3.306   0.522
 1978TIP3    H2 5941   1.260   3.275   0.629
 1979TIP3   OH2 5942   2.096   5.139   1.113
 1979TIP3    H1 5943   2.183   5.166   1.083
 1979TIP3    H2 5944   2.112   5.071   1.178
 1980TIP3   OH2 5945   0.343   3.501   5.068
 1980TIP3    H1 5946   0.406   3.440   5.106
 1980TIP3    H2 5947   0.318   3.558   5.141
 1981TIP3   OH2 5948   6.322   3.486   2.226
 1981TIP3    H1 5949   6.413   3.488   2.199
 1981TIP3    H2 5950   6.275   3.534   2.157
 1982TIP3   OH2 5951   3.569   4.826   2.764
 1982TIP3    H1 5952   3.553   4.735   2.791
 1982TIP3    H2 5953   3.621   4.817   2.683
 1983TIP3   OH2 5954   0.687   0.014   4.880
 1983TIP3    H1 5955   0.695   0.058   4.964
 1983TIP3    H2 5956   0.623  -0.056   4.894
 1984TIP3   OH2 5957   2.978   0.559   1.337
 1984TIP3    H1 5958   3.004   0.574   1.428
 1984TIP3    H2 5959   2.960   0.465   1.332
 1985TIP3   OH2 5960   1.603   0.091   4.711
 1985TIP3    H1 5961   1.631   0.180   4.688
 1985TIP3    H2 5962   1.508   0.092   4.694
 1986TIP3   OH2 5963   0.967   3.945   0.325
 1986TIP3    H1 5964   1.058   3.921   0.309
 1986TIP3    H2 5965   0.969   4.039   0.339
 1987TIP3   OH2 5966   0.293   0.887   2.991
 1987TIP3    H1 5967   0.305   0.817   2.928
 1987TIP3    H2 5968   0.315   0.848   3.075
 1988TIP3   OH2 5969   3.482   5.740   3.054
 1988TIP3    H1 5970   3.533   5.795   2.995
 1988TIP3    H2 5971   3.511   5.651   3.036
 1989TIP3   OH2 5972   3.688   0.144   0.049
 1989TIP3    H1 5973   3.742   0.166  -0.027
 1989TIP3    H2 5974   3.737   0.178   0.124
 1990TIP3   OH2 5975   6.175   4.828   4.661
 1990TIP3    H1 5976   6.114   4.761   4.629
 1990TIP3    H2 5977   6.184   4.889   4.587
 1991TIP3   OH2 5978   3.328   2.117   4.196
 1991TIP3    H1 5979   3.386   2.157   4.130
 1991TIP3    H2 5980   3.294   2.191   4.246
 1992TIP3   OH2 5981   3.169   0.342   2.422
 1992TIP3    H1 5982   3.179   0.247   2.435
 1992TIP3    H2 5983   3.077   0.359   2.442
 1993TIP3   OH2 5984   4.880   5.226   2.809
 1993TIP3    H1 5985   4.847   5.311   2.783
 1993TIP3    H2 5986   4.954   5.210   2.749
 1994TIP3   OH2 5987   0.917   2.692   0.762
 1994TIP3    H1 5988   0.956   2.659   0.843
 1994TIP3    H2 5989   0.894   2.613   0.713
 1995TIP3   OH2 5990   1.815   3.038   1.618
 1995TIP3    H1 5991   1.823   2.955   1.572
 1995TIP3    H2 5992   1.725   3.066   1.601
 1996TIP3   OH2 5993   2.764   4.642   4.987
 1996TIP3    H1 5994   2.852   4.644   5.023
 1996TIP3    H2 5995   2.742   4.734   4.972
 1997TIP3   OH2 5996   1.438   4.530   5.032
 1997TIP3    H1 5997   1.411   4.489   4.949
 1997TIP3    H2 5998   1.414   4.466   5.099
 1998TIP3   OH2 5999   0.569   1.760   3.609
 1998TIP3    H1 6000   0.551   1.808   3.690
 1998TIP3    H2 6001   0.646   1.804   3.572
 1999TIP3   OH2 6002   0.083   3.248   1.721
 1999TIP3    H1 6003   0.166   3.264   1.676
 1999TIP3    H2 6004   0.096   3.163   1.764
 2000TIP3   OH2 6005   5.040   3.532   2.532
 2000TIP3    H1 6006   5.026   3.572   2.618
 2000TIP3    H2 6007   5.053   3.606   2.473
 2001TIP3   OH2 6008   3.281   3.228   0.449
 2001TIP3    H1 6009   3.315   3.140   0.458
 2001TIP3    H2 6010   3.348   3.276   0.400
 2002TIP3   OH2 6011   5.384   0.145   2.755
 2002TIP3    H1 6012   5.292   0.127   2.734
 2002TIP3    H2 6013   5.382   0.228   2.802
 2003TIP3   OH2 6014   4.986   1.289   3.738
 2003TIP3    H1 6015   4.952   1.231   3.670
 2003TIP3    H2 6016   5.079   1.299   3.718
 2004TIP3   OH2 6017   5.291   5.506   3.833
 2004TIP3    H1 6018   5.332   5.422   3.855
 2004TIP3    H2 6019   5.312   5.518   3.740
 2005TIP3   OH2 6020   4.692   1.102   3.889
 2005TIP3    H1 6021   4.649   1.182   3.860
 2005TIP3    H2 6022   4.657   1.034   3.832
 2006TIP3   OH2 6023   0.815   5.452   1.321
 2006TIP3    H1 6024   0.898   5.413   1.345
 2006TIP3    H2 6025   0.812   5.449   1.226
 2007TIP3   OH2 6026   4.804   0.552   1.995
 2007TIP3    H1 6027   4.875   0.610   1.968
 2007TIP3    H2 6028   4.803   0.557   2.090
 2008TIP3   OH2 6029   2.842   4.030   5.042
 2008TIP3    H1 6030   2.858   4.069   4.956
 2008TIP3    H2 6031   2.749   4.047   5.059
 2009TIP3   OH2 6032   2.803   3.305   0.413
 2009TIP3    H1 6033   2.895   3.328   0.412
 2009TIP3    H2 6034   2.762   3.368   0.353
 2010TIP3   OH2 6035   5.629   1.671   5.123
 2010TIP3    H1 6036   5.667   1.606   5.065
 2010TIP3    H2 6037   5.640   1.754   5.077
 2011TIP3   OH2 6038   3.322   4.851   4.567
 2011TIP3    H1 6039   3.350   4.797   4.641
 2011TIP3    H2 6040   3.318   4.940   4.602
 2012TIP3   OH2 6041   2.840   1.225   2.415
 2012TIP3    H1 6042   2.772   1.253   2.477
 2012TIP3    H2 6043   2.792   1.205   2.335
 2013TIP3   OH2 6044   1.118   5.604   2.122
 2013TIP3    H1 6045   1.057   5.635   2.055
 2013TIP3    H2 6046   1.201   5.594   2.076
 2014TIP3   OH2 6047   6.329   0.648   3.029
 2014TIP3    H1 6048   6.311   0.562   3.065
 2014TIP3    H2 6049   6.317   0.708   3.103
 2015TIP3   OH2 6050   2.823   3.934   1.196
 2015TIP3    H1 6051   2.915   3.953   1.217
 2015TIP3    H2 6052   2.826   3.846   1.158
 2016TIP3   OH2 6053   5.809   3.666   2.881
 2016TIP3    H1 6054   5.739   3.643   2.942
 2016TIP3    H2 6055   5.839   3.582   2.846
 2017TIP3   OH2 6056   3.587   4.048   2.978
 2017TIP3    H1 6057   3.618   3.965   2.941
 2017TIP3    H2 6058   3.667   4.098   2.994
 2018TIP3   OH2 6059   4.353   3.550   4.219
 2018TIP3    H1 6060   4.263   3.516   4.221
 2018TIP3    H2 6061   4.404   3.481   4.177
 2019TIP3   OH2 6062   0.326   3.043   4.931
 2019TIP3    H1 6063   0.402   2.986   4.946
 2019TIP3    H2 6064   0.329   3.062   4.837
 2020TIP3   OH2 6065  -0.016   4.662   0.875
 2020TIP3    H1 6066  -0.034   4.596   0.808
 2020TIP3    H2 6067   0.073   4.692   0.856
 2021TIP3   OH2 6068   1.447   3.802   3.549
 2021TIP3    H1 6069   1.396   3.858   3.491
 2021TIP3    H2 6070   1.391   3.790   3.626
 2022TIP3   OH2 6071   3.263   0.947   4.775
 2022TIP3    H1 6072   3.284   0.998   4.853
 2022TIP3    H2 6073   3.193   0.998   4.733
 2023TIP3   OH2 6074   0.558   2.537   0.354
 2023TIP3    H1 6075   0.497   2.602   0.387
 2023TIP3    H2 6076   0.644   2.568   0.381
 2024TIP3   OH2 6077   1.326   4.729   4.116
 2024TIP3    H1 6078   1.338   4.652   4.172
 2024TIP3    H2 6079   1.277   4.695   4.041
 2025TIP3   OH2 6080   0.686   0.530   3.479
 2025TIP3    H1 6081   0.641   0.612   3.496
 2025TIP3    H2 6082   0.776   0.546   3.505
 2026TIP3   OH2 6083   3.485   3.922   0.934
 2026TIP3    H1 6084   3.409   3.958   0.980
 2026TIP3    H2 6085   3.545   3.996   0.925
 2027TIP3   OH2 6086   3.652   3.804   4.619
 2027TIP3    H1 6087   3.613   3.728   4.664
 2027TIP3    H2 6088   3.730   3.769   4.578
 2028TIP3   OH2 6089   1.256   0.707   1.578
 2028TIP3    H1 6090   1.279   0.795   1.606
 2028TIP3    H2 6091   1.337   0.672   1.541
 2029TIP3   OH2 6092   5.757   4.789   1.160
 2029TIP3    H1 6093   5.803   4.750   1.086
 2029TIP3    H2 6094   5.750   4.718   1.224
 2030TIP3   OH2 6095   1.182   4.937   5.046
 2030TIP3    H1 6096   1.190   4.863   5.106
 2030TIP3    H2 6097   1.137   5.004   5.096
 2031TIP3   OH2 6098   4.361   2.325   4.911
 2031TIP3    H1 6099   4.421   2.318   4.837
 2031TIP3    H2 6100   4.287   2.270   4.887
 2032TIP3   OH2 6101   4.261   1.121   0.792
 2032TIP3    H1 6102   4.251   1.034   0.752
 2032TIP3    H2 6103   4.269   1.180   0.717
 2033TIP3   OH2 6104   3.255   1.375   2.808
 2033TIP3    H1 6105   3.346   1.345   2.816
 2033TIP3    H2 6106   3.233   1.362   2.716
 2034TIP3   OH2 6107   0.475   2.370   3.430
 2034TIP3    H1 6108   0.410   2.382   3.361
 2034TIP3    H2 6109   0.425   2.337   3.505
 2035TIP3   OH2 6110   1.073   2.317   0.999
 2035TIP3    H1 6111   1.139   2.252   1.026
 2035TIP3    H2 6112   1.016   2.269   0.940
 2036TIP3   OH2 6113   1.201   3.520   0.786
 2036TIP3    H1 6114   1.246   3.493   0.867
 2036TIP3    H2 6115   1.149   3.443   0.761
 2037TIP3   OH2 6116   1.915   2.404   0.479
 2037TIP3    H1 6117   1.958   2.462   0.415
 2037TIP3    H2 6118   1.963   2.322   0.472
 2038TIP3   OH2 6119   5.252   2.863   1.074
 2038TIP3    H1 6120   5.287   2.941   1.116
 2038TIP3    H2 6121   5.160   2.862   1.098
 2039TIP3   OH2 6122   5.918   4.049   0.859
 2039TIP3    H1 6123   5.874   3.991   0.921
 2039TIP3    H2 6124   5.869   4.131   0.865
 2040TIP3   OH2 6125   1.748   3.098   0.706
 2040TIP3    H1 6126   1.667   3.111   0.656
 2040TIP3    H2 6127   1.811   3.156   0.664
 2041TIP3   OH2 6128   0.511   5.212   4.717
 2041TIP3    H1 6129   0.436   5.269   4.701
 2041TIP3    H2 6130   0.564   5.261   4.780
 2042TIP3   OH2 6131   3.902   3.609   4.236
 2042TIP3    H1 6132   3.881   3.680   4.174
 2042TIP3    H2 6133   3.889   3.648   4.322
 2043TIP3   OH2 6134   5.231   4.720   0.156
 2043TIP3    H1 6135   5.173   4.795   0.139
 2043TIP3    H2 6136   5.178   4.643   0.134
 2044TIP3   OH2 6137   2.792   2.533   2.224
 2044TIP3    H1 6138   2.720   2.490   2.178
 2044TIP3    H2 6139   2.831   2.464   2.278
 2045TIP3   OH2 6140   3.911   4.302   1.534
 2045TIP3    H1 6141   3.816   4.305   1.541
 2045TIP3    H2 6142   3.932   4.360   1.460
 2046TIP3   OH2 6143   1.085   3.412   0.346
 2046TIP3    H1 6144   1.100   3.504   0.366
 2046TIP3    H2 6145   1.079   3.370   0.432
 2047TIP3   OH2 6146   2.537   3.600   3.014
 2047TIP3    H1 6147   2.555   3.687   3.049
 2047TIP3    H2 6148   2.623   3.560   3.002
 2048TIP3   OH2 6149   0.848   4.194   2.110
 2048TIP3    H1 6150   0.908   4.268   2.120
 2048TIP3    H2 6151   0.852   4.173   2.017
 2049TIP3   OH2 6152   2.948   5.653   3.445
 2049TIP3    H1 6153   2.948   5.748   3.447
 2049TIP3    H2 6154   2.987   5.627   3.529
 2050TIP3   OH2 6155   4.861   2.347   1.586
 2050TIP3    H1 6156   4.778   2.309   1.614
 2050TIP3    H2 6157   4.855   2.439   1.613
 2051TIP3   OH2 6158   5.851   2.763   2.273
 2051TIP3    H1 6159   5.940   2.766   2.239
 2051TIP3    H2 6160   5.833   2.853   2.302
 2052TIP3   OH2 6161   0.563   5.280   3.726
 2052TIP3    H1 6162   0.616   5.247   3.798
 2052TIP3    H2 6163   0.508   5.347   3.767
 2053TIP3   OH2 6164   0.250   3.355   2.046
 2053TIP3    H1 6165   0.275   3.419   1.980
 2053TIP3    H2 6166   0.307   3.374   2.121
 2054TIP3   OH2 6167   6.153   2.845   3.279
 2054TIP3    H1 6168   6.231   2.859   3.225
 2054TIP3    H2 6169   6.124   2.757   3.258
 2055TIP3   OH2 6170   0.327   5.142   0.357
 2055TIP3    H1 6171   0.405   5.195   0.377
 2055TIP3    H2 6172   0.294   5.179   0.275
 2056TIP3   OH2 6173   3.655   2.894   0.937
 2056TIP3    H1 6174   3.639   2.853   0.851
 2056TIP3    H2 6175   3.635   2.825   1.000
 2057TIP3   OH2 6176   3.244   1.996   1.813
 2057TIP3    H1 6177   3.273   1.968   1.900
 2057TIP3    H2 6178   3.299   2.071   1.792
 2058TIP3   OH2 6179   1.117   0.770   4.606
 2058TIP3    H1 6180   1.182   0.757   4.537
 2058TIP3    H2 6181   1.040   0.721   4.575
 2059TIP3   OH2 6182   2.802   5.832   3.628
 2059TIP3    H1 6183   2.834   5.746   3.655
 2059TIP3    H2 6184   2.834   5.892   3.695
 2060TIP3   OH2 6185   2.861   1.345   1.359
 2060TIP3    H1 6186   2.930   1.403   1.325
 2060TIP3    H2 6187   2.838   1.290   1.285
 2061TIP3   OH2 6188   4.139   5.031   2.235
 2061TIP3    H1 6189   4.077   4.968   2.200
 2061TIP3    H2 6190   4.133   5.021   2.330
 2062TIP3   OH2 6191   5.105   1.139   1.456
 2062TIP3    H1 6192   5.077   1.179   1.373
 2062TIP3    H2 6193   5.048   1.063   1.466
 2063TIP3   OH2 6194   3.007   3.426   2.950
 2063TIP3    H1 6195   3.083   3.483   2.937
 2063TIP3    H2 6196   3.032   3.343   2.910
 2064TIP3   OH2 6197   3.379   0.188   0.626
 2064TIP3    H1 6198   3.333   0.240   0.561
 2064TIP3    H2 6199   3.333   0.205   0.708
 2065TIP3   OH2 6200   0.884   1.308   0.279
 2065TIP3    H1 6201   0.826   1.322   0.354
 2065TIP3    H2 6202   0.855   1.225   0.241
 2066TIP3   OH2 6203   1.309   5.710   0.432
 2066TIP3    H1 6204   1.309   5.793   0.384
 2066TIP3    H2 6205   1.357   5.650   0.376
 2067TIP3   OH2 6206   1.064   0.320   4.392
 2067TIP3    H1 6207   1.043   0.286   4.479
 2067TIP3    H2 6208   1.150   0.283   4.372
 2068TIP3   OH2 6209   5.966   4.241   1.483
 2068TIP3    H1 6210   5.910   4.165   1.497
 2068TIP3    H2 6211   6.028   4.212   1.415
 2069TIP3   OH2 6212   5.080   2.594   4.928
 2069TIP3    H1 6213   5.148   2.660   4.937
 2069TIP3    H2 6214   5.103   2.546   4.848
 2070TIP3   OH2 6215   2.928   2.277   4.699
 2070TIP3    H1 6216   2.984   2.304   4.626
 2070TIP3    H2 6217   2.969   2.317   4.776
 2071TIP3   OH2 6218   1.487   3.538   4.086
 2071TIP3    H1 6219   1.544   3.464   4.106
 2071TIP3    H2 6220   1.545   3.604   4.050
 2072TIP3   OH2 6221   3.754   0.068   4.624
 2072TIP3    H1 6222   3.838   0.022   4.634
 2072TIP3    H2 6223   3.763   0.148   4.675
 2073TIP3   OH2 6224   0.077   5.770   2.401
 2073TIP3    H1 6225   0.172   5.760   2.412
 2073TIP3    H2 6226   0.048   5.810   2.483
 2074TIP3   OH2 6227   2.028   5.524   3.603
 2074TIP3    H1 6228   2.030   5.464   3.529
 2074TIP3    H2 6229   1.989   5.473   3.674
 2075TIP3   OH2 6230   1.320   0.979   2.968
 2075TIP3    H1 6231   1.311   1.033   3.047
 2075TIP3    H2 6232   1.230   0.967   2.937
 2076TIP3   OH2 6233   5.962   0.685   0.826
 2076TIP3    H1 6234   5.901   0.676   0.753
 2076TIP3    H2 6235   5.946   0.772   0.861
 2077TIP3   OH2 6236   2.526   1.647   1.435
 2077TIP3    H1 6237   2.559   1.737   1.433
 2077TIP3    H2 6238   2.553   1.614   1.521
 2078TIP3   OH2 6239   5.255   2.318   2.177
 2078TIP3    H1 6240   5.182   2.335   2.118
 2078TIP3    H2 6241   5.317   2.388   2.160
 2079TIP3   OH2 6242   0.970   4.010   1.448
 2079TIP3    H1 6243   0.896   3.984   1.392
 2079TIP3    H2 6244   0.956   3.961   1.529
 2080TIP3   OH2 6245   3.353   2.803   3.371
 2080TIP3    H1 6246   3.377   2.796   3.463
 2080TIP3    H2 6247   3.366   2.895   3.349
 2081TIP3   OH2 6248   2.639   2.592   4.128
 2081TIP3    H1 6249   2.614   2.633   4.210
 2081TIP3    H2 6250   2.556   2.575   4.083
 2082TIP3   OH2 6251   2.391   2.256   1.642
 2082TIP3    H1 6252   2.430   2.214   1.565
 2082TIP3    H2 6253   2.448   2.232   1.715
 2083TIP3   OH2 6254   3.271   0.581   1.656
 2083TIP3    H1 6255   3.296   0.576   1.748
 2083TIP3    H2 6256   3.355   0.582   1.609
 2084TIP3   OH2 6257   0.142   0.677   2.242
 2084TIP3    H1 6258   0.172   0.586   2.248
 2084TIP3    H2 6259   0.061   0.679   2.292
 2085TIP3   OH2 6260   5.851   1.602   0.971
 2085TIP3    H1 6261   5.854   1.515   0.931
 2085TIP3    H2 6262   5.881   1.661   0.902
 2086TIP3   OH2 6263   0.921   0.046   3.695
 2086TIP3    H1 6264   0.926   0.122   3.637
 2086TIP3    H2 6265   0.828   0.039   3.718
 2087TIP3   OH2 6266   3.809   5.005   2.405
 2087TIP3    H1 6267   3.882   4.958   2.364
 2087TIP3    H2 6268   3.758   4.938   2.449
 2088TIP3   OH2 6269   2.946   0.044   0.952
 2088TIP3    H1 6270   2.920   0.136   0.957
 2088TIP3    H2 6271   2.866  -0.005   0.972
 2089TIP3   OH2 6272   5.039   2.916   0.125
 2089TIP3    H1 6273   5.103   2.978   0.161
 2089TIP3    H2 6274   5.089   2.835   0.114
 2090TIP3   OH2 6275   2.730   3.491   0.230
 2090TIP3    H1 6276   2.698   3.461   0.144
 2090TIP3    H2 6277   2.702   3.582   0.235
 2091TIP3   OH2 6278   6.030   3.734   4.767
 2091TIP3    H1 6279   6.048   3.814   4.817
 2091TIP3    H2 6280   6.096   3.671   4.797
 2092TIP3   OH2 6281   1.353  -0.009   2.889
 2092TIP3    H1 6282   1.293   0.001   2.815
 2092TIP3    H2 6283   1.301   0.016   2.966
 2093TIP3   OH2 6284   5.490   5.246   1.492
 2093TIP3    H1 6285   5.531   5.232   1.407
 2093TIP3    H2 6286   5.502   5.163   1.539
 2094TIP3   OH2 6287   2.690   5.354   2.917
 2094TIP3    H1 6288   2.751   5.397   2.858
 2094TIP3    H2 6289   2.643   5.425   2.960
 2095TIP3   OH2 6290   2.886   4.627   0.924
 2095TIP3    H1 6291   2.905   4.609   1.016
 2095TIP3    H2 6292   2.840   4.549   0.893
 2096TIP3   OH2 6293   1.116   5.357   0.231
 2096TIP3    H1 6294   1.028   5.394   0.230
 2096TIP3    H2 6295   1.149   5.373   0.142
 2097TIP3   OH2 6296   6.036   1.037   3.658
 2097TIP3    H1 6297   6.056   1.085   3.578
 2097TIP3    H2 6298   6.001   1.104   3.718
 2098TIP3   OH2 6299   4.238   4.451   4.099
 2098TIP3    H1 6300   4.145   4.444   4.120
 2098TIP3    H2 6301   4.244   4.530   4.045
 2099TIP3   OH2 6302   2.988   4.370   3.877
 2099TIP3    H1 6303   3.060   4.432   3.864
 2099TIP3    H2 6304   3.011   4.323   3.957
 2100TIP3   OH2 6305   3.787   5.437   2.196
 2100TIP3    H1 6306   3.702   5.480   2.200
 2100TIP3    H2 6307   3.776   5.366   2.133
 2101TIP3   OH2 6308   1.286   5.122   3.300
 2101TIP3    H1 6309   1.357   5.155   3.244
 2101TIP3    H2 6310   1.247   5.201   3.337
 2102TIP3   OH2 6311   1.104   0.166   0.384
 2102TIP3    H1 6312   1.192   0.132   0.370
 2102TIP3    H2 6313   1.100   0.245   0.329
 2103TIP3   OH2 6314   2.208   1.051   1.959
 2103TIP3    H1 6315   2.185   0.985   1.893
 2103TIP3    H2 6316   2.296   1.079   1.935
 2104TIP3   OH2 6317   2.125   4.665   0.860
 2104TIP3    H1 6318   2.031   4.647   0.862
 2104TIP3    H2 6319   2.132   4.756   0.831
 2105TIP3   OH2 6320   0.113   5.770   1.818
 2105TIP3    H1 6321   0.062   5.850   1.833
 2105TIP3    H2 6322   0.196   5.801   1.782
 2106TIP3   OH2 6323   4.168   2.870   2.427
 2106TIP3    H1 6324   4.179   2.905   2.338
 2106TIP3    H2 6325   4.100   2.924   2.466
 2107TIP3   OH2 6326   5.304   1.575   5.152
 2107TIP3    H1 6327   5.353   1.502   5.188
 2107TIP3    H2 6328   5.217   1.540   5.136
 2108TIP3   OH2 6329   6.186   1.331   1.689
 2108TIP3    H1 6330   6.216   1.355   1.776
 2108TIP3    H2 6331   6.250   1.370   1.630
 2109TIP3   OH2 6332   1.833   1.122   2.959
 2109TIP3    H1 6333   1.817   1.059   3.029
 2109TIP3    H2 6334   1.924   1.148   2.971
 2110TIP3   OH2 6335   0.228   1.611   1.230
 2110TIP3    H1 6336   0.157   1.640   1.288
 2110TIP3    H2 6337   0.230   1.516   1.239
 2111TIP3   OH2 6338   5.040   5.252   1.236
 2111TIP3    H1 6339   4.959   5.278   1.280
 2111TIP3    H2 6340   5.095   5.216   1.305
 2112TIP3   OH2 6341   0.638   2.633   2.493
 2112TIP3    H1 6342   0.730   2.614   2.507
 2112TIP3    H2 6343   0.637   2.721   2.456
 2113TIP3   OH2 6344   2.270   3.387   4.943
 2113TIP3    H1 6345   2.324   3.310   4.926
 2113TIP3    H2 6346   2.297   3.416   5.030
 2114TIP3   OH2 6347   1.570   4.961   4.636
 2114TIP3    H1 6348   1.517   4.935   4.713
 2114TIP3    H2 6349   1.610   4.879   4.606
 2115TIP3   OH2 6350   3.604   2.708   0.742
 2115TIP3    H1 6351   3.643   2.698   0.655
 2115TIP3    H2 6352   3.531   2.645   0.743
 2116TIP3   OH2 6353   4.055   0.545   3.860
 2116TIP3    H1 6354   3.984   0.540   3.924
 2116TIP3    H2 6355   4.047   0.632   3.821
 2117TIP3   OH2 6356   6.218   5.785   1.287
 2117TIP3    H1 6357   6.281   5.839   1.335
 2117TIP3    H2 6358   6.143   5.778   1.345
 2118TIP3   OH2 6359   3.379  -0.015   0.398
 2118TIP3    H1 6360   3.474   0.000   0.394
 2118TIP3    H2 6361   3.347   0.051   0.460
 2119TIP3   OH2 6362   2.547   3.731   5.190
 2119TIP3    H1 6363   2.569   3.769   5.105
 2119TIP3    H2 6364   2.513   3.805   5.241
 2120TIP3   OH2 6365   5.047   5.093   4.995
 2120TIP3    H1 6366   5.056   5.172   5.048
 2120TIP3    H2 6367   4.969   5.049   5.029
 2121TIP3   OH2 6368   1.884   2.971   5.072
 2121TIP3    H1 6369   1.792   2.945   5.065
 2121TIP3    H2 6370   1.930   2.892   5.101
 2122TIP3   OH2 6371   1.751   0.874   3.808
 2122TIP3    H1 6372   1.820   0.821   3.768
 2122TIP3    H2 6373   1.675   0.816   3.809
 2123TIP3   OH2 6374   3.127   4.501   3.409
 2123TIP3    H1 6375   3.123   4.581   3.358
 2123TIP3    H2 6376   3.042   4.459   3.395
 2124TIP3   OH2 6377   5.316   3.376   4.129
 2124TIP3    H1 6378   5.400   3.418   4.109
 2124TIP3    H2 6379   5.339   3.304   4.188
 2125TIP3   OH2 6380   5.102   4.201   5.029
 2125TIP3    H1 6381   5.044   4.139   5.072
 2125TIP3    H2 6382   5.156   4.147   4.971
 2126TIP3   OH2 6383   6.290   4.844   0.217
 2126TIP3    H1 6384   6.239   4.866   0.139
 2126TIP3    H2 6385   6.337   4.924   0.239
 2127TIP3   OH2 6386   1.888   3.579   4.710
 2127TIP3    H1 6387   1.866   3.548   4.622
 2127TIP3    H2 6388   1.934   3.505   4.750
 2128TIP3   OH2 6389   3.048   4.978   3.568
 2128TIP3    H1 6390   3.121   5.037   3.548
 2128TIP3    H2 6391   3.009   4.959   3.483
 2129TIP3   OH2 6392   6.020   0.894   2.583
 2129TIP3    H1 6393   6.068   0.930   2.658
 2129TIP3    H2 6394   5.958   0.963   2.559
 2130TIP3   OH2 6395   5.683   2.002   3.432
 2130TIP3    H1 6396   5.700   2.092   3.461
 2130TIP3    H2 6397   5.610   2.010   3.371
 2131TIP3   OH2 6398   4.196   4.200   4.241
 2131TIP3    H1 6399   4.131   4.248   4.291
 2131TIP3    H2 6400   4.234   4.266   4.181
 2132TIP3   OH2 6401   2.143   3.611   4.209
 2132TIP3    H1 6402   2.094   3.624   4.128
 2132TIP3    H2 6403   2.194   3.692   4.219
 2133TIP3   OH2 6404   5.579   0.488   4.771
 2133TIP3    H1 6405   5.488   0.516   4.781
 2133TIP3    H2 6406   5.577   0.394   4.791
 2134TIP3   OH2 6407   1.316   0.039   4.660
 2134TIP3    H1 6408   1.306   0.061   4.753
 2134TIP3    H2 6409   1.265   0.106   4.614
 2135TIP3   OH2 6410   3.370   1.967   1.044
 2135TIP3    H1 6411   3.459   1.992   1.016
 2135TIP3    H2 6412   3.333   1.922   0.968
 2136TIP3   OH2 6413   5.509   4.768   3.648
 2136TIP3    H1 6414   5.470   4.756   3.735
 2136TIP3    H2 6415   5.516   4.680   3.612
 2137TIP3   OH2 6416   3.746   0.634   0.890
 2137TIP3    H1 6417   3.783   0.605   0.974
 2137TIP3    H2 6418   3.735   0.729   0.901
 2138TIP3   OH2 6419   6.116   5.544   3.267
 2138TIP3    H1 6420   6.030   5.508   3.247
 2138TIP3    H2 6421   6.177   5.476   3.238
 2139TIP3   OH2 6422   0.836   4.974   4.730
 2139TIP3    H1 6423   0.884   4.912   4.674
 2139TIP3    H2 6424   0.808   4.922   4.805
 2140TIP3   OH2 6425   1.031   5.330   5.020
 2140TIP3    H1 6426   0.996   5.259   4.966
 2140TIP3    H2 6427   1.068   5.392   4.957
 2141TIP3   OH2 6428   4.210   0.220   4.457
 2141TIP3    H1 6429   4.211   0.314   4.475
 2141TIP3    H2 6430   4.155   0.212   4.379
 2142TIP3   OH2 6431   5.535   0.600   1.699
 2142TIP3    H1 6432   5.625   0.607   1.732
 2142TIP3    H2 6433   5.541   0.629   1.608
 2143TIP3   OH2 6434   0.564   3.350   5.182
 2143TIP3    H1 6435   0.656   3.374   5.172
 2143TIP3    H2 6436   0.566   3.255   5.196
 2144TIP3   OH2 6437   5.049   0.075   2.803
 2144TIP3    H1 6438   4.993   0.143   2.841
 2144TIP3    H2 6439   5.084   0.116   2.724
 2145TIP3   OH2 6440   1.374   5.478   3.054
 2145TIP3    H1 6441   1.403   5.560   3.094
 2145TIP3    H2 6442   1.441   5.458   2.988
 2146TIP3   OH2 6443   1.068   2.272   3.284
 2146TIP3    H1 6444   0.980   2.299   3.310
 2146TIP3    H2 6445   1.086   2.322   3.204
 2147TIP3   OH2 6446   3.044   1.564   1.247
 2147TIP3    H1 6447   3.125   1.513   1.243
 2147TIP3    H2 6448   3.073   1.655   1.256
 2148TIP3   OH2 6449   0.095   1.107   4.653
 2148TIP3    H1 6450   0.039   1.179   4.624
 2148TIP3    H2 6451   0.094   1.113   4.749
 2149TIP3   OH2 6452   1.561   2.668   4.185
 2149TIP3    H1 6453   1.609   2.747   4.161
 2149TIP3    H2 6454   1.627   2.611   4.224
 2150TIP3   OH2 6455   0.567   3.133   1.476
 2150TIP3    H1 6456   0.637   3.069   1.484
 2150TIP3    H2 6457   0.610   3.212   1.442
 2151TIP3   OH2 6458   2.514   0.711   2.424
 2151TIP3    H1 6459   2.531   0.802   2.403
 2151TIP3    H2 6460   2.473   0.714   2.510
 2152TIP3   OH2 6461   3.774   5.742   4.827
 2152TIP3    H1 6462   3.743   5.693   4.903
 2152TIP3    H2 6463   3.866   5.718   4.819
 2153TIP3   OH2 6464   3.518   5.766   2.485
 2153TIP3    H1 6465   3.588   5.811   2.439
 2153TIP3    H2 6466   3.450   5.833   2.497
 2154TIP3   OH2 6467   4.058   0.852   1.106
 2154TIP3    H1 6468   4.096   0.768   1.132
 2154TIP3    H2 6469   3.964   0.841   1.121
 2155TIP3   OH2 6470   2.878   3.588   3.974
 2155TIP3    H1 6471   2.835   3.504   3.957
 2155TIP3    H2 6472   2.970   3.566   3.987
 2156TIP3   OH2 6473   5.083   0.688   1.045
 2156TIP3    H1 6474   5.074   0.761   1.106
 2156TIP3    H2 6475   5.153   0.634   1.082
 2157TIP3   OH2 6476   1.140   0.009   0.629
 2157TIP3    H1 6477   1.134   0.046   0.717
 2157TIP3    H2 6478   1.137   0.084   0.571
 2158TIP3   OH2 6479   4.942   4.555   2.338
 2158TIP3    H1 6480   4.914   4.470   2.305
 2158TIP3    H2 6481   4.996   4.535   2.414
 2159TIP3   OH2 6482   0.857   5.041   0.030
 2159TIP3    H1 6483   0.808   5.072  -0.046
 2159TIP3    H2 6484   0.843   5.108   0.097
 2160TIP3   OH2 6485   4.403   3.001   2.549
 2160TIP3    H1 6486   4.356   2.956   2.479
 2160TIP3    H2 6487   4.355   3.083   2.562
 2161TIP3   OH2 6488   5.223   4.253   3.016
 2161TIP3    H1 6489   5.170   4.183   3.056
 2161TIP3    H2 6490   5.282   4.208   2.956
 2162TIP3   OH2 6491   3.365   5.568   1.706
 2162TIP3    H1 6492   3.426   5.641   1.696
 2162TIP3    H2 6493   3.316   5.589   1.786
 2163TIP3   OH2 6494   1.623   5.039   3.711
 2163TIP3    H1 6495   1.603   5.056   3.803
 2163TIP3    H2 6496   1.694   4.976   3.713
 2164TIP3   OH2 6497   5.772   3.163   0.409
 2164TIP3    H1 6498   5.849   3.220   0.412
 2164TIP3    H2 6499   5.808   3.074   0.401
 2165TIP3   OH2 6500   1.277   3.604   4.231
 2165TIP3    H1 6501   1.218   3.632   4.162
 2165TIP3    H2 6502   1.361   3.588   4.187
 2166TIP3   OH2 6503   1.458   5.391   4.139
 2166TIP3    H1 6504   1.543   5.362   4.173
 2166TIP3    H2 6505   1.467   5.486   4.130
 2167TIP3   OH2 6506   5.510   4.193   3.377
 2167TIP3    H1 6507   5.487   4.278   3.338
 2167TIP3    H2 6508   5.598   4.175   3.345
 2168TIP3   OH2 6509   0.341   4.634   5.159
 2168TIP3    H1 6510   0.311   4.693   5.228
 2168TIP3    H2 6511   0.362   4.693   5.086
 2169TIP3   OH2 6512   5.008   5.604   0.480
 2169TIP3    H1 6513   4.969   5.530   0.527
 2169TIP3    H2 6514   5.029   5.667   0.549
 2170TIP3   OH2 6515   3.428   4.298   1.114
 2170TIP3    H1 6516   3.425   4.341   1.029
 2170TIP3    H2 6517   3.393   4.210   1.098
 2171TIP3   OH2 6518   1.656   0.144   2.188
 2171TIP3    H1 6519   1.749   0.162   2.176
 2171TIP3    H2 6520   1.653   0.068   2.246
 2172TIP3   OH2 6521   5.992   3.227   5.060
 2172TIP3    H1 6522   5.938   3.216   4.982
 2172TIP3    H2 6523   6.078   3.193   5.034
 2173TIP3   OH2 6524   0.007   0.503   0.700
 2173TIP3    H1 6525   0.022   0.426   0.756
 2173TIP3    H2 6526   0.042   0.477   0.614
 2174TIP3   OH2 6527   1.704   3.192   2.524
 2174TIP3    H1 6528   1.612   3.217   2.536
 2174TIP3    H2 6529   1.751   3.242   2.591
 2175TIP3   OH2 6530   5.996   0.055   0.803
 2175TIP3    H1 6531   5.907   0.018   0.795
 2175TIP3    H2 6532   6.046   0.010   0.736
 2176TIP3   OH2 6533   2.082   2.351   0.703
 2176TIP3    H1 6534   2.150   2.360   0.636
 2176TIP3    H2 6535   2.082   2.257   0.724
 2177TIP3   OH2 6536   5.971   2.949   4.414
 2177TIP3    H1 6537   6.014   2.955   4.329
 2177TIP3    H2 6538   6.043   2.950   4.477
 2178TIP3   OH2 6539   0.187   3.689   4.935
 2178TIP3    H1 6540   0.264   3.637   4.960
 2178TIP3    H2 6541   0.114   3.649   4.982
 2179TIP3   OH2 6542   5.871   3.801   4.551
 2179TIP3    H1 6543   5.876   3.896   4.562
 2179TIP3    H2 6544   5.929   3.765   4.618
 2180TIP3   OH2 6545   6.026   2.051   1.372
 2180TIP3    H1 6546   6.085   2.126   1.366
 2180TIP3    H2 6547   5.950   2.075   1.318
 2181TIP3   OH2 6548   0.682   0.094   4.620
 2181TIP3    H1 6549   0.654   0.183   4.600
 2181TIP3    H2 6550   0.655   0.079   4.710
 2182TIP3   OH2 6551   5.662   0.742   0.973
 2182TIP3    H1 6552   5.660   0.837   0.972
 2182TIP3    H2 6553   5.585   0.715   0.922
 2183TIP3   OH2 6554   5.746   0.974   2.565
 2183TIP3    H1 6555   5.756   0.887   2.525
 2183TIP3    H2 6556   5.659   1.003   2.538
 2184TIP3   OH2 6557   1.722   1.136   3.371
 2184TIP3    H1 6558   1.647   1.077   3.383
 2184TIP3    H2 6559   1.757   1.113   3.285
 2185TIP3   OH2 6560   0.462   4.981   0.063
 2185TIP3    H1 6561   0.401   4.948  -0.002
 2185TIP3    H2 6562   0.531   5.023   0.012
 2186TIP3   OH2 6563   5.658   3.984   0.988
 2186TIP3    H1 6564   5.575   4.010   0.949
 2186TIP3    H2 6565   5.642   3.985   1.083
 2187TIP3   OH2 6566   6.315   1.830   0.872
 2187TIP3    H1 6567   6.397   1.801   0.912
 2187TIP3    H2 6568   6.311   1.784   0.788
 2188TIP3   OH2 6569   4.346   5.405   5.110
 2188TIP3    H1 6570   4.316   5.480   5.161
 2188TIP3    H2 6571   4.269   5.375   5.063
 2189TIP3   OH2 6572   2.653   3.513   4.263
 2189TIP3    H1 6573   2.635   3.603   4.288
 2189TIP3    H2 6574   2.616   3.461   4.334
 2190TIP3   OH2 6575   4.855   1.020   3.163
 2190TIP3    H1 6576   4.872   1.114   3.157
 2190TIP3    H2 6577   4.896   0.993   3.246
 2191TIP3   OH2 6578   6.101   2.846   4.933
 2191TIP3    H1 6579   6.142   2.788   4.869
 2191TIP3    H2 6580   6.008   2.844   4.910
 2192TIP3   OH2 6581   1.915   5.317   3.369
 2192TIP3    H1 6582   1.842   5.257   3.387
 2192TIP3    H2 6583   1.875   5.391   3.324
 2193TIP3   OH2 6584   0.720   5.248   2.790
 2193TIP3    H1 6585   0.675   5.261   2.706
 2193TIP3    H2 6586   0.654   5.206   2.846
 2194TIP3   OH2 6587   5.222   0.895   3.822
 2194TIP3    H1 6588   5.139   0.907   3.775
 2194TIP3    H2 6589   5.251   0.984   3.842
 2195TIP3   OH2 6590   1.130   2.818   4.442
 2195TIP3    H1 6591   1.220   2.835   4.414
 2195TIP3    H2 6592   1.137   2.743   4.501
 2196TIP3   OH2 6593   0.695   2.090   1.047
 2196TIP3    H1 6594   0.745   2.150   0.993
 2196TIP3    H2 6595   0.611   2.080   1.001
 2197TIP3   OH2 6596   3.570   0.187   4.951
 2197TIP3    H1 6597   3.504   0.248   4.984
 2197TIP3    H2 6598   3.647   0.204   5.005
 2198TIP3   OH2 6599   6.063   2.421   1.900
 2198TIP3    H1 6600   6.124   2.491   1.875
 2198TIP3    H2 6601   6.039   2.380   1.817
 2199TIP3   OH2 6602   4.918   2.368   5.095
 2199TIP3    H1 6603   4.892   2.277   5.113
 2199TIP3    H2 6604   4.868   2.393   5.018
 2200TIP3   OH2 6605   5.836   5.602   1.324
 2200TIP3    H1 6606   5.766   5.568   1.380
 2200TIP3    H2 6607   5.806   5.688   1.297
 2201TIP3   OH2 6608   4.668   0.441   4.780
 2201TIP3    H1 6609   4.711   0.523   4.757
 2201TIP3    H2 6610   4.739   0.379   4.795
 2202TIP3   OH2 6611   1.614   1.503   0.293
 2202TIP3    H1 6612   1.538   1.517   0.237
 2202TIP3    H2 6613   1.614   1.577   0.353
 2203TIP3   OH2 6614   1.682   4.497   4.239
 2203TIP3    H1 6615   1.664   4.540   4.155
 2203TIP3    H2 6616   1.777   4.497   4.246
 2204TIP3   OH2 6617   3.698   4.339   3.033
 2204TIP3    H1 6618   3.738   4.331   2.946
 2204TIP3    H2 6619   3.614   4.381   3.017
 2205TIP3   OH2 6620   5.405   0.360   1.756
 2205TIP3    H1 6621   5.470   0.425   1.730
 2205TIP3    H2 6622   5.381   0.316   1.674
 2206TIP3   OH2 6623   4.448   2.123   0.764
 2206TIP3    H1 6624   4.429   2.038   0.805
 2206TIP3    H2 6625   4.372   2.141   0.709
 2207TIP3   OH2 6626   5.127   1.382   0.643
 2207TIP3    H1 6627   5.055   1.436   0.610
 2207TIP3    H2 6628   5.093   1.344   0.724
 2208TIP3   OH2 6629   3.850   0.680   0.407
 2208TIP3    H1 6630   3.822   0.594   0.441
 2208TIP3    H2 6631   3.874   0.729   0.486
 2209TIP3   OH2 6632   4.124   0.958   2.427
 2209TIP3    H1 6633   4.139   0.865   2.445
 2209TIP3    H2 6634   4.211   0.996   2.418
 2210TIP3   OH2 6635   5.890   4.608   2.478
 2210TIP3    H1 6636   5.827   4.667   2.438
 2210TIP3    H2 6637   5.844   4.568   2.551
 2211TIP3   OH2 6638   1.082   0.537   1.737
 2211TIP3    H1 6639   1.042   0.601   1.795
 2211TIP3    H2 6640   1.121   0.589   1.666
 2212TIP3   OH2 6641   4.791   4.549   0.596
 2212TIP3    H1 6642   4.817   4.516   0.682
 2212TIP3    H2 6643   4.738   4.478   0.559
 2213TIP3   OH2 6644   0.751   3.971   2.868
 2213TIP3    H1 6645   0.789   3.902   2.814
 2213TIP3    H2 6646   0.826   4.008   2.915
 2214TIP3   OH2 6647   2.433   3.483   2.759
 2214TIP3    H1 6648   2.475   3.491   2.845
 2214TIP3    H2 6649   2.463   3.559   2.711
 2215TIP3   OH2 6650   3.779   0.412   0.517
 2215TIP3    H1 6651   3.771   0.317   0.515
 2215TIP3    H2 6652   3.717   0.440   0.584
 2216TIP3   OH2 6653   2.059   2.251   1.830
 2216TIP3    H1 6654   2.120   2.199   1.777
 2216TIP3    H2 6655   2.038   2.326   1.775
 2217TIP3   OH2 6656   0.811   0.803   3.764
 2217TIP3    H1 6657   0.813   0.838   3.853
 2217TIP3    H2 6658   0.720   0.815   3.736
 2218TIP3   OH2 6659   5.628   5.291   4.208
 2218TIP3    H1 6660   5.548   5.334   4.178
 2218TIP3    H2 6661   5.631   5.310   4.302
 2219TIP3   OH2 6662   0.740   3.994   0.623
 2219TIP3    H1 6663   0.738   3.950   0.538
 2219TIP3    H2 6664   0.681   3.944   0.678
 2220TIP3   OH2 6665   3.705   5.803   1.032
 2220TIP3    H1 6666   3.782   5.838   1.076
 2220TIP3    H2 6667   3.736   5.778   0.945
 2221TIP3   OH2 6668   1.532   5.774   3.089
 2221TIP3    H1 6669   1.476   5.843   3.124
 2221TIP3    H2 6670   1.612   5.819   3.062
 2222TIP3   OH2 6671   0.159   2.507   1.593
 2222TIP3    H1 6672   0.125   2.577   1.538
 2222TIP3    H2 6673   0.126   2.527   1.681
 2223TIP3   OH2 6674   3.085   3.941   1.507
 2223TIP3    H1 6675   3.126   3.863   1.472
 2223TIP3    H2 6676   3.034   3.910   1.582
 2224TIP3   OH2 6677   4.715   2.984   3.342
 2224TIP3    H1 6678   4.754   3.044   3.279
 2224TIP3    H2 6679   4.746   3.016   3.427
 2225TIP3   OH2 6680   6.177   0.341   1.752
 2225TIP3    H1 6681   6.088   0.325   1.722
 2225TIP3    H2 6682   6.176   0.431   1.786
 2226TIP3   OH2 6683   0.485   1.788   2.476
 2226TIP3    H1 6684   0.550   1.728   2.440
 2226TIP3    H2 6685   0.495   1.869   2.425
 2227TIP3   OH2 6686   2.877   3.219   0.702
 2227TIP3    H1 6687   2.888   3.126   0.686
 2227TIP3    H2 6688   2.804   3.225   0.764
 2228TIP3   OH2 6689   3.921   0.781   0.637
 2228TIP3    H1 6690   3.944   0.846   0.703
 2228TIP3    H2 6691   3.940   0.697   0.678
 2229TIP3   OH2 6692   2.176   5.039   2.006
 2229TIP3    H1 6693   2.131   5.092   2.072
 2229TIP3    H2 6694   2.268   5.066   2.012
 2230TIP3   OH2 6695   3.182   4.522   0.619
 2230TIP3    H1 6696   3.201   4.543   0.528
 2230TIP3    H2 6697   3.162   4.606   0.660
 2231TIP3   OH2 6698   1.982   4.224   1.590
 2231TIP3    H1 6699   2.023   4.308   1.611
 2231TIP3    H2 6700   2.052   4.171   1.553
 2232TIP3   OH2 6701   1.645   1.171   2.422
 2232TIP3    H1 6702   1.715   1.206   2.476
 2232TIP3    H2 6703   1.572   1.232   2.434
 2233TIP3   OH2 6704   0.995   3.969   3.801
 2233TIP3    H1 6705   0.899   3.969   3.804
 2233TIP3    H2 6706   1.019   4.060   3.819
 2234TIP3   OH2 6707   0.396   1.071   1.751
 2234TIP3    H1 6708   0.331   1.088   1.683
 2234TIP3    H2 6709   0.346   1.074   1.833
 2235TIP3   OH2 6710   2.119   5.370   2.389
 2235TIP3    H1 6711   2.051   5.302   2.389
 2235TIP3    H2 6712   2.072   5.451   2.367
 2236TIP3   OH2 6713   4.054   1.829   0.739
 2236TIP3    H1 6714   4.021   1.812   0.651
 2236TIP3    H2 6715   4.025   1.918   0.758
 2237TIP3   OH2 6716   3.763   4.272   3.944
 2237TIP3    H1 6717   3.682   4.230   3.915
 2237TIP3    H2 6718   3.817   4.200   3.976
 2238TIP3   OH2 6719   4.627   0.439   0.191
 2238TIP3    H1 6720   4.704   0.425   0.135
 2238TIP3    H2 6721   4.657   0.414   0.278
 2239TIP3   OH2 6722   0.562   1.274   1.249
 2239TIP3    H1 6723   0.627   1.345   1.244
 2239TIP3    H2 6724   0.580   1.220   1.172
 2240TIP3   OH2 6725   3.092   1.831   2.231
 2240TIP3    H1 6726   3.103   1.842   2.325
 2240TIP3    H2 6727   3.154   1.763   2.207
 2241TIP3   OH2 6728   3.590   3.225   0.626
 2241TIP3    H1 6729   3.558   3.145   0.669
 2241TIP3    H2 6730   3.684   3.226   0.647
 2242TIP3   OH2 6731   5.823   1.933   0.139
 2242TIP3    H1 6732   5.864   1.902   0.058
 2242TIP3    H2 6733   5.741   1.883   0.145
 2243TIP3   OH2 6734   0.264   1.912   2.844
 2243TIP3    H1 6735   0.232   1.869   2.924
 2243TIP3    H2 6736   0.188   1.958   2.809
 2244TIP3   OH2 6737   2.005   0.430   1.933
 2244TIP3    H1 6738   2.096   0.443   1.959
 2244TIP3    H2 6739   2.009   0.363   1.865
 2245TIP3   OH2 6740   3.846   1.651   0.624
 2245TIP3    H1 6741   3.841   1.568   0.576
 2245TIP3    H2 6742   3.757   1.665   0.657
 2246TIP3   OH2 6743   1.213   1.228   1.458
 2246TIP3    H1 6744   1.198   1.183   1.541
 2246TIP3    H2 6745   1.199   1.161   1.391
 2247TIP3   OH2 6746   1.943   0.199   2.753
 2247TIP3    H1 6747   1.857   0.190   2.712
 2247TIP3    H2 6748   1.955   0.118   2.802
 2248TIP3   OH2 6749   4.081   4.960   0.383
 2248TIP3    H1 6750   4.099   4.927   0.295
 2248TIP3    H2 6751   4.167   4.958   0.427
 2249TIP3   OH2 6752   0.235   4.383   1.821
 2249TIP3    H1 6753   0.252   4.317   1.888
 2249TIP3    H2 6754   0.220   4.464   1.870
 2250TIP3   OH2 6755   2.078   5.885   3.264
 2250TIP3    H1 6756   2.158   5.888   3.317
 2250TIP3    H2 6757   2.016   5.835   3.317
 2251TIP3   OH2 6758   4.629   3.951   5.017
 2251TIP3    H1 6759   4.644   3.907   5.100
 2251TIP3    H2 6760   4.548   3.914   4.983
 2252TIP3   OH2 6761   2.556   2.208   1.839
 2252TIP3    H1 6762   2.574   2.114   1.838
 2252TIP3    H2 6763   2.615   2.243   1.906
 2253TIP3   OH2 6764   4.816   5.809   0.456
 2253TIP3    H1 6765   4.750   5.744   0.429
 2253TIP3    H2 6766   4.893   5.756   0.477
 2254TIP3   OH2 6767   5.210   1.616   4.111
 2254TIP3    H1 6768   5.287   1.609   4.053
 2254TIP3    H2 6769   5.154   1.543   4.084
 2255TIP3   OH2 6770   3.617   0.266   2.021
 2255TIP3    H1 6771   3.687   0.272   2.087
 2255TIP3    H2 6772   3.543   0.230   2.069
 2256TIP3   OH2 6773   6.322   1.920   4.868
 2256TIP3    H1 6774   6.331   1.857   4.940
 2256TIP3    H2 6775   6.286   1.870   4.796
 2257TIP3   OH2 6776   5.044   1.344   2.331
 2257TIP3    H1 6777   5.048   1.254   2.298
 2257TIP3    H2 6778   4.965   1.347   2.384
 2258TIP3   OH2 6779   3.507   4.098   3.603
 2258TIP3    H1 6780   3.461   4.111   3.685
 2258TIP3    H2 6781   3.456   4.148   3.539
 2259TIP3   OH2 6782   4.730   1.012   1.262
 2259TIP3    H1 6783   4.693   0.931   1.298
 2259TIP3    H2 6784   4.656   1.058   1.224
 2260TIP3   OH2 6785   0.292   3.061   2.067
 2260TIP3    H1 6786   0.222   3.118   2.098
 2260TIP3    H2 6787   0.267   2.974   2.099
 2261TIP3   OH2 6788   3.113   1.794   2.514
 2261TIP3    H1 6789   3.047   1.864   2.514
 2261TIP3    H2 6790   3.174   1.819   2.583
 2262TIP3   OH2 6791   3.837   3.628   2.870
 2262TIP3    H1 6792   3.821   3.545   2.826
 2262TIP3    H2 6793   3.887   3.604   2.948
 2263TIP3   OH2 6794   1.378   2.713   0.308
 2263TIP3    H1 6795   1.383   2.809   0.313
 2263TIP3    H2 6796   1.298   2.692   0.356
 2264TIP3   OH2 6797   4.095   3.819   2.754
 2264TIP3    H1 6798   4.010   3.861   2.754
 2264TIP3    H2 6799   4.144   3.863   2.823
 2265TIP3   OH2 6800   2.733   2.196   2.076
 2265TIP3    H1 6801   2.681   2.117   2.092
 2265TIP3    H2 6802   2.819   2.163   2.051
 2266TIP3   OH2 6803   3.701   1.018   2.062
 2266TIP3    H1 6804   3.754   1.046   2.137
 2266TIP3    H2 6805   3.747   1.054   1.986
 2267TIP3   OH2 6806   4.818   1.871   1.028
 2267TIP3    H1 6807   4.812   1.871   1.124
 2267TIP3    H2 6808   4.734   1.836   0.999
 2268TIP3   OH2 6809   3.407   1.643   2.450
 2268TIP3    H1 6810   3.462   1.659   2.374
 2268TIP3    H2 6811   3.320   1.674   2.423
 2269TIP3   OH2 6812   5.273   2.039   0.986
 2269TIP3    H1 6813   5.221   2.003   1.058
 2269TIP3    H2 6814   5.324   2.109   1.026
 2270TIP3   OH2 6815   0.689   1.203   3.614
 2270TIP3    H1 6816   0.737   1.262   3.671
 2270TIP3    H2 6817   0.598   1.210   3.643
 2271TIP3   OH2 6818   5.571   0.434   3.092
 2271TIP3    H1 6819   5.493   0.384   3.113
 2271TIP3    H2 6820   5.634   0.369   3.061
 2272TIP3   OH2 6821   1.180   5.489   4.856
 2272TIP3    H1 6822   1.273   5.488   4.831
 2272TIP3    H2 6823   1.180   5.525   4.945
 2273TIP3   OH2 6824   4.289   3.837   0.312
 2273TIP3    H1 6825   4.217   3.775   0.297
 2273TIP3    H2 6826   4.251   3.906   0.366
 2274TIP3   OH2 6827   2.924   4.197   3.601
 2274TIP3    H1 6828   2.983   4.144   3.548
 2274TIP3    H2 6829   2.970   4.210   3.683
 2275TIP3   OH2 6830   6.208   3.252   1.886
 2275TIP3    H1 6831   6.277   3.263   1.822
 2275TIP3    H2 6832   6.253   3.236   1.969
 2276TIP3   OH2 6833   3.184   0.093   1.155
 2276TIP3    H1 6834   3.197   0.001   1.178
 2276TIP3    H2 6835   3.110   0.092   1.094
 2277TIP3   OH2 6836   4.264   0.296   2.047
 2277TIP3    H1 6837   4.332   0.352   2.010
 2277TIP3    H2 6838   4.304   0.259   2.126
 2278TIP3   OH2 6839   1.869   5.257   2.659
 2278TIP3    H1 6840   1.937   5.219   2.715
 2278TIP3    H2 6841   1.789   5.212   2.685
 2279TIP3   OH2 6842   5.669   2.037   2.250
 2279TIP3    H1 6843   5.653   1.942   2.247
 2279TIP3    H2 6844   5.740   2.051   2.187
 2280TIP3   OH2 6845   0.929   3.808   1.658
 2280TIP3    H1 6846   0.892   3.736   1.708
 2280TIP3    H2 6847   0.973   3.766   1.584
 2281TIP3   OH2 6848   1.530   5.947   0.317
 2281TIP3    H1 6849   1.604   5.887   0.313
 2281TIP3    H2 6850   1.560   6.027   0.276
 2282TIP3   OH2 6851   1.938   1.201   1.260
 2282TIP3    H1 6852   1.951   1.178   1.352
 2282TIP3    H2 6853   1.864   1.147   1.233
 2283TIP3   OH2 6854   1.253   1.280   3.443
 2283TIP3    H1 6855   1.228   1.372   3.436
 2283TIP3    H2 6856   1.198   1.245   3.514
 2284TIP3   OH2 6857   0.783   2.185   3.124
 2284TIP3    H1 6858   0.750   2.166   3.212
 2284TIP3    H2 6859   0.836   2.264   3.135
 2285TIP3   OH2 6860   2.822   1.003   4.844
 2285TIP3    H1 6861   2.837   1.082   4.896
 2285TIP3    H2 6862   2.741   0.967   4.879
 2286TIP3   OH2 6863   1.706   5.110   4.230
 2286TIP3    H1 6864   1.688   5.030   4.278
 2286TIP3    H2 6865   1.772   5.156   4.283
 2287TIP3   OH2 6866   1.437   3.969   0.993
 2287TIP3    H1 6867   1.375   4.042   0.983
 2287TIP3    H2 6868   1.448   3.961   1.088
 2288TIP3   OH2 6869   1.882   2.801   0.006
 2288TIP3    H1 6870   1.875   2.855  -0.073
 2288TIP3    H2 6871   1.793   2.795   0.039
 2289TIP3   OH2 6872   2.084   2.708   3.570
 2289TIP3    H1 6873   2.090   2.790   3.521
 2289TIP3    H2 6874   2.147   2.649   3.527
 2290TIP3   OH2 6875   3.282   1.757   0.573
 2290TIP3    H1 6876   3.191   1.740   0.550
 2290TIP3    H2 6877   3.332   1.698   0.517
 2291TIP3   OH2 6878   0.187   3.489   3.843
 2291TIP3    H1 6879   0.116   3.465   3.783
 2291TIP3    H2 6880   0.175   3.583   3.858
 2292TIP3   OH2 6881   2.393   3.137   1.008
 2292TIP3    H1 6882   2.344   3.219   1.010
 2292TIP3    H2 6883   2.452   3.142   1.084
 2293TIP3   OH2 6884   0.327   3.819   4.742
 2293TIP3    H1 6885   0.259   3.764   4.781
 2293TIP3    H2 6886   0.407   3.795   4.790
 2294TIP3   OH2 6887   0.543   2.590   2.103
 2294TIP3    H1 6888   0.614   2.603   2.041
 2294TIP3    H2 6889   0.582   2.538   2.173
 2295TIP3   OH2 6890   4.541   0.864   5.035
 2295TIP3    H1 6891   4.584   0.780   5.053
 2295TIP3    H2 6892   4.551   0.913   5.117
 2296TIP3   OH2 6893   4.855   2.867   0.348
 2296TIP3    H1 6894   4.884   2.958   0.349
 2296TIP3    H2 6895   4.900   2.828   0.273
 2297TIP3   OH2 6896   4.400   5.165   1.860
 2297TIP3    H1 6897   4.387   5.148   1.953
 2297TIP3    H2 6898   4.312   5.162   1.822
 2298TIP3   OH2 6899   1.462   4.226   3.195
 2298TIP3    H1 6900   1.549   4.266   3.203
 2298TIP3    H2 6901   1.408   4.293   3.154
 2299TIP3   OH2 6902   2.588   4.795   2.244
 2299TIP3    H1 6903   2.587   4.725   2.179
 2299TIP3    H2 6904   2.527   4.765   2.313
 2300TIP3   OH2 6905   3.299   5.810   4.834
 2300TIP3    H1 6906   3.222   5.759   4.809
 2300TIP3    H2 6907   3.334   5.766   4.911
 2301TIP3   OH2 6908   2.067   0.672   3.183
 2301TIP3    H1 6909   2.029   0.592   3.146
 2301TIP3    H2 6910   2.065   0.735   3.111
 2302TIP3   OH2 6911   4.795   2.974   3.608
 2302TIP3    H1 6912   4.874   2.949   3.655
 2302TIP3    H2 6913   4.725   2.926   3.651
 2303TIP3   OH2 6914   2.110   3.266   2.715
 2303TIP3    H1 6915   2.154   3.185   2.741
 2303TIP3    H2 6916   2.173   3.310   2.658
 2304TIP3   OH2 6917   2.854   0.670   2.187
 2304TIP3    H1 6918   2.821   0.598   2.240
 2304TIP3    H2 6919   2.797   0.672   2.110
 2305TIP3   OH2 6920   3.662   2.340   0.322
 2305TIP3    H1 6921   3.597   2.296   0.377
 2305TIP3    H2 6922   3.617   2.417   0.288
 2306TIP3   OH2 6923   1.606   1.427   1.149
 2306TIP3    H1 6924   1.675   1.447   1.213
 2306TIP3    H2 6925   1.559   1.353   1.187
 2307TIP3   OH2 6926   1.833   3.139   2.085
 2307TIP3    H1 6927   1.810   3.057   2.128
 2307TIP3    H2 6928   1.896   3.115   2.017
 2308TIP3   OH2 6929   5.653   5.371   2.879
 2308TIP3    H1 6930   5.680   5.302   2.819
 2308TIP3    H2 6931   5.572   5.405   2.841
 2309TIP3   OH2 6932   2.753   4.347   0.141
 2309TIP3    H1 6933   2.737   4.427   0.191
 2309TIP3    H2 6934   2.813   4.296   0.195
 2310TIP3   OH2 6935   0.342   5.466   0.033
 2310TIP3    H1 6936   0.355   5.421  -0.050
 2310TIP3    H2 6937   0.341   5.559   0.011
 2311TIP3   OH2 6938   0.079   0.451   1.534
 2311TIP3    H1 6939   0.164   0.430   1.496
 2311TIP3    H2 6940   0.049   0.527   1.483
 2312TIP3   OH2 6941   1.019   5.754   0.015
 2312TIP3    H1 6942   1.113   5.745   0.032
 2312TIP3    H2 6943   0.993   5.832   0.066
 2313TIP3   OH2 6944   5.751   1.868   1.458
 2313TIP3    H1 6945   5.718   1.782   1.486
 2313TIP3    H2 6946   5.802   1.850   1.379
 2314TIP3   OH2 6947   6.002   3.285   0.299
 2314TIP3    H1 6948   6.079   3.251   0.254
 2314TIP3    H2 6949   5.961   3.344   0.236
 2315TIP3   OH2 6950   0.119   3.139   4.523
 2315TIP3    H1 6951   0.099   3.232   4.535
 2315TIP3    H2 6952   0.130   3.128   4.428
 2316TIP3   OH2 6953   3.641   4.236   4.674
 2316TIP3    H1 6954   3.625   4.160   4.619
 2316TIP3    H2 6955   3.560   4.287   4.669
 2317TIP3   OH2 6956   0.822   0.445   4.740
 2317TIP3    H1 6957   0.778   0.414   4.819
 2317TIP3    H2 6958   0.773   0.406   4.668
 2318TIP3   OH2 6959   0.006   1.017   1.527
 2318TIP3    H1 6960   0.017   1.086   1.592
 2318TIP3    H2 6961   0.095   0.998   1.497
 2319TIP3   OH2 6962   5.642   0.430   2.546
 2319TIP3    H1 6963   5.674   0.414   2.634
 2319TIP3    H2 6964   5.720   0.430   2.491
 2320TIP3   OH2 6965   4.112   2.445   1.421
 2320TIP3    H1 6966   4.174   2.384   1.382
 2320TIP3    H2 6967   4.154   2.531   1.413
 2321TIP3   OH2 6968   3.848   5.666   2.518
 2321TIP3    H1 6969   3.890   5.580   2.518
 2321TIP3    H2 6970   3.760   5.649   2.485
 2322TIP3   OH2 6971   4.718   3.545   0.619
 2322TIP3    H1 6972   4.773   3.619   0.643
 2322TIP3    H2 6973   4.690   3.508   0.703
 2323TIP3   OH2 6974   4.751   1.316   1.468
 2323TIP3    H1 6975   4.685   1.384   1.453
 2323TIP3    H2 6976   4.834   1.358   1.446
 2324TIP3   OH2 6977   0.062   5.315   0.687
 2324TIP3    H1 6978   0.145   5.275   0.659
 2324TIP3    H2 6979   0.085   5.364   0.766
 2325TIP3   OH2 6980   4.255   2.235   1.988
 2325TIP3    H1 6981   4.248   2.323   1.950
 2325TIP3    H2 6982   4.165   2.201   1.985
 2326TIP3   OH2 6983   4.752   3.800   3.583
 2326TIP3    H1 6984   4.810   3.834   3.515
 2326TIP3    H2 6985   4.715   3.879   3.624
 2327TIP3   OH2 6986   6.225   1.751   4.165
 2327TIP3    H1 6987   6.249   1.843   4.156
 2327TIP3    H2 6988   6.129   1.752   4.163
 2328TIP3   OH2 6989   4.576   1.863   0.125
 2328TIP3    H1 6990   4.508   1.912   0.171
 2328TIP3    H2 6991   4.649   1.924   0.119
 2329TIP3   OH2 6992   2.398   5.563   3.488
 2329TIP3    H1 6993   2.408   5.605   3.573
 2329TIP3    H2 6994   2.481   5.578   3.444
 2330TIP3   OH2 6995   5.433   0.661   2.785
 2330TIP3    H1 6996   5.525   0.639   2.797
 2330TIP3    H2 6997   5.398   0.589   2.732
 2331TIP3   OH2 6998   2.307   0.736   1.255
 2331TIP3    H1 6999   2.381   0.691   1.296
 2331TIP3    H2 7000   2.229   0.695   1.293
 2332TIP3   OH2 7001   5.550   3.340   1.434
 2332TIP3    H1 7002   5.465   3.355   1.391
 2332TIP3    H2 7003   5.546   3.394   1.513
 2333TIP3   OH2 7004   6.045   1.700   3.478
 2333TIP3    H1 7005   6.066   1.662   3.564
 2333TIP3    H2 7006   6.090   1.643   3.415
 2334TIP3   OH2 7007   0.765   0.272   0.236
 2334TIP3    H1 7008   0.780   0.216   0.313
 2334TIP3    H2 7009   0.779   0.214   0.161
 2335TIP3   OH2 7010   0.401   0.185   4.783
 2335TIP3    H1 7011   0.393   0.093   4.809
 2335TIP3    H2 7012   0.345   0.192   4.706
 2336TIP3   OH2 7013   3.311   4.052   1.341
 2336TIP3    H1 7014   3.223   4.079   1.367
 2336TIP3    H2 7015   3.365   4.067   1.418
 2337TIP3   OH2 7016   1.072   0.042   1.234
 2337TIP3    H1 7017   1.158   0.080   1.249
 2337TIP3    H2 7018   1.017   0.078   1.303
 2338TIP3   OH2 7019   6.195   0.260   3.446
 2338TIP3    H1 7020   6.247   0.192   3.488
 2338TIP3    H2 7021   6.105   0.229   3.453
 2339TIP3   OH2 7022   2.620   3.362  -0.005
 2339TIP3    H1 7023   2.595   3.306   0.069
 2339TIP3    H2 7024   2.544   3.417  -0.021
 2340TIP3   OH2 7025   2.301   0.135   3.847
 2340TIP3    H1 7026   2.241   0.072   3.885
 2340TIP3    H2 7027   2.313   0.201   3.914
 2341TIP3   OH2 7028   1.786   5.424   5.152
 2341TIP3    H1 7029   1.760   5.348   5.100
 2341TIP3    H2 7030   1.705   5.472   5.166
 2342TIP3   OH2 7031   3.995   5.787   4.407
 2342TIP3    H1 7032   3.905   5.756   4.394
 2342TIP3    H2 7033   4.046   5.707   4.417
 2343TIP3   OH2 7034   4.856   3.608   3.807
 2343TIP3    H1 7035   4.907   3.653   3.874
 2343TIP3    H2 7036   4.839   3.675   3.740
 2344TIP3   OH2 7037   2.734   4.782   0.083
 2344TIP3    H1 7038   2.713   4.689   0.077
 2344TIP3    H2 7039   2.805   4.794   0.020
 2345TIP3   OH2 7040   1.712   3.313   3.380
 2345TIP3    H1 7041   1.763   3.345   3.306
 2345TIP3    H2 7042   1.760   3.343   3.457
 2346TIP3   OH2 7043   2.716   1.527   4.706
 2346TIP3    H1 7044   2.674   1.542   4.791
 2346TIP3    H2 7045   2.791   1.470   4.726
 2347TIP3   OH2 7046   5.030   2.337   3.397
 2347TIP3    H1 7047   4.976   2.284   3.455
 2347TIP3    H2 7048   4.971   2.404   3.363
 2348TIP3   OH2 7049   3.380   0.142   3.484
 2348TIP3    H1 7050   3.326   0.147   3.405
 2348TIP3    H2 7051   3.359   0.222   3.532
 2349TIP3   OH2 7052   3.639   1.715   2.600
 2349TIP3    H1 7053   3.704   1.647   2.582
 2349TIP3    H2 7054   3.555   1.675   2.576
 2350TIP3   OH2 7055   2.440   1.433   0.506
 2350TIP3    H1 7056   2.501   1.469   0.441
 2350TIP3    H2 7057   2.451   1.490   0.582
 2351TIP3   OH2 7058   0.902   0.533   2.091
 2351TIP3    H1 7059   0.961   0.593   2.045
 2351TIP3    H2 7060   0.836   0.590   2.131
 2352TIP3   OH2 7061   6.119   1.048   4.114
 2352TIP3    H1 7062   6.024   1.050   4.125
 2352TIP3    H2 7063   6.139   0.956   4.096
 2353TIP3   OH2 7064   1.785   4.502   0.626
 2353TIP3    H1 7065   1.764   4.500   0.720
 2353TIP3    H2 7066   1.873   4.465   0.621
 2354TIP3   OH2 7067   1.326   0.899   3.658
 2354TIP3    H1 7068   1.344   0.806   3.658
 2354TIP3    H2 7069   1.235   0.906   3.628
 2355TIP3   OH2 7070   2.521   3.462   5.180
 2355TIP3    H1 7071   2.554   3.468   5.090
 2355TIP3    H2 7072   2.502   3.552   5.205
 2356TIP3   OH2 7073   3.354   4.544   0.072
 2356TIP3    H1 7074   3.260   4.524   0.069
 2356TIP3    H2 7075   3.365   4.615   0.008
 2357TIP3   OH2 7076   3.545   2.483   5.085
 2357TIP3    H1 7077   3.636   2.476   5.113
 2357TIP3    H2 7078   3.517   2.392   5.073
 2358TIP3   OH2 7079   0.559   4.194   4.371
 2358TIP3    H1 7080   0.559   4.269   4.312
 2358TIP3    H2 7081   0.467   4.182   4.395
 2359TIP3   OH2 7082   3.137   2.225   0.483
 2359TIP3    H1 7083   3.073   2.175   0.432
 2359TIP3    H2 7084   3.193   2.158   0.522
 2360TIP3   OH2 7085   3.252   0.864   4.400
 2360TIP3    H1 7086   3.314   0.791   4.399
 2360TIP3    H2 7087   3.301   0.938   4.435
 2361TIP3   OH2 7088   1.493   2.829   0.558
 2361TIP3    H1 7089   1.576   2.785   0.536
 2361TIP3    H2 7090   1.509   2.921   0.539
 2362TIP3   OH2 7091   1.352   4.342   4.798
 2362TIP3    H1 7092   1.294   4.269   4.774
 2362TIP3    H2 7093   1.349   4.401   4.723
 2363TIP3   OH2 7094   0.155   1.828   3.855
 2363TIP3    H1 7095   0.125   1.910   3.893
 2363TIP3    H2 7096   0.118   1.828   3.766
 2364TIP3   OH2 7097   1.965   0.056   2.416
 2364TIP3    H1 7098   1.889   0.088   2.465
 2364TIP3    H2 7099   2.026   0.027   2.483
 2365TIP3   OH2 7100   3.673   2.556   4.833
 2365TIP3    H1 7101   3.630   2.521   4.755
 2365TIP3    H2 7102   3.602   2.567   4.896
 2366TIP3   OH2 7103   3.165   1.424   2.312
 2366TIP3    H1 7104   3.147   1.460   2.400
 2366TIP3    H2 7105   3.168   1.329   2.325
 2367TIP3   OH2 7106   2.650   3.787   3.293
 2367TIP3    H1 7107   2.715   3.806   3.226
 2367TIP3    H2 7108   2.699   3.784   3.375
 2368TIP3   OH2 7109   1.661   4.177   1.101
 2368TIP3    H1 7110   1.648   4.145   1.012
 2368TIP3    H2 7111   1.736   4.126   1.134
 2369TIP3   OH2 7112   5.890   3.434   2.726
 2369TIP3    H1 7113   5.908   3.399   2.639
 2369TIP3    H2 7114   5.958   3.396   2.782
 2370TIP3   OH2 7115   5.675   1.014   0.898
 2370TIP3    H1 7116   5.610   1.082   0.880
 2370TIP3    H2 7117   5.684   0.967   0.814
 2371TIP3   OH2 7118   5.090   1.556   2.138
 2371TIP3    H1 7119   5.040   1.494   2.192
 2371TIP3    H2 7120   5.161   1.504   2.101
 2372TIP3   OH2 7121   4.694   3.441   4.502
 2372TIP3    H1 7122   4.669   3.524   4.462
 2372TIP3    H2 7123   4.622   3.421   4.561
 2373TIP3   OH2 7124   1.186   0.859   2.573
 2373TIP3    H1 7125   1.236   0.786   2.609
 2373TIP3    H2 7126   1.226   0.937   2.611
 2374TIP3   OH2 7127   5.122   4.565   2.559
 2374TIP3    H1 7128   5.212   4.583   2.586
 2374TIP3    H2 7129   5.107   4.475   2.587
 2375TIP3   OH2 7130   5.197   0.423   1.957
 2375TIP3    H1 7131   5.192   0.344   1.903
 2375TIP3    H2 7132   5.244   0.487   1.903
 2376TIP3   OH2 7133   2.989   2.805   0.400
 2376TIP3    H1 7134   2.997   2.894   0.368
 2376TIP3    H2 7135   3.033   2.751   0.333
 2377TIP3   OH2 7136   0.240   4.954   2.104
 2377TIP3    H1 7137   0.248   4.860   2.120
 2377TIP3    H2 7138   0.263   4.964   2.011
 2378TIP3   OH2 7139   3.782   2.028   3.281
 2378TIP3    H1 7140   3.872   2.009   3.257
 2378TIP3    H2 7141   3.745   1.943   3.305
 2379TIP3   OH2 7142   2.940   4.181   0.233
 2379TIP3    H1 7143   3.027   4.204   0.266
 2379TIP3    H2 7144   2.925   4.092   0.266
 2380TIP3   OH2 7145   2.877   0.112   2.530
 2380TIP3    H1 7146   2.804   0.061   2.564
 2380TIP3    H2 7147   2.951   0.088   2.586
 2381TIP3   OH2 7148   3.840   5.669   1.718
 2381TIP3    H1 7149   3.847   5.709   1.804
 2381TIP3    H2 7150   3.926   5.681   1.678
 2382TIP3   OH2 7151   6.030   4.627   3.340
 2382TIP3    H1 7152   5.958   4.662   3.287
 2382TIP3    H2 7153   6.107   4.637   3.285
 2383TIP3   OH2 7154   1.414   5.344   0.946
 2383TIP3    H1 7155   1.345   5.290   0.986
 2383TIP3    H2 7156   1.400   5.431   0.982
 2384TIP3   OH2 7157   0.849   5.906   1.876
 2384TIP3    H1 7158   0.820   5.915   1.785
 2384TIP3    H2 7159   0.838   5.813   1.895
 2385TIP3   OH2 7160   5.064   0.133   2.479
 2385TIP3    H1 7161   5.092   0.051   2.439
 2385TIP3    H2 7162   5.010   0.175   2.412
 2386TIP3   OH2 7163   1.004   0.074   2.143
 2386TIP3    H1 7164   0.960   0.149   2.182
 2386TIP3    H2 7165   1.097   0.091   2.157
 2387TIP3   OH2 7166   3.001   3.948   0.736
 2387TIP3    H1 7167   2.971   3.857   0.737
 2387TIP3    H2 7168   3.095   3.943   0.718
 2388TIP3   OH2 7169   2.100   4.251   0.954
 2388TIP3    H1 7170   2.069   4.276   1.040
 2388TIP3    H2 7171   2.148   4.169   0.968
 2389TIP3   OH2 7172   0.027   4.910   1.242
 2389TIP3    H1 7173   0.097   4.845   1.242
 2389TIP3    H2 7174   0.071   4.992   1.263
 2390TIP3   OH2 7175   1.239   5.358   3.991
 2390TIP3    H1 7176   1.207   5.284   4.043
 2390TIP3    H2 7177   1.322   5.382   4.033
 2391TIP3   OH2 7178   4.388   0.326   5.134
 2391TIP3    H1 7179   4.387   0.406   5.083
 2391TIP3    H2 7180   4.345   0.261   5.078
 2392TIP3   OH2 7181   4.768   1.437   2.421
 2392TIP3    H1 7182   4.746   1.517   2.470
 2392TIP3    H2 7183   4.739   1.455   2.332
 2393TIP3   OH2 7184   0.750   4.240   0.543
 2393TIP3    H1 7185   0.690   4.242   0.469
 2393TIP3    H2 7186   0.744   4.150   0.576
 2394TIP3   OH2 7187   4.992   0.363   2.155
 2394TIP3    H1 7188   5.023   0.425   2.221
 2394TIP3    H2 7189   5.014   0.403   2.071
 2395TIP3   OH2 7190   4.878   4.602   4.909
 2395TIP3    H1 7191   4.940   4.558   4.851
 2395TIP3    H2 7192   4.829   4.531   4.950
 2396TIP3   OH2 7193   1.595   2.260   2.860
 2396TIP3    H1 7194   1.625   2.175   2.826
 2396TIP3    H2 7195   1.650   2.324   2.816
 2397TIP3   OH2 7196   4.508   5.466   4.724
 2397TIP3    H1 7197   4.572   5.439   4.659
 2397TIP3    H2 7198   4.523   5.408   4.798
 2398TIP3   OH2 7199   0.593   1.814   4.235
 2398TIP3    H1 7200   0.675   1.861   4.219
 2398TIP3    H2 7201   0.615   1.722   4.223
 2399TIP3   OH2 7202   2.961   2.164   1.742
 2399TIP3    H1 7203   2.926   2.239   1.790
 2399TIP3    H2 7204   3.056   2.176   1.744
 2400TIP3   OH2 7205   3.730   0.954   2.673
 2400TIP3    H1 7206   3.740   0.891   2.602
 2400TIP3    H2 7207   3.636   0.956   2.691
 2401TIP3   OH2 7208   3.408   4.483   2.107
 2401TIP3    H1 7209   3.417   4.532   2.026
 2401TIP3    H2 7210   3.464   4.407   2.096
 2402TIP3   OH2 7211   0.772   4.521   0.126
 2402TIP3    H1 7212   0.717   4.450   0.091
 2402TIP3    H2 7213   0.823   4.480   0.196
 2403TIP3   OH2 7214   1.717   4.585   5.112
 2403TIP3    H1 7215   1.747   4.541   5.192
 2403TIP3    H2 7216   1.622   4.575   5.113
 2404TIP3   OH2 7217   4.014   0.076   4.669
 2404TIP3    H1 7218   4.001   0.167   4.696
 2404TIP3    H2 7219   4.094   0.077   4.617
 2405TIP3   OH2 7220   6.112   0.500   4.358
 2405TIP3    H1 7221   6.193   0.552   4.357
 2405TIP3    H2 7222   6.063   0.531   4.282
 2406TIP3   OH2 7223   2.707   5.057   1.833
 2406TIP3    H1 7224   2.718   4.968   1.869
 2406TIP3    H2 7225   2.782   5.068   1.775
 2407TIP3   OH2 7226   3.065   0.379   3.012
 2407TIP3    H1 7227   3.013   0.341   3.083
 2407TIP3    H2 7228   3.075   0.471   3.037
 2408TIP3   OH2 7229   5.830   4.012   2.017
 2408TIP3    H1 7230   5.759   4.010   2.081
 2408TIP3    H2 7231   5.900   3.959   2.056
 2409TIP3   OH2 7232   5.642   0.108   0.889
 2409TIP3    H1 7233   5.724   0.150   0.912
 2409TIP3    H2 7234   5.653   0.083   0.797
 2410TIP3   OH2 7235   4.198   0.746   0.306
 2410TIP3    H1 7236   4.196   0.783   0.218
 2410TIP3    H2 7237   4.179   0.653   0.294
 2411TIP3   OH2 7238   0.245   1.653   4.056
 2411TIP3    H1 7239   0.326   1.648   4.005
 2411TIP3    H2 7240   0.193   1.720   4.012
 2412TIP3   OH2 7241   0.846   0.127   3.204
 2412TIP3    H1 7242   0.851   0.223   3.206
 2412TIP3    H2 7243   0.789   0.107   3.129
 2413TIP3   OH2 7244   5.996   4.313   4.092
 2413TIP3    H1 7245   5.995   4.220   4.068
 2413TIP3    H2 7246   5.981   4.313   4.186
 2414TIP3   OH2 7247   1.945   4.447   1.405
 2414TIP3    H1 7248   1.967   4.540   1.414
 2414TIP3    H2 7249   1.852   4.447   1.384
 2415TIP3   OH2 7250   1.471   2.287   0.437
 2415TIP3    H1 7251   1.499   2.195   0.439
 2415TIP3    H2 7252   1.539   2.333   0.486
 2416TIP3   OH2 7253   0.199   1.086   2.010
 2416TIP3    H1 7254   0.169   0.998   1.987
 2416TIP3    H2 7255   0.196   1.088   2.105
 2417TIP3   OH2 7256   0.146   4.452   5.162
 2417TIP3    H1 7257   0.187   4.538   5.170
 2417TIP3    H2 7258   0.205   4.403   5.106
 2418TIP3   OH2 7259   3.069   2.362   0.166
 2418TIP3    H1 7260   3.010   2.437   0.161
 2418TIP3    H2 7261   3.117   2.374   0.247
 2419TIP3   OH2 7262   2.670   3.250   2.301
 2419TIP3    H1 7263   2.617   3.213   2.372
 2419TIP3    H2 7264   2.608   3.262   2.229
 2420TIP3   OH2 7265   4.603   3.513   3.851
 2420TIP3    H1 7266   4.690   3.553   3.846
 2420TIP3    H2 7267   4.565   3.526   3.764
 2421TIP3   OH2 7268   2.985   0.945   3.295
 2421TIP3    H1 7269   2.961   0.922   3.206
 2421TIP3    H2 7270   2.996   1.040   3.294
 2422TIP3   OH2 7271   4.424   1.676   5.113
 2422TIP3    H1 7272   4.367   1.599   5.101
 2422TIP3    H2 7273   4.378   1.746   5.067
 2423TIP3   OH2 7274   6.351   2.222   0.981
 2423TIP3    H1 7275   6.349   2.169   1.061
 2423TIP3    H2 7276   6.265   2.208   0.941
 2424TIP3   OH2 7277   0.442   3.202   0.936
 2424TIP3    H1 7278   0.371   3.190   0.872
 2424TIP3    H2 7279   0.410   3.158   1.015
 2425TIP3   OH2 7280   5.350   2.956   0.564
 2425TIP3    H1 7281   5.270   2.905   0.577
 2425TIP3    H2 7282   5.326   3.045   0.591
 2426TIP3   OH2 7283   2.041   1.018   0.932
 2426TIP3    H1 7284   1.996   1.096   0.901
 2426TIP3    H2 7285   1.982   0.981   0.998
 2427TIP3   OH2 7286   3.056   2.708   4.187
 2427TIP3    H1 7287   3.076   2.700   4.094
 2427TIP3    H2 7288   3.024   2.621   4.212
 2428TIP3   OH2 7289   3.533   3.887   1.466
 2428TIP3    H1 7290   3.582   3.910   1.545
 2428TIP3    H2 7291   3.544   3.962   1.408
 2429TIP3   OH2 7292   1.142   5.497   3.658
 2429TIP3    H1 7293   1.190   5.577   3.682
 2429TIP3    H2 7294   1.198   5.426   3.687
 2430TIP3   OH2 7295   0.084   2.866   4.258
 2430TIP3    H1 7296   0.092   2.846   4.352
 2430TIP3    H2 7297   0.132   2.948   4.247
 2431TIP3   OH2 7298   5.538   0.430   3.931
 2431TIP3    H1 7299   5.476   0.502   3.940
 2431TIP3    H2 7300   5.563   0.408   4.021
 2432TIP3   OH2 7301   0.647   1.246   4.651
 2432TIP3    H1 7302   0.593   1.299   4.591
 2432TIP3    H2 7303   0.720   1.302   4.674
 2433TIP3   OH2 7304   5.496   3.805   2.012
 2433TIP3    H1 7305   5.473   3.757   1.932
 2433TIP3    H2 7306   5.523   3.737   2.074
 2434TIP3   OH2 7307   0.567   3.009   2.086
 2434TIP3    H1 7308   0.607   2.984   2.003
 2434TIP3    H2 7309   0.479   2.971   2.083
 2435TIP3   OH2 7310   1.346   5.552   3.371
 2435TIP3    H1 7311   1.441   5.564   3.359
 2435TIP3    H2 7312   1.319   5.630   3.419
 2436TIP3   OH2 7313   2.942   2.623   4.595
 2436TIP3    H1 7314   2.968   2.565   4.667
 2436TIP3    H2 7315   2.910   2.702   4.640
 2437TIP3   OH2 7316   2.554   4.974   4.444
 2437TIP3    H1 7317   2.502   4.919   4.384
 2437TIP3    H2 7318   2.503   4.974   4.525
 2438TIP3   OH2 7319   5.192   0.779   2.722
 2438TIP3    H1 7320   5.199   0.794   2.816
 2438TIP3    H2 7321   5.279   0.746   2.697
 2439TIP3   OH2 7322   1.314   0.514   2.326
 2439TIP3    H1 7323   1.403   0.547   2.321
 2439TIP3    H2 7324   1.323   0.420   2.313
 2440TIP3   OH2 7325   0.287   4.342   1.155
 2440TIP3    H1 7326   0.353   4.410   1.165
 2440TIP3    H2 7327   0.215   4.385   1.109
 2441TIP3   OH2 7328   1.126   3.056   3.348
 2441TIP3    H1 7329   1.217   3.049   3.318
 2441TIP3    H2 7330   1.090   3.129   3.298
 2442TIP3   OH2 7331   2.359   2.023   0.235
 2442TIP3    H1 7332   2.303   1.985   0.303
 2442TIP3    H2 7333   2.447   1.992   0.256
 2443TIP3   OH2 7334   2.991   3.698   2.296
 2443TIP3    H1 7335   2.936   3.619   2.301
 2443TIP3    H2 7336   2.954   3.757   2.362
 2444TIP3   OH2 7337   0.079   1.743   2.991
 2444TIP3    H1 7338  -0.006   1.773   3.023
 2444TIP3    H2 7339   0.126   1.716   3.070
 2445TIP3   OH2 7340   1.387   2.381   1.653
 2445TIP3    H1 7341   1.411   2.474   1.649
 2445TIP3    H2 7342   1.460   2.340   1.699
 2446TIP3   OH2 7343   0.054   0.515   2.808
 2446TIP3    H1 7344   0.032   0.572   2.881
 2446TIP3    H2 7345   0.064   0.428   2.847
 2447TIP3   OH2 7346   2.703   1.504   2.167
 2447TIP3    H1 7347   2.683   1.410   2.161
 2447TIP3    H2 7348   2.740   1.515   2.254
 2448TIP3   OH2 7349   6.252   5.073   0.886
 2448TIP3    H1 7350   6.324   5.069   0.823
 2448TIP3    H2 7351   6.194   5.002   0.861
 2449TIP3   OH2 7352   0.573   5.226   4.009
 2449TIP3    H1 7353   0.633   5.300   4.004
 2449TIP3    H2 7354   0.496   5.261   4.054
 2450TIP3   OH2 7355   2.353   5.032   1.286
 2450TIP3    H1 7356   2.387   5.109   1.332
 2450TIP3    H2 7357   2.397   5.034   1.201
 2451TIP3   OH2 7358   3.715   4.235   0.307
 2451TIP3    H1 7359   3.625   4.260   0.288
 2451TIP3    H2 7360   3.767   4.312   0.283
 2452TIP3   OH2 7361   2.411   3.707   4.013
 2452TIP3    H1 7362   2.343   3.725   4.077
 2452TIP3    H2 7363   2.479   3.772   4.033
 2453TIP3   OH2 7364   6.314   4.047   1.877
 2453TIP3    H1 7365   6.295   3.959   1.845
 2453TIP3    H2 7366   6.248   4.063   1.944
 2454TIP3   OH2 7367   6.207   3.516   4.853
 2454TIP3    H1 7368   6.161   3.436   4.877
 2454TIP3    H2 7369   6.299   3.496   4.868
 2455TIP3   OH2 7370   5.547   4.991   0.593
 2455TIP3    H1 7371   5.452   4.994   0.585
 2455TIP3    H2 7372   5.575   5.082   0.591
 2456TIP3   OH2 7373   4.050   1.797   0.462
 2456TIP3    H1 7374   4.097   1.828   0.385
 2456TIP3    H2 7375   3.992   1.728   0.429
 2457TIP3   OH2 7376   4.895   3.704   0.724
 2457TIP3    H1 7377   4.914   3.792   0.691
 2457TIP3    H2 7378   4.915   3.709   0.818
 2458TIP3   OH2 7379   0.575   4.949   2.455
 2458TIP3    H1 7380   0.593   5.038   2.486
 2458TIP3    H2 7381   0.480   4.939   2.466
 2459TIP3   OH2 7382   4.930   3.089   2.157
 2459TIP3    H1 7383   5.024   3.105   2.147
 2459TIP3    H2 7384   4.911   3.112   2.248
 2460TIP3   OH2 7385   3.627   4.701   1.086
 2460TIP3    H1 7386   3.554   4.737   1.137
 2460TIP3    H2 7387   3.612   4.733   0.997
 2461TIP3   OH2 7388   0.783   2.754   4.284
 2461TIP3    H1 7389   0.827   2.820   4.231
 2461TIP3    H2 7390   0.690   2.765   4.265
 2462TIP3   OH2 7391   0.002   2.453   4.307
 2462TIP3    H1 7392   0.045   2.419   4.228
 2462TIP3    H2 7393   0.032   2.396   4.377
 2463TIP3   OH2 7394   3.768   4.057   0.516
 2463TIP3    H1 7395   3.761   4.121   0.446
 2463TIP3    H2 7396   3.693   4.076   0.573
 2464TIP3   OH2 7397   4.844   4.558   1.197
 2464TIP3    H1 7398   4.782   4.629   1.215
 2464TIP3    H2 7399   4.908   4.596   1.137
 2465TIP3   OH2 7400   2.183   0.545   4.786
 2465TIP3    H1 7401   2.146   0.620   4.833
 2465TIP3    H2 7402   2.126   0.472   4.809
 2466TIP3   OH2 7403   0.324   4.697   4.662
 2466TIP3    H1 7404   0.236   4.659   4.663
 2466TIP3    H2 7405   0.318   4.769   4.598
 2467TIP3   OH2 7406   2.558   3.825   2.210
 2467TIP3    H1 7407   2.585   3.785   2.127
 2467TIP3    H2 7408   2.626   3.890   2.229
 2468TIP3   OH2 7409   0.022   2.692   3.845
 2468TIP3    H1 7410  -0.042   2.755   3.878
 2468TIP3    H2 7411   0.048   2.727   3.760
 2469TIP3   OH2 7412   3.307   2.441   2.081
 2469TIP3    H1 7413   3.287   2.484   1.998
 2469TIP3    H2 7414   3.314   2.513   2.144
 2470TIP3   OH2 7415   1.758   0.729   1.827
 2470TIP3    H1 7416   1.776   0.779   1.907
 2470TIP3    H2 7417   1.719   0.647   1.859
 2471TIP3   OH2 7418   0.282   0.472   2.550
 2471TIP3    H1 7419   0.225   0.542   2.519
 2471TIP3    H2 7420   0.366   0.515   2.568
 2472TIP3   OH2 7421   1.291   0.698   1.967
 2472TIP3    H1 7422   1.247   0.782   1.954
 2472TIP3    H2 7423   1.377   0.710   1.929
 2473TIP3   OH2 7424   3.340   1.497   3.330
 2473TIP3    H1 7425   3.373   1.555   3.261
 2473TIP3    H2 7426   3.323   1.556   3.404
 2474TIP3   OH2 7427   4.358   5.124   3.392
 2474TIP3    H1 7428   4.375   5.031   3.385
 2474TIP3    H2 7429   4.429   5.158   3.447
 2475TIP3   OH2 7430   5.634   3.316   4.957
 2475TIP3    H1 7431   5.723   3.343   4.981
 2475TIP3    H2 7432   5.587   3.311   5.041
 2476TIP3   OH2 7433   0.538   4.929   1.685
 2476TIP3    H1 7434   0.549   4.837   1.706
 2476TIP3    H2 7435   0.598   4.975   1.745
 2477TIP3   OH2 7436   0.596   4.959   4.553
 2477TIP3    H1 7437   0.637   4.956   4.467
 2477TIP3    H2 7438   0.643   5.027   4.600
 2478TIP3   OH2 7439   1.647   2.702   4.784
 2478TIP3    H1 7440   1.659   2.607   4.781
 2478TIP3    H2 7441   1.555   2.714   4.807
 2479TIP3   OH2 7442   4.867   0.731   0.157
 2479TIP3    H1 7443   4.831   0.744   0.244
 2479TIP3    H2 7444   4.876   0.636   0.148
 2480TIP3   OH2 7445   1.656   1.490   0.882
 2480TIP3    H1 7446   1.643   1.402   0.846
 2480TIP3    H2 7447   1.633   1.481   0.974
 2481TIP3   OH2 7448   1.967   0.264   4.491
 2481TIP3    H1 7449   2.015   0.270   4.574
 2481TIP3    H2 7450   1.902   0.195   4.505
 2482TIP3   OH2 7451   3.029   3.609   3.694
 2482TIP3    H1 7452   3.004   3.546   3.761
 2482TIP3    H2 7453   3.061   3.685   3.742
 2483TIP3   OH2 7454   5.101   5.894   4.515
 2483TIP3    H1 7455   5.052   5.965   4.558
 2483TIP3    H2 7456   5.119   5.927   4.427
 2484TIP3   OH2 7457   2.552   4.789   2.786
 2484TIP3    H1 7458   2.551   4.779   2.881
 2484TIP3    H2 7459   2.630   4.843   2.768
 2485TIP3   OH2 7460   0.198   1.397   3.869
 2485TIP3    H1 7461   0.163   1.369   3.953
 2485TIP3    H2 7462   0.121   1.417   3.816
 2486TIP3   OH2 7463   2.440   1.902   4.938
 2486TIP3    H1 7464   2.413   1.974   4.881
 2486TIP3    H2 7465   2.529   1.881   4.910
 2487TIP3   OH2 7466   0.477   3.145   2.316
 2487TIP3    H1 7467   0.412   3.082   2.348
 2487TIP3    H2 7468   0.507   3.108   2.233
 2488TIP3   OH2 7469   5.040   5.319   3.711
 2488TIP3    H1 7470   4.994   5.402   3.725
 2488TIP3    H2 7471   5.122   5.344   3.667
 2489TIP3   OH2 7472   6.373   0.069   4.988
 2489TIP3    H1 7473   6.324  -0.013   4.979
 2489TIP3    H2 7474   6.334   0.127   4.923
 2490TIP3   OH2 7475   3.456   1.818   4.230
 2490TIP3    H1 7476   3.524   1.802   4.296
 2490TIP3    H2 7477   3.449   1.913   4.226
 2491TIP3   OH2 7478   6.315   0.296   3.911
 2491TIP3    H1 7479   6.268   0.378   3.895
 2491TIP3    H2 7480   6.343   0.302   4.003
 2492TIP3   OH2 7481   5.874   0.167   3.395
 2492TIP3    H1 7482   5.886   0.188   3.488
 2492TIP3    H2 7483   5.781   0.148   3.387
 2493TIP3   OH2 7484   5.499   2.504   2.966
 2493TIP3    H1 7485   5.439   2.564   3.009
 2493TIP3    H2 7486   5.445   2.455   2.904
 2494TIP3   OH2 7487   0.378   0.119   1.791
 2494TIP3    H1 7488   0.464   0.081   1.772
 2494TIP3    H2 7489   0.385   0.151   1.881
 2495TIP3   OH2 7490   4.539   2.565   1.538
 2495TIP3    H1 7491   4.556   2.638   1.598
 2495TIP3    H2 7492   4.468   2.516   1.580
 2496TIP3   OH2 7493   5.612   1.386   0.059
 2496TIP3    H1 7494   5.581   1.451   0.122
 2496TIP3    H2 7495   5.587   1.302   0.096
 2497TIP3   OH2 7496   5.517   4.622   0.546
 2497TIP3    H1 7497   5.501   4.618   0.640
 2497TIP3    H2 7498   5.610   4.641   0.538
 2498TIP3   OH2 7499   2.317   3.910   1.314
 2498TIP3    H1 7500   2.261   3.964   1.369
 2498TIP3    H2 7501   2.286   3.927   1.225
 2499TIP3   OH2 7502   4.987   2.015   3.403
 2499TIP3    H1 7503   5.080   1.994   3.403
 2499TIP3    H2 7504   4.962   2.016   3.311
 2500TIP3   OH2 7505   1.587   3.170   0.499
 2500TIP3    H1 7506   1.643   3.244   0.477
 2500TIP3    H2 7507   1.510   3.210   0.541
 2501TIP3   OH2 7508   5.715   3.768   0.100
 2501TIP3    H1 7509   5.680   3.839   0.155
 2501TIP3    H2 7510   5.720   3.806   0.012
 2502TIP3   OH2 7511   4.370   2.574   4.450
 2502TIP3    H1 7512   4.452   2.530   4.474
 2502TIP3    H2 7513   4.301   2.518   4.487
 2503TIP3   OH2 7514   0.074   0.649   3.384
 2503TIP3    H1 7515   0.027   0.575   3.423
 2503TIP3    H2 7516   0.004   0.707   3.354
 2504TIP3   OH2 7517   0.036   2.091   0.513
 2504TIP3    H1 7518   0.073   2.068   0.598
 2504TIP3    H2 7519  -0.048   2.132   0.534
 2505TIP3   OH2 7520   2.051   5.208   1.665
 2505TIP3    H1 7521   2.072   5.272   1.597
 2505TIP3    H2 7522   2.095   5.128   1.637
 2506TIP3   OH2 7523   1.588   4.230   3.880
 2506TIP3    H1 7524   1.598   4.141   3.913
 2506TIP3    H2 7525   1.621   4.226   3.790
 2507TIP3   OH2 7526   2.029   3.342   4.813
 2507TIP3    H1 7527   2.064   3.318   4.727
 2507TIP3    H2 7528   2.106   3.344   4.870
 2508TIP3   OH2 7529   2.764   5.444   4.656
 2508TIP3    H1 7530   2.805   5.492   4.728
 2508TIP3    H2 7531   2.786   5.352   4.673
 2509TIP3   OH2 7532   1.745   0.258   1.225
 2509TIP3    H1 7533   1.775   0.298   1.306
 2509TIP3    H2 7534   1.649   0.255   1.234
 2510TIP3   OH2 7535   4.464   2.855   4.929
 2510TIP3    H1 7536   4.430   2.778   4.883
 2510TIP3    H2 7537   4.400   2.924   4.910
 2511TIP3   OH2 7538   3.583   1.972   0.635
 2511TIP3    H1 7539   3.511   2.027   0.605
 2511TIP3    H2 7540   3.640   1.964   0.559
 2512TIP3   OH2 7541   2.441   5.511   0.480
 2512TIP3    H1 7542   2.448   5.463   0.562
 2512TIP3    H2 7543   2.354   5.550   0.482
 2513TIP3   OH2 7544   5.519   0.842   4.961
 2513TIP3    H1 7545   5.445   0.785   4.980
 2513TIP3    H2 7546   5.588   0.812   5.019
 2514TIP3   OH2 7547   0.060   3.514   3.089
 2514TIP3    H1 7548   0.140   3.508   3.140
 2514TIP3    H2 7549   0.045   3.425   3.056
 2515TIP3   OH2 7550   5.890   1.654   1.580
 2515TIP3    H1 7551   5.927   1.610   1.657
 2515TIP3    H2 7552   5.908   1.747   1.595
 2516TIP3   OH2 7553   2.943   2.062   3.537
 2516TIP3    H1 7554   2.868   2.031   3.484
 2516TIP3    H2 7555   3.019   2.045   3.481
 2517TIP3   OH2 7556   3.138   5.291   4.229
 2517TIP3    H1 7557   3.183   5.208   4.243
 2517TIP3    H2 7558   3.073   5.273   4.161
 2518TIP3   OH2 7559   5.776   4.289   0.919
 2518TIP3    H1 7560   5.682   4.278   0.905
 2518TIP3    H2 7561   5.793   4.250   1.004
 2519TIP3   OH2 7562   4.531   5.203   0.353
 2519TIP3    H1 7563   4.515   5.177   0.444
 2519TIP3    H2 7564   4.604   5.265   0.359
 2520TIP3   OH2 7565   0.588   4.402   4.184
 2520TIP3    H1 7566   0.547   4.376   4.101
 2520TIP3    H2 7567   0.564   4.495   4.193
 2521TIP3   OH2 7568   0.630   2.410   1.118
 2521TIP3    H1 7569   0.590   2.359   1.189
 2521TIP3    H2 7570   0.579   2.386   1.041
 2522TIP3   OH2 7571   1.333   0.481   3.382
 2522TIP3    H1 7572   1.405   0.419   3.390
 2522TIP3    H2 7573   1.274   0.441   3.318
 2523TIP3   OH2 7574   4.384   1.593   4.836
 2523TIP3    H1 7575   4.427   1.652   4.774
 2523TIP3    H2 7576   4.455   1.538   4.870
 2524TIP3   OH2 7577   3.854   4.345   0.618
 2524TIP3    H1 7578   3.886   4.423   0.573
 2524TIP3    H2 7579   3.870   4.273   0.557
 2525TIP3   OH2 7580   5.047   5.107   2.109
 2525TIP3    H1 7581   5.038   5.053   2.187
 2525TIP3    H2 7582   5.046   5.197   2.142
 2526TIP3   OH2 7583   4.403   5.120   2.792
 2526TIP3    H1 7584   4.316   5.160   2.789
 2526TIP3    H2 7585   4.408   5.069   2.711
 2527TIP3   OH2 7586   3.963   4.893   1.274
 2527TIP3    H1 7587   3.917   4.977   1.282
 2527TIP3    H2 7588   3.949   4.850   1.358
 2528TIP3   OH2 7589   5.909   4.169   5.014
 2528TIP3    H1 7590   5.817   4.156   4.992
 2528TIP3    H2 7591   5.921   4.119   5.095
 2529TIP3   OH2 7592   6.139   2.170   4.441
 2529TIP3    H1 7593   6.200   2.097   4.436
 2529TIP3    H2 7594   6.174   2.226   4.511
 2530TIP3   OH2 7595   5.865   0.158   0.486
 2530TIP3    H1 7596   5.869   0.211   0.566
 2530TIP3    H2 7597   5.916   0.206   0.422
 2531TIP3   OH2 7598   4.846   2.862   5.046
 2531TIP3    H1 7599   4.938   2.842   5.031
 2531TIP3    H2 7600   4.811   2.880   4.959
 2532TIP3   OH2 7601   4.096   3.381   2.309
 2532TIP3    H1 7602   4.053   3.436   2.374
 2532TIP3    H2 7603   4.179   3.425   2.292
 2533TIP3   OH2 7604   4.956   3.273   2.941
 2533TIP3    H1 7605   4.944   3.229   3.025
 2533TIP3    H2 7606   5.048   3.258   2.920
 2534TIP3   OH2 7607   5.959   4.283   4.383
 2534TIP3    H1 7608   5.869   4.316   4.385
 2534TIP3    H2 7609   6.006   4.340   4.443
 2535TIP3   OH2 7610   2.928   5.983   0.983
 2535TIP3    H1 7611   2.999   5.920   0.997
 2535TIP3    H2 7612   2.887   5.992   1.069
 2536TIP3   OH2 7613   4.305   4.790   1.452
 2536TIP3    H1 7614   4.358   4.719   1.490
 2536TIP3    H2 7615   4.246   4.816   1.523
 2537TIP3   OH2 7616   2.690   5.575   0.148
 2537TIP3    H1 7617   2.637   5.621   0.213
 2537TIP3    H2 7618   2.770   5.626   0.141
 2538TIP3   OH2 7619   2.596   2.376   0.496
 2538TIP3    H1 7620   2.641   2.461   0.493
 2538TIP3    H2 7621   2.503   2.399   0.492
 2539TIP3   OH2 7622   3.986   2.023   2.405
 2539TIP3    H1 7623   3.961   2.008   2.314
 2539TIP3    H2 7624   4.082   2.019   2.404
 2540TIP3   OH2 7625   0.150   5.253   2.943
 2540TIP3    H1 7626   0.200   5.211   3.013
 2540TIP3    H2 7627   0.209   5.320   2.909
 2541TIP3   OH2 7628   4.051   2.393   1.681
 2541TIP3    H1 7629   4.043   2.297   1.685
 2541TIP3    H2 7630   4.050   2.413   1.587
 2542TIP3   OH2 7631   0.983   0.543   1.351
 2542TIP3    H1 7632   0.909   0.500   1.396
 2542TIP3    H2 7633   0.943   0.586   1.276
 2543TIP3   OH2 7634   5.986   1.178   1.596
 2543TIP3    H1 7635   6.064   1.223   1.628
 2543TIP3    H2 7636   6.014   1.138   1.513
 2544TIP3   OH2 7637   4.758   0.294   2.544
 2544TIP3    H1 7638   4.782   0.373   2.593
 2544TIP3    H2 7639   4.673   0.268   2.580
 2545TIP3   OH2 7640   6.374   1.897   3.621
 2545TIP3    H1 7641   6.357   1.963   3.553
 2545TIP3    H2 7642   6.287   1.875   3.655
 2546TIP3   OH2 7643   3.175   5.571   4.316
 2546TIP3    H1 7644   3.258   5.537   4.347
 2546TIP3    H2 7645   3.173   5.662   4.347
 2547TIP3   OH2 7646   3.381   5.729   5.076
 2547TIP3    H1 7647   3.383   5.821   5.101
 2547TIP3    H2 7648   3.462   5.692   5.113
 2548TIP3   OH2 7649   3.446   3.732   1.959
 2548TIP3    H1 7650   3.387   3.742   2.034
 2548TIP3    H2 7651   3.408   3.787   1.891
 2549TIP3   OH2 7652   2.543   2.545   3.429
 2549TIP3    H1 7653   2.535   2.463   3.476
 2549TIP3    H2 7654   2.637   2.558   3.419
 2550TIP3   OH2 7655   4.842   5.252   3.464
 2550TIP3    H1 7656   4.828   5.337   3.421
 2550TIP3    H2 7657   4.896   5.203   3.403
 2551TIP3   OH2 7658   5.854   3.939   1.266
 2551TIP3    H1 7659   5.796   3.946   1.342
 2551TIP3    H2 7660   5.909   3.863   1.285
 2552TIP3   OH2 7661   1.207   4.268   3.372
 2552TIP3    H1 7662   1.238   4.213   3.444
 2552TIP3    H2 7663   1.283   4.276   3.314
 2553TIP3   OH2 7664   2.733   0.755   4.305
 2553TIP3    H1 7665   2.722   0.764   4.211
 2553TIP3    H2 7666   2.810   0.809   4.326
 2554TIP3   OH2 7667   2.927   0.431   0.592
 2554TIP3    H1 7668   2.943   0.337   0.598
 2554TIP3    H2 7669   2.981   0.469   0.662
 2555TIP3   OH2 7670   2.455   5.880   4.162
 2555TIP3    H1 7671   2.399   5.934   4.218
 2555TIP3    H2 7672   2.417   5.888   4.075
 2556TIP3   OH2 7673   0.855   0.150   1.036
 2556TIP3    H1 7674   0.891   0.091   1.103
 2556TIP3    H2 7675   0.771   0.178   1.072
 2557TIP3   OH2 7676   2.560   1.280   5.095
 2557TIP3    H1 7677   2.544   1.333   5.172
 2557TIP3    H2 7678   2.565   1.190   5.128
 2558TIP3   OH2 7679   3.229   2.904   2.158
 2558TIP3    H1 7680   3.273   2.871   2.236
 2558TIP3    H2 7681   3.138   2.919   2.187
 2559TIP3   OH2 7682   5.980   0.718   4.640
 2559TIP3    H1 7683   6.034   0.653   4.595
 2559TIP3    H2 7684   6.016   0.803   4.612
 2560TIP3   OH2 7685   5.469   2.142   1.509
 2560TIP3    H1 7686   5.478   2.233   1.481
 2560TIP3    H2 7687   5.430   2.148   1.596
 2561TIP3   OH2 7688   5.100   5.872   2.289
 2561TIP3    H1 7689   5.180   5.921   2.275
 2561TIP3    H2 7690   5.065   5.857   2.201
 2562TIP3   OH2 7691   1.476   1.709   4.179
 2562TIP3    H1 7692   1.388   1.681   4.154
 2562TIP3    H2 7693   1.531   1.683   4.106
 2563TIP3   OH2 7694   5.981   3.723   0.619
 2563TIP3    H1 7695   5.908   3.753   0.674
 2563TIP3    H2 7696   5.962   3.758   0.532
 2564TIP3   OH2 7697   1.299   1.878   0.891
 2564TIP3    H1 7698   1.261   1.791   0.886
 2564TIP3    H2 7699   1.388   1.868   0.858
 2565TIP3   OH2 7700   2.267   2.040   0.960
 2565TIP3    H1 7701   2.295   1.951   0.982
 2565TIP3    H2 7702   2.347   2.092   0.965
 2566TIP3   OH2 7703   5.875   1.156   1.324
 2566TIP3    H1 7704   5.899   1.247   1.340
 2566TIP3    H2 7705   5.811   1.160   1.253
 2567TIP3   OH2 7706   5.077   2.073   2.423
 2567TIP3    H1 7707   5.082   1.980   2.445
 2567TIP3    H2 7708   4.997   2.080   2.370
 2568TIP3   OH2 7709   3.048   1.068   2.519
 2568TIP3    H1 7710   2.974   1.126   2.503
 2568TIP3    H2 7711   3.073   1.085   2.610
 2569TIP3   OH2 7712   5.843   5.711   3.954
 2569TIP3    H1 7713   5.749   5.726   3.966
 2569TIP3    H2 7714   5.851   5.684   3.863
 2570TIP3   OH2 7715   4.972   3.951   4.683
 2570TIP3    H1 7716   4.974   3.910   4.596
 2570TIP3    H2 7717   4.888   3.924   4.720
 2571TIP3   OH2 7718   4.630   4.123   1.650
 2571TIP3    H1 7719   4.553   4.153   1.601
 2571TIP3    H2 7720   4.672   4.061   1.590
 2572TIP3   OH2 7721   1.760   4.880   3.431
 2572TIP3    H1 7722   1.760   4.976   3.421
 2572TIP3    H2 7723   1.712   4.848   3.355
 2573TIP3   OH2 7724   3.351   0.411  -0.001
 2573TIP3    H1 7725   3.435   0.400   0.043
 2573TIP3    H2 7726   3.317   0.494   0.033
 2574TIP3   OH2 7727   2.024   3.441   1.274
 2574TIP3    H1 7728   1.995   3.525   1.311
 2574TIP3    H2 7729   1.954   3.416   1.214
 2575TIP3   OH2 7730   4.611   4.954   2.359
 2575TIP3    H1 7731   4.539   4.951   2.296
 2575TIP3    H2 7732   4.667   4.880   2.334
 2576TIP3   OH2 7733   2.631   0.483   4.168
 2576TIP3    H1 7734   2.564   0.551   4.183
 2576TIP3    H2 7735   2.684   0.484   4.248
 2577TIP3   OH2 7736   1.315   2.881   2.472
 2577TIP3    H1 7737   1.318   2.923   2.557
 2577TIP3    H2 7738   1.396   2.908   2.428
 2578TIP3   OH2 7739   5.533   4.078   1.252
 2578TIP3    H1 7740   5.546   4.014   1.322
 2578TIP3    H2 7741   5.527   4.162   1.297
 2579TIP3   OH2 7742   4.062   1.059   2.873
 2579TIP3    H1 7743   4.073   1.135   2.815
 2579TIP3    H2 7744   4.043   0.986   2.813
 2580TIP3   OH2 7745   6.115   3.195   4.609
 2580TIP3    H1 7746   6.142   3.139   4.682
 2580TIP3    H2 7747   6.031   3.232   4.637
 2581TIP3   OH2 7748   0.261   5.804   2.059
 2581TIP3    H1 7749   0.193   5.783   1.995
 2581TIP3    H2 7750   0.246   5.896   2.082
 2582TIP3   OH2 7751   3.142   3.126   5.023
 2582TIP3    H1 7752   3.132   3.040   4.982
 2582TIP3    H2 7753   3.198   3.174   4.962
 2583TIP3   OH2 7754   5.024   0.977   0.431
 2583TIP3    H1 7755   4.940   0.999   0.391
 2583TIP3    H2 7756   5.011   0.989   0.525
 2584TIP3   OH2 7757   1.110   5.264   4.445
 2584TIP3    H1 7758   1.182   5.243   4.505
 2584TIP3    H2 7759   1.035   5.279   4.503
 2585TIP3   OH2 7760   0.677   1.541   4.790
 2585TIP3    H1 7761   0.748   1.580   4.740
 2585TIP3    H2 7762   0.697   1.563   4.881
 2586TIP3   OH2 7763   5.953   4.414   1.178
 2586TIP3    H1 7764   5.913   4.476   1.238
 2586TIP3    H2 7765   5.899   4.335   1.185
 2587TIP3   OH2 7766   6.004   0.218   3.666
 2587TIP3    H1 7767   6.031   0.232   3.757
 2587TIP3    H2 7768   5.927   0.274   3.656
 2588TIP3   OH2 7769   3.301   3.932   3.770
 2588TIP3    H1 7770   3.367   3.959   3.834
 2588TIP3    H2 7771   3.341   3.857   3.725
 2589TIP3   OH2 7772   6.039   2.137   2.741
 2589TIP3    H1 7773   5.954   2.131   2.698
 2589TIP3    H2 7774   6.095   2.180   2.677
 2590TIP3   OH2 7775   0.369   2.014   1.827
 2590TIP3    H1 7776   0.447   2.039   1.777
 2590TIP3    H2 7777   0.321   2.096   1.839
 2591TIP3   OH2 7778   2.960   0.680   0.780
 2591TIP3    H1 7779   3.035   0.704   0.725
 2591TIP3    H2 7780   2.887   0.729   0.743
 2592TIP3   OH2 7781   0.079   5.344   3.621
 2592TIP3    H1 7782   0.116   5.258   3.641
 2592TIP3    H2 7783   0.017   5.328   3.549
 2593TIP3   OH2 7784   4.343   1.199   4.006
 2593TIP3    H1 7785   4.350   1.105   3.992
 2593TIP3    H2 7786   4.343   1.209   4.101
 2594TIP3   OH2 7787   5.759   0.265   1.981
 2594TIP3    H1 7788   5.823   0.204   1.945
 2594TIP3    H2 7789   5.808   0.316   2.046
 2595TIP3   OH2 7790   4.454   5.478   1.878
 2595TIP3    H1 7791   4.394   5.554   1.874
 2595TIP3    H2 7792   4.459   5.446   1.788
 2596TIP3   OH2 7793   6.008   0.646   0.037
 2596TIP3    H1 7794   6.009   0.730   0.084
 2596TIP3    H2 7795   5.943   0.594   0.084
 2597TIP3   OH2 7796   3.674   5.960   4.514
 2597TIP3    H1 7797   3.687   6.051   4.541
 2597TIP3    H2 7798   3.647   5.915   4.594
 2598TIP3   OH2 7799   3.426   0.235   1.503
 2598TIP3    H1 7800   3.486   0.175   1.458
 2598TIP3    H2 7801   3.441   0.217   1.596
 2599TIP3   OH2 7802   2.222   3.817   1.887
 2599TIP3    H1 7803   2.212   3.780   1.975
 2599TIP3    H2 7804   2.149   3.877   1.878
 2600TIP3   OH2 7805   3.958   5.174   0.056
 2600TIP3    H1 7806   3.969   5.079   0.066
 2600TIP3    H2 7807   4.026   5.212   0.111
 2601TIP3   OH2 7808   6.166   5.355   2.340
 2601TIP3    H1 7809   6.250   5.395   2.318
 2601TIP3    H2 7810   6.115   5.358   2.259
 2602TIP3   OH2 7811   0.804   2.460   4.304
 2602TIP3    H1 7812   0.846   2.474   4.388
 2602TIP3    H2 7813   0.826   2.538   4.253
 2603TIP3   OH2 7814   0.838   1.644   0.239
 2603TIP3    H1 7815   0.924   1.666   0.275
 2603TIP3    H2 7816   0.852   1.562   0.191
 2604TIP3   OH2 7817   4.541   1.211   3.179
 2604TIP3    H1 7818   4.496   1.135   3.141
 2604TIP3    H2 7819   4.575   1.259   3.103
 2605TIP3   OH2 7820   0.628   4.405   1.700
 2605TIP3    H1 7821   0.542   4.395   1.659
 2605TIP3    H2 7822   0.680   4.334   1.664
 2606TIP3   OH2 7823   0.780   4.590   2.248
 2606TIP3    H1 7824   0.826   4.625   2.171
 2606TIP3    H2 7825   0.760   4.668   2.301
 2607TIP3   OH2 7826   2.960   2.911   2.251
 2607TIP3    H1 7827   2.874   2.929   2.212
 2607TIP3    H2 7828   2.966   2.970   2.326
 2608TIP3   OH2 7829   4.439   4.006   3.506
 2608TIP3    H1 7830   4.426   4.056   3.426
 2608TIP3    H2 7831   4.409   3.917   3.485
 2609TIP3   OH2 7832   3.472   2.161   1.668
 2609TIP3    H1 7833   3.524   2.183   1.591
 2609TIP3    H2 7834   3.536   2.140   1.736
 2610TIP3   OH2 7835   5.886   4.769   1.796
 2610TIP3    H1 7836   5.806   4.797   1.842
 2610TIP3    H2 7837   5.951   4.836   1.819
 2611TIP3   OH2 7838   1.856   1.597   4.545
 2611TIP3    H1 7839   1.848   1.692   4.535
 2611TIP3    H2 7840   1.918   1.587   4.618
 2612TIP3   OH2 7841   3.291   0.854   1.206
 2612TIP3    H1 7842   3.271   0.818   1.292
 2612TIP3    H2 7843   3.285   0.779   1.147
 2613TIP3   OH2 7844   2.685   3.773   3.933
 2613TIP3    H1 7845   2.740   3.697   3.953
 2613TIP3    H2 7846   2.712   3.840   3.997
 2614TIP3   OH2 7847   5.030   2.999   2.743
 2614TIP3    H1 7848   5.046   3.073   2.684
 2614TIP3    H2 7849   5.026   2.923   2.685
 2615TIP3   OH2 7850   5.214   0.667   2.416
 2615TIP3    H1 7851   5.293   0.660   2.469
 2615TIP3    H2 7852   5.240   0.636   2.329
 2616TIP3   OH2 7853   2.941   1.968   1.560
 2616TIP3    H1 7854   2.996   2.002   1.489
 2616TIP3    H2 7855   2.952   2.031   1.631
 2617TIP3   OH2 7856   0.603   4.261   3.944
 2617TIP3    H1 7857   0.517   4.257   3.901
 2617TIP3    H2 7858   0.593   4.209   4.023
 2618TIP3   OH2 7859   4.747   4.743   2.265
 2618TIP3    H1 7860   4.796   4.684   2.322
 2618TIP3    H2 7861   4.706   4.686   2.201
 2619TIP3   OH2 7862   0.312   5.545   2.184
 2619TIP3    H1 7863   0.407   5.534   2.192
 2619TIP3    H2 7864   0.302   5.627   2.135
 2620TIP3   OH2 7865   4.031   1.894   4.833
 2620TIP3    H1 7866   3.947   1.878   4.876
 2620TIP3    H2 7867   4.090   1.918   4.905
 2621TIP3   OH2 7868   2.062   2.013   4.107
 2621TIP3    H1 7869   2.032   1.926   4.135
 2621TIP3    H2 7870   2.007   2.074   4.157
 2622TIP3   OH2 7871   0.734   3.213   2.976
 2622TIP3    H1 7872   0.751   3.228   3.069
 2622TIP3    H2 7873   0.797   3.269   2.931
 2623TIP3   OH2 7874   3.598   2.357   2.959
 2623TIP3    H1 7875   3.529   2.354   2.892
 2623TIP3    H2 7876   3.640   2.272   2.954
 2624TIP3   OH2 7877   5.210   3.930   4.138
 2624TIP3    H1 7878   5.252   3.913   4.054
 2624TIP3    H2 7879   5.164   3.849   4.159
 2625TIP3   OH2 7880   0.797   3.692   4.154
 2625TIP3    H1 7881   0.788   3.770   4.098
 2625TIP3    H2 7882   0.755   3.718   4.236
 2626TIP3   OH2 7883   6.252   5.676   2.765
 2626TIP3    H1 7884   6.156   5.674   2.770
 2626TIP3    H2 7885   6.271   5.654   2.673
 2627TIP3   OH2 7886   0.857   5.816   2.731
 2627TIP3    H1 7887   0.949   5.807   2.755
 2627TIP3    H2 7888   0.839   5.739   2.676
 2628TIP3   OH2 7889   0.858   2.983   3.464
 2628TIP3    H1 7890   0.861   3.008   3.372
 2628TIP3    H2 7891   0.945   3.006   3.497
 2629TIP3   OH2 7892   2.576   3.639   2.463
 2629TIP3    H1 7893   2.649   3.582   2.439
 2629TIP3    H2 7894   2.560   3.692   2.385
 2630TIP3   OH2 7895   4.512   0.319   2.247
 2630TIP3    H1 7896   4.600   0.294   2.219
 2630TIP3    H2 7897   4.517   0.414   2.261
 2631TIP3   OH2 7898   2.777   0.627   0.200
 2631TIP3    H1 7899   2.823   0.659   0.277
 2631TIP3    H2 7900   2.732   0.548   0.229
 2632TIP3   OH2 7901   2.066   4.424   0.714
 2632TIP3    H1 7902   2.051   4.357   0.780
 2632TIP3    H2 7903   2.111   4.494   0.761
 2633TIP3   OH2 7904   1.757   4.451   1.974
 2633TIP3    H1 7905   1.664   4.441   1.991
 2633TIP3    H2 7906   1.799   4.384   2.028
 2634TIP3   OH2 7907   4.682   3.567   3.090
 2634TIP3    H1 7908   4.670   3.548   2.997
 2634TIP3    H2 7909   4.615   3.514   3.134
 2635TIP3   OH2 7910   4.798   5.779   4.953
 2635TIP3    H1 7911   4.817   5.735   4.869
 2635TIP3    H2 7912   4.762   5.710   5.008
 2636TIP3   OH2 7913   0.655   4.879   1.035
 2636TIP3    H1 7914   0.671   4.941   0.964
 2636TIP3    H2 7915   0.585   4.919   1.087
 2637TIP3   OH2 7916   0.278   0.501   3.561
 2637TIP3    H1 7917   0.260   0.542   3.476
 2637TIP3    H2 7918   0.275   0.573   3.624
 2638TIP3   OH2 7919   2.937   5.289   1.249
 2638TIP3    H1 7920   2.843   5.276   1.246
 2638TIP3    H2 7921   2.966   5.236   1.324
 2639TIP3   OH2 7922   1.144   2.239   0.449
 2639TIP3    H1 7923   1.227   2.237   0.401
 2639TIP3    H2 7924   1.101   2.319   0.419
 2640TIP3   OH2 7925   4.616   5.922   0.597
 2640TIP3    H1 7926   4.695   5.896   0.550
 2640TIP3    H2 7927   4.562   5.967   0.531
 2641TIP3   OH2 7928   0.455   1.387   0.330
 2641TIP3    H1 7929   0.501   1.432   0.259
 2641TIP3    H2 7930   0.520   1.381   0.400
 2642TIP3   OH2 7931   3.716   3.752  -0.013
 2642TIP3    H1 7932   3.687   3.661  -0.018
 2642TIP3    H2 7933   3.691   3.780   0.076
 2643TIP3   OH2 7934   2.436   5.195   1.503
 2643TIP3    H1 7935   2.486   5.265   1.545
 2643TIP3    H2 7936   2.345   5.216   1.520
 2644TIP3   OH2 7937   3.025   1.218   3.277
 2644TIP3    H1 7938   3.039   1.235   3.184
 2644TIP3    H2 7939   3.112   1.228   3.316
 2645TIP3   OH2 7940   0.965   2.034   3.710
 2645TIP3    H1 7941   0.877   2.068   3.696
 2645TIP3    H2 7942   1.023   2.106   3.684
 2646TIP3   OH2 7943   1.178   3.497   3.674
 2646TIP3    H1 7944   1.243   3.470   3.739
 2646TIP3    H2 7945   1.104   3.528   3.725
 2647TIP3   OH2 7946   4.564   5.859   1.240
 2647TIP3    H1 7947   4.660   5.860   1.240
 2647TIP3    H2 7948   4.542   5.766   1.236
 2648TIP3   OH2 7949   4.800   2.398   3.209
 2648TIP3    H1 7950   4.803   2.388   3.113
 2648TIP3    H2 7951   4.725   2.346   3.236
 2649TIP3   OH2 7952   4.252   4.656   4.855
 2649TIP3    H1 7953   4.223   4.743   4.882
 2649TIP3    H2 7954   4.172   4.611   4.828
 2650TIP3   OH2 7955   6.032   5.190   1.061
 2650TIP3    H1 7956   6.026   5.102   1.097
 2650TIP3    H2 7957   6.117   5.192   1.016
 2651TIP3   OH2 7958   0.954   2.389   3.066
 2651TIP3    H1 7959   0.955   2.418   2.975
 2651TIP3    H2 7960   0.928   2.466   3.116
 2652TIP3   OH2 7961   5.140   4.517   4.528
 2652TIP3    H1 7962   5.184   4.436   4.503
 2652TIP3    H2 7963   5.193   4.586   4.489
 2653TIP3   OH2 7964   5.223   3.142   1.158
 2653TIP3    H1 7965   5.161   3.213   1.146
 2653TIP3    H2 7966   5.226   3.127   1.253
 2654TIP3   OH2 7967   0.104   5.043   2.755
 2654TIP3    H1 7968   0.158   5.052   2.676
 2654TIP3    H2 7969   0.143   5.104   2.818
 2655TIP3   OH2 7970   0.250   5.469   1.154
 2655TIP3    H1 7971   0.177   5.422   1.113
 2655TIP3    H2 7972   0.217   5.492   1.241
 2656TIP3   OH2 7973   5.265   4.842   3.506
 2656TIP3    H1 7974   5.320   4.858   3.583
 2656TIP3    H2 7975   5.241   4.930   3.476
 2657TIP3   OH2 7976   1.015   3.127   0.284
 2657TIP3    H1 7977   1.025   3.222   0.291
 2657TIP3    H2 7978   1.105   3.094   0.278
 2658TIP3   OH2 7979   4.662   4.187   3.083
 2658TIP3    H1 7980   4.592   4.172   3.019
 2658TIP3    H2 7981   4.645   4.274   3.118
 2659TIP3   OH2 7982   0.672   4.664   4.047
 2659TIP3    H1 7983   0.618   4.616   3.984
 2659TIP3    H2 7984   0.641   4.755   4.041
 2660TIP3   OH2 7985   2.235   3.895   4.224
 2660TIP3    H1 7986   2.259   3.960   4.290
 2660TIP3    H2 7987   2.196   3.945   4.153
 2661TIP3   OH2 7988   4.572   1.318   3.817
 2661TIP3    H1 7989   4.511   1.374   3.864
 2661TIP3    H2 7990   4.577   1.356   3.729
 2662TIP3   OH2 7991   3.101   1.555   3.766
 2662TIP3    H1 7992   3.110   1.614   3.841
 2662TIP3    H2 7993   3.029   1.496   3.791
 2663TIP3   OH2 7994   0.100   5.800   0.540
 2663TIP3    H1 7995   0.144   5.876   0.503
 2663TIP3    H2 7996   0.014   5.832   0.567
 2664TIP3   OH2 7997   3.323   3.968   5.009
 2664TIP3    H1 7998   3.415   3.969   5.034
 2664TIP3    H2 7999   3.324   3.949   4.915
 2665TIP3   OH2 8000   3.825   3.962   0.231
 2665TIP3    H1 8001   3.733   3.985   0.217
 2665TIP3    H2 8002   3.843   3.991   0.321
 2666TIP3   OH2 8003   2.592   2.564   3.732
 2666TIP3    H1 8004   2.576   2.483   3.684
 2666TIP3    H2 8005   2.510   2.580   3.778
 2667TIP3   OH2 8006   4.572   5.779   3.882
 2667TIP3    H1 8007   4.490   5.733   3.862
 2667TIP3    H2 8008   4.560   5.810   3.972
 2668TIP3   OH2 8009   3.609   3.544   4.733
 2668TIP3    H1 8010   3.615   3.601   4.809
 2668TIP3    H2 8011   3.668   3.471   4.752
 2669TIP3   OH2 8012   2.228   0.907   4.386
 2669TIP3    H1 8013   2.295   0.887   4.321
 2669TIP3    H2 8014   2.232   0.835   4.449
 2670TIP3   OH2 8015   1.257   3.782   3.768
 2670TIP3    H1 8016   1.173   3.742   3.744
 2670TIP3    H2 8017   1.302   3.714   3.818
 2671TIP3   OH2 8018   2.835   1.777   2.278
 2671TIP3    H1 8019   2.927   1.768   2.253
 2671TIP3    H2 8020   2.822   1.710   2.346
 2672TIP3   OH2 8021   5.771   0.819   4.460
 2672TIP3    H1 8022   5.698   0.770   4.496
 2672TIP3    H2 8023   5.849   0.775   4.494
 2673TIP3   OH2 8024   3.155   1.388   4.442
 2673TIP3    H1 8025   3.220   1.450   4.475
 2673TIP3    H2 8026   3.136   1.419   4.353
 2674TIP3   OH2 8027   2.405   2.471   4.842
 2674TIP3    H1 8028   2.445   2.557   4.853
 2674TIP3    H2 8029   2.313   2.489   4.823
 2675TIP3   OH2 8030   0.347   0.819   0.777
 2675TIP3    H1 8031   0.254   0.841   0.790
 2675TIP3    H2 8032   0.363   0.749   0.840
 2676TIP3   OH2 8033   2.558   3.014   3.746
 2676TIP3    H1 8034   2.480   2.985   3.793
 2676TIP3    H2 8035   2.549   3.109   3.740
 2677TIP3   OH2 8036   0.857   3.459   2.211
 2677TIP3    H1 8037   0.928   3.433   2.151
 2677TIP3    H2 8038   0.834   3.378   2.256
 2678TIP3   OH2 8039   1.317   5.182   4.216
 2678TIP3    H1 8040   1.366   5.264   4.214
 2678TIP3    H2 8041   1.336   5.145   4.302
 2679TIP3   OH2 8042   3.173   4.578   4.860
 2679TIP3    H1 8043   3.184   4.487   4.832
 2679TIP3    H2 8044   3.189   4.576   4.954
 2680TIP3   OH2 8045   1.259   4.171   1.815
 2680TIP3    H1 8046   1.212   4.090   1.836
 2680TIP3    H2 8047   1.322   4.181   1.886
 2681TIP3   OH2 8048   0.795   4.675   4.945
 2681TIP3    H1 8049   0.797   4.677   4.849
 2681TIP3    H2 8050   0.758   4.589   4.966
 2682TIP3   OH2 8051   1.958   4.110   4.174
 2682TIP3    H1 8052   1.963   4.205   4.168
 2682TIP3    H2 8053   1.925   4.094   4.263
 2683TIP3   OH2 8054   0.315   5.411   4.621
 2683TIP3    H1 8055   0.234   5.387   4.576
 2683TIP3    H2 8056   0.301   5.502   4.648
 2684TIP3   OH2 8057   3.224   2.317   4.633
 2684TIP3    H1 8058   3.279   2.242   4.610
 2684TIP3    H2 8059   3.179   2.289   4.713
 2685TIP3   OH2 8060   2.703   4.567   0.583
 2685TIP3    H1 8061   2.731   4.655   0.608
 2685TIP3    H2 8062   2.618   4.556   0.626
 2686TIP3   OH2 8063   4.349   2.398   1.667
 2686TIP3    H1 8064   4.285   2.358   1.609
 2686TIP3    H2 8065   4.302   2.413   1.749
 2687TIP3   OH2 8066   0.724   5.911   0.430
 2687TIP3    H1 8067   0.698   5.819   0.443
 2687TIP3    H2 8068   0.654   5.948   0.376
 2688TIP3   OH2 8069   1.825   1.631   0.732
 2688TIP3    H1 8070   1.770   1.569   0.781
 2688TIP3    H2 8071   1.774   1.651   0.654
 2689TIP3   OH2 8072   4.626   1.240   3.439
 2689TIP3    H1 8073   4.595   1.230   3.349
 2689TIP3    H2 8074   4.548   1.226   3.492
 2690TIP3   OH2 8075   2.525   0.353   2.729
 2690TIP3    H1 8076   2.486   0.420   2.785
 2690TIP3    H2 8077   2.619   0.367   2.737
 2691TIP3   OH2 8078   0.899   4.570   4.434
 2691TIP3    H1 8079   0.893   4.499   4.369
 2691TIP3    H2 8080   0.897   4.650   4.383
 2692TIP3   OH2 8081   5.374   1.266   4.289
 2692TIP3    H1 8082   5.289   1.236   4.257
 2692TIP3    H2 8083   5.409   1.193   4.340
 2693TIP3   OH2 8084   2.043   0.619   1.016
 2693TIP3    H1 8085   2.123   0.577   0.986
 2693TIP3    H2 8086   1.978   0.549   1.019
 2694TIP3   OH2 8087   4.747   0.415   0.903
 2694TIP3    H1 8088   4.744   0.341   0.963
 2694TIP3    H2 8089   4.726   0.377   0.817
 2695TIP3   OH2 8090   4.108   3.393   4.269
 2695TIP3    H1 8091   4.096   3.310   4.223
 2695TIP3    H2 8092   4.043   3.452   4.231
 2696TIP3   OH2 8093   1.613   5.161   2.746
 2696TIP3    H1 8094   1.572   5.118   2.821
 2696TIP3    H2 8095   1.633   5.090   2.685
 2697TIP3   OH2 8096   6.352   4.085   3.177
 2697TIP3    H1 8097   6.390   4.011   3.129
 2697TIP3    H2 8098   6.265   4.056   3.201
 2698TIP3   OH2 8099   4.980   0.532   1.701
 2698TIP3    H1 8100   5.059   0.561   1.655
 2698TIP3    H2 8101   4.958   0.604   1.760
 2699TIP3   OH2 8102   1.316   4.056   3.883
 2699TIP3    H1 8103   1.310   3.961   3.874
 2699TIP3    H2 8104   1.404   4.071   3.917
 2700TIP3   OH2 8105   3.653   2.612   3.029
 2700TIP3    H1 8106   3.593   2.618   3.103
 2700TIP3    H2 8107   3.633   2.527   2.988
 2701TIP3   OH2 8108   0.117   1.491   4.879
 2701TIP3    H1 8109   0.162   1.519   4.799
 2701TIP3    H2 8110   0.185   1.445   4.929
 2702TIP3   OH2 8111   4.332   4.206   2.321
 2702TIP3    H1 8112   4.270   4.199   2.248
 2702TIP3    H2 8113   4.276   4.218   2.398
 2703TIP3   OH2 8114   1.287   2.565   3.141
 2703TIP3    H1 8115   1.260   2.563   3.233
 2703TIP3    H2 8116   1.342   2.643   3.134
 2704TIP3   OH2 8117   0.727   4.401   5.004
 2704TIP3    H1 8118   0.680   4.421   5.085
 2704TIP3    H2 8119   0.660   4.371   4.944
 2705TIP3   OH2 8120   1.538   2.226   1.812
 2705TIP3    H1 8121   1.536   2.234   1.907
 2705TIP3    H2 8122   1.631   2.231   1.789
 2706TIP3   OH2 8123   4.914   5.638   4.139
 2706TIP3    H1 8124   4.871   5.698   4.078
 2706TIP3    H2 8125   5.000   5.623   4.101
 2707TIP3   OH2 8126   1.853   2.112   1.221
 2707TIP3    H1 8127   1.924   2.149   1.170
 2707TIP3    H2 8128   1.776   2.165   1.197
 2708TIP3   OH2 8129   5.770   3.088   4.565
 2708TIP3    H1 8130   5.816   3.170   4.547
 2708TIP3    H2 8131   5.810   3.024   4.507
 2709TIP3   OH2 8132   5.966   0.503   1.034
 2709TIP3    H1 8133   5.957   0.590   0.995
 2709TIP3    H2 8134   5.999   0.520   1.123
 2710TIP3   OH2 8135   4.973   4.039   2.551
 2710TIP3    H1 8136   4.984   3.993   2.468
 2710TIP3    H2 8137   4.879   4.039   2.567
 2711TIP3   OH2 8138   4.181   4.398   3.225
 2711TIP3    H1 8139   4.206   4.482   3.186
 2711TIP3    H2 8140   4.096   4.378   3.186
 2712TIP3   OH2 8141   3.644   2.210   4.787
 2712TIP3    H1 8142   3.601   2.293   4.765
 2712TIP3    H2 8143   3.720   2.236   4.840
 2713TIP3   OH2 8144   5.661   5.355   4.744
 2713TIP3    H1 8145   5.713   5.433   4.764
 2713TIP3    H2 8146   5.590   5.357   4.808
 2714TIP3   OH2 8147   3.564   2.244   3.724
 2714TIP3    H1 8148   3.615   2.324   3.738
 2714TIP3    H2 8149   3.474   2.273   3.714
 2715TIP3   OH2 8150   1.137   4.840   1.757
 2715TIP3    H1 8151   1.222   4.796   1.756
 2715TIP3    H2 8152   1.073   4.769   1.757
 2716TIP3   OH2 8153   5.323   0.356   3.177
 2716TIP3    H1 8154   5.360   0.336   3.263
 2716TIP3    H2 8155   5.229   0.353   3.189
 2717TIP3   OH2 8156   1.675   0.519   0.211
 2717TIP3    H1 8157   1.685   0.614   0.219
 2717TIP3    H2 8158   1.764   0.485   0.211
 2718TIP3   OH2 8159   5.734   2.546   2.147
 2718TIP3    H1 8160   5.657   2.533   2.203
 2718TIP3    H2 8161   5.784   2.614   2.192
 2719TIP3   OH2 8162   3.171   0.064   2.355
 2719TIP3    H1 8163   3.117  -0.015   2.361
 2719TIP3    H2 8164   3.261   0.032   2.346
 2720TIP3   OH2 8165   4.708   4.267   2.745
 2720TIP3    H1 8166   4.729   4.244   2.655
 2720TIP3    H2 8167   4.659   4.349   2.738
 2721TIP3   OH2 8168   3.127   4.083   4.084
 2721TIP3    H1 8169   3.112   4.051   3.995
 2721TIP3    H2 8170   3.129   4.004   4.138
 2722TIP3   OH2 8171   1.476   0.549   3.070
 2722TIP3    H1 8172   1.462   0.471   3.016
 2722TIP3    H2 8173   1.543   0.523   3.133
 2723TIP3   OH2 8174   5.863   5.714   4.226
 2723TIP3    H1 8175   5.854   5.703   4.131
 2723TIP3    H2 8176   5.955   5.738   4.238
 2724TIP3   OH2 8177   2.919   3.789   2.062
 2724TIP3    H1 8178   2.937   3.758   2.150
 2724TIP3    H2 8179   2.938   3.883   2.064
 2725TIP3   OH2 8180   1.068   5.554   3.925
 2725TIP3    H1 8181   1.135   5.490   3.903
 2725TIP3    H2 8182   1.029   5.521   4.006
 2726TIP3   OH2 8183   3.930   5.353   0.670
 2726TIP3    H1 8184   3.939   5.259   0.687
 2726TIP3    H2 8185   3.996   5.371   0.603
 2727TIP3   OH2 8186   3.281   3.146   3.685
 2727TIP3    H1 8187   3.274   3.050   3.683
 2727TIP3    H2 8188   3.361   3.164   3.636
 2728TIP3   OH2 8189   0.295   3.538   1.438
 2728TIP3    H1 8190   0.349   3.539   1.517
 2728TIP3    H2 8191   0.332   3.467   1.385
 2729TIP3   OH2 8192   1.118   5.666   5.097
 2729TIP3    H1 8193   1.144   5.758   5.104
 2729TIP3    H2 8194   1.033   5.662   5.141
 2730TIP3   OH2 8195   0.036   4.072   5.003
 2730TIP3    H1 8196   0.014   4.124   5.079
 2730TIP3    H2 8197   0.099   4.007   5.036
 2731TIP3   OH2 8198   0.507   3.558   3.127
 2731TIP3    H1 8199   0.594   3.532   3.157
 2731TIP3    H2 8200   0.489   3.640   3.174
 2732TIP3   OH2 8201   2.244   3.917   2.738
 2732TIP3    H1 8202   2.313   3.952   2.681
 2732TIP3    H2 8203   2.269   3.946   2.826
 2733TIP3   OH2 8204   0.349   3.295   0.622
 2733TIP3    H1 8205   0.440   3.265   0.622
 2733TIP3    H2 8206   0.332   3.321   0.532
 2734TIP3   OH2 8207   1.045   3.236   3.646
 2734TIP3    H1 8208   1.065   3.217   3.738
 2734TIP3    H2 8209   1.089   3.319   3.629
 2735TIP3   OH2 8210   3.595   4.809   0.837
 2735TIP3    H1 8211   3.558   4.873   0.777
 2735TIP3    H2 8212   3.676   4.780   0.794
 2736TIP3   OH2 8213   3.385   2.559   0.970
 2736TIP3    H1 8214   3.403   2.503   0.895
 2736TIP3    H2 8215   3.470   2.571   1.012
 2737TIP3   OH2 8216   2.760   5.413   0.602
 2737TIP3    H1 8217   2.765   5.496   0.556
 2737TIP3    H2 8218   2.820   5.422   0.675
 2738TIP3   OH2 8219   0.750   3.169   4.254
 2738TIP3    H1 8220   0.821   3.110   4.278
 2738TIP3    H2 8221   0.741   3.158   4.159
 2739TIP3   OH2 8222   6.028   5.590   5.055
 2739TIP3    H1 8223   6.057   5.680   5.072
 2739TIP3    H2 8224   5.978   5.566   5.133
 2740TIP3   OH2 8225   0.868   3.588   0.590
 2740TIP3    H1 8226   0.780   3.598   0.625
 2740TIP3    H2 8227   0.879   3.493   0.581
 2741TIP3   OH2 8228   2.975   2.757   5.022
 2741TIP3    H1 8229   2.884   2.771   4.996
 2741TIP3    H2 8230   3.022   2.833   4.988
 2742TIP3   OH2 8231   4.793   4.497   2.968
 2742TIP3    H1 8232   4.828   4.408   2.974
 2742TIP3    H2 8233   4.722   4.491   2.905
 2743TIP3   OH2 8234   4.215   1.880   4.200
 2743TIP3    H1 8235   4.128   1.916   4.222
 2743TIP3    H2 8236   4.277   1.942   4.238
 2744TIP3   OH2 8237   0.052   1.728   5.038
 2744TIP3    H1 8238   0.086   1.651   4.993
 2744TIP3    H2 8239   0.051   1.704   5.130
 2745TIP3   OH2 8240   2.893   1.252   1.612
 2745TIP3    H1 8241   2.879   1.279   1.521
 2745TIP3    H2 8242   2.966   1.306   1.642
 2746TIP3   OH2 8243   1.212   0.233   2.733
 2746TIP3    H1 8244   1.286   0.224   2.794
 2746TIP3    H2 8245   1.141   0.267   2.787
 2747TIP3   OH2 8246   0.854   1.626   3.185
 2747TIP3    H1 8247   0.882   1.593   3.270
 2747TIP3    H2 8248   0.909   1.703   3.169
 2748TIP3   OH2 8249   0.967   1.856   2.766
 2748TIP3    H1 8250   0.902   1.810   2.820
 2748TIP3    H2 8251   0.919   1.930   2.729
 2749TIP3   OH2 8252   3.061   1.974   3.043
 2749TIP3    H1 8253   3.085   2.001   3.131
 2749TIP3    H2 8254   3.067   2.054   2.991
 2750TIP3   OH2 8255   3.192   2.291   0.966
 2750TIP3    H1 8256   3.202   2.385   0.956
 2750TIP3    H2 8257   3.153   2.261   0.884
 2751TIP3   OH2 8258   1.888   1.441   4.930
 2751TIP3    H1 8259   1.849   1.380   4.992
 2751TIP3    H2 8260   1.857   1.527   4.959
 2752TIP3   OH2 8261   2.785   0.377   2.809
 2752TIP3    H1 8262   2.813   0.314   2.875
 2752TIP3    H2 8263   2.867   0.408   2.769
 2753TIP3   OH2 8264   6.188   0.590   0.416
 2753TIP3    H1 8265   6.259   0.546   0.463
 2753TIP3    H2 8266   6.194   0.682   0.444
 2754TIP3   OH2 8267   2.076   4.284   1.230
 2754TIP3    H1 8268   2.028   4.354   1.273
 2754TIP3    H2 8269   2.168   4.311   1.235
 2755TIP3   OH2 8270   5.657   5.520   3.325
 2755TIP3    H1 8271   5.694   5.481   3.404
 2755TIP3    H2 8272   5.594   5.584   3.358
 2756TIP3   OH2 8273   1.475   2.934   4.584
 2756TIP3    H1 8274   1.569   2.922   4.597
 2756TIP3    H2 8275   1.440   2.846   4.574
 2757TIP3   OH2 8276   5.260   4.868   0.644
 2757TIP3    H1 8277   5.300   4.823   0.570
 2757TIP3    H2 8278   5.207   4.938   0.605
 2758TIP3   OH2 8279   4.158   3.134   0.951
 2758TIP3    H1 8280   4.211   3.064   0.989
 2758TIP3    H2 8281   4.220   3.206   0.937
 2759TIP3   OH2 8282   0.759   4.513   1.922
 2759TIP3    H1 8283   0.701   4.490   1.849
 2759TIP3    H2 8284   0.704   4.503   2.000
 2760TIP3   OH2 8285   3.630   5.112   2.600
 2760TIP3    H1 8286   3.702   5.171   2.579
 2760TIP3    H2 8287   3.641   5.038   2.539
 2761TIP3   OH2 8288   4.342   2.877   3.764
 2761TIP3    H1 8289   4.433   2.877   3.794
 2761TIP3    H2 8290   4.347   2.905   3.672
 2762TIP3   OH2 8291   6.259   3.686   0.633
 2762TIP3    H1 8292   6.168   3.707   0.652
 2762TIP3    H2 8293   6.255   3.615   0.568
 2763TIP3   OH2 8294   4.576   4.680   3.839
 2763TIP3    H1 8295   4.546   4.620   3.907
 2763TIP3    H2 8296   4.580   4.627   3.759
 2764TIP3   OH2 8297   3.446   0.432   3.204
 2764TIP3    H1 8298   3.420   0.349   3.244
 2764TIP3    H2 8299   3.375   0.492   3.226
 2765TIP3   OH2 8300   4.757   4.830   1.725
 2765TIP3    H1 8301   4.824   4.875   1.777
 2765TIP3    H2 8302   4.778   4.854   1.635
 2766TIP3   OH2 8303   5.825   3.867   2.392
 2766TIP3    H1 8304   5.865   3.845   2.476
 2766TIP3    H2 8305   5.870   3.947   2.364
 2767TIP3   OH2 8306   6.064   4.539   1.389
 2767TIP3    H1 8307   6.092   4.508   1.303
 2767TIP3    H2 8308   6.093   4.630   1.393
 2768TIP3   OH2 8309   3.650   5.275   1.433
 2768TIP3    H1 8310   3.560   5.275   1.467
 2768TIP3    H2 8311   3.700   5.327   1.496
 2769TIP3   OH2 8312   6.047   2.013   0.583
 2769TIP3    H1 8313   5.956   1.995   0.605
 2769TIP3    H2 8314   6.047   2.024   0.488
 2770TIP3   OH2 8315   4.130   0.075   1.409
 2770TIP3    H1 8316   4.119   0.157   1.456
 2770TIP3    H2 8317   4.224   0.057   1.412
 2771TIP3   OH2 8318   3.184   0.083   2.005
 2771TIP3    H1 8319   3.230   0.013   1.958
 2771TIP3    H2 8320   3.095   0.049   2.017
 2772TIP3   OH2 8321   0.362   0.471   1.906
 2772TIP3    H1 8322   0.371   0.399   1.969
 2772TIP3    H2 8323   0.270   0.468   1.879
 2773TIP3   OH2 8324   1.147   4.024   1.217
 2773TIP3    H1 8325   1.084   3.999   1.285
 2773TIP3    H2 8326   1.229   3.985   1.247
 2774TIP3   OH2 8327   3.453   0.997   2.717
 2774TIP3    H1 8328   3.443   1.063   2.649
 2774TIP3    H2 8329   3.415   1.037   2.795
 2775TIP3   OH2 8330   0.510   2.430   1.830
 2775TIP3    H1 8331   0.475   2.481   1.903
 2775TIP3    H2 8332   0.488   2.480   1.752
 2776TIP3   OH2 8333   2.155   5.896   2.920
 2776TIP3    H1 8334   2.168   5.988   2.943
 2776TIP3    H2 8335   2.150   5.850   3.003
 2777TIP3   OH2 8336   4.344   4.505   4.376
 2777TIP3    H1 8337   4.367   4.522   4.284
 2777TIP3    H2 8338   4.382   4.419   4.394
 2778TIP3   OH2 8339   1.843   3.212   5.202
 2778TIP3    H1 8340   1.890   3.292   5.177
 2778TIP3    H2 8341   1.882   3.144   5.148
 2779TIP3   OH2 8342   0.384   5.321   2.769
 2779TIP3    H1 8343   0.328   5.311   2.693
 2779TIP3    H2 8344   0.464   5.273   2.747
 2780TIP3   OH2 8345   1.377   4.985   3.517
 2780TIP3    H1 8346   1.368   5.042   3.441
 2780TIP3    H2 8347   1.439   5.030   3.573
 2781TIP3   OH2 8348   4.529   4.506   0.865
 2781TIP3    H1 8349   4.546   4.599   0.881
 2781TIP3    H2 8350   4.555   4.463   0.947
 2782TIP3   OH2 8351   3.922   3.982   1.375
 2782TIP3    H1 8352   3.826   3.987   1.376
 2782TIP3    H2 8353   3.945   3.958   1.465
 2783TIP3   OH2 8354   3.131   3.556   4.347
 2783TIP3    H1 8355   3.209   3.526   4.394
 2783TIP3    H2 8356   3.111   3.642   4.385
 2784TIP3   OH2 8357   4.609   1.500   4.240
 2784TIP3    H1 8358   4.699   1.496   4.209
 2784TIP3    H2 8359   4.600   1.585   4.282
 2785TIP3   OH2 8360   6.222   1.371   4.332
 2785TIP3    H1 8361   6.184   1.453   4.362
 2785TIP3    H2 8362   6.158   1.304   4.355
 2786TIP3   OH2 8363   4.848   5.329   1.825
 2786TIP3    H1 8364   4.804   5.399   1.874
 2786TIP3    H2 8365   4.832   5.250   1.876
 2787TIP3   OH2 8366   2.998   0.999   1.674
 2787TIP3    H1 8367   3.071   0.975   1.731
 2787TIP3    H2 8368   2.978   1.089   1.698
 2788TIP3   OH2 8369   1.123   1.989   2.407
 2788TIP3    H1 8370   1.122   1.897   2.430
 2788TIP3    H2 8371   1.043   2.025   2.446
 2789TIP3   OH2 8372   4.247   3.493   3.079
 2789TIP3    H1 8373   4.271   3.584   3.061
 2789TIP3    H2 8374   4.321   3.442   3.048
 2790TIP3   OH2 8375   5.846   0.082   1.580
 2790TIP3    H1 8376   5.927   0.103   1.534
 2790TIP3    H2 8377   5.783   0.062   1.511
 2791TIP3   OH2 8378   4.927   4.254   2.918
 2791TIP3    H1 8379   4.867   4.246   2.843
 2791TIP3    H2 8380   4.920   4.169   2.963
 2792TIP3   OH2 8381   1.153   5.782   2.749
 2792TIP3    H1 8382   1.134   5.779   2.655
 2792TIP3    H2 8383   1.238   5.738   2.758
 2793TIP3   OH2 8384   6.102   1.642   0.212
 2793TIP3    H1 8385   6.150   1.581   0.156
 2793TIP3    H2 8386   6.101   1.600   0.298
 2794TIP3   OH2 8387   5.792   5.880   1.282
 2794TIP3    H1 8388   5.837   5.921   1.356
 2794TIP3    H2 8389   5.705   5.921   1.282
 2795TIP3   OH2 8390   3.614   2.043   1.306
 2795TIP3    H1 8391   3.672   2.086   1.243
 2795TIP3    H2 8392   3.531   2.032   1.260
 2796TIP3   OH2 8393   3.072   0.227   0.269
 2796TIP3    H1 8394   2.999   0.279   0.302
 2796TIP3    H2 8395   3.137   0.230   0.339
 2797TIP3   OH2 8396   4.110   0.494   0.230
 2797TIP3    H1 8397   4.090   0.421   0.288
 2797TIP3    H2 8398   4.032   0.503   0.175
 2798TIP3   OH2 8399   5.469   1.364   2.902
 2798TIP3    H1 8400   5.558   1.335   2.923
 2798TIP3    H2 8401   5.417   1.284   2.904
 2799TIP3   OH2 8402   0.057   2.961   5.040
 2799TIP3    H1 8403   0.088   2.871   5.048
 2799TIP3    H2 8404   0.133   3.009   5.007
 2800TIP3   OH2 8405   3.281   4.595   2.350
 2800TIP3    H1 8406   3.330   4.647   2.287
 2800TIP3    H2 8407   3.221   4.543   2.296
 2801TIP3   OH2 8408   5.304   3.776   3.188
 2801TIP3    H1 8409   5.396   3.795   3.207
 2801TIP3    H2 8410   5.307   3.712   3.118
 2802TIP3   OH2 8411   2.738   2.011   3.361
 2802TIP3    H1 8412   2.657   1.962   3.346
 2802TIP3    H2 8413   2.765   2.039   3.274
 2803TIP3   OH2 8414   3.217   4.331   4.144
 2803TIP3    H1 8415   3.197   4.238   4.136
 2803TIP3    H2 8416   3.302   4.341   4.100
 2804TIP3   OH2 8417   1.853   0.368   0.018
 2804TIP3    H1 8418   1.934   0.322   0.041
 2804TIP3    H2 8419   1.783   0.311   0.049
 2805TIP3   OH2 8420   5.463   2.639   2.632
 2805TIP3    H1 8421   5.467   2.606   2.542
 2805TIP3    H2 8422   5.510   2.574   2.684
 2806TIP3   OH2 8423   2.044   0.936   4.731
 2806TIP3    H1 8424   1.958   0.974   4.745
 2806TIP3    H2 8425   2.048   0.862   4.791
 2807TIP3   OH2 8426   0.605   3.986   2.080
 2807TIP3    H1 8427   0.658   3.981   2.159
 2807TIP3    H2 8428   0.603   3.897   2.046
 2808TIP3   OH2 8429   1.246   2.846   1.616
 2808TIP3    H1 8430   1.212   2.828   1.529
 2808TIP3    H2 8431   1.286   2.932   1.609
 2809TIP3   OH2 8432   1.140   5.777   2.492
 2809TIP3    H1 8433   1.182   5.700   2.453
 2809TIP3    H2 8434   1.053   5.780   2.451
 2810TIP3   OH2 8435   5.239   2.773   2.660
 2810TIP3    H1 8436   5.197   2.773   2.573
 2810TIP3    H2 8437   5.317   2.720   2.648
 2811TIP3   OH2 8438   5.518   2.912   4.269
 2811TIP3    H1 8439   5.533   2.885   4.359
 2811TIP3    H2 8440   5.605   2.911   4.228
 2812TIP3   OH2 8441   5.013   3.514   1.585
 2812TIP3    H1 8442   5.054   3.452   1.646
 2812TIP3    H2 8443   5.019   3.599   1.629
 2813TIP3   OH2 8444   0.117   0.615   4.650
 2813TIP3    H1 8445   0.164   0.682   4.700
 2813TIP3    H2 8446   0.070   0.564   4.716
 2814TIP3   OH2 8447   3.788   0.427   1.478
 2814TIP3    H1 8448   3.792   0.353   1.539
 2814TIP3    H2 8449   3.879   0.442   1.453
 2815TIP3   OH2 8450   5.086   1.073   2.264
 2815TIP3    H1 8451   5.054   1.051   2.176
 2815TIP3    H2 8452   5.045   1.007   2.320
 2816TIP3   OH2 8453   3.801   2.847   3.020
 2816TIP3    H1 8454   3.753   2.765   3.031
 2816TIP3    H2 8455   3.862   2.850   3.093
 2817TIP3   OH2 8456   1.367   4.686   1.808
 2817TIP3    H1 8457   1.403   4.649   1.727
 2817TIP3    H2 8458   1.324   4.612   1.851
 2818TIP3   OH2 8459   3.822   2.813   1.502
 2818TIP3    H1 8460   3.816   2.782   1.412
 2818TIP3    H2 8461   3.914   2.839   1.512
 2819TIP3   OH2 8462   2.761   5.637   4.220
 2819TIP3    H1 8463   2.797   5.574   4.282
 2819TIP3    H2 8464   2.678   5.597   4.192
 2820TIP3   OH2 8465   2.638   1.641   3.201
 2820TIP3    H1 8466   2.629   1.548   3.220
 2820TIP3    H2 8467   2.731   1.660   3.211
 2821TIP3   OH2 8468   5.944   5.446   4.254
 2821TIP3    H1 8469   5.891   5.390   4.311
 2821TIP3    H2 8470   5.893   5.527   4.246
 2822TIP3   OH2 8471   2.181   4.727   1.130
 2822TIP3    H1 8472   2.260   4.676   1.148
 2822TIP3    H2 8473   2.157   4.701   1.041
 2823TIP3   OH2 8474   4.227   3.558   3.756
 2823TIP3    H1 8475   4.290   3.558   3.684
 2823TIP3    H2 8476   4.246   3.637   3.805
 2824TIP3   OH2 8477   3.052   1.407   0.162
 2824TIP3    H1 8478   3.030   1.440   0.075
 2824TIP3    H2 8479   3.023   1.315   0.160
 2825TIP3   OH2 8480   3.731   1.331   2.759
 2825TIP3    H1 8481   3.729   1.266   2.688
 2825TIP3    H2 8482   3.822   1.333   2.786
 2826TIP3   OH2 8483   5.012   4.540   0.056
 2826TIP3    H1 8484   4.920   4.562   0.041
 2826TIP3    H2 8485   5.010   4.470   0.121
 2827TIP3   OH2 8486   5.714   4.756   1.535
 2827TIP3    H1 8487   5.662   4.678   1.553
 2827TIP3    H2 8488   5.749   4.782   1.620
 2828TIP3   OH2 8489   6.280   3.148   3.794
 2828TIP3    H1 8490   6.353   3.112   3.844
 2828TIP3    H2 8491   6.254   3.226   3.843
 2829TIP3   OH2 8492   0.178   3.601   0.401
 2829TIP3    H1 8493   0.170   3.679   0.457
 2829TIP3    H2 8494   0.116   3.616   0.330
 2830TIP3   OH2 8495   3.097   1.761   4.360
 2830TIP3    H1 8496   3.180   1.714   4.368
 2830TIP3    H2 8497   3.057   1.752   4.446
 2831TIP3   OH2 8498   0.576   1.661   0.352
 2831TIP3    H1 8499   0.667   1.683   0.331
 2831TIP3    H2 8500   0.547   1.605   0.280
 2832TIP3   OH2 8501   6.158   2.284   2.126
 2832TIP3    H1 8502   6.157   2.189   2.135
 2832TIP3    H2 8503   6.108   2.301   2.045
 2833TIP3   OH2 8504   0.512   2.337   2.977
 2833TIP3    H1 8505   0.541   2.428   2.976
 2833TIP3    H2 8506   0.585   2.289   2.938
 2834TIP3   OH2 8507   5.885   0.531   5.171
 2834TIP3    H1 8508   5.839   0.451   5.148
 2834TIP3    H2 8509   5.953   0.541   5.104
 2835TIP3   OH2 8510   3.388   4.837   1.213
 2835TIP3    H1 8511   3.359   4.920   1.252
 2835TIP3    H2 8512   3.398   4.778   1.288
 2836TIP3   OH2 8513   6.316   1.157   0.423
 2836TIP3    H1 8514   6.380   1.159   0.352
 2836TIP3    H2 8515   6.309   1.248   0.452
 2837TIP3   OH2 8516   2.285   4.137   4.341
 2837TIP3    H1 8517   2.331   4.191   4.277
 2837TIP3    H2 8518   2.312   4.170   4.426
 2838TIP3   OH2 8519   3.381   2.275   1.401
 2838TIP3    H1 8520   3.454   2.270   1.463
 2838TIP3    H2 8521   3.422   2.271   1.315
 2839TIP3   OH2 8522   5.793   5.320   3.817
 2839TIP3    H1 8523   5.866   5.382   3.819
 2839TIP3    H2 8524   5.810   5.260   3.889
 2840TIP3   OH2 8525   3.285   4.599   0.378
 2840TIP3    H1 8526   3.355   4.619   0.440
 2840TIP3    H2 8527   3.331   4.571   0.299
 2841TIP3   OH2 8528   4.938   4.042   5.214
 2841TIP3    H1 8529   4.994   3.967   5.233
 2841TIP3    H2 8530   4.872   4.008   5.153
 2842TIP3   OH2 8531   5.985   4.952   0.869
 2842TIP3    H1 8532   6.010   4.917   0.955
 2842TIP3    H2 8533   5.973   4.874   0.815
 2843TIP3   OH2 8534   0.483   2.973   4.452
 2843TIP3    H1 8535   0.457   3.042   4.391
 2843TIP3    H2 8536   0.484   2.894   4.399
 2844TIP3   OH2 8537   0.652   2.660   4.019
 2844TIP3    H1 8538   0.615   2.730   4.072
 2844TIP3    H2 8539   0.611   2.670   3.933
 2845TIP3   OH2 8540   0.187   1.773   4.314
 2845TIP3    H1 8541   0.189   1.726   4.230
 2845TIP3    H2 8542   0.277   1.771   4.345
 2846TIP3   OH2 8543   5.649   3.440   2.556
 2846TIP3    H1 8544   5.669   3.417   2.646
 2846TIP3    H2 8545   5.587   3.373   2.526
 2847TIP3   OH2 8546   4.828   2.464   3.613
 2847TIP3    H1 8547   4.745   2.490   3.572
 2847TIP3    H2 8548   4.840   2.373   3.586
 2848TIP3   OH2 8549   2.544   2.065   1.010
 2848TIP3    H1 8550   2.527   1.974   1.034
 2848TIP3    H2 8551   2.564   2.108   1.093
 2849TIP3   OH2 8552   3.506   5.851   4.064
 2849TIP3    H1 8553   3.555   5.771   4.047
 2849TIP3    H2 8554   3.560   5.921   4.026
 2850TIP3   OH2 8555   5.929   5.275   1.393
 2850TIP3    H1 8556   5.927   5.292   1.487
 2850TIP3    H2 8557   5.970   5.353   1.356
 2851TIP3   OH2 8558   3.290   4.221   3.877
 2851TIP3    H1 8559   3.206   4.176   3.866
 2851TIP3    H2 8560   3.266   4.307   3.912
 2852TIP3   OH2 8561   0.629   1.099   1.014
 2852TIP3    H1 8562   0.723   1.111   0.999
 2852TIP3    H2 8563   0.593   1.084   0.927
 2853TIP3   OH2 8564   0.989   2.366   1.963
 2853TIP3    H1 8565   1.053   2.310   1.918
 2853TIP3    H2 8566   0.917   2.307   1.984
 2854TIP3   OH2 8567   2.781   2.286   0.660
 2854TIP3    H1 8568   2.705   2.306   0.606
 2854TIP3    H2 8569   2.746   2.236   0.734
 2855TIP3   OH2 8570   4.166   3.491   1.818
 2855TIP3    H1 8571   4.127   3.528   1.897
 2855TIP3    H2 8572   4.223   3.421   1.849
 2856TIP3   OH2 8573   3.649   4.306   1.537
 2856TIP3    H1 8574   3.590   4.240   1.573
 2856TIP3    H2 8575   3.608   4.389   1.561
 2857TIP3   OH2 8576   3.256   3.717   0.371
 2857TIP3    H1 8577   3.195   3.644   0.357
 2857TIP3    H2 8578   3.337   3.674   0.399
 2858TIP3   OH2 8579   5.526   1.236   1.726
 2858TIP3    H1 8580   5.606   1.251   1.676
 2858TIP3    H2 8581   5.457   1.229   1.660
 2859TIP3   OH2 8582   3.563   1.805   2.273
 2859TIP3    H1 8583   3.564   1.792   2.178
 2859TIP3    H2 8584   3.646   1.768   2.303
 2860TIP3   OH2 8585   5.558   1.434   4.190
 2860TIP3    H1 8586   5.483   1.378   4.210
 2860TIP3    H2 8587   5.620   1.376   4.146
 2861TIP3   OH2 8588   1.980   0.245   4.208
 2861TIP3    H1 8589   1.935   0.162   4.191
 2861TIP3    H2 8590   1.998   0.244   4.302
 2862TIP3   OH2 8591   2.815   3.741   0.748
 2862TIP3    H1 8592   2.722   3.749   0.726
 2862TIP3    H2 8593   2.859   3.735   0.663
 2863TIP3   OH2 8594   1.112   5.844   1.291
 2863TIP3    H1 8595   1.194   5.803   1.317
 2863TIP3    H2 8596   1.074   5.783   1.227
 2864TIP3   OH2 8597   2.468   3.121   2.908
 2864TIP3    H1 8598   2.555   3.091   2.879
 2864TIP3    H2 8599   2.408   3.085   2.843
 2865TIP3   OH2 8600   0.176   5.114   3.968
 2865TIP3    H1 8601   0.135   5.029   3.981
 2865TIP3    H2 8602   0.251   5.097   3.910
 2866TIP3   OH2 8603   6.177   3.032   1.694
 2866TIP3    H1 8604   6.086   3.030   1.664
 2866TIP3    H2 8605   6.227   3.059   1.616
 2867TIP3   OH2 8606   3.043   2.147   4.462
 2867TIP3    H1 8607   3.010   2.077   4.518
 2867TIP3    H2 8608   3.138   2.142   4.471
 2868TIP3   OH2 8609   2.131   5.513   4.554
 2868TIP3    H1 8610   2.067   5.582   4.567
 2868TIP3    H2 8611   2.139   5.506   4.458
 2869TIP3   OH2 8612   1.210   5.964   0.833
 2869TIP3    H1 8613   1.236   5.872   0.837
 2869TIP3    H2 8614   1.263   6.002   0.763
 2870TIP3   OH2 8615   2.040   2.661   0.486
 2870TIP3    H1 8616   2.074   2.621   0.406
 2870TIP3    H2 8617   2.111   2.654   0.549
 2871TIP3   OH2 8618   2.520   5.335   3.970
 2871TIP3    H1 8619   2.568   5.266   4.015
 2871TIP3    H2 8620   2.481   5.387   4.041
 2872TIP3   OH2 8621   4.063   3.752   0.805
 2872TIP3    H1 8622   4.044   3.823   0.745
 2872TIP3    H2 8623   4.122   3.791   0.870
 2873TIP3   OH2 8624   0.443   4.090   4.870
 2873TIP3    H1 8625   0.499   4.097   4.793
 2873TIP3    H2 8626   0.387   4.014   4.852
 2874TIP3   OH2 8627   1.000   4.186   2.924
 2874TIP3    H1 8628   0.989   4.192   2.829
 2874TIP3    H2 8629   1.024   4.274   2.952
 2875TIP3   OH2 8630   5.734   1.932   3.026
 2875TIP3    H1 8631   5.769   1.885   3.102
 2875TIP3    H2 8632   5.769   1.885   2.951
 2876TIP3   OH2 8633   5.140   0.472   4.045
 2876TIP3    H1 8634   5.051   0.489   4.075
 2876TIP3    H2 8635   5.168   0.395   4.093
 2877TIP3   OH2 8636   4.322   5.632   4.591
 2877TIP3    H1 8637   4.382   5.571   4.634
 2877TIP3    H2 8638   4.321   5.709   4.648
 2878TIP3   OH2 8639   3.558   3.013   3.905
 2878TIP3    H1 8640   3.565   3.100   3.866
 2878TIP3    H2 8641   3.472   3.013   3.947
 2879TIP3   OH2 8642   2.321   1.978   1.901
 2879TIP3    H1 8643   2.295   2.020   1.819
 2879TIP3    H2 8644   2.366   1.898   1.873
 2880TIP3   OH2 8645   3.964   2.468   2.254
 2880TIP3    H1 8646   4.038   2.498   2.307
 2880TIP3    H2 8647   3.925   2.549   2.220
 2881TIP3   OH2 8648   3.460   0.999   4.568
 2881TIP3    H1 8649   3.425   0.950   4.643
 2881TIP3    H2 8650   3.555   1.000   4.583
 2882TIP3   OH2 8651   4.625   0.304   3.959
 2882TIP3    H1 8652   4.695   0.348   4.007
 2882TIP3    H2 8653   4.661   0.219   3.934
 2883TIP3   OH2 8654   0.841   3.921   2.206
 2883TIP3    H1 8655   0.850   4.002   2.156
 2883TIP3    H2 8656   0.879   3.854   2.149
 2884TIP3   OH2 8657   4.245   4.502   5.090
 2884TIP3    H1 8658   4.261   4.552   5.010
 2884TIP3    H2 8659   4.329   4.502   5.135
 2885TIP3   OH2 8660   2.674   2.141   4.950
 2885TIP3    H1 8661   2.673   2.075   4.881
 2885TIP3    H2 8662   2.767   2.156   4.968
 2886TIP3   OH2 8663   2.236   3.507   0.864
 2886TIP3    H1 8664   2.156   3.559   0.857
 2886TIP3    H2 8665   2.209   3.426   0.907
 2887TIP3   OH2 8666   1.607   5.679   1.862
 2887TIP3    H1 8667   1.698   5.684   1.893
 2887TIP3    H2 8668   1.613   5.698   1.768
 2888TIP3   OH2 8669   4.292   0.671   4.151
 2888TIP3    H1 8670   4.285   0.583   4.116
 2888TIP3    H2 8671   4.245   0.668   4.235
 2889TIP3   OH2 8672   3.639   0.890   4.854
 2889TIP3    H1 8673   3.719   0.838   4.846
 2889TIP3    H2 8674   3.568   0.827   4.850
 2890TIP3   OH2 8675   1.664   0.529   4.930
 2890TIP3    H1 8676   1.572   0.507   4.913
 2890TIP3    H2 8677   1.669   0.540   5.025
 2891TIP3   OH2 8678   1.152   5.040   4.758
 2891TIP3    H1 8679   1.104   4.971   4.712
 2891TIP3    H2 8680   1.175   5.000   4.843
 2892TIP3   OH2 8681   0.388   3.957   0.079
 2892TIP3    H1 8682   0.399   4.042   0.122
 2892TIP3    H2 8683   0.351   3.901   0.147
 2893TIP3   OH2 8684   1.103   1.532   0.921
 2893TIP3    H1 8685   1.080   1.512   0.830
 2893TIP3    H2 8686   1.170   1.467   0.944
 2894TIP3   OH2 8687   0.108   0.562   1.807
 2894TIP3    H1 8688   0.018   0.550   1.837
 2894TIP3    H2 8689   0.112   0.513   1.725
 2895TIP3   OH2 8690   5.498   2.327   3.683
 2895TIP3    H1 8691   5.549   2.259   3.726
 2895TIP3    H2 8692   5.511   2.405   3.737
 2896TIP3   OH2 8693   0.990   3.858   4.401
 2896TIP3    H1 8694   1.000   3.851   4.306
 2896TIP3    H2 8695   1.013   3.948   4.421
 2897TIP3   OH2 8696   6.285   4.223   0.579
 2897TIP3    H1 8697   6.223   4.271   0.634
 2897TIP3    H2 8698   6.243   4.139   0.562
 2898TIP3   OH2 8699   5.174   1.122   0.986
 2898TIP3    H1 8700   5.165   1.099   0.893
 2898TIP3    H2 8701   5.246   1.185   0.988
 2899TIP3   OH2 8702   3.098   4.926   1.416
 2899TIP3    H1 8703   3.064   4.919   1.505
 2899TIP3    H2 8704   3.102   5.020   1.399
 2900TIP3   OH2 8705   4.619   3.053   1.185
 2900TIP3    H1 8706   4.711   3.033   1.170
 2900TIP3    H2 8707   4.619   3.137   1.231
 2901TIP3   OH2 8708   1.305   3.111   2.954
 2901TIP3    H1 8709   1.229   3.164   2.930
 2901TIP3    H2 8710   1.281   3.072   3.038
 2902TIP3   OH2 8711   0.157   1.575   3.575
 2902TIP3    H1 8712   0.100   1.515   3.623
 2902TIP3    H2 8713   0.097   1.628   3.524
 2903TIP3   OH2 8714   2.806   3.492   2.337
 2903TIP3    H1 8715   2.765   3.409   2.311
 2903TIP3    H2 8716   2.862   3.469   2.411
 2904TIP3   OH2 8717   3.886   0.788   4.838
 2904TIP3    H1 8718   3.897   0.707   4.787
 2904TIP3    H2 8719   3.926   0.856   4.783
 2905TIP3   OH2 8720   1.356   5.767   1.406
 2905TIP3    H1 8721   1.424   5.740   1.345
 2905TIP3    H2 8722   1.370   5.712   1.484
 2906TIP3   OH2 8723   2.650   3.696   4.803
 2906TIP3    H1 8724   2.665   3.620   4.859
 2906TIP3    H2 8725   2.595   3.662   4.732
 2907TIP3   OH2 8726   0.091   5.740   3.217
 2907TIP3    H1 8727   0.082   5.715   3.125
 2907TIP3    H2 8728   0.001   5.745   3.249
 2908TIP3   OH2 8729   0.768   0.886   5.096
 2908TIP3    H1 8730   0.856   0.851   5.084
 2908TIP3    H2 8731   0.753   0.940   5.019
 2909TIP3   OH2 8732   5.540   1.244   0.879
 2909TIP3    H1 8733   5.489   1.298   0.819
 2909TIP3    H2 8734   5.522   1.280   0.965
 2910TIP3   OH2 8735   1.939   3.214   1.057
 2910TIP3    H1 8736   1.845   3.208   1.070
 2910TIP3    H2 8737   1.973   3.128   1.082
 2911TIP3   OH2 8738   4.250   0.957   1.558
 2911TIP3    H1 8739   4.315   0.952   1.488
 2911TIP3    H2 8740   4.212   1.045   1.549
 2912TIP3   OH2 8741   6.210   2.305   1.639
 2912TIP3    H1 8742   6.120   2.272   1.633
 2912TIP3    H2 8743   6.200   2.400   1.646
 2913TIP3   OH2 8744   2.874   5.391   4.413
 2913TIP3    H1 8745   2.844   5.417   4.500
 2913TIP3    H2 8746   2.826   5.310   4.395
 2914TIP3   OH2 8747   4.885   4.269   3.943
 2914TIP3    H1 8748   4.886   4.208   3.869
 2914TIP3    H2 8749   4.879   4.212   4.020
 2915TIP3   OH2 8750   1.785   3.594   2.517
 2915TIP3    H1 8751   1.692   3.573   2.521
 2915TIP3    H2 8752   1.808   3.588   2.424
 2916TIP3   OH2 8753   1.133   1.489   4.949
 2916TIP3    H1 8754   1.070   1.439   4.897
 2916TIP3    H2 8755   1.216   1.443   4.936
 2917TIP3   OH2 8756   2.350   2.799   0.049
 2917TIP3    H1 8757   2.346   2.822   0.142
 2917TIP3    H2 8758   2.424   2.849   0.016
 2918TIP3   OH2 8759   3.768   0.628   5.050
 2918TIP3    H1 8760   3.834   0.561   5.035
 2918TIP3    H2 8761   3.795   0.701   4.995
 2919TIP3   OH2 8762   2.265   0.805   0.735
 2919TIP3    H1 8763   2.296   0.823   0.824
 2919TIP3    H2 8764   2.233   0.890   0.704
 2920TIP3   OH2 8765   0.153   3.841   3.091
 2920TIP3    H1 8766   0.089   3.773   3.109
 2920TIP3    H2 8767   0.175   3.829   2.999
 2921TIP3   OH2 8768   1.080   5.271   1.595
 2921TIP3    H1 8769   1.160   5.227   1.625
 2921TIP3    H2 8770   1.023   5.274   1.673
 2922TIP3   OH2 8771   0.637   3.697   2.016
 2922TIP3    H1 8772   0.619   3.603   2.017
 2922TIP3    H2 8773   0.731   3.704   2.029
 2923TIP3   OH2 8774   0.464   2.973   0.700
 2923TIP3    H1 8775   0.433   3.026   0.626
 2923TIP3    H2 8776   0.556   2.957   0.682
 2924TIP3   OH2 8777   1.169   1.714   1.782
 2924TIP3    H1 8778   1.254   1.731   1.742
 2924TIP3    H2 8779   1.186   1.712   1.876
 2925TIP3   OH2 8780   0.555   2.848   1.250
 2925TIP3    H1 8781   0.518   2.775   1.202
 2925TIP3    H2 8782   0.510   2.925   1.217
 2926TIP3   OH2 8783   1.451   0.385   3.844
 2926TIP3    H1 8784   1.424   0.368   3.934
 2926TIP3    H2 8785   1.488   0.474   3.847
 2927TIP3   OH2 8786   3.255   0.698   3.182
 2927TIP3    H1 8787   3.322   0.748   3.134
 2927TIP3    H2 8788   3.183   0.690   3.120
 2928TIP3   OH2 8789   4.369   2.437   4.064
 2928TIP3    H1 8790   4.393   2.376   3.994
 2928TIP3    H2 8791   4.435   2.423   4.132
 2929TIP3   OH2 8792   2.052   2.282   4.258
 2929TIP3    H1 8793   2.003   2.243   4.330
 2929TIP3    H2 8794   2.052   2.376   4.278
 2930TIP3   OH2 8795   0.360   5.186   3.091
 2930TIP3    H1 8796   0.452   5.174   3.114
 2930TIP3    H2 8797   0.312   5.152   3.167
 2931TIP3   OH2 8798   5.494   1.939   2.028
 2931TIP3    H1 8799   5.487   2.011   2.091
 2931TIP3    H2 8800   5.513   1.862   2.082
 2932TIP3   OH2 8801   4.484   0.023   0.386
 2932TIP3    H1 8802   4.560  -0.035   0.386
 2932TIP3    H2 8803   4.438   0.002   0.305
 2933TIP3   OH2 8804   0.269   2.394   3.248
 2933TIP3    H1 8805   0.195   2.346   3.211
 2933TIP3    H2 8806   0.244   2.486   3.241
 2934TIP3   OH2 8807   1.744   4.481   1.671
 2934TIP3    H1 8808   1.738   4.477   1.767
 2934TIP3    H2 8809   1.781   4.396   1.646
 2935TIP3   OH2 8810   3.098   0.981   0.940
 2935TIP3    H1 8811   3.028   0.983   0.875
 2935TIP3    H2 8812   3.057   1.015   1.020
 2936TIP3   OH2 8813   1.541   0.750   4.265
 2936TIP3    H1 8814   1.530   0.788   4.178
 2936TIP3    H2 8815   1.582   0.819   4.317
 2937TIP3   OH2 8816   5.166   0.739   3.463
 2937TIP3    H1 8817   5.123   0.698   3.538
 2937TIP3    H2 8818   5.257   0.749   3.490
 2938TIP3   OH2 8819   4.754   1.155   4.179
 2938TIP3    H1 8820   4.839   1.166   4.136
 2938TIP3    H2 8821   4.693   1.139   4.108
 2939TIP3   OH2 8822   5.047   5.451   4.961
 2939TIP3    H1 8823   5.118   5.452   4.896
 2939TIP3    H2 8824   4.967   5.465   4.910
 2940TIP3   OH2 8825   4.005   5.431   2.388
 2940TIP3    H1 8826   4.051   5.366   2.334
 2940TIP3    H2 8827   3.927   5.453   2.337
 2941TIP3   OH2 8828   0.661   3.356   0.967
 2941TIP3    H1 8829   0.575   3.318   0.948
 2941TIP3    H2 8830   0.714   3.336   0.890
 2942TIP3   OH2 8831   3.899   4.868   0.562
 2942TIP3    H1 8832   3.853   4.805   0.507
 2942TIP3    H2 8833   3.973   4.897   0.508
 2943TIP3   OH2 8834   3.151   1.805   1.597
 2943TIP3    H1 8835   3.199   1.865   1.654
 2943TIP3    H2 8836   3.068   1.850   1.579
 2944TIP3   OH2 8837   4.960   0.896   3.730
 2944TIP3    H1 8838   4.934   0.898   3.822
 2944TIP3    H2 8839   4.900   0.956   3.687
 2945TIP3   OH2 8840   4.359   3.756   3.033
 2945TIP3    H1 8841   4.434   3.776   3.089
 2945TIP3    H2 8842   4.307   3.836   3.031
 2946TIP3   OH2 8843   1.180   5.710   3.181
 2946TIP3    H1 8844   1.212   5.642   3.241
 2946TIP3    H2 8845   1.165   5.664   3.099
 2947TIP3   OH2 8846   6.057   1.953   0.322
 2947TIP3    H1 8847   5.973   1.924   0.287
 2947TIP3    H2 8848   6.120   1.933   0.252
 2948TIP3   OH2 8849   5.926   4.698   4.628
 2948TIP3    H1 8850   5.903   4.752   4.703
 2948TIP3    H2 8851   5.862   4.722   4.561
 2949TIP3   OH2 8852   4.510   0.788   0.558
 2949TIP3    H1 8853   4.462   0.871   0.568
 2949TIP3    H2 8854   4.445   0.727   0.522
 2950TIP3   OH2 8855   1.397   2.886   4.301
 2950TIP3    H1 8856   1.439   2.914   4.382
 2950TIP3    H2 8857   1.448   2.809   4.274
 2951TIP3   OH2 8858   1.540   0.822   3.182
 2951TIP3    H1 8859   1.530   0.736   3.141
 2951TIP3    H2 8860   1.604   0.868   3.127
 2952TIP3   OH2 8861   5.969   2.123   2.339
 2952TIP3    H1 8862   5.944   2.077   2.259
 2952TIP3    H2 8863   5.947   2.214   2.323
 2953TIP3   OH2 8864   2.996   5.917   3.350
 2953TIP3    H1 8865   3.048   5.861   3.292
 2953TIP3    H2 8866   2.924   5.948   3.296
 2954TIP3   OH2 8867   5.712   3.565   3.342
 2954TIP3    H1 8868   5.801   3.554   3.310
 2954TIP3    H2 8869   5.721   3.573   3.437
 2955TIP3   OH2 8870   5.203   0.260   3.815
 2955TIP3    H1 8871   5.154   0.323   3.763
 2955TIP3    H2 8872   5.143   0.234   3.884
 2956TIP3   OH2 8873   0.834   2.618   0.428
 2956TIP3    H1 8874   0.782   2.698   0.420
 2956TIP3    H2 8875   0.795   2.571   0.502
 2957TIP3   OH2 8876   4.773   5.472   2.750
 2957TIP3    H1 8877   4.765   5.567   2.760
 2957TIP3    H2 8878   4.688   5.437   2.777
 2958TIP3   OH2 8879   5.014   0.727   1.928
 2958TIP3    H1 8880   5.104   0.693   1.923
 2958TIP3    H2 8881   5.018   0.812   1.884
 2959TIP3   OH2 8882   1.588   3.100   5.156
 2959TIP3    H1 8883   1.572   3.140   5.071
 2959TIP3    H2 8884   1.681   3.115   5.173
 2960TIP3   OH2 8885   3.200   2.387   2.792
 2960TIP3    H1 8886   3.264   2.316   2.787
 2960TIP3    H2 8887   3.233   2.453   2.730
 2961TIP3   OH2 8888   0.819   0.383   3.281
 2961TIP3    H1 8889   0.791   0.409   3.194
 2961TIP3    H2 8890   0.765   0.435   3.341
 2962TIP3   OH2 8891   0.479   2.461   2.650
 2962TIP3    H1 8892   0.552   2.428   2.703
 2962TIP3    H2 8893   0.519   2.529   2.596
 2963TIP3   OH2 8894   0.333   0.167   3.125
 2963TIP3    H1 8895   0.391   0.139   3.196
 2963TIP3    H2 8896   0.390   0.214   3.064
 2964TIP3   OH2 8897   6.243   5.942   0.778
 2964TIP3    H1 8898   6.221   5.878   0.846
 2964TIP3    H2 8899   6.299   6.005   0.822
 2965TIP3   OH2 8900   1.949   2.240   0.246
 2965TIP3    H1 8901   1.944   2.223   0.340
 2965TIP3    H2 8902   2.040   2.264   0.230
 2966TIP3   OH2 8903   2.771   3.385   1.933
 2966TIP3    H1 8904   2.738   3.385   2.022
 2966TIP3    H2 8905   2.702   3.342   1.882
 2967TIP3   OH2 8906   4.210   2.494   1.917
 2967TIP3    H1 8907   4.147   2.507   1.846
 2967TIP3    H2 8908   4.173   2.541   1.991
 2968TIP3   OH2 8909   2.605   3.300   1.729
 2968TIP3    H1 8910   2.641   3.294   1.640
 2968TIP3    H2 8911   2.558   3.218   1.741
 2969TIP3   OH2 8912   3.873   0.557   3.064
 2969TIP3    H1 8913   3.799   0.503   3.038
 2969TIP3    H2 8914   3.836   0.622   3.123
 2970TIP3   OH2 8915   6.179   4.128   1.363
 2970TIP3    H1 8916   6.243   4.126   1.292
 2970TIP3    H2 8917   6.173   4.038   1.393
 2971TIP3   OH2 8918   1.065   4.329   1.382
 2971TIP3    H1 8919   1.067   4.244   1.338
 2971TIP3    H2 8920   1.084   4.310   1.473
 2972TIP3   OH2 8921   1.472   2.952   2.053
 2972TIP3    H1 8922   1.387   2.925   2.017
 2972TIP3    H2 8923   1.535   2.892   2.014
 2973TIP3   OH2 8924   0.620   1.843   2.718
 2973TIP3    H1 8925   0.561   1.814   2.648
 2973TIP3    H2 8926   0.647   1.762   2.761
 2974TIP3   OH2 8927   0.257   5.691   2.792
 2974TIP3    H1 8928   0.346   5.683   2.758
 2974TIP3    H2 8929   0.260   5.767   2.849
 2975TIP3   OH2 8930   1.155   4.949   4.182
 2975TIP3    H1 8931   1.203   5.030   4.197
 2975TIP3    H2 8932   1.212   4.899   4.123
 2976TIP3   OH2 8933   0.582   5.928   1.016
 2976TIP3    H1 8934   0.565   5.835   1.000
 2976TIP3    H2 8935   0.569   5.939   1.110
 2977TIP3   OH2 8936   2.115   1.372   4.164
 2977TIP3    H1 8937   2.050   1.383   4.095
 2977TIP3    H2 8938   2.141   1.280   4.158
 2978TIP3   OH2 8939   3.891   5.830   2.809
 2978TIP3    H1 8940   3.898   5.893   2.737
 2978TIP3    H2 8941   3.949   5.758   2.784
 2979TIP3   OH2 8942   3.524   3.233   4.427
 2979TIP3    H1 8943   3.529   3.140   4.406
 2979TIP3    H2 8944   3.465   3.270   4.362
 2980TIP3   OH2 8945   3.884   3.320   0.660
 2980TIP3    H1 8946   3.879   3.231   0.695
 2980TIP3    H2 8947   3.958   3.360   0.706
 2981TIP3   OH2 8948   2.771   4.165   4.541
 2981TIP3    H1 8949   2.723   4.088   4.510
 2981TIP3    H2 8950   2.734   4.184   4.627
 2982TIP3   OH2 8951   2.262   0.570   1.979
 2982TIP3    H1 8952   2.262   0.599   2.070
 2982TIP3    H2 8953   2.336   0.616   1.939
 2983TIP3   OH2 8954   1.607   5.607   3.822
 2983TIP3    H1 8955   1.660   5.535   3.856
 2983TIP3    H2 8956   1.656   5.686   3.846
 2984TIP3   OH2 8957   4.143   3.068   2.779
 2984TIP3    H1 8958   4.156   3.099   2.690
 2984TIP3    H2 8959   4.065   3.013   2.774
 2985TIP3   OH2 8960   5.851   2.041   2.576
 2985TIP3    H1 8961   5.879   2.078   2.492
 2985TIP3    H2 8962   5.824   1.952   2.556
 2986TIP3   OH2 8963   1.896   2.218   2.350
 2986TIP3    H1 8964   1.827   2.153   2.336
 2986TIP3    H2 8965   1.855   2.285   2.405
 2987TIP3   OH2 8966   1.081   2.420   2.258
 2987TIP3    H1 8967   1.033   2.455   2.333
 2987TIP3    H2 8968   1.014   2.401   2.193
 2988TIP3   OH2 8969   5.366   4.849   3.081
 2988TIP3    H1 8970   5.389   4.938   3.107
 2988TIP3    H2 8971   5.271   4.844   3.095
 2989TIP3   OH2 8972   5.016   5.104   3.272
 2989TIP3    H1 8973   5.043   5.180   3.221
 2989TIP3    H2 8974   5.064   5.031   3.233
 2990TIP3   OH2 8975   2.066   5.413   4.284
 2990TIP3    H1 8976   2.063   5.318   4.296
 2990TIP3    H2 8977   2.119   5.426   4.206
 2991TIP3   OH2 8978   5.716   1.732   4.741
 2991TIP3    H1 8979   5.801   1.772   4.757
 2991TIP3    H2 8980   5.720   1.648   4.787
 2992TIP3   OH2 8981   1.657   1.046   1.161
 2992TIP3    H1 8982   1.607   1.050   1.079
 2992TIP3    H2 8983   1.603   1.094   1.224
 2993TIP3   OH2 8984   4.346   1.777   0.747
 2993TIP3    H1 8985   4.262   1.821   0.754
 2993TIP3    H2 8986   4.386   1.813   0.667
 2994TIP3   OH2 8987   3.090   4.669   3.178
 2994TIP3    H1 8988   3.146   4.737   3.142
 2994TIP3    H2 8989   3.086   4.602   3.110
 2995TIP3   OH2 8990   0.307   0.353   3.900
 2995TIP3    H1 8991   0.289   0.322   3.811
 2995TIP3    H2 8992   0.402   0.342   3.911
 2996TIP3   OH2 8993   1.598   3.772   2.930
 2996TIP3    H1 8994   1.642   3.689   2.911
 2996TIP3    H2 8995   1.533   3.751   2.997
 2997TIP3   OH2 8996   1.874   0.426   3.427
 2997TIP3    H1 8997   1.890   0.500   3.486
 2997TIP3    H2 8998   1.848   0.354   3.484
 2998TIP3   OH2 8999   5.541   4.474   2.413
 2998TIP3    H1 9000   5.571   4.554   2.456
 2998TIP3    H2 9001   5.534   4.409   2.483
 2999TIP3   OH2 9002   2.834   1.289   0.692
 2999TIP3    H1 9003   2.817   1.279   0.785
 2999TIP3    H2 9004   2.752   1.265   0.650
 3000TIP3   OH2 9005   1.799   3.533   0.209
 3000TIP3    H1 9006   1.737   3.467   0.177
 3000TIP3    H2 9007   1.808   3.594   0.136
 3001TIP3   OH2 9008   1.513   4.935   1.283
 3001TIP3    H1 9009   1.603   4.966   1.291
 3001TIP3    H2 9010   1.486   4.962   1.196
 3002TIP3   OH2 9011   6.315   2.485   2.377
 3002TIP3    H1 9012   6.382   2.498   2.445
 3002TIP3    H2 9013   6.364   2.487   2.295
 3003TIP3   OH2 9014   0.096   2.242   1.440
 3003TIP3    H1 9015   0.129   2.282   1.521
 3003TIP3    H2 9016   0.175   2.219   1.392
 3004TIP3   OH2 9017   3.870   1.339   1.802
 3004TIP3    H1 9018   3.777   1.332   1.823
 3004TIP3    H2 9019   3.915   1.297   1.875
 3005TIP3   OH2 9020   4.224   2.396   4.659
 3005TIP3    H1 9021   4.283   2.326   4.631
 3005TIP3    H2 9022   4.147   2.350   4.693
 3006TIP3   OH2 9023   5.908   0.076   4.876
 3006TIP3    H1 9024   5.950   0.040   4.798
 3006TIP3    H2 9025   5.979   0.118   4.924
 3007TIP3   OH2 9026   4.789   4.336   5.054
 3007TIP3    H1 9027   4.863   4.285   5.021
 3007TIP3    H2 9028   4.790   4.321   5.148
 3008TIP3   OH2 9029   6.080   5.269   2.591
 3008TIP3    H1 9030   6.140   5.311   2.653
 3008TIP3    H2 9031   6.104   5.307   2.506
 3009TIP3   OH2 9032   4.939   5.351   0.650
 3009TIP3    H1 9033   4.864   5.364   0.707
 3009TIP3    H2 9034   5.014   5.343   0.709
 3010TIP3   OH2 9035   5.237   4.898   4.225
 3010TIP3    H1 9036   5.223   4.911   4.131
 3010TIP3    H2 9037   5.307   4.958   4.248
 3011TIP3   OH2 9038   0.753   1.716   0.940
 3011TIP3    H1 9039   0.836   1.740   0.981
 3011TIP3    H2 9040   0.747   1.621   0.952
 3012TIP3   OH2 9041   6.217   3.351   3.974
 3012TIP3    H1 9042   6.247   3.403   3.899
 3012TIP3    H2 9043   6.291   3.353   4.035
 3013TIP3   OH2 9044   3.529   5.859   2.061
 3013TIP3    H1 9045   3.605   5.817   2.022
 3013TIP3    H2 9046   3.524   5.821   2.149
 3014TIP3   OH2 9047   0.180   1.283   0.664
 3014TIP3    H1 9048   0.210   1.225   0.595
 3014TIP3    H2 9049   0.198   1.371   0.631
 3015TIP3   OH2 9050   3.190   0.771   1.450
 3015TIP3    H1 9051   3.094   0.779   1.459
 3015TIP3    H2 9052   3.215   0.707   1.517
 3016TIP3   OH2 9053   4.463   2.595   3.800
 3016TIP3    H1 9054   4.547   2.570   3.838
 3016TIP3    H2 9055   4.467   2.691   3.794
 3017TIP3   OH2 9056   3.252   2.656   4.806
 3017TIP3    H1 9057   3.168   2.619   4.833
 3017TIP3    H2 9058   3.285   2.699   4.885
 3018TIP3   OH2 9059   2.495   5.593   4.157
 3018TIP3    H1 9060   2.470   5.684   4.171
 3018TIP3    H2 9061   2.443   5.543   4.220
 3019TIP3   OH2 9062   6.318   5.207   4.259
 3019TIP3    H1 9063   6.385   5.259   4.216
 3019TIP3    H2 9064   6.245   5.206   4.198
 3020TIP3   OH2 9065   3.075   3.913   0.276
 3020TIP3    H1 9066   3.137   3.843   0.296
 3020TIP3    H2 9067   3.025   3.925   0.357
 3021TIP3   OH2 9068   2.871   1.479   2.966
 3021TIP3    H1 9069   2.833   1.405   3.015
 3021TIP3    H2 9070   2.841   1.556   3.014
 3022TIP3   OH2 9071   3.933   2.341   3.958
 3022TIP3    H1 9072   3.996   2.365   4.025
 3022TIP3    H2 9073   3.848   2.356   3.998
 3023TIP3   OH2 9074   1.453   2.785   3.095
 3023TIP3    H1 9075   1.495   2.812   3.014
 3023TIP3    H2 9076   1.524   2.780   3.159
 3024TIP3   OH2 9077   1.745   5.606   4.710
 3024TIP3    H1 9078   1.762   5.511   4.716
 3024TIP3    H2 9079   1.783   5.642   4.790
 3025TIP3   OH2 9080   3.092   5.436   3.354
 3025TIP3    H1 9081   3.022   5.501   3.355
 3025TIP3    H2 9082   3.070   5.375   3.425
 3026TIP3   OH2 9083   5.704   5.055   0.242
 3026TIP3    H1 9084   5.796   5.057   0.268
 3026TIP3    H2 9085   5.696   4.977   0.187
 3027TIP3   OH2 9086   4.162   1.162   3.385
 3027TIP3    H1 9087   4.087   1.205   3.426
 3027TIP3    H2 9088   4.141   1.161   3.292
 3028TIP3   OH2 9089   5.759   0.635   1.202
 3028TIP3    H1 9090   5.732   0.673   1.118
 3028TIP3    H2 9091   5.806   0.705   1.247
 3029TIP3   OH2 9092   5.652   2.532   3.857
 3029TIP3    H1 9093   5.661   2.584   3.777
 3029TIP3    H2 9094   5.641   2.597   3.927
 3030TIP3   OH2 9095   0.517   2.199   2.033
 3030TIP3    H1 9096   0.516   2.238   1.945
 3030TIP3    H2 9097   0.477   2.265   2.089
 3031TIP3   OH2 9098   4.980   5.091   4.405
 3031TIP3    H1 9099   5.052   5.148   4.431
 3031TIP3    H2 9100   5.009   5.003   4.429
 3032TIP3   OH2 9101   0.375   4.372   1.570
 3032TIP3    H1 9102   0.327   4.432   1.628
 3032TIP3    H2 9103   0.317   4.296   1.562
 3033TIP3   OH2 9104   2.968   1.645   2.763
 3033TIP3    H1 9105   2.897   1.708   2.751
 3033TIP3    H2 9106   2.924   1.564   2.789
 3034TIP3   OH2 9107   1.368   0.641   3.631
 3034TIP3    H1 9108   1.450   0.639   3.582
 3034TIP3    H2 9109   1.315   0.572   3.592
 3035TIP3   OH2 9110   6.160   3.965   4.330
 3035TIP3    H1 9111   6.154   3.990   4.422
 3035TIP3    H2 9112   6.201   4.041   4.288
 3036TIP3   OH2 9113   4.522   2.301   4.246
 3036TIP3    H1 9114   4.577   2.325   4.320
 3036TIP3    H2 9115   4.575   2.241   4.194
 3037TIP3   OH2 9116   2.527   5.103   4.883
 3037TIP3    H1 9117   2.523   5.111   4.788
 3037TIP3    H2 9118   2.498   5.188   4.916
 3038TIP3   OH2 9119   2.348   3.608   1.751
 3038TIP3    H1 9120   2.293   3.670   1.801
 3038TIP3    H2 9121   2.299   3.592   1.671
 3039TIP3   OH2 9122   5.860   1.000   4.230
 3039TIP3    H1 9123   5.813   0.972   4.309
 3039TIP3    H2 9124   5.801   0.977   4.158
 3040TIP3   OH2 9125   4.855   2.183   3.568
 3040TIP3    H1 9126   4.900   2.110   3.527
 3040TIP3    H2 9127   4.788   2.143   3.623
 3041TIP3   OH2 9128   5.762   0.344   3.625
 3041TIP3    H1 9129   5.724   0.391   3.551
 3041TIP3    H2 9130   5.693   0.342   3.691
 3042TIP3   OH2 9131   0.293   4.493   2.615
 3042TIP3    H1 9132   0.378   4.533   2.598
 3042TIP3    H2 9133   0.261   4.466   2.529
 3043TIP3   OH2 9134   6.295   0.295   4.195
 3043TIP3    H1 9135   6.208   0.256   4.194
 3043TIP3    H2 9136   6.355   0.220   4.202
 3044TIP3   OH2 9137   2.874   2.412   1.808
 3044TIP3    H1 9138   2.945   2.451   1.757
 3044TIP3    H2 9139   2.866   2.468   1.885
 3045TIP3   OH2 9140   2.839   4.422   3.332
 3045TIP3    H1 9141   2.867   4.423   3.240
 3045TIP3    H2 9142   2.816   4.330   3.349
 3046TIP3   OH2 9143   6.378   1.349   4.564
 3046TIP3    H1 9144   6.366   1.429   4.614
 3046TIP3    H2 9145   6.323   1.361   4.486
 3047TIP3   OH2 9146   3.019   1.507   4.203
 3047TIP3    H1 9147   3.016   1.581   4.264
 3047TIP3    H2 9148   2.939   1.515   4.151
 3048TIP3   OH2 9149   4.587   4.512   2.770
 3048TIP3    H1 9150   4.498   4.482   2.757
 3048TIP3    H2 9151   4.581   4.607   2.767
 3049TIP3   OH2 9152   0.638   1.223   3.283
 3049TIP3    H1 9153   0.654   1.239   3.376
 3049TIP3    H2 9154   0.724   1.197   3.248
 3050TIP3   OH2 9155   0.562   0.777   3.533
 3050TIP3    H1 9156   0.627   0.837   3.497
 3050TIP3    H2 9157   0.538   0.815   3.617
 3051TIP3   OH2 9158   4.146   1.513   4.717
 3051TIP3    H1 9159   4.151   1.513   4.621
 3051TIP3    H2 9160   4.235   1.533   4.745
 3052TIP3   OH2 9161   1.647   5.162   0.364
 3052TIP3    H1 9162   1.604   5.195   0.285
 3052TIP3    H2 9163   1.575   5.133   0.420
 3053TIP3   OH2 9164   3.503   0.594   2.559
 3053TIP3    H1 9165   3.465   0.561   2.477
 3053TIP3    H2 9166   3.490   0.522   2.621
 3054TIP3   OH2 9167   1.285   1.080   3.248
 3054TIP3    H1 9168   1.346   1.034   3.306
 3054TIP3    H2 9169   1.249   1.150   3.302
 3055TIP3   OH2 9170   5.125   4.993   1.691
 3055TIP3    H1 9171   5.193   5.049   1.727
 3055TIP3    H2 9172   5.052   5.000   1.753
 3056TIP3   OH2 9173   1.526   0.186   3.668
 3056TIP3    H1 9174   1.503   0.268   3.712
 3056TIP3    H2 9175   1.487   0.118   3.723
 3057TIP3   OH2 9176   1.221   4.476   3.585
 3057TIP3    H1 9177   1.250   4.389   3.559
 3057TIP3    H2 9178   1.301   4.529   3.584
 3058TIP3   OH2 9179   5.313   5.125   4.948
 3058TIP3    H1 9180   5.220   5.106   4.956
 3058TIP3    H2 9181   5.353   5.081   5.023
 3059TIP3   OH2 9182   1.040   3.621   5.149
 3059TIP3    H1 9183   1.123   3.573   5.155
 3059TIP3    H2 9184   1.008   3.602   5.061
 3060TIP3   OH2 9185   5.140   5.169   1.489
 3060TIP3    H1 9186   5.115   5.109   1.559
 3060TIP3    H2 9187   5.219   5.212   1.521
 3061TIP3   OH2 9188   2.070   1.466   2.634
 3061TIP3    H1 9189   2.125   1.423   2.569
 3061TIP3    H2 9190   2.115   1.547   2.656
 3062TIP3   OH2 9191   3.443   2.230   0.805
 3062TIP3    H1 9192   3.498   2.164   0.848
 3062TIP3    H2 9193   3.355   2.194   0.809
 3063TIP3   OH2 9194   5.625   3.965   1.718
 3063TIP3    H1 9195   5.646   3.877   1.750
 3063TIP3    H2 9196   5.586   4.009   1.794
 3064TIP3   OH2 9197   5.241   4.199   3.670
 3064TIP3    H1 9198   5.206   4.124   3.718
 3064TIP3    H2 9199   5.167   4.259   3.660
 3065TIP3   OH2 9200   5.658   4.267   3.132
 3065TIP3    H1 9201   5.580   4.320   3.147
 3065TIP3    H2 9202   5.720   4.295   3.200
 3066TIP3   OH2 9203   4.435   0.503   0.960
 3066TIP3    H1 9204   4.496   0.550   0.903
 3066TIP3    H2 9205   4.362   0.478   0.903
 3067TIP3   OH2 9206   4.173   3.234   0.453
 3067TIP3    H1 9207   4.228   3.209   0.379
 3067TIP3    H2 9208   4.173   3.158   0.511
 3068TIP3   OH2 9209   3.324   1.174   4.925
 3068TIP3    H1 9210   3.302   1.265   4.902
 3068TIP3    H2 9211   3.333   1.176   5.020
 3069TIP3   OH2 9212   1.775   1.213   0.602
 3069TIP3    H1 9213   1.710   1.171   0.544
 3069TIP3    H2 9214   1.809   1.286   0.550
 3070TIP3   OH2 9215   2.628   3.193   4.318
 3070TIP3    H1 9216   2.546   3.222   4.359
 3070TIP3    H2 9217   2.603   3.171   4.228
 3071TIP3   OH2 9218   0.051   5.360   4.030
 3071TIP3    H1 9219   0.083   5.283   3.983
 3071TIP3    H2 9220   0.107   5.431   4.000
 3072TIP3   OH2 9221   1.336   4.928   3.886
 3072TIP3    H1 9222   1.298   4.879   3.814
 3072TIP3    H2 9223   1.403   4.870   3.922
 3073TIP3   OH2 9224   4.668   0.352   0.470
 3073TIP3    H1 9225   4.744   0.343   0.527
 3073TIP3    H2 9226   4.594   0.330   0.525
 3074TIP3   OH2 9227   6.100   5.587   2.515
 3074TIP3    H1 9228   6.022   5.609   2.464
 3074TIP3    H2 9229   6.166   5.566   2.449
 3075TIP3   OH2 9230   3.862   5.566   5.054
 3075TIP3    H1 9231   3.915   5.555   5.133
 3075TIP3    H2 9232   3.924   5.600   4.989
 3076TIP3   OH2 9233   3.608   0.309   3.475
 3076TIP3    H1 9234   3.651   0.279   3.396
 3076TIP3    H2 9235   3.535   0.249   3.488
 3077TIP3   OH2 9236   2.930   3.416   3.371
 3077TIP3    H1 9237   2.980   3.391   3.449
 3077TIP3    H2 9238   2.839   3.401   3.394
 3078TIP3   OH2 9239   6.013   2.505   4.961
 3078TIP3    H1 9240   6.007   2.539   5.050
 3078TIP3    H2 9241   5.924   2.511   4.926
 3079TIP3   OH2 9242   1.454   5.286   3.525
 3079TIP3    H1 9243   1.362   5.294   3.499
 3079TIP3    H2 9244   1.456   5.315   3.616
 3080TIP3   OH2 9245   2.679   0.336   3.807
 3080TIP3    H1 9246   2.667   0.431   3.806
 3080TIP3    H2 9247   2.662   0.310   3.897
 3081TIP3   OH2 9248   2.950   5.604   2.245
 3081TIP3    H1 9249   2.910   5.688   2.267
 3081TIP3    H2 9250   2.977   5.567   2.330
 3082TIP3   OH2 9251   1.389   0.433   4.974
 3082TIP3    H1 9252   1.367   0.465   5.061
 3082TIP3    H2 9253   1.347   0.496   4.915
 3083TIP3   OH2 9254   1.420   1.933   3.586
 3083TIP3    H1 9255   1.416   2.010   3.529
 3083TIP3    H2 9256   1.331   1.899   3.588
 3084TIP3   OH2 9257   2.264   5.134   4.261
 3084TIP3    H1 9258   2.282   5.042   4.244
 3084TIP3    H2 9259   2.169   5.138   4.273
 3085TIP3   OH2 9260   3.296   1.471   4.916
 3085TIP3    H1 9261   3.273   1.549   4.865
 3085TIP3    H2 9262   3.351   1.505   4.988
 3086TIP3   OH2 9263   1.233   5.249   1.173
 3086TIP3    H1 9264   1.294   5.239   1.246
 3086TIP3    H2 9265   1.151   5.277   1.213
 3087TIP3   OH2 9266   3.679   0.720   0.166
 3087TIP3    H1 9267   3.686   0.631   0.201
 3087TIP3    H2 9268   3.761   0.763   0.192
 3088TIP3   OH2 9269   1.563   0.302   3.212
 3088TIP3    H1 9270   1.636   0.290   3.151
 3088TIP3    H2 9271   1.536   0.213   3.235
 3089TIP3   OH2 9272   4.031   0.837   2.033
 3089TIP3    H1 9273   4.125   0.854   2.039
 3089TIP3    H2 9274   4.000   0.844   2.124
 3090TIP3   OH2 9275   5.748   1.785   2.545
 3090TIP3    H1 9276   5.729   1.775   2.452
 3090TIP3    H2 9277   5.797   1.705   2.568
 3091TIP3   OH2 9278   0.769   5.816   0.688
 3091TIP3    H1 9279   0.837   5.785   0.630
 3091TIP3    H2 9280   0.714   5.872   0.633
 3092TIP3   OH2 9281   2.499   0.366   3.405
 3092TIP3    H1 9282   2.433   0.310   3.447
 3092TIP3    H2 9283   2.451   0.443   3.377
 3093TIP3   OH2 9284   2.803   4.945   0.895
 3093TIP3    H1 9285   2.760   4.985   0.970
 3093TIP3    H2 9286   2.830   4.859   0.926
 3094TIP3   OH2 9287   0.849   1.418   0.014
 3094TIP3    H1 9288   0.779   1.406  -0.050
 3094TIP3    H2 9289   0.853   1.336   0.063
 3095TIP3   OH2 9290   5.953   3.748   1.038
 3095TIP3    H1 9291   5.929   3.793   1.119
 3095TIP3    H2 9292   5.871   3.709   1.008
 3096TIP3   OH2 9293   1.003   4.761   1.187
 3096TIP3    H1 9294   1.065   4.833   1.179
 3096TIP3    H2 9295   1.032   4.713   1.265
 3097TIP3   OH2 9296   0.383   2.339   3.952
 3097TIP3    H1 9297   0.472   2.355   3.983
 3097TIP3    H2 9298   0.332   2.325   4.032
 3098TIP3   OH2 9299   5.359   5.564   3.213
 3098TIP3    H1 9300   5.321   5.617   3.142
 3098TIP3    H2 9301   5.415   5.625   3.261
 3099TIP3   OH2 9302   2.495   1.875   3.337
 3099TIP3    H1 9303   2.438   1.894   3.263
 3099TIP3    H2 9304   2.546   1.799   3.309
 3100TIP3   OH2 9305   4.559   2.330   1.374
 3100TIP3    H1 9306   4.537   2.422   1.387
 3100TIP3    H2 9307   4.643   2.332   1.327
 3101TIP3   OH2 9308   0.965   0.547   3.519
 3101TIP3    H1 9309   1.037   0.594   3.476
 3101TIP3    H2 9310   1.001   0.519   3.603
 3102TIP3   OH2 9311   2.475   5.843   2.850
 3102TIP3    H1 9312   2.492   5.892   2.770
 3102TIP3    H2 9313   2.380   5.845   2.861
 3103TIP3   OH2 9314   2.321   3.420   2.226
 3103TIP3    H1 9315   2.304   3.506   2.264
 3103TIP3    H2 9316   2.392   3.435   2.164
 3104TIP3   OH2 9317   0.346   3.495   2.519
 3104TIP3    H1 9318   0.250   3.494   2.526
 3104TIP3    H2 9319   0.375   3.422   2.575
 3105TIP3   OH2 9320   2.613   0.861   4.964
 3105TIP3    H1 9321   2.618   0.824   4.876
 3105TIP3    H2 9322   2.652   0.794   5.021
 3106TIP3   OH2 9323   2.614   0.814   0.061
 3106TIP3    H1 9324   2.639   0.744   0.121
 3106TIP3    H2 9325   2.587   0.886   0.117
 3107TIP3   OH2 9326   3.586   1.685   0.604
 3107TIP3    H1 9327   3.545   1.680   0.518
 3107TIP3    H2 9328   3.561   1.771   0.638
 3108TIP3   OH2 9329   1.969   4.889   2.364
 3108TIP3    H1 9330   1.973   4.798   2.393
 3108TIP3    H2 9331   1.911   4.887   2.287
 3109TIP3   OH2 9332   4.198   0.630   2.591
 3109TIP3    H1 9333   4.140   0.632   2.515
 3109TIP3    H2 9334   4.143   0.595   2.661
 3110TIP3   OH2 9335   5.122   4.914   0.900
 3110TIP3    H1 9336   5.177   4.928   0.976
 3110TIP3    H2 9337   5.183   4.912   0.826
 3111TIP3   OH2 9338   4.297   4.143   3.295
 3111TIP3    H1 9339   4.282   4.113   3.205
 3111TIP3    H2 9340   4.270   4.234   3.296
 3112TIP3   OH2 9341   5.136   0.815   4.647
 3112TIP3    H1 9342   5.203   0.763   4.691
 3112TIP3    H2 9343   5.163   0.816   4.555
 3113TIP3   OH2 9344   0.814   1.265   1.608
 3113TIP3    H1 9345   0.828   1.358   1.591
 3113TIP3    H2 9346   0.861   1.220   1.537
 3114TIP3   OH2 9347   1.922   2.080   0.013
 3114TIP3    H1 9348   1.917   2.132  -0.068
 3114TIP3    H2 9349   1.936   2.144   0.082
 3115TIP3   OH2 9350   3.578   5.412   0.136
 3115TIP3    H1 9351   3.661   5.387   0.095
 3115TIP3    H2 9352   3.521   5.436   0.062
 3116TIP3   OH2 9353   5.316   2.151   0.066
 3116TIP3    H1 9354   5.317   2.170   0.160
 3116TIP3    H2 9355   5.300   2.235   0.024
 3117TIP3   OH2 9356   3.456   0.174   4.666
 3117TIP3    H1 9357   3.536   0.144   4.708
 3117TIP3    H2 9358   3.409   0.223   4.734
 3118TIP3   OH2 9359   4.122   2.993   2.176
 3118TIP3    H1 9360   4.062   3.009   2.103
 3118TIP3    H2 9361   4.190   3.059   2.166
 3119TIP3   OH2 9362   1.295   3.043   0.793
 3119TIP3    H1 9363   1.240   2.987   0.739
 3119TIP3    H2 9364   1.328   3.109   0.733
 3120TIP3   OH2 9365   3.405   2.202   2.794
 3120TIP3    H1 9366   3.470   2.191   2.726
 3120TIP3    H2 9367   3.442   2.159   2.871
 3121TIP3   OH2 9368   0.214   0.114   2.296
 3121TIP3    H1 9369   0.185   0.066   2.373
 3121TIP3    H2 9370   0.180   0.063   2.222
 3122TIP3   OH2 9371   6.242   3.700   4.395
 3122TIP3    H1 9372   6.198   3.780   4.367
 3122TIP3    H2 9373   6.173   3.648   4.435
 3123TIP3   OH2 9374   2.903   2.267   1.193
 3123TIP3    H1 9375   2.950   2.350   1.198
 3123TIP3    H2 9376   2.971   2.203   1.170
 3124TIP3   OH2 9377   2.634   5.639   2.694
 3124TIP3    H1 9378   2.613   5.643   2.787
 3124TIP3    H2 9379   2.676   5.723   2.675
 3125TIP3   OH2 9380   0.070   4.572   1.455
 3125TIP3    H1 9381   0.118   4.625   1.518
 3125TIP3    H2 9382   0.091   4.611   1.370
 3126TIP3   OH2 9383   0.795   3.269   5.035
 3126TIP3    H1 9384   0.811   3.356   4.999
 3126TIP3    H2 9385   0.880   3.225   5.029
 3127TIP3   OH2 9386   4.748   3.894   1.488
 3127TIP3    H1 9387   4.749   3.813   1.437
 3127TIP3    H2 9388   4.840   3.908   1.512
 3128TIP3   OH2 9389   1.068   2.586   0.984
 3128TIP3    H1 9390   1.102   2.497   0.995
 3128TIP3    H2 9391   1.124   2.640   1.039
 3129TIP3   OH2 9392   2.804   1.722   1.238
 3129TIP3    H1 9393   2.881   1.667   1.249
 3129TIP3    H2 9394   2.734   1.661   1.216
 3130TIP3   OH2 9395   4.870   1.482   4.111
 3130TIP3    H1 9396   4.886   1.390   4.090
 3130TIP3    H2 9397   4.870   1.527   4.027
 3131TIP3   OH2 9398   0.668   4.928   5.011
 3131TIP3    H1 9399   0.584   4.920   4.966
 3131TIP3    H2 9400   0.715   4.847   4.990
 3132TIP3   OH2 9401   3.285   5.437   2.409
 3132TIP3    H1 9402   3.341   5.476   2.475
 3132TIP3    H2 9403   3.325   5.353   2.389
 3133TIP3   OH2 9404   1.467   3.114   3.753
 3133TIP3    H1 9405   1.493   3.028   3.785
 3133TIP3    H2 9406   1.373   3.105   3.736
 3134TIP3   OH2 9407   4.782   0.006   2.547
 3134TIP3    H1 9408   4.821   0.090   2.523
 3134TIP3    H2 9409   4.689   0.027   2.561
 3135TIP3   OH2 9410   4.487   1.586   1.106
 3135TIP3    H1 9411   4.414   1.551   1.056
 3135TIP3    H2 9412   4.479   1.681   1.096
 3136TIP3   OH2 9413   1.783   2.222   0.833
 3136TIP3    H1 9414   1.791   2.259   0.746
 3136TIP3    H2 9415   1.689   2.224   0.851
 3137TIP3   OH2 9416   2.943   4.055   1.997
 3137TIP3    H1 9417   3.019   4.098   2.036
 3137TIP3    H2 9418   2.962   4.055   1.903
 3138TIP3   OH2 9419   5.370   4.277   2.662
 3138TIP3    H1 9420   5.392   4.364   2.697
 3138TIP3    H2 9421   5.401   4.216   2.729
 3139TIP3   OH2 9422   0.878   3.492   4.914
 3139TIP3    H1 9423   0.799   3.521   4.867
 3139TIP3    H2 9424   0.947   3.492   4.847
 3140TIP3   OH2 9425   0.453   0.159   0.393
 3140TIP3    H1 9426   0.539   0.116   0.385
 3140TIP3    H2 9427   0.432   0.186   0.303
 3141TIP3   OH2 9428   6.143   3.156   3.542
 3141TIP3    H1 9429   6.127   3.244   3.506
 3141TIP3    H2 9430   6.210   3.170   3.609
 3142TIP3   OH2 9431   0.531   1.037   0.761
 3142TIP3    H1 9432   0.588   0.974   0.717
 3142TIP3    H2 9433   0.449   0.990   0.776
 3143TIP3   OH2 9434   4.789   0.555   2.278
 3143TIP3    H1 9435   4.698   0.553   2.307
 3143TIP3    H2 9436   4.811   0.648   2.274
 3144TIP3   OH2 9437   0.997   2.190   4.037
 3144TIP3    H1 9438   1.024   2.117   3.982
 3144TIP3    H2 9439   0.902   2.197   4.023
 3145TIP3   OH2 9440   3.295   0.203   3.226
 3145TIP3    H1 9441   3.303   0.242   3.139
 3145TIP3    H2 9442   3.240   0.126   3.213
 3146TIP3   OH2 9443   4.974   4.427   1.420
 3146TIP3    H1 9444   5.030   4.505   1.426
 3146TIP3    H2 9445   4.945   4.425   1.329
 3147TIP3   OH2 9446   3.665   0.482   3.779
 3147TIP3    H1 9447   3.596   0.517   3.722
 3147TIP3    H2 9448   3.742   0.535   3.758
 3148TIP3   OH2 9449   2.723   0.474   2.321
 3148TIP3    H1 9450   2.709   0.431   2.237
 3148TIP3    H2 9451   2.645   0.527   2.335
 3149TIP3   OH2 9452   1.985   5.147   4.342
 3149TIP3    H1 9453   1.971   5.108   4.256
 3149TIP3    H2 9454   2.024   5.077   4.394
 3150TIP3   OH2 9455   2.552   5.864   1.517
 3150TIP3    H1 9456   2.605   5.925   1.465
 3150TIP3    H2 9457   2.462   5.884   1.492
 3151TIP3   OH2 9458   3.290   1.457   4.139
 3151TIP3    H1 9459   3.195   1.466   4.143
 3151TIP3    H2 9460   3.312   1.471   4.046
 3152TIP3   OH2 9461   4.129   4.942   0.104
 3152TIP3    H1 9462   4.146   4.909   0.016
 3152TIP3    H2 9463   4.199   5.006   0.119
 3153TIP3   OH2 9464   0.970   2.682   5.175
 3153TIP3    H1 9465   1.049   2.720   5.213
 3153TIP3    H2 9466   0.998   2.596   5.143
 3154TIP3   OH2 9467   0.439   1.708   4.417
 3154TIP3    H1 9468   0.502   1.735   4.351
 3154TIP3    H2 9469   0.479   1.731   4.501
 3155TIP3   OH2 9470   4.370   1.965   2.598
 3155TIP3    H1 9471   4.364   2.040   2.539
 3155TIP3    H2 9472   4.283   1.927   2.597
 3156TIP3   OH2 9473   0.943   1.951   0.362
 3156TIP3    H1 9474   0.905   2.027   0.406
 3156TIP3    H2 9475   0.910   1.955   0.273
 3157TIP3   OH2 9476   1.128   0.155   5.103
 3157TIP3    H1 9477   1.160   0.206   5.177
 3157TIP3    H2 9478   1.204   0.145   5.045
 3158TIP3   OH2 9479   2.679   1.351   0.146
 3158TIP3    H1 9480   2.736   1.296   0.200
 3158TIP3    H2 9481   2.591   1.334   0.180
 3159TIP3   OH2 9482   1.973   2.125   1.490
 3159TIP3    H1 9483   1.928   2.043   1.506
 3159TIP3    H2 9484   1.948   2.150   1.401
 3160TIP3   OH2 9485   3.852   2.359   1.331
 3160TIP3    H1 9486   3.933   2.410   1.341
 3160TIP3    H2 9487   3.878   2.270   1.357
 3161TIP3   OH2 9488   3.259   3.370   0.102
 3161TIP3    H1 9489   3.344   3.413   0.087
 3161TIP3    H2 9490   3.194   3.437   0.082
 3162TIP3   OH2 9491   6.099   0.786   1.156
 3162TIP3    H1 9492   6.026   0.823   1.106
 3162TIP3    H2 9493   6.177   0.811   1.106
 3163TIP3   OH2 9494   4.610   2.033   1.949
 3163TIP3    H1 9495   4.679   2.040   1.883
 3163TIP3    H2 9496   4.646   1.974   2.015
 3164TIP3   OH2 9497   5.706   1.629   2.950
 3164TIP3    H1 9498   5.647   1.645   3.025
 3164TIP3    H2 9499   5.650   1.637   2.873
 3165TIP3   OH2 9500   6.137   5.502   4.082
 3165TIP3    H1 9501   6.086   5.472   4.157
 3165TIP3    H2 9502   6.213   5.444   4.080
 3166TIP3   OH2 9503   2.117   4.711   4.103
 3166TIP3    H1 9504   2.207   4.682   4.119
 3166TIP3    H2 9505   2.093   4.671   4.020
 3167TIP3   OH2 9506   5.592   5.388   0.682
 3167TIP3    H1 9507   5.639   5.322   0.632
 3167TIP3    H2 9508   5.504   5.389   0.643
 3168TIP3   OH2 9509   0.952   3.680   3.030
 3168TIP3    H1 9510   0.989   3.675   2.942
 3168TIP3    H2 9511   1.028   3.682   3.088
 3169TIP3   OH2 9512   0.306   5.675   4.694
 3169TIP3    H1 9513   0.379   5.717   4.647
 3169TIP3    H2 9514   0.239   5.743   4.700
 3170TIP3   OH2 9515   3.757   4.704   3.259
 3170TIP3    H1 9516   3.714   4.632   3.306
 3170TIP3    H2 9517   3.748   4.780   3.317
 3171TIP3   OH2 9518   1.098   4.530   3.261
 3171TIP3    H1 9519   1.022   4.486   3.225
 3171TIP3    H2 9520   1.125   4.476   3.335
 3172TIP3   OH2 9521   5.532   2.353   1.868
 3172TIP3    H1 9522   5.472   2.305   1.811
 3172TIP3    H2 9523   5.596   2.391   1.808
 3173TIP3   OH2 9524   2.671   2.528   2.867
 3173TIP3    H1 9525   2.598   2.472   2.842
 3173TIP3    H2 9526   2.652   2.553   2.957
 3174TIP3   OH2 9527   4.219   5.945   4.510
 3174TIP3    H1 9528   4.158   5.872   4.496
 3174TIP3    H2 9529   4.196   6.009   4.443
 3175TIP3   OH2 9530   1.155   1.324   4.430
 3175TIP3    H1 9531   1.090   1.291   4.491
 3175TIP3    H2 9532   1.239   1.301   4.470
 3176TIP3   OH2 9533   6.249   0.804   4.681
 3176TIP3    H1 9534   6.325   0.827   4.736
 3176TIP3    H2 9535   6.194   0.750   4.738
 3177TIP3   OH2 9536   6.215   3.867   1.396
 3177TIP3    H1 9537   6.274   3.822   1.336
 3177TIP3    H2 9538   6.269   3.884   1.473
 3178TIP3   OH2 9539   5.180   5.160   2.969
 3178TIP3    H1 9540   5.086   5.143   2.976
 3178TIP3    H2 9541   5.202   5.203   3.051
 3179TIP3   OH2 9542   0.670   4.995   0.784
 3179TIP3    H1 9543   0.762   4.987   0.760
 3179TIP3    H2 9544   0.653   5.089   0.785
 3180TIP3   OH2 9545   4.985   5.131   0.256
 3180TIP3    H1 9546   4.950   5.075   0.187
 3180TIP3    H2 9547   4.982   5.077   0.335
 3181TIP3   OH2 9548   2.904   3.774   4.699
 3181TIP3    H1 9549   2.934   3.805   4.785
 3181TIP3    H2 9550   2.817   3.737   4.717
 3182TIP3   OH2 9551   5.734   4.817   4.472
 3182TIP3    H1 9552   5.764   4.818   4.381
 3182TIP3    H2 9553   5.698   4.905   4.486
 3183TIP3   OH2 9554   5.794   5.258   2.013
 3183TIP3    H1 9555   5.852   5.313   2.066
 3183TIP3    H2 9556   5.782   5.179   2.065
 3184TIP3   OH2 9557   1.083   4.476   4.922
 3184TIP3    H1 9558   1.167   4.441   4.892
 3184TIP3    H2 9559   1.035   4.497   4.841
 3185TIP3   OH2 9560   5.634   4.459   4.163
 3185TIP3    H1 9561   5.661   4.414   4.243
 3185TIP3    H2 9562   5.614   4.548   4.191
 3186TIP3   OH2 9563   3.593   4.014   5.058
 3186TIP3    H1 9564   3.647   4.015   5.137
 3186TIP3    H2 9565   3.654   3.989   4.987
 3187TIP3   OH2 9566   3.070   3.355   0.527
 3187TIP3    H1 9567   3.026   3.308   0.598
 3187TIP3    H2 9568   3.150   3.306   0.511
 3188TIP3   OH2 9569   5.782   4.256   0.616
 3188TIP3    H1 9570   5.791   4.350   0.631
 3188TIP3    H2 9571   5.692   4.245   0.585
 3189TIP3   OH2 9572   0.448   1.170   0.145
 3189TIP3    H1 9573   0.423   1.086   0.184
 3189TIP3    H2 9574   0.440   1.233   0.217
 3190TIP3   OH2 9575   0.837   3.323   1.410
 3190TIP3    H1 9576   0.753   3.358   1.441
 3190TIP3    H2 9577   0.829   3.322   1.314
 3191TIP3   OH2 9578   2.187   1.482   0.224
 3191TIP3    H1 9579   2.249   1.553   0.211
 3191TIP3    H2 9580   2.112   1.522   0.267
 3192TIP3   OH2 9581   4.893   1.111   3.572
 3192TIP3    H1 9582   4.921   1.057   3.498
 3192TIP3    H2 9583   4.817   1.158   3.539
 3193TIP3   OH2 9584   5.501   4.358   1.380
 3193TIP3    H1 9585   5.470   4.318   1.462
 3193TIP3    H2 9586   5.429   4.416   1.354
 3194TIP3   OH2 9587   1.072   0.232   3.474
 3194TIP3    H1 9588   1.080   0.279   3.392
 3194TIP3    H2 9589   1.138   0.271   3.531
 3195TIP3   OH2 9590   3.076   5.456   0.612
 3195TIP3    H1 9591   3.168   5.473   0.592
 3195TIP3    H2 9592   3.028   5.518   0.557
 3196TIP3   OH2 9593   4.605   4.454   3.231
 3196TIP3    H1 9594   4.634   4.494   3.313
 3196TIP3    H2 9595   4.594   4.528   3.171
 3197TIP3   OH2 9596   0.331   1.831   0.556
 3197TIP3    H1 9597   0.291   1.744   0.567
 3197TIP3    H2 9598   0.423   1.812   0.537
 3198TIP3   OH2 9599   2.395   0.790   1.859
 3198TIP3    H1 9600   2.357   0.771   1.774
 3198TIP3    H2 9601   2.435   0.876   1.850
 3199TIP3   OH2 9602   4.132   1.863   0.108
 3199TIP3    H1 9603   4.052   1.810   0.111
 3199TIP3    H2 9604   4.169   1.845   0.021
 3200TIP3   OH2 9605   0.591   2.904   3.337
 3200TIP3    H1 9606   0.576   2.810   3.324
 3200TIP3    H2 9607   0.653   2.909   3.410
 3201TIP3   OH2 9608   3.980   1.479   2.759
 3201TIP3    H1 9609   3.958   1.562   2.800
 3201TIP3    H2 9610   4.061   1.496   2.711
 3202TIP3   OH2 9611   0.364   0.808   3.337
 3202TIP3    H1 9612   0.445   0.777   3.377
 3202TIP3    H2 9613   0.315   0.728   3.316
 3203TIP3   OH2 9614   0.173   1.075   3.168
 3203TIP3    H1 9615   0.251   1.087   3.222
 3203TIP3    H2 9616   0.202   1.022   3.094
 3204TIP3   OH2 9617   4.314   0.089   4.680
 3204TIP3    H1 9618   4.307  -0.006   4.676
 3204TIP3    H2 9619   4.300   0.118   4.589
 3205TIP3   OH2 9620   3.121   5.782   1.054
 3205TIP3    H1 9621   3.214   5.758   1.049
 3205TIP3    H2 9622   3.084   5.722   1.118
 3206TIP3   OH2 9623   4.985   4.692   0.979
 3206TIP3    H1 9624   5.078   4.679   1.000
 3206TIP3    H2 9625   4.986   4.748   0.901
 3207TIP3   OH2 9626   0.218   0.812   3.611
 3207TIP3    H1 9627   0.142   0.774   3.655
 3207TIP3    H2 9628   0.213   0.780   3.521
 3208TIP3   OH2 9629   1.401   4.513   4.275
 3208TIP3    H1 9630   1.494   4.532   4.284
 3208TIP3    H2 9631   1.398   4.429   4.229
 3209TIP3   OH2 9632   5.170   5.620   4.046
 3209TIP3    H1 9633   5.228   5.694   4.064
 3209TIP3    H2 9634   5.210   5.574   3.972
 3210TIP3   OH2 9635   0.718   2.920   1.485
 3210TIP3    H1 9636   0.766   2.852   1.532
 3210TIP3    H2 9637   0.673   2.874   1.415
 3211TIP3   OH2 9638   2.266   2.516   3.368
 3211TIP3    H1 9639   2.242   2.426   3.390
 3211TIP3    H2 9640   2.361   2.516   3.364
 3212TIP3   OH2 9641   5.445   5.112   0.983
 3212TIP3    H1 9642   5.518   5.053   0.963
 3212TIP3    H2 9643   5.427   5.156   0.900
 3213TIP3   OH2 9644   4.020   1.367   0.790
 3213TIP3    H1 9645   4.089   1.344   0.852
 3213TIP3    H2 9646   4.056   1.440   0.740
 3214TIP3   OH2 9647   4.545   1.965   4.715
 3214TIP3    H1 9648   4.461   1.930   4.686
 3214TIP3    H2 9649   4.609   1.899   4.690
 3215TIP3   OH2 9650   1.627   1.554   1.885
 3215TIP3    H1 9651   1.688   1.489   1.920
 3215TIP3    H2 9652   1.670   1.638   1.903
 3216TIP3   OH2 9653   3.517   3.974   0.157
 3216TIP3    H1 9654   3.510   3.975   0.252
 3216TIP3    H2 9655   3.441   4.023   0.126
 3217TIP3   OH2 9656   0.405   1.742   1.874
 3217TIP3    H1 9657   0.369   1.718   1.788
 3217TIP3    H2 9658   0.395   1.837   1.878
 3218TIP3   OH2 9659   6.011   1.796   4.778
 3218TIP3    H1 9660   6.006   1.779   4.872
 3218TIP3    H2 9661   5.998   1.891   4.771
 3219TIP3   OH2 9662   0.856   2.465   3.935
 3219TIP3    H1 9663   0.819   2.544   3.974
 3219TIP3    H2 9664   0.811   2.457   3.851
 3220TIP3   OH2 9665   6.280   1.511   2.141
 3220TIP3    H1 9666   6.292   1.445   2.072
 3220TIP3    H2 9667   6.330   1.477   2.215
 3221TIP3   OH2 9668   3.210   0.305   1.351
 3221TIP3    H1 9669   3.174   0.225   1.312
 3221TIP3    H2 9670   3.279   0.273   1.410
 3222TIP3   OH2 9671   4.003   3.578   2.031
 3222TIP3    H1 9672   3.935   3.517   2.002
 3222TIP3    H2 9673   3.988   3.589   2.125
 3223TIP3   OH2 9674   1.434   3.388   0.959
 3223TIP3    H1 9675   1.481   3.337   1.025
 3223TIP3    H2 9676   1.499   3.405   0.892
 3224TIP3   OH2 9677   0.582   4.704   1.321
 3224TIP3    H1 9678   0.652   4.681   1.260
 3224TIP3    H2 9679   0.525   4.627   1.322
 3225TIP3   OH2 9680   4.461   4.836   4.324
 3225TIP3    H1 9681   4.549   4.875   4.321
 3225TIP3    H2 9682   4.451   4.807   4.415
 3226TIP3   OH2 9683   5.531   0.183   0.243
 3226TIP3    H1 9684   5.559   0.231   0.165
 3226TIP3    H2 9685   5.554   0.241   0.316
 3227TIP3   OH2 9686   1.570   5.915   0.880
 3227TIP3    H1 9687   1.644   5.856   0.865
 3227TIP3    H2 9688   1.511   5.900   0.806
 3228TIP3   OH2 9689   1.832   5.032   1.981
 3228TIP3    H1 9690   1.789   5.072   2.056
 3228TIP3    H2 9691   1.919   5.072   1.979
 3229TIP3   OH2 9692   1.056   0.895   3.560
 3229TIP3    H1 9693   0.980   0.860   3.608
 3229TIP3    H2 9694   1.076   0.828   3.495
 3230TIP3   OH2 9695   0.713   0.778   4.817
 3230TIP3    H1 9696   0.649   0.720   4.775
 3230TIP3    H2 9697   0.718   0.854   4.759
 3231TIP3   OH2 9698   3.899   2.530   1.887
 3231TIP3    H1 9699   3.823   2.581   1.914
 3231TIP3    H2 9700   3.885   2.515   1.794
 3232TIP3   OH2 9701   3.054   1.626   0.511
 3232TIP3    H1 9702   2.991   1.596   0.577
 3232TIP3    H2 9703   3.103   1.547   0.488
 3233TIP3   OH2 9704   6.359   3.534   5.178
 3233TIP3    H1 9705   6.389   3.454   5.135
 3233TIP3    H2 9706   6.290   3.505   5.237
 3234TIP3   OH2 9707   1.001   2.303   4.876
 3234TIP3    H1 9708   0.982   2.357   4.799
 3234TIP3    H2 9709   0.930   2.240   4.880
 3235TIP3   OH2 9710   2.648   1.561   0.362
 3235TIP3    H1 9711   2.713   1.494   0.384
 3235TIP3    H2 9712   2.691   1.615   0.295
 3236TIP3   OH2 9713   1.651   3.786   3.309
 3236TIP3    H1 9714   1.659   3.746   3.396
 3236TIP3    H2 9715   1.562   3.821   3.307
 3237TIP3   OH2 9716   3.378   2.689   5.048
 3237TIP3    H1 9717   3.423   2.771   5.029
 3237TIP3    H2 9718   3.442   2.638   5.098
 3238TIP3   OH2 9719   4.306   4.084   0.741
 3238TIP3    H1 9720   4.283   4.027   0.814
 3238TIP3    H2 9721   4.238   4.152   0.741
 3239TIP3   OH2 9722   4.613   4.134   1.146
 3239TIP3    H1 9723   4.576   4.150   1.058
 3239TIP3    H2 9724   4.595   4.041   1.163
 3240TIP3   OH2 9725   3.963   2.054   2.728
 3240TIP3    H1 9726   3.917   2.122   2.777
 3240TIP3    H2 9727   3.970   2.089   2.639
 3241TIP3   OH2 9728   2.247   1.719   3.483
 3241TIP3    H1 9729   2.307   1.789   3.459
 3241TIP3    H2 9730   2.263   1.650   3.419
 3242TIP3   OH2 9731   5.223   3.215   2.842
 3242TIP3    H1 9732   5.187   3.128   2.856
 3242TIP3    H2 9733   5.246   3.246   2.930
 3243TIP3   OH2 9734   0.657   5.749   3.831
 3243TIP3    H1 9735   0.595   5.815   3.863
 3243TIP3    H2 9736   0.663   5.765   3.737
 3244TIP3   OH2 9737   5.802   2.326   1.422
 3244TIP3    H1 9738   5.711   2.308   1.401
 3244TIP3    H2 9739   5.810   2.421   1.418
 3245TIP3   OH2 9740   4.007   3.235  -0.036
 3245TIP3    H1 9741   4.023   3.329  -0.027
 3245TIP3    H2 9742   3.994   3.205   0.054
 3246TIP3   OH2 9743   1.237   3.341   2.718
 3246TIP3    H1 9744   1.198   3.396   2.787
 3246TIP3    H2 9745   1.178   3.350   2.644
 3247TIP3   OH2 9746   2.212   2.637   0.872
 3247TIP3    H1 9747   2.179   2.725   0.857
 3247TIP3    H2 9748   2.219   2.599   0.784
 3248TIP3   OH2 9749   5.230   5.755   3.038
 3248TIP3    H1 9750   5.179   5.748   2.957
 3248TIP3    H2 9751   5.294   5.824   3.020
 3249TIP3   OH2 9752   5.387   3.614   0.728
 3249TIP3    H1 9753   5.333   3.670   0.783
 3249TIP3    H2 9754   5.389   3.530   0.773
 3250TIP3   OH2 9755   5.140   3.031   5.019
 3250TIP3    H1 9756   5.230   3.047   4.991
 3250TIP3    H2 9757   5.089   3.029   4.938
 3251TIP3   OH2 9758   0.867   1.187   4.027
 3251TIP3    H1 9759   0.816   1.217   3.952
 3251TIP3    H2 9760   0.958   1.207   4.004
 3252TIP3   OH2 9761   1.946   3.448   5.073
 3252TIP3    H1 9762   1.925   3.442   4.980
 3252TIP3    H2 9763   1.884   3.513   5.107
 3253TIP3   OH2 9764   0.214   1.101   3.561
 3253TIP3    H1 9765   0.206   1.011   3.592
 3253TIP3    H2 9766   0.266   1.095   3.481
 3254TIP3   OH2 9767   0.708   0.548   0.661
 3254TIP3    H1 9768   0.639   0.588   0.609
 3254TIP3    H2 9769   0.702   0.455   0.643
 3255TIP3   OH2 9770   5.495   1.263   0.359
 3255TIP3    H1 9771   5.413   1.225   0.391
 3255TIP3    H2 9772   5.520   1.208   0.284
 3256TIP3   OH2 9773   4.544   0.690   0.087
 3256TIP3    H1 9774   4.562   0.759   0.151
 3256TIP3    H2 9775   4.543   0.609   0.139
 3257TIP3   OH2 9776   3.020   2.016   3.808
 3257TIP3    H1 9777   3.000   2.038   3.717
 3257TIP3    H2 9778   2.936   2.026   3.853
 3258TIP3   OH2 9779   0.483   3.509   4.583
 3258TIP3    H1 9780   0.498   3.447   4.654
 3258TIP3    H2 9781   0.542   3.481   4.513
 3259TIP3   OH2 9782   2.648   0.491   4.890
 3259TIP3    H1 9783   2.659   0.562   4.827
 3259TIP3    H2 9784   2.677   0.413   4.844
 3260TIP3   OH2 9785   2.241   1.964   4.590
 3260TIP3    H1 9786   2.248   2.001   4.502
 3260TIP3    H2 9787   2.283   2.029   4.647
 3261TIP3   OH2 9788   2.765   4.805   4.496
 3261TIP3    H1 9789   2.772   4.789   4.402
 3261TIP3    H2 9790   2.686   4.859   4.505
 3262TIP3   OH2 9791   6.024   0.273   0.279
 3262TIP3    H1 9792   6.040   0.248   0.188
 3262TIP3    H2 9793   6.111   0.274   0.320
 3263TIP3   OH2 9794   2.235   4.755   4.877
 3263TIP3    H1 9795   2.198   4.842   4.894
 3263TIP3    H2 9796   2.293   4.768   4.802
 3264TIP3   OH2 9797   2.381   4.731   3.824
 3264TIP3    H1 9798   2.368   4.817   3.864
 3264TIP3    H2 9799   2.292   4.698   3.809
 3265TIP3   OH2 9800   3.590   5.350   0.412
 3265TIP3    H1 9801   3.642   5.422   0.446
 3265TIP3    H2 9802   3.586   5.366   0.317
 3266TIP3   OH2 9803   4.567   4.961   0.040
 3266TIP3    H1 9804   4.514   4.923   0.110
 3266TIP3    H2 9805   4.538   4.917  -0.040
 3267TIP3   OH2 9806   2.092   4.004   3.183
 3267TIP3    H1 9807   2.028   3.938   3.210
 3267TIP3    H2 9808   2.039   4.078   3.154
 3268TIP3   OH2 9809   0.891   2.075   4.535
 3268TIP3    H1 9810   0.940   2.059   4.455
 3268TIP3    H2 9811   0.881   2.170   4.540
 3269TIP3   OH2 9812   4.798   1.511   5.061
 3269TIP3    H1 9813   4.853   1.435   5.045
 3269TIP3    H2 9814   4.855   1.586   5.047
 3270TIP3   OH2 9815   3.462   2.779   4.134
 3270TIP3    H1 9816   3.426   2.715   4.195
 3270TIP3    H2 9817   3.440   2.746   4.047
 3271TIP3   OH2 9818   4.797   5.360   1.327
 3271TIP3    H1 9819   4.735   5.290   1.304
 3271TIP3    H2 9820   4.803   5.355   1.423
 3272TIP3   OH2 9821   2.206   5.001   1.583
 3272TIP3    H1 9822   2.178   4.948   1.508
 3272TIP3    H2 9823   2.273   4.948   1.627
 3273TIP3   OH2 9824   0.600   5.456   4.505
 3273TIP3    H1 9825   0.557   5.399   4.569
 3273TIP3    H2 9826   0.560   5.542   4.520
 3274TIP3   OH2 9827   4.901   0.737   3.065
 3274TIP3    H1 9828   4.880   0.647   3.089
 3274TIP3    H2 9829   4.847   0.791   3.124
 3275TIP3   OH2 9830   1.391   1.772   0.118
 3275TIP3    H1 9831   1.321   1.814   0.169
 3275TIP3    H2 9832   1.380   1.679   0.136
 3276TIP3   OH2 9833   2.137   3.639   2.065
 3276TIP3    H1 9834   2.111   3.613   2.153
 3276TIP3    H2 9835   2.166   3.557   2.024
 3277TIP3   OH2 9836   6.299   1.578   0.024
 3277TIP3    H1 9837   6.291   1.495  -0.024
 3277TIP3    H2 9838   6.385   1.574   0.065
 3278TIP3   OH2 9839   4.541   5.297   1.656
 3278TIP3    H1 9840   4.595   5.228   1.620
 3278TIP3    H2 9841   4.499   5.258   1.732
 3279TIP3   OH2 9842   4.447   4.504   0.395
 3279TIP3    H1 9843   4.527   4.458   0.368
 3279TIP3    H2 9844   4.433   4.475   0.486
 3280TIP3   OH2 9845   1.471   0.333   2.869
 3280TIP3    H1 9846   1.515   0.248   2.880
 3280TIP3    H2 9847   1.518   0.374   2.797
 3281TIP3   OH2 9848   1.330   5.674   0.796
 3281TIP3    H1 9849   1.347   5.624   0.876
 3281TIP3    H2 9850   1.249   5.637   0.762
 3282TIP3   OH2 9851   2.407   5.686   4.432
 3282TIP3    H1 9852   2.368   5.715   4.514
 3282TIP3    H2 9853   2.337   5.694   4.368
 3283TIP3   OH2 9854   6.017   1.428   4.949
 3283TIP3    H1 9855   6.086   1.426   4.883
 3283TIP3    H2 9856   6.018   1.518   4.982
 3284TIP3   OH2 9857   4.802   2.405   4.217
 3284TIP3    H1 9858   4.738   2.473   4.199
 3284TIP3    H2 9859   4.857   2.441   4.286
 3285TIP3   OH2 9860   4.489   3.426   1.059
 3285TIP3    H1 9861   4.531   3.492   1.003
 3285TIP3    H2 9862   4.437   3.477   1.121
 3286TIP3   OH2 9863   0.672   0.848   1.838
 3286TIP3    H1 9864   0.644   0.934   1.807
 3286TIP3    H2 9865   0.592   0.805   1.868
 3287TIP3   OH2 9866   1.589   4.017   4.044
 3287TIP3    H1 9867   1.628   4.017   4.131
 3287TIP3    H2 9868   1.580   3.924   4.022
 3288TIP3   OH2 9869   2.761   2.458   1.569
 3288TIP3    H1 9870   2.760   2.390   1.502
 3288TIP3    H2 9871   2.758   2.410   1.652
 3289TIP3   OH2 9872   0.795   5.541   2.543
 3289TIP3    H1 9873   0.859   5.483   2.583
 3289TIP3    H2 9874   0.725   5.482   2.512
 3290TIP3   OH2 9875   5.632   1.887   3.669
 3290TIP3    H1 9876   5.633   1.972   3.712
 3290TIP3    H2 9877   5.681   1.899   3.588
 3291TIP3   OH2 9878   5.452   5.331   4.452
 3291TIP3    H1 9879   5.489   5.410   4.492
 3291TIP3    H2 9880   5.405   5.289   4.524
 3292TIP3   OH2 9881   2.962   0.269   3.290
 3292TIP3    H1 9882   2.891   0.322   3.324
 3292TIP3    H2 9883   2.997   0.223   3.366
 3293TIP3   OH2 9884   5.019   5.254   0.963
 3293TIP3    H1 9885   5.101   5.209   0.941
 3293TIP3    H2 9886   5.022   5.265   1.058
 3294TIP3   OH2 9887   5.996   1.546   1.935
 3294TIP3    H1 9888   6.056   1.602   1.887
 3294TIP3    H2 9889   6.040   1.461   1.939
 3295TIP3   OH2 9890   6.144   3.763   0.040
 3295TIP3    H1 9891   6.194   3.771  -0.041
 3295TIP3    H2 9892   6.074   3.828   0.033
 3296TIP3   OH2 9893   5.465   1.606   3.992
 3296TIP3    H1 9894   5.493   1.697   3.996
 3296TIP3    H2 9895   5.532   1.558   4.041
 3297TIP3   OH2 9896   2.783   1.654   4.474
 3297TIP3    H1 9897   2.762   1.617   4.559
 3297TIP3    H2 9898   2.860   1.709   4.489
 3298TIP3   OH2 9899   4.970   4.591   0.383
 3298TIP3    H1 9900   4.904   4.589   0.452
 3298TIP3    H2 9901   4.949   4.669   0.332
 3299TIP3   OH2 9902   2.389   4.317   1.475
 3299TIP3    H1 9903   2.441   4.398   1.479
 3299TIP3    H2 9904   2.375   4.303   1.381
 3300TIP3   OH2 9905   6.088   1.194   0.960
 3300TIP3    H1 9906   6.156   1.128   0.975
 3300TIP3    H2 9907   6.137   1.276   0.948
 3301TIP3   OH2 9908   4.470   3.174   0.484
 3301TIP3    H1 9909   4.537   3.232   0.449
 3301TIP3    H2 9910   4.418   3.148   0.408
 3302TIP3   OH2 9911   5.914   5.972   1.531
 3302TIP3    H1 9912   5.984   6.028   1.497
 3302TIP3    H2 9913   5.933   5.963   1.624
 3303TIP3   OH2 9914   4.266   2.206   4.305
 3303TIP3    H1 9915   4.306   2.186   4.390
 3303TIP3    H2 9916   4.327   2.266   4.263
 3304TIP3   OH2 9917   5.558   5.404   3.838
 3304TIP3    H1 9918   5.652   5.388   3.840
 3304TIP3    H2 9919   5.526   5.371   3.922
 3305TIP3   OH2 9920   2.301   0.150   3.258
 3305TIP3    H1 9921   2.243   0.226   3.259
 3305TIP3    H2 9922   2.338   0.147   3.346
 3306TIP3   OH2 9923   1.810   0.897   5.103
 3306TIP3    H1 9924   1.729   0.845   5.099
 3306TIP3    H2 9925   1.827   0.906   5.197
 3307TIP3   OH2 9926   4.228   3.154   3.038
 3307TIP3    H1 9927   4.183   3.232   3.007
 3307TIP3    H2 9928   4.211   3.088   2.970
 3308TIP3   OH2 9929   5.267   5.269   3.217
 3308TIP3    H1 9930   5.338   5.217   3.255
 3308TIP3    H2 9931   5.308   5.354   3.198
 3309TIP3   OH2 9932   5.672   3.100   1.471
 3309TIP3    H1 9933   5.637   3.189   1.465
 3309TIP3    H2 9934   5.708   3.083   1.384
 3310TIP3   OH2 9935  -0.015   1.374   1.122
 3310TIP3    H1 9936   0.065   1.380   1.070
 3310TIP3    H2 9937  -0.034   1.281   1.126
 3311TIP3   OH2 9938   0.694   3.023   0.897
 3311TIP3    H1 9939   0.613   3.074   0.897
 3311TIP3    H2 9940   0.665   2.933   0.912
 3312TIP3   OH2 9941   2.020   0.785   0.187
 3312TIP3    H1 9942   2.062   0.701   0.202
 3312TIP3    H2 9943   1.929   0.772   0.215
 3313TIP3   OH2 9944   5.474   5.076   3.198
 3313TIP3    H1 9945   5.535   5.044   3.265
 3313TIP3    H2 9946   5.507   5.163   3.175
 3314TIP3   OH2 9947   5.551   2.478   5.190
 3314TIP3    H1 9948   5.457   2.481   5.170
 3314TIP3    H2 9949   5.589   2.429   5.118
 3315TIP3   OH2 9950   5.580   2.388   2.678
 3315TIP3    H1 9951   5.673   2.410   2.668
 3315TIP3    H2 9952   5.581   2.294   2.700
 3316TIP3   OH2 9953   1.455   0.849   4.022
 3316TIP3    H1 9954   1.363   0.860   3.998
 3316TIP3    H2 9955   1.493   0.936   4.013
 3317TIP3   OH2 9956   3.870   2.151   0.299
 3317TIP3    H1 9957   3.801   2.213   0.326
 3317TIP3    H2 9958   3.843   2.068   0.338
 3318TIP3   OH2 9959   2.166   3.622   2.363
 3318TIP3    H1 9960   2.137   3.661   2.445
 3318TIP3    H2 9961   2.196   3.534   2.389
 3319TIP3   OH2 9962   2.985   4.546   1.436
 3319TIP3    H1 9963   3.073   4.581   1.420
 3319TIP3    H2 9964   2.959   4.507   1.353
 3320TIP3   OH2 9965   5.721   0.004   0.660
 3320TIP3    H1 9966   5.631   0.011   0.628
 3320TIP3    H2 9967   5.775   0.000   0.581
 3321TIP3   OH2 9968   1.606   1.139   2.780
 3321TIP3    H1 9969   1.692   1.119   2.815
 3321TIP3    H2 9970   1.606   1.234   2.771
 3322TIP3   OH2 9971   1.262   5.260   3.734
 3322TIP3    H1 9972   1.206   5.185   3.713
 3322TIP3    H2 9973   1.255   5.269   3.830
 3323TIP3   OH2 9974   0.343   2.790   2.187
 3323TIP3    H1 9975   0.250   2.782   2.166
 3323TIP3    H2 9976   0.384   2.714   2.147
 3324TIP3   OH2 9977   1.843   4.663   0.847
 3324TIP3    H1 9978   1.856   4.743   0.796
 3324TIP3    H2 9979   1.799   4.692   0.927
 3325TIP3   OH2 9980   6.315   1.448   3.752
 3325TIP3    H1 9981   6.232   1.496   3.763
 3325TIP3    H2 9982   6.289   1.363   3.716
 3326TIP3   OH2 9983   4.948   1.169   1.242
 3326TIP3    H1 9984   5.010   1.121   1.187
 3326TIP3    H2 9985   4.876   1.109   1.256
 3327TIP3   OH2 9986   2.735   0.841   3.989
 3327TIP3    H1 9987   2.746   0.932   4.016
 3327TIP3    H2 9988   2.823   0.812   3.964
 3328TIP3   OH2 9989   6.193   3.478   0.412
 3328TIP3    H1 9990   6.182   3.508   0.322
 3328TIP3    H2 9991   6.133   3.404   0.420
 3329TIP3   OH2 9992   4.423   4.196   2.916
 3329TIP3    H1 9993   4.360   4.138   2.958
 3329TIP3    H2 9994   4.382   4.282   2.919
 3330TIP3   OH2 9995   3.991   2.243   4.400
 3330TIP3    H1 9996   3.963   2.326   4.362
 3330TIP3    H2 9997   4.065   2.216   4.346
 3331TIP3   OH2 9998   5.814   1.233   3.421
 3331TIP3    H1 9999   5.906   1.208   3.412
 3331TIP3    H210000   5.806   1.313   3.369
 3332TIP3   OH210001   1.000   2.025   1.760
 3332TIP3    H110002   0.958   2.077   1.691
 3332TIP3    H210003   1.070   2.081   1.792
 3333TIP3   OH210004   0.442   4.652   4.232
 3333TIP3    H110005   0.466   4.744   4.224
 3333TIP3    H210006   0.480   4.623   4.315
 3334TIP3   OH210007   5.978   5.413   1.657
 3334TIP3    H110008   6.064   5.416   1.699
 3334TIP3    H210009   5.933   5.491   1.690
 3335TIP3   OH210010   5.580   3.593   2.998
 3335TIP3    H110011   5.570   3.664   3.062
 3335TIP3    H210012   5.495   3.588   2.956
 3336TIP3   OH210013   1.104   1.892   2.000
 3336TIP3    H110014   1.139   1.975   2.032
 3336TIP3    H210015   1.068   1.912   1.914
 3337TIP3   OH210016   6.119   3.638   4.146
 3337TIP3    H110017   6.178   3.625   4.220
 3337TIP3    H210018   6.165   3.700   4.089
 3338TIP3   OH210019   2.517   2.247   3.173
 3338TIP3    H110020   2.562   2.276   3.253
 3338TIP3    H210021   2.565   2.169   3.146
 3339TIP3   OH210022   1.474   5.351   1.727
 3339TIP3    H110023   1.538   5.374   1.659
 3339TIP3    H210024   1.484   5.256   1.738
 3340TIP3   OH210025   0.713   2.501   3.690
 3340TIP3    H110026   0.618   2.492   3.693
 3340TIP3    H210027   0.729   2.577   3.634
 3341TIP3   OH210028   3.955   3.698   5.131
 3341TIP3    H110029   3.871   3.664   5.160
 3341TIP3    H210030   3.936   3.788   5.103
 3342TIP3   OH210031   5.918   0.416   3.156
 3342TIP3    H110032   5.889   0.324   3.152
 3342TIP3    H210033   5.947   0.435   3.067
 3343TIP3   OH210034   6.085   5.541   4.554
 3343TIP3    H110035   6.009   5.562   4.608
 3343TIP3    H210036   6.080   5.446   4.541
 3344TIP3   OH210037   4.685   5.941   5.132
 3344TIP3    H110038   4.695   5.872   5.066
 3344TIP3    H210039   4.635   6.010   5.088
 3345TIP3   OH210040   1.830   5.896   4.399
 3345TIP3    H110041   1.737   5.893   4.374
 3345TIP3    H210042   1.870   5.957   4.337
 3346TIP3   OH210043   4.405   2.369   0.100
 3346TIP3    H110044   4.489   2.383   0.057
 3346TIP3    H210045   4.341   2.409   0.042
 3347TIP3   OH210046   0.286   1.957   3.102
 3347TIP3    H110047   0.319   2.046   3.113
 3347TIP3    H210048   0.207   1.955   3.157
 3348TIP3   OH210049   1.541   2.980   2.311
 3348TIP3    H110050   1.506   2.972   2.222
 3348TIP3    H210051   1.543   3.074   2.328
 3349TIP3   OH210052   2.105   3.677   0.127
 3349TIP3    H110053   2.198   3.670   0.150
 3349TIP3    H210054   2.058   3.659   0.209
 3350TIP3   OH210055   3.465   5.670   3.626
 3350TIP3    H110056   3.421   5.692   3.544
 3350TIP3    H210057   3.548   5.630   3.598
 3351TIP3   OH210058   0.196   1.114   2.284
 3351TIP3    H110059   0.231   1.038   2.331
 3351TIP3    H210060   0.264   1.181   2.293
 3352TIP3   OH210061   2.677   3.436   4.910
 3352TIP3    H110062   2.725   3.433   4.827
 3352TIP3    H210063   2.718   3.367   4.963
 3353TIP3   OH210064   2.816   2.859   4.774
 3353TIP3    H110065   2.761   2.865   4.852
 3353TIP3    H210066   2.759   2.883   4.702
 3354TIP3   OH210067   4.663   1.530   2.182
 3354TIP3    H110068   4.679   1.466   2.113
 3354TIP3    H210069   4.571   1.555   2.171
 3355TIP3   OH210070   6.159   0.132   2.223
 3355TIP3    H110071   6.191   0.051   2.263
 3355TIP3    H210072   6.216   0.144   2.147
 3356TIP3   OH210073   6.086   1.177   3.408
 3356TIP3    H110074   6.128   1.130   3.336
 3356TIP3    H210075   6.136   1.259   3.415
 3357TIP3   OH210076   0.821   5.067   4.123
 3357TIP3    H110077   0.740   5.092   4.079
 3357TIP3    H210078   0.888   5.071   4.055
 3358TIP3   OH210079   0.015   4.213   0.295
 3358TIP3    H110080   0.000   4.233   0.387
 3358TIP3    H210081   0.031   4.119   0.293
 3359TIP3   OH210082   1.977   2.073   4.897
 3359TIP3    H110083   1.888   2.042   4.911
 3359TIP3    H210084   2.027   2.040   4.972
 3360TIP3   OH210085   4.768   0.705   4.729
 3360TIP3    H110086   4.755   0.799   4.731
 3360TIP3    H210087   4.812   0.688   4.646
 3361TIP3   OH210088   4.746   2.832   4.294
 3361TIP3    H110089   4.724   2.912   4.245
 3361TIP3    H210090   4.833   2.807   4.262
 3362TIP3   OH210091   0.877   5.062   1.233
 3362TIP3    H110092   0.804   5.047   1.292
 3362TIP3    H210093   0.870   4.993   1.167
 3363TIP3   OH210094   3.150   0.173   0.818
 3363TIP3    H110095   3.068   0.124   0.824
 3363TIP3    H210096   3.216   0.115   0.855
 3364TIP3   OH210097   3.950   1.377   2.997
 3364TIP3    H110098   3.997   1.421   2.925
 3364TIP3    H210099   3.866   1.423   3.002
 3365TIP3   OH210100   2.393   2.736   3.587
 3365TIP3    H110101   2.384   2.711   3.679
 3365TIP3    H210102   2.435   2.660   3.546
 3366TIP3   OH210103   0.269   0.145   5.052
 3366TIP3    H110104   0.302   0.220   5.002
 3366TIP3    H210105   0.175   0.146   5.037
 3367TIP3   OH210106   0.164   1.434   0.413
 3367TIP3    H110107   0.146   1.373   0.341
 3367TIP3    H210108   0.253   1.463   0.398
 3368TIP3   OH210109   3.103   5.429   3.084
 3368TIP3    H110110   3.187   5.409   3.042
 3368TIP3    H210111   3.118   5.412   3.177
 3369TIP3   OH210112   2.822   3.809   4.414
 3369TIP3    H110113   2.825   3.787   4.507
 3369TIP3    H210114   2.737   3.775   4.384
 3370TIP3   OH210115   2.539   4.303   3.241
 3370TIP3    H110116   2.483   4.319   3.317
 3370TIP3    H210117   2.553   4.209   3.240
 3371TIP3   OH210118   0.504   1.820   3.281
 3371TIP3    H110119   0.550   1.752   3.329
 3371TIP3    H210120   0.482   1.885   3.348
 3372TIP3   OH210121   0.282   2.941   2.403
 3372TIP3    H110122   0.219   2.904   2.465
 3372TIP3    H210123   0.305   2.868   2.345
 3373TIP3   OH210124   5.818   0.974   2.886
 3373TIP3    H110125   5.753   0.926   2.834
 3373TIP3    H210126   5.902   0.946   2.851
 3374TIP3   OH210127   2.870   4.987   4.165
 3374TIP3    H110128   2.836   4.903   4.134
 3374TIP3    H210129   2.959   4.966   4.196
 3375TIP3   OH210130   5.879   2.593   1.443
 3375TIP3    H110131   5.893   2.643   1.524
 3375TIP3    H210132   5.967   2.577   1.409
 3376TIP3   OH210133   5.306   0.458   1.515
 3376TIP3    H110134   5.288   0.549   1.539
 3376TIP3    H210135   5.395   0.459   1.482
 3377TIP3   OH210136   2.196   5.018   2.486
 3377TIP3    H110137   2.132   4.979   2.427
 3377TIP3    H210138   2.276   4.967   2.473
 3378TIP3   OH210139   4.556   1.858   0.918
 3378TIP3    H110140   4.624   1.885   0.856
 3378TIP3    H210141   4.506   1.791   0.872
 3379TIP3   OH210142   4.681   4.683   2.554
 3379TIP3    H110143   4.724   4.756   2.510
 3379TIP3    H210144   4.732   4.669   2.633
 3380TIP3   OH210145   0.515   6.016   4.754
 3380TIP3    H110146   0.524   5.957   4.830
 3380TIP3    H210147   0.585   5.989   4.695
 3381TIP3   OH210148   1.349   4.750   1.035
 3381TIP3    H110149   1.285   4.812   1.071
 3381TIP3    H210150   1.425   4.804   1.012
 3382TIP3   OH210151   4.093   2.449   4.164
 3382TIP3    H110152   4.114   2.474   4.254
 3382TIP3    H210153   4.176   2.456   4.117
 3383TIP3   OH210154   6.370   5.967   4.032
 3383TIP3    H110155   6.281   5.994   4.009
 3383TIP3    H210156   6.373   5.874   4.013
 3384TIP3   OH210157   1.045   0.840   0.353
 3384TIP3    H110158   1.077   0.750   0.346
 3384TIP3    H210159   1.020   0.864   0.263
 3385TIP3   OH210160   5.252   2.491   0.640
 3385TIP3    H110161   5.323   2.427   0.651
 3385TIP3    H210162   5.297   2.571   0.614
 3386TIP3   OH210163   5.291   1.490   4.760
 3386TIP3    H110164   5.268   1.463   4.671
 3386TIP3    H210165   5.288   1.409   4.811
 3387TIP3   OH210166   0.825   5.660   3.117
 3387TIP3    H110167   0.909   5.670   3.071
 3387TIP3    H210168   0.834   5.577   3.164
 3388TIP3   OH210169   2.968   4.488   1.698
 3388TIP3    H110170   2.962   4.484   1.602
 3388TIP3    H210171   2.916   4.413   1.728
 3389TIP3   OH210172   5.853   1.330   0.899
 3389TIP3    H110173   5.922   1.269   0.925
 3389TIP3    H210174   5.795   1.278   0.844
 3390TIP3   OH210175   2.200   4.402   1.668
 3390TIP3    H110176   2.283   4.357   1.654
 3390TIP3    H210177   2.202   4.476   1.608
 3391TIP3   OH210178   0.983   2.014   5.174
 3391TIP3    H110179   0.930   2.050   5.245
 3391TIP3    H210180   0.922   2.001   5.102
 3392TIP3   OH210181   2.649   5.315   1.912
 3392TIP3    H110182   2.689   5.229   1.899
 3392TIP3    H210183   2.569   5.313   1.860
 3393TIP3   OH210184   1.363   5.061   4.447
 3393TIP3    H110185   1.455   5.076   4.471
 3393TIP3    H210186   1.340   4.979   4.491
 3394TIP3   OH210187   5.501   5.042   5.142
 3394TIP3    H110188   5.444   5.009   5.211
 3394TIP3    H210189   5.589   5.041   5.180
 3395TIP3   OH210190   4.146   0.738   3.197
 3395TIP3    H110191   4.208   0.782   3.256
 3395TIP3    H210192   4.082   0.805   3.175
 3396TIP3   OH210193   2.585   5.687   1.007
 3396TIP3    H110194   2.498   5.650   0.990
 3396TIP3    H210195   2.639   5.612   1.031
 3397TIP3   OH210196   0.868   4.727   3.866
 3397TIP3    H110197   0.884   4.669   3.791
 3397TIP3    H210198   0.819   4.672   3.927
 3398TIP3   OH210199   4.585   3.483   2.815
 3398TIP3    H110200   4.521   3.553   2.803
 3398TIP3    H210201   4.541   3.419   2.870
 3399TIP3   OH210202   5.823   2.561   1.883
 3399TIP3    H110203   5.894   2.498   1.887
 3399TIP3    H210204   5.792   2.569   1.974
 3400TIP3   OH210205   6.246   0.006   3.154
 3400TIP3    H110206   6.336  -0.020   3.170
 3400TIP3    H210207   6.246   0.040   3.064
 3401TIP3   OH210208   4.415   4.855   0.248
 3401TIP3    H110209   4.481   4.863   0.318
 3401TIP3    H210210   4.371   4.940   0.248
 3402TIP3   OH210211   3.611   1.745   4.439
 3402TIP3    H110212   3.651   1.764   4.524
 3402TIP3    H210213   3.610   1.650   4.434
 3403TIP3   OH210214   3.715   2.342   0.942
 3403TIP3    H110215   3.682   2.296   1.019
 3403TIP3    H210216   3.637   2.381   0.902
 3404TIP3   OH210217   2.668   4.781   4.088
 3404TIP3    H110218   2.703   4.692   4.081
 3404TIP3    H210219   2.663   4.812   3.998
 3405TIP3   OH210220   4.231   4.288   1.355
 3405TIP3    H110221   4.256   4.330   1.272
 3405TIP3    H210222   4.186   4.358   1.404
 3406TIP3   OH210223   3.918   3.170   2.257
 3406TIP3    H110224   3.954   3.259   2.252
 3406TIP3    H210225   3.995   3.113   2.258
 3407TIP3   OH210226   2.767   2.395   5.003
 3407TIP3    H110227   2.719   2.476   5.020
 3407TIP3    H210228   2.702   2.336   4.965
 3408TIP3   OH210229   5.874   2.307   0.677
 3408TIP3    H110230   5.837   2.392   0.656
 3408TIP3    H210231   5.946   2.296   0.616
 3409TIP3   OH210232   1.773   3.456   1.159
 3409TIP3    H110233   1.721   3.418   1.230
 3409TIP3    H210234   1.711   3.463   1.086
 3410TIP3   OH210235   5.244   3.036   1.432
 3410TIP3    H110236   5.166   3.010   1.480
 3410TIP3    H210237   5.316   2.987   1.472
 3411TIP3   OH210238   5.979   3.098   1.036
 3411TIP3    H110239   5.997   3.189   1.058
 3411TIP3    H210240   5.887   3.086   1.057
 3412TIP3   OH210241   2.128   3.386   1.945
 3412TIP3    H110242   2.166   3.303   1.974
 3412TIP3    H210243   2.056   3.403   2.006
 3413TIP3   OH210244   5.647   2.143   0.500
 3413TIP3    H110245   5.666   2.152   0.407
 3413TIP3    H210246   5.639   2.233   0.532
 3414TIP3   OH210247   0.450   3.192   4.308
 3414TIP3    H110248   0.444   3.270   4.253
 3414TIP3    H210249   0.534   3.200   4.353
 3415TIP3   OH210250   2.788   5.091   2.902
 3415TIP3    H110251   2.753   5.179   2.888
 3415TIP3    H210252   2.818   5.091   2.993
 3416TIP3   OH210253   1.164   5.494   1.472
 3416TIP3    H110254   1.136   5.412   1.512
 3416TIP3    H210255   1.221   5.535   1.537
 3417TIP3   OH210256   1.754   4.720   4.720
 3417TIP3    H110257   1.782   4.756   4.804
 3417TIP3    H210258   1.712   4.637   4.743
 3418TIP3   OH210259   5.943   0.570   2.919
 3418TIP3    H110260   5.917   0.637   2.982
 3418TIP3    H210261   6.013   0.612   2.868
 3419TIP3   OH210262   0.565   3.397   1.366
 3419TIP3    H110263   0.575   3.468   1.302
 3419TIP3    H210264   0.530   3.440   1.444
 3420TIP3   OH210265   4.479   1.129   1.478
 3420TIP3    H110266   4.554   1.085   1.520
 3420TIP3    H210267   4.468   1.084   1.395
 3421TIP3   OH210268   4.249   1.048   4.563
 3421TIP3    H110269   4.262   1.073   4.471
 3421TIP3    H210270   4.330   1.073   4.606
 3422TIP3   OH210271   6.101   2.982   0.777
 3422TIP3    H110272   6.049   3.050   0.820
 3422TIP3    H210273   6.064   2.900   0.808
 3423TIP3   OH210274   3.517   0.563   1.097
 3423TIP3    H110275   3.537   0.607   1.014
 3423TIP3    H210276   3.446   0.615   1.135
 3424TIP3   OH210277   2.593   2.366   2.558
 3424TIP3    H110278   2.660   2.433   2.545
 3424TIP3    H210279   2.597   2.313   2.479
 3425TIP3   OH210280   1.845   2.546   1.812
 3425TIP3    H110281   1.890   2.509   1.736
 3425TIP3    H210282   1.835   2.472   1.872
 3426TIP3   OH210283   1.921   3.232   1.740
 3426TIP3    H110284   2.011   3.206   1.758
 3426TIP3    H210285   1.884   3.158   1.691
 3427TIP3   OH210286   5.054   3.104   0.502
 3427TIP3    H110287   4.980   3.161   0.479
 3427TIP3    H210288   5.012   3.026   0.540
 3428TIP3   OH210289   0.777   0.077   4.000
 3428TIP3    H110290   0.819   0.074   3.914
 3428TIP3    H210291   0.795   0.165   4.032
 3429TIP3   OH210292   1.988   4.832   4.352
 3429TIP3    H110293   2.018   4.826   4.261
 3429TIP3    H210294   2.066   4.815   4.404
 3430TIP3   OH210295   3.025   0.082   4.833
 3430TIP3    H110296   3.064   0.169   4.822
 3430TIP3    H210297   3.035   0.062   4.926
 3431TIP3   OH210298   2.963   1.025   4.589
 3431TIP3    H110299   2.950   1.029   4.683
 3431TIP3    H210300   3.023   1.097   4.569
 3432TIP3   OH210301   1.623   3.845   3.764
 3432TIP3    H110302   1.712   3.878   3.758
 3432TIP3    H210303   1.596   3.832   3.673
 3433TIP3   OH210304   5.297   0.643   1.833
 3433TIP3    H110305   5.250   0.647   1.750
 3433TIP3    H210306   5.384   0.612   1.810
 3434TIP3   OH210307   3.621   4.507   3.382
 3434TIP3    H110308   3.651   4.424   3.346
 3434TIP3    H210309   3.531   4.490   3.410
 3435TIP3   OH210310   5.946   0.370   2.180
 3435TIP3    H110311   5.952   0.276   2.197
 3435TIP3    H210312   6.037   0.399   2.172
 3436TIP3   OH210313   1.700   3.288   1.893
 3436TIP3    H110314   1.720   3.239   1.973
 3436TIP3    H210315   1.779   3.278   1.840
 3437TIP3   OH210316   2.629   4.247   4.809
 3437TIP3    H110317   2.614   4.169   4.862
 3437TIP3    H210318   2.541   4.278   4.785
 3438TIP3   OH210319   6.030   5.637   0.656
 3438TIP3    H110320   6.100   5.582   0.693
 3438TIP3    H210321   5.957   5.577   0.644
 3439TIP3   OH210322   0.037   0.211   1.649
 3439TIP3    H110323  -0.042   0.246   1.689
 3439TIP3    H210324   0.067   0.280   1.589
 3440TIP3   OH210325   0.707   3.501   4.398
 3440TIP3    H110326   0.748   3.521   4.314
 3440TIP3    H210327   0.770   3.445   4.443
 3441TIP3   OH210328   0.428   1.245   3.685
 3441TIP3    H110329   0.398   1.176   3.626
 3441TIP3    H210330   0.350   1.298   3.701
 3442TIP3   OH210331   4.883   4.685   3.834
 3442TIP3    H110332   4.933   4.628   3.892
 3442TIP3    H210333   4.938   4.693   3.755
 3443TIP3   OH210334   4.638   2.017   3.249
 3443TIP3    H110335   4.708   2.028   3.185
 3443TIP3    H210336   4.629   2.103   3.290
 3444TIP3   OH210337   1.281   5.741   0.128
 3444TIP3    H110338   1.292   5.647   0.138
 3444TIP3    H210339   1.362   5.771   0.087
 3445TIP3   OH210340   2.477   3.398   4.500
 3445TIP3    H110341   2.420   3.449   4.557
 3445TIP3    H210342   2.436   3.403   4.414
 3446TIP3   OH210343   2.147   3.294   0.200
 3446TIP3    H110344   2.100   3.211   0.205
 3446TIP3    H210345   2.237   3.273   0.227
 3447TIP3   OH210346   3.739   3.410   2.131
 3447TIP3    H110347   3.678   3.414   2.057
 3447TIP3    H210348   3.768   3.319   2.133
 3448TIP3   OH210349   0.765   2.593   1.923
 3448TIP3    H110350   0.748   2.505   1.890
 3448TIP3    H210351   0.861   2.599   1.930
 3449TIP3   OH210352   1.867   5.954   0.609
 3449TIP3    H110353   1.836   5.890   0.673
 3449TIP3    H210354   1.815   6.033   0.627
 3450TIP3   OH210355   4.216   4.747   1.195
 3450TIP3    H110356   4.124   4.721   1.182
 3450TIP3    H210357   4.213   4.803   1.272
 3451TIP3   OH210358   1.819   0.461   1.040
 3451TIP3    H110359   1.744   0.466   0.981
 3451TIP3    H210360   1.793   0.398   1.106
 3452TIP3   OH210361   5.543   3.304   0.504
 3452TIP3    H110362   5.490   3.358   0.445
 3452TIP3    H210363   5.622   3.285   0.454
 3453TIP3   OH210364   2.563   2.520   3.112
 3453TIP3    H110365   2.536   2.429   3.101
 3453TIP3    H210366   2.653   2.514   3.146
 3454TIP3   OH210367   3.366   1.289   2.057
 3454TIP3    H110368   3.280   1.254   2.082
 3454TIP3    H210369   3.349   1.333   1.973
 3455TIP3   OH210370   3.436   3.570   0.007
 3455TIP3    H110371   3.484   3.602   0.083
 3455TIP3    H210372   3.363   3.631  -0.003
 3456TIP3   OH210373   3.561   2.549   0.128
 3456TIP3    H110374   3.531   2.593   0.049
 3456TIP3    H210375   3.561   2.618   0.195
 3457TIP3   OH210376   5.338   3.518   2.630
 3457TIP3    H110377   5.410   3.481   2.681
 3457TIP3    H210378   5.374   3.601   2.597
 3458TIP3   OH210379   2.924   1.925   1.097
 3458TIP3    H110380   3.006   1.917   1.147
 3458TIP3    H210381   2.862   1.869   1.145
 3459TIP3   OH210382   3.407   5.935   3.723
 3459TIP3    H110383   3.328   5.949   3.671
 3459TIP3    H210384   3.414   5.840   3.732
 3460TIP3   OH210385   1.193   5.872   4.698
 3460TIP3    H110386   1.244   5.810   4.750
 3460TIP3    H210387   1.163   5.937   4.762
 3461TIP3   OH210388   5.731   0.365   1.195
 3461TIP3    H110389   5.786   0.367   1.117
 3461TIP3    H210390   5.710   0.456   1.212
 3462TIP3   OH210391   5.033   0.950   3.367
 3462TIP3    H110392   5.077   0.869   3.394
 3462TIP3    H210393   5.103   1.015   3.364
 3463TIP3   OH210394   1.623   5.685   1.581
 3463TIP3    H110395   1.677   5.762   1.563
 3463TIP3    H210396   1.679   5.611   1.555
 3464TIP3   OH210397   0.188   2.320   2.517
 3464TIP3    H110398   0.268   2.365   2.491
 3464TIP3    H210399   0.185   2.242   2.461
 3465TIP3   OH210400   5.678   1.085   4.616
 3465TIP3    H110401   5.654   0.993   4.605
 3465TIP3    H210402   5.768   1.083   4.649
 3466TIP3   OH210403   6.143   3.500   0.146
 3466TIP3    H110404   6.145   3.437   0.074
 3466TIP3    H210405   6.138   3.586   0.103
 3467TIP3   OH210406   2.052   1.341   3.436
 3467TIP3    H110407   2.026   1.345   3.344
 3467TIP3    H210408   1.970   1.327   3.483
 3468TIP3   OH210409   4.597   4.163   0.819
 3468TIP3    H110410   4.506   4.135   0.809
 3468TIP3    H210411   4.603   4.242   0.765
 3469TIP3   OH210412   2.146   2.644   2.882
 3469TIP3    H110413   2.075   2.704   2.859
 3469TIP3    H210414   2.210   2.699   2.928
 3470TIP3   OH210415   0.820   4.934   3.661
 3470TIP3    H110416   0.772   4.854   3.639
 3470TIP3    H210417   0.847   4.922   3.752
 3471TIP3   OH210418   1.409   1.499   0.111
 3471TIP3    H110419   1.400   1.432   0.179
 3471TIP3    H210420   1.427   1.450   0.031
 3472TIP3   OH210421   0.854   4.831   1.948
 3472TIP3    H110422   0.780   4.840   2.008
 3472TIP3    H210423   0.849   4.909   1.892
 3473TIP3   OH210424   6.123   2.667   3.627
 3473TIP3    H110425   6.167   2.731   3.682
 3473TIP3    H210426   6.037   2.705   3.611
 3474TIP3   OH210427   2.770   1.509   4.059
 3474TIP3    H110428   2.744   1.482   4.147
 3474TIP3    H210429   2.719   1.589   4.043
 3475TIP3   OH210430   0.836   5.137   2.426
 3475TIP3    H110431   0.858   5.074   2.495
 3475TIP3    H210432   0.752   5.174   2.452
 3476TIP3   OH210433   3.598   0.449   2.969
 3476TIP3    H110434   3.526   0.462   3.030
 3476TIP3    H210435   3.622   0.357   2.979
 3477TIP3   OH210436   4.460   0.851   1.393
 3477TIP3    H110437   4.461   0.761   1.425
 3477TIP3    H210438   4.430   0.844   1.302
 3478TIP3   OH210439   3.482   0.679   3.995
 3478TIP3    H110440   3.438   0.604   3.955
 3478TIP3    H210441   3.505   0.736   3.921
 3479TIP3   OH210442   1.832   0.956   2.083
 3479TIP3    H110443   1.821   0.955   2.178
 3479TIP3    H210444   1.859   0.867   2.061
 3480TIP3   OH210445   3.754   0.706   2.517
 3480TIP3    H110446   3.758   0.653   2.596
 3480TIP3    H210447   3.670   0.684   2.477
 3481TIP3   OH210448   3.614   1.196   0.759
 3481TIP3    H110449   3.549   1.140   0.717
 3481TIP3    H210450   3.651   1.142   0.829
 3482TIP3   OH210451   1.698   0.460   0.504
 3482TIP3    H110452   1.624   0.513   0.473
 3482TIP3    H210453   1.736   0.424   0.424
 3483TIP3   OH210454   0.624   3.866   1.092
 3483TIP3    H110455   0.708   3.893   1.055
 3483TIP3    H210456   0.619   3.908   1.177
 3484TIP3   OH210457   1.509   1.237   1.309
 3484TIP3    H110458   1.463   1.181   1.372
 3484TIP3    H210459   1.533   1.315   1.359
 3485TIP3   OH210460   5.257   0.722   3.108
 3485TIP3    H110461   5.203   0.784   3.059
 3485TIP3    H210462   5.290   0.772   3.182
 3486TIP3   OH210463   0.473   0.266   4.286
 3486TIP3    H110464   0.451   0.255   4.379
 3486TIP3    H210465   0.550   0.210   4.273
 3487TIP3   OH210466   1.181   1.324   2.345
 3487TIP3    H110467   1.155   1.412   2.372
 3487TIP3    H210468   1.106   1.289   2.297
 3488TIP3   OH210469   1.615   3.457   4.767
 3488TIP3    H110470   1.704   3.491   4.761
 3488TIP3    H210471   1.613   3.385   4.703
 3489TIP3   OH210472   0.306   5.889   1.658
 3489TIP3    H110473   0.290   5.982   1.641
 3489TIP3    H210474   0.385   5.869   1.608
 3490TIP3   OH210475   0.805   3.243   0.769
 3490TIP3    H110476   0.886   3.273   0.727
 3490TIP3    H210477   0.833   3.173   0.828
 3491TIP3   OH210478   5.734   3.612   1.811
 3491TIP3    H110479   5.676   3.606   1.887
 3491TIP3    H210480   5.675   3.604   1.736
 3492TIP3   OH210481   4.627   4.941   0.385
 3492TIP3    H110482   4.603   4.929   0.477
 3492TIP3    H210483   4.623   5.036   0.372
 3493TIP3   OH210484   5.138   4.726   1.695
 3493TIP3    H110485   5.079   4.705   1.767
 3493TIP3    H210486   5.138   4.821   1.691
 3494TIP3   OH210487   2.807   0.939   3.479
 3494TIP3    H110488   2.878   0.948   3.415
 3494TIP3    H210489   2.802   1.024   3.522
 3495TIP3   OH210490   2.362   2.515   4.129
 3495TIP3    H110491   2.283   2.512   4.184
 3495TIP3    H210492   2.381   2.423   4.110
 3496TIP3   OH210493   4.618   2.216   1.625
 3496TIP3    H110494   4.540   2.163   1.643
 3496TIP3    H210495   4.606   2.247   1.536
 3497TIP3   OH210496   2.375   1.582   2.635
 3497TIP3    H110497   2.346   1.659   2.585
 3497TIP3    H210498   2.381   1.512   2.569
 3498TIP3   OH210499   5.230   2.967   1.882
 3498TIP3    H110500   5.283   2.939   1.807
 3498TIP3    H210501   5.146   2.992   1.844
 3499TIP3   OH210502   1.482   1.181   0.556
 3499TIP3    H110503   1.438   1.260   0.588
 3499TIP3    H210504   1.472   1.184   0.461
 3500TIP3   OH210505   5.689   4.338   4.418
 3500TIP3    H110506   5.667   4.250   4.385
 3500TIP3    H210507   5.612   4.365   4.466
 3501TIP3   OH210508   6.348   1.485   4.059
 3501TIP3    H110509   6.302   1.554   4.108
 3501TIP3    H210510   6.429   1.527   4.030
 3502TIP3   OH210511   4.116   1.221   2.215
 3502TIP3    H110512   4.159   1.137   2.200
 3502TIP3    H210513   4.135   1.242   2.306
 3503TIP3   OH210514   6.011   4.416   0.804
 3503TIP3    H110515   5.936   4.365   0.835
 3503TIP3    H210516   6.018   4.394   0.711
 3504TIP3   OH210517   5.831   4.386   3.659
 3504TIP3    H110518   5.800   4.398   3.749
 3504TIP3    H210519   5.758   4.343   3.614
 3505TIP3   OH210520   5.293   0.528   1.199
 3505TIP3    H110521   5.347   0.472   1.143
 3505TIP3    H210522   5.252   0.467   1.261
 3506TIP3   OH210523   5.397  -0.009   1.262
 3506TIP3    H110524   5.448  -0.044   1.189
 3506TIP3    H210525   5.343   0.060   1.223
 3507TIP3   OH210526   3.071   4.089   3.799
 3507TIP3    H110527   3.130   4.051   3.733
 3507TIP3    H210528   2.996   4.030   3.800
 3508TIP3   OH210529   4.750   0.942   0.028
 3508TIP3    H110530   4.800   0.875   0.076
 3508TIP3    H210531   4.799   1.023   0.043
 3509TIP3   OH210532   4.995   4.032   3.743
 3509TIP3    H110533   4.927   4.000   3.801
 3509TIP3    H210534   4.960   4.021   3.655
 3510TIP3   OH210535   4.693   5.370   4.064
 3510TIP3    H110536   4.680   5.415   3.981
 3510TIP3    H210537   4.788   5.360   4.072
 3511TIP3   OH210538   5.131   2.789   2.039
 3511TIP3    H110539   5.171   2.705   2.014
 3511TIP3    H210540   5.197   2.855   2.015
 3512TIP3   OH210541   4.345   3.964   2.500
 3512TIP3    H110542   4.322   4.007   2.418
 3512TIP3    H210543   4.383   4.033   2.554
 3513TIP3   OH210544   3.152   5.130   1.066
 3513TIP3    H110545   3.083   5.188   1.099
 3513TIP3    H210546   3.122   5.042   1.088
 3514TIP3   OH210547   1.622   3.433   3.713
 3514TIP3    H110548   1.713   3.415   3.689
 3514TIP3    H210549   1.589   3.349   3.746
 3515TIP3   OH210550   5.652   0.167   1.356
 3515TIP3    H110551   5.564   0.136   1.333
 3515TIP3    H210552   5.682   0.214   1.279
 3516TIP3   OH210553   3.236   4.710   3.606
 3516TIP3    H110554   3.174   4.783   3.602
 3516TIP3    H210555   3.193   4.639   3.558
 3517TIP3   OH210556   0.113   2.152   0.255
 3517TIP3    H110557   0.104   2.103   0.337
 3517TIP3    H210558   0.105   2.244   0.282
 3518TIP3   OH210559   3.255   4.334   3.092
 3518TIP3    H110560   3.328   4.385   3.056
 3518TIP3    H210561   3.177   4.382   3.065
 3519TIP3   OH210562   0.642   0.847   1.209
 3519TIP3    H110563   0.625   0.925   1.261
 3519TIP3    H210564   0.558   0.803   1.203
 3520TIP3   OH210565   1.190   1.114   2.062
 3520TIP3    H110566   1.169   1.092   2.153
 3520TIP3    H210567   1.250   1.188   2.068
 3521TIP3   OH210568   1.356   2.403   1.118
 3521TIP3    H110569   1.313   2.325   1.083
 3521TIP3    H210570   1.343   2.398   1.212
 3522TIP3   OH210571   4.474   0.307   0.703
 3522TIP3    H110572   4.436   0.224   0.675
 3522TIP3    H210573   4.468   0.305   0.799
 3523TIP3   OH210574   2.331   1.074   0.971
 3523TIP3    H110575   2.346   1.114   1.057
 3523TIP3    H210576   2.237   1.083   0.956
 3524TIP3   OH210577   3.380   3.454   3.072
 3524TIP3    H110578   3.346   3.528   3.121
 3524TIP3    H210579   3.439   3.493   3.007
 3525TIP3   OH210580   5.362   5.544   1.839
 3525TIP3    H110581   5.323   5.503   1.915
 3525TIP3    H210582   5.436   5.488   1.815
 3526TIP3   OH210583   2.032   3.479   0.385
 3526TIP3    H110584   2.081   3.409   0.341
 3526TIP3    H210585   1.948   3.482   0.338
 3527TIP3   OH210586   4.079   1.477   4.429
 3527TIP3    H110587   4.149   1.482   4.363
 3527TIP3    H210588   4.012   1.421   4.389
 3528TIP3   OH210589   0.848   3.255   1.137
 3528TIP3    H110590   0.887   3.176   1.100
 3528TIP3    H210591   0.757   3.254   1.105
 3529TIP3   OH210592   2.069   5.694   5.114
 3529TIP3    H110593   1.995   5.671   5.170
 3529TIP3    H210594   2.033   5.692   5.026
 3530TIP3   OH210595   0.354   5.447   0.845
 3530TIP3    H110596   0.344   5.388   0.770
 3530TIP3    H210597   0.291   5.517   0.828
 3531TIP3   OH210598   0.084   2.397   2.750
 3531TIP3    H110599   0.129   2.342   2.814
 3531TIP3    H210600   0.111   2.360   2.665
 3532TIP3   OH210601   0.051   0.261   0.848
 3532TIP3    H110602   0.004   0.200   0.792
 3532TIP3    H210603  -0.017   0.318   0.884
 3533TIP3   OH210604   5.270   4.382   2.007
 3533TIP3    H110605   5.251   4.292   1.979
 3533TIP3    H210606   5.278   4.376   2.103
 3534TIP3   OH210607   2.712   4.189   2.050
 3534TIP3    H110608   2.683   4.140   2.127
 3534TIP3    H210609   2.769   4.129   2.003
 3535TIP3   OH210610   4.757   5.314   0.441
 3535TIP3    H110611   4.815   5.310   0.517
 3535TIP3    H210612   4.817   5.309   0.366
 3536TIP3   OH210613   3.493   3.485   3.334
 3536TIP3    H110614   3.570   3.535   3.306
 3536TIP3    H210615   3.469   3.434   3.257
 3537TIP3   OH210616   1.070   5.627   2.956
 3537TIP3    H110617   1.020   5.550   2.928
 3537TIP3    H210618   1.096   5.670   2.874
 3538TIP3   OH210619   1.721   5.443   0.334
 3538TIP3    H110620   1.744   5.506   0.402
 3538TIP3    H210621   1.726   5.358   0.378
 3539TIP3   OH210622   0.079   5.498   0.458
 3539TIP3    H110623   0.056   5.427   0.518
 3539TIP3    H210624  -0.004   5.541   0.439
 3540TIP3   OH210625   3.087   3.812   1.173
 3540TIP3    H110626   3.040   3.733   1.197
 3540TIP3    H210627   3.176   3.798   1.206
 3541TIP3   OH210628   1.726   5.854   3.989
 3541TIP3    H110629   1.760   5.922   3.931
 3541TIP3    H210630   1.692   5.902   4.064
 3542TIP3   OH210631   2.956   2.000   0.119
 3542TIP3    H110632   2.905   1.964   0.046
 3542TIP3    H210633   3.019   2.059   0.077
 3543TIP3   OH210634   1.571   2.192   1.289
 3543TIP3    H110635   1.508   2.265   1.286
 3543TIP3    H210636   1.616   2.203   1.372
 3544TIP3   OH210637   1.151   1.946   0.145
 3544TIP3    H110638   1.095   2.023   0.131
 3544TIP3    H210639   1.142   1.926   0.238
 3545TIP3   OH210640   4.415   2.231   3.883
 3545TIP3    H110641   4.489   2.191   3.929
 3545TIP3    H210642   4.338   2.188   3.919
 3546TIP3   OH210643   3.932   0.973   0.300
 3546TIP3    H110644   3.995   0.905   0.324
 3546TIP3    H210645   3.867   0.972   0.371
 3547TIP3   OH210646   4.672   1.068   0.516
 3547TIP3    H110647   4.621   1.010   0.459
 3547TIP3    H210648   4.630   1.059   0.602
 3548TIP3   OH210649   1.127   2.744   2.172
 3548TIP3    H110650   1.036   2.741   2.201
 3548TIP3    H210651   1.169   2.669   2.214
 3549TIP3   OH210652   4.692   5.088   2.015
 3549TIP3    H110653   4.642   5.159   2.054
 3549TIP3    H210654   4.627   5.031   1.975
 3550TIP3   OH210655   2.823   0.303   0.954
 3550TIP3    H110656   2.799   0.357   1.029
 3550TIP3    H210657   2.801   0.356   0.877
 3551TIP3   OH210658   2.146   1.998   3.230
 3551TIP3    H110659   2.061   2.035   3.256
 3551TIP3    H210660   2.123   1.924   3.173
 3552TIP3   OH210661   1.347   1.939   4.600
 3552TIP3    H110662   1.363   1.976   4.513
 3552TIP3    H210663   1.288   2.002   4.642
 3553TIP3   OH210664   1.801   4.535   2.518
 3553TIP3    H110665   1.769   4.451   2.486
 3553TIP3    H210666   1.748   4.600   2.473
 3554TIP3   OH210667   2.232   4.845   5.170
 3554TIP3    H110668   2.245   4.903   5.095
 3554TIP3    H210669   2.278   4.888   5.242
 3555TIP3   OH210670   3.436   1.197   4.103
 3555TIP3    H110671   3.440   1.292   4.115
 3555TIP3    H210672   3.357   1.181   4.052
 3556TIP3   OH210673   3.044   2.817   3.912
 3556TIP3    H110674   2.956   2.824   3.948
 3556TIP3    H210675   3.075   2.908   3.906
 3557TIP3   OH210676   2.692   5.575   2.003
 3557TIP3    H110677   2.655   5.492   1.973
 3557TIP3    H210678   2.786   5.565   1.991
 3558TIP3   OH210679   3.910   2.372   3.537
 3558TIP3    H110680   3.899   2.318   3.615
 3558TIP3    H210681   3.839   2.436   3.542
 3559TIP3   OH210682   3.152   1.705   3.000
 3559TIP3    H110683   3.115   1.642   2.937
 3559TIP3    H210684   3.130   1.791   2.964
 3560TIP3   OH210685   3.893   0.112   3.901
 3560TIP3    H110686   3.826   0.179   3.917
 3560TIP3    H210687   3.952   0.152   3.837
 3561TIP3   OH210688   5.953   1.717   3.071
 3561TIP3    H110689   5.881   1.679   3.020
 3561TIP3    H210690   5.912   1.749   3.151
 3562TIP3   OH210691   5.822   4.665   3.151
 3562TIP3    H110692   5.754   4.723   3.186
 3562TIP3    H210693   5.864   4.716   3.082
 3563TIP3   OH210694   2.008   0.151   3.466
 3563TIP3    H110695   1.928   0.134   3.516
 3563TIP3    H210696   2.028   0.243   3.485
 3564TIP3   OH210697   4.510   0.597   2.340
 3564TIP3    H110698   4.484   0.689   2.354
 3564TIP3    H210699   4.462   0.549   2.407
 3565TIP3   OH210700   6.059   4.195   0.190
 3565TIP3    H110701   6.016   4.165   0.271
 3565TIP3    H210702   6.142   4.233   0.220
 3566TIP3   OH210703   0.182   3.677   2.760
 3566TIP3    H110704   0.254   3.622   2.790
 3566TIP3    H210705   0.209   3.707   2.673
 3567TIP3   OH210706   2.975   1.680   0.959
 3567TIP3    H110707   2.970   1.732   0.879
 3567TIP3    H210708   2.938   1.735   1.027
 3568TIP3   OH210709   1.386   5.647   2.068
 3568TIP3    H110710   1.460   5.639   2.009
 3568TIP3    H210711   1.407   5.722   2.124
 3569TIP3   OH210712   0.130   5.149   4.711
 3569TIP3    H110713   0.116   5.107   4.627
 3569TIP3    H210714   0.045   5.187   4.733
 3570TIP3   OH210715   1.093   2.797   0.260
 3570TIP3    H110716   1.082   2.720   0.315
 3570TIP3    H210717   1.054   2.773   0.176
 3571TIP3   OH210718   1.843   1.755   1.387
 3571TIP3    H110719   1.802   1.676   1.354
 3571TIP3    H210720   1.886   1.794   1.310
 3572TIP3   OH210721   3.240   2.449   5.079
 3572TIP3    H110722   3.295   2.519   5.043
 3572TIP3    H210723   3.218   2.479   5.167
 3573TIP3   OH210724   1.656   0.009   0.402
 3573TIP3    H110725   1.725  -0.045   0.440
 3573TIP3    H210726   1.671   0.096   0.439
 3574TIP3   OH210727   0.553   5.674   1.681
 3574TIP3    H110728   0.590   5.596   1.640
 3574TIP3    H210729   0.573   5.746   1.621
 3575TIP3   OH210730   4.605   1.207   2.501
 3575TIP3    H110731   4.607   1.166   2.415
 3575TIP3    H210732   4.658   1.286   2.492
 3576TIP3   OH210733   5.984   0.723   3.313
 3576TIP3    H110734   5.939   0.755   3.391
 3576TIP3    H210735   5.920   0.730   3.243
 3577TIP3   OH210736   4.675   5.955   3.329
 3577TIP3    H110737   4.617   5.943   3.405
 3577TIP3    H210738   4.758   5.982   3.367
 3578TIP3   OH210739   4.566   2.538   2.843
 3578TIP3    H110740   4.547   2.543   2.937
 3578TIP3    H210741   4.483   2.512   2.803
 3579TIP3   OH210742   4.902   5.435   0.252
 3579TIP3    H110743   4.967   5.487   0.299
 3579TIP3    H210744   4.937   5.430   0.162
 3580TIP3   OH210745   2.998   5.642   2.930
 3580TIP3    H110746   2.984   5.721   2.982
 3580TIP3    H210747   3.033   5.578   2.993
 3581TIP3   OH210748   4.646   1.522   3.633
 3581TIP3    H110749   4.600   1.603   3.655
 3581TIP3    H210750   4.619   1.502   3.543
 3582TIP3   OH210751   5.997   4.940   1.151
 3582TIP3    H110752   6.057   4.872   1.182
 3582TIP3    H210753   5.909   4.905   1.167
 3583TIP3   OH210754   1.970   0.725   2.048
 3583TIP3    H110755   2.008   0.672   1.978
 3583TIP3    H210756   1.933   0.660   2.108
 3584TIP3   OH210757   4.221   2.160   0.577
 3584TIP3    H110758   4.188   2.071   0.568
 3584TIP3    H210759   4.222   2.194   0.487
 3585TIP3   OH210760   5.448   0.326   3.699
 3585TIP3    H110761   5.474   0.353   3.787
 3585TIP3    H210762   5.362   0.286   3.711
 3586TIP3   OH210763   0.335   5.467   2.498
 3586TIP3    H110764   0.335   5.524   2.421
 3586TIP3    H210765   0.426   5.442   2.510
 3587TIP3   OH210766   1.895   1.509   0.076
 3587TIP3    H110767   1.964   1.540   0.017
 3587TIP3    H210768   1.886   1.416   0.057
 3588TIP3   OH210769   2.095   3.153   3.569
 3588TIP3    H110770   2.044   3.223   3.529
 3588TIP3    H210771   2.161   3.131   3.503
 3589TIP3   OH210772   5.346   5.155   0.742
 3589TIP3    H110773   5.258   5.118   0.738
 3589TIP3    H210774   5.339   5.238   0.694
 3590TIP3   OH210775   3.615   5.816   3.311
 3590TIP3    H110776   3.605   5.800   3.217
 3590TIP3    H210777   3.559   5.891   3.329
 3591TIP3   OH210778   3.738   3.747   1.926
 3591TIP3    H110779   3.755   3.830   1.972
 3591TIP3    H210780   3.647   3.726   1.947
 3592TIP3   OH210781   0.744   1.517   0.702
 3592TIP3    H110782   0.738   1.592   0.761
 3592TIP3    H210783   0.836   1.490   0.707
 3593TIP3   OH210784   0.985   3.055   4.693
 3593TIP3    H110785   0.984   3.082   4.601
 3593TIP3    H210786   0.893   3.041   4.715
 3594TIP3   OH210787   6.325   0.707   4.408
 3594TIP3    H110788   6.383   0.706   4.485
 3594TIP3    H210789   6.283   0.793   4.411
 3595TIP3   OH210790   5.238   3.461   2.041
 3595TIP3    H110791   5.238   3.375   2.084
 3595TIP3    H210792   5.307   3.510   2.086
 3596TIP3   OH210793   2.476   0.555   1.371
 3596TIP3    H110794   2.559   0.603   1.371
 3596TIP3    H210795   2.433   0.581   1.452
 3597TIP3   OH210796   4.598   3.284   3.552
 3597TIP3    H110797   4.575   3.224   3.623
 3597TIP3    H210798   4.551   3.365   3.572
 3598TIP3   OH210799   2.040   3.840   4.971
 3598TIP3    H110800   1.974   3.908   4.984
 3598TIP3    H210801   2.113   3.867   5.027
 3599TIP3   OH210802   5.814   3.650   4.074
 3599TIP3    H110803   5.907   3.665   4.058
 3599TIP3    H210804   5.770   3.728   4.040
 3600TIP3   OH210805   6.156   4.700   2.669
 3600TIP3    H110806   6.247   4.711   2.697
 3600TIP3    H210807   6.126   4.789   2.650
 3601TIP3   OH210808   2.960   5.664   0.771
 3601TIP3    H110809   3.029   5.715   0.812
 3601TIP3    H210810   3.006   5.605   0.711
 3602TIP3   OH210811  -0.035   4.506   4.959
 3602TIP3    H110812  -0.046   4.428   4.905
 3602TIP3    H210813   0.033   4.484   5.022
 3603TIP3   OH210814   4.902   1.593   1.149
 3603TIP3    H110815   4.867   1.678   1.177
 3603TIP3    H210816   4.985   1.614   1.108
 3604TIP3   OH210817   5.320   4.415   2.278
 3604TIP3    H110818   5.400   4.460   2.305
 3604TIP3    H210819   5.311   4.343   2.340
 3605TIP3   OH210820   2.444   3.948   2.548
 3605TIP3    H110821   2.521   4.002   2.562
 3605TIP3    H210822   2.418   3.964   2.457
 3606TIP3   OH210823   4.677   5.419   0.827
 3606TIP3    H110824   4.724   5.458   0.900
 3606TIP3    H210825   4.640   5.493   0.779
 3607TIP3   OH210826   1.510   5.134   3.970
 3607TIP3    H110827   1.482   5.148   4.061
 3607TIP3    H210828   1.432   5.101   3.926
 3608TIP3   OH210829   4.968   0.647   3.866
 3608TIP3    H110830   4.933   0.624   3.952
 3608TIP3    H210831   4.891   0.673   3.815
 3609TIP3   OH210832   3.187   3.763   2.648
 3609TIP3    H110833   3.260   3.819   2.673
 3609TIP3    H210834   3.137   3.752   2.729
 3610TIP3   OH210835   2.862   5.509   5.181
 3610TIP3    H110836   2.934   5.571   5.192
 3610TIP3    H210837   2.794   5.560   5.137
 3611TIP3   OH210838   1.022   3.396   1.617
 3611TIP3    H110839   0.975   3.423   1.538
 3611TIP3    H210840   1.013   3.301   1.618
 3612TIP3   OH210841   1.631   1.706   3.068
 3612TIP3    H110842   1.712   1.741   3.104
 3612TIP3    H210843   1.642   1.611   3.070
 3613TIP3   OH210844   2.941   5.780   3.997
 3613TIP3    H110845   3.029   5.798   4.031
 3613TIP3    H210846   2.890   5.753   4.074
 3614TIP3   OH210847   5.494   1.092   4.874
 3614TIP3    H110848   5.487   1.001   4.904
 3614TIP3    H210849   5.523   1.085   4.784
 3615TIP3   OH210850   5.582   2.762   4.495
 3615TIP3    H110851   5.519   2.708   4.542
 3615TIP3    H210852   5.606   2.711   4.418
 3616TIP3   OH210853   1.244   5.775   3.463
 3616TIP3    H110854   1.272   5.866   3.475
 3616TIP3    H210855   1.149   5.778   3.470
 3617TIP3   OH210856   4.868   5.980   1.491
 3617TIP3    H110857   4.846   5.912   1.428
 3617TIP3    H210858   4.886   5.932   1.572
 3618TIP3   OH210859   3.472   3.266   3.523
 3618TIP3    H110860   3.502   3.336   3.464
 3618TIP3    H210861   3.523   3.278   3.603
 3619TIP3   OH210862   4.980   3.337   1.202
 3619TIP3    H110863   4.914   3.283   1.160
 3619TIP3    H210864   4.981   3.418   1.150
 3620TIP3   OH210865   3.382   2.643   3.890
 3620TIP3    H110866   3.289   2.627   3.871
 3620TIP3    H210867   3.412   2.562   3.932
 3621TIP3   OH210868   1.348   4.999   1.940
 3621TIP3    H110869   1.273   5.048   1.907
 3621TIP3    H210870   1.318   4.908   1.944
 3622TIP3   OH210871   0.241   2.273   1.813
 3622TIP3    H110872   0.241   2.266   1.717
 3622TIP3    H210873   0.260   2.365   1.830
 3623TIP3   OH210874   4.456   5.567   4.072
 3623TIP3    H110875   4.536   5.521   4.095
 3623TIP3    H210876   4.429   5.529   3.988
 3624TIP3   OH210877   4.093   1.660   1.847
 3624TIP3    H110878   4.087   1.580   1.795
 3624TIP3    H210879   4.162   1.711   1.804
 3625TIP3   OH210880   1.958   5.055   0.474
 3625TIP3    H110881   2.044   5.025   0.445
 3625TIP3    H210882   1.950   5.143   0.437
 3626TIP3   OH210883   0.425   0.349   0.792
 3626TIP3    H110884   0.418   0.316   0.882
 3626TIP3    H210885   0.508   0.314   0.760
 3627TIP3   OH210886   0.392   4.463   0.771
 3627TIP3    H110887   0.302   4.430   0.772
 3627TIP3    H210888   0.444   4.389   0.803
 3628TIP3   OH210889   5.252   2.460   1.616
 3628TIP3    H110890   5.330   2.409   1.592
 3628TIP3    H210891   5.189   2.440   1.547
 3629TIP3   OH210892   2.781   5.512   3.840
 3629TIP3    H110893   2.739   5.432   3.808
 3629TIP3    H210894   2.708   5.568   3.867
 3630TIP3   OH210895   5.173   0.673   1.580
 3630TIP3    H110896   5.253   0.717   1.553
 3630TIP3    H210897   5.103   0.720   1.535
 3631TIP3   OH210898   6.143   2.847   1.123
 3631TIP3    H110899   6.089   2.925   1.106
 3631TIP3    H210900   6.156   2.808   1.036
 3632TIP3   OH210901   5.828   4.483   0.362
 3632TIP3    H110902   5.767   4.415   0.331
 3632TIP3    H210903   5.894   4.489   0.293
 3633TIP3   OH210904   3.381   3.180   2.173
 3633TIP3    H110905   3.458   3.160   2.226
 3633TIP3    H210906   3.354   3.096   2.136
 3634TIP3   OH210907   4.459   1.727   2.511
 3634TIP3    H110908   4.464   1.810   2.559
 3634TIP3    H210909   4.501   1.745   2.427
 3635TIP3   OH210910   0.806   3.919   2.471
 3635TIP3    H110911   0.824   3.902   2.379
 3635TIP3    H210912   0.756   4.000   2.472
 3636TIP3   OH210913   3.757   0.328   2.701
 3636TIP3    H110914   3.668   0.355   2.681
 3636TIP3    H210915   3.756   0.309   2.795
 3637TIP3   OH210916   2.135   0.364   2.843
 3637TIP3    H110917   2.071   0.299   2.814
 3637TIP3    H210918   2.218   0.334   2.806
 3638TIP3   OH210919   1.020   4.784   2.149
 3638TIP3    H110920   0.967   4.811   2.074
 3638TIP3    H210921   1.047   4.866   2.190
 3639TIP3   OH210922   4.354   0.569   4.987
 3639TIP3    H110923   4.314   0.656   4.990
 3639TIP3    H210924   4.439   0.582   4.945
 3640TIP3   OH210925   0.467   1.213   3.011
 3640TIP3    H110926   0.545   1.259   2.979
 3640TIP3    H210927   0.483   1.202   3.105
 3641TIP3   OH210928   1.869   5.497   2.885
 3641TIP3    H110929   1.876   5.519   2.978
 3641TIP3    H210930   1.954   5.520   2.848
 3642TIP3   OH210931   6.247   0.538   3.536
 3642TIP3    H110932   6.167   0.514   3.583
 3642TIP3    H210933   6.251   0.477   3.462
 3643TIP3   OH210934   5.555   0.489   1.426
 3643TIP3    H110935   5.612   0.412   1.420
 3643TIP3    H210936   5.609   0.561   1.395
 3644TIP3   OH210937   2.043   4.408   3.382
 3644TIP3    H110938   2.072   4.492   3.418
 3644TIP3    H210939   2.124   4.360   3.366
 3645TIP3   OH210940   4.150   0.033   2.027
 3645TIP3    H110941   4.220  -0.032   2.018
 3645TIP3    H210942   4.192   0.116   2.004
 3646TIP3   OH210943   2.663   4.974   1.179
 3646TIP3    H110944   2.700   4.898   1.225
 3646TIP3    H210945   2.689   5.049   1.233
 3647TIP3   OH210946   6.156   1.147   3.145
 3647TIP3    H110947   6.091   1.208   3.180
 3647TIP3    H210948   6.218   1.202   3.097
 3648TIP3   OH210949   2.984   0.820   4.427
 3648TIP3    H110950   3.078   0.836   4.414
 3648TIP3    H210951   2.954   0.894   4.480
 3649TIP3   OH210952   1.418   0.106   0.317
 3649TIP3    H110953   1.404   0.148   0.401
 3649TIP3    H210954   1.486   0.040   0.333
 3650TIP3   OH210955   3.038   4.904   1.138
 3650TIP3    H110956   3.028   4.872   1.228
 3650TIP3    H210957   3.086   4.834   1.093
 3651TIP3   OH210958   1.244   1.013   1.277
 3651TIP3    H110959   1.163   1.027   1.228
 3651TIP3    H210960   1.287   0.940   1.232
 3652TIP3   OH210961   5.068   3.336   4.053
 3652TIP3    H110962   5.157   3.341   4.089
 3652TIP3    H210963   5.020   3.280   4.115
 3653TIP3   OH210964   4.773   3.953   3.882
 3653TIP3    H110965   4.734   4.022   3.828
 3653TIP3    H210966   4.704   3.929   3.944
 3654TIP3   OH210967   2.098   5.113   3.416
 3654TIP3    H110968   2.027   5.177   3.405
 3654TIP3    H210969   2.172   5.165   3.448
 3655TIP3   OH210970   5.220   5.229   1.835
 3655TIP3    H110971   5.146   5.239   1.895
 3655TIP3    H210972   5.290   5.279   1.876
 3656TIP3   OH210973   3.364   2.266   0.188
 3656TIP3    H110974   3.299   2.318   0.141
 3656TIP3    H210975   3.333   2.176   0.180
 3657TIP3   OH210976   5.558   3.755   0.564
 3657TIP3    H110977   5.627   3.764   0.630
 3657TIP3    H210978   5.480   3.731   0.614
 3658TIP3   OH210979   5.677   1.426   2.275
 3658TIP3    H110980   5.689   1.333   2.290
 3658TIP3    H210981   5.764   1.464   2.290
 3659TIP3   OH210982   2.702   0.417   1.790
 3659TIP3    H110983   2.698   0.352   1.720
 3659TIP3    H210984   2.796   0.437   1.798
 3660TIP3   OH210985   1.540   1.057   1.563
 3660TIP3    H110986   1.554   1.111   1.641
 3660TIP3    H210987   1.624   1.013   1.549
 3661TIP3   OH210988   4.633   3.846   4.217
 3661TIP3    H110989   4.725   3.871   4.208
 3661TIP3    H210990   4.594   3.917   4.270
 3662TIP3   OH210991   3.285   5.642   3.823
 3662TIP3    H110992   3.348   5.591   3.874
 3662TIP3    H210993   3.320   5.639   3.733
 3663TIP3   OH210994   1.656   0.104   3.982
 3663TIP3    H110995   1.591   0.070   3.921
 3663TIP3    H210996   1.681   0.028   4.035
 3664TIP3   OH210997   2.440   5.454   0.751
 3664TIP3    H110998   2.514   5.411   0.794
 3664TIP3    H210999   2.395   5.500   0.821
 3665TIP3   OH211000   5.862   3.464   2.369
 3665TIP3    H111001   5.922   3.398   2.405
 3665TIP3    H211002   5.789   3.467   2.431
 3666TIP3   OH211003   1.102   2.532   3.852
 3666TIP3    H111004   1.145   2.548   3.936
 3666TIP3    H211005   1.023   2.485   3.875
 3667TIP3   OH211006   4.812   5.993   0.113
 3667TIP3    H111007   4.901   5.963   0.098
 3667TIP3    H211008   4.760   5.912   0.121
 3668TIP3   OH211009   1.545   1.969   0.009
 3668TIP3    H111010   1.485   1.895   0.018
 3668TIP3    H211011   1.618   1.948   0.067
 3669TIP3   OH211012   2.504   0.218   1.089
 3669TIP3    H111013   2.415   0.196   1.117
 3669TIP3    H211014   2.493   0.277   1.015
 3670TIP3   OH211015   5.713   3.024   3.716
 3670TIP3    H111016   5.804   3.037   3.743
 3670TIP3    H211017   5.670   3.107   3.737
 3671TIP3   OH211018   6.052   0.618   2.616
 3671TIP3    H111019   6.100   0.653   2.691
 3671TIP3    H211020   6.029   0.696   2.564
 3672TIP3   OH211021   2.819   3.089   0.219
 3672TIP3    H111022   2.912   3.074   0.201
 3672TIP3    H211023   2.819   3.142   0.298
 3673TIP3   OH211024   4.423   4.373   0.643
 3673TIP3    H111025   4.338   4.346   0.680
 3673TIP3    H211026   4.455   4.440   0.704
 3674TIP3   OH211027   6.116   0.328   2.813
 3674TIP3    H111028   6.097   0.419   2.788
 3674TIP3    H211029   6.031   0.285   2.809
 3675TIP3   OH211030   3.428   0.988   1.696
 3675TIP3    H111031   3.507   0.960   1.741
 3675TIP3    H211032   3.357   0.960   1.754
 3676TIP3   OH211033   2.453   3.154   4.113
 3676TIP3    H111034   2.481   3.239   4.080
 3676TIP3    H211035   2.400   3.174   4.190
 3677TIP3   OH211036   3.032   3.962   2.986
 3677TIP3    H111037   3.120   3.993   3.008
 3677TIP3    H211038   3.005   4.015   2.911
 3678TIP3   OH211039   6.310   4.090   1.077
 3678TIP3    H111040   6.275   4.005   1.049
 3678TIP3    H211041   6.240   4.152   1.057
 3679TIP3   OH211042   3.089   3.322   3.572
 3679TIP3    H111043   3.118   3.380   3.643
 3679TIP3    H211044   3.152   3.249   3.575
 3680TIP3   OH211045   3.903   4.408   1.839
 3680TIP3    H111046   3.921   4.395   1.746
 3680TIP3    H211047   3.914   4.321   1.878
 3681TIP3   OH211048   3.955   4.468   4.911
 3681TIP3    H111049   3.888   4.512   4.964
 3681TIP3    H211050   3.944   4.375   4.931
 3682TIP3   OH211051   5.064   2.246   1.160
 3682TIP3    H111052   5.083   2.287   1.076
 3682TIP3    H211053   4.973   2.219   1.153
 3683TIP3   OH211054   2.914   4.357   0.596
 3683TIP3    H111055   2.855   4.423   0.561
 3683TIP3    H211056   2.999   4.400   0.599
 3684TIP3   OH211057   5.521   0.675   2.426
 3684TIP3    H111058   5.464   0.650   2.354
 3684TIP3    H211059   5.537   0.593   2.474
 3685TIP3   OH211060   6.269   5.301   2.054
 3685TIP3    H111061   6.217   5.237   2.006
 3685TIP3    H211062   6.360   5.276   2.036
 3686TIP3   OH211063   5.215   0.319   0.626
 3686TIP3    H111064   5.292   0.369   0.652
 3686TIP3    H211065   5.186   0.274   0.705
 3687TIP3   OH211066   1.788   4.747   1.886
 3687TIP3    H111067   1.800   4.804   1.962
 3687TIP3    H211068   1.701   4.709   1.899
 3688TIP3   OH211069   2.303   0.300   0.522
 3688TIP3    H111070   2.239   0.255   0.467
 3688TIP3    H211071   2.374   0.237   0.534
 3689TIP3   OH211072   6.069   1.006   2.164
 3689TIP3    H111073   6.016   1.084   2.147
 3689TIP3    H211074   6.147   1.039   2.208
 3690TIP3   OH211075   3.511   1.057   1.257
 3690TIP3    H111076   3.446   1.083   1.323
 3690TIP3    H211077   3.459   1.028   1.183
 3691TIP3   OH211078   3.055   2.161   0.770
 3691TIP3    H111079   2.969   2.136   0.804
 3691TIP3    H211080   3.036   2.203   0.686
 3692TIP3   OH211081   5.691   1.228   2.932
 3692TIP3    H111082   5.686   1.134   2.914
 3692TIP3    H211083   5.763   1.237   2.995
 3693TIP3   OH211084   5.354   0.234   2.455
 3693TIP3    H111085   5.325   0.256   2.366
 3693TIP3    H211086   5.274   0.213   2.502
 3694TIP3   OH211087   4.419   2.642   0.330
 3694TIP3    H111088   4.500   2.614   0.373
 3694TIP3    H211089   4.356   2.572   0.350
 3695TIP3   OH211090   0.730   1.950   3.507
 3695TIP3    H111091   0.815   1.982   3.477
 3695TIP3    H211092   0.672   2.026   3.500
 3696TIP3   OH211093   1.821   0.504   4.542
 3696TIP3    H111094   1.827   0.537   4.452
 3696TIP3    H211095   1.836   0.410   4.533
 3697TIP3   OH211096   4.626   2.490   4.782
 3697TIP3    H111097   4.682   2.550   4.831
 3697TIP3    H211098   4.645   2.403   4.818
 3698TIP3   OH211099   0.859   4.349   4.259
 3698TIP3    H111100   0.782   4.377   4.209
 3698TIP3    H211101   0.932   4.361   4.199
 3699TIP3   OH211102   2.437   0.655   2.701
 3699TIP3    H111103   2.348   0.643   2.667
 3699TIP3    H211104   2.434   0.615   2.788
 3700TIP3   OH211105   4.089   1.576   2.107
 3700TIP3    H111106   4.121   1.631   2.035
 3700TIP3    H211107   4.028   1.515   2.065
 3701TIP3   OH211108   2.530   5.096   0.625
 3701TIP3    H111109   2.538   5.188   0.647
 3701TIP3    H211110   2.438   5.075   0.641
 3702TIP3   OH211111   5.420   4.522   2.788
 3702TIP3    H111112   5.490   4.577   2.822
 3702TIP3    H211113   5.364   4.506   2.864
 3703TIP3   OH211114   1.401   5.613   2.424
 3703TIP3    H111115   1.470   5.548   2.431
 3703TIP3    H211116   1.447   5.697   2.420
 3704TIP3   OH211117   5.780   3.803   0.771
 3704TIP3    H111118   5.733   3.751   0.836
 3704TIP3    H211119   5.785   3.891   0.809
 3705TIP3   OH211120   5.286   5.769   4.675
 3705TIP3    H111121   5.204   5.777   4.626
 3705TIP3    H211122   5.300   5.855   4.714
 3706TIP3   OH211123   4.475   3.564   3.306
 3706TIP3    H111124   4.473   3.655   3.277
 3706TIP3    H211125   4.383   3.537   3.310
 3707TIP3   OH211126   2.117   2.650  -0.009
 3707TIP3    H111127   2.059   2.718  -0.045
 3707TIP3    H211128   2.184   2.698   0.039
 3708TIP3   OH211129   2.539   2.235   5.167
 3708TIP3    H111130   2.488   2.166   5.210
 3708TIP3    H211131   2.598   2.187   5.108
 3709TIP3   OH211132   6.300   0.209   4.765
 3709TIP3    H111133   6.221   0.262   4.775
 3709TIP3    H211134   6.362   0.267   4.721
 3710TIP3   OH211135   3.998   4.851   3.555
 3710TIP3    H111136   4.073   4.863   3.497
 3710TIP3    H211137   4.023   4.777   3.611
 3711TIP3   OH211138   1.316   3.683   0.359
 3711TIP3    H111139   1.251   3.634   0.409
 3711TIP3    H211140   1.274   3.767   0.341
 3712TIP3   OH211141   2.294   4.028   2.997
 3712TIP3    H111142   2.228   4.019   3.065
 3712TIP3    H211143   2.378   4.017   3.042
 3713TIP3   OH211144   1.766   3.200   3.891
 3713TIP3    H111145   1.839   3.140   3.875
 3713TIP3    H211146   1.689   3.152   3.861
 3714TIP3   OH211147   4.976   4.112   1.956
 3714TIP3    H111148   5.070   4.128   1.951
 3714TIP3    H211149   4.937   4.191   1.918
 3715TIP3   OH211150   6.193   5.007   4.428
 3715TIP3    H111151   6.235   4.931   4.388
 3715TIP3    H211152   6.200   5.076   4.362
 3716TIP3   OH211153   0.335   2.645   1.348
 3716TIP3    H111154   0.246   2.677   1.360
 3716TIP3    H211155   0.341   2.624   1.255
 3717TIP3   OH211156   1.838   1.488   1.340
 3717TIP3    H111157   1.897   1.414   1.330
 3717TIP3    H211158   1.812   1.485   1.433
 3718TIP3   OH211159   3.152   5.316   4.532
 3718TIP3    H111160   3.179   5.331   4.622
 3718TIP3    H211161   3.172   5.224   4.515
 3719TIP3   OH211162   1.987   5.294   0.342
 3719TIP3    H111163   2.080   5.305   0.324
 3719TIP3    H211164   1.963   5.372   0.393
 3720TIP3   OH211165   4.808   3.310   3.940
 3720TIP3    H111166   4.896   3.334   3.969
 3720TIP3    H211167   4.761   3.393   3.937
 3721TIP3   OH211168   3.573   4.625   2.278
 3721TIP3    H111169   3.591   4.688   2.209
 3721TIP3    H211170   3.511   4.563   2.239
 3722TIP3   OH211171   2.478   4.788   1.353
 3722TIP3    H111172   2.425   4.864   1.328
 3722TIP3    H211173   2.529   4.818   1.428
 3723TIP3   OH211174   0.359   0.871   4.429
 3723TIP3    H111175   0.306   0.939   4.471
 3723TIP3    H211176   0.347   0.885   4.335
 3724TIP3   OH211177   6.347   0.914   0.211
 3724TIP3    H111178   6.266   0.872   0.182
 3724TIP3    H211179   6.354   0.892   0.304
 3725TIP3   OH211180   4.603   3.045   1.876
 3725TIP3    H111181   4.615   3.124   1.928
 3725TIP3    H211182   4.610   2.973   1.939
 3726TIP3   OH211183   0.618   0.272   2.402
 3726TIP3    H111184   0.712   0.271   2.420
 3726TIP3    H211185   0.595   0.365   2.403
 3727TIP3   OH211186   4.374   4.319   4.821
 3727TIP3    H111187   4.414   4.398   4.784
 3727TIP3    H211188   4.434   4.248   4.799
 3728TIP3   OH211189   4.915   5.941   2.787
 3728TIP3    H111190   4.945   5.855   2.817
 3728TIP3    H211191   4.926   5.938   2.692
 3729TIP3   OH211192   3.874   4.156   2.008
 3729TIP3    H111193   3.809   4.093   2.040
 3729TIP3    H211194   3.911   4.115   1.930
 3730TIP3   OH211195   0.097   3.913   3.612
 3730TIP3    H111196   0.171   3.896   3.554
 3730TIP3    H211197   0.073   4.004   3.594
 3731TIP3   OH211198   1.919   5.166   2.377
 3731TIP3    H111199   1.914   5.071   2.372
 3731TIP3    H211200   1.900   5.186   2.469
 3732TIP3   OH211201   0.732   0.089   0.444
 3732TIP3    H111202   0.827   0.075   0.435
 3732TIP3    H211203   0.696   0.001   0.454
 3733TIP3   OH211204   2.474   2.800   3.275
 3733TIP3    H111205   2.563   2.830   3.293
 3733TIP3    H211206   2.475   2.707   3.298
 3734TIP3   OH211207   3.692   4.333   1.181
 3734TIP3    H111208   3.597   4.324   1.173
 3734TIP3    H211209   3.723   4.347   1.092
 3735TIP3   OH211210   2.440   3.317   0.342
 3735TIP3    H111211   2.459   3.271   0.424
 3735TIP3    H211212   2.464   3.255   0.273
 3736TIP3   OH211213   4.214   4.489   2.362
 3736TIP3    H111214   4.263   4.500   2.281
 3736TIP3    H211215   4.128   4.458   2.334
 3737TIP3   OH211216   0.859   4.275   3.803
 3737TIP3    H111217   0.866   4.369   3.786
 3737TIP3    H211218   0.779   4.267   3.855
 3738TIP3   OH211219   2.835   3.950   3.794
 3738TIP3    H111220   2.772   4.011   3.832
 3738TIP3    H211221   2.799   3.863   3.813
 3739TIP3   OH211222   3.716   3.594   3.214
 3739TIP3    H111223   3.682   3.678   3.184
 3739TIP3    H211224   3.788   3.574   3.154
 3740TIP3   OH211225   3.384   0.219   2.191
 3740TIP3    H111226   3.299   0.201   2.151
 3740TIP3    H211227   3.411   0.134   2.228
 3741TIP3   OH211228   3.967   5.982   4.662
 3741TIP3    H111229   3.978   5.952   4.572
 3741TIP3    H211230   4.052   6.019   4.686
 3742TIP3   OH211231   1.922   3.812   0.700
 3742TIP3    H111232   1.960   3.736   0.657
 3742TIP3    H211233   1.831   3.814   0.670
 3743TIP3   OH211234   0.430   0.912   0.247
 3743TIP3    H111235   0.412   0.873   0.333
 3743TIP3    H211236   0.519   0.884   0.227
 3744TIP3   OH211237   5.890   3.333   4.489
 3744TIP3    H111238   5.911   3.362   4.400
 3744TIP3    H211239   5.802   3.366   4.505
 3745TIP3   OH211240   2.550   4.212   1.704
 3745TIP3    H111241   2.623   4.163   1.668
 3745TIP3    H211242   2.505   4.248   1.628
 3746TIP3   OH211243   5.132   1.812   1.177
 3746TIP3    H111244   5.199   1.758   1.134
 3746TIP3    H211245   5.110   1.763   1.257
 3747TIP3   OH211246   2.792   5.348   1.503
 3747TIP3    H111247   2.875   5.394   1.493
 3747TIP3    H211248   2.742   5.403   1.564
 3748TIP3   OH211249   4.699   5.839   4.312
 3748TIP3    H111250   4.759   5.767   4.294
 3748TIP3    H211251   4.755   5.911   4.341
 3749TIP3   OH211252   1.848   0.248   0.823
 3749TIP3    H111253   1.899   0.285   0.894
 3749TIP3    H211254   1.795   0.179   0.864
 3750TIP3   OH211255   4.216   4.966   4.202
 3750TIP3    H111256   4.289   4.915   4.239
 3750TIP3    H211257   4.141   4.906   4.206
 3751TIP3   OH211258   1.257   4.498   0.351
 3751TIP3    H111259   1.186   4.474   0.411
 3751TIP3    H211260   1.337   4.470   0.397
 3752TIP3   OH211261   3.432   0.047   2.793
 3752TIP3    H111262   3.369   0.058   2.864
 3752TIP3    H211263   3.421  -0.043   2.764
 3753TIP3   OH211264   5.277   1.467   3.606
 3753TIP3    H111265   5.322   1.531   3.661
 3753TIP3    H211266   5.194   1.508   3.584
 3754TIP3   OH211267   3.300   1.414   1.813
 3754TIP3    H111268   3.319   1.410   1.719
 3754TIP3    H211269   3.299   1.508   1.833
 3755TIP3   OH211270   3.561   1.936   3.766
 3755TIP3    H111271   3.612   1.883   3.827
 3755TIP3    H211272   3.471   1.929   3.798
 3756TIP3   OH211273   1.776   2.893   2.196
 3756TIP3    H111274   1.777   2.800   2.173
 3756TIP3    H211275   1.694   2.906   2.243
 3757TIP3   OH211276   3.196   4.220   2.702
 3757TIP3    H111277   3.199   4.231   2.607
 3757TIP3    H211278   3.128   4.154   2.717
 3758TIP3   OH211279   3.452   3.611   2.346
 3758TIP3    H111280   3.543   3.582   2.341
 3758TIP3    H211281   3.400   3.530   2.342
 3759TIP3   OH211282   2.297   4.054   3.708
 3759TIP3    H111283   2.268   4.143   3.729
 3759TIP3    H211284   2.366   4.035   3.772
 3760TIP3   OH211285   4.825   1.977   3.997
 3760TIP3    H111286   4.829   1.929   3.915
 3760TIP3    H211287   4.890   1.934   4.053
 3761TIP3   OH211288   1.626   4.599   2.846
 3761TIP3    H111289   1.556   4.626   2.906
 3761TIP3    H211290   1.688   4.671   2.849
 3762TIP3   OH211291   2.540   4.552   1.496
 3762TIP3    H111292   2.629   4.583   1.507
 3762TIP3    H211293   2.507   4.600   1.420
 3763TIP3   OH211294   1.184   4.602   3.899
 3763TIP3    H111295   1.250   4.554   3.848
 3763TIP3    H211296   1.118   4.627   3.835
 3764TIP3   OH211297   0.308   5.864   3.415
 3764TIP3    H111298   0.232   5.885   3.469
 3764TIP3    H211299   0.363   5.942   3.420
 3765TIP3   OH211300   1.185   1.336   4.151
 3765TIP3    H111301   1.150   1.347   4.239
 3765TIP3    H211302   1.218   1.246   4.149
 3766TIP3   OH211303   1.152   1.134   0.387
 3766TIP3    H111304   1.172   1.149   0.479
 3766TIP3    H211305   1.097   1.055   0.386
 3767TIP3   OH211306   3.617   0.782   3.665
 3767TIP3    H111307   3.554   0.712   3.646
 3767TIP3    H211308   3.652   0.806   3.579
 3768TIP3   OH211309   2.411   1.320   2.067
 3768TIP3    H111310   2.397   1.254   2.000
 3768TIP3    H211311   2.379   1.279   2.148
 3769TIP3   OH211312   0.869   1.245   0.822
 3769TIP3    H111313   0.845   1.163   0.778
 3769TIP3    H211314   0.950   1.272   0.778
 3770TIP3   OH211315   5.596   5.554   1.477
 3770TIP3    H111316   5.558   5.573   1.391
 3770TIP3    H211317   5.555   5.472   1.504
 3771TIP3   OH211318   1.966   1.666   0.291
 3771TIP3    H111319   1.950   1.624   0.207
 3771TIP3    H211320   1.890   1.722   0.306
 3772TIP3   OH211321   2.263   1.569   1.096
 3772TIP3    H111322   2.206   1.493   1.084
 3772TIP3    H211323   2.238   1.604   1.182
 3773TIP3   OH211324   6.125   5.165   1.848
 3773TIP3    H111325   6.053   5.147   1.787
 3773TIP3    H211326   6.145   5.257   1.834
 3774TIP3   OH211327   1.582   2.379   2.314
 3774TIP3    H111328   1.510   2.435   2.344
 3774TIP3    H211329   1.629   2.356   2.394
 3775TIP3   OH211330   2.636   0.666   0.874
 3775TIP3    H111331   2.640   0.628   0.787
 3775TIP3    H211332   2.544   0.685   0.889
 3776TIP3   OH211333   0.089   3.364   4.125
 3776TIP3    H111334   0.135   3.432   4.076
 3776TIP3    H211335   0.071   3.404   4.211
 3777TIP3   OH211336   3.383   4.877   0.404
 3777TIP3    H111337   3.297   4.856   0.365
 3777TIP3    H211338   3.392   4.971   0.392
 3778TIP3   OH211339   3.785   1.919   0.446
 3778TIP3    H111340   3.741   1.846   0.401
 3778TIP3    H211341   3.839   1.877   0.512
 3779TIP3   OH211342   5.124   0.322   4.466
 3779TIP3    H111343   5.103   0.268   4.541
 3779TIP3    H211344   5.143   0.260   4.396
 3780TIP3   OH211345   4.652   0.767   4.272
 3780TIP3    H111346   4.653   0.840   4.333
 3780TIP3    H211347   4.586   0.790   4.207
 3781TIP3   OH211348   0.857   0.196   1.389
 3781TIP3    H111349   0.799   0.128   1.422
 3781TIP3    H211350   0.840   0.272   1.444
 3782TIP3   OH211351   4.024   2.919   3.503
 3782TIP3    H111352   4.021   3.011   3.530
 3782TIP3    H211353   3.959   2.875   3.557
 3783TIP3   OH211354   3.000   5.496   1.987
 3783TIP3    H111355   2.992   5.552   2.065
 3783TIP3    H211356   3.091   5.508   1.958
 3784TIP3   OH211357   0.860   4.693   3.205
 3784TIP3    H111358   0.867   4.787   3.219
 3784TIP3    H211359   0.824   4.684   3.117
 3785TIP3   OH211360   1.121   4.300   2.401
 3785TIP3    H111361   1.169   4.380   2.381
 3785TIP3    H211362   1.156   4.235   2.340
 3786TIP3   OH211363   3.924   1.227   3.514
 3786TIP3    H111364   3.895   1.291   3.579
 3786TIP3    H211365   3.844   1.203   3.467
 3787TIP3   OH211366   2.643   5.815   2.215
 3787TIP3    H111367   2.715   5.831   2.275
 3787TIP3    H211368   2.686   5.787   2.134
 3788TIP3   OH211369   1.083   2.993   0.627
 3788TIP3    H111370   0.991   2.970   0.633
 3788TIP3    H211371   1.087   3.086   0.650
 3789TIP3   OH211372   2.056   1.769   1.803
 3789TIP3    H111373   2.138   1.796   1.843
 3789TIP3    H211374   1.998   1.750   1.877
 3790TIP3   OH211375   2.829   2.548   3.511
 3790TIP3    H111376   2.892   2.478   3.527
 3790TIP3    H211377   2.810   2.583   3.598
 3791TIP3   OH211378   2.121   1.663   4.141
 3791TIP3    H111379   2.185   1.702   4.200
 3791TIP3    H211380   2.102   1.578   4.180
 3792TIP3   OH211381   4.140   4.650   4.494
 3792TIP3    H111382   4.094   4.604   4.564
 3792TIP3    H211383   4.215   4.594   4.473
 3793TIP3   OH211384   5.699   0.881   0.655
 3793TIP3    H111385   5.687   0.947   0.587
 3793TIP3    H211386   5.686   0.798   0.609
 3794TIP3   OH211387   4.744   0.278   1.939
 3794TIP3    H111388   4.771   0.369   1.946
 3794TIP3    H211389   4.653   0.277   1.969
 3795TIP3   OH211390   2.458   1.114   1.850
 3795TIP3    H111391   2.397   1.140   1.782
 3795TIP3    H211392   2.538   1.091   1.803
 3796TIP3   OH211393   2.515   2.331   3.596
 3796TIP3    H111394   2.440   2.297   3.645
 3796TIP3    H211395   2.587   2.273   3.622
 3797TIP3   OH211396   1.196   4.007   2.733
 3797TIP3    H111397   1.100   4.004   2.723
 3797TIP3    H211398   1.214   4.099   2.755
 3798TIP3   OH211399   1.765   4.194   1.404
 3798TIP3    H111400   1.800   4.158   1.323
 3798TIP3    H211401   1.841   4.199   1.462
 3799TIP3   OH211402   2.906   5.130   3.849
 3799TIP3    H111403   2.917   5.175   3.932
 3799TIP3    H211404   2.985   5.151   3.799
 3800TIP3   OH211405   2.048   1.085   0.613
 3800TIP3    H111406   1.961   1.110   0.646
 3800TIP3    H211407   2.085   1.167   0.580
 3801TIP3   OH211408   3.771   0.508   3.520
 3801TIP3    H111409   3.734   0.541   3.438
 3801TIP3    H211410   3.723   0.427   3.537
 3802TIP3   OH211411   5.437   2.266   1.031
 3802TIP3    H111412   5.497   2.276   1.105
 3802TIP3    H211413   5.494   2.252   0.956
 3803TIP3   OH211414   0.317   4.953   4.626
 3803TIP3    H111415   0.266   5.032   4.642
 3803TIP3    H211416   0.408   4.983   4.623
 3804TIP3   OH211417   4.450   5.624   2.660
 3804TIP3    H111418   4.468   5.574   2.739
 3804TIP3    H211419   4.405   5.562   2.603
 3805TIP3   OH211420   1.392   0.280   2.207
 3805TIP3    H111421   1.476   0.235   2.200
 3805TIP3    H211422   1.378   0.320   2.121
 3806TIP3   OH211423   0.435   5.793   4.315
 3806TIP3    H111424   0.401   5.853   4.248
 3806TIP3    H211425   0.361   5.737   4.337
 3807TIP3   OH211426   5.531   2.113   2.986
 3807TIP3    H111427   5.604   2.054   3.006
 3807TIP3    H211428   5.530   2.118   2.891
 3808TIP3   OH211429   1.776   2.580   3.143
 3808TIP3    H111430   1.721   2.650   3.179
 3808TIP3    H211431   1.859   2.587   3.191
 3809TIP3   OH211432   2.254   4.221   2.813
 3809TIP3    H111433   2.161   4.215   2.791
 3809TIP3    H211434   2.266   4.154   2.881
 3810TIP3   OH211435   5.398   1.352   2.482
 3810TIP3    H111436   5.334   1.288   2.514
 3810TIP3    H211437   5.466   1.351   2.549
 3811TIP3   OH211438   3.538   5.852   4.722
 3811TIP3    H111439   3.467   5.846   4.786
 3811TIP3    H211440   3.615   5.818   4.767
 3812TIP3   OH211441   3.597   0.747   2.148
 3812TIP3    H111442   3.538   0.783   2.214
 3812TIP3    H211443   3.659   0.818   2.130
 3813TIP3   OH211444   5.949   3.965   0.052
 3813TIP3    H111445   5.994   4.036   0.099
 3813TIP3    H211446   5.873   4.007   0.012
 3814TIP3   OH211447   6.280   2.535   4.919
 3814TIP3    H111448   6.185   2.524   4.922
 3814TIP3    H211449   6.313   2.478   4.988
 3815TIP3   OH211450   0.352   0.347   1.517
 3815TIP3    H111451   0.380   0.438   1.521
 3815TIP3    H211452   0.399   0.304   1.588
 3816TIP3   OH211453   4.052   0.295   3.734
 3816TIP3    H111454   4.058   0.382   3.775
 3816TIP3    H211455   4.033   0.314   3.642
 3817TIP3   OH211456   5.308   0.955   1.826
 3817TIP3    H111457   5.341   0.872   1.860
 3817TIP3    H211458   5.234   0.931   1.771
 3818TIP3   OH211459   2.099   0.598   1.685
 3818TIP3    H111460   2.118   0.506   1.702
 3818TIP3    H211461   2.017   0.597   1.635
 3819TIP3   OH211462   1.402   3.383   0.381
 3819TIP3    H111463   1.452   3.323   0.326
 3819TIP3    H211464   1.405   3.467   0.333
 3820TIP3   OH211465   4.479   5.864   2.545
 3820TIP3    H111466   4.483   5.925   2.618
 3820TIP3    H211467   4.435   5.787   2.580
 3821TIP3   OH211468   1.476   2.946   0.973
 3821TIP3    H111469   1.493   2.854   0.954
 3821TIP3    H211470   1.407   2.971   0.912
 3822TIP3   OH211471   4.696   3.776   1.220
 3822TIP3    H111472   4.649   3.704   1.263
 3822TIP3    H211473   4.783   3.741   1.203
 3823TIP3   OH211474   1.426   3.587   3.110
 3823TIP3    H111475   1.479   3.630   3.178
 3823TIP3    H211476   1.400   3.504   3.148
 3824TIP3   OH211477   1.383   4.213   2.037
 3824TIP3    H111478   1.476   4.224   2.056
 3824TIP3    H211479   1.345   4.178   2.118
 3825TIP3   OH211480   4.978   4.240   1.103
 3825TIP3    H111481   4.922   4.206   1.173
 3825TIP3    H211482   5.042   4.294   1.150
 3826TIP3   OH211483   4.755   3.033   3.979
 3826TIP3    H111484   4.739   3.126   3.963
 3826TIP3    H211485   4.848   3.028   4.001
 3827TIP3   OH211486   6.240   0.706   0.838
 3827TIP3    H111487   6.263   0.632   0.783
 3827TIP3    H211488   6.144   0.708   0.839
 3828TIP3   OH211489   1.519   1.908   2.962
 3828TIP3    H111490   1.550   1.923   2.873
 3828TIP3    H211491   1.579   1.841   2.997
 3829TIP3   OH211492   2.061   5.634   2.418
 3829TIP3    H111493   2.050   5.603   2.508
 3829TIP3    H211494   1.972   5.654   2.389
 3830TIP3   OH211495   2.957   4.876   2.904
 3830TIP3    H111496   2.912   4.960   2.897
 3830TIP3    H211497   3.031   4.893   2.962
 3831TIP3   OH211498   3.311   4.892   2.454
 3831TIP3    H111499   3.240   4.951   2.427
 3831TIP3    H211500   3.265   4.812   2.480
 3832TIP3   OH211501   6.090   0.139   4.035
 3832TIP3    H111502   6.056   0.224   4.009
 3832TIP3    H211503   6.017   0.098   4.082
 3833TIP3   OH211504   1.795   4.838   2.848
 3833TIP3    H111505   1.733   4.906   2.874
 3833TIP3    H211506   1.853   4.829   2.923
 3834TIP3   OH211507   1.452   3.583   3.391
 3834TIP3    H111508   1.462   3.661   3.446
 3834TIP3    H211509   1.533   3.534   3.404
 3835TIP3   OH211510   3.347   2.939   0.458
 3835TIP3    H111511   3.430   2.909   0.420
 3835TIP3    H211512   3.300   2.858   0.477
 3836TIP3   OH211513   0.067   1.621   0.615
 3836TIP3    H111514   0.037   1.552   0.555
 3836TIP3    H211515   0.036   1.702   0.575
 3837TIP3   OH211516   5.992   0.740   3.797
 3837TIP3    H111517   6.017   0.777   3.713
 3837TIP3    H211518   5.910   0.693   3.778
 3838TIP3   OH211519   3.651   3.550   1.128
 3838TIP3    H111520   3.679   3.490   1.059
 3838TIP3    H211521   3.573   3.593   1.093
 3839TIP3   OH211522   1.423   0.819   2.345
 3839TIP3    H111523   1.475   0.760   2.400
 3839TIP3    H211524   1.333   0.789   2.358
 3840TIP3   OH211525   3.294   0.928   2.980
 3840TIP3    H111526   3.200   0.943   2.977
 3840TIP3    H211527   3.313   0.879   2.900
 3841TIP3   OH211528   3.274   5.476   2.064
 3841TIP3    H111529   3.244   5.498   2.152
 3841TIP3    H211530   3.313   5.556   2.031
 3842TIP3   OH211531   0.504   2.243   0.016
 3842TIP3    H111532   0.543   2.254   0.103
 3842TIP3    H211533   0.567   2.189  -0.031
 3843TIP3   OH211534   5.698   3.029   3.404
 3843TIP3    H111535   5.793   3.041   3.397
 3843TIP3    H211536   5.684   3.004   3.496
 3844TIP3   OH211537   4.368   0.507   0.538
 3844TIP3    H111538   4.409   0.447   0.600
 3844TIP3    H211539   4.365   0.457   0.456
 3845TIP3   OH211540   0.644   2.261   0.695
 3845TIP3    H111541   0.653   2.205   0.617
 3845TIP3    H211542   0.575   2.218   0.746
 3846TIP3   OH211543   0.003   4.893   3.987
 3846TIP3    H111544   0.002   4.801   3.960
 3846TIP3    H211545  -0.031   4.892   4.076
 3847TIP3   OH211546   0.620   2.736   3.580
 3847TIP3    H111547   0.544   2.785   3.612
 3847TIP3    H211548   0.585   2.678   3.513
 3848TIP3   OH211549   2.360   2.911   3.948
 3848TIP3    H111550   2.413   2.958   4.012
 3848TIP3    H211551   2.279   2.963   3.941
 3849TIP3   OH211552   1.885   5.703   3.389
 3849TIP3    H111553   1.897   5.667   3.477
 3849TIP3    H211554   1.794   5.732   3.388
 3850TIP3   OH211555   4.029   2.928   5.069
 3850TIP3    H111556   3.977   2.940   5.148
 3850TIP3    H211557   3.984   2.860   5.019
 3851TIP3   OH211558   2.962   5.333   4.006
 3851TIP3    H111559   3.031   5.359   3.946
 3851TIP3    H211560   2.887   5.388   3.981
 3852TIP3   OH211561   1.044   3.668   0.401
 3852TIP3    H111562   1.003   3.731   0.341
 3852TIP3    H211563   0.974   3.645   0.463
 3853TIP3   OH211564   2.228   5.513   4.864
 3853TIP3    H111565   2.134   5.495   4.864
 3853TIP3    H211566   2.268   5.429   4.888
 3854TIP3   OH211567   4.911   5.788   3.046
 3854TIP3    H111568   4.991   5.784   3.099
 3854TIP3    H211569   4.902   5.880   3.021
 3855TIP3   OH211570   3.985   1.128   1.629
 3855TIP3    H111571   3.921   1.063   1.602
 3855TIP3    H211572   3.933   1.198   1.668
 3856TIP3   OH211573   0.878   0.712   1.141
 3856TIP3    H111574   0.926   0.762   1.075
 3856TIP3    H211575   0.800   0.765   1.160
 3857TIP3   OH211576   3.998   0.730   1.775
 3857TIP3    H111577   3.990   0.762   1.865
 3857TIP3    H211578   3.911   0.698   1.753
 3858TIP3   OH211579   5.393   4.027   5.090
 3858TIP3    H111580   5.340   4.007   5.013
 3858TIP3    H211581   5.354   3.975   5.160
 3859TIP3   OH211582   4.877   4.133   0.868
 3859TIP3    H111583   4.782   4.122   0.866
 3859TIP3    H211584   4.893   4.182   0.949
 3860TIP3   OH211585   4.052   2.608   1.079
 3860TIP3    H111586   4.006   2.641   1.002
 3860TIP3    H211587   4.137   2.651   1.078
 3861TIP3   OH211588   1.551   4.671   4.515
 3861TIP3    H111589   1.610   4.665   4.590
 3861TIP3    H211590   1.497   4.592   4.521
 3862TIP3   OH211591   3.237   1.280   0.786
 3862TIP3    H111592   3.319   1.329   0.791
 3862TIP3    H211593   3.180   1.324   0.849
 3863TIP3   OH211594   5.243   2.002   4.211
 3863TIP3    H111595   5.222   2.094   4.224
 3863TIP3    H211596   5.317   1.985   4.269
 3864TIP3   OH211597   2.953   5.984   3.816
 3864TIP3    H111598   2.913   6.054   3.867
 3864TIP3    H211599   2.939   5.905   3.868
 3865TIP3   OH211600   3.480   1.428   0.819
 3865TIP3    H111601   3.523   1.509   0.794
 3865TIP3    H211602   3.536   1.359   0.784
 3866TIP3   OH211603   5.910   1.713   5.039
 3866TIP3    H111604   5.885   1.791   5.088
 3866TIP3    H211605   5.912   1.643   5.105
 3867TIP3   OH211606   4.896   0.100   4.871
 3867TIP3    H111607   4.807   0.065   4.875
 3867TIP3    H211608   4.903   0.158   4.947
 3868TIP3   OH211609   4.368   4.907   4.608
 3868TIP3    H111610   4.273   4.900   4.617
 3868TIP3    H211611   4.403   4.852   4.678
 3869TIP3   OH211612   5.769   5.047   3.618
 3869TIP3    H111613   5.817   5.090   3.689
 3869TIP3    H211614   5.811   4.962   3.608
 3870TIP3   OH211615   2.960   0.076   3.911
 3870TIP3    H111616   2.961   0.127   3.991
 3870TIP3    H211617   3.012  -0.002   3.931
 3871TIP3   OH211618   6.204   2.642   4.460
 3871TIP3    H111619   6.257   2.712   4.497
 3871TIP3    H211620   6.258   2.606   4.390
 3872TIP3   OH211621   6.002   4.894   0.541
 3872TIP3    H111622   6.058   4.817   0.552
 3872TIP3    H211623   5.985   4.898   0.447
 3873TIP3   OH211624   3.744   2.977   4.462
 3873TIP3    H111625   3.744   2.974   4.558
 3873TIP3    H211626   3.836   2.964   4.438
 3874TIP3   OH211627   4.913   5.048   4.137
 3874TIP3    H111628   4.933   5.076   4.227
 3874TIP3    H211629   4.924   5.127   4.084
 3875TIP3   OH211630   5.417   1.140   4.524
 3875TIP3    H111631   5.503   1.131   4.565
 3875TIP3    H211632   5.356   1.153   4.597
 3876TIP3   OH211633   0.682   2.417   2.298
 3876TIP3    H111634   0.738   2.452   2.367
 3876TIP3    H211635   0.620   2.360   2.344
 3877TIP3   OH211636   5.946   5.171   5.072
 3877TIP3    H111637   5.875   5.233   5.095
 3877TIP3    H211638   5.940   5.162   4.977
 3878TIP3   OH211639   5.632   0.680   0.468
 3878TIP3    H111640   5.567   0.710   0.404
 3878TIP3    H211641   5.638   0.585   0.453
 3879TIP3   OH211642   5.794   5.895   1.977
 3879TIP3    H111643   5.850   5.887   2.054
 3879TIP3    H211644   5.711   5.856   2.003
 3880TIP3   OH211645   3.653   3.126   4.935
 3880TIP3    H111646   3.670   3.190   4.866
 3880TIP3    H211647   3.702   3.159   5.010
 3881TIP3   OH211648   5.466   1.054   0.577
 3881TIP3    H111649   5.407   1.049   0.653
 3881TIP3    H211650   5.435   0.985   0.518
 3882TIP3   OH211651   1.544   5.360   4.617
 3882TIP3    H111652   1.527   5.445   4.576
 3882TIP3    H211653   1.459   5.331   4.648
 3883TIP3   OH211654   4.054   2.935   1.467
 3883TIP3    H111655   4.114   2.925   1.394
 3883TIP3    H211656   4.077   3.019   1.506
 3884TIP3   OH211657   1.224   2.177   1.859
 3884TIP3    H111658   1.284   2.245   1.890
 3884TIP3    H211659   1.253   2.157   1.770
 3885TIP3   OH211660   1.194   3.801   1.488
 3885TIP3    H111661   1.255   3.863   1.449
 3885TIP3    H211662   1.198   3.820   1.582
 3886TIP3   OH211663   6.016   2.248   5.032
 3886TIP3    H111664   6.025   2.334   4.992
 3886TIP3    H211665   6.045   2.260   5.123
 3887TIP3   OH211666   2.845   1.092   4.015
 3887TIP3    H111667   2.832   1.077   4.109
 3887TIP3    H211668   2.775   1.153   3.991
 3888TIP3   OH211669   4.665   5.473   0.106
 3888TIP3    H111670   4.735   5.450   0.166
 3888TIP3    H211671   4.663   5.401   0.043
 3889TIP3   OH211672   5.965   0.291   1.422
 3889TIP3    H111673   5.963   0.383   1.447
 3889TIP3    H211674   5.881   0.276   1.378
 3890TIP3   OH211675   4.290   2.966   3.503
 3890TIP3    H111676   4.212   2.915   3.484
 3890TIP3    H211677   4.281   3.044   3.448
 3891TIP3   OH211678   0.036   3.955   1.586
 3891TIP3    H111679   0.117   3.946   1.636
 3891TIP3    H211680   0.016   4.048   1.589
 3892TIP3   OH211681   4.305   2.666   0.932
 3892TIP3    H111682   4.399   2.681   0.943
 3892TIP3    H211683   4.298   2.571   0.918
 3893TIP3   OH211684   0.399   1.510   4.712
 3893TIP3    H111685   0.483   1.527   4.755
 3893TIP3    H211686   0.410   1.425   4.670
 3894TIP3   OH211687   0.593   5.336   1.883
 3894TIP3    H111688   0.567   5.355   1.973
 3894TIP3    H211689   0.620   5.244   1.885
 3895TIP3   OH211690   1.782   4.943   0.170
 3895TIP3    H111691   1.704   4.891   0.190
 3895TIP3    H211692   1.808   4.979   0.255
 3896TIP3   OH211693   1.790   4.703   1.344
 3896TIP3    H111694   1.832   4.694   1.429
 3896TIP3    H211695   1.731   4.627   1.338
 3897TIP3   OH211696   6.300   0.231   0.356
 3897TIP3    H111697   6.378   0.193   0.316
 3897TIP3    H211698   6.325   0.320   0.380
 3898TIP3   OH211699   0.927   2.614   4.847
 3898TIP3    H111700   0.996   2.666   4.806
 3898TIP3    H211701   0.941   2.626   4.941
 3899TIP3   OH211702   2.486   2.634   2.326
 3899TIP3    H111703   2.391   2.622   2.331
 3899TIP3    H211704   2.516   2.562   2.271
 3900TIP3   OH211705   4.239   4.439   3.521
 3900TIP3    H111706   4.151   4.404   3.508
 3900TIP3    H211707   4.280   4.433   3.435
 3901TIP3   OH211708   3.596   0.858   1.415
 3901TIP3    H111709   3.676   0.817   1.383
 3901TIP3    H211710   3.590   0.941   1.367
 3902TIP3   OH211711   0.378   3.410   4.048
 3902TIP3    H111712   0.321   3.434   3.976
 3902TIP3    H211713   0.401   3.493   4.090
 3903TIP3   OH211714   2.345   5.796   1.259
 3903TIP3    H111715   2.323   5.758   1.174
 3903TIP3    H211716   2.382   5.881   1.239
 3904TIP3   OH211717   0.426   5.853   0.503
 3904TIP3    H111718   0.462   5.768   0.477
 3904TIP3    H211719   0.405   5.897   0.420
 3905TIP3   OH211720   2.836   4.327   2.584
 3905TIP3    H111721   2.909   4.384   2.559
 3905TIP3    H211722   2.785   4.378   2.646
 3906TIP3   OH211723   4.765   1.692   2.519
 3906TIP3    H111724   4.718   1.774   2.505
 3906TIP3    H211725   4.852   1.719   2.548
 3907TIP3   OH211726   0.633   5.209   1.563
 3907TIP3    H111727   0.663   5.156   1.489
 3907TIP3    H211728   0.595   5.146   1.624
 3908TIP3   OH211729   5.940   2.024   4.885
 3908TIP3    H111730   5.912   2.050   4.797
 3908TIP3    H211731   5.987   2.101   4.918
 3909TIP3   OH211732   0.231   0.200   4.563
 3909TIP3    H111733   0.240   0.109   4.535
 3909TIP3    H211734   0.150   0.229   4.521
 3910TIP3   OH211735   1.436   1.196   4.561
 3910TIP3    H111736   1.406   1.127   4.620
 3910TIP3    H211737   1.521   1.223   4.596
 3911TIP3   OH211738   4.217   3.575   3.383
 3911TIP3    H111739   4.171   3.584   3.467
 3911TIP3    H211740   4.156   3.525   3.328
 3912TIP3   OH211741   0.097   3.053   0.503
 3912TIP3    H111742   0.060   3.140   0.491
 3912TIP3    H211743   0.048   3.016   0.577
 3913TIP3   OH211744   2.882   1.183   3.601
 3913TIP3    H111745   2.943   1.239   3.553
 3913TIP3    H211746   2.936   1.137   3.665
 3914TIP3   OH211747   0.212   1.364   3.297
 3914TIP3    H111748   0.209   1.405   3.210
 3914TIP3    H211749   0.182   1.275   3.282
 3915TIP3   OH211750   5.914   1.526   2.461
 3915TIP3    H111751   5.971   1.562   2.529
 3915TIP3    H211752   5.940   1.571   2.381
 3916TIP3   OH211753   4.630   0.991   2.993
 3916TIP3    H111754   4.688   1.017   3.064
 3916TIP3    H211755   4.675   1.022   2.914
 3917TIP3   OH211756   5.168   2.675   2.371
 3917TIP3    H111757   5.080   2.655   2.402
 3917TIP3    H211758   5.207   2.589   2.353
 3918TIP3   OH211759   3.291   1.293   0.189
 3918TIP3    H111760   3.208   1.342   0.192
 3918TIP3    H211761   3.299   1.266   0.097
 3919TIP3   OH211762   1.639   4.179   0.718
 3919TIP3    H111763   1.698   4.232   0.771
 3919TIP3    H211764   1.687   4.098   0.701
 3920TIP3   OH211765   2.440   5.729   1.929
 3920TIP3    H111766   2.508   5.684   1.979
 3920TIP3    H211767   2.486   5.799   1.883
 3921TIP3   OH211768   4.210   1.789   2.969
 3921TIP3    H111769   4.253   1.742   2.898
 3921TIP3    H211770   4.281   1.834   3.015
 3922TIP3   OH211771   5.721   3.235   4.156
 3922TIP3    H111772   5.648   3.257   4.214
 3922TIP3    H211773   5.789   3.299   4.179
 3923TIP3   OH211774   5.843   0.486   4.698
 3923TIP3    H111775   5.856   0.574   4.664
 3923TIP3    H211776   5.748   0.479   4.711
 3924TIP3   OH211777   2.634   4.605   3.763
 3924TIP3    H111778   2.560   4.664   3.778
 3924TIP3    H211779   2.709   4.663   3.750
 3925TIP3   OH211780   4.142   2.094   3.579
 3925TIP3    H111781   4.092   2.020   3.546
 3925TIP3    H211782   4.095   2.122   3.658
 3926TIP3   OH211783   2.168   0.459   0.220
 3926TIP3    H111784   2.247   0.508   0.198
 3926TIP3    H211785   2.158   0.396   0.149
 3927TIP3   OH211786   3.656   1.890   3.023
 3927TIP3    H111787   3.655   1.985   3.022
 3927TIP3    H211788   3.602   1.864   2.948
 3928TIP3   OH211789   3.573   4.440   0.633
 3928TIP3    H111790   3.560   4.526   0.592
 3928TIP3    H211791   3.665   4.420   0.616
 3929TIP3   OH211792   1.428   3.953   1.298
 3929TIP3    H111793   1.460   4.015   1.363
 3929TIP3    H211794   1.474   3.872   1.317
 3930TIP3   OH211795   2.825   4.156   3.313
 3930TIP3    H111796   2.890   4.138   3.381
 3930TIP3    H211797   2.750   4.102   3.337
 3931TIP3   OH211798   1.019   3.375   4.642
 3931TIP3    H111799   1.053   3.414   4.562
 3931TIP3    H211800   0.927   3.358   4.624
 3932TIP3   OH211801   0.170   3.292   2.593
 3932TIP3    H111802   0.106   3.302   2.663
 3932TIP3    H211803   0.119   3.272   2.515
 3933TIP3   OH211804   4.215   5.931   2.710
 3933TIP3    H111805   4.185   5.982   2.786
 3933TIP3    H211806   4.136   5.913   2.660
 3934TIP3   OH211807   4.838   2.151   2.262
 3934TIP3    H111808   4.834   2.216   2.192
 3934TIP3    H211809   4.792   2.075   2.226
 3935TIP3   OH211810   3.733   4.554   3.659
 3935TIP3    H111811   3.774   4.468   3.652
 3935TIP3    H211812   3.712   4.578   3.568
 3936TIP3   OH211813   5.741   5.018   1.002
 3936TIP3    H111814   5.817   5.025   0.944
 3936TIP3    H211815   5.747   4.931   1.041
 3937TIP3   OH211816   3.216   0.350   0.475
 3937TIP3    H111817   3.249   0.426   0.428
 3937TIP3    H211818   3.128   0.375   0.502
 3938TIP3   OH211819   4.344   0.174   3.067
 3938TIP3    H111820   4.401   0.187   3.143
 3938TIP3    H211821   4.381   0.230   2.999
 3939TIP3   OH211822   0.169   4.690   2.187
 3939TIP3    H111823   0.084   4.722   2.158
 3939TIP3    H211824   0.150   4.607   2.230
 3940TIP3   OH211825   0.230   1.036   3.871
 3940TIP3    H111826   0.173   1.064   3.799
 3940TIP3    H211827   0.193   1.078   3.949
 3941TIP3   OH211828   4.430   3.538   1.899
 3941TIP3    H111829   4.485   3.613   1.880
 3941TIP3    H211830   4.453   3.473   1.832
 3942TIP3   OH211831   3.621   2.344   1.205
 3942TIP3    H111832   3.710   2.315   1.225
 3942TIP3    H211833   3.620   2.437   1.227
 3943TIP3   OH211834   3.584   1.024   5.091
 3943TIP3    H111835   3.586   1.120   5.084
 3943TIP3    H211836   3.596   0.994   5.001
 3944TIP3   OH211837   2.807   3.162   4.554
 3944TIP3    H111838   2.891   3.195   4.522
 3944TIP3    H211839   2.746   3.179   4.482
 3945TIP3   OH211840   3.155   2.103   1.151
 3945TIP3    H111841   3.218   2.033   1.135
 3945TIP3    H211842   3.172   2.167   1.081
 3946TIP3   OH211843   5.868   1.853   3.300
 3946TIP3    H111844   5.925   1.806   3.361
 3946TIP3    H211845   5.822   1.917   3.354
 3947TIP3   OH211846   2.161   0.337   5.183
 3947TIP3    H111847   2.109   0.370   5.110
 3947TIP3    H211848   2.249   0.327   5.146
 3948TIP3   OH211849   4.677   3.588   5.067
 3948TIP3    H111850   4.733   3.658   5.100
 3948TIP3    H211851   4.604   3.634   5.025
 3949TIP3   OH211852   4.135   5.214   1.337
 3949TIP3    H111853   4.062   5.274   1.321
 3949TIP3    H211854   4.131   5.151   1.266
 3950TIP3   OH211855   4.468   0.900   1.076
 3950TIP3    H111856   4.504   0.890   0.988
 3950TIP3    H211857   4.475   0.994   1.094
 3951TIP3   OH211858   2.922   0.698   1.819
 3951TIP3    H111859   2.953   0.609   1.838
 3951TIP3    H211860   2.834   0.700   1.858
 3952TIP3   OH211861   5.264   2.191   2.616
 3952TIP3    H111862   5.333   2.147   2.566
 3952TIP3    H211863   5.188   2.188   2.558
 3953TIP3   OH211864   3.678   1.713   0.923
 3953TIP3    H111865   3.677   1.703   1.018
 3953TIP3    H211866   3.586   1.718   0.897
 3954TIP3   OH211867   3.132   3.980   2.339
 3954TIP3    H111868   3.079   3.942   2.409
 3954TIP3    H211869   3.165   3.905   2.290
 3955TIP3   OH211870   0.207   1.246   0.921
 3955TIP3    H111871   0.203   1.264   0.827
 3955TIP3    H211872   0.271   1.309   0.954
 3956TIP3   OH211873   5.089   2.524   2.875
 3956TIP3    H111874   5.137   2.579   2.936
 3956TIP3    H211875   5.156   2.474   2.829
 3957TIP3   OH211876   3.747   0.924   1.636
 3957TIP3    H111877   3.761   0.853   1.699
 3957TIP3    H211878   3.692   0.886   1.568
 3958TIP3   OH211879   2.693   2.468   4.515
 3958TIP3    H111880   2.707   2.397   4.453
 3958TIP3    H211881   2.779   2.509   4.525
 3959TIP3   OH211882   5.490   0.962   2.398
 3959TIP3    H111883   5.501   0.872   2.428
 3959TIP3    H211884   5.397   0.980   2.412
 3960TIP3   OH211885   0.897   5.746   2.366
 3960TIP3    H111886   0.884   5.675   2.429
 3960TIP3    H211887   0.844   5.721   2.290
 3961TIP3   OH211888   1.812   3.848   4.748
 3961TIP3    H111889   1.883   3.784   4.740
 3961TIP3    H211890   1.751   3.826   4.678
 3962TIP3   OH211891   3.295   5.298   4.776
 3962TIP3    H111892   3.299   5.323   4.868
 3962TIP3    H211893   3.352   5.360   4.731
 3963TIP3   OH211894   6.292   2.116   3.475
 3963TIP3    H111895   6.207   2.160   3.477
 3963TIP3    H211896   6.355   2.182   3.504
 3964TIP3   OH211897   5.811   3.030   2.318
 3964TIP3    H111898   5.867   3.107   2.317
 3964TIP3    H211899   5.735   3.056   2.370
 3965TIP3   OH211900   6.264   0.183   1.975
 3965TIP3    H111901   6.330   0.130   1.932
 3965TIP3    H211902   6.244   0.252   1.912
 3966TIP3   OH211903   1.372   5.927   4.487
 3966TIP3    H111904   1.362   6.003   4.543
 3966TIP3    H211905   1.291   5.877   4.500
 3967TIP3   OH211906   0.329   3.664   0.997
 3967TIP3    H111907   0.355   3.647   0.907
 3967TIP3    H211908   0.266   3.595   1.017
 3968TIP3   OH211909   2.384   2.838   1.068
 3968TIP3    H111910   2.296   2.876   1.066
 3968TIP3    H211911   2.434   2.892   1.007
 3969TIP3   OH211912   4.654   0.706   1.764
 3969TIP3    H111913   4.712   0.636   1.794
 3969TIP3    H211914   4.567   0.667   1.764
 3970TIP3   OH211915   3.938   5.146   3.013
 3970TIP3    H111916   3.856   5.104   2.986
 3970TIP3    H211917   3.919   5.183   3.099
 3971TIP3   OH211918   4.625   2.526   0.462
 3971TIP3    H111919   4.578   2.549   0.542
 3971TIP3    H211920   4.616   2.431   0.456
 3972TIP3   OH211921   1.755   1.594   3.583
 3972TIP3    H111922   1.834   1.638   3.554
 3972TIP3    H211923   1.700   1.589   3.504
 3973TIP3   OH211924   0.858   0.875   4.030
 3973TIP3    H111925   0.765   0.860   4.045
 3973TIP3    H211926   0.871   0.968   4.049
 3974TIP3   OH211927   2.135   4.613   3.794
 3974TIP3    H111928   2.182   4.530   3.793
 3974TIP3    H211929   2.109   4.627   3.703
 3975TIP3   OH211930   2.042   2.701   4.619
 3975TIP3    H111931   2.046   2.674   4.527
 3975TIP3    H211932   2.048   2.796   4.617
 3976TIP3   OH211933   4.185   1.264   2.738
 3976TIP3    H111934   4.179   1.339   2.797
 3976TIP3    H211935   4.238   1.200   2.785
 3977TIP3   OH211936   5.959   0.574   1.512
 3977TIP3    H111937   5.872   0.594   1.548
 3977TIP3    H211938   6.013   0.648   1.540
 3978TIP3   OH211939   5.594   3.026   0.638
 3978TIP3    H111940   5.664   2.994   0.580
 3978TIP3    H211941   5.517   2.976   0.613
 3979TIP3   OH211942   4.034   0.476   1.358
 3979TIP3    H111943   4.098   0.528   1.408
 3979TIP3    H211944   4.069   0.474   1.269
 3980TIP3   OH211945   1.053   3.965   5.060
 3980TIP3    H111946   1.023   4.055   5.049
 3980TIP3    H211947   0.980   3.920   5.103
 3981TIP3   OH211948   1.327   0.429   1.956
 3981TIP3    H111949   1.308   0.522   1.963
 3981TIP3    H211950   1.274   0.399   1.882
 3982TIP3   OH211951   3.662   0.208   3.234
 3982TIP3    H111952   3.749   0.208   3.194
 3982TIP3    H211953   3.630   0.119   3.224
 3983TIP3   OH211954   0.605   4.728   4.694
 3983TIP3    H111955   0.512   4.706   4.698
 3983TIP3    H211956   0.607   4.816   4.656
 3984TIP3   OH211957   1.386   0.576   0.768
 3984TIP3    H111958   1.424   0.659   0.796
 3984TIP3    H211959   1.392   0.519   0.844
 3985TIP3   OH211960   3.411   3.511   1.786
 3985TIP3    H111961   3.420   3.436   1.844
 3985TIP3    H211962   3.438   3.587   1.839
 3986TIP3   OH211963   1.937   3.626   3.006
 3986TIP3    H111964   1.854   3.607   2.962
 3986TIP3    H211965   2.004   3.598   2.943
 3987TIP3   OH211966   0.547   5.247   0.474
 3987TIP3    H111967   0.554   5.327   0.423
 3987TIP3    H211968   0.636   5.229   0.503
 3988TIP3   OH211969   2.798   1.050   0.442
 3988TIP3    H111970   2.775   0.958   0.456
 3988TIP3    H211971   2.749   1.097   0.510
 3989TIP3   OH211972   1.957   5.462   0.729
 3989TIP3    H111973   1.951   5.385   0.784
 3989TIP3    H211974   1.904   5.441   0.652
 3990TIP3   OH211975   2.480   2.849   2.142
 3990TIP3    H111976   2.559   2.892   2.111
 3990TIP3    H211977   2.508   2.802   2.221
 3991TIP3   OH211978   1.313   2.735   4.025
 3991TIP3    H111979   1.378   2.695   4.082
 3991TIP3    H211980   1.245   2.765   4.084
 3992TIP3   OH211981   6.005   3.806   3.021
 3992TIP3    H111982   5.924   3.773   2.982
 3992TIP3    H211983   6.048   3.728   3.057
 3993TIP3   OH211984   0.346   4.827   3.279
 3993TIP3    H111985   0.402   4.807   3.204
 3993TIP3    H211986   0.301   4.745   3.297
 3994TIP3   OH211987   1.622   1.347   4.244
 3994TIP3    H111988   1.548   1.289   4.263
 3994TIP3    H211989   1.607   1.378   4.155
 3995TIP3   OH211990   5.502   5.557   2.529
 3995TIP3    H111991   5.410   5.577   2.511
 3995TIP3    H211992   5.530   5.623   2.592
 3996TIP3   OH211993   0.837   1.424   1.250
 3996TIP3    H111994   0.830   1.470   1.333
 3996TIP3    H211995   0.931   1.409   1.238
 3997TIP3   OH211996   5.305   5.385   2.067
 3997TIP3    H111997   5.374   5.332   2.107
 3997TIP3    H211998   5.270   5.437   2.139
 3998TIP3   OH211999   4.499   1.755   3.970
 3998TIP3    H112000   4.441   1.681   3.988
 3998TIP3    H212001   4.553   1.726   3.896
 3999TIP3   OH212002   0.967   5.237   4.728
 3999TIP3    H112003   1.044   5.191   4.762
 3999TIP3    H212004   0.898   5.170   4.727
 4000TIP3   OH212005   3.983   2.129   3.798
 4000TIP3    H112006   3.921   2.057   3.808
 4000TIP3    H212007   3.958   2.192   3.866
 4001TIP3   OH212008   3.882   3.126   0.858
 4001TIP3    H112009   3.837   3.065   0.799
 4001TIP3    H212010   3.975   3.108   0.846
 4002TIP3   OH212011   0.022   1.725   2.475
 4002TIP3    H112012  -0.015   1.637   2.479
 4002TIP3    H212013   0.101   1.720   2.528
 4003TIP3   OH212014   4.985   4.238   4.631
 4003TIP3    H112015   4.960   4.277   4.547
 4003TIP3    H212016   4.966   4.145   4.622
 4004TIP3   OH212017   0.148   3.367   4.897
 4004TIP3    H112018   0.232   3.385   4.939
 4004TIP3    H212019   0.096   3.326   4.966
 4005TIP3   OH212020   6.269   4.726   2.095
 4005TIP3    H112021   6.198   4.680   2.139
 4005TIP3    H212022   6.231   4.810   2.069
 4006TIP3   OH212023   4.154   1.923   5.072
 4006TIP3    H112024   4.242   1.960   5.067
 4006TIP3    H212025   4.099   1.995   5.103
 4007TIP3   OH212026   5.683   0.204   2.982
 4007TIP3    H112027   5.638   0.151   2.916
 4007TIP3    H212028   5.732   0.140   3.034
 4008TIP3   OH212029   4.634   1.002   4.392
 4008TIP3    H112030   4.697   1.047   4.335
 4008TIP3    H212031   4.552   1.049   4.379
 4009TIP3   OH212032   5.349   0.046   1.550
 4009TIP3    H112033   5.379   0.033   1.460
 4009TIP3    H212034   5.420   0.012   1.604
 4010TIP3   OH212035   5.174   1.322   0.141
 4010TIP3    H112036   5.120   1.401   0.146
 4010TIP3    H212037   5.169   1.283   0.229
 4011TIP3   OH212038   5.423   3.932   0.016
 4011TIP3    H112039   5.494   3.996   0.017
 4011TIP3    H212040   5.343   3.984   0.014
 4012TIP3   OH212041   2.775   0.435   4.404
 4012TIP3    H112042   2.781   0.342   4.422
 4012TIP3    H212043   2.865   0.467   4.412
 4013TIP3   OH212044   3.906   0.332   4.681
 4013TIP3    H112045   3.931   0.417   4.646
 4013TIP3    H212046   3.821   0.346   4.722
 4014TIP3   OH212047   1.707   3.764   0.954
 4014TIP3    H112048   1.685   3.857   0.945
 4014TIP3    H212049   1.635   3.727   1.005
 4015TIP3   OH212050   0.337   2.661   2.773
 4015TIP3    H112051   0.281   2.658   2.851
 4015TIP3    H212052   0.374   2.573   2.766
 4016TIP3   OH212053   2.193   5.161   0.187
 4016TIP3    H112054   2.274   5.167   0.137
 4016TIP3    H212055   2.133   5.112   0.130
 4017TIP3   OH212056   3.915   4.753   2.709
 4017TIP3    H112057   4.000   4.715   2.733
 4017TIP3    H212058   3.856   4.726   2.778
 4018TIP3   OH212059   2.578   4.580   3.212
 4018TIP3    H112060   2.628   4.611   3.137
 4018TIP3    H212061   2.602   4.487   3.220
 4019TIP3   OH212062   6.059   3.485   1.453
 4019TIP3    H112063   6.131   3.542   1.482
 4019TIP3    H212064   6.103   3.404   1.427
 4020TIP3   OH212065   1.688   2.035   4.970
 4020TIP3    H112066   1.593   2.042   4.960
 4020TIP3    H212067   1.711   2.107   5.029
 4021TIP3   OH212068   3.628   3.812   3.098
 4021TIP3    H112069   3.556   3.860   3.139
 4021TIP3    H212070   3.586   3.754   3.035
 4022TIP3   OH212071   6.338   2.013   2.465
 4022TIP3    H112072   6.360   1.921   2.481
 4022TIP3    H212073   6.255   2.009   2.417
 4023TIP3   OH212074   5.014   3.969   1.516
 4023TIP3    H112075   5.045   4.053   1.552
 4023TIP3    H212076   5.086   3.908   1.534
 4024TIP3   OH212077   6.338   0.435   5.177
 4024TIP3    H112078   6.325   0.525   5.207
 4024TIP3    H212079   6.362   0.387   5.256
 4025TIP3   OH212080   1.722   5.021   4.971
 4025TIP3    H112081   1.641   4.976   4.947
 4025TIP3    H212082   1.789   4.952   4.972
 4026TIP3   OH212083   3.535   5.257   4.526
 4026TIP3    H112084   3.527   5.223   4.436
 4026TIP3    H212085   3.513   5.182   4.582
 4027TIP3   OH212086   5.459   3.212   2.356
 4027TIP3    H112087   5.507   3.133   2.333
 4027TIP3    H212088   5.430   3.248   2.273
 4028TIP3   OH212089   1.267   2.246   2.228
 4028TIP3    H112090   1.319   2.278   2.154
 4028TIP3    H212091   1.188   2.300   2.228
 4029TIP3   OH212092   1.586   1.786   4.584
 4029TIP3    H112093   1.631   1.870   4.575
 4029TIP3    H212094   1.493   1.809   4.591
 4030TIP3   OH212095   4.795   5.450   1.587
 4030TIP3    H112096   4.710   5.460   1.629
 4030TIP3    H212097   4.848   5.403   1.650
 4031TIP3   OH212098   0.866   4.383   2.436
 4031TIP3    H112099   0.860   4.462   2.382
 4031TIP3    H212100   0.953   4.347   2.415
 4032TIP3   OH212101   2.800   3.679   1.034
 4032TIP3    H112102   2.766   3.591   1.018
 4032TIP3    H212103   2.821   3.713   0.947
 4033TIP3   OH212104   5.743   4.805   0.619
 4033TIP3    H112105   5.818   4.829   0.565
 4033TIP3    H212106   5.676   4.871   0.597
 4034TIP3   OH212107   2.380   1.194   1.208
 4034TIP3    H112108   2.339   1.136   1.272
 4034TIP3    H212109   2.345   1.281   1.229
 4035TIP3   OH212110   0.701   5.081   1.884
 4035TIP3    H112111   0.714   5.058   1.976
 4035TIP3    H212112   0.789   5.095   1.850
 4036TIP3   OH212113   3.398   3.989   2.133
 4036TIP3    H112114   3.363   3.906   2.164
 4036TIP3    H212115   3.322   4.045   2.120
 4037TIP3   OH212116   1.487   2.372   3.280
 4037TIP3    H112117   1.446   2.427   3.214
 4037TIP3    H212118   1.421   2.305   3.299
 4038TIP3   OH212119   1.525   2.862   3.852
 4038TIP3    H112120   1.592   2.880   3.918
 4038TIP3    H212121   1.455   2.817   3.899
 4039TIP3   OH212122   3.979   5.897   1.209
 4039TIP3    H112123   4.003   5.926   1.297
 4039TIP3    H212124   4.021   5.962   1.151
 4040TIP3   OH212125   3.535   1.539   3.621
 4040TIP3    H112126   3.594   1.497   3.684
 4040TIP3    H212127   3.570   1.516   3.536
 4041TIP3   OH212128   4.379   0.946   4.848
 4041TIP3    H112129   4.433   1.021   4.826
 4041TIP3    H212130   4.424   0.904   4.921
 4042TIP3   OH212131   2.420   2.009   1.499
 4042TIP3    H112132   2.412   1.962   1.416
 4042TIP3    H212133   2.502   1.978   1.536
 4043TIP3   OH212134   4.115   4.279   0.132
 4043TIP3    H112135   4.054   4.335   0.083
 4043TIP3    H212136   4.180   4.253   0.067
 4044TIP3   OH212137   4.761   3.138   1.653
 4044TIP3    H112138   4.736   3.096   1.735
 4044TIP3    H212139   4.735   3.075   1.585
 4045TIP3   OH212140   3.194   4.329   1.326
 4045TIP3    H112141   3.112   4.290   1.295
 4045TIP3    H212142   3.248   4.338   1.247
 4046TIP3   OH212143   3.350   2.977   1.771
 4046TIP3    H112144   3.401   2.934   1.839
 4046TIP3    H212145   3.392   2.952   1.689
 4047TIP3   OH212146   4.908   3.595   3.301
 4047TIP3    H112147   4.831   3.631   3.258
 4047TIP3    H212148   4.874   3.547   3.377
 4048TIP3   OH212149   0.046   3.091   1.169
 4048TIP3    H112150  -0.018   3.161   1.156
 4048TIP3    H212151  -0.006   3.010   1.170
 4049TIP3   OH212152   2.667   3.970   4.756
 4049TIP3    H112153   2.573   3.969   4.740
 4049TIP3    H212154   2.682   3.896   4.815
 4050TIP3   OH212155   6.112   5.728   3.904
 4050TIP3    H112156   6.020   5.731   3.928
 4050TIP3    H212157   6.148   5.654   3.954
 4051TIP3   OH212158   0.904   3.937   4.765
 4051TIP3    H112159   0.882   3.906   4.677
 4051TIP3    H212160   0.886   3.862   4.822
 4052TIP3   OH212161   0.761   3.956   3.461
 4052TIP3    H112162   0.823   3.905   3.409
 4052TIP3    H212163   0.814   4.026   3.500
 4053TIP3   OH212164   1.791   0.834   3.455
 4053TIP3    H112165   1.835   0.786   3.524
 4053TIP3    H212166   1.793   0.925   3.483
 4054TIP3   OH212167   0.125   0.813  -0.021
 4054TIP3    H112168   0.113   0.718  -0.020
 4054TIP3    H212169   0.091   0.841   0.064
 4055TIP3   OH212170   5.528   3.114   1.770
 4055TIP3    H112171   5.617   3.101   1.738
 4055TIP3    H212172   5.533   3.190   1.828
 4056TIP3   OH212173   1.094   4.297   4.579
 4056TIP3    H112174   1.033   4.278   4.649
 4056TIP3    H212175   1.075   4.232   4.511
 4057TIP3   OH212176   5.342   3.400   0.337
 4057TIP3    H112177   5.394   3.479   0.324
 4057TIP3    H212178   5.340   3.358   0.251
 4058TIP3   OH212179   2.134   0.031   1.848
 4058TIP3    H112180   2.187   0.058   1.922
 4058TIP3    H212181   2.055  -0.007   1.887
 4059TIP3   OH212182   3.093   5.923   0.755
 4059TIP3    H112183   3.076   6.006   0.711
 4059TIP3    H212184   3.060   5.936   0.844
 4060TIP3   OH212185   3.147   2.851   3.040
 4060TIP3    H112186   3.122   2.801   3.118
 4060TIP3    H212187   3.104   2.806   2.968
 4061TIP3   OH212188   5.786   2.959   4.190
 4061TIP3    H112189   5.870   2.939   4.230
 4061TIP3    H212190   5.785   3.054   4.180
 4062TIP3   OH212191   5.564   3.420   4.394
 4062TIP3    H112192   5.562   3.428   4.489
 4062TIP3    H212193   5.508   3.345   4.375
 4063TIP3   OH212194   3.524   5.119   4.072
 4063TIP3    H112195   3.554   5.084   3.988
 4063TIP3    H212196   3.559   5.208   4.075
 4064TIP3   OH212197   0.743   2.825   5.070
 4064TIP3    H112198   0.755   2.813   4.976
 4064TIP3    H212199   0.828   2.805   5.108
 4065TIP3   OH212200   3.675   0.605   3.264
 4065TIP3    H112201   3.629   0.680   3.226
 4065TIP3    H212202   3.613   0.533   3.258
 4066TIP3   OH212203   0.205   2.603   3.609
 4066TIP3    H112204   0.209   2.644   3.523
 4066TIP3    H212205   0.118   2.562   3.612
 4067TIP3   OH212206   2.759   5.649   1.550
 4067TIP3    H112207   2.818   5.638   1.625
 4067TIP3    H212208   2.731   5.741   1.556
 4068TIP3   OH212209   4.352   3.156   2.200
 4068TIP3    H112210   4.342   3.251   2.210
 4068TIP3    H212211   4.416   3.146   2.130
 4069TIP3   OH212212   5.674   2.745   1.278
 4069TIP3    H112213   5.729   2.704   1.344
 4069TIP3    H212214   5.699   2.703   1.196
 4070TIP3   OH212215   2.683   2.886   4.547
 4070TIP3    H112216   2.719   2.827   4.480
 4070TIP3    H212217   2.717   2.972   4.524
 4071TIP3   OH212218   6.104   2.846   0.310
 4071TIP3    H112219   6.197   2.868   0.316
 4071TIP3    H212220   6.081   2.812   0.397
 4072TIP3   OH212221   1.441   4.206   0.429
 4072TIP3    H112222   1.517   4.186   0.374
 4072TIP3    H212223   1.366   4.183   0.374
 4073TIP3   OH212224   1.659   3.709   4.979
 4073TIP3    H112225   1.698   3.773   4.919
 4073TIP3    H212226   1.734   3.658   5.011
 4074TIP3   OH212227   6.058   2.749  -0.014
 4074TIP3    H112228   5.987   2.775  -0.072
 4074TIP3    H212229   6.017   2.738   0.072
 4075TIP3   OH212230   2.729   3.000   2.106
 4075TIP3    H112231   2.772   3.007   2.021
 4075TIP3    H212232   2.755   3.078   2.153
 4076TIP3   OH212233   5.191   1.052   0.734
 4076TIP3    H112234   5.106   1.066   0.693
 4076TIP3    H212235   5.199   0.957   0.741
 4077TIP3   OH212236   2.742   3.430   3.032
 4077TIP3    H112237   2.834   3.440   3.009
 4077TIP3    H212238   2.724   3.337   3.021
 4078TIP3   OH212239   3.436   0.901   1.979
 4078TIP3    H112240   3.451   0.817   2.024
 4078TIP3    H212241   3.519   0.948   1.988
 4079TIP3   OH212242   5.580   5.005   2.379
 4079TIP3    H112243   5.492   4.979   2.407
 4079TIP3    H212244   5.628   5.020   2.460
 4080TIP3   OH212245   5.754   5.770   4.906
 4080TIP3    H112246   5.682   5.725   4.949
 4080TIP3    H212247   5.770   5.848   4.961
 4081TIP3   OH212248   4.120   4.929   3.846
 4081TIP3    H112249   4.061   4.976   3.904
 4081TIP3    H212250   4.136   4.990   3.774
 4082TIP3   OH212251   3.681   2.190   4.327
 4082TIP3    H112252   3.732   2.256   4.375
 4082TIP3    H212253   3.665   2.121   4.392
 4083TIP3   OH212254   5.756   3.483   1.301
 4083TIP3    H112255   5.681   3.426   1.322
 4083TIP3    H212256   5.758   3.547   1.373
 4084TIP3   OH212257   5.078   0.072   2.141
 4084TIP3    H112258   5.088   0.164   2.166
 4084TIP3    H212259   4.990   0.067   2.103
 4085TIP3   OH212260   4.908   2.720   1.881
 4085TIP3    H112261   4.964   2.778   1.932
 4085TIP3    H212262   4.956   2.707   1.799
 4086TIP3   OH212263   1.758   2.924   4.630
 4086TIP3    H112264   1.783   2.990   4.696
 4086TIP3    H212265   1.744   2.844   4.681
 4087TIP3   OH212266   3.999   1.724   5.069
 4087TIP3    H112267   4.054   1.802   5.064
 4087TIP3    H212268   3.956   1.731   5.154
 4088TIP3   OH212269   2.938   3.887   2.509
 4088TIP3    H112270   2.875   3.894   2.581
 4088TIP3    H212271   3.019   3.859   2.552
 4089TIP3   OH212272   0.035   0.363   4.501
 4089TIP3    H112273   0.053   0.456   4.512
 4089TIP3    H212274   0.010   0.354   4.409
 4090TIP3   OH212275   5.435   5.995   1.558
 4090TIP3    H112276   5.448   6.061   1.626
 4090TIP3    H212277   5.483   5.919   1.588
 4091TIP3   OH212278   1.466   5.688   4.136
 4091TIP3    H112279   1.540   5.694   4.075
 4091TIP3    H212280   1.440   5.779   4.151
 4092TIP3   OH212281   0.825   3.487   0.269
 4092TIP3    H112282   0.894   3.424   0.287
 4092TIP3    H212283   0.744   3.441   0.290
 4093TIP3   OH212284   0.486   1.979   5.157
 4093TIP3    H112285   0.545   1.990   5.082
 4093TIP3    H212286   0.521   1.903   5.204
 4094TIP3   OH212287   2.069   5.406   1.851
 4094TIP3    H112288   2.014   5.389   1.927
 4094TIP3    H212289   2.041   5.341   1.786
 4095TIP3   OH212290   3.441   2.814   4.682
 4095TIP3    H112291   3.373   2.758   4.720
 4095TIP3    H212292   3.507   2.753   4.649
 4096TIP3   OH212293   3.897   2.850   2.775
 4096TIP3    H112294   3.960   2.783   2.801
 4096TIP3    H212295   3.849   2.872   2.855
 4097TIP3   OH212296   1.068   1.862   0.673
 4097TIP3    H112297   1.055   1.887   0.581
 4097TIP3    H212298   1.006   1.915   0.722
 4098TIP3   OH212299   4.056   4.284   4.469
 4098TIP3    H112300   3.995   4.231   4.521
 4098TIP3    H212301   4.050   4.371   4.506
 4099TIP3   OH212302   0.401   5.458   4.171
 4099TIP3    H112303   0.422   5.467   4.078
 4099TIP3    H212304   0.484   5.476   4.216
 4100TIP3   OH212305   3.112   1.522   2.557
 4100TIP3    H112306   3.078   1.535   2.645
 4100TIP3    H212307   3.113   1.610   2.518
 4101TIP3   OH212308   5.830   1.815   1.180
 4101TIP3    H112309   5.882   1.746   1.140
 4101TIP3    H212310   5.740   1.795   1.153
 4102TIP3   OH212311   2.037   2.376   0.994
 4102TIP3    H112312   1.978   2.345   0.925
 4102TIP3    H212313   2.098   2.433   0.948
 4103TIP3   OH212314   4.547   3.285   1.276
 4103TIP3    H112315   4.509   3.332   1.202
 4103TIP3    H212316   4.600   3.350   1.322
 4104TIP3   OH212317   3.617   1.284   5.019
 4104TIP3    H112318   3.634   1.319   5.107
 4104TIP3    H212319   3.584   1.359   4.969
 4105TIP3   OH212320   0.544   3.219   3.955
 4105TIP3    H112321   0.611   3.249   3.893
 4105TIP3    H212322   0.513   3.299   3.997
 4106TIP3   OH212323   2.130   3.698   4.764
 4106TIP3    H112324   2.045   3.667   4.733
 4106TIP3    H212325   2.111   3.742   4.847
 4107TIP3   OH212326   2.239   1.670   1.346
 4107TIP3    H112327   2.183   1.653   1.422
 4107TIP3    H212328   2.325   1.690   1.384
 4108TIP3   OH212329   0.093   1.506   2.830
 4108TIP3    H112330   0.129   1.494   2.743
 4108TIP3    H212331   0.116   1.595   2.855
 4109TIP3   OH212332   5.918   5.433   1.039
 4109TIP3    H112333   5.956   5.346   1.044
 4109TIP3    H212334   5.983   5.490   1.080
 4110TIP3   OH212335   2.832   1.742   4.975
 4110TIP3    H112336   2.801   1.661   5.016
 4110TIP3    H212337   2.784   1.746   4.892
 4111TIP3   OH212338   0.528   0.316   3.426
 4111TIP3    H112339   0.556   0.355   3.343
 4111TIP3    H212340   0.518   0.390   3.485
 4112TIP3   OH212341   5.356   4.773   3.862
 4112TIP3    H112342   5.297   4.846   3.874
 4112TIP3    H212343   5.324   4.705   3.920
 4113TIP3   OH212344   2.301   1.190   1.638
 4113TIP3    H112345   2.328   1.205   1.548
 4113TIP3    H212346   2.208   1.168   1.632
 4114TIP3   OH212347   0.370   3.540   2.901
 4114TIP3    H112348   0.351   3.446   2.894
 4114TIP3    H212349   0.399   3.551   2.992
 4115TIP3   OH212350   6.172   0.514   3.229
 4115TIP3    H112351   6.144   0.586   3.286
 4115TIP3    H212352   6.094   0.460   3.216
 4116TIP3   OH212353   4.592   2.617   1.149
 4116TIP3    H112354   4.578   2.663   1.066
 4116TIP3    H212355   4.572   2.526   1.129
 4117TIP3   OH212356   5.119   4.218   1.580
 4117TIP3    H112357   5.134   4.269   1.660
 4117TIP3    H212358   5.055   4.269   1.531
 4118TIP3   OH212359   5.927   4.505   1.664
 4118TIP3    H112360   5.877   4.460   1.732
 4118TIP3    H212361   5.936   4.595   1.696
 4119TIP3   OH212362   1.496   5.982   3.443
 4119TIP3    H112363   1.420   6.040   3.438
 4119TIP3    H212364   1.518   5.981   3.536
 4120TIP3   OH212365   1.308   4.877   3.160
 4120TIP3    H112366   1.307   4.833   3.245
 4120TIP3    H212367   1.269   4.962   3.176
 4121TIP3   OH212368   5.088   4.458   5.118
 4121TIP3    H112369   5.101   4.366   5.091
 4121TIP3    H212370   5.035   4.496   5.048
 4122TIP3   OH212371   5.500   0.016   2.435
 4122TIP3    H112372   5.454   0.096   2.461
 4122TIP3    H212373   5.515   0.026   2.341
 4123TIP3   OH212374   5.015   2.163   0.226
 4123TIP3    H112375   5.045   2.211   0.149
 4123TIP3    H212376   5.079   2.185   0.294
 4124TIP3   OH212377   3.548   1.221   1.604
 4124TIP3    H112378   3.495   1.298   1.581
 4124TIP3    H212379   3.485   1.150   1.610
 4125TIP3   OH212380   2.656   5.124   4.042
 4125TIP3    H112381   2.655   5.063   3.968
 4125TIP3    H212382   2.732   5.098   4.093
 4126TIP3   OH212383   5.499   1.988   4.375
 4126TIP3    H112384   5.435   1.940   4.427
 4126TIP3    H212385   5.584   1.953   4.404
 4127TIP3   OH212386   0.481   2.790   5.001
 4127TIP3    H112387   0.509   2.713   4.950
 4127TIP3    H212388   0.561   2.822   5.042
 4128TIP3   OH212389   3.136   0.640   2.177
 4128TIP3    H112390   3.042   0.625   2.183
 4128TIP3    H212391   3.146   0.736   2.180
 4129TIP3   OH212392   5.158   5.615   2.172
 4129TIP3    H112393   5.065   5.598   2.191
 4129TIP3    H212394   5.157   5.677   2.100
 4130TIP3   OH212395   2.718   2.859   3.370
 4130TIP3    H112396   2.798   2.848   3.422
 4130TIP3    H212397   2.652   2.890   3.432
 4131TIP3   OH212398   4.198   0.408   4.072
 4131TIP3    H112399   4.150   0.455   4.003
 4131TIP3    H212400   4.131   0.385   4.136
 4132TIP3   OH212401   3.709   3.925   3.527
 4132TIP3    H112402   3.740   3.895   3.612
 4132TIP3    H212403   3.653   4.001   3.547
 4133TIP3   OH212404   1.306   4.422   3.107
 4133TIP3    H112405   1.232   4.453   3.159
 4133TIP3    H212406   1.273   4.416   3.018
 4134TIP3   OH212407   3.526   2.811   0.249
 4134TIP3    H112408   3.550   2.889   0.199
 4134TIP3    H212409   3.599   2.800   0.310
 4135TIP3   OH212410   1.659   3.427   0.492
 4135TIP3    H112411   1.590   3.448   0.554
 4135TIP3    H212412   1.654   3.496   0.426
 4136TIP3   OH212413   0.300   4.611   1.948
 4136TIP3    H112414   0.376   4.565   1.983
 4136TIP3    H212415   0.250   4.636   2.025
 4137TIP3   OH212416   4.554   0.089   5.107
 4137TIP3    H112417   4.607   0.081   5.027
 4137TIP3    H212418   4.513   0.175   5.099
 4138TIP3   OH212419   0.038   5.229   2.524
 4138TIP3    H112420  -0.030   5.235   2.457
 4138TIP3    H212421  -0.011   5.224   2.607
 4139TIP3   OH212422   4.745   1.897   2.134
 4139TIP3    H112423   4.835   1.866   2.141
 4139TIP3    H212424   4.693   1.832   2.180
 4140TIP3   OH212425   5.456   3.989   3.538
 4140TIP3    H112426   5.433   4.061   3.479
 4140TIP3    H212427   5.373   3.945   3.556
 4141TIP3   OH212428   2.029   4.313   5.086
 4141TIP3    H112429   1.937   4.290   5.095
 4141TIP3    H212430   2.038   4.343   4.996
 4142TIP3   OH212431   2.713   3.172   3.101
 4142TIP3    H112432   2.662   3.177   3.182
 4142TIP3    H212433   2.667   3.108   3.047
 4143TIP3   OH212434   1.780   0.418   2.479
 4143TIP3    H112435   1.708   0.467   2.519
 4143TIP3    H212436   1.859   0.461   2.513
 4144TIP3   OH212437   3.409   2.676   2.215
 4144TIP3    H112438   3.480   2.740   2.224
 4144TIP3    H212439   3.346   2.700   2.282
 4145TIP3   OH212440   1.996   0.510   2.636
 4145TIP3    H112441   2.015   0.431   2.686
 4145TIP3    H212442   2.024   0.582   2.693
 4146TIP3   OH212443   2.117   0.401   2.206
 4146TIP3    H112444   2.134   0.475   2.264
 4146TIP3    H212445   2.204   0.367   2.184
 4147TIP3   OH212446   1.674   1.370   4.756
 4147TIP3    H112447   1.752   1.406   4.797
 4147TIP3    H212448   1.651   1.433   4.688
 4148TIP3   OH212449   6.195   5.865   1.943
 4148TIP3    H112450   6.193   5.866   2.038
 4148TIP3    H212451   6.218   5.775   1.920
 4149TIP3   OH212452   5.518   5.645   0.446
 4149TIP3    H112453   5.549   5.735   0.456
 4149TIP3    H212454   5.485   5.621   0.533
 4150TIP3   OH212455   0.276   0.506   4.349
 4150TIP3    H112456   0.199   0.562   4.341
 4150TIP3    H212457   0.264   0.438   4.283
 4151TIP3   OH212458   5.718   1.308   1.154
 4151TIP3    H112459   5.800   1.341   1.192
 4151TIP3    H212460   5.714   1.348   1.068
 4152TIP3   OH212461   1.309   1.864   0.395
 4152TIP3    H112462   1.334   1.956   0.383
 4152TIP3    H212463   1.391   1.821   0.422
 4153TIP3   OH212464   5.667   2.767   4.015
 4153TIP3    H112465   5.592   2.825   4.003
 4153TIP3    H212466   5.735   2.823   4.052
 4154TIP3   OH212467   5.176   4.348   3.927
 4154TIP3    H112468   5.181   4.315   3.837
 4154TIP3    H212469   5.259   4.395   3.940
 4155TIP3   OH212470   1.123   0.909   1.926
 4155TIP3    H112471   1.151   0.979   1.985
 4155TIP3    H212472   1.070   0.954   1.860
 4156TIP3   OH212473   5.192   5.925   0.368
 4156TIP3    H112474   5.260   5.966   0.421
 4156TIP3    H212475   5.145   5.868   0.429
 4157TIP3   OH212476   0.028   3.196   2.089
 4157TIP3    H112477   0.101   3.257   2.076
 4157TIP3    H212478   0.014   3.195   2.184
 4158TIP3   OH212479   5.587   1.601   3.689
 4158TIP3    H112480   5.517   1.595   3.755
 4158TIP3    H212481   5.636   1.679   3.713
 4159TIP3   OH212482   0.756   5.595   4.899
 4159TIP3    H112483   0.724   5.510   4.929
 4159TIP3    H212484   0.811   5.575   4.824
 4160TIP3   OH212485   5.728   4.995   3.009
 4160TIP3    H112486   5.807   4.974   2.959
 4160TIP3    H212487   5.758   4.997   3.100
 4161TIP3   OH212488   2.114   4.280   1.907
 4161TIP3    H112489   2.133   4.286   1.813
 4161TIP3    H212490   2.085   4.368   1.931
 4162TIP3   OH212491   2.393   5.435   4.601
 4162TIP3    H112492   2.374   5.436   4.508
 4162TIP3    H212493   2.312   5.463   4.643
 4163TIP3   OH212494   1.706   4.742   1.093
 4163TIP3    H112495   1.659   4.659   1.105
 4163TIP3    H212496   1.755   4.755   1.174
 4164TIP3   OH212497   1.585   1.415   2.209
 4164TIP3    H112498   1.664   1.363   2.217
 4164TIP3    H212499   1.562   1.438   2.300
 4165TIP3   OH212500   2.427   4.299   4.525
 4165TIP3    H112501   2.382   4.332   4.603
 4165TIP3    H212502   2.489   4.369   4.502
 4166TIP3   OH212503   5.971   3.721   1.344
 4166TIP3    H112504   6.057   3.761   1.356
 4166TIP3    H212505   5.985   3.628   1.365
 4167TIP3   OH212506   3.787   5.530   2.885
 4167TIP3    H112507   3.863   5.562   2.835
 4167TIP3    H212508   3.722   5.509   2.818
 4168TIP3   OH212509   6.299   5.200   1.461
 4168TIP3    H112510   6.220   5.145   1.464
 4168TIP3    H212511   6.346   5.177   1.541
 4169TIP3   OH212512   0.818   5.549   1.042
 4169TIP3    H112513   0.848   5.631   1.003
 4169TIP3    H212514   0.753   5.516   0.980
 4170TIP3   OH212515   0.755   3.325   4.603
 4170TIP3    H112516   0.695   3.341   4.676
 4170TIP3    H212517   0.748   3.231   4.586
 4171TIP3   OH212518   4.971   5.958   0.854
 4171TIP3    H112519   4.890   5.999   0.884
 4171TIP3    H212520   5.040   6.002   0.903
 4172TIP3   OH212521   2.340   4.459   3.115
 4172TIP3    H112522   2.329   4.401   3.191
 4172TIP3    H212523   2.428   4.494   3.124
 4173TIP3   OH212524   3.240   1.850   0.852
 4173TIP3    H112525   3.272   1.827   0.765
 4173TIP3    H212526   3.144   1.853   0.841
 4174TIP3   OH212527   1.117   0.187   2.441
 4174TIP3    H112528   1.089   0.156   2.527
 4174TIP3    H212529   1.037   0.221   2.401
 4175TIP3   OH212530   3.650   2.893   1.945
 4175TIP3    H112531   3.591   2.819   1.955
 4175TIP3    H212532   3.709   2.867   1.874
 4176TIP3   OH212533   3.295   2.496   2.547
 4176TIP3    H112534   3.299   2.573   2.491
 4176TIP3    H212535   3.301   2.422   2.487
 4177TIP3   OH212536   4.030   3.704   3.526
 4177TIP3    H112537   4.030   3.762   3.602
 4177TIP3    H212538   4.052   3.762   3.453
 4178TIP3   OH212539   0.469   1.438   0.827
 4178TIP3    H112540   0.551   1.443   0.876
 4178TIP3    H212541   0.484   1.370   0.761
 4179TIP3   OH212542   1.450   5.017   2.191
 4179TIP3    H112543   1.400   5.013   2.109
 4179TIP3    H212544   1.475   5.109   2.199
 4180TIP3   OH212545   5.817   2.939   4.974
 4180TIP3    H112546   5.769   2.874   4.921
 4180TIP3    H212547   5.825   2.899   5.060
 4181TIP3   OH212548   4.702   2.903   2.400
 4181TIP3    H112549   4.693   2.873   2.309
 4181TIP3    H212550   4.796   2.897   2.418
 4182TIP3   OH212551   3.671   5.089   3.817
 4182TIP3    H112552   3.735   5.111   3.749
 4182TIP3    H212553   3.713   5.019   3.867
 4183TIP3   OH212554   0.247   1.421   3.041
 4183TIP3    H112555   0.288   1.344   3.001
 4183TIP3    H212556   0.190   1.456   2.972
 4184TIP3   OH212557   0.865   3.007   2.339
 4184TIP3    H112558   0.894   2.928   2.384
 4184TIP3    H212559   0.934   3.026   2.275
 4185TIP3   OH212560   4.431   5.319   1.218
 4185TIP3    H112561   4.353   5.279   1.257
 4185TIP3    H212562   4.400   5.404   1.185
 4186TIP3   OH212563   4.214   1.577   2.666
 4186TIP3    H112564   4.180   1.666   2.669
 4186TIP3    H212565   4.309   1.587   2.657
 4187TIP3   OH212566   3.675   1.374   3.781
 4187TIP3    H112567   3.674   1.310   3.852
 4187TIP3    H212568   3.768   1.396   3.770
 4188TIP3   OH212569   5.587   0.364   0.948
 4188TIP3    H112570   5.601   0.273   0.974
 4188TIP3    H212571   5.622   0.416   1.020
 4189TIP3   OH212572   2.879   5.291   3.145
 4189TIP3    H112573   2.954   5.337   3.106
 4189TIP3    H212574   2.814   5.288   3.075
 4190TIP3   OH212575   5.692   3.732   4.379
 4190TIP3    H112576   5.749   3.715   4.304
 4190TIP3    H212577   5.753   3.735   4.454
 4191TIP3   OH212578   6.338   1.244   3.599
 4191TIP3    H112579   6.424   1.236   3.558
 4191TIP3    H212580   6.322   1.158   3.638
 4192TIP3   OH212581   0.587   5.456   2.220
 4192TIP3    H112582   0.582   5.418   2.307
 4192TIP3    H212583   0.645   5.397   2.171
 4193TIP3   OH212584   3.294   4.812   2.140
 4193TIP3    H112585   3.324   4.782   2.054
 4193TIP3    H212586   3.198   4.813   2.134
 4194TIP3   OH212587   0.276   5.874   4.972
 4194TIP3    H112588   0.275   5.818   5.051
 4194TIP3    H212589   0.340   5.942   4.992
 4195TIP3   OH212590   0.087   6.013   4.338
 4195TIP3    H112591   0.015   5.953   4.317
 4195TIP3    H212592   0.132   5.972   4.411
 4196TIP3   OH212593   2.202   2.329   1.454
 4196TIP3    H112594   2.201   2.259   1.390
 4196TIP3    H212595   2.250   2.293   1.529
 4197TIP3   OH212596   6.291   4.471   2.504
 4197TIP3    H112597   6.269   4.506   2.418
 4197TIP3    H212598   6.239   4.523   2.565
 4198TIP3   OH212599   4.297   3.594   0.696
 4198TIP3    H112600   4.351   3.637   0.762
 4198TIP3    H212601   4.213   3.639   0.702
 4199TIP3   OH212602   2.784   0.631   5.074
 4199TIP3    H112603   2.769   0.548   5.029
 4199TIP3    H212604   2.879   0.643   5.069
 4200TIP3   OH212605   3.436   3.902   4.135
 4200TIP3    H112606   3.347   3.868   4.122
 4200TIP3    H212607   3.474   3.844   4.202
 4201TIP3   OH212608   1.926   5.841   2.765
 4201TIP3    H112609   2.011   5.881   2.786
 4201TIP3    H212610   1.903   5.877   2.680
 4202TIP3   OH212611   5.408   4.365   4.053
 4202TIP3    H112612   5.429   4.276   4.025
 4202TIP3    H212613   5.491   4.402   4.080
 4203TIP3   OH212614   5.034   4.227   2.342
 4203TIP3    H112615   5.125   4.204   2.361
 4203TIP3    H212616   5.001   4.153   2.290
 4204TIP3   OH212617   5.226   1.146   2.500
 4204TIP3    H112618   5.171   1.086   2.550
 4204TIP3    H212619   5.179   1.157   2.417
 4205TIP3   OH212620   2.279   0.592   3.803
 4205TIP3    H112621   2.328   0.529   3.856
 4205TIP3    H212622   2.335   0.610   3.728
 4206TIP3   OH212623   0.452   1.556   5.047
 4206TIP3    H112624   0.455   1.607   4.966
 4206TIP3    H212625   0.398   1.608   5.106
 4207TIP3   OH212626   0.663   2.853   2.833
 4207TIP3    H112627   0.623   2.889   2.754
 4207TIP3    H212628   0.633   2.911   2.903
 4208TIP3   OH212629   0.508   5.504   3.887
 4208TIP3    H112630   0.469   5.558   3.818
 4208TIP3    H212631   0.592   5.546   3.906
 4209TIP3   OH212632   1.944   0.849   1.140
 4209TIP3    H112633   2.001   0.824   1.068
 4209TIP3    H212634   1.983   0.807   1.217
 4210TIP3   OH212635   3.780   5.390   1.637
 4210TIP3    H112636   3.784   5.477   1.598
 4210TIP3    H212637   3.861   5.382   1.688
 4211TIP3   OH212638   4.415   5.067   2.168
 4211TIP3    H112639   4.423   5.162   2.181
 4211TIP3    H212640   4.322   5.049   2.180
 4212TIP3   OH212641   3.113   3.717   3.467
 4212TIP3    H112642   3.084   3.666   3.543
 4212TIP3    H212643   3.036   3.722   3.410
 4213TIP3   OH212644   0.956   4.867   1.546
 4213TIP3    H112645   1.018   4.933   1.514
 4213TIP3    H212646   0.994   4.783   1.520
 4214TIP3   OH212647   4.831   1.752   3.450
 4214TIP3    H112648   4.895   1.794   3.393
 4214TIP3    H212649   4.759   1.728   3.392
 4215TIP3   OH212650   3.259   0.786   3.676
 4215TIP3    H112651   3.273   0.861   3.733
 4215TIP3    H212652   3.306   0.807   3.595
 4216TIP3   OH212653   5.956   0.605   0.545
 4216TIP3    H112654   6.021   0.589   0.477
 4216TIP3    H212655   5.961   0.528   0.602
 4217TIP3   OH212656   5.555   2.939   5.059
 4217TIP3    H112657   5.643   2.972   5.041
 4217TIP3    H212658   5.536   2.970   5.148
 4218TIP3   OH212659   2.310   2.430   1.967
 4218TIP3    H112660   2.327   2.335   1.965
 4218TIP3    H212661   2.256   2.443   2.044
 4219TIP3   OH212662   0.673   0.365   4.539
 4219TIP3    H112663   0.688   0.414   4.458
 4219TIP3    H212664   0.586   0.392   4.567
 4220TIP3   OH212665   5.659   4.190   0.274
 4220TIP3    H112666   5.572   4.223   0.297
 4220TIP3    H212667   5.656   4.097   0.297
 4221TIP3   OH212668   2.965   1.439   2.091
 4221TIP3    H112669   2.872   1.460   2.105
 4221TIP3    H212670   3.003   1.441   2.179
 4222TIP3   OH212671   2.326   3.960   2.283
 4222TIP3    H112672   2.402   3.915   2.246
 4222TIP3    H212673   2.289   4.010   2.211
 4223TIP3   OH212674   5.620   5.556   2.202
 4223TIP3    H112675   5.581   5.491   2.260
 4223TIP3    H212676   5.643   5.508   2.123
 4224TIP3   OH212677   1.060   0.790   0.627
 4224TIP3    H112678   1.139   0.827   0.668
 4224TIP3    H212679   1.064   0.820   0.536
 4225TIP3   OH212680   6.044   2.727   0.557
 4225TIP3    H112681   6.087   2.762   0.635
 4225TIP3    H212682   6.066   2.634   0.558
 4226TIP3   OH212683   2.962   2.539   1.145
 4226TIP3    H112684   2.917   2.613   1.186
 4226TIP3    H212685   2.935   2.543   1.053
 4227TIP3   OH212686   5.579   3.075   2.813
 4227TIP3    H112687   5.579   3.127   2.733
 4227TIP3    H212688   5.488   3.047   2.823
 4228TIP3   OH212689   1.509   5.768   4.676
 4228TIP3    H112690   1.492   5.824   4.600
 4228TIP3    H212691   1.568   5.700   4.643
 4229TIP3   OH212692   1.435   5.878   0.642
 4229TIP3    H112693   1.428   5.852   0.550
 4229TIP3    H212694   1.413   5.799   0.691
 4230TIP3   OH212695   5.091   4.681   1.401
 4230TIP3    H112696   5.114   4.710   1.489
 4230TIP3    H212697   5.078   4.763   1.352
 4231TIP3   OH212698   1.059   1.151   3.600
 4231TIP3    H112699   1.079   1.058   3.609
 4231TIP3    H212700   1.003   1.171   3.675
 4232TIP3   OH212701   5.063   0.901   1.728
 4232TIP3    H112702   5.036   0.993   1.727
 4232TIP3    H212703   5.036   0.867   1.643
 4233TIP3   OH212704   2.279   0.923   2.426
 4233TIP3    H112705   2.356   0.940   2.481
 4233TIP3    H212706   2.316   0.897   2.341
 4234TIP3   OH212707   4.000   1.926   1.925
 4234TIP3    H112708   4.084   1.940   1.968
 4234TIP3    H212709   3.999   1.833   1.904
 4235TIP3   OH212710   4.470   5.448   3.349
 4235TIP3    H112711   4.485   5.467   3.257
 4235TIP3    H212712   4.550   5.476   3.393
 4236TIP3   OH212713   2.676   5.291   3.753
 4236TIP3    H112714   2.758   5.241   3.759
 4236TIP3    H212715   2.636   5.281   3.839
 4237TIP3   OH212716   5.929   3.834   0.364
 4237TIP3    H112717   5.922   3.829   0.268
 4237TIP3    H212718   5.917   3.927   0.384
 4238TIP3   OH212719   3.562   0.790   3.082
 4238TIP3    H112720   3.546   0.780   2.988
 4238TIP3    H212721   3.591   0.880   3.092
 4239TIP3   OH212722   3.351   5.421   2.909
 4239TIP3    H112723   3.405   5.437   2.988
 4239TIP3    H212724   3.398   5.353   2.862
 4240TIP3   OH212725   1.076   1.272   0.664
 4240TIP3    H112726   1.165   1.302   0.681
 4240TIP3    H212727   1.045   1.327   0.592
 4241TIP3   OH212728   6.353   3.661   1.238
 4241TIP3    H112729   6.288   3.625   1.179
 4241TIP3    H212730   6.432   3.671   1.184
 4242TIP3   OH212731   1.020   4.244   5.064
 4242TIP3    H112732   1.017   4.327   5.016
 4242TIP3    H212733   0.987   4.266   5.151
 4243TIP3   OH212734   0.747   5.784   4.287
 4243TIP3    H112735   0.816   5.759   4.349
 4243TIP3    H212736   0.677   5.721   4.301
 4244TIP3   OH212737   2.994   5.889   3.037
 4244TIP3    H112738   2.959   5.962   2.986
 4244TIP3    H212739   3.079   5.919   3.068
 4245TIP3   OH212740   0.304   1.107   0.479
 4245TIP3    H112741   0.278   1.118   0.388
 4245TIP3    H212742   0.310   1.012   0.491
 4246TIP3   OH212743   4.105   4.578   0.041
 4246TIP3    H112744   4.163   4.526  -0.015
 4246TIP3    H212745   4.155   4.593   0.121
 4247TIP3   OH212746   5.019   0.849   1.450
 4247TIP3    H112747   4.928   0.818   1.445
 4247TIP3    H212748   5.034   0.890   1.364
 4248TIP3   OH212749   5.407   5.457   2.782
 4248TIP3    H112750   5.388   5.443   2.689
 4248TIP3    H212751   5.322   5.452   2.825
 4249TIP3   OH212752   3.267   5.658   3.413
 4249TIP3    H112753   3.248   5.732   3.355
 4249TIP3    H212754   3.209   5.588   3.382
 4250TIP3   OH212755   3.129   5.503   1.162
 4250TIP3    H112756   3.072   5.426   1.153
 4250TIP3    H212757   3.206   5.482   1.110
 4251TIP3   OH212758   3.297   2.474   1.782
 4251TIP3    H112759   3.214   2.488   1.737
 4251TIP3    H212760   3.344   2.413   1.726
 4252TIP3   OH212761   5.297   4.965   1.143
 4252TIP3    H112762   5.351   5.029   1.095
 4252TIP3    H212763   5.350   4.886   1.145
 4253TIP3   OH212764   6.231   5.276   4.794
 4253TIP3    H112765   6.178   5.298   4.717
 4253TIP3    H212766   6.256   5.360   4.831
 4254TIP3   OH212767   3.979   2.267   2.044
 4254TIP3    H112768   3.985   2.326   2.119
 4254TIP3    H212769   3.964   2.325   1.969
 4255TIP3   OH212770   1.036   3.147   0.893
 4255TIP3    H112771   1.122   3.103   0.895
 4255TIP3    H212772   1.053   3.230   0.849
 4256TIP3   OH212773   2.035   0.768   4.963
 4256TIP3    H112774   2.106   0.755   5.025
 4256TIP3    H212775   1.963   0.803   5.015
 4257TIP3   OH212776   4.306   5.261   0.932
 4257TIP3    H112777   4.388   5.268   0.981
 4257TIP3    H212778   4.282   5.351   0.912
 4258TIP3   OH212779   2.402   2.836   2.594
 4258TIP3    H112780   2.310   2.860   2.604
 4258TIP3    H212781   2.405   2.785   2.513
 4259TIP3   OH212782   1.015   0.059   1.858
 4259TIP3    H112783   1.004   0.054   1.953
 4259TIP3    H212784   1.053  -0.026   1.833
 4260TIP3   OH212785   0.316   0.812   0.490
 4260TIP3    H112786   0.323   0.811   0.585
 4260TIP3    H212787   0.388   0.757   0.460
 4261TIP3   OH212788   0.200   5.305   2.040
 4261TIP3    H112789   0.204   5.250   2.119
 4261TIP3    H212790   0.243   5.387   2.066
 4262TIP3   OH212791   6.055   1.838   2.397
 4262TIP3    H112792   6.046   1.921   2.349
 4262TIP3    H212793   6.108   1.783   2.341
 4263TIP3   OH212794   1.502   1.454   1.473
 4263TIP3    H112795   1.496   1.549   1.468
 4263TIP3    H212796   1.437   1.429   1.539
 4264TIP3   OH212797   5.319   4.017   4.362
 4264TIP3    H112798   5.258   3.997   4.291
 4264TIP3    H212799   5.350   3.931   4.392
 4265TIP3   OH212800   2.110   0.008   3.095
 4265TIP3    H112801   2.170   0.054   3.153
 4265TIP3    H212802   2.060  -0.050   3.153
 4266TIP3   OH212803   2.188   3.163   5.140
 4266TIP3    H112804   2.184   3.117   5.224
 4266TIP3    H212805   2.249   3.235   5.154
 4267TIP3   OH212806   3.680   1.451   3.028
 4267TIP3    H112807   3.701   1.541   3.056
 4267TIP3    H212808   3.655   1.460   2.936
 4268TIP3   OH212809   3.790   5.253   5.096
 4268TIP3    H112810   3.757   5.184   5.153
 4268TIP3    H212811   3.812   5.325   5.155
 4269TIP3   OH212812   2.473   1.801   4.592
 4269TIP3    H112813   2.461   1.717   4.548
 4269TIP3    H212814   2.386   1.840   4.593
 4270TIP3   OH212815   1.348   3.050   1.340
 4270TIP3    H112816   1.286   2.977   1.343
 4270TIP3    H212817   1.333   3.091   1.254
 4271TIP3   OH212818   3.647   2.292   3.245
 4271TIP3    H112819   3.683   2.204   3.233
 4271TIP3    H212820   3.622   2.319   3.157
 4272TIP3   OH212821   1.809   2.149   1.782
 4272TIP3    H112822   1.874   2.205   1.825
 4272TIP3    H212823   1.861   2.087   1.731
 4273TIP3   OH212824   5.922   2.139   4.624
 4273TIP3    H112825   5.981   2.155   4.551
 4273TIP3    H212826   5.847   2.197   4.607
 4274TIP3   OH212827   5.767   4.550   0.730
 4274TIP3    H112828   5.851   4.533   0.774
 4274TIP3    H212829   5.775   4.639   0.696
 4275TIP3   OH212830   3.740   3.021   3.314
 4275TIP3    H112831   3.649   3.022   3.284
 4275TIP3    H212832   3.788   3.069   3.247
 4276TIP3   OH212833   4.454   0.070   2.624
 4276TIP3    H112834   4.439   0.098   2.534
 4276TIP3    H212835   4.423  -0.021   2.627
 4277TIP3   OH212836   4.905   1.298   3.139
 4277TIP3    H112837   4.862   1.344   3.211
 4277TIP3    H212838   4.973   1.358   3.109
 4278TIP3   OH212839   0.016   0.958   2.874
 4278TIP3    H112840   0.068   0.916   2.942
 4278TIP3    H212841   0.043   0.914   2.793
 4279TIP3   OH212842   2.171   1.101   2.655
 4279TIP3    H112843   2.160   1.049   2.575
 4279TIP3    H212844   2.091   1.087   2.705
 4280TIP3   OH212845   2.369   3.967   0.092
 4280TIP3    H112846   2.366   3.988   0.186
 4280TIP3    H212847   2.462   3.961   0.072
 4281TIP3   OH212848   4.195   5.512   3.149
 4281TIP3    H112849   4.182   5.549   3.237
 4281TIP3    H212850   4.211   5.588   3.093
 4282TIP3   OH212851   3.047   4.738   1.818
 4282TIP3    H112852   3.023   4.658   1.771
 4282TIP3    H212853   3.044   4.713   1.911
 4283TIP3   OH212854   3.820   1.731   3.152
 4283TIP3    H112855   3.752   1.768   3.097
 4283TIP3    H212856   3.876   1.805   3.176
 4284TIP3   OH212857   4.522   0.952   0.306
 4284TIP3    H112858   4.489   1.030   0.261
 4284TIP3    H212859   4.447   0.922   0.359
 4285TIP3   OH212860   4.977   5.845   2.003
 4285TIP3    H112861   4.927   5.839   1.922
 4285TIP3    H212862   4.973   5.937   2.028
 4286TIP3   OH212863   5.071   5.369   2.277
 4286TIP3    H112864   5.087   5.464   2.278
 4286TIP3    H212865   5.038   5.350   2.365
 4287TIP3   OH212866   2.472   3.972   1.097
 4287TIP3    H112867   2.529   4.046   1.073
 4287TIP3    H212868   2.387   3.994   1.059
 4288TIP3   OH212869   2.147   0.139   1.351
 4288TIP3    H112870   2.220   0.078   1.361
 4288TIP3    H212871   2.125   0.134   1.258
 4289TIP3   OH212872   0.976   3.211   1.898
 4289TIP3    H112873   0.897   3.239   1.851
 4289TIP3    H212874   1.021   3.154   1.836
 4290TIP3   OH212875   0.627   0.301   3.837
 4290TIP3    H112876   0.658   0.365   3.901
 4290TIP3    H212877   0.678   0.319   3.758
 4291TIP3   OH212878   4.439   0.345   4.165
 4291TIP3    H112879   4.480   0.346   4.078
 4291TIP3    H212880   4.345   0.343   4.146
 4292TIP3   OH212881   1.945   0.214   2.107
 4292TIP3    H112882   1.998   0.136   2.125
 4292TIP3    H212883   1.995   0.287   2.143
 4293TIP3   OH212884   0.221   1.834   0.975
 4293TIP3    H112885   0.245   1.746   0.944
 4293TIP3    H212886   0.278   1.849   1.049
 4294TIP3   OH212887   0.919   4.370   3.132
 4294TIP3    H112888   0.881   4.346   3.048
 4294TIP3    H212889   0.940   4.286   3.174
 4295TIP3   OH212890   0.439   1.323   4.469
 4295TIP3    H112891   0.412   1.344   4.380
 4295TIP3    H212892   0.371   1.264   4.502
 4296TIP3   OH212893   2.913   5.999   1.467
 4296TIP3    H112894   2.992   5.969   1.513
 4296TIP3    H212895   2.876   6.066   1.525
 4297TIP3   OH212896   2.812   4.522   4.052
 4297TIP3    H112897   2.855   4.606   4.040
 4297TIP3    H212898   2.871   4.458   4.012
 4298TIP3   OH212899   4.069   5.711   3.829
 4298TIP3    H112900   4.042   5.627   3.792
 4298TIP3    H212901   4.079   5.768   3.753
 4299TIP3   OH212902   0.384   1.557   3.744
 4299TIP3    H112903   0.456   1.562   3.808
 4299TIP3    H212904   0.319   1.500   3.786
 4300TIP3   OH212905   4.098   1.868   3.778
 4300TIP3    H112906   4.118   1.956   3.812
 4300TIP3    H212907   4.111   1.876   3.683
 4301TIP3   OH212908   0.529   2.078   4.505
 4301TIP3    H112909   0.575   2.138   4.563
 4301TIP3    H212910   0.550   2.110   4.417
 4302TIP3   OH212911   5.249   4.108   1.941
 4302TIP3    H112912   5.340   4.113   1.912
 4302TIP3    H212913   5.252   4.053   2.020
 4303TIP3   OH212914   2.298   5.771   0.716
 4303TIP3    H112915   2.368   5.790   0.653
 4303TIP3    H212916   2.343   5.754   0.798
 4304TIP3   OH212917   1.755   5.202   4.632
 4304TIP3    H112918   1.725   5.116   4.661
 4304TIP3    H212919   1.675   5.253   4.619
 4305TIP3   OH212920   4.378   2.638   4.776
 4305TIP3    H112921   4.465   2.600   4.789
 4305TIP3    H212922   4.332   2.574   4.722
 4306TIP3   OH212923   1.537   4.900   1.593
 4306TIP3    H112924   1.533   4.805   1.603
 4306TIP3    H212925   1.500   4.916   1.506
 4307TIP3   OH212926   0.336   2.521   2.406
 4307TIP3    H112927   0.280   2.585   2.449
 4307TIP3    H212928   0.420   2.566   2.397
 4308TIP3   OH212929   3.585   4.831   2.443
 4308TIP3    H112930   3.495   4.863   2.455
 4308TIP3    H212931   3.576   4.755   2.386
 4309TIP3   OH212932   3.386   5.089   1.374
 4309TIP3    H112933   3.328   5.114   1.446
 4309TIP3    H212934   3.389   5.166   1.317
 4310TIP3   OH212935   1.239   3.933   0.299
 4310TIP3    H112936   1.282   4.006   0.256
 4310TIP3    H212937   1.248   3.951   0.393
 4311TIP3   OH212938   5.391   3.629   1.824
 4311TIP3    H112939   5.406   3.626   1.730
 4311TIP3    H212940   5.296   3.634   1.834
 4312TIP3   OH212941   4.399   4.092   0.228
 4312TIP3    H112942   4.399   3.996   0.226
 4312TIP3    H212943   4.358   4.114   0.312
 4313TIP3   OH212944   2.070   4.581   1.977
 4313TIP3    H112945   1.980   4.612   1.976
 4313TIP3    H212946   2.123   4.660   1.986
 4314TIP3   OH212947   3.500   4.345   4.107
 4314TIP3    H112948   3.552   4.424   4.096
 4314TIP3    H212949   3.548   4.294   4.172
 4315TIP3   OH212950   3.810   5.731   0.453
 4315TIP3    H112951   3.844   5.646   0.483
 4315TIP3    H212952   3.726   5.711   0.414
 4316TIP3   OH212953   3.752   3.364   4.466
 4316TIP3    H112954   3.807   3.311   4.407
 4316TIP3    H212955   3.663   3.330   4.452
 4317TIP3   OH212956   2.236   5.820   0.197
 4317TIP3    H112957   2.164   5.821   0.260
 4317TIP3    H212958   2.212   5.752   0.134
 4318TIP3   OH212959   0.634   1.111   4.910
 4318TIP3    H112960   0.635   1.180   4.976
 4318TIP3    H212961   0.652   1.157   4.828
 4319TIP3   OH212962   0.424   4.053   2.392
 4319TIP3    H112963   0.433   3.959   2.376
 4319TIP3    H212964   0.512   4.088   2.384
 4320TIP3   OH212965   3.086   1.974   4.730
 4320TIP3    H112966   3.037   2.010   4.804
 4320TIP3    H212967   3.178   1.984   4.755
 4321TIP3   OH212968   6.063   4.499   3.623
 4321TIP3    H112969   5.991   4.440   3.646
 4321TIP3    H212970   6.029   4.552   3.551
 4322TIP3   OH212971   4.847   2.451   2.938
 4322TIP3    H112972   4.943   2.460   2.938
 4322TIP3    H212973   4.824   2.447   2.845
 4323TIP3   OH212974   0.297   3.954   1.710
 4323TIP3    H112975   0.311   4.025   1.647
 4323TIP3    H212976   0.345   3.880   1.674
 4324TIP3   OH212977   1.800   2.859   4.367
 4324TIP3    H112978   1.889   2.823   4.367
 4324TIP3    H212979   1.778   2.869   4.460
 4325TIP3   OH212980   4.475   2.550   2.093
 4325TIP3    H112981   4.564   2.560   2.060
 4325TIP3    H212982   4.435   2.486   2.035
 4326TIP3   OH212983   0.828   3.226   0.030
 4326TIP3    H112984   0.810   3.290   0.099
 4326TIP3    H212985   0.839   3.279  -0.049
 4327TIP3   OH212986   3.208   1.216   3.941
 4327TIP3    H112987   3.162   1.149   3.889
 4327TIP3    H212988   3.149   1.290   3.943
 4328TIP3   OH212989   5.797   0.650   1.780
 4328TIP3    H112990   5.853   0.598   1.838
 4328TIP3    H212991   5.753   0.713   1.839
 4329TIP3   OH212992   2.640   1.934   2.136
 4329TIP3    H112993   2.697   1.869   2.178
 4329TIP3    H212994   2.562   1.938   2.192
 4330TIP3   OH212995   4.041   2.957   3.217
 4330TIP3    H112996   4.041   2.919   3.305
 4330TIP3    H212997   4.133   2.957   3.191
 4331TIP3   OH212998   3.392   2.917   2.984
 4331TIP3    H112999   3.305   2.910   3.024
 4331TIP3    H213000   3.398   2.842   2.925
 4332TIP3   OH213001   1.498   0.799   4.650
 4332TIP3    H113002   1.583   0.793   4.691
 4332TIP3    H213003   1.447   0.857   4.707
 4333TIP3   OH213004   3.151   1.821   3.944
 4333TIP3    H113005   3.147   1.796   4.037
 4333TIP3    H213006   3.095   1.897   3.937
 4334TIP3   OH213007   3.379   1.603   5.179
 4334TIP3    H113008   3.294   1.643   5.164
 4334TIP3    H213009   3.364   1.539   5.248
 4335TIP3   OH213010   3.460   0.482   5.107
 4335TIP3    H113011   3.413   0.540   5.047
 4335TIP3    H213012   3.519   0.539   5.155
 4336TIP3   OH213013   0.763   4.481   1.414
 4336TIP3    H113014   0.854   4.490   1.385
 4336TIP3    H213015   0.748   4.559   1.468
 4337TIP3   OH213016   1.519   4.981   0.960
 4337TIP3    H113017   1.491   5.032   0.885
 4337TIP3    H213018   1.615   4.989   0.960
 4338TIP3   OH213019   3.052   0.405   1.572
 4338TIP3    H113020   3.118   0.443   1.629
 4338TIP3    H213021   3.102   0.360   1.504
 4339TIP3   OH213022   4.846   0.784   2.776
 4339TIP3    H113023   4.794   0.864   2.785
 4339TIP3    H213024   4.864   0.757   2.866
 4340TIP3   OH213025   5.197   5.125   3.499
 4340TIP3    H113026   5.285   5.156   3.478
 4340TIP3    H213027   5.151   5.122   3.416
 4341TIP3   OH213028   3.239   2.399   3.668
 4341TIP3    H113029   3.198   2.457   3.732
 4341TIP3    H213030   3.287   2.457   3.610
 4342TIP3   OH213031   1.864   2.004   3.388
 4342TIP3    H113032   1.850   2.095   3.412
 4342TIP3    H213033   1.783   1.977   3.345
 4343TIP3   OH213034   6.000   2.595   3.211
 4343TIP3    H113035   6.041   2.526   3.159
 4343TIP3    H213036   5.953   2.649   3.147
 4344TIP3   OH213037   3.652   5.507   1.157
 4344TIP3    H113038   3.693   5.569   1.098
 4344TIP3    H213039   3.678   5.421   1.124
 4345TIP3   OH213040   0.519   1.433   1.794
 4345TIP3    H113041   0.438   1.475   1.822
 4345TIP3    H213042   0.503   1.407   1.703
 4346TIP3   OH213043   3.310   4.543   4.477
 4346TIP3    H113044   3.241   4.518   4.415
 4346TIP3    H213045   3.296   4.637   4.491
 4347TIP3   OH213046   2.263   1.571   3.698
 4347TIP3    H113047   2.232   1.615   3.776
 4347TIP3    H213048   2.266   1.639   3.631
 4348TIP3   OH213049   5.762   1.442   1.780
 4348TIP3    H113050   5.828   1.457   1.847
 4348TIP3    H213051   5.680   1.473   1.819
 4349TIP3   OH213052   1.018   4.969   3.878
 4349TIP3    H113053   1.109   4.953   3.856
 4349TIP3    H213054   0.976   4.883   3.873
 4350TIP3   OH213055   5.256   5.751   1.505
 4350TIP3    H113056   5.348   5.772   1.490
 4350TIP3    H213057   5.225   5.821   1.562
 4351TIP3   OH213058   4.575   1.585   1.764
 4351TIP3    H113059   4.651   1.596   1.706
 4351TIP3    H213060   4.500   1.578   1.705
 4352TIP3   OH213061   5.571   4.116   4.284
 4352TIP3    H113062   5.576   4.020   4.279
 4352TIP3    H213063   5.478   4.135   4.286
 4353TIP3   OH213064   0.306   2.247   4.912
 4353TIP3    H113065   0.236   2.183   4.897
 4353TIP3    H213066   0.324   2.284   4.826
 4354TIP3   OH213067   4.485   4.302   5.086
 4354TIP3    H113068   4.445   4.307   4.999
 4354TIP3    H213069   4.573   4.269   5.070
 4355TIP3   OH213070   5.335   3.926   3.859
 4355TIP3    H113071   5.306   3.909   3.770
 4355TIP3    H213072   5.386   3.848   3.883
 4356TIP3   OH213073   6.367   1.363   2.351
 4356TIP3    H113074   6.363   1.375   2.446
 4356TIP3    H213075   6.338   1.273   2.337
 4357TIP3   OH213076   5.041   2.908   1.228
 4357TIP3    H113077   4.976   2.951   1.171
 4357TIP3    H213078   5.042   2.962   1.307
 4358TIP3   OH213079   5.376   4.809   0.383
 4358TIP3    H113080   5.328   4.764   0.313
 4358TIP3    H213081   5.429   4.741   0.424
 4359TIP3   OH213082   3.915   4.459   1.299
 4359TIP3    H113083   3.841   4.427   1.248
 4359TIP3    H213084   3.988   4.463   1.237
 4360TIP3   OH213085   6.156   3.135   3.245
 4360TIP3    H113086   6.081   3.190   3.224
 4360TIP3    H213087   6.130   3.047   3.217
 4361TIP3   OH213088   1.126   5.583   1.217
 4361TIP3    H113089   1.149   5.559   1.306
 4361TIP3    H213090   1.076   5.508   1.184
 4362TIP3   OH213091   3.437   1.736   1.269
 4362TIP3    H113092   3.447   1.641   1.265
 4362TIP3    H213093   3.420   1.762   1.178
 4363TIP3   OH213094   5.903   1.053   5.010
 4363TIP3    H113095   5.917   1.120   4.942
 4363TIP3    H213096   5.906   0.970   4.962
 4364TIP3   OH213097   3.394   5.429   5.017
 4364TIP3    H113098   3.337   5.391   5.084
 4364TIP3    H213099   3.460   5.479   5.066
 4365TIP3   OH213100   1.755   1.767   4.946
 4365TIP3    H113101   1.823   1.790   4.883
 4365TIP3    H213102   1.694   1.841   4.942
 4366TIP3   OH213103   4.226   2.044   3.974
 4366TIP3    H113104   4.250   1.989   4.049
 4366TIP3    H213105   4.130   2.042   3.974
 4367TIP3   OH213106   6.192   1.444   0.882
 4367TIP3    H113107   6.122   1.494   0.923
 4367TIP3    H213108   6.263   1.444   0.947
 4368TIP3   OH213109   3.834   3.651   4.491
 4368TIP3    H113110   3.805   3.562   4.470
 4368TIP3    H213111   3.910   3.638   4.547
 4369TIP3   OH213112   2.165   5.895   4.451
 4369TIP3    H113113   2.200   5.852   4.529
 4369TIP3    H213114   2.089   5.842   4.427
 4370TIP3   OH213115   2.718   1.047   2.909
 4370TIP3    H113116   2.657   1.023   2.839
 4370TIP3    H213117   2.673   1.022   2.990
 4371TIP3   OH213118   0.802   1.264   2.003
 4371TIP3    H113119   0.799   1.357   1.981
 4371TIP3    H213120   0.774   1.219   1.923
 4372TIP3   OH213121   4.821   3.203   4.711
 4372TIP3    H113122   4.795   3.271   4.773
 4372TIP3    H213123   4.889   3.244   4.657
 4373TIP3   OH213124   3.557   2.103   2.151
 4373TIP3    H113125   3.531   2.031   2.209
 4373TIP3    H213126   3.649   2.085   2.131
 4374TIP3   OH213127   0.981   4.822   0.109
 4374TIP3    H113128   0.976   4.771   0.029
 4374TIP3    H213129   0.947   4.909   0.085
 4375TIP3   OH213130   1.207   0.523   3.007
 4375TIP3    H113131   1.190   0.553   2.917
 4375TIP3    H213132   1.294   0.557   3.027
 4376TIP3   OH213133   2.210   4.468   4.483
 4376TIP3    H113134   2.283   4.453   4.422
 4376TIP3    H213135   2.137   4.420   4.444
 4377TIP3   OH213136   0.457   4.222   2.082
 4377TIP3    H113137   0.372   4.184   2.058
 4377TIP3    H213138   0.516   4.147   2.087
 4378TIP3   OH213139   4.174   0.789   4.983
 4378TIP3    H113140   4.100   0.794   4.923
 4378TIP3    H213141   4.222   0.871   4.970
 4379TIP3   OH213142   1.180   2.574   3.371
 4379TIP3    H113143   1.116   2.636   3.335
 4379TIP3    H213144   1.221   2.621   3.443
 4380TIP3   OH213145   2.021   0.429   0.673
 4380TIP3    H113146   1.944   0.401   0.722
 4380TIP3    H213147   2.050   0.350   0.628
 4381TIP3   OH213148   4.584   5.131   3.541
 4381TIP3    H113149   4.596   5.070   3.469
 4381TIP3    H213150   4.667   5.177   3.548
 4382TIP3   OH213151   3.222   4.092   0.568
 4382TIP3    H113152   3.289   4.132   0.623
 4382TIP3    H213153   3.233   3.998   0.583
 4383TIP3   OH213154   3.294   3.009   4.598
 4383TIP3    H113155   3.364   2.954   4.631
 4383TIP3    H213156   3.274   2.974   4.511
 4384TIP3   OH213157   0.646   0.058   3.717
 4384TIP3    H113158   0.629   0.065   3.623
 4384TIP3    H213159   0.615   0.141   3.753
 4385TIP3   OH213160   1.635   5.672   0.539
 4385TIP3    H113161   1.552   5.626   0.524
 4385TIP3    H213162   1.653   5.661   0.632
 4386TIP3   OH213163   0.241   3.925   5.125
 4386TIP3    H113164   0.326   3.925   5.169
 4386TIP3    H213165   0.247   3.855   5.061
 4387TIP3   OH213166   1.570   5.641   1.260
 4387TIP3    H113167   1.635   5.700   1.221
 4387TIP3    H213168   1.609   5.554   1.252
 4388TIP3   OH213169   4.613   3.859   0.733
 4388TIP3    H113170   4.573   3.843   0.648
 4388TIP3    H213171   4.625   3.954   0.737
 4389TIP3   OH213172   0.582   4.288   1.293
 4389TIP3    H113173   0.592   4.342   1.372
 4389TIP3    H213174   0.487   4.280   1.281
 4390TIP3   OH213175   3.744   4.905   3.455
 4390TIP3    H113176   3.832   4.892   3.492
 4390TIP3    H213177   3.685   4.895   3.530
 4391TIP3   OH213178   5.960   0.372   3.959
 4391TIP3    H113179   5.888   0.318   3.992
 4391TIP3    H213180   5.965   0.446   4.020
 4392TIP3   OH213181   1.795   5.457   2.364
 4392TIP3    H113182   1.854   5.493   2.298
 4392TIP3    H213183   1.812   5.509   2.442
 4393TIP3   OH213184   0.409   4.111   1.059
 4393TIP3    H113185   0.423   4.068   1.143
 4393TIP3    H213186   0.366   4.194   1.082
 4394TIP3   OH213187   3.406   3.299   2.647
 4394TIP3    H113188   3.431   3.276   2.736
 4394TIP3    H213189   3.379   3.390   2.652
 4395TIP3   OH213190   2.502   4.979   0.382
 4395TIP3    H113191   2.581   4.962   0.331
 4395TIP3    H213192   2.531   5.028   0.458
 4396TIP3   OH213193   0.271   0.234   0.995
 4396TIP3    H113194   0.185   0.238   0.953
 4396TIP3    H213195   0.288   0.140   1.007
 4397TIP3   OH213196   1.833   1.441   0.465
 4397TIP3    H113197   1.805   1.508   0.403
 4397TIP3    H213198   1.891   1.384   0.414
 4398TIP3   OH213199   4.326   3.813   3.372
 4398TIP3    H113200   4.293   3.724   3.385
 4398TIP3    H213201   4.262   3.855   3.314
 4399TIP3   OH213202   4.728   1.442   1.022
 4399TIP3    H113203   4.794   1.488   1.075
 4399TIP3    H213204   4.644   1.478   1.052
 4400TIP3   OH213205   5.102   0.894   4.108
 4400TIP3    H113206   5.131   0.848   4.029
 4400TIP3    H213207   5.007   0.896   4.101
 4401TIP3   OH213208   3.655   1.158   4.266
 4401TIP3    H113209   3.675   1.079   4.318
 4401TIP3    H213210   3.563   1.147   4.241
 4402TIP3   OH213211   5.531   3.066   2.075
 4402TIP3    H113212   5.512   2.991   2.131
 4402TIP3    H213213   5.488   3.046   1.992
 4403TIP3   OH213214   5.270   2.802   3.761
 4403TIP3    H113215   5.221   2.733   3.805
 4403TIP3    H213216   5.315   2.758   3.689
 4404TIP3   OH213217   3.398   2.199   1.944
 4404TIP3    H113218   3.368   2.286   1.970
 4404TIP3    H213219   3.464   2.176   2.010
 4405TIP3   OH213220   1.778   5.742   0.798
 4405TIP3    H113221   1.717   5.675   0.829
 4405TIP3    H213222   1.860   5.723   0.844
 4406TIP3   OH213223   4.010   3.946   0.589
 4406TIP3    H113224   3.924   3.976   0.558
 4406TIP3    H213225   4.017   3.982   0.677
 4407TIP3   OH213226   5.050   3.527   3.081
 4407TIP3    H113227   4.981   3.463   3.062
 4407TIP3    H213228   5.014   3.580   3.152
 4408TIP3   OH213229   4.346   3.455   2.373
 4408TIP3    H113230   4.344   3.538   2.420
 4408TIP3    H213231   4.403   3.471   2.298
 4409TIP3   OH213232   5.749   1.447   4.975
 4409TIP3    H113233   5.844   1.447   4.984
 4409TIP3    H213234   5.722   1.360   5.002
 4410TIP3   OH213235   1.305   1.912   2.181
 4410TIP3    H113236   1.233   1.857   2.150
 4410TIP3    H213237   1.385   1.866   2.153
 4411TIP3   OH213238   2.830   4.915   0.337
 4411TIP3    H113239   2.907   4.876   0.378
 4411TIP3    H213240   2.785   4.842   0.295
 4412TIP3   OH213241   0.456   0.095   3.987
 4412TIP3    H113242   0.537   0.127   3.947
 4412TIP3    H213243   0.395   0.084   3.914
 4413TIP3   OH213244   2.530   5.598   2.344
 4413TIP3    H113245   2.577   5.673   2.308
 4413TIP3    H213246   2.581   5.572   2.421
 4414TIP3   OH213247   3.745   4.789   0.362
 4414TIP3    H113248   3.701   4.872   0.379
 4414TIP3    H213249   3.761   4.789   0.268
 4415TIP3   OH213250   1.548   5.551   4.421
 4415TIP3    H113251   1.637   5.529   4.449
 4415TIP3    H213252   1.560   5.611   4.348
 4416TIP3   OH213253   5.581   2.112   1.273
 4416TIP3    H113254   5.525   2.135   1.347
 4416TIP3    H213255   5.570   2.017   1.263
 4417TIP3   OH213256   6.342   4.891   3.252
 4417TIP3    H113257   6.262   4.924   3.212
 4417TIP3    H213258   6.345   4.799   3.227
 4418TIP3   OH213259   2.509   0.925   2.700
 4418TIP3    H113260   2.513   0.830   2.686
 4418TIP3    H213261   2.482   0.935   2.791
 4419TIP3   OH213262   0.341   2.710   0.035
 4419TIP3    H113263   0.315   2.627   0.076
 4419TIP3    H213264   0.387   2.684  -0.045
 4420TIP3   OH213265   5.387   2.622   4.617
 4420TIP3    H113266   5.337   2.560   4.563
 4420TIP3    H213267   5.374   2.592   4.707
 4421TIP3   OH213268   2.553   3.677   1.209
 4421TIP3    H113269   2.536   3.770   1.220
 4421TIP3    H213270   2.540   3.660   1.116
 4422TIP3   OH213271   3.458   0.698   4.390
 4422TIP3    H113272   3.525   0.689   4.323
 4422TIP3    H213273   3.504   0.682   4.472
 4423TIP3   OH213274   1.270   2.130   1.050
 4423TIP3    H113275   1.246   2.069   1.120
 4423TIP3    H213276   1.283   2.074   0.973
 4424TIP3   OH213277   4.638   5.861   3.590
 4424TIP3    H113278   4.600   5.881   3.676
 4424TIP3    H213279   4.731   5.881   3.598
 4425TIP3   OH213280   4.781   0.428   1.515
 4425TIP3    H113281   4.850   0.436   1.581
 4425TIP3    H213282   4.701   0.412   1.566
 4426TIP3   OH213283   2.234   3.071   4.318
 4426TIP3    H113284   2.283   3.075   4.400
 4426TIP3    H213285   2.248   2.982   4.286
 4427TIP3   OH213286   5.757   4.824   4.209
 4427TIP3    H113287   5.767   4.912   4.174
 4427TIP3    H213288   5.805   4.768   4.148
 4428TIP3   OH213289   0.610   2.379   4.090
 4428TIP3    H113290   0.546   2.422   4.147
 4428TIP3    H213291   0.664   2.450   4.057
 4429TIP3   OH213292   2.307   0.898   2.940
 4429TIP3    H113293   2.290   0.878   2.848
 4429TIP3    H213294   2.230   0.947   2.968
 4430TIP3   OH213295   3.424   1.753   4.880
 4430TIP3    H113296   3.361   1.781   4.947
 4430TIP3    H213297   3.509   1.760   4.923
 4431TIP3   OH213298   3.652   3.015   1.350
 4431TIP3    H113299   3.695   3.096   1.322
 4431TIP3    H213300   3.724   2.958   1.378
 4432TIP3   OH213301   2.712   2.121   2.774
 4432TIP3    H113302   2.703   2.112   2.679
 4432TIP3    H213303   2.626   2.150   2.804
 4433TIP3   OH213304   5.423   2.674   0.549
 4433TIP3    H113305   5.389   2.763   0.556
 4433TIP3    H213306   5.514   2.685   0.522
 4434TIP3   OH213307   1.591   3.774   0.362
 4434TIP3    H113308   1.594   3.870   0.363
 4434TIP3    H213309   1.498   3.753   0.371
 4435TIP3   OH213310   1.515   2.256   0.872
 4435TIP3    H113311   1.461   2.192   0.825
 4435TIP3    H213312   1.467   2.274   0.952
 4436TIP3   OH213313   6.236   4.493   2.894
 4436TIP3    H113314   6.286   4.412   2.887
 4436TIP3    H213315   6.158   4.478   2.840
 4437TIP3   OH213316   4.795   0.537   3.517
 4437TIP3    H113317   4.736   0.494   3.455
 4437TIP3    H213318   4.883   0.512   3.487
 4438TIP3   OH213319   1.885   4.605   3.915
 4438TIP3    H113320   1.958   4.573   3.860
 4438TIP3    H213321   1.857   4.686   3.872
 4439TIP3   OH213322   0.228   5.739   3.731
 4439TIP3    H113323   0.296   5.697   3.679
 4439TIP3    H213324   0.221   5.827   3.695
 4440TIP3   OH213325   5.695   5.880   1.657
 4440TIP3    H113326   5.686   5.952   1.719
 4440TIP3    H213327   5.782   5.893   1.618
 4441TIP3   OH213328   5.059   3.306   4.915
 4441TIP3    H113329   5.062   3.283   5.008
 4441TIP3    H213330   4.966   3.305   4.893
 4442TIP3   OH213331   0.735   2.487   1.607
 4442TIP3    H113332   0.766   2.397   1.608
 4442TIP3    H213333   0.640   2.479   1.601
 4443TIP3   OH213334   0.663   1.649   2.327
 4443TIP3    H113335   0.747   1.652   2.281
 4443TIP3    H213336   0.598   1.673   2.261
 4444TIP3   OH213337   0.049   2.026   2.720
 4444TIP3    H113338   0.053   2.049   2.627
 4444TIP3    H213339  -0.029   1.971   2.728
 4445TIP3   OH213340   5.294   0.285   2.187
 4445TIP3    H113341   5.382   0.323   2.187
 4445TIP3    H213342   5.251   0.326   2.112
 4446TIP3   OH213343   2.362   2.110   4.800
 4446TIP3    H113344   2.305   2.167   4.852
 4446TIP3    H213345   2.429   2.168   4.766
 4447TIP3   OH213346   6.049   3.109   2.763
 4447TIP3    H113347   6.055   3.190   2.815
 4447TIP3    H213348   6.040   3.040   2.828
 4448TIP3   OH213349   3.514   3.654   5.007
 4448TIP3    H113350   3.553   3.739   5.028
 4448TIP3    H213351   3.535   3.599   5.083
 4449TIP3   OH213352   1.083   3.318   3.201
 4449TIP3    H113353   1.037   3.319   3.117
 4449TIP3    H213354   1.046   3.392   3.250
 4450TIP3   OH213355   3.837   5.606   3.154
 4450TIP3    H113356   3.836   5.581   3.062
 4450TIP3    H213357   3.909   5.555   3.192
 4451TIP3   OH213358   5.989   1.008   0.590
 4451TIP3    H113359   5.948   0.954   0.523
 4451TIP3    H213360   5.938   0.990   0.669
 4452TIP3   OH213361   1.456   4.666   3.055
 4452TIP3    H113362   1.400   4.588   3.060
 4452TIP3    H213363   1.402   4.737   3.090
 4453TIP3   OH213364   4.554   4.126   1.979
 4453TIP3    H113365   4.618   4.182   1.935
 4453TIP3    H213366   4.589   4.038   1.971
 4454TIP3   OH213367   3.469   3.182   0.975
 4454TIP3    H113368   3.491   3.266   0.934
 4454TIP3    H213369   3.517   3.117   0.924
 4455TIP3   OH213370   3.516   3.684   4.273
 4455TIP3    H113371   3.565   3.609   4.238
 4455TIP3    H213372   3.502   3.663   4.365
 4456TIP3   OH213373   4.941   5.400   4.364
 4456TIP3    H113374   5.028   5.380   4.328
 4456TIP3    H213375   4.898   5.451   4.296
 4457TIP3   OH213376   0.359   3.095   4.658
 4457TIP3    H113377   0.408   3.045   4.593
 4457TIP3    H213378   0.275   3.114   4.615
 4458TIP3   OH213379   1.713   0.202   0.573
 4458TIP3    H113380   1.684   0.291   0.556
 4458TIP3    H213381   1.744   0.204   0.664
 4459TIP3   OH213382   2.020   0.987   1.500
 4459TIP3    H113383   1.997   1.074   1.533
 4459TIP3    H213384   1.940   0.935   1.512
 4460TIP3   OH213385   2.498   0.006   3.691
 4460TIP3    H113386   2.428   0.037   3.748
 4460TIP3    H213387   2.577   0.009   3.745
 4461TIP3   OH213388   1.709   1.997   3.181
 4461TIP3    H113389   1.623   2.021   3.145
 4461TIP3    H213390   1.755   2.081   3.192
 4462TIP3   OH213391   1.377   5.919   4.910
 4462TIP3    H113392   1.435   5.863   4.857
 4462TIP3    H213393   1.426   6.001   4.921
 4463TIP3   OH213394   0.046   5.403   4.451
 4463TIP3    H113395   0.001   5.336   4.400
 4463TIP3    H213396  -0.021   5.437   4.510
 4464TIP3   OH213397   0.241   4.511   4.119
 4464TIP3    H113398   0.292   4.575   4.168
 4464TIP3    H213399   0.208   4.559   4.043
 4465TIP3   OH213400   4.777   1.020   0.936
 4465TIP3    H113401   4.743   1.057   1.017
 4465TIP3    H213402   4.774   0.925   0.949
 4466TIP3   OH213403   5.803   4.434   3.940
 4466TIP3    H113404   5.737   4.436   4.009
 4466TIP3    H213405   5.879   4.393   3.981
 4467TIP3   OH213406   3.859   5.764   0.074
 4467TIP3    H113407   3.812   5.786  -0.007
 4467TIP3    H213408   3.793   5.773   0.143
 4468TIP3   OH213409   1.669   4.756   3.219
 4468TIP3    H113410   1.743   4.695   3.213
 4468TIP3    H213411   1.600   4.715   3.165
 4469TIP3   OH213412   2.134   4.877   1.354
 4469TIP3    H113413   2.221   4.914   1.341
 4469TIP3    H213414   2.118   4.825   1.274
 4470TIP3   OH213415   5.501   1.889   4.711
 4470TIP3    H113416   5.577   1.832   4.702
 4470TIP3    H213417   5.444   1.843   4.773
 4471TIP3   OH213418   2.360   5.234   1.060
 4471TIP3    H113419   2.439   5.247   1.007
 4471TIP3    H213420   2.317   5.319   1.061
 4472TIP3   OH213421   5.407   2.579   1.265
 4472TIP3    H113422   5.378   2.664   1.234
 4472TIP3    H213423   5.374   2.517   1.200
 4473TIP3   OH213424   5.420   5.032   3.682
 4473TIP3    H113425   5.475   5.071   3.615
 4473TIP3    H213426   5.457   4.944   3.696
 4474TIP3   OH213427   3.139   5.209   1.539
 4474TIP3    H113428   3.131   5.232   1.632
 4474TIP3    H213429   3.123   5.291   1.493
 4475TIP3   OH213430   2.825   5.896   0.673
 4475TIP3    H113431   2.876   5.821   0.702
 4475TIP3    H213432   2.880   5.938   0.607
 4476TIP3   OH213433   5.776   4.988   3.958
 4476TIP3    H113434   5.809   4.917   3.902
 4476TIP3    H213435   5.682   4.991   3.940
 4477TIP3   OH213436   4.374   2.130   5.098
 4477TIP3    H113437   4.382   2.206   5.040
 4477TIP3    H213438   4.326   2.163   5.174
 4478TIP3   OH213439   4.399   0.339   4.792
 4478TIP3    H113440   4.481   0.387   4.785
 4478TIP3    H213441   4.412   0.260   4.740
 4479TIP3   OH213442   3.049   3.914   4.280
 4479TIP3    H113443   3.058   4.004   4.310
 4479TIP3    H213444   2.969   3.883   4.321
 4480TIP3   OH213445   3.861   2.566   0.220
 4480TIP3    H113446   3.785   2.507   0.226
 4480TIP3    H213447   3.840   2.637   0.280
 4481TIP3   OH213448   0.449   5.144   2.184
 4481TIP3    H113449   0.419   5.188   2.264
 4481TIP3    H213450   0.380   5.081   2.164
 4482TIP3   OH213451   0.971   0.576   3.820
 4482TIP3    H113452   0.921   0.647   3.780
 4482TIP3    H213453   0.971   0.595   3.913
 4483TIP3   OH213454   0.667   1.337   5.072
 4483TIP3    H113455   0.677   1.326   5.166
 4483TIP3    H213456   0.611   1.415   5.063
 4484TIP3   OH213457   4.477   1.974   4.314
 4484TIP3    H113458   4.489   2.005   4.225
 4484TIP3    H213459   4.511   2.044   4.370
 4485TIP3   OH213460   1.303   1.415   0.569
 4485TIP3    H113461   1.232   1.465   0.530
 4485TIP3    H213462   1.351   1.478   0.622
 4486TIP3   OH213463   4.153   2.183   4.866
 4486TIP3    H113464   4.076   2.211   4.914
 4486TIP3    H213465   4.121   2.160   4.779
 4487TIP3   OH213466   1.686   2.769   1.937
 4487TIP3    H113467   1.748   2.700   1.915
 4487TIP3    H213468   1.726   2.849   1.902
 4488TIP3   OH213469   0.695   4.026   1.351
 4488TIP3    H113470   0.602   4.049   1.359
 4488TIP3    H213471   0.728   4.087   1.285
 4489TIP3   OH213472   2.136   1.132   3.891
 4489TIP3    H113473   2.190   1.208   3.870
 4489TIP3    H213474   2.107   1.148   3.981
 4490TIP3   OH213475   4.810   2.498   2.284
 4490TIP3    H113476   4.776   2.455   2.362
 4490TIP3    H213477   4.854   2.577   2.317
 4491TIP3   OH213478   0.052   1.964   3.251
 4491TIP3    H113479   0.024   2.025   3.319
 4491TIP3    H213480  -0.022   1.960   3.190
 4492TIP3   OH213481   0.954   4.525   2.704
 4492TIP3    H113482   0.870   4.544   2.745
 4492TIP3    H213483   0.952   4.432   2.685
 4493TIP3   OH213484   5.765   2.334   4.250
 4493TIP3    H113485   5.768   2.429   4.257
 4493TIP3    H213486   5.700   2.317   4.181
 4494TIP3   OH213487   3.890   4.201   5.020
 4494TIP3    H113488   3.822   4.218   5.086
 4494TIP3    H213489   3.925   4.116   5.043
 4495TIP3   OH213490   1.075   5.154   0.410
 4495TIP3    H113491   0.985   5.166   0.442
 4495TIP3    H213492   1.086   5.222   0.344
 4496TIP3   OH213493   0.587   3.002   2.615
 4496TIP3    H113494   0.540   2.974   2.536
 4496TIP3    H213495   0.677   2.970   2.601
 4497TIP3   OH213496   4.936   3.927   0.185
 4497TIP3    H113497   5.018   3.966   0.155
 4497TIP3    H213498   4.962   3.845   0.226
 4498TIP3   OH213499   6.190   4.206   2.605
 4498TIP3    H113500   6.141   4.268   2.659
 4498TIP3    H213501   6.252   4.261   2.556
 4499TIP3   OH213502   2.305   2.378   0.466
 4499TIP3    H113503   2.345   2.292   0.458
 4499TIP3    H213504   2.282   2.403   0.376
 4500TIP3   OH213505   5.145   4.225   3.410
 4500TIP3    H113506   5.198   4.219   3.490
 4500TIP3    H213507   5.194   4.172   3.346
 4501TIP3   OH213508   1.994   0.448   4.971
 4501TIP3    H113509   1.938   0.404   4.907
 4501TIP3    H213510   1.987   0.541   4.950
 4502TIP3   OH213511   0.582   0.442   4.073
 4502TIP3    H113512   0.525   0.395   4.132
 4502TIP3    H213513   0.660   0.461   4.125
 4503TIP3   OH213514   0.061   2.285   3.138
 4503TIP3    H113515  -0.019   2.235   3.153
 4503TIP3    H213516   0.085   2.266   3.047
 4504TIP3   OH213517   4.066  -0.006   1.129
 4504TIP3    H113518   4.074   0.023   1.219
 4504TIP3    H213519   4.151   0.013   1.089
 4505TIP3   OH213520   1.991   4.420   4.079
 4505TIP3    H113521   2.071   4.396   4.032
 4505TIP3    H213522   1.936   4.462   4.013
 4506TIP3   OH213523   5.870   2.731   2.642
 4506TIP3    H113524   5.822   2.767   2.567
 4506TIP3    H213525   5.803   2.689   2.695
 4507TIP3   OH213526   2.536   0.106   4.338
 4507TIP3    H113527   2.487   0.065   4.409
 4507TIP3    H213528   2.485   0.086   4.259
 4508TIP3   OH213529   6.213   4.801   4.232
 4508TIP3    H113530   6.124   4.810   4.267
 4508TIP3    H213531   6.229   4.707   4.231
 4509TIP3   OH213532   4.290   3.270   2.562
 4509TIP3    H113533   4.221   3.317   2.607
 4509TIP3    H213534   4.319   3.329   2.493
 4510TIP3   OH213535   2.714   3.479   1.277
 4510TIP3    H113536   2.656   3.550   1.249
 4510TIP3    H213537   2.709   3.415   1.205
 4511TIP3   OH213538   4.195   1.262   0.002
 4511TIP3    H113539   4.123   1.301   0.053
 4511TIP3    H213540   4.261   1.331  -0.001
 4512TIP3   OH213541   0.422   2.033   3.443
 4512TIP3    H113542   0.414   2.107   3.503
 4512TIP3    H213543   0.459   2.072   3.363
 4513TIP3   OH213544   5.397   0.250   3.446
 4513TIP3    H113545   5.434   0.289   3.526
 4513TIP3    H213546   5.341   0.180   3.478
 4514TIP3   OH213547   2.458   5.674   4.939
 4514TIP3    H113548   2.491   5.680   4.850
 4514TIP3    H213549   2.385   5.613   4.934
 4515TIP3   OH213550   3.400   2.595   4.311
 4515TIP3    H113551   3.421   2.516   4.260
 4515TIP3    H213552   3.323   2.569   4.362
 4516TIP3   OH213553   1.657   1.016   0.060
 4516TIP3    H113554   1.660   1.088   0.122
 4516TIP3    H213555   1.747   1.008   0.027
 4517TIP3   OH213556   5.608   3.901   1.448
 4517TIP3    H113557   5.623   3.914   1.541
 4517TIP3    H213558   5.592   3.807   1.439
 4518TIP3   OH213559   0.652   3.784   3.624
 4518TIP3    H113560   0.557   3.790   3.626
 4518TIP3    H213561   0.679   3.840   3.552
 4519TIP3   OH213562   5.606   3.268   3.845
 4519TIP3    H113563   5.521   3.312   3.849
 4519TIP3    H213564   5.627   3.246   3.936
 4520TIP3   OH213565   3.812   0.868   4.083
 4520TIP3    H113566   3.878   0.913   4.031
 4520TIP3    H213567   3.730   0.884   4.036
 4521TIP3   OH213568   0.811   1.039   4.562
 4521TIP3    H113569   0.769   1.020   4.478
 4521TIP3    H213570   0.752   1.101   4.605
 4522TIP3   OH213571   0.328   4.396   4.619
 4522TIP3    H113572   0.376   4.479   4.610
 4522TIP3    H213573   0.309   4.390   4.713
 4523TIP3   OH213574   1.065   2.042   4.299
 4523TIP3    H113575   1.055   2.049   4.204
 4523TIP3    H213576   1.156   2.066   4.315
 4524TIP3   OH213577   3.960   4.499   4.626
 4524TIP3    H113578   3.974   4.486   4.719
 4524TIP3    H213579   3.866   4.516   4.618
 4525TIP3   OH213580   6.122   5.864   0.535
 4525TIP3    H113581   6.160   5.906   0.613
 4525TIP3    H213582   6.074   5.789   0.569
 4526TIP3   OH213583   0.970   0.023   4.777
 4526TIP3    H113584   0.995   0.114   4.761
 4526TIP3    H213585   0.874   0.026   4.784
 4527TIP3   OH213586   3.211   3.374   1.462
 4527TIP3    H113587   3.239   3.284   1.446
 4527TIP3    H213588   3.160   3.369   1.543
 4528TIP3   OH213589   4.131   2.162   3.143
 4528TIP3    H113590   4.226   2.165   3.152
 4528TIP3    H213591   4.100   2.228   3.205
 4529TIP3   OH213592   0.366   2.741   1.800
 4529TIP3    H113593   0.375   2.681   1.727
 4529TIP3    H213594   0.456   2.768   1.820
 4530TIP3   OH213595   0.468   0.675   4.666
 4530TIP3    H113596   0.425   0.737   4.608
 4530TIP3    H213597   0.437   0.589   4.637
 4531TIP3   OH213598   3.738   3.468   0.004
 4531TIP3    H113599   3.817   3.482   0.056
 4531TIP3    H213600   3.684   3.410   0.058
 4532TIP3   OH213601   4.425   4.890   1.057
 4532TIP3    H113602   4.363   4.916   0.989
 4532TIP3    H213603   4.378   4.826   1.110
 4533TIP3   OH213604   3.993   1.263   0.263
 4533TIP3    H113605   3.974   1.188   0.207
 4533TIP3    H213606   3.908   1.287   0.300
 4534TIP3   OH213607   5.109   5.133   0.629
 4534TIP3    H113608   5.077   5.196   0.564
 4534TIP3    H213609   5.034   5.078   0.649
 4535TIP3   OH213610   3.415   4.702   4.794
 4535TIP3    H113611   3.327   4.666   4.808
 4535TIP3    H213612   3.471   4.651   4.852
 4536TIP3   OH213613   2.827   1.020   1.410
 4536TIP3    H113614   2.849   0.931   1.437
 4536TIP3    H213615   2.874   1.076   1.472
 4537TIP3   OH213616   0.185   2.882   3.497
 4537TIP3    H113617   0.104   2.887   3.547
 4537TIP3    H213618   0.161   2.835   3.417
 4538TIP3   OH213619   0.893   5.537   0.328
 4538TIP3    H113620   0.943   5.614   0.356
 4538TIP3    H213621   0.851   5.565   0.247
 4539TIP3   OH213622   3.885   0.882   2.319
 4539TIP3    H113623   3.977   0.892   2.340
 4539TIP3    H213624   3.858   0.804   2.368
 4540TIP3   OH213625   1.788   3.562   2.186
 4540TIP3    H113626   1.842   3.483   2.188
 4540TIP3    H213627   1.844   3.628   2.145
 4541TIP3   OH213628   4.549   3.298   5.182
 4541TIP3    H113629   4.532   3.305   5.088
 4541TIP3    H213630   4.634   3.340   5.195
 4542TIP3   OH213631   2.910   1.363   3.849
 4542TIP3    H113632   2.859   1.316   3.783
 4542TIP3    H213633   2.845   1.407   3.903
 4543TIP3   OH213634   2.892   2.491   4.147
 4543TIP3    H113635   2.815   2.546   4.159
 4543TIP3    H213636   2.893   2.470   4.054
 4544TIP3   OH213637   1.863   3.401   2.701
 4544TIP3    H113638   1.953   3.388   2.731
 4544TIP3    H213639   1.869   3.467   2.633
 4545TIP3   OH213640   5.058   2.181   4.295
 4545TIP3    H113641   5.017   2.225   4.220
 4545TIP3    H213642   4.995   2.113   4.320
 4546TIP3   OH213643   5.666   4.911   1.899
 4546TIP3    H113644   5.708   4.954   1.974
 4546TIP3    H213645   5.575   4.900   1.926
 4547TIP3   OH213646   5.973   5.462   2.144
 4547TIP3    H113647   5.942   5.495   2.228
 4547TIP3    H213648   5.967   5.537   2.085
 4548TIP3   OH213649   5.128   2.176   0.486
 4548TIP3    H113650   5.144   2.183   0.581
 4548TIP3    H213651   5.078   2.095   0.476
 4549TIP3   OH213652   3.134   4.490   2.774
 4549TIP3    H113653   3.107   4.524   2.689
 4549TIP3    H213654   3.162   4.400   2.755
 4550TIP3   OH213655   1.641   2.399   4.623
 4550TIP3    H113656   1.623   2.392   4.717
 4550TIP3    H213657   1.736   2.394   4.616
 4551TIP3   OH213658   5.365   1.036   1.481
 4551TIP3    H113659   5.407   1.084   1.409
 4551TIP3    H213660   5.274   1.064   1.478
 4552TIP3   OH213661   3.459   5.222   1.017
 4552TIP3    H113662   3.415   5.230   0.933
 4552TIP3    H213663   3.389   5.223   1.082
 4553TIP3   OH213664   4.554   0.638   2.689
 4553TIP3    H113665   4.577   0.591   2.769
 4553TIP3    H213666   4.560   0.573   2.620
 4554TIP3   OH213667   3.638   3.103   2.327
 4554TIP3    H113668   3.717   3.134   2.281
 4554TIP3    H213669   3.630   3.011   2.301
 4555TIP3   OH213670   5.882   1.218   2.131
 4555TIP3    H113671   5.844   1.211   2.219
 4555TIP3    H213672   5.809   1.197   2.073
 4556TIP3   OH213673   3.710   4.768   4.957
 4556TIP3    H113674   3.754   4.750   5.040
 4556TIP3    H213675   3.644   4.698   4.949
 4557TIP3   OH213676   2.469   4.661   1.983
 4557TIP3    H113677   2.486   4.567   1.972
 4557TIP3    H213678   2.388   4.665   2.033
 4558TIP3   OH213679   0.566   1.235   3.913
 4558TIP3    H113680   0.575   1.330   3.921
 4558TIP3    H213681   0.505   1.223   3.840
 4559TIP3   OH213682   4.510   5.218   4.172
 4559TIP3    H113683   4.567   5.258   4.106
 4559TIP3    H213684   4.570   5.188   4.240
 4560TIP3   OH213685   3.803   1.331   0.640
 4560TIP3    H113686   3.860   1.339   0.717
 4560TIP3    H213687   3.743   1.259   0.663
 4561TIP3   OH213688   2.004   2.977   3.052
 4561TIP3    H113689   2.015   3.061   3.008
 4561TIP3    H213690   1.977   2.917   2.983
 4562TIP3   OH213691   1.756   3.044   3.206
 4562TIP3    H113692   1.763   3.024   3.113
 4562TIP3    H213693   1.763   3.139   3.211
 4563TIP3   OH213694   5.537   0.555   3.585
 4563TIP3    H113695   5.508   0.472   3.622
 4563TIP3    H213696   5.592   0.531   3.511
 4564TIP3   OH213697   1.738   4.017   2.936
 4564TIP3    H113698   1.810   3.985   2.881
 4564TIP3    H213699   1.692   3.938   2.964
 4565TIP3   OH213700   1.917   2.200   3.792
 4565TIP3    H113701   1.882   2.134   3.732
 4565TIP3    H213702   1.841   2.228   3.843
 4566TIP3   OH213703   5.895   5.559   4.777
 4566TIP3    H113704   5.959   5.553   4.848
 4566TIP3    H213705   5.844   5.637   4.798
 4567TIP3   OH213706   3.934   5.836   4.084
 4567TIP3    H113707   3.860   5.814   4.027
 4567TIP3    H213708   3.903   5.911   4.135
 4568TIP3   OH213709   3.435   3.676   1.045
 4568TIP3    H113710   3.458   3.766   1.019
 4568TIP3    H213711   3.388   3.687   1.128
 4569TIP3   OH213712   2.478   3.559   0.518
 4569TIP3    H113713   2.474   3.497   0.445
 4569TIP3    H213714   2.529   3.512   0.585
 4570TIP3   OH213715   2.541   3.303   3.734
 4570TIP3    H113716   2.457   3.324   3.775
 4570TIP3    H213717   2.532   3.333   3.644
 4571TIP3   OH213718   4.137   4.493   1.505
 4571TIP3    H113719   4.081   4.567   1.526
 4571TIP3    H213720   4.143   4.442   1.585
 4572TIP3   OH213721   0.563   1.101   4.354
 4572TIP3    H113722   0.500   1.165   4.387
 4572TIP3    H213723   0.523   1.016   4.375
 4573TIP3   OH213724   3.336   3.856   1.749
 4573TIP3    H113725   3.403   3.856   1.681
 4573TIP3    H213726   3.265   3.910   1.712
 4574TIP3   OH213727   1.937   2.276   3.450
 4574TIP3    H113728   2.030   2.267   3.432
 4574TIP3    H213729   1.931   2.351   3.510
 4575TIP3   OH213730   1.914   4.905   0.706
 4575TIP3    H113731   1.996   4.931   0.748
 4575TIP3    H213732   1.923   4.932   0.615
 4576TIP3   OH213733   2.043   1.549   0.578
 4576TIP3    H113734   1.983   1.569   0.649
 4576TIP3    H213735   1.991   1.498   0.516
 4577TIP3   OH213736   3.995   1.605   1.298
 4577TIP3    H113737   3.984   1.552   1.376
 4577TIP3    H213738   3.971   1.547   1.226
 4578TIP3   OH213739   5.312   0.594   4.785
 4578TIP3    H113740   5.232   0.542   4.773
 4578TIP3    H213741   5.295   0.646   4.864
 4579TIP3   OH213742   1.637   5.933   4.993
 4579TIP3    H113743   1.569   5.929   5.060
 4579TIP3    H213744   1.656   6.027   4.984
 4580TIP3   OH213745   4.615   1.532   4.598
 4580TIP3    H113746   4.605   1.618   4.556
 4580TIP3    H213747   4.561   1.473   4.545
 4581TIP3   OH213748   0.642   0.727   0.217
 4581TIP3    H113749   0.593   0.684   0.147
 4581TIP3    H213750   0.714   0.667   0.236
 4582TIP3   OH213751   4.353   1.533   1.597
 4582TIP3    H113752   4.281   1.526   1.660
 4582TIP3    H213753   4.326   1.478   1.523
 4583TIP3   OH213754   5.434   1.127   0.130
 4583TIP3    H113755   5.353   1.104   0.176
 4583TIP3    H213756   5.418   1.102   0.039
 4584TIP3   OH213757   4.385   5.972   1.046
 4584TIP3    H113758   4.336   5.987   1.128
 4584TIP3    H213759   4.436   5.893   1.063
 4585TIP3   OH213760   3.823   1.731   4.198
 4585TIP3    H113761   3.875   1.651   4.188
 4585TIP3    H213762   3.814   1.741   4.293
 4586TIP3   OH213763   2.719   4.911   4.893
 4586TIP3    H113764   2.708   4.882   4.803
 4586TIP3    H213765   2.660   4.986   4.901
 4587TIP3   OH213766   3.402   5.545   1.016
 4587TIP3    H113767   3.436   5.596   0.942
 4587TIP3    H213768   3.477   5.536   1.075
 4588TIP3   OH213769   0.506   5.068   1.232
 4588TIP3    H113770   0.422   5.042   1.270
 4588TIP3    H213771   0.525   5.153   1.271
 4589TIP3   OH213772   3.947   5.941   0.560
 4589TIP3    H113773   3.919   5.861   0.516
 4589TIP3    H213774   3.914   6.011   0.504
 4590TIP3   OH213775   5.206   2.535   1.880
 4590TIP3    H113776   5.150   2.460   1.903
 4590TIP3    H213777   5.248   2.509   1.799
 4591TIP3   OH213778   0.596   2.253   4.693
 4591TIP3    H113779   0.539   2.329   4.686
 4591TIP3    H213780   0.580   2.219   4.781
 4592TIP3   OH213781   5.894   1.187   3.869
 4592TIP3    H113782   5.848   1.267   3.843
 4592TIP3    H213783   5.975   1.219   3.909
 4593TIP3   OH213784   6.273   2.027   4.129
 4593TIP3    H113785   6.236   2.111   4.154
 4593TIP3    H213786   6.245   2.013   4.038
 4594TIP3   OH213787   1.352   3.879   1.903
 4594TIP3    H113788   1.260   3.904   1.891
 4594TIP3    H213789   1.349   3.786   1.924
 4595TIP3   OH213790   2.379   2.054   2.606
 4595TIP3    H113791   2.405   2.090   2.691
 4595TIP3    H213792   2.285   2.070   2.602
 4596TIP3   OH213793   1.638   4.522   3.506
 4596TIP3    H113794   1.573   4.586   3.478
 4596TIP3    H213795   1.689   4.568   3.572
 4597TIP3   OH213796   5.746   2.813   4.743
 4597TIP3    H113797   5.833   2.780   4.721
 4597TIP3    H213798   5.701   2.820   4.659
 4598TIP3   OH213799   0.551   4.527   3.173
 4598TIP3    H113800   0.629   4.553   3.221
 4598TIP3    H213801   0.572   4.441   3.137
 4599TIP3   OH213802   0.338   5.582   0.394
 4599TIP3    H113803   0.251   5.560   0.427
 4599TIP3    H213804   0.323   5.657   0.336
 4600TIP3   OH213805   4.720   3.041   3.017
 4600TIP3    H113806   4.627   3.016   3.015
 4600TIP3    H213807   4.767   2.960   2.998
 4601TIP3   OH213808   2.041   4.649   3.528
 4601TIP3    H113809   2.053   4.730   3.479
 4601TIP3    H213810   1.946   4.641   3.538
 4602TIP3   OH213811   5.793   5.023   2.153
 4602TIP3    H113812   5.865   4.961   2.142
 4602TIP3    H213813   5.758   5.004   2.240
 4603TIP3   OH213814   3.044   0.332   2.155
 4603TIP3    H113815   3.055   0.244   2.189
 4603TIP3    H213816   3.091   0.388   2.217
 4604TIP3   OH213817   2.803   2.055   0.904
 4604TIP3    H113818   2.718   2.039   0.944
 4604TIP3    H213819   2.867   2.028   0.970
 4605TIP3   OH213820   1.505   3.304   2.752
 4605TIP3    H113821   1.495   3.299   2.847
 4605TIP3    H213822   1.418   3.287   2.717
 4606TIP3   OH213823   1.799   0.813   2.677
 4606TIP3    H113824   1.819   0.734   2.628
 4606TIP3    H213825   1.705   0.809   2.694
 4607TIP3   OH213826   4.700   5.082   4.329
 4607TIP3    H113827   4.780   5.066   4.279
 4607TIP3    H213828   4.729   5.087   4.420
 4608TIP3   OH213829   3.150   3.504   4.031
 4608TIP3    H113830   3.196   3.422   4.014
 4608TIP3    H213831   3.090   3.483   4.102
 4609TIP3   OH213832   0.442   3.239   1.840
 4609TIP3    H113833   0.356   3.282   1.837
 4609TIP3    H213834   0.439   3.185   1.919
 4610TIP3   OH213835   2.686   2.705   5.017
 4610TIP3    H113836   2.605   2.728   4.971
 4610TIP3    H213837   2.671   2.730   5.108
 4611TIP3   OH213838   4.796   2.956   4.544
 4611TIP3    H113839   4.774   2.909   4.464
 4611TIP3    H213840   4.827   3.041   4.514
 4612TIP3   OH213841   4.587   3.327   2.512
 4612TIP3    H113842   4.634   3.323   2.595
 4612TIP3    H213843   4.496   3.305   2.535
 4613TIP3   OH213844   5.343   5.473   1.551
 4613TIP3    H113845   5.373   5.484   1.642
 4613TIP3    H213846   5.366   5.383   1.528
 4614TIP3   OH213847   1.084   2.178   0.700
 4614TIP3    H113848   1.089   2.187   0.605
 4614TIP3    H213849   1.088   2.268   0.732
 4615TIP3   OH213850   2.772   0.828   0.658
 4615TIP3    H113851   2.764   0.903   0.716
 4615TIP3    H213852   2.694   0.832   0.603
 4616TIP3   OH213853   2.705   3.552   1.687
 4616TIP3    H113854   2.635   3.488   1.672
 4616TIP3    H213855   2.743   3.527   1.771
 4617TIP3   OH213856   5.650   2.592   1.663
 4617TIP3    H113857   5.666   2.682   1.634
 4617TIP3    H213858   5.719   2.575   1.728
 4618TIP3   OH213859   2.801   3.772   2.713
 4618TIP3    H113860   2.820   3.682   2.740
 4618TIP3    H213861   2.706   3.776   2.705
 4619TIP3   OH213862   2.856   4.258   3.021
 4619TIP3    H113863   2.795   4.198   2.979
 4619TIP3    H213864   2.868   4.222   3.110
 4620TIP3   OH213865   5.067   1.637   3.585
 4620TIP3    H113866   4.973   1.654   3.586
 4620TIP3    H213867   5.106   1.721   3.562
 4621TIP3   OH213868   2.441   2.748   4.873
 4621TIP3    H113869   2.351   2.733   4.901
 4621TIP3    H213870   2.434   2.782   4.784
 4622TIP3   OH213871   2.918   3.325   4.795
 4622TIP3    H113872   3.008   3.296   4.809
 4622TIP3    H213873   2.889   3.277   4.717
 4623TIP3   OH213874   4.239   2.715   1.431
 4623TIP3    H113875   4.202   2.770   1.500
 4623TIP3    H213876   4.325   2.754   1.413
 4624TIP3   OH213877   4.059   3.952   2.212
 4624TIP3    H113878   4.021   3.976   2.297
 4624TIP3    H213879   4.064   3.857   2.214
 4625TIP3   OH213880   5.339   2.263   0.327
 4625TIP3    H113881   5.336   2.354   0.356
 4625TIP3    H213882   5.315   2.212   0.404
 4626TIP3   OH213883   3.769   2.064   3.557
 4626TIP3    H113884   3.761   2.101   3.469
 4626TIP3    H213885   3.843   2.003   3.551
 4627TIP3   OH213886   4.777   2.112   2.829
 4627TIP3    H113887   4.848   2.090   2.769
 4627TIP3    H213888   4.770   2.035   2.886
 4628TIP3   OH213889   2.822   5.828   2.417
 4628TIP3    H113890   2.764   5.890   2.460
 4628TIP3    H213891   2.876   5.793   2.488
 4629TIP3   OH213892   0.848   1.917   4.197
 4629TIP3    H113893   0.912   1.946   4.262
 4629TIP3    H213894   0.890   1.842   4.155
 4630TIP3   OH213895   3.928   5.172   0.380
 4630TIP3    H113896   3.984   5.094   0.378
 4630TIP3    H213897   3.839   5.138   0.393
 4631TIP3   OH213898   0.963   0.870   1.565
 4631TIP3    H113899   0.956   0.917   1.648
 4631TIP3    H213900   1.044   0.819   1.574
 4632TIP3   OH213901   3.663   5.345   0.912
 4632TIP3    H113902   3.661   5.302   0.827
 4632TIP3    H213903   3.583   5.316   0.956
 4633TIP3   OH213904   0.169   1.697   3.253
 4633TIP3    H113905   0.248   1.657   3.290
 4633TIP3    H213906   0.173   1.788   3.281
 4634TIP3   OH213907   3.050   5.150   4.988
 4634TIP3    H113908   3.121   5.137   5.051
 4634TIP3    H213909   2.970   5.146   5.040
 4635TIP3   OH213910   0.016   3.621   0.869
 4635TIP3    H113911   0.096   3.572   0.850
 4635TIP3    H213912  -0.026   3.632   0.783
 4636TIP3   OH213913   1.336   5.805   3.892
 4636TIP3    H113914   1.241   5.808   3.905
 4636TIP3    H213915   1.353   5.720   3.851
 4637TIP3   OH213916   2.797   5.063   5.121
 4637TIP3    H113917   2.833   5.008   5.191
 4637TIP3    H213918   2.783   5.002   5.048
 4638TIP3   OH213919   3.933   0.980   4.449
 4638TIP3    H113920   3.986   1.030   4.387
 4638TIP3    H213921   3.942   0.889   4.420
 4639TIP3   OH213922   3.697   3.165   1.980
 4639TIP3    H113923   3.685   3.070   1.982
 4639TIP3    H213924   3.766   3.179   1.915
 4640TIP3   OH213925   5.146   3.334   1.798
 4640TIP3    H113926   5.180   3.364   1.882
 4640TIP3    H213927   5.225   3.317   1.746
 4641TIP3   OH213928   5.314   5.830   5.024
 4641TIP3    H113929   5.304   5.916   4.984
 4641TIP3    H213930   5.228   5.789   5.015
 4642TIP3   OH213931   0.388   3.852   3.249
 4642TIP3    H113932   0.455   3.858   3.181
 4642TIP3    H213933   0.306   3.867   3.202
 4643TIP3   OH213934   1.943   4.687   0.172
 4643TIP3    H113935   1.932   4.778   0.143
 4643TIP3    H213936   1.900   4.685   0.258
 4644TIP3   OH213937   0.024   0.308   1.256
 4644TIP3    H113938   0.094   0.369   1.279
 4644TIP3    H213939   0.061   0.221   1.270
 4645TIP3   OH213940   0.709   2.530   0.655
 4645TIP3    H113941   0.674   2.441   0.665
 4645TIP3    H213942   0.653   2.583   0.711
 4646TIP3   OH213943   2.969   2.043   0.381
 4646TIP3    H113944   2.949   1.963   0.430
 4646TIP3    H213945   2.916   2.036   0.301
 4647TIP3   OH213946   4.741   5.569   1.932
 4647TIP3    H113947   4.773   5.649   1.890
 4647TIP3    H213948   4.647   5.582   1.942
 4648TIP3   OH213949   5.407   3.523   4.630
 4648TIP3    H113950   5.449   3.559   4.708
 4648TIP3    H213951   5.363   3.444   4.661
 4649TIP3   OH213952   0.488   0.730   2.241
 4649TIP3    H113953   0.415   0.705   2.185
 4649TIP3    H213954   0.454   0.720   2.330
 4650TIP3   OH213955   5.877   4.016   1.612
 4650TIP3    H113956   5.911   3.928   1.623
 4650TIP3    H213957   5.788   4.013   1.649
 4651TIP3   OH213958   1.994   5.703   0.974
 4651TIP3    H113959   2.018   5.792   0.999
 4651TIP3    H213960   2.077   5.663   0.947
 4652TIP3   OH213961   0.713   3.251   2.358
 4652TIP3    H113962   0.625   3.227   2.330
 4652TIP3    H213963   0.762   3.168   2.356
 4653TIP3   OH213964   3.888   5.093   3.314
 4653TIP3    H113965   3.976   5.093   3.352
 4653TIP3    H213966   3.840   5.028   3.365
 4654TIP3   OH213967   1.105   0.019   0.886
 4654TIP3    H113968   1.177   0.022   0.949
 4654TIP3    H213969   1.043   0.086   0.916
 4655TIP3   OH213970   4.115   5.089   1.098
 4655TIP3    H113971   4.043   5.034   1.066
 4655TIP3    H213972   4.153   5.127   1.019
 4656TIP3   OH213973   2.960   0.343   0.026
 4656TIP3    H113974   3.018   0.283   0.073
 4656TIP3    H213975   2.876   0.298   0.023
 4657TIP3   OH213976   5.355   4.276   4.420
 4657TIP3    H113977   5.314   4.191   4.437
 4657TIP3    H213978   5.308   4.310   4.344
 4658TIP3   OH213979   2.101   2.975   4.633
 4658TIP3    H113980   2.028   2.975   4.695
 4658TIP3    H213981   2.114   3.068   4.611
 4659TIP3   OH213982   2.658   2.834   1.755
 4659TIP3    H113983   2.714   2.790   1.819
 4659TIP3    H213984   2.677   2.789   1.673
 4660TIP3   OH213985   2.387   4.334   4.191
 4660TIP3    H113986   2.428   4.419   4.177
 4660TIP3    H213987   2.329   4.322   4.115
 4661TIP3   OH213988   3.578   5.481   3.062
 4661TIP3    H113989   3.612   5.430   3.136
 4661TIP3    H213990   3.656   5.508   3.014
 4662TIP3   OH213991   4.089   0.287   2.882
 4662TIP3    H113992   4.173   0.263   2.922
 4662TIP3    H213993   4.058   0.206   2.841
 4663TIP3   OH213994   3.848   2.775   4.821
 4663TIP3    H113995   3.822   2.781   4.912
 4663TIP3    H213996   3.799   2.699   4.787
 4664TIP3   OH213997   5.718   2.292   5.019
 4664TIP3    H113998   5.742   2.340   4.940
 4664TIP3    H213999   5.787   2.227   5.029
 4665TIP3   OH214000   0.383   3.009   0.433
 4665TIP3    H114001   0.293   3.034   0.455
 4665TIP3    H214002   0.388   3.018   0.338
 4666TIP3   OH214003   0.157   3.651   4.142
 4666TIP3    H114004   0.130   3.627   4.230
 4666TIP3    H214005   0.248   3.679   4.151
 4667TIP3   OH214006   2.960   5.476   4.908
 4667TIP3    H114007   3.005   5.395   4.933
 4667TIP3    H214008   2.904   5.496   4.984
 4668TIP3   OH214009   4.313   3.544   0.168
 4668TIP3    H114010   4.278   3.472   0.115
 4668TIP3    H214011   4.252   3.552   0.241
 4669TIP3   OH214012   5.037   3.150   4.286
 4669TIP3    H114013   5.097   3.119   4.354
 4669TIP3    H214014   4.952   3.157   4.329
 4670TIP3   OH214015   3.518   5.104   3.257
 4670TIP3    H114016   3.543   5.013   3.270
 4670TIP3    H214017   3.442   5.100   3.198
 4671TIP3   OH214018   4.296   2.619   2.489
 4671TIP3    H114019   4.221   2.675   2.469
 4671TIP3    H214020   4.263   2.554   2.550
 4672TIP3   OH214021   5.358   2.166   1.774
 4672TIP3    H114022   5.384   2.096   1.834
 4672TIP3    H214023   5.263   2.162   1.773
 4673TIP3   OH214024   2.682   4.004   0.901
 4673TIP3    H114025   2.724   3.974   0.982
 4673TIP3    H214026   2.644   3.924   0.864
 4674TIP3   OH214027   2.185   0.988   0.087
 4674TIP3    H114028   2.255   1.012   0.146
 4674TIP3    H214029   2.140   0.916   0.131
 4675TIP3   OH214030   2.440   4.885   2.544
 4675TIP3    H114031   2.521   4.935   2.541
 4675TIP3    H214032   2.449   4.829   2.622
 4676TIP3   OH214033   0.170   5.287   5.016
 4676TIP3    H114034   0.135   5.333   4.939
 4676TIP3    H214035   0.099   5.291   5.080
 4677TIP3   OH214036   5.194   0.731   4.986
 4677TIP3    H114037   5.189   0.693   5.074
 4677TIP3    H214038   5.155   0.818   4.995
 4678TIP3   OH214039   4.041   1.088   4.208
 4678TIP3    H114040   4.044   1.067   4.114
 4678TIP3    H214041   4.133   1.086   4.235
 4679TIP3   OH214042   5.805   1.943   0.659
 4679TIP3    H114043   5.748   2.008   0.618
 4679TIP3    H214044   5.748   1.870   0.679
 4680TIP3   OH214045   0.328   2.283   4.305
 4680TIP3    H114046   0.274   2.218   4.260
 4680TIP3    H214047   0.307   2.271   4.397
 4681TIP3   OH214048   2.566   5.589   3.031
 4681TIP3    H114049   2.504   5.661   3.045
 4681TIP3    H214050   2.633   5.601   3.099
 4682TIP3   OH214051   4.983   3.598   4.378
 4682TIP3    H114052   4.917   3.597   4.309
 4682TIP3    H214053   5.066   3.591   4.331
 4683TIP3   OH214054   4.187   3.552   5.112
 4683TIP3    H114055   4.117   3.617   5.121
 4683TIP3    H214056   4.152   3.474   5.155
 4684TIP3   OH214057   3.342   1.066   0.363
 4684TIP3    H114058   3.402   1.028   0.300
 4684TIP3    H214059   3.314   1.148   0.322
 4685TIP3   OH214060   6.190   5.235   0.558
 4685TIP3    H114061   6.261   5.277   0.606
 4685TIP3    H214062   6.123   5.216   0.624
 4686TIP3   OH214063   5.215   5.255   0.312
 4686TIP3    H114064   5.126   5.226   0.291
 4686TIP3    H214065   5.271   5.188   0.273
 4687TIP3   OH214066   2.087   2.549   3.894
 4687TIP3    H114067   2.174   2.574   3.862
 4687TIP3    H214068   2.096   2.456   3.916
 4688TIP3   OH214069   3.548   5.591   2.249
 4688TIP3    H114070   3.461   5.628   2.232
 4688TIP3    H214071   3.569   5.618   2.339
 4689TIP3   OH214072   6.343   2.507   2.088
 4689TIP3    H114073   6.397   2.489   2.011
 4689TIP3    H214074   6.311   2.421   2.116
 4690TIP3   OH214075   1.526   1.785   2.063
 4690TIP3    H114076   1.599   1.793   2.125
 4690TIP3    H214077   1.558   1.824   1.982
 4691TIP3   OH214078   1.137   3.630   1.267
 4691TIP3    H114079   1.108   3.689   1.198
 4691TIP3    H214080   1.168   3.689   1.337
 4692TIP3   OH214081   2.469   2.988   3.481
 4692TIP3    H114082   2.483   3.013   3.572
 4692TIP3    H214083   2.436   2.898   3.485
 4693TIP3   OH214084   1.242   1.580   3.749
 4693TIP3    H114085   1.253   1.505   3.808
 4693TIP3    H214086   1.328   1.624   3.750
 4694TIP3   OH214087   4.886   2.009   4.452
 4694TIP3    H114088   4.850   1.941   4.395
 4694TIP3    H214089   4.904   1.963   4.534
 4695TIP3   OH214090   5.343   1.744   4.422
 4695TIP3    H114091   5.310   1.714   4.337
 4695TIP3    H214092   5.415   1.684   4.442
 4696TIP3   OH214093   4.278   2.220   1.037
 4696TIP3    H114094   4.185   2.244   1.028
 4696TIP3    H214095   4.325   2.292   0.995
 4697TIP3   OH214096   1.240   1.589   4.082
 4697TIP3    H114097   1.164   1.594   4.024
 4697TIP3    H214098   1.249   1.496   4.101
 4698TIP3   OH214099   4.967   0.279   1.357
 4698TIP3    H114100   5.037   0.261   1.420
 4698TIP3    H214101   4.903   0.331   1.406
 4699TIP3   OH214102   2.272   1.005   1.369
 4699TIP3    H114103   2.189   0.989   1.413
 4699TIP3    H214104   2.289   0.925   1.319
 4700TIP3   OH214105   5.399   2.218   4.281
 4700TIP3    H114106   5.443   2.138   4.312
 4700TIP3    H214107   5.436   2.233   4.194
 4701TIP3   OH214108   2.178   1.781   2.561
 4701TIP3    H114109   2.109   1.759   2.498
 4701TIP3    H214110   2.214   1.864   2.529
 4702TIP3   OH214111   4.357   5.939   2.097
 4702TIP3    H114112   4.411   5.862   2.080
 4702TIP3    H214113   4.338   5.975   2.010
 4703TIP3   OH214114   0.080   0.190   2.656
 4703TIP3    H114115   0.064   0.098   2.679
 4703TIP3    H214116  -0.004   0.221   2.622
 4704TIP3   OH214117   3.618   0.506   0.696
 4704TIP3    H114118   3.526   0.493   0.721
 4704TIP3    H214119   3.663   0.524   0.778
 4705TIP3   OH214120   3.375   1.519   3.870
 4705TIP3    H114121   3.316   1.516   3.795
 4705TIP3    H214122   3.459   1.547   3.835
 4706TIP3   OH214123   3.994   4.080   3.928
 4706TIP3    H114124   4.014   4.173   3.925
 4706TIP3    H214125   4.071   4.039   3.967
 4707TIP3   OH214126   6.024   5.127   3.398
 4707TIP3    H114127   6.035   5.148   3.491
 4707TIP3    H214128   5.983   5.205   3.361
 4708TIP3   OH214129   1.127   0.324   1.139
 4708TIP3    H114130   1.093   0.324   1.229
 4708TIP3    H214131   1.054   0.293   1.086
 4709TIP3   OH214132   2.230   0.195   0.818
 4709TIP3    H114133   2.295   0.179   0.886
 4709TIP3    H214134   2.222   0.290   0.814
 4710TIP3   OH214135   3.971   3.920   4.565
 4710TIP3    H114136   3.942   3.912   4.474
 4710TIP3    H214137   3.940   4.006   4.593
 4711TIP3   OH214138   2.196   5.269   3.159
 4711TIP3    H114139   2.110   5.240   3.127
 4711TIP3    H214140   2.250   5.190   3.158
 4712TIP3   OH214141   0.404   5.063   3.801
 4712TIP3    H114142   0.469   5.113   3.752
 4712TIP3    H214143   0.361   5.008   3.734
 4713TIP3   OH214144   3.276   5.849   3.196
 4713TIP3    H114145   3.281   5.933   3.152
 4713TIP3    H214146   3.360   5.807   3.179
 4714TIP3   OH214147   0.259   0.266   0.553
 4714TIP3    H114148   0.304   0.306   0.627
 4714TIP3    H214149   0.329   0.223   0.503
 4715TIP3   OH214150   6.285   5.329   2.785
 4715TIP3    H114151   6.327   5.401   2.738
 4715TIP3    H214152   6.351   5.297   2.846
 4716TIP3   OH214153   5.658   4.242   2.563
 4716TIP3    H114154   5.575   4.195   2.555
 4716TIP3    H214155   5.720   4.189   2.513
 4717TIP3   OH214156   1.979   2.428   1.262
 4717TIP3    H114157   2.058   2.406   1.311
 4717TIP3    H214158   1.996   2.397   1.173
 4718TIP3   OH214159   1.141   1.209   1.808
 4718TIP3    H114160   1.115   1.301   1.812
 4718TIP3    H214161   1.163   1.186   1.899
 4719TIP3   OH214162   2.111   5.149   2.719
 4719TIP3    H114163   2.148   5.091   2.652
 4719TIP3    H214164   2.175   5.220   2.726
 4720TIP3   OH214165   2.307   0.309   4.302
 4720TIP3    H114166   2.330   0.333   4.392
 4720TIP3    H214167   2.289   0.216   4.306
 4721TIP3   OH214168   3.546   1.366   2.270
 4721TIP3    H114169   3.588   1.282   2.286
 4721TIP3    H214170   3.473   1.346   2.211
 4722TIP3   OH214171   5.447   1.752   1.690
 4722TIP3    H114172   5.382   1.770   1.757
 4722TIP3    H214173   5.420   1.804   1.615
 4723TIP3   OH214174   1.271   0.098   3.142
 4723TIP3    H114175   1.188   0.133   3.110
 4723TIP3    H214176   1.290   0.151   3.220
 4724TIP3   OH214177   3.189   5.803   4.510
 4724TIP3    H114178   3.153   5.739   4.572
 4724TIP3    H214179   3.274   5.826   4.548
 4725TIP3   OH214180   4.578   3.568   1.358
 4725TIP3    H114181   4.624   3.528   1.432
 4725TIP3    H214182   4.485   3.551   1.376
 4726TIP3   OH214183   1.443   2.086   2.391
 4726TIP3    H114184   1.526   2.047   2.362
 4726TIP3    H214185   1.469   2.149   2.458
 4727TIP3   OH214186   6.299   5.266   3.387
 4727TIP3    H114187   6.211   5.229   3.389
 4727TIP3    H214188   6.292   5.342   3.330
 4728TIP3   OH214189   0.121   2.500   0.036
 4728TIP3    H114190   0.074   2.577   0.003
 4728TIP3    H214191   0.096   2.429  -0.023
 4729TIP3   OH214192   1.257   2.977   0.410
 4729TIP3    H114193   1.223   2.981   0.499
 4729TIP3    H214194   1.201   2.914   0.365
 4730TIP3   OH214195   4.894   1.349   4.389
 4730TIP3    H114196   4.834   1.280   4.360
 4730TIP3    H214197   4.886   1.417   4.322
 4731TIP3   OH214198   5.948   3.713   1.694
 4731TIP3    H114199   5.915   3.702   1.605
 4731TIP3    H214200   5.882   3.671   1.749
 4732TIP3   OH214201   2.351   2.079   0.638
 4732TIP3    H114202   2.310   2.047   0.719
 4732TIP3    H214203   2.421   2.137   0.667
 4733TIP3   OH214204   0.371   3.010   3.194
 4733TIP3    H114205   0.322   3.060   3.260
 4733TIP3    H214206   0.447   2.978   3.241
 4734TIP3   OH214207   4.001   4.292   3.674
 4734TIP3    H114208   4.042   4.210   3.646
 4734TIP3    H214209   3.914   4.289   3.636
 4735TIP3   OH214210   2.734   2.799   3.666
 4735TIP3    H114211   2.679   2.721   3.674
 4735TIP3    H214212   2.677   2.871   3.694
 4736TIP3   OH214213   1.180   1.142   4.923
 4736TIP3    H114214   1.086   1.132   4.939
 4736TIP3    H214215   1.186   1.220   4.867
 4737TIP3   OH214216   4.497   1.871   3.437
 4737TIP3    H114217   4.422   1.930   3.445
 4737TIP3    H214218   4.561   1.921   3.385
 4738TIP3   OH214219   5.693   0.723   0.051
 4738TIP3    H114220   5.786   0.720   0.032
 4738TIP3    H214221   5.675   0.639   0.094
 4739TIP3   OH214222   1.267   0.653   4.869
 4739TIP3    H114223   1.283   0.718   4.938
 4739TIP3    H214224   1.214   0.700   4.804
 4740TIP3   OH214225   5.330   2.384   2.774
 4740TIP3    H114226   5.297   2.317   2.714
 4740TIP3    H214227   5.408   2.419   2.730
 4741TIP3   OH214228   1.696   1.452   2.817
 4741TIP3    H114229   1.650   1.525   2.776
 4741TIP3    H214230   1.759   1.423   2.751
 4742TIP3   OH214231   0.735   3.971   3.817
 4742TIP3    H114232   0.693   4.056   3.805
 4742TIP3    H214233   0.703   3.917   3.745
 4743TIP3   OH214234   1.582   3.931   0.067
 4743TIP3    H114235   1.615   3.974  -0.011
 4743TIP3    H214236   1.536   3.853   0.033
 4744TIP3   OH214237   4.937   1.795   1.715
 4744TIP3    H114238   4.864   1.837   1.761
 4744TIP3    H214239   4.896   1.728   1.661
 4745TIP3   OH214240   5.637   3.987   4.993
 4745TIP3    H114241   5.655   4.037   4.914
 4745TIP3    H214242   5.548   4.012   5.018
 4746TIP3   OH214243   6.301   3.526   2.500
 4746TIP3    H114244   6.317   3.514   2.406
 4746TIP3    H214245   6.269   3.615   2.508
 4747TIP3   OH214246   0.489   3.689   1.774
 4747TIP3    H114247   0.545   3.725   1.843
 4747TIP3    H214248   0.538   3.704   1.693
 4748TIP3   OH214249   2.604   4.207   0.737
 4748TIP3    H114250   2.691   4.246   0.726
 4748TIP3    H214251   2.616   4.142   0.807
 4749TIP3   OH214252   6.322   0.080   3.744
 4749TIP3    H114253   6.375   0.083   3.665
 4749TIP3    H214254   6.322   0.169   3.778
 4750TIP3   OH214255   4.305   0.899   3.390
 4750TIP3    H114256   4.393   0.931   3.369
 4750TIP3    H214257   4.260   0.977   3.424
 4751TIP3   OH214258   5.392   2.107   3.568
 4751TIP3    H114259   5.436   2.188   3.595
 4751TIP3    H214260   5.395   2.051   3.646
 4752TIP3   OH214261   4.698   5.450   2.409
 4752TIP3    H114262   4.635   5.403   2.463
 4752TIP3    H214263   4.653   5.532   2.387
 4753TIP3   OH214264   2.345   5.207   1.804
 4753TIP3    H114265   2.316   5.293   1.774
 4753TIP3    H214266   2.276   5.147   1.778
 4754TIP3   OH214267   3.658   5.072   0.422
 4754TIP3    H114268   3.631   5.054   0.512
 4754TIP3    H214269   3.645   5.167   0.412
 4755TIP3   OH214270   0.098   4.589   0.260
 4755TIP3    H114271   0.049   4.507   0.270
 4755TIP3    H214272   0.030   4.656   0.246
 4756TIP3   OH214273   2.509   4.725   3.439
 4756TIP3    H114274   2.532   4.663   3.370
 4756TIP3    H214275   2.425   4.762   3.412
 4757TIP3   OH214276   2.174   0.705   2.229
 4757TIP3    H114277   2.087   0.736   2.202
 4757TIP3    H214278   2.235   0.771   2.195
 4758TIP3   OH214279   4.069   3.334   3.349
 4758TIP3    H114280   3.982   3.321   3.311
 4758TIP3    H214281   4.053   3.378   3.432
 4759TIP3   OH214282   0.680   3.834   4.545
 4759TIP3    H114283   0.717   3.747   4.561
 4759TIP3    H214284   0.626   3.823   4.467
 4760TIP3   OH214285   0.261   3.543   0.713
 4760TIP3    H114286   0.234   3.548   0.621
 4760TIP3    H214287   0.319   3.466   0.717
 4761TIP3   OH214288   5.211   4.819   4.784
 4761TIP3    H114289   5.233   4.751   4.847
 4761TIP3    H214290   5.282   4.817   4.720
 4762TIP3   OH214291   3.293   0.871   3.404
 4762TIP3    H114292   3.306   0.818   3.325
 4762TIP3    H214293   3.219   0.928   3.382
 4763TIP3   OH214294   5.971   5.896   1.082
 4763TIP3    H114295   5.934   5.890   0.995
 4763TIP3    H214296   5.896   5.900   1.141
 4764TIP3   OH214297   1.612   5.545   0.893
 4764TIP3    H114298   1.626   5.466   0.842
 4764TIP3    H214299   1.557   5.518   0.966
 4765TIP3   OH214300   4.095   0.241   0.303
 4765TIP3    H114301   4.187   0.252   0.327
 4765TIP3    H214302   4.095   0.162   0.248
 4766TIP3   OH214303   3.657   2.511   3.426
 4766TIP3    H114304   3.681   2.586   3.371
 4766TIP3    H214305   3.678   2.434   3.374
 4767TIP3   OH214306   2.001   4.324   2.905
 4767TIP3    H114307   1.913   4.351   2.880
 4767TIP3    H214308   1.991   4.291   2.994
 4768TIP3   OH214309   1.031   1.572   0.656
 4768TIP3    H114310   1.024   1.584   0.562
 4768TIP3    H214311   1.065   1.656   0.689
 4769TIP3   OH214312   2.384   0.056   4.590
 4769TIP3    H114313   2.462   0.050   4.645
 4769TIP3    H214314   2.314   0.020   4.644
 4770TIP3   OH214315   4.519   5.937   1.595
 4770TIP3    H114316   4.607   5.930   1.633
 4770TIP3    H214317   4.492   6.027   1.612
 4771TIP3   OH214318   4.297   2.215   0.304
 4771TIP3    H114319   4.333   2.265   0.231
 4771TIP3    H214320   4.223   2.268   0.334
 4772TIP3   OH214321   6.225   5.853   3.345
 4772TIP3    H114322   6.196   5.833   3.433
 4772TIP3    H214323   6.168   5.925   3.316
 4773TIP3   OH214324   4.473   0.792   2.005
 4773TIP3    H114325   4.406   0.770   1.939
 4773TIP3    H214326   4.454   0.884   2.027
 4774TIP3   OH214327   3.387   3.574   2.637
 4774TIP3    H114328   3.423   3.579   2.548
 4774TIP3    H214329   3.306   3.625   2.634
 4775TIP3   OH214330   0.868   4.088   1.089
 4775TIP3    H114331   0.851   4.182   1.092
 4775TIP3    H214332   0.888   4.071   0.997
 4776TIP3   OH214333   4.119   1.396   1.708
 4776TIP3    H114334   4.127   1.331   1.638
 4776TIP3    H214335   4.034   1.378   1.748
 4777TIP3   OH214336   5.872   5.489   2.970
 4777TIP3    H114337   5.903   5.548   2.901
 4777TIP3    H214338   5.791   5.451   2.935
 4778TIP3   OH214339   4.947   2.265   4.033
 4778TIP3    H114340   4.894   2.310   4.099
 4778TIP3    H214341   4.883   2.220   3.977
 4779TIP3   OH214342   3.628   2.847   2.214
 4779TIP3    H114343   3.720   2.823   2.220
 4779TIP3    H214344   3.616   2.874   2.123
 4780TIP3   OH214345   2.281   5.299   3.536
 4780TIP3    H114346   2.361   5.246   3.534
 4780TIP3    H214347   2.310   5.388   3.515
 4781TIP3   OH214348   0.010   4.923   3.608
 4781TIP3    H114349   0.101   4.894   3.616
 4781TIP3    H214350  -0.012   4.905   3.516
 4782TIP3   OH214351   1.808   2.825   0.433
 4782TIP3    H114352   1.889   2.777   0.422
 4782TIP3    H214353   1.814   2.897   0.370
 4783TIP3   OH214354   2.159   4.712   0.459
 4783TIP3    H114355   2.143   4.786   0.519
 4783TIP3    H214356   2.141   4.748   0.372
 4784TIP3   OH214357   0.365   4.755   3.863
 4784TIP3    H114358   0.408   4.824   3.915
 4784TIP3    H214359   0.369   4.788   3.773
 4785TIP3   OH214360   2.465   0.394   0.892
 4785TIP3    H114361   2.542   0.380   0.836
 4785TIP3    H214362   2.421   0.470   0.854
 4786TIP3   OH214363   4.572   5.613   1.113
 4786TIP3    H114364   4.660   5.576   1.109
 4786TIP3    H214365   4.563   5.663   1.032
 4787TIP3   OH214366   1.640   0.039   2.859
 4787TIP3    H114367   1.698  -0.037   2.867
 4787TIP3    H214368   1.552   0.004   2.876
 4788TIP3   OH214369   4.958   0.745   2.460
 4788TIP3    H114370   4.945   0.701   2.544
 4788TIP3    H214371   5.046   0.721   2.434
 4789TIP3   OH214372   3.510   4.514   1.337
 4789TIP3    H114373   3.548   4.556   1.260
 4789TIP3    H214374   3.433   4.468   1.304
 4790TIP3   OH214375   3.601   1.326   1.052
 4790TIP3    H114376   3.544   1.353   0.980
 4790TIP3    H214377   3.562   1.244   1.084
 4791TIP3   OH214378   1.096   4.215   0.344
 4791TIP3    H114379   1.030   4.270   0.302
 4791TIP3    H214380   1.164   4.204   0.277
 4792TIP3   OH214381   2.196   4.588   0.133
 4792TIP3    H114382   2.106   4.613   0.152
 4792TIP3    H214383   2.207   4.503   0.175
 4793TIP3   OH214384   1.880   4.713   1.589
 4793TIP3    H114385   1.849   4.633   1.633
 4793TIP3    H214386   1.866   4.782   1.654
 4794TIP3   OH214387   5.835   4.370   3.323
 4794TIP3    H114388   5.924   4.341   3.344
 4794TIP3    H214389   5.842   4.465   3.316
 4795TIP3   OH214390   4.200   2.500   0.611
 4795TIP3    H114391   4.154   2.583   0.603
 4795TIP3    H214392   4.161   2.443   0.545
 4796TIP3   OH214393   4.756   0.146   1.189
 4796TIP3    H114394   4.806   0.064   1.188
 4796TIP3    H214395   4.816   0.211   1.225
 4797TIP3   OH214396   2.699   4.929   3.848
 4797TIP3    H114397   2.636   4.939   3.777
 4797TIP3    H214398   2.760   5.002   3.837
 4798TIP3   OH214399   2.552   3.789   0.689
 4798TIP3    H114400   2.534   3.702   0.653
 4798TIP3    H214401   2.549   3.847   0.613
 4799TIP3   OH214402   1.777   2.399   2.037
 4799TIP3    H114403   1.772   2.445   2.121
 4799TIP3    H214404   1.759   2.307   2.059
 4800TIP3   OH214405   3.229   4.533   3.863
 4800TIP3    H114406   3.315   4.535   3.821
 4800TIP3    H214407   3.183   4.608   3.826
 4801TIP3   OH214408   2.507   1.309   4.164
 4801TIP3    H114409   2.525   1.229   4.214
 4801TIP3    H214410   2.543   1.379   4.219
 4802TIP3   OH214411   5.534   4.301   0.509
 4802TIP3    H114412   5.542   4.390   0.542
 4802TIP3    H214413   5.450   4.271   0.543
 4803TIP3   OH214414   4.076   5.603   1.573
 4803TIP3    H114415   4.054   5.566   1.487
 4803TIP3    H214416   4.142   5.543   1.608
 4804TIP3   OH214417   1.680   3.750   4.031
 4804TIP3    H114418   1.773   3.726   4.034
 4804TIP3    H214419   1.661   3.760   3.938
 4805TIP3   OH214420   3.863   0.245   2.280
 4805TIP3    H114421   3.927   0.298   2.232
 4805TIP3    H214422   3.858   0.285   2.367
 4806TIP3   OH214423   1.102   1.273   3.880
 4806TIP3    H114424   1.114   1.328   3.958
 4806TIP3    H214425   1.191   1.262   3.845
 4807TIP3   OH214426   3.370   4.893   3.880
 4807TIP3    H114427   3.300   4.886   3.815
 4807TIP3    H214428   3.362   4.814   3.933
 4808TIP3   OH214429   1.121   3.018   2.230
 4808TIP3    H114430   1.108   2.966   2.151
 4808TIP3    H214431   1.181   2.965   2.283
 4809TIP3   OH214432   4.656   1.034   2.296
 4809TIP3    H114433   4.674   0.942   2.317
 4809TIP3    H214434   4.739   1.069   2.265
 4810TIP3   OH214435   4.069   2.875   4.160
 4810TIP3    H114436   4.039   2.791   4.194
 4810TIP3    H214437   4.084   2.859   4.067
 4811TIP3   OH214438   0.274   3.529   1.840
 4811TIP3    H114439   0.351   3.584   1.822
 4811TIP3    H214440   0.200   3.579   1.804
 4812TIP3   OH214441   2.621   5.925   0.893
 4812TIP3    H114442   2.615   5.844   0.944
 4812TIP3    H214443   2.710   5.926   0.859
 4813TIP3   OH214444   4.093   3.902   3.703
 4813TIP3    H114445   4.120   3.973   3.644
 4813TIP3    H214446   4.039   3.945   3.769
 4814TIP3   OH214447   4.629   2.253   3.385
 4814TIP3    H114448   4.551   2.291   3.426
 4814TIP3    H214449   4.699   2.269   3.448
 4815TIP3   OH214450   6.007   3.457   1.906
 4815TIP3    H114451   6.067   3.386   1.882
 4815TIP3    H214452   5.937   3.453   1.841
 4816TIP3   OH214453   2.013   3.158   4.173
 4816TIP3    H114454   2.033   3.113   4.090
 4816TIP3    H214455   2.087   3.136   4.230
 4817TIP3   OH214456   3.863   0.504   4.061
 4817TIP3    H114457   3.771   0.479   4.051
 4817TIP3    H214458   3.866   0.551   4.144
 4818TIP3   OH214459   1.390   0.337   1.559
 4818TIP3    H114460   1.461   0.296   1.609
 4818TIP3    H214461   1.310   0.308   1.603
 4819TIP3   OH214462   2.430   2.218   4.091
 4819TIP3    H114463   2.516   2.215   4.133
 4819TIP3    H214464   2.435   2.153   4.021
 4820TIP3   OH214465   0.441   2.518   3.719
 4820TIP3    H114466   0.372   2.575   3.686
 4820TIP3    H214467   0.397   2.460   3.782
 4821TIP3   OH214468   2.588   5.964   3.078
 4821TIP3    H114469   2.527   5.901   3.040
 4821TIP3    H214470   2.638   5.997   3.004
 4822TIP3   OH214471   5.272   0.601   0.374
 4822TIP3    H114472   5.313   0.515   0.368
 4822TIP3    H214473   5.198   0.588   0.432
 4823TIP3   OH214474   2.586   4.670   4.739
 4823TIP3    H114475   2.634   4.647   4.818
 4823TIP3    H214476   2.579   4.588   4.690
 4824TIP3   OH214477   0.689   2.847   0.387
 4824TIP3    H114478   0.652   2.855   0.299
 4824TIP3    H214479   0.732   2.931   0.403
 4825TIP3   OH214480   0.179   4.041   0.920
 4825TIP3    H114481   0.111   4.035   0.987
 4825TIP3    H214482   0.261   4.023   0.966
 4826TIP3   OH214483   4.601   3.351   1.765
 4826TIP3    H114484   4.622   3.386   1.678
 4826TIP3    H214485   4.667   3.283   1.780
 4827TIP3   OH214486   0.962   1.267   3.357
 4827TIP3    H114487   1.005   1.265   3.271
 4827TIP3    H214488   1.022   1.220   3.415
 4828TIP3   OH214489   5.441   5.859   4.261
 4828TIP3    H114490   5.478   5.933   4.213
 4828TIP3    H214491   5.506   5.839   4.329
 4829TIP3   OH214492   3.702   3.623   0.765
 4829TIP3    H114493   3.791   3.591   0.777
 4829TIP3    H214494   3.647   3.544   0.773
 4830TIP3   OH214495   3.152   3.561   0.705
 4830TIP3    H114496   3.134   3.508   0.628
 4830TIP3    H214497   3.120   3.508   0.778
 4831TIP3   OH214498   5.594   3.971   4.562
 4831TIP3    H114499   5.617   3.902   4.501
 4831TIP3    H214500   5.677   4.000   4.599
 4832TIP3   OH214501   4.046   3.890   1.617
 4832TIP3    H114502   4.051   3.852   1.704
 4832TIP3    H214503   4.093   3.829   1.561
 4833TIP3   OH214504   5.926   1.169   0.221
 4833TIP3    H114505   5.839   1.129   0.227
 4833TIP3    H214506   5.925   1.237   0.289
 4834TIP3   OH214507   3.246   4.485   5.101
 4834TIP3    H114508   3.213   4.444   5.181
 4834TIP3    H214509   3.331   4.520   5.126
 4835TIP3   OH214510   2.373   1.720   1.837
 4835TIP3    H114511   2.436   1.687   1.901
 4835TIP3    H214512   2.412   1.699   1.752
 4836TIP3   OH214513   0.535   4.957   0.368
 4836TIP3    H114514   0.610   4.992   0.416
 4836TIP3    H214515   0.477   5.033   0.355
 4837TIP3   OH214516   4.833   0.530   2.675
 4837TIP3    H114517   4.822   0.624   2.688
 4837TIP3    H214518   4.816   0.492   2.761
 4838TIP3   OH214519   0.866   2.381   3.458
 4838TIP3    H114520   0.841   2.459   3.508
 4838TIP3    H214521   0.945   2.350   3.501
 4839TIP3   OH214522   5.728   5.331   5.148
 4839TIP3    H114523   5.734   5.405   5.208
 4839TIP3    H214524   5.642   5.339   5.107
 4840TIP3   OH214525   2.864   3.105   1.899
 4840TIP3    H114526   2.958   3.108   1.881
 4840TIP3    H214527   2.829   3.186   1.862
 4841TIP3   OH214528   1.524   4.662   2.545
 4841TIP3    H114529   1.518   4.757   2.548
 4841TIP3    H214530   1.481   4.632   2.626
 4842TIP3   OH214531   4.367   0.135   1.089
 4842TIP3    H114532   4.447   0.156   1.040
 4842TIP3    H214533   4.324   0.068   1.036
 4843TIP3   OH214534   4.324   2.628   2.981
 4843TIP3    H114535   4.360   2.630   3.070
 4843TIP3    H214536   4.310   2.535   2.964
 4844TIP3   OH214537   3.429   5.923   1.750
 4844TIP3    H114538   3.481   5.995   1.787
 4844TIP3    H214539   3.495   5.862   1.715
 4845TIP3   OH214540   1.791   4.707   3.643
 4845TIP3    H114541   1.821   4.769   3.710
 4845TIP3    H214542   1.773   4.762   3.566
 4846TIP3   OH214543   5.180  -0.018   0.186
 4846TIP3    H114544   5.190   0.050   0.120
 4846TIP3    H214545   5.228   0.014   0.262
 4847TIP3   OH214546   2.074   2.223   4.707
 4847TIP3    H114547   2.057   2.161   4.778
 4847TIP3    H214548   2.058   2.173   4.627
 4848TIP3   OH214549   4.822   0.958   4.977
 4848TIP3    H114550   4.815   0.863   4.973
 4848TIP3    H214551   4.731   0.988   4.987
 4849TIP3   OH214552   3.009   5.343   2.827
 4849TIP3    H114553   2.938   5.354   2.764
 4849TIP3    H214554   3.009   5.425   2.877
 4850TIP3   OH214555   1.124   4.595   2.301
 4850TIP3    H114556   1.090   4.665   2.244
 4850TIP3    H214557   1.078   4.516   2.270
 4851TIP3   OH214558   1.800   2.270   3.219
 4851TIP3    H114559   1.733   2.338   3.216
 4851TIP3    H214560   1.854   2.292   3.295
 4852TIP3   OH214561   0.001   3.069   1.483
 4852TIP3    H114562   0.046   3.140   1.529
 4852TIP3    H214563   0.069   3.030   1.427
 4853TIP3   OH214564   5.705   0.718   5.130
 4853TIP3    H114565   5.782   0.664   5.143
 4853TIP3    H214566   5.636   0.674   5.180
 4854TIP3   OH214567   4.528   5.389   2.850
 4854TIP3    H114568   4.448   5.341   2.870
 4854TIP3    H214569   4.548   5.437   2.930
 4855TIP3   OH214570   3.695   0.047   2.633
 4855TIP3    H114571   3.621   0.028   2.690
 4855TIP3    H214572   3.725   0.134   2.660
 4856TIP3   OH214573   4.122   1.838   2.623
 4856TIP3    H114574   4.104   1.809   2.533
 4856TIP3    H214575   4.063   1.912   2.636
 4857TIP3   OH214576   5.352   0.484   2.596
 4857TIP3    H114577   5.397   0.413   2.548
 4857TIP3    H214578   5.266   0.447   2.617
 4858TIP3   OH214579   6.197   4.057   4.618
 4858TIP3    H114580   6.181   4.047   4.712
 4858TIP3    H214581   6.292   4.073   4.611
 4859TIP3   OH214582   2.890   0.381   2.507
 4859TIP3    H114583   2.828   0.411   2.440
 4859TIP3    H214584   2.872   0.288   2.517
 4860TIP3   OH214585   5.569   4.736   2.916
 4860TIP3    H114586   5.636   4.804   2.919
 4860TIP3    H214587   5.504   4.763   2.981
 4861TIP3   OH214588   2.593   1.206   0.586
 4861TIP3    H114589   2.536   1.132   0.606
 4861TIP3    H214590   2.534   1.275   0.556
 4862TIP3   OH214591   6.266   0.133   2.891
 4862TIP3    H114592   6.340   0.184   2.922
 4862TIP3    H214593   6.196   0.197   2.878
 4863TIP3   OH214594   5.737   4.744   2.310
 4863TIP3    H114595   5.745   4.750   2.215
 4863TIP3    H214596   5.654   4.788   2.329
 4864TIP3   OH214597   4.141   3.940   4.881
 4864TIP3    H114598   4.220   3.912   4.835
 4864TIP3    H214599   4.131   4.033   4.858
 4865TIP3   OH214600   3.639   1.499   4.817
 4865TIP3    H114601   3.710   1.551   4.855
 4865TIP3    H214602   3.675   1.467   4.734
 4866TIP3   OH214603  -0.022   3.234   2.983
 4866TIP3    H114604   0.028   3.234   3.064
 4866TIP3    H214605   0.015   3.163   2.932
 4867TIP3   OH214606   0.835   1.045   0.161
 4867TIP3    H114607   0.807   1.055   0.070
 4867TIP3    H214608   0.908   0.984   0.158
 4868TIP3   OH214609   4.327   0.641   3.552
 4868TIP3    H114610   4.319   0.719   3.498
 4868TIP3    H214611   4.368   0.671   3.633
 4869TIP3   OH214612   5.934   0.602   2.024
 4869TIP3    H114613   5.936   0.516   2.065
 4869TIP3    H214614   5.915   0.663   2.096
 4870TIP3   OH214615   0.916   5.620   1.926
 4870TIP3    H114616   0.938   5.565   1.850
 4870TIP3    H214617   0.858   5.566   1.978
 4871TIP3   OH214618   4.894   1.706   0.141
 4871TIP3    H114619   4.847   1.640   0.091
 4871TIP3    H214620   4.831   1.777   0.152
 4872TIP3   OH214621   0.161   1.987   0.726
 4872TIP3    H114622   0.166   1.945   0.812
 4872TIP3    H214623   0.223   1.937   0.671
 4873TIP3   OH214624   4.462   4.917   1.747
 4873TIP3    H114625   4.522   4.902   1.673
 4873TIP3    H214626   4.469   5.011   1.765
 4874TIP3   OH214627   5.556   2.606   0.851
 4874TIP3    H114628   5.502   2.684   0.847
 4874TIP3    H214629   5.602   2.613   0.935
 4875TIP3   OH214630   4.171   3.089   4.622
 4875TIP3    H114631   4.118   3.022   4.578
 4875TIP3    H214632   4.136   3.172   4.589
 4876TIP3   OH214633   1.896   1.069   2.693
 4876TIP3    H114634   1.854   0.990   2.659
 4876TIP3    H214635   1.874   1.070   2.786
 4877TIP3   OH214636   3.259   0.460   2.764
 4877TIP3    H114637   3.174   0.498   2.741
 4877TIP3    H214638   3.239   0.395   2.831
 4878TIP3   OH214639   3.138   0.562   0.150
 4878TIP3    H114640   3.133   0.467   0.137
 4878TIP3    H214641   3.076   0.597   0.086
 4879TIP3   OH214642   3.829   4.477   0.238
 4879TIP3    H114643   3.860   4.514   0.321
 4879TIP3    H214644   3.851   4.542   0.172
 4880TIP3   OH214645   4.892   1.225   2.828
 4880TIP3    H114646   4.946   1.292   2.787
 4880TIP3    H214647   4.930   1.215   2.916
 4881TIP3   OH214648   2.047   4.825   3.059
 4881TIP3    H114649   2.049   4.820   3.154
 4881TIP3    H214650   2.090   4.745   3.029
 4882TIP3   OH214651   4.371   1.281   0.976
 4882TIP3    H114652   4.323   1.355   0.937
 4882TIP3    H214653   4.329   1.203   0.939
 4883TIP3   OH214654   0.506   4.080   3.723
 4883TIP3    H114655   0.450   4.005   3.741
 4883TIP3    H214656   0.456   4.134   3.662
 4884TIP3   OH214657   0.907   5.434   2.849
 4884TIP3    H114658   0.815   5.420   2.827
 4884TIP3    H214659   0.952   5.432   2.765
 4885TIP3   OH214660   3.282   3.393   2.325
 4885TIP3    H114661   3.205   3.416   2.272
 4885TIP3    H214662   3.313   3.310   2.287
 4886TIP3   OH214663   3.338   3.025   4.105
 4886TIP3    H114664   3.356   2.942   4.149
 4886TIP3    H214665   3.399   3.087   4.145
 4887TIP3   OH214666   3.177   2.068   3.386
 4887TIP3    H114667   3.238   2.115   3.329
 4887TIP3    H214668   3.194   1.975   3.369
 4888TIP3   OH214669   5.314   3.390   3.457
 4888TIP3    H114670   5.270   3.318   3.501
 4888TIP3    H214671   5.244   3.440   3.416
 4889TIP3   OH214672   5.227   1.125   3.292
 4889TIP3    H114673   5.276   1.042   3.288
 4889TIP3    H214674   5.284   1.184   3.341
 4890TIP3   OH214675   5.195   3.100   0.230
 4890TIP3    H114676   5.276   3.062   0.262
 4890TIP3    H214677   5.158   3.145   0.306
 4891TIP3   OH214678   4.228   1.941   2.060
 4891TIP3    H114679   4.297   1.882   2.029
 4891TIP3    H214680   4.275   2.008   2.110
 4892TIP3   OH214681   2.400   1.802   1.041
 4892TIP3    H114682   2.440   1.797   0.954
 4892TIP3    H214683   2.336   1.731   1.042
 4893TIP3   OH214684   0.892   4.397   0.353
 4893TIP3    H114685   0.856   4.331   0.412
 4893TIP3    H214686   0.903   4.475   0.408
 4894TIP3   OH214687   1.607   4.636   4.003
 4894TIP3    H114688   1.618   4.729   3.985
 4894TIP3    H214689   1.667   4.593   3.943
 4895TIP3   OH214690   1.646   1.914   1.815
 4895TIP3    H114691   1.740   1.906   1.797
 4895TIP3    H214692   1.628   2.007   1.803
 4896TIP3   OH214693   2.414   2.464   1.367
 4896TIP3    H114694   2.375   2.518   1.298
 4896TIP3    H214695   2.341   2.412   1.401
 4897TIP3   OH214696   5.856   2.757   3.021
 4897TIP3    H114697   5.797   2.816   3.070
 4897TIP3    H214698   5.797   2.699   2.973
 4898TIP3   OH214699   3.084   4.923   3.826
 4898TIP3    H114700   3.011   4.979   3.852
 4898TIP3    H214701   3.084   4.925   3.731
 4899TIP3   OH214702   3.839   3.284   3.922
 4899TIP3    H114703   3.853   3.213   3.860
 4899TIP3    H214704   3.914   3.342   3.910
 4900TIP3   OH214705   0.291   0.219   3.548
 4900TIP3    H114706   0.382   0.226   3.519
 4900TIP3    H214707   0.253   0.305   3.531
 4901TIP3   OH214708   6.177   5.765   1.006
 4901TIP3    H114709   6.237   5.751   1.078
 4901TIP3    H214710   6.096   5.796   1.047
 4902TIP3   OH214711   3.068   4.730   0.742
 4902TIP3    H114712   3.014   4.686   0.808
 4902TIP3    H214713   3.073   4.821   0.771
 4903TIP3   OH214714   2.253   3.021   2.197
 4903TIP3    H114715   2.326   3.075   2.228
 4903TIP3    H214716   2.285   2.932   2.203
 4904TIP3   OH214717   4.572   1.901   2.815
 4904TIP3    H114718   4.655   1.856   2.832
 4904TIP3    H214719   4.521   1.888   2.895
 4905TIP3   OH214720   2.768   5.296   0.335
 4905TIP3    H114721   2.759   5.381   0.292
 4905TIP3    H214722   2.712   5.301   0.412
 4906TIP3   OH214723   4.026   2.335   1.019
 4906TIP3    H114724   3.968   2.341   0.944
 4906TIP3    H214725   4.032   2.425   1.052
 4907TIP3   OH214726   2.655   1.741   0.158
 4907TIP3    H114727   2.686   1.777   0.074
 4907TIP3    H214728   2.644   1.817   0.214
 4908TIP3   OH214729   5.950   4.089   2.964
 4908TIP3    H114730   5.963   4.000   2.999
 4908TIP3    H214731   6.007   4.092   2.887
 4909TIP3   OH214732   4.428   3.169   3.750
 4909TIP3    H114733   4.484   3.145   3.823
 4909TIP3    H214734   4.339   3.167   3.785
 4910TIP3   OH214735   2.354   4.344   1.217
 4910TIP3    H114736   2.379   4.430   1.184
 4910TIP3    H214737   2.364   4.285   1.142
 4911TIP3   OH214738   5.357   1.560   1.466
 4911TIP3    H114739   5.393   1.569   1.377
 4911TIP3    H214740   5.419   1.606   1.522
 4912TIP3   OH214741   1.660   3.802   0.649
 4912TIP3    H114742   1.582   3.832   0.695
 4912TIP3    H214743   1.629   3.777   0.562
 4913TIP3   OH214744   3.739   1.197   4.018
 4913TIP3    H114745   3.741   1.104   3.994
 4913TIP3    H214746   3.717   1.197   4.112
 4914TIP3   OH214747   3.515   1.848   2.809
 4914TIP3    H114748   3.572   1.794   2.753
 4914TIP3    H214749   3.426   1.829   2.777
 4915TIP3   OH214750   6.301   0.982   4.333
 4915TIP3    H114751   6.238   1.018   4.270
 4915TIP3    H214752   6.375   1.042   4.330
 4916TIP3   OH214753   1.944   5.115   5.214
 4916TIP3    H114754   1.951   5.024   5.242
 4916TIP3    H214755   1.889   5.112   5.136
 4917TIP3   OH214756   1.833   3.452   1.607
 4917TIP3    H114757   1.737   3.453   1.601
 4917TIP3    H214758   1.853   3.368   1.650
 4918TIP3   OH214759   5.463   2.539   4.112
 4918TIP3    H114760   5.495   2.454   4.082
 4918TIP3    H214761   5.424   2.579   4.034
 4919TIP3   OH214762   3.413   3.524   1.482
 4919TIP3    H114763   3.342   3.460   1.490
 4919TIP3    H214764   3.426   3.556   1.571
 4920TIP3   OH214765   2.700   2.644   0.494
 4920TIP3    H114766   2.663   2.713   0.550
 4920TIP3    H214767   2.795   2.657   0.498
 4921TIP3   OH214768   2.554   2.485   1.806
 4921TIP3    H114769   2.562   2.392   1.824
 4921TIP3    H214770   2.598   2.497   1.722
 4922TIP3   OH214771   1.361   5.592   1.059
 4922TIP3    H114772   1.280   5.608   1.108
 4922TIP3    H214773   1.431   5.616   1.120
 4923TIP3   OH214774   4.867   0.655   4.112
 4923TIP3    H114775   4.803   0.694   4.171
 4923TIP3    H214776   4.910   0.588   4.165
 4924TIP3   OH214777   3.276   1.906   3.682
 4924TIP3    H114778   3.265   1.998   3.704
 4924TIP3    H214779   3.218   1.860   3.743
 4925TIP3   OH214780   0.095   0.556   1.087
 4925TIP3    H114781   0.008   0.517   1.093
 4925TIP3    H214782   0.154   0.484   1.110
 4926TIP3   OH214783   2.364   4.350   4.799
 4926TIP3    H114784   2.275   4.386   4.792
 4926TIP3    H214785   2.390   4.369   4.889
 4927TIP3   OH214786   5.246   4.596   4.093
 4927TIP3    H114787   5.248   4.625   4.185
 4927TIP3    H214788   5.284   4.508   4.096
 4928TIP3   OH214789   3.587   3.583   3.999
 4928TIP3    H114790   3.530   3.656   4.021
 4928TIP3    H214791   3.578   3.572   3.905
 4929TIP3   OH214792   0.169   2.093   3.918
 4929TIP3    H114793   0.261   2.120   3.908
 4929TIP3    H214794   0.123   2.174   3.941
 4930TIP3   OH214795   3.559   4.974   1.896
 4930TIP3    H114796   3.490   5.029   1.932
 4930TIP3    H214797   3.527   4.950   1.809
 4931TIP3   OH214798   2.150   0.374   3.290
 4931TIP3    H114799   2.073   0.408   3.335
 4931TIP3    H214800   2.209   0.449   3.283
 4932TIP3   OH214801   3.191   5.717   2.733
 4932TIP3    H114802   3.127   5.674   2.790
 4932TIP3    H214803   3.243   5.771   2.792
 4933TIP3   OH214804   5.296   3.287   3.088
 4933TIP3    H114805   5.235   3.263   3.158
 4933TIP3    H214806   5.367   3.333   3.132
 4934TIP3   OH214807   1.830   5.839   0.051
 4934TIP3    H114808   1.787   5.761   0.085
 4934TIP3    H214809   1.845   5.820  -0.042
 4935TIP3   OH214810   3.972   5.881   3.347
 4935TIP3    H114811   4.012   5.931   3.276
 4935TIP3    H214812   3.885   5.919   3.357
 4936TIP3   OH214813   4.627   4.561   5.069
 4936TIP3    H114814   4.662   4.473   5.083
 4936TIP3    H214815   4.566   4.574   5.143
 4937TIP3   OH214816   1.426   3.635   4.531
 4937TIP3    H114817   1.467   3.582   4.462
 4937TIP3    H214818   1.333   3.633   4.510
 4938TIP3   OH214819   1.429   1.178   4.268
 4938TIP3    H114820   1.358   1.117   4.247
 4938TIP3    H214821   1.436   1.176   4.363
 4939TIP3   OH214822   5.230   3.872   3.627
 4939TIP3    H114823   5.220   3.801   3.563
 4939TIP3    H214824   5.141   3.900   3.645
 4940TIP3   OH214825   5.726   2.657   0.426
 4940TIP3    H114826   5.751   2.565   0.430
 4940TIP3    H214827   5.789   2.696   0.366
 4941TIP3   OH214828   0.375   5.451   1.746
 4941TIP3    H114829   0.410   5.540   1.752
 4941TIP3    H214830   0.449   5.395   1.772
 4942TIP3   OH214831   0.886   5.034   2.691
 4942TIP3    H114832   0.834   5.110   2.717
 4942TIP3    H214833   0.895   4.983   2.771
 4943TIP3   OH214834   4.971   3.615   4.781
 4943TIP3    H114835   5.046   3.674   4.787
 4943TIP3    H214836   4.997   3.548   4.718
 4944TIP3   OH214837   3.106   2.867   0.962
 4944TIP3    H114838   3.181   2.861   1.022
 4944TIP3    H214839   3.074   2.957   0.973
 4945TIP3   OH214840   5.838   4.342   2.915
 4945TIP3    H114841   5.838   4.246   2.918
 4945TIP3    H214842   5.829   4.369   3.006
 4946TIP3   OH214843   3.414   0.736   5.008
 4946TIP3    H114844   3.325   0.716   4.979
 4946TIP3    H214845   3.403   0.806   5.072
 4947TIP3   OH214846   3.498   5.776   1.319
 4947TIP3    H114847   3.593   5.786   1.316
 4947TIP3    H214848   3.467   5.818   1.239
 4948TIP3   OH214849   0.319   5.165   4.211
 4948TIP3    H114850   0.273   5.143   4.130
 4948TIP3    H214851   0.320   5.261   4.212
 4949TIP3   OH214852   3.303   5.507   0.251
 4949TIP3    H114853   3.216   5.485   0.216
 4949TIP3    H214854   3.361   5.439   0.217
 4950TIP3   OH214855   4.397   1.119   2.854
 4950TIP3    H114856   4.432   1.173   2.782
 4950TIP3    H214857   4.474   1.085   2.898
 4951TIP3   OH214858   2.377   1.969   3.086
 4951TIP3    H114859   2.294   1.970   3.134
 4951TIP3    H214860   2.356   1.930   3.002
 4952TIP3   OH214861   4.483   1.319   4.432
 4952TIP3    H114862   4.530   1.365   4.362
 4952TIP3    H214863   4.432   1.252   4.386
 4953TIP3   OH214864   1.531   0.668   1.639
 4953TIP3    H114865   1.545   0.585   1.685
 4953TIP3    H214866   1.520   0.732   1.710
 4954TIP3   OH214867   5.707   0.475   3.366
 4954TIP3    H114868   5.641   0.439   3.307
 4954TIP3    H214869   5.789   0.467   3.318
 4955TIP3   OH214870   0.257   1.314   5.011
 4955TIP3    H114871   0.347   1.287   4.993
 4955TIP3    H214872   0.255   1.326   5.106
 4956TIP3   OH214873   5.974   3.146   3.767
 4956TIP3    H114874   6.045   3.174   3.709
 4956TIP3    H214875   6.015   3.140   3.854
 4957TIP3   OH214876   0.096   0.399   2.284
 4957TIP3    H114877   0.053   0.413   2.368
 4957TIP3    H214878   0.099   0.304   2.274
 4958TIP3   OH214879   4.975   4.629   3.141
 4958TIP3    H114880   5.020   4.566   3.197
 4958TIP3    H214881   4.902   4.581   3.104
 4959TIP3   OH214882   2.842   4.589   2.353
 4959TIP3    H114883   2.769   4.614   2.410
 4959TIP3    H214884   2.802   4.537   2.284
 4960TIP3   OH214885   2.829   3.300   5.109
 4960TIP3    H114886   2.879   3.247   5.171
 4960TIP3    H214887   2.883   3.378   5.095
 4961TIP3   OH214888   0.202   3.431   4.615
 4961TIP3    H114889   0.174   3.448   4.705
 4961TIP3    H214890   0.289   3.470   4.609
 4962TIP3   OH214891   5.934   4.142   2.434
 4962TIP3    H114892   6.012   4.177   2.478
 4962TIP3    H214893   5.899   4.217   2.386
 4963TIP3   OH214894   4.541   4.699   3.128
 4963TIP3    H114895   4.616   4.744   3.089
 4963TIP3    H214896   4.465   4.734   3.081
 4964TIP3   OH214897   1.085   3.956   1.849
 4964TIP3    H114898   1.029   3.898   1.798
 4964TIP3    H214899   1.031   4.034   1.864
 4965TIP3   OH214900   6.190   2.320   0.219
 4965TIP3    H114901   6.225   2.239   0.184
 4965TIP3    H214902   6.144   2.361   0.145
 4966TIP3   OH214903   0.287   4.885   1.826
 4966TIP3    H114904   0.374   4.916   1.800
 4966TIP3    H214905   0.301   4.794   1.853
 4967TIP3   OH214906   6.307   1.760   4.629
 4967TIP3    H114907   6.397   1.733   4.648
 4967TIP3    H214908   6.316   1.843   4.581
 4968TIP3   OH214909   1.276   5.272   2.757
 4968TIP3    H114910   1.367   5.288   2.734
 4968TIP3    H214911   1.248   5.351   2.804
 4969TIP3   OH214912   6.128   0.969   1.436
 4969TIP3    H114913   6.143   0.955   1.343
 4969TIP3    H214914   6.214   0.992   1.471
 4970TIP3   OH214915   6.161   4.373   1.922
 4970TIP3    H114916   6.210   4.426   1.860
 4970TIP3    H214917   6.094   4.329   1.869
 4971TIP3   OH214918   5.975   4.650   1.028
 4971TIP3    H114919   5.969   4.557   1.048
 4971TIP3    H214920   6.066   4.673   1.049
 4972TIP3   OH214921   0.109   0.046   1.840
 4972TIP3    H114922   0.198   0.070   1.816
 4972TIP3    H214923   0.054   0.083   1.771
 4973TIP3   OH214924   5.571   2.672   5.003
 4973TIP3    H114925   5.563   2.766   5.022
 4973TIP3    H214926   5.586   2.632   5.089
 4974TIP3   OH214927   0.497   1.263   0.629
 4974TIP3    H114928   0.426   1.245   0.568
 4974TIP3    H214929   0.515   1.180   0.672
 4975TIP3   OH214930   3.017   4.775   4.293
 4975TIP3    H114931   3.014   4.679   4.296
 4975TIP3    H214932   3.111   4.795   4.295
 4976TIP3   OH214933   0.957   3.067   3.089
 4976TIP3    H114934   0.866   3.068   3.062
 4976TIP3    H214935   1.004   3.113   3.020
 4977TIP3   OH214936   2.669   5.060   2.655
 4977TIP3    H114937   2.698   5.055   2.746
 4977TIP3    H214938   2.731   5.005   2.607
 4978TIP3   OH214939   0.186   0.788   1.391
 4978TIP3    H114940   0.191   0.795   1.486
 4978TIP3    H214941   0.096   0.759   1.374
 4979TIP3   OH214942   5.263   0.228   1.151
 4979TIP3    H114943   5.171   0.256   1.142
 4979TIP3    H214944   5.286   0.195   1.065
 4980TIP3   OH214945   2.121   5.948   0.929
 4980TIP3    H114946   2.174   5.882   0.883
 4980TIP3    H214947   2.067   5.987   0.860
 4981TIP3   OH214948   5.917   4.705   4.011
 4981TIP3    H114949   5.841   4.654   3.983
 4981TIP3    H214950   5.954   4.739   3.930
 4982TIP3   OH214951   4.324   4.125   1.569
 4982TIP3    H114952   4.292   4.173   1.645
 4982TIP3    H214953   4.287   4.172   1.494
 4983TIP3   OH214954   1.277   1.736   3.300
 4983TIP3    H114955   1.214   1.803   3.275
 4983TIP3    H214956   1.362   1.772   3.273
 4984TIP3   OH214957   3.773   3.947   4.851
 4984TIP3    H114958   3.818   4.015   4.800
 4984TIP3    H214959   3.726   3.895   4.786
 4985TIP3   OH214960   1.384   3.944   2.933
 4985TIP3    H114961   1.469   3.911   2.904
 4985TIP3    H214962   1.333   3.953   2.853
 4986TIP3   OH214963   1.905   3.784   0.335
 4986TIP3    H114964   1.824   3.831   0.353
 4986TIP3    H214965   1.879   3.711   0.279
 4987TIP3   OH214966   4.981   1.453   1.384
 4987TIP3    H114967   4.997   1.371   1.336
 4987TIP3    H214968   4.970   1.519   1.316
 4988TIP3   OH214969   0.394   2.535   4.203
 4988TIP3    H114970   0.319   2.563   4.151
 4988TIP3    H214971   0.359   2.465   4.259
 4989TIP3   OH214972   0.494   3.417   1.623
 4989TIP3    H114973   0.488   3.331   1.664
 4989TIP3    H214974   0.477   3.479   1.694
 4990TIP3   OH214975   0.713   0.176   5.117
 4990TIP3    H114976   0.686   0.163   5.208
 4990TIP3    H214977   0.656   0.246   5.085
 4991TIP3   OH214978   2.646   3.490   3.326
 4991TIP3    H114979   2.653   3.586   3.326
 4991TIP3    H214980   2.640   3.468   3.233
 4992TIP3   OH214981   1.372   4.266   4.486
 4992TIP3    H114982   1.458   4.305   4.474
 4992TIP3    H214983   1.311   4.334   4.456
 4993TIP3   OH214984   0.436   4.691   0.404
 4993TIP3    H114985   0.510   4.658   0.455
 4993TIP3    H214986   0.392   4.752   0.464
 4994TIP3   OH214987   4.149   2.552   5.020
 4994TIP3    H114988   4.067   2.503   5.009
 4994TIP3    H214989   4.210   2.512   4.958
 4995TIP3   OH214990   1.867   3.729   1.209
 4995TIP3    H114991   1.883   3.722   1.303
 4995TIP3    H214992   1.876   3.639   1.176
 4996TIP3   OH214993   0.518   2.258   2.449
 4996TIP3    H114994   0.549   2.209   2.525
 4996TIP3    H214995   0.482   2.339   2.485
 4997TIP3   OH214996   2.151   0.648   2.813
 4997TIP3    H114997   2.089   0.705   2.857
 4997TIP3    H214998   2.166   0.576   2.873
 4998TIP3   OH214999   2.907   0.727   2.839
 4998TIP3    H115000   2.899   0.668   2.914
 4998TIP3    H215001   2.925   0.670   2.765
 4999TIP3   OH215002   5.904   0.117   3.141
 4999TIP3    H115003   5.924   0.025   3.122
 4999TIP3    H215004   5.912   0.124   3.236
 5000TIP3   OH215005   0.426   5.356   5.051
 5000TIP3    H115006   0.346   5.312   5.024
 5000TIP3    H215007   0.419   5.444   5.013
 5001TIP3   OH215008   5.168   0.764   0.750
 5001TIP3    H115009   5.122   0.741   0.830
 5001TIP3    H215010   5.128   0.710   0.682
 5002TIP3   OH215011   1.369   5.569   1.624
 5002TIP3    H115012   1.437   5.635   1.640
 5002TIP3    H215013   1.403   5.489   1.663
 5003TIP3   OH215014   3.310   5.817   0.277
 5003TIP3    H115015   3.288   5.830   0.184
 5003TIP3    H215016   3.309   5.723   0.289
 5004TIP3   OH215017   0.340   0.581   0.913
 5004TIP3    H115018   0.250   0.561   0.939
 5004TIP3    H215019   0.369   0.504   0.864
 5005TIP3   OH215020   6.182   2.169   3.779
 5005TIP3    H115021   6.089   2.185   3.765
 5005TIP3    H215022   6.189   2.074   3.789
 5006TIP3   OH215023   1.225   2.302   2.699
 5006TIP3    H115024   1.190   2.319   2.612
 5006TIP3    H215025   1.254   2.388   2.730
 5007TIP3   OH215026   5.996   3.834   2.135
 5007TIP3    H115027   5.961   3.747   2.119
 5007TIP3    H215028   6.058   3.822   2.207
 5008TIP3   OH215029   3.681   1.920   1.525
 5008TIP3    H115030   3.602   1.867   1.532
 5008TIP3    H215031   3.658   1.991   1.465
 5009TIP3   OH215032   5.295   5.527   1.246
 5009TIP3    H115033   5.350   5.458   1.208
 5009TIP3    H215034   5.298   5.598   1.183
 5010TIP3   OH215035   4.271   5.034   0.806
 5010TIP3    H115036   4.178   5.027   0.786
 5010TIP3    H215037   4.278   5.116   0.855
 5011TIP3   OH215038   4.011   3.965   5.120
 5011TIP3    H115039   4.088   3.972   5.176
 5011TIP3    H215040   4.047   3.952   5.032
 5012TIP3   OH215041   0.201   2.416   0.545
 5012TIP3    H115042   0.134   2.415   0.477
 5012TIP3    H215043   0.274   2.366   0.507
 5013TIP3   OH215044   2.453   2.166   2.869
 5013TIP3    H115045   2.406   2.240   2.907
 5013TIP3    H215046   2.425   2.090   2.920
 5014TIP3   OH215047   1.299   3.718   2.390
 5014TIP3    H115048   1.236   3.654   2.358
 5014TIP3    H215049   1.384   3.686   2.360
 5015TIP3   OH215050   3.954   4.408   2.343
 5015TIP3    H115051   3.878   4.433   2.396
 5015TIP3    H215052   3.933   4.438   2.255
 5016TIP3   OH215053   3.860   0.204   0.803
 5016TIP3    H115054   3.786   0.190   0.745
 5016TIP3    H215055   3.853   0.134   0.868
 5017TIP3   OH215056   3.682   3.031   3.580
 5017TIP3    H115057   3.713   3.016   3.490
 5017TIP3    H215058   3.600   3.079   3.570
 5018TIP3   OH215059   0.421   3.766   2.418
 5018TIP3    H115060   0.481   3.712   2.469
 5018TIP3    H215061   0.334   3.748   2.455
 5019TIP3   OH215062   1.242   3.034   3.617
 5019TIP3    H115063   1.185   3.074   3.552
 5019TIP3    H215064   1.182   2.986   3.675
 5020TIP3   OH215065   2.234   1.970   3.858
 5020TIP3    H115066   2.209   1.986   3.949
 5020TIP3    H215067   2.181   1.895   3.831
 5021TIP3   OH215068   0.235   5.785   0.233
 5021TIP3    H115069   0.165   5.738   0.187
 5021TIP3    H215070   0.288   5.824   0.163
 5022TIP3   OH215071   3.170   4.270   0.375
 5022TIP3    H115072   3.265   4.276   0.369
 5022TIP3    H215073   3.154   4.217   0.453
 5023TIP3   OH215074   2.942   4.353   4.449
 5023TIP3    H115075   2.932   4.414   4.522
 5023TIP3    H215076   2.881   4.283   4.467
 5024TIP3   OH215077   3.593   5.712   1.632
 5024TIP3    H115078   3.610   5.660   1.554
 5024TIP3    H215079   3.678   5.719   1.676
 5025TIP3   OH215080   4.031   1.160   3.117
 5025TIP3    H115081   4.082   1.123   3.045
 5025TIP3    H215082   4.007   1.247   3.086
 5026TIP3   OH215083   5.127   3.757   1.770
 5026TIP3    H115084   5.176   3.804   1.703
 5026TIP3    H215085   5.109   3.822   1.837
 5027TIP3   OH215086   2.007   3.791   0.981
 5027TIP3    H115087   1.955   3.804   0.902
 5027TIP3    H215088   1.945   3.755   1.045
 5028TIP3   OH215089   5.289   3.887   1.577
 5028TIP3    H115090   5.346   3.957   1.546
 5028TIP3    H215091   5.280   3.828   1.503
 5029TIP3   OH215092   4.152   0.048   0.089
 5029TIP3    H115093   4.087  -0.017   0.064
 5029TIP3    H215094   4.233  -0.002   0.101
 5030TIP3   OH215095   0.890   2.707   1.567
 5030TIP3    H115096   0.843   2.626   1.582
 5030TIP3    H215097   0.965   2.682   1.513
 5031TIP3   OH215098   2.931   0.341   5.067
 5031TIP3    H115099   3.001   0.277   5.055
 5031TIP3    H215100   2.957   0.390   5.145
 5032TIP3   OH215101   1.792   2.644   2.832
 5032TIP3    H115102   1.797   2.634   2.927
 5032TIP3    H215103   1.784   2.555   2.799
 5033TIP3   OH215104   2.280   2.434   4.482
 5033TIP3    H115105   2.249   2.426   4.572
 5033TIP3    H215106   2.201   2.457   4.432
 5034TIP3   OH215107   5.287   4.182   2.431
 5034TIP3    H115108   5.307   4.210   2.521
 5034TIP3    H215109   5.299   4.087   2.432
 5035TIP3   OH215110   0.388   2.862   1.532
 5035TIP3    H115111   0.358   2.817   1.453
 5035TIP3    H215112   0.481   2.880   1.516
 5036TIP3   OH215113   5.361   1.795   3.693
 5036TIP3    H115114   5.449   1.816   3.723
 5036TIP3    H215115   5.309   1.792   3.773
 5037TIP3   OH215116   3.722   5.881   2.353
 5037TIP3    H115117   3.757   5.965   2.383
 5037TIP3    H215118   3.789   5.846   2.295
 5038TIP3   OH215119   0.594   4.737   0.125
 5038TIP3    H115120   0.606   4.784   0.043
 5038TIP3    H215121   0.661   4.667   0.123
 5039TIP3   OH215122   1.113   5.961   1.527
 5039TIP3    H115123   1.195   6.007   1.509
 5039TIP3    H215124   1.104   5.899   1.455
 5040TIP3   OH215125   0.730   3.432   2.560
 5040TIP3    H115126   0.734   3.399   2.470
 5040TIP3    H215127   0.667   3.375   2.604
 5041TIP3   OH215128   4.594   2.728   0.860
 5041TIP3    H115129   4.676   2.747   0.813
 5041TIP3    H215130   4.533   2.701   0.791
 5042TIP3   OH215131   1.840   2.639   1.429
 5042TIP3    H115132   1.881   2.580   1.366
 5042TIP3    H215133   1.857   2.726   1.394
 5043TIP3   OH215134   2.796   4.820   2.566
 5043TIP3    H115135   2.855   4.848   2.497
 5043TIP3    H215136   2.743   4.751   2.525
 5044TIP3   OH215137   0.398   0.425   4.582
 5044TIP3    H115138   0.361   0.461   4.501
 5044TIP3    H215139   0.333   0.361   4.612
 5045TIP3   OH215140   4.898   4.322   3.474
 5045TIP3    H115141   4.840   4.248   3.453
 5045TIP3    H215142   4.981   4.300   3.431
 5046TIP3   OH215143   2.217   2.310   0.184
 5046TIP3    H115144   2.222   2.341   0.093
 5046TIP3    H215145   2.277   2.235   0.186
 5047TIP3   OH215146   1.381   5.615   3.689
 5047TIP3    H115147   1.465   5.609   3.735
 5047TIP3    H215148   1.401   5.656   3.606
 5048TIP3   OH215149   3.024   4.479   3.027
 5048TIP3    H115150   3.048   4.494   2.935
 5048TIP3    H215151   2.942   4.430   3.023
 5049TIP3   OH215152   0.640   0.632   5.099
 5049TIP3    H115153   0.633   0.569   5.028
 5049TIP3    H215154   0.671   0.713   5.058
 5050TIP3   OH215155   6.103   2.372   3.058
 5050TIP3    H115156   6.072   2.387   2.969
 5050TIP3    H215157   6.078   2.282   3.077
 5051TIP3   OH215158   3.470   3.991   4.530
 5051TIP3    H115159   3.547   3.937   4.549
 5051TIP3    H215160   3.398   3.945   4.574
 5052TIP3   OH215161   0.486   4.076   3.408
 5052TIP3    H115162   0.470   3.992   3.363
 5052TIP3    H215163   0.573   4.066   3.446
 5053TIP3   OH215164   2.452   0.576   2.195
 5053TIP3    H115165   2.465   0.668   2.221
 5053TIP3    H215166   2.400   0.539   2.267
 5054TIP3   OH215167   1.701   5.301   3.924
 5054TIP3    H115168   1.626   5.242   3.930
 5054TIP3    H215169   1.715   5.331   4.014
 5055TIP3   OH215170   4.626   5.075   1.540
 5055TIP3    H115171   4.577   5.080   1.458
 5055TIP3    H215172   4.697   5.014   1.522
 5056TIP3   OH215173  -0.013   4.835   2.398
 5056TIP3    H115174  -0.025   4.906   2.335
 5056TIP3    H215175   0.081   4.830   2.412
 5057TIP3   OH215176   1.346   1.402   1.697
 5057TIP3    H115177   1.348   1.316   1.738
 5057TIP3    H215178   1.334   1.464   1.770
 5058TIP3   OH215179   4.947   4.961   1.905
 5058TIP3    H115180   5.005   5.002   1.969
 5058TIP3    H215181   4.859   4.976   1.941
 5059TIP3   OH215182   2.985   3.219   3.206
 5059TIP3    H115183   2.903   3.175   3.183
 5059TIP3    H215184   2.959   3.293   3.261
 5060TIP3   OH215185   5.895   5.212   4.812
 5060TIP3    H115186   5.932   5.283   4.759
 5060TIP3    H215187   5.801   5.216   4.795
 5061TIP3   OH215188   4.285   5.109   4.952
 5061TIP3    H115189   4.250   5.025   4.925
 5061TIP3    H215190   4.260   5.169   4.882
 5062TIP3   OH215191   6.171   0.770   1.629
 5062TIP3    H115192   6.136   0.794   1.715
 5062TIP3    H215193   6.150   0.846   1.573
 5063TIP3   OH215194   3.421   1.624   3.076
 5063TIP3    H115195   3.444   1.594   2.988
 5063TIP3    H215196   3.326   1.637   3.072
 5064TIP3   OH215197   3.918   2.939   1.105
 5064TIP3    H115198   3.845   2.931   1.044
 5064TIP3    H215199   3.971   3.011   1.070
 5065TIP3   OH215200   4.559   2.046   4.030
 5065TIP3    H115201   4.558   1.953   4.008
 5065TIP3    H215202   4.644   2.077   3.999
 5066TIP3   OH215203   5.072   1.436   2.959
 5066TIP3    H115204   5.117   1.510   2.999
 5066TIP3    H215205   5.043   1.469   2.874
 5067TIP3   OH215206   2.841   3.483   2.722
 5067TIP3    H115207   2.890   3.477   2.804
 5067TIP3    H215208   2.908   3.479   2.654
 5068TIP3   OH215209   1.934   5.219   0.882
 5068TIP3    H115210   1.846   5.197   0.911
 5068TIP3    H215211   1.991   5.160   0.932
 5069TIP3   OH215212   0.910   5.756   0.907
 5069TIP3    H115213   0.948   5.844   0.905
 5069TIP3    H215214   0.838   5.760   0.843
 5070TIP3   OH215215   4.107   4.218   1.039
 5070TIP3    H115216   4.134   4.150   1.102
 5070TIP3    H215217   4.153   4.297   1.068
 5071TIP3   OH215218   0.642   1.864   4.837
 5071TIP3    H115219   0.551   1.834   4.840
 5071TIP3    H215220   0.662   1.870   4.743
 5072TIP3   OH215221   1.556   3.118   1.550
 5072TIP3    H115222   1.465   3.142   1.532
 5072TIP3    H215223   1.567   3.033   1.508
 5073TIP3   OH215224   4.771   5.715   1.437
 5073TIP3    H115225   4.752   5.727   1.530
 5073TIP3    H215226   4.699   5.660   1.405
 5074TIP3   OH215227   1.372   0.827   1.086
 5074TIP3    H115228   1.437   0.757   1.086
 5074TIP3    H215229   1.291   0.785   1.057
 5075TIP3   OH215230   5.464   5.768   0.747
 5075TIP3    H115231   5.411   5.843   0.721
 5075TIP3    H215232   5.551   5.786   0.711
 5076TIP3   OH215233   0.150   2.898   0.054
 5076TIP3    H115234   0.197   2.957  -0.005
 5076TIP3    H215235   0.200   2.816   0.052
 5077TIP3   OH215236   3.661   2.545   2.073
 5077TIP3    H115237   3.570   2.546   2.100
 5077TIP3    H215238   3.710   2.523   2.153
 5078TIP3   OH215239   1.167   0.279   1.737
 5078TIP3    H115240   1.127   0.366   1.732
 5078TIP3    H215241   1.098   0.223   1.774
 5079TIP3   OH215242   5.921   0.052   4.263
 5079TIP3    H115243   5.873   0.007   4.333
 5079TIP3    H215244   5.997   0.090   4.307
 5080TIP3   OH215245   2.441   1.588   4.438
 5080TIP3    H115246   2.392   1.507   4.430
 5080TIP3    H215247   2.533   1.562   4.434
 5081TIP3   OH215248   2.360   5.388   4.301
 5081TIP3    H115249   2.291   5.375   4.236
 5081TIP3    H215250   2.367   5.304   4.347
 5082TIP3   OH215251   0.427   2.310   0.433
 5082TIP3    H115252   0.501   2.266   0.475
 5082TIP3    H215253   0.465   2.388   0.393
 5083TIP3   OH215254   4.046   0.978   3.941
 5083TIP3    H115255   4.027   0.938   3.856
 5083TIP3    H215256   4.124   0.932   3.973
 5084TIP3   OH215257   0.034   2.473   1.077
 5084TIP3    H115258   0.041   2.384   1.045
 5084TIP3    H215259   0.120   2.493   1.113
 5085TIP3   OH215260   1.871   1.896   1.659
 5085TIP3    H115261   1.924   1.839   1.714
 5085TIP3    H215262   1.828   1.837   1.597
 5086TIP3   OH215263   4.261   1.916   4.649
 5086TIP3    H115264   4.195   1.911   4.719
 5086TIP3    H215265   4.212   1.901   4.569
 5087TIP3   OH215266   4.777   4.164   1.376
 5087TIP3    H115267   4.705   4.153   1.314
 5087TIP3    H215268   4.795   4.075   1.408
 5088TIP3   OH215269   4.029   3.147   3.620
 5088TIP3    H115270   4.032   3.238   3.593
 5088TIP3    H215271   4.103   3.136   3.680
 5089TIP3   OH215272   1.798   2.540   2.273
 5089TIP3    H115273   1.835   2.492   2.347
 5089TIP3    H215274   1.706   2.515   2.272
 5090TIP3   OH215275   5.140   3.514   3.730
 5090TIP3    H115276   5.157   3.474   3.645
 5090TIP3    H215277   5.044   3.518   3.735
 5091TIP3   OH215278   3.730   5.505   0.589
 5091TIP3    H115279   3.743   5.575   0.654
 5091TIP3    H215280   3.801   5.443   0.606
 5092TIP3   OH215281   4.788   3.205   4.361
 5092TIP3    H115282   4.745   3.270   4.416
 5092TIP3    H215283   4.719   3.175   4.301
 5093TIP3   OH215284   4.959   3.945   2.280
 5093TIP3    H115285   5.005   3.920   2.200
 5093TIP3    H215286   4.887   3.883   2.287
 5094TIP3   OH215287   2.530   3.729   2.703
 5094TIP3    H115288   2.477   3.808   2.695
 5094TIP3    H215289   2.544   3.700   2.612
 5095TIP3   OH215290   2.786   4.562   1.951
 5095TIP3    H115291   2.781   4.612   1.869
 5095TIP3    H215292   2.703   4.516   1.956
 5096TIP3   OH215293   2.894   5.651   0.494
 5096TIP3    H115294   2.885   5.647   0.399
 5096TIP3    H215295   2.849   5.732   0.518
 5097TIP3   OH215296   4.120   5.011   2.493
 5097TIP3    H115297   4.203   5.047   2.522
 5097TIP3    H215298   4.076   4.983   2.574
 5098TIP3   OH215299   0.796   1.010   2.320
 5098TIP3    H115300   0.886   1.035   2.299
 5098TIP3    H215301   0.746   1.032   2.242
 5099TIP3   OH215302   2.263   1.202   5.143
 5099TIP3    H115303   2.300   1.134   5.086
 5099TIP3    H215304   2.266   1.163   5.231
 5100TIP3   OH215305   3.094   3.439   0.961
 5100TIP3    H115306   3.020   3.479   1.007
 5100TIP3    H215307   3.163   3.432   1.027
 5101TIP3   OH215308   4.160   0.447   1.087
 5101TIP3    H115309   4.195   0.528   1.051
 5101TIP3    H215310   4.218   0.379   1.053
 5102TIP3   OH215311   0.547   4.216   0.829
 5102TIP3    H115312   0.532   4.172   0.913
 5102TIP3    H215313   0.552   4.145   0.765
 5103TIP3   OH215314   2.375   3.756   3.293
 5103TIP3    H115315   2.341   3.765   3.204
 5103TIP3    H215316   2.468   3.736   3.281
 5104TIP3   OH215317   2.501   1.453   0.990
 5104TIP3    H115318   2.564   1.476   1.059
 5104TIP3    H215319   2.418   1.442   1.037
 5105TIP3   OH215320   4.774   0.304   4.494
 5105TIP3    H115321   4.794   0.213   4.518
 5105TIP3    H215322   4.678   0.308   4.496
 5106TIP3   OH215323   4.604   0.154   0.967
 5106TIP3    H115324   4.639   0.075   0.926
 5106TIP3    H215325   4.660   0.168   1.044
 5107TIP3   OH215326   6.173   1.944   1.588
 5107TIP3    H115327   6.101   1.972   1.531
 5107TIP3    H215328   6.160   1.993   1.669
 5108TIP3   OH215329   6.160   4.800   1.409
 5108TIP3    H115330   6.222   4.857   1.364
 5108TIP3    H215331   6.102   4.860   1.456
 5109TIP3   OH215332   2.475   0.916   3.847
 5109TIP3    H115333   2.564   0.892   3.819
 5109TIP3    H215334   2.476   1.011   3.849
 5110TIP3   OH215335   4.236   4.631   0.282
 5110TIP3    H115336   4.279   4.716   0.270
 5110TIP3    H215337   4.302   4.577   0.326
 5111TIP3   OH215338   1.328   0.170   4.920
 5111TIP3    H115339   1.334   0.263   4.944
 5111TIP3    H215340   1.407   0.131   4.955
 5112TIP3   OH215341   5.562   0.766   4.638
 5112TIP3    H115342   5.479   0.781   4.593
 5112TIP3    H215343   5.553   0.679   4.678
 5113TIP3   OH215344   0.876   5.393   3.217
 5113TIP3    H115345   0.967   5.408   3.189
 5113TIP3    H215346   0.842   5.329   3.154
 5114TIP3   OH215347   5.544   1.979   5.014
 5114TIP3    H115348   5.472   2.041   5.001
 5114TIP3    H215349   5.586   1.973   4.928
 5115TIP3   OH215350   1.953   5.708   4.539
 5115TIP3    H115351   1.887   5.659   4.588
 5115TIP3    H215352   1.904   5.777   4.495
 5116TIP3   OH215353   2.725   4.382   5.080
 5116TIP3    H115354   2.735   4.469   5.040
 5116TIP3    H215355   2.669   4.334   5.018
 5117TIP3   OH215356   3.926   3.270   1.693
 5117TIP3    H115357   4.015   3.303   1.701
 5117TIP3    H215358   3.871   3.348   1.694
 5118TIP3   OH215359   2.794   3.818   3.081
 5118TIP3    H115360   2.751   3.820   2.996
 5118TIP3    H215361   2.877   3.863   3.067
 5119TIP3   OH215362   2.888   5.309   2.272
 5119TIP3    H115363   2.945   5.386   2.267
 5119TIP3    H215364   2.885   5.275   2.183
 5120TIP3   OH215365   1.961   1.258   1.525
 5120TIP3    H115366   2.019   1.283   1.597
 5120TIP3    H215367   1.875   1.289   1.552
 5121TIP3   OH215368   6.294   3.324   1.050
 5121TIP3    H115369   6.235   3.399   1.049
 5121TIP3    H215370   6.379   3.361   1.026
 5122TIP3   OH215371   0.783   4.347   1.111
 5122TIP3    H115372   0.699   4.334   1.154
 5122TIP3    H215373   0.798   4.441   1.113
 5123TIP3   OH215374   0.346   4.275   2.861
 5123TIP3    H115375   0.414   4.276   2.928
 5123TIP3    H215376   0.385   4.227   2.788
 5124TIP3   OH215377   2.697   0.103   0.793
 5124TIP3    H115378   2.718   0.146   0.876
 5124TIP3    H215379   2.646   0.026   0.818
 5125TIP3   OH215380   1.393   1.013   4.792
 5125TIP3    H115381   1.438   0.988   4.873
 5125TIP3    H215382   1.307   1.043   4.822
 5126TIP3   OH215383   6.134   4.295   1.017
 5126TIP3    H115384   6.071   4.340   1.072
 5126TIP3    H215385   6.126   4.337   0.931
 5127TIP3   OH215386   3.928   2.792   2.232
 5127TIP3    H115387   3.999   2.846   2.200
 5127TIP3    H215388   3.938   2.792   2.328
 5128TIP3   OH215389   0.048   3.920   2.765
 5128TIP3    H115390   0.108   3.976   2.814
 5128TIP3    H215391   0.092   3.836   2.759
 5129TIP3   OH215392   0.471   1.595   0.602
 5129TIP3    H115393   0.537   1.546   0.652
 5129TIP3    H215394   0.493   1.578   0.511
 5130TIP3   OH215395   6.309   2.989   1.943
 5130TIP3    H115396   6.339   3.046   2.013
 5130TIP3    H215397   6.250   3.044   1.891
 5131TIP3   OH215398   2.084   1.362   1.081
 5131TIP3    H115399   2.026   1.320   1.144
 5131TIP3    H215400   2.048   1.339   0.996
 5132TIP3   OH215401   2.123   0.267   1.704
 5132TIP3    H115402   2.138   0.187   1.755
 5132TIP3    H215403   2.207   0.283   1.661
 5133TIP3   OH215404   0.172   4.649   1.192
 5133TIP3    H115405   0.096   4.605   1.154
 5133TIP3    H215406   0.232   4.663   1.118
 5134TIP3   OH215407   2.840   0.340   0.366
 5134TIP3    H115408   2.865   0.384   0.447
 5134TIP3    H215409   2.752   0.371   0.347
 5135TIP3   OH215410   3.161   3.150   4.295
 5135TIP3    H115411   3.079   3.107   4.268
 5135TIP3    H215412   3.225   3.122   4.230
 5136TIP3   OH215413   3.450   4.481   2.989
 5136TIP3    H115414   3.426   4.521   2.905
 5136TIP3    H215415   3.493   4.550   3.038
 5137TIP3   OH215416   0.984   1.678   4.646
 5137TIP3    H115417   1.022   1.658   4.731
 5137TIP3    H215418   0.983   1.773   4.642
 5138TIP3   OH215419   1.916   0.980   4.389
 5138TIP3    H115420   1.958   0.998   4.473
 5138TIP3    H215421   1.822   0.988   4.408
 5139TIP3   OH215422   3.078   1.396   5.084
 5139TIP3    H115423   3.135   1.435   5.017
 5139TIP3    H215424   3.045   1.470   5.134
 5140TIP3   OH215425   2.643   2.430   1.151
 5140TIP3    H115426   2.724   2.379   1.152
 5140TIP3    H215427   2.583   2.380   1.207
 5141TIP3   OH215428   0.327   0.924   4.175
 5141TIP3    H115429   0.286   0.893   4.095
 5141TIP3    H215430   0.378   1.001   4.149
 5142TIP3   OH215431   1.398   2.307   0.177
 5142TIP3    H115432   1.476   2.351   0.143
 5142TIP3    H215433   1.413   2.300   0.271
 5143TIP3   OH215434   4.291   5.726   2.983
 5143TIP3    H115435   4.334   5.808   3.006
 5143TIP3    H215436   4.262   5.737   2.892
 5144TIP3   OH215437   3.038   5.211   0.449
 5144TIP3    H115438   3.061   5.296   0.488
 5144TIP3    H215439   2.946   5.220   0.425
 5145TIP3   OH215440   2.222   0.052   2.117
 5145TIP3    H115441   2.204   0.015   2.203
 5145TIP3    H215442   2.292   0.116   2.132
 5146TIP3   OH215443   5.999   4.853   3.813
 5146TIP3    H115444   5.986   4.832   3.721
 5146TIP3    H215445   6.077   4.909   3.814
 5147TIP3   OH215446   4.685   0.992   1.863
 5147TIP3    H115447   4.604   1.032   1.831
 5147TIP3    H215448   4.675   0.899   1.843
 5148TIP3   OH215449   2.441   0.497   1.789
 5148TIP3    H115450   2.380   0.460   1.852
 5148TIP3    H215451   2.523   0.450   1.804
 5149TIP3   OH215452   5.207   3.170   2.126
 5149TIP3    H115453   5.229   3.123   2.206
 5149TIP3    H215454   5.237   3.113   2.055
 5150TIP3   OH215455   1.119   1.301   0.105
 5150TIP3    H115456   1.086   1.248   0.033
 5150TIP3    H215457   1.076   1.266   0.183
 5151TIP3   OH215458   2.109   3.620   0.613
 5151TIP3    H115459   2.180   3.565   0.645
 5151TIP3    H215460   2.076   3.573   0.536
 5152TIP3   OH215461   1.871   3.366   3.655
 5152TIP3    H115462   1.933   3.361   3.583
 5152TIP3    H215463   1.903   3.438   3.710
 5153TIP3   OH215464   3.894   2.670   4.266
 5153TIP3    H115465   3.944   2.589   4.255
 5153TIP3    H215466   3.805   2.641   4.286
 5154TIP3   OH215467   0.231   4.483   0.491
 5154TIP3    H115468   0.192   4.541   0.426
 5154TIP3    H215469   0.324   4.503   0.489
 5155TIP3   OH215470   4.797   3.418   4.885
 5155TIP3    H115471   4.855   3.474   4.833
 5155TIP3    H215472   4.746   3.479   4.938
 5156TIP3   OH215473   2.672   0.372   2.081
 5156TIP3    H115474   2.718   0.291   2.057
 5156TIP3    H215475   2.662   0.418   1.998
 5157TIP3   OH215476   2.539   2.845   2.983
 5157TIP3    H115477   2.477   2.912   2.957
 5157TIP3    H215478   2.515   2.823   3.073
 5158TIP3   OH215479   5.382   1.582   2.314
 5158TIP3    H115480   5.341   1.527   2.246
 5158TIP3    H215481   5.396   1.522   2.387
 5159TIP3   OH215482   4.670   4.564   1.793
 5159TIP3    H115483   4.574   4.561   1.792
 5159TIP3    H215484   4.692   4.655   1.772
 5160TIP3   OH215485   3.685   5.370   4.864
 5160TIP3    H115486   3.710   5.316   4.939
 5160TIP3    H215487   3.589   5.366   4.862
 5161TIP3   OH215488   5.059   4.944   1.314
 5161TIP3    H115489   5.119   4.958   1.241
 5161TIP3    H215490   5.082   5.013   1.377
 5162TIP3   OH215491   4.643   2.442   4.510
 5162TIP3    H115492   4.721   2.493   4.486
 5162TIP3    H215493   4.630   2.459   4.603
 5163TIP3   OH215494   2.445   1.891   0.465
 5163TIP3    H115495   2.423   1.976   0.504
 5163TIP3    H215496   2.373   1.834   0.493
 5164TIP3   OH215497   3.985   1.540   4.025
 5164TIP3    H115498   4.079   1.558   4.022
 5164TIP3    H215499   3.980   1.452   4.063
 5165TIP3   OH215500   3.405   2.887   3.698
 5165TIP3    H115501   3.496   2.906   3.720
 5165TIP3    H215502   3.381   2.815   3.756
 5166TIP3   OH215503   3.025   1.058   1.222
 5166TIP3    H115504   2.951   1.054   1.282
 5166TIP3    H215505   3.085   0.990   1.253
 5167TIP3   OH215506   1.952   3.168   2.379
 5167TIP3    H115507   1.900   3.180   2.458
 5167TIP3    H215508   1.896   3.116   2.321
 5168TIP3   OH215509   4.717   5.096   4.604
 5168TIP3    H115510   4.645   5.079   4.665
 5168TIP3    H215511   4.795   5.069   4.652
 5169TIP3   OH215512   6.168   0.996   5.055
 5169TIP3    H115513   6.185   1.020   5.146
 5169TIP3    H215514   6.088   1.042   5.033
 5170TIP3   OH215515   0.932   1.018   1.770
 5170TIP3    H115516   0.841   1.007   1.796
 5170TIP3    H215517   0.949   1.111   1.785
 5171TIP3   OH215518   3.518   1.656   2.034
 5171TIP3    H115519   3.549   1.698   1.954
 5171TIP3    H215520   3.591   1.601   2.062
 5172TIP3   OH215521   3.274   5.107   3.476
 5172TIP3    H115522   3.308   5.187   3.516
 5172TIP3    H215523   3.288   5.120   3.382
 5173TIP3   OH215524   0.598   2.179   1.312
 5173TIP3    H115525   0.536   2.143   1.249
 5173TIP3    H215526   0.665   2.111   1.322
 5174TIP3   OH215527   2.372   4.589   4.074
 5174TIP3    H115528   2.394   4.653   4.007
 5174TIP3    H215529   2.356   4.508   4.025
 5175TIP3   OH215530   0.643   2.863   2.337
 5175TIP3    H115531   0.707   2.934   2.331
 5175TIP3    H215532   0.588   2.874   2.259
 5176TIP3   OH215533   3.493   4.716   3.149
 5176TIP3    H115534   3.451   4.760   3.223
 5176TIP3    H215535   3.586   4.716   3.171
 5177TIP3   OH215536   0.455   5.345   1.353
 5177TIP3    H115537   0.523   5.340   1.421
 5177TIP3    H215538   0.438   5.438   1.343
 5178TIP3   OH215539   3.275   3.676   3.167
 5178TIP3    H115540   3.185   3.655   3.192
 5178TIP3    H215541   3.302   3.743   3.229
 5179TIP3   OH215542   5.074   5.823   0.624
 5179TIP3    H115543   5.030   5.884   0.684
 5179TIP3    H215544   5.161   5.812   0.662
 5180TIP3   OH215545   4.307   1.932   0.299
 5180TIP3    H115546   4.303   2.028   0.304
 5180TIP3    H215547   4.249   1.909   0.227
 5181TIP3   OH215548   2.551   2.505   0.905
 5181TIP3    H115549   2.479   2.474   0.960
 5181TIP3    H215550   2.620   2.527   0.967
 5182TIP3   OH215551   4.723   2.881   1.563
 5182TIP3    H115552   4.660   2.859   1.494
 5182TIP3    H215553   4.713   2.810   1.627
 5183TIP3   OH215554   0.593   0.380   4.889
 5183TIP3    H115555   0.527   0.330   4.841
 5183TIP3    H215556   0.555   0.392   4.976
 5184TIP3   OH215557   5.958   4.188   1.823
 5184TIP3    H115558   5.962   4.113   1.765
 5184TIP3    H215559   5.925   4.153   1.906
 5185TIP3   OH215560   3.357   5.480   0.609
 5185TIP3    H115561   3.398   5.486   0.522
 5185TIP3    H215562   3.332   5.570   0.629
 5186TIP3   OH215563   4.245   2.556   3.600
 5186TIP3    H115564   4.167   2.555   3.656
 5186TIP3    H215565   4.309   2.607   3.650
 5187TIP3   OH215566   1.988   1.698   2.384
 5187TIP3    H115567   1.963   1.607   2.399
 5187TIP3    H215568   1.942   1.723   2.304
 5188TIP3   OH215569   1.274   3.481   5.026
 5188TIP3    H115570   1.253   3.408   4.968
 5188TIP3    H215571   1.345   3.528   4.981
 5189TIP3   OH215572   5.972   2.092   3.004
 5189TIP3    H115573   5.989   2.115   2.913
 5189TIP3    H215574   5.888   2.046   3.003
 5190TIP3   OH215575   2.251   0.545   0.779
 5190TIP3    H115576   2.258   0.640   0.787
 5190TIP3    H215577   2.164   0.530   0.743
 5191TIP3   OH215578   3.702   4.889   4.676
 5191TIP3    H115579   3.643   4.960   4.700
 5191TIP3    H215580   3.734   4.854   4.760
 5192TIP3   OH215581   3.643   1.809   0.200
 5192TIP3    H115582   3.634   1.902   0.182
 5192TIP3    H215583   3.670   1.770   0.117
 5193TIP3   OH215584   3.204   5.108   0.634
 5193TIP3    H115585   3.144   5.159   0.580
 5193TIP3    H215586   3.159   5.024   0.645
 5194TIP3   OH215587   0.061   2.375   5.075
 5194TIP3    H115588   0.156   2.372   5.061
 5194TIP3    H215589   0.025   2.310   5.014
 5195TIP3   OH215590   0.253   2.179   0.903
 5195TIP3    H115591   0.232   2.154   0.814
 5195TIP3    H215592   0.171   2.213   0.939
 5196TIP3   OH215593   0.929   4.531   3.673
 5196TIP3    H115594   0.889   4.547   3.587
 5196TIP3    H215595   1.022   4.518   3.654
 5197TIP3   OH215596   1.076   0.700   5.134
 5197TIP3    H115597   1.025   0.688   5.054
 5197TIP3    H215598   1.024   0.658   5.203
 5198TIP3   OH215599   5.488   3.410   3.233
 5198TIP3    H115600   5.570   3.460   3.233
 5198TIP3    H215601   5.451   3.425   3.320
 5199TIP3   OH215602   0.612   0.310   1.044
 5199TIP3    H115603   0.600   0.336   1.135
 5199TIP3    H215604   0.658   0.384   1.004
 5200TIP3   OH215605   1.953   1.516   3.751
 5200TIP3    H115606   2.016   1.488   3.685
 5200TIP3    H215607   1.875   1.539   3.701
 5201TIP3   OH215608   4.939   0.302   3.686
 5201TIP3    H115609   4.885   0.231   3.720
 5201TIP3    H215610   4.943   0.366   3.757
 5202TIP3   OH215611   0.760   4.637   1.101
 5202TIP3    H115612   0.854   4.651   1.115
 5202TIP3    H215613   0.727   4.722   1.073
 5203TIP3   OH215614   0.212   4.152   0.514
 5203TIP3    H115615   0.195   4.110   0.598
 5203TIP3    H215616   0.183   4.242   0.525
 5204TIP3   OH215617   3.117   5.710   5.193
 5204TIP3    H115618   3.198   5.680   5.151
 5204TIP3    H215619   3.100   5.795   5.153
 5205TIP3   OH215620   4.584   2.360   1.044
 5205TIP3    H115621   4.580   2.374   0.949
 5205TIP3    H215622   4.557   2.269   1.056
 5206TIP3   OH215623   4.081   0.314   5.127
 5206TIP3    H115624   4.102   0.273   5.211
 5206TIP3    H215625   4.148   0.281   5.067
 5207TIP3   OH215626   0.374   4.842   2.743
 5207TIP3    H115627   0.303   4.801   2.794
 5207TIP3    H215628   0.452   4.791   2.765
 5208TIP3   OH215629   3.649   2.706   1.733
 5208TIP3    H115630   3.605   2.622   1.738
 5208TIP3    H215631   3.626   2.740   1.646
 5209TIP3   OH215632   6.198   2.592   1.728
 5209TIP3    H115633   6.129   2.634   1.779
 5209TIP3    H215634   6.260   2.662   1.710
 5210TIP3   OH215635   4.269   5.312   4.322
 5210TIP3    H115636   4.313   5.305   4.237
 5210TIP3    H215637   4.306   5.240   4.374
 5211TIP3   OH215638   4.426   5.625   0.076
 5211TIP3    H115639   4.369   5.569   0.130
 5211TIP3    H215640   4.503   5.572   0.059
 5212TIP3   OH215641   2.683   0.936   4.540
 5212TIP3    H115642   2.755   1.000   4.541
 5212TIP3    H215643   2.710   0.872   4.474
 5213TIP3   OH215644   5.931   3.408   4.234
 5213TIP3    H115645   5.929   3.502   4.216
 5213TIP3    H215646   5.994   3.373   4.171
 5214TIP3   OH215647   0.169   1.217   1.663
 5214TIP3    H115648   0.218   1.284   1.617
 5214TIP3    H215649   0.143   1.258   1.745
 5215TIP3   OH215650   4.873   1.259   0.377
 5215TIP3    H115651   4.904   1.346   0.403
 5215TIP3    H215652   4.822   1.229   0.453
 5216TIP3   OH215653   2.513   1.200   3.796
 5216TIP3    H115654   2.459   1.177   3.721
 5216TIP3    H215655   2.455   1.249   3.853
 5217TIP3   OH215656   1.518   1.399   2.493
 5217TIP3    H115657   1.423   1.398   2.486
 5217TIP3    H215658   1.537   1.465   2.560
 5218TIP3   OH215659   5.249   2.158   3.338
 5218TIP3    H115660   5.175   2.217   3.354
 5218TIP3    H215661   5.292   2.149   3.423
 5219TIP3   OH215662   1.256   3.777   5.070
 5219TIP3    H115663   1.181   3.803   5.125
 5219TIP3    H215664   1.333   3.796   5.125
 5220TIP3   OH215665   4.801   3.135   0.359
 5220TIP3    H115666   4.785   3.088   0.441
 5220TIP3    H215667   4.744   3.212   0.364
 5221TIP3   OH215668   3.385   4.798   3.373
 5221TIP3    H115669   3.318   4.864   3.353
 5221TIP3    H215670   3.360   4.764   3.458
 5222TIP3   OH215671   0.509   5.816   1.460
 5222TIP3    H115672   0.523   5.911   1.461
 5222TIP3    H215673   0.575   5.783   1.398
 5223TIP3   OH215674   4.721   4.362   4.666
 5223TIP3    H115675   4.659   4.434   4.674
 5223TIP3    H215676   4.793   4.398   4.614
 5224TIP3   OH215677   5.486   5.579   4.550
 5224TIP3    H115678   5.564   5.635   4.548
 5224TIP3    H215679   5.416   5.637   4.580
 5225TIP3   OH215680   4.983   2.624   1.210
 5225TIP3    H115681   5.020   2.710   1.229
 5225TIP3    H215682   5.001   2.573   1.289
 5226TIP3   OH215683   3.761   3.156   2.843
 5226TIP3    H115684   3.673   3.188   2.866
 5226TIP3    H215685   3.744   3.073   2.798
 5227TIP3   OH215686   0.578   1.416   2.601
 5227TIP3    H115687   0.498   1.416   2.548
 5227TIP3    H215688   0.647   1.389   2.541
 5228TIP3   OH215689   4.864   1.527   3.804
 5228TIP3    H115690   4.909   1.442   3.804
 5228TIP3    H215691   4.799   1.520   3.734
 5229TIP3   OH215692   4.558   0.416   1.658
 5229TIP3    H115693   4.485   0.355   1.665
 5229TIP3    H215694   4.569   0.451   1.746
 5230TIP3   OH215695   2.000   4.988   0.032
 5230TIP3    H115696   1.918   4.990   0.082
 5230TIP3    H215697   1.980   5.036  -0.048
 5231TIP3   OH215698   2.372   0.241   1.962
 5231TIP3    H115699   2.420   0.170   2.004
 5231TIP3    H215700   2.368   0.310   2.028
 5232TIP3   OH215701   5.355   1.241   2.229
 5232TIP3    H115702   5.315   1.160   2.261
 5232TIP3    H215703   5.387   1.284   2.309
 5233TIP3   OH215704   6.192   3.109   4.906
 5233TIP3    H115705   6.131   3.035   4.902
 5233TIP3    H215706   6.275   3.070   4.935
 5234TIP3   OH215707   3.006   4.175   0.904
 5234TIP3    H115708   2.975   4.090   0.874
 5234TIP3    H215709   3.095   4.182   0.869
 5235TIP3   OH215710   2.822   5.961   1.762
 5235TIP3    H115711   2.885   5.902   1.802
 5235TIP3    H215712   2.848   6.048   1.791
 5236TIP3   OH215713   5.696   3.658   0.993
 5236TIP3    H115714   5.654   3.687   1.073
 5236TIP3    H215715   5.670   3.566   0.984
 5237TIP3   OH215716   2.368   3.999   4.944
 5237TIP3    H115717   2.319   4.005   5.026
 5237TIP3    H215718   2.302   3.974   4.879
 5238TIP3   OH215719   3.733   1.583   5.135
 5238TIP3    H115720   3.818   1.542   5.121
 5238TIP3    H215721   3.682   1.517   5.183
 5239TIP3   OH215722   0.534   2.880   0.160
 5239TIP3    H115723   0.549   2.940   0.087
 5239TIP3    H215724   0.461   2.825   0.132
 5240TIP3   OH215725   2.715   1.871   1.851
 5240TIP3    H115726   2.806   1.900   1.850
 5240TIP3    H215727   2.688   1.880   1.942
 5241TIP3   OH215728   4.599   5.950   2.864
 5241TIP3    H115729   4.605   6.036   2.906
 5241TIP3    H215730   4.598   5.888   2.937
 5242TIP3   OH215731   1.848   4.045   1.729
 5242TIP3    H115732   1.907   4.000   1.790
 5242TIP3    H215733   1.899   4.121   1.699
 5243TIP3   OH215734   4.878   4.988   2.927
 5243TIP3    H115735   4.820   4.928   2.881
 5243TIP3    H215736   4.883   5.065   2.871
 5244TIP3   OH215737   2.512   4.811   3.088
 5244TIP3    H115738   2.472   4.736   3.132
 5244TIP3    H215739   2.462   4.886   3.119
 5245TIP3   OH215740   1.498   4.603   1.583
 5245TIP3    H115741   1.462   4.536   1.525
 5245TIP3    H215742   1.592   4.586   1.583
 5246TIP3   OH215743   1.458   1.173   1.836
 5246TIP3    H115744   1.542   1.127   1.846
 5246TIP3    H215745   1.446   1.219   1.918
 5247TIP3   OH215746   1.649   2.873   1.466
 5247TIP3    H115747   1.616   2.793   1.424
 5247TIP3    H215748   1.685   2.924   1.394
 5248TIP3   OH215749   4.044   0.031   4.183
 5248TIP3    H115750   3.988   0.045   4.107
 5248TIP3    H215751   4.132   0.057   4.153
 5249TIP3   OH215752   2.625   2.585   0.229
 5249TIP3    H115753   2.665   2.598   0.315
 5249TIP3    H215754   2.676   2.642   0.170
 5250TIP3   OH215755   5.233   5.638   4.382
 5250TIP3    H115756   5.165   5.697   4.415
 5250TIP3    H215757   5.306   5.695   4.360
 5251TIP3   OH215758   3.966   0.707   4.238
 5251TIP3    H115759   3.935   0.768   4.171
 5251TIP3    H215760   4.029   0.757   4.290
 5252TIP3   OH215761   0.183   4.779   4.413
 5252TIP3    H115762   0.244   4.803   4.344
 5252TIP3    H215763   0.197   4.844   4.482
 5253TIP3   OH215764   5.723   0.640   3.751
 5253TIP3    H115765   5.699   0.578   3.819
 5253TIP3    H215766   5.652   0.635   3.687
 5254TIP3   OH215767   3.097   4.522   4.284
 5254TIP3    H115768   3.135   4.450   4.234
 5254TIP3    H215769   3.046   4.478   4.352
 5255TIP3   OH215770   3.963   0.513   0.720
 5255TIP3    H115771   3.914   0.458   0.659
 5255TIP3    H215772   3.902   0.527   0.793
 5256TIP3   OH215773   0.285   5.990   4.112
 5256TIP3    H115774   0.197   5.990   4.074
 5256TIP3    H215775   0.344   5.993   4.036
 5257TIP3   OH215776   5.881   5.680   3.694
 5257TIP3    H115777   5.797   5.654   3.655
 5257TIP3    H215778   5.946   5.659   3.627
 5258TIP3   OH215779   1.178   4.373   1.656
 5258TIP3    H115780   1.220   4.304   1.708
 5258TIP3    H215781   1.131   4.426   1.721
 5259TIP3   OH215782   5.793   4.345   0.093
 5259TIP3    H115783   5.882   4.321   0.121
 5259TIP3    H215784   5.736   4.289   0.146
 5260TIP3   OH215785   2.699   4.399   2.220
 5260TIP3    H115786   2.617   4.445   2.238
 5260TIP3    H215787   2.676   4.332   2.156
 5261TIP3   OH215788   2.292   4.066   0.344
 5261TIP3    H115789   2.295   4.119   0.423
 5261TIP3    H215790   2.282   3.976   0.376
 5262TIP3   OH215791   1.708   4.435   1.279
 5262TIP3    H115792   1.643   4.442   1.209
 5262TIP3    H215793   1.712   4.341   1.298
 5263TIP3   OH215794   2.670   1.086   1.689
 5263TIP3    H115795   2.664   1.029   1.612
 5263TIP3    H215796   2.724   1.159   1.660
 5264TIP3   OH215797   2.647   0.009   3.128
 5264TIP3    H115798   2.553  -0.007   3.119
 5264TIP3    H215799   2.665  -0.010   3.220
 5265TIP3   OH215800   0.202   0.866   4.709
 5265TIP3    H115801   0.250   0.923   4.770
 5265TIP3    H215802   0.148   0.926   4.658
 5266TIP3   OH215803   1.355   3.782   0.786
 5266TIP3    H115804   1.371   3.838   0.862
 5266TIP3    H215805   1.285   3.724   0.813
 5267TIP3   OH215806   1.643   3.325   4.099
 5267TIP3    H115807   1.678   3.272   4.170
 5267TIP3    H215808   1.680   3.285   4.020
 5268TIP3   OH215809   1.157   1.977   2.921
 5268TIP3    H115810   1.155   2.037   2.846
 5268TIP3    H215811   1.106   1.901   2.892
 5269TIP3   OH215812   3.687   3.685   2.607
 5269TIP3    H115813   3.692   3.613   2.544
 5269TIP3    H215814   3.760   3.671   2.667
 5270TIP3   OH215815   1.302   0.796   0.210
 5270TIP3    H115816   1.209   0.820   0.206
 5270TIP3    H215817   1.330   0.823   0.297
 5271TIP3   OH215818   3.143   4.152   4.381
 5271TIP3    H115819   3.076   4.219   4.391
 5271TIP3    H215820   3.220   4.199   4.351
 5272TIP3   OH215821   4.418   3.817   2.016
 5272TIP3    H115822   4.356   3.848   1.951
 5272TIP3    H215823   4.482   3.766   1.967
 5273TIP3   OH215824   1.738   4.053   2.058
 5273TIP3    H115825   1.805   4.121   2.064
 5273TIP3    H215826   1.766   3.997   1.986
 5274TIP3   OH215827   3.614   0.463   4.828
 5274TIP3    H115828   3.605   0.440   4.921
 5274TIP3    H215829   3.524   0.482   4.800
 5275TIP3   OH215830   2.582   0.295   3.127
 5275TIP3    H115831   2.594   0.202   3.144
 5275TIP3    H215832   2.577   0.335   3.214
 5276TIP3   OH215833   2.028   5.835   0.395
 5276TIP3    H115834   2.009   5.905   0.457
 5276TIP3    H215835   2.050   5.759   0.450
 5277TIP3   OH215836   3.213   4.189   2.063
 5277TIP3    H115837   3.284   4.240   2.100
 5277TIP3    H215838   3.148   4.254   2.036
 5278TIP3   OH215839   3.683   4.787   2.047
 5278TIP3    H115840   3.682   4.702   2.002
 5278TIP3    H215841   3.656   4.850   1.980
 5279TIP3   OH215842   6.194   0.461   2.143
 5279TIP3    H115843   6.202   0.541   2.195
 5279TIP3    H215844   6.274   0.412   2.161
 5280TIP3   OH215845   0.684   4.272   0.060
 5280TIP3    H115846   0.610   4.233   0.014
 5280TIP3    H215847   0.729   4.199   0.102
 5281TIP3   OH215848   4.750   3.253   2.011
 5281TIP3    H115849   4.722   3.302   2.088
 5281TIP3    H215850   4.814   3.190   2.044
 5282TIP3   OH215851   2.072   2.880   3.302
 5282TIP3    H115852   2.107   2.961   3.338
 5282TIP3    H215853   2.027   2.907   3.222
 5283TIP3   OH215854   4.560   5.649   0.715
 5283TIP3    H115855   4.556   5.730   0.765
 5283TIP3    H215856   4.557   5.677   0.623
 5284TIP3   OH215857   2.870   1.407   0.440
 5284TIP3    H115858   2.925   1.390   0.363
 5284TIP3    H215859   2.913   1.359   0.511
 5285TIP3   OH215860   4.971   4.937   0.457
 5285TIP3    H115861   4.914   4.950   0.533
 5285TIP3    H215862   5.007   4.849   0.469
 5286TIP3   OH215863   3.175   4.813   0.187
 5286TIP3    H115864   3.109   4.792   0.253
 5286TIP3    H215865   3.134   4.879   0.131
 5287TIP3   OH215866   5.184   4.059   0.133
 5287TIP3    H115867   5.258   4.051   0.193
 5287TIP3    H215868   5.143   4.143   0.157
 5288TIP3   OH215869   3.629   2.188   2.650
 5288TIP3    H115870   3.698   2.131   2.684
 5288TIP3    H215871   3.665   2.224   2.568
 5289TIP3   OH215872   1.247   0.357   0.707
 5289TIP3    H115873   1.165   0.336   0.752
 5289TIP3    H215874   1.250   0.452   0.705
 5290TIP3   OH215875   1.386   3.527   3.836
 5290TIP3    H115876   1.471   3.536   3.793
 5290TIP3    H215877   1.408   3.504   3.927
 5291TIP3   OH215878   4.708   3.009   2.671
 5291TIP3    H115879   4.704   3.093   2.627
 5291TIP3    H215880   4.782   3.017   2.732
 5292TIP3   OH215881   1.397   0.145   0.583
 5292TIP3    H115882   1.351   0.222   0.615
 5292TIP3    H215883   1.483   0.148   0.627
 5293TIP3   OH215884   3.600   2.373   1.526
 5293TIP3    H115885   3.621   2.409   1.613
 5293TIP3    H215886   3.682   2.378   1.478
 5294TIP3   OH215887   2.428   3.604   1.464
 5294TIP3    H115888   2.483   3.596   1.542
 5294TIP3    H215889   2.487   3.639   1.397
 5295TIP3   OH215890   2.042   4.099   3.903
 5295TIP3    H115891   2.007   4.087   3.991
 5295TIP3    H215892   2.116   4.159   3.914
 5296TIP3   OH215893   5.680   2.871   0.914
 5296TIP3    H115894   5.586   2.863   0.926
 5296TIP3    H215895   5.690   2.933   0.842
 5297TIP3   OH215896   3.022   4.676   5.103
 5297TIP3    H115897   3.042   4.586   5.128
 5297TIP3    H215898   3.108   4.718   5.094
 5298TIP3   OH215899   2.626   5.742   3.923
 5298TIP3    H115900   2.558   5.727   3.988
 5298TIP3    H215901   2.672   5.820   3.953
 5299TIP3   OH215902   0.944   0.060   2.649
 5299TIP3    H115903   0.902   0.146   2.651
 5299TIP3    H215904   0.882   0.004   2.602
 5300TIP3   OH215905   2.007   5.673   1.748
 5300TIP3    H115906   2.059   5.675   1.667
 5300TIP3    H215907   2.029   5.590   1.789
 5301TIP3   OH215908   0.294   3.186   1.535
 5301TIP3    H115909   0.317   3.094   1.547
 5301TIP3    H215910   0.376   3.234   1.547
 5302TIP3   OH215911   1.939   0.090   1.061
 5302TIP3    H115912   1.881   0.141   1.118
 5302TIP3    H215913   1.915  -0.001   1.078
 5303TIP3   OH215914   3.581   4.828   3.699
 5303TIP3    H115915   3.658   4.798   3.747
 5303TIP3    H215916   3.532   4.880   3.763
 5304TIP3   OH215917   5.224   1.872   3.461
 5304TIP3    H115918   5.282   1.846   3.532
 5304TIP3    H215919   5.282   1.905   3.392
 5305TIP3   OH215920   0.166   4.790   1.587
 5305TIP3    H115921   0.187   4.828   1.672
 5305TIP3    H215922   0.235   4.820   1.529
 5306TIP3   OH215923   3.823   2.741   3.399
 5306TIP3    H115924   3.847   2.774   3.486
 5306TIP3    H215925   3.821   2.819   3.343
 5307TIP3   OH215926   0.982   2.155   0.117
 5307TIP3    H115927   1.021   2.241   0.129
 5307TIP3    H215928   0.888   2.171   0.109
 5308TIP3   OH215929   6.189   1.617   4.424
 5308TIP3    H115930   6.200   1.673   4.347
 5308TIP3    H215931   6.245   1.657   4.490
 5309TIP3   OH215932   5.585   5.059   1.704
 5309TIP3    H115933   5.544   5.002   1.639
 5309TIP3    H215934   5.605   5.001   1.778
 5310TIP3   OH215935   0.164   3.128   4.261
 5310TIP3    H115936   0.258   3.143   4.270
 5310TIP3    H215937   0.138   3.182   4.185
 5311TIP3   OH215938   2.668   2.001   0.288
 5311TIP3    H115939   2.667   2.037   0.199
 5311TIP3    H215940   2.710   2.069   0.341
 5312TIP3   OH215941   3.790   1.652   2.373
 5312TIP3    H115942   3.882   1.678   2.370
 5312TIP3    H215943   3.791   1.558   2.359
 5313TIP3   OH215944   0.584   3.633   0.513
 5313TIP3    H115945   0.594   3.553   0.462
 5313TIP3    H215946   0.646   3.694   0.474
 5314TIP3   OH215947   3.890   5.338   1.236
 5314TIP3    H115948   3.844   5.363   1.317
 5314TIP3    H215949   3.846   5.258   1.208
 5315TIP3   OH215950   5.473   0.925   3.307
 5315TIP3    H115951   5.463   0.884   3.392
 5315TIP3    H215952   5.548   0.881   3.268
 5316TIP3   OH215953   0.735   3.303   1.784
 5316TIP3    H115954   0.758   3.396   1.780
 5316TIP3    H215955   0.642   3.302   1.803
 5317TIP3   OH215956   2.037   2.374   5.061
 5317TIP3    H115957   2.015   2.351   4.971
 5317TIP3    H215958   2.127   2.405   5.057
 5318TIP3   OH215959   2.562   1.502   1.911
 5318TIP3    H115960   2.592   1.551   1.987
 5318TIP3    H215961   2.522   1.423   1.947
 5319TIP3   OH215962   4.095   3.791   2.486
 5319TIP3    H115963   4.174   3.835   2.456
 5319TIP3    H215964   4.095   3.803   2.581
 5320TIP3   OH215965   4.243   5.720   4.131
 5320TIP3    H115966   4.330   5.681   4.128
 5320TIP3    H215967   4.205   5.687   4.213
 5321TIP3   OH215968   1.527   3.644   1.127
 5321TIP3    H115969   1.488   3.560   1.151
 5321TIP3    H215970   1.545   3.687   1.210
 5322TIP3   OH215971   0.996   4.147   4.358
 5322TIP3    H115972   1.033   4.149   4.270
 5322TIP3    H215973   0.921   4.206   4.354
 5323TIP3   OH215974   3.939   1.420   3.720
 5323TIP3    H115975   4.005   1.386   3.780
 5323TIP3    H215976   3.959   1.514   3.713
 5324TIP3   OH215977   0.351   4.385   3.751
 5324TIP3    H115978   0.340   4.294   3.723
 5324TIP3    H215979   0.325   4.437   3.675
 5325TIP3   OH215980   3.502   2.594   1.349
 5325TIP3    H115981   3.415   2.601   1.312
 5325TIP3    H215982   3.497   2.520   1.410
 5326TIP3   OH215983   3.141   2.251   2.184
 5326TIP3    H115984   3.198   2.311   2.136
 5326TIP3    H215985   3.089   2.307   2.241
 5327TIP3   OH215986   2.679   1.887   1.567
 5327TIP3    H115987   2.688   1.825   1.639
 5327TIP3    H215988   2.768   1.912   1.545
 5328TIP3   OH215989   4.991   5.285   5.177
 5328TIP3    H115990   4.994   5.357   5.114
 5328TIP3    H215991   5.073   5.293   5.226
 5329TIP3   OH215992   3.471   3.173   2.903
 5329TIP3    H115993   3.413   3.208   2.971
 5329TIP3    H215994   3.456   3.079   2.906
 5330TIP3   OH215995   4.581   1.662   3.057
 5330TIP3    H115996   4.662   1.674   3.106
 5330TIP3    H215997   4.569   1.567   3.054
 5331TIP3   OH215998   2.795   2.227   1.442
 5331TIP3    H115999   2.846   2.238   1.362
 5331TIP3    H216000   2.823   2.143   1.477
 5332TIP3   OH216001   6.073   2.873   2.907
 5332TIP3    H116002   5.986   2.838   2.923
 5332TIP3    H216003   6.133   2.803   2.935
 5333TIP3   OH216004   2.908   0.196   4.529
 5333TIP3    H116005   3.002   0.211   4.517
 5333TIP3    H216006   2.885   0.130   4.463
 5334TIP3   OH216007   5.159   1.960   3.128
 5334TIP3    H116008   5.212   2.010   3.189
 5334TIP3    H216009   5.175   2.001   3.043
 5335TIP3   OH216010   1.852   5.584   1.409
 5335TIP3    H116011   1.930   5.556   1.361
 5335TIP3    H216012   1.826   5.507   1.459
 5336TIP3   OH216013   3.940   4.969   1.903
 5336TIP3    H116014   4.010   5.032   1.889
 5336TIP3    H216015   3.958   4.931   1.989
 5337TIP3   OH216016   3.172   2.661   0.798
 5337TIP3    H116017   3.142   2.735   0.851
 5337TIP3    H216018   3.234   2.615   0.855
 5338TIP3   OH216019   4.432   2.001   3.722
 5338TIP3    H116020   4.425   2.086   3.680
 5338TIP3    H216021   4.393   2.014   3.809
 5339TIP3   OH216022   4.282   4.409   1.724
 5339TIP3    H116023   4.317   4.491   1.759
 5339TIP3    H216024   4.282   4.349   1.799
 5340TIP3   OH216025   5.360   5.346   4.084
 5340TIP3    H116026   5.309   5.369   4.161
 5340TIP3    H216027   5.294   5.324   4.018
 5341TIP3   OH216028   2.101   0.545   4.302
 5341TIP3    H116029   2.146   0.578   4.379
 5341TIP3    H216030   2.130   0.455   4.294
 5342TIP3   OH216031   3.741   5.069   4.266
 5342TIP3    H116032   3.795   5.013   4.322
 5342TIP3    H216033   3.651   5.045   4.286
 5343TIP3   OH216034   5.312   0.667   3.950
 5343TIP3    H116035   5.236   0.615   3.978
 5343TIP3    H216036   5.273   0.743   3.906
 5344TIP3   OH216037   4.484   5.130   0.644
 5344TIP3    H116038   4.504   5.113   0.736
 5344TIP3    H216039   4.445   5.217   0.644
 5345TIP3   OH216040   4.045   3.872   3.308
 5345TIP3    H116041   3.952   3.893   3.318
 5345TIP3    H216042   4.068   3.904   3.221
 5346TIP3   OH216043   1.640   5.383   1.979
 5346TIP3    H116044   1.651   5.309   1.919
 5346TIP3    H216045   1.561   5.428   1.949
 5347TIP3   OH216046   3.622   2.061   0.123
 5347TIP3    H116047   3.614   2.154   0.145
 5347TIP3    H216048   3.704   2.055   0.074
 5348TIP3   OH216049   0.201   0.831   5.052
 5348TIP3    H116050   0.198   0.898   5.120
 5348TIP3    H216051   0.276   0.856   4.997
 5349TIP3   OH216052   0.250   3.114   3.414
 5349TIP3    H116053   0.291   3.169   3.481
 5349TIP3    H216054   0.229   3.032   3.458
 5350TIP3   OH216055   3.925   5.700   2.151
 5350TIP3    H116056   3.887   5.621   2.190
 5350TIP3    H216057   4.007   5.670   2.111
 5351TIP3   OH216058   2.297   3.494   4.707
 5351TIP3    H116059   2.247   3.574   4.723
 5351TIP3    H216060   2.306   3.453   4.793
 5352TIP3   OH216061   3.308   4.072   3.028
 5352TIP3    H116062   3.403   4.076   3.044
 5352TIP3    H216063   3.274   4.154   3.064
 5353TIP3   OH216064   4.652   5.591   3.494
 5353TIP3    H116065   4.653   5.685   3.513
 5353TIP3    H216066   4.720   5.580   3.427
 5354TIP3   OH216067   5.743   2.239   2.018
 5354TIP3    H116068   5.715   2.291   2.093
 5354TIP3    H216069   5.677   2.257   1.950
 5355TIP3   OH216070   4.509   1.293   5.155
 5355TIP3    H116071   4.516   1.331   5.242
 5355TIP3    H216072   4.463   1.210   5.168
 5356TIP3   OH216073   2.257   1.285   3.612
 5356TIP3    H116074   2.300   1.361   3.652
 5356TIP3    H216075   2.179   1.321   3.570
 5357TIP3   OH216076   1.960   5.578   3.133
 5357TIP3    H116077   2.055   5.576   3.148
 5357TIP3    H216078   1.925   5.629   3.206
 5358TIP3   OH216079   1.874   1.613   3.205
 5358TIP3    H116080   1.896   1.524   3.176
 5358TIP3    H216081   1.880   1.609   3.300
 5359TIP3   OH216082   3.865   4.081   2.394
 5359TIP3    H116083   3.950   4.095   2.434
 5359TIP3    H216084   3.823   4.167   2.393
 5360TIP3   OH216085   4.269   0.847   0.744
 5360TIP3    H116086   4.303   0.758   0.753
 5360TIP3    H216087   4.252   0.857   0.650
 5361TIP3   OH216088   4.380   5.782   0.487
 5361TIP3    H116089   4.407   5.789   0.579
 5361TIP3    H216090   4.284   5.786   0.490
 5362TIP3   OH216091   5.600   1.714   1.006
 5362TIP3    H116092   5.558   1.782   0.954
 5362TIP3    H216093   5.644   1.658   0.942
 5363TIP3   OH216094   3.388   5.068   1.679
 5363TIP3    H116095   3.305   5.104   1.710
 5363TIP3    H216096   3.451   5.138   1.694
 5364TIP3   OH216097   0.681   0.044   4.265
 5364TIP3    H116098   0.692   0.042   4.170
 5364TIP3    H216099   0.766   0.070   4.299
 5365TIP3   OH216100   3.375   0.514   2.334
 5365TIP3    H116101   3.294   0.477   2.367
 5365TIP3    H216102   3.396   0.462   2.257
 5366TIP3   OH216103   3.272   0.474   4.219
 5366TIP3    H116104   3.180   0.459   4.241
 5366TIP3    H216105   3.278   0.568   4.202
 5367TIP3   OH216106   2.820   0.043   2.809
 5367TIP3    H116107   2.834   0.056   2.903
 5367TIP3    H216108   2.868  -0.037   2.789
 5368TIP3   OH216109   5.432   4.744   2.131
 5368TIP3    H116110   5.406   4.755   2.222
 5368TIP3    H216111   5.446   4.833   2.098
 5369TIP3   OH216112   0.761   5.859   3.344
 5369TIP3    H116113   0.815   5.839   3.420
 5369TIP3    H216114   0.767   5.781   3.289
 5370TIP3   OH216115   3.278   1.870   5.058
 5370TIP3    H116116   3.195   1.874   5.105
 5370TIP3    H216117   3.313   1.959   5.063
 5371TIP3   OH216118   0.275   0.075   3.768
 5371TIP3    H116119   0.182   0.091   3.784
 5371TIP3    H216120   0.294   0.121   3.687
 5372TIP3   OH216121   5.769   1.279   4.119
 5372TIP3    H116122   5.726   1.248   4.040
 5372TIP3    H216123   5.810   1.201   4.156
 5373TIP3   OH216124   2.597   5.280   0.922
 5373TIP3    H116125   2.648   5.210   0.880
 5373TIP3    H216126   2.662   5.332   0.969
 5374TIP3   OH216127   4.673   0.558   2.947
 5374TIP3    H116128   4.720   0.505   3.012
 5374TIP3    H216129   4.619   0.617   2.999
 5375TIP3   OH216130   4.258   2.824   0.148
 5375TIP3    H116131   4.348   2.792   0.148
 5375TIP3    H216132   4.206   2.749   0.177
 5376TIP3   OH216133   3.931   5.192   4.567
 5376TIP3    H116134   4.001   5.131   4.546
 5376TIP3    H216135   3.864   5.176   4.500
 5377TIP3   OH216136   0.071   3.689   1.706
 5377TIP3    H116137   0.047   3.777   1.679
 5377TIP3    H216138   0.040   3.633   1.635
 5378TIP3   OH216139   6.103   2.507   1.332
 5378TIP3    H116140   6.071   2.492   1.243
 5378TIP3    H216141   6.146   2.424   1.356
 5379TIP3   OH216142   4.296   4.225   1.916
 5379TIP3    H116143   4.381   4.182   1.922
 5379TIP3    H216144   4.236   4.168   1.965
 5380TIP3   OH216145   3.787   3.366   4.179
 5380TIP3    H116146   3.788   3.347   4.085
 5380TIP3    H216147   3.838   3.446   4.188
 5381TIP3   OH216148   4.938   3.583   2.830
 5381TIP3    H116149   4.935   3.489   2.812
 5381TIP3    H216150   4.973   3.589   2.919
 5382TIP3   OH216151   2.074   0.135   0.571
 5382TIP3    H116152   2.149   0.151   0.628
 5382TIP3    H216153   2.014   0.083   0.624
 5383TIP3   OH216154   1.895   1.362   4.387
 5383TIP3    H116155   1.913   1.294   4.452
 5383TIP3    H216156   1.978   1.372   4.340
 5384TIP3   OH216157   4.368   4.657   1.831
 5384TIP3    H116158   4.280   4.666   1.869
 5384TIP3    H216159   4.386   4.743   1.794
 5385TIP3   OH216160   3.064   5.350   3.677
 5385TIP3    H116161   3.159   5.342   3.681
 5385TIP3    H216162   3.047   5.442   3.695
 5386TIP3   OH216163   0.398   4.194   0.221
 5386TIP3    H116164   0.444   4.277   0.212
 5386TIP3    H216165   0.335   4.210   0.292
 5387TIP3   OH216166   6.170   0.722   2.825
 5387TIP3    H116167   6.253   0.699   2.868
 5387TIP3    H216168   6.136   0.795   2.876
 5388TIP3   OH216169   1.206   5.223   1.856
 5388TIP3    H116170   1.276   5.229   1.792
 5388TIP3    H216171   1.238   5.271   1.932
 5389TIP3   OH216172   5.486   3.108   1.051
 5389TIP3    H116173   5.404   3.102   1.099
 5389TIP3    H216174   5.461   3.106   0.959
 5390TIP3   OH216175   5.714   5.602   0.810
 5390TIP3    H116176   5.678   5.603   0.899
 5390TIP3    H216177   5.665   5.533   0.766
 5391TIP3   OH216178   4.820   5.522   1.051
 5391TIP3    H116179   4.897   5.571   1.022
 5391TIP3    H216180   4.856   5.445   1.094
 5392TIP3   OH216181   2.986   2.029   2.632
 5392TIP3    H116182   2.932   2.076   2.568
 5392TIP3    H216183   2.924   1.996   2.696
 5393TIP3   OH216184   0.687   4.499   2.816
 5393TIP3    H116185   0.654   4.415   2.848
 5393TIP3    H216186   0.633   4.518   2.739
 5394TIP3   OH216187   2.598   1.464   3.752
 5394TIP3    H116188   2.570   1.374   3.763
 5394TIP3    H216189   2.517   1.515   3.749
 5395TIP3   OH216190   0.432   3.976   0.489
 5395TIP3    H116191   0.348   4.017   0.467
 5395TIP3    H216192   0.415   3.930   0.571
 5396TIP3   OH216193   5.822   5.613   2.423
 5396TIP3    H116194   5.789   5.673   2.490
 5396TIP3    H216195   5.744   5.586   2.374
 5397TIP3   OH216196   3.749   1.018   0.935
 5397TIP3    H116197   3.789   1.042   1.019
 5397TIP3    H216198   3.823   1.000   0.877
 5398TIP3   OH216199   2.113   4.569   2.985
 5398TIP3    H116200   2.183   4.516   3.021
 5398TIP3    H216201   2.063   4.509   2.929
 5399TIP3   OH216202   2.504   1.883   3.888
 5399TIP3    H116203   2.414   1.906   3.866
 5399TIP3    H216204   2.541   1.850   3.806
 5400TIP3   OH216205   2.258   4.295   2.353
 5400TIP3    H116206   2.180   4.348   2.340
 5400TIP3    H216207   2.274   4.253   2.268
 5401TIP3   OH216208   4.411   3.787   4.040
 5401TIP3    H116209   4.493   3.783   4.089
 5401TIP3    H216210   4.368   3.703   4.059
 5402TIP3   OH216211   4.674   4.437   3.939
 5402TIP3    H116212   4.716   4.439   4.024
 5402TIP3    H216213   4.740   4.401   3.879
 5403TIP3   OH216214   2.861   2.457   3.821
 5403TIP3    H116215   2.852   2.379   3.767
 5403TIP3    H216216   2.783   2.509   3.802
 5404TIP3   OH216217   5.875   0.266   0.956
 5404TIP3    H116218   5.911   0.349   0.986
 5404TIP3    H216219   5.945   0.227   0.903
 5405TIP3   OH216220   4.677   0.629   5.093
 5405TIP3    H116221   4.695   0.601   5.183
 5405TIP3    H216222   4.764   0.639   5.053
 5406TIP3   OH216223   5.979   5.884   1.783
 5406TIP3    H116224   5.918   5.901   1.853
 5406TIP3    H216225   6.065   5.910   1.818
 5407TIP3   OH216226   3.399   3.706   3.488
 5407TIP3    H116227   3.419   3.631   3.432
 5407TIP3    H216228   3.303   3.710   3.490
 5408TIP3   OH216229   0.939   0.561   4.529
 5408TIP3    H116230   0.996   0.487   4.505
 5408TIP3    H216231   0.894   0.532   4.608
 5409TIP3   OH216232   3.264   1.635   2.174
 5409TIP3    H116233   3.354   1.629   2.141
 5409TIP3    H216234   3.245   1.549   2.210
 5410TIP3   OH216235   2.007   4.005   2.231
 5410TIP3    H116236   1.928   4.002   2.285
 5410TIP3    H216237   2.078   3.979   2.290
 5411TIP3   OH216238   1.585   4.711   0.195
 5411TIP3    H116239   1.502   4.705   0.149
 5411TIP3    H216240   1.631   4.630   0.172
 5412TIP3   OH216241   4.051   5.864   3.614
 5412TIP3    H116242   4.044   5.884   3.521
 5412TIP3    H216243   4.088   5.943   3.653
 5413TIP3   OH216244   4.338   5.899   0.765
 5413TIP3    H116245   4.353   5.921   0.857
 5413TIP3    H216246   4.337   5.983   0.720
 5414TIP3   OH216247   3.779   1.146   4.818
 5414TIP3    H116248   3.763   1.054   4.839
 5414TIP3    H216249   3.714   1.194   4.869
 5415TIP3   OH216250   1.041   3.214   2.882
 5415TIP3    H116251   1.007   3.294   2.841
 5415TIP3    H216252   1.009   3.143   2.826
 5416TIP3   OH216253   1.340   0.090   1.320
 5416TIP3    H116254   1.303   0.082   1.408
 5416TIP3    H216255   1.415   0.148   1.330
 5417TIP3   OH216256   0.683   1.806   3.909
 5417TIP3    H116257   0.620   1.849   3.851
 5417TIP3    H216258   0.743   1.877   3.934
 5418TIP3   OH216259   6.206   3.349   0.741
 5418TIP3    H116260   6.263   3.281   0.777
 5418TIP3    H216261   6.224   3.426   0.794
 5419TIP3   OH216262   3.724   1.240   3.200
 5419TIP3    H116263   3.806   1.236   3.149
 5419TIP3    H216264   3.656   1.215   3.138
 5420TIP3   OH216265   5.257   2.393   4.460
 5420TIP3    H116266   5.315   2.367   4.389
 5420TIP3    H216267   5.169   2.373   4.428
 5421TIP3   OH216268   2.930   0.604   4.765
 5421TIP3    H116269   2.855   0.663   4.769
 5421TIP3    H216270   2.937   0.580   4.672
 5422TIP3   OH216271   5.253   5.486   4.762
 5422TIP3    H116272   5.309   5.561   4.743
 5422TIP3    H216273   5.190   5.485   4.690
 5423TIP3   OH216274   2.494   5.070   2.287
 5423TIP3    H116275   2.479   4.981   2.317
 5423TIP3    H216276   2.491   5.064   2.191
 5424TIP3   OH216277   0.101   5.661   5.025
 5424TIP3    H116278   0.134   5.730   4.968
 5424TIP3    H216279   0.151   5.670   5.106
 5425TIP3   OH216280   0.855   5.696   5.128
 5425TIP3    H116281   0.823   5.678   5.040
 5425TIP3    H216282   0.810   5.633   5.184
 5426TIP3   OH216283   4.909   2.677   3.257
 5426TIP3    H116284   4.896   2.583   3.267
 5426TIP3    H216285   4.958   2.703   3.335
 5427TIP3   OH216286   2.289   2.033   4.299
 5427TIP3    H116287   2.202   2.056   4.265
 5427TIP3    H216288   2.350   2.084   4.246
 5428TIP3   OH216289   3.276   4.800   3.008
 5428TIP3    H116290   3.320   4.851   2.939
 5428TIP3    H216291   3.346   4.749   3.048
 5429TIP3   OH216292   6.135   2.664   2.259
 5429TIP3    H116293   6.167   2.674   2.169
 5429TIP3    H216294   6.191   2.596   2.296
 5430TIP3   OH216295   0.527   1.577   2.821
 5430TIP3    H116296   0.534   1.545   2.731
 5430TIP3    H216297   0.594   1.529   2.869
 5431TIP3   OH216298   4.239   1.550   0.934
 5431TIP3    H116299   4.244   1.591   0.848
 5431TIP3    H216300   4.187   1.610   0.987
 5432TIP3   OH216301   5.852   2.724   3.569
 5432TIP3    H116302   5.869   2.810   3.531
 5432TIP3    H216303   5.784   2.740   3.634
 5433TIP3   OH216304   2.909   5.020   3.153
 5433TIP3    H116305   2.934   4.953   3.218
 5433TIP3    H216306   2.928   5.103   3.196
 5434TIP3   OH216307   5.790   4.404   1.881
 5434TIP3    H116308   5.862   4.351   1.914
 5434TIP3    H216309   5.722   4.396   1.947
 5435TIP3   OH216310   5.455   5.067   4.249
 5435TIP3    H116311   5.480   5.018   4.171
 5435TIP3    H216312   5.492   5.154   4.236
 5436TIP3   OH216313   4.437   5.348   2.154
 5436TIP3    H116314   4.385   5.425   2.175
 5436TIP3    H216315   4.482   5.369   2.073
 5437TIP3   OH216316   2.443   4.486   2.281
 5437TIP3    H116317   2.377   4.555   2.288
 5437TIP3    H216318   2.394   4.405   2.296
 5438TIP3   OH216319   6.155   5.730   4.366
 5438TIP3    H116320   6.231   5.680   4.336
 5438TIP3    H216321   6.112   5.673   4.430
 5439TIP3   OH216322   3.253   3.825   0.665
 5439TIP3    H116323   3.217   3.738   0.684
 5439TIP3    H216324   3.348   3.814   0.674
 5440TIP3   OH216325   4.334   5.097   3.966
 5440TIP3    H116326   4.396   5.138   4.027
 5440TIP3    H216327   4.272   5.050   4.023
 5441TIP3   OH216328   3.269   2.609   1.225
 5441TIP3    H116329   3.287   2.583   1.135
 5441TIP3    H216330   3.247   2.702   1.220
 5442TIP3   OH216331   5.570   0.731   3.150
 5442TIP3    H116332   5.557   0.637   3.164
 5442TIP3    H216333   5.501   0.756   3.089
 5443TIP3   OH216334   3.775   3.376   3.365
 5443TIP3    H116335   3.756   3.302   3.308
 5443TIP3    H216336   3.757   3.453   3.311
 5444TIP3   OH216337   2.022   1.269   0.024
 5444TIP3    H116338   2.071   1.187   0.031
 5444TIP3    H216339   2.078   1.326  -0.029
 5445TIP3   OH216340   0.733   3.279   3.252
 5445TIP3    H116341   0.657   3.286   3.309
 5445TIP3    H216342   0.800   3.334   3.293
 5446TIP3   OH216343   3.154   3.976   0.005
 5446TIP3    H116344   3.173   3.882  -0.005
 5446TIP3    H216345   3.135   3.986   0.098
 5447TIP3   OH216346   6.092   5.729   3.047
 5447TIP3    H116347   6.090   5.685   3.132
 5447TIP3    H216348   6.019   5.689   2.998
 5448TIP3   OH216349   4.979   3.714   0.380
 5448TIP3    H116350   4.887   3.687   0.386
 5448TIP3    H216351   5.026   3.648   0.432
 5449TIP3   OH216352   4.807   0.683   1.243
 5449TIP3    H116353   4.748   0.608   1.254
 5449TIP3    H216354   4.817   0.718   1.331
 5450TIP3   OH216355   6.201   4.035   2.160
 5450TIP3    H116356   6.116   4.004   2.128
 5450TIP3    H216357   6.237   3.962   2.209
 5451TIP3   OH216358   0.395   3.948   4.068
 5451TIP3    H116359   0.457   4.019   4.056
 5451TIP3    H216360   0.316   3.990   4.101
 5452TIP3   OH216361   4.825   3.235   3.185
 5452TIP3    H116362   4.788   3.186   3.112
 5452TIP3    H216363   4.750   3.266   3.234
 5453TIP3   OH216364   4.795   1.606   1.569
 5453TIP3    H116365   4.725   1.647   1.519
 5453TIP3    H216366   4.832   1.540   1.509
 5454TIP3   OH216367   3.618   1.270   1.903
 5454TIP3    H116368   3.572   1.272   1.819
 5454TIP3    H216369   3.550   1.282   1.968
 5455TIP3   OH216370   5.021   0.223   1.843
 5455TIP3    H116371   5.036   0.262   1.756
 5455TIP3    H216372   4.930   0.244   1.863
 5456TIP3   OH216373   2.275   2.281   3.045
 5456TIP3    H116374   2.342   2.279   3.113
 5456TIP3    H216375   2.196   2.311   3.089
 5457TIP3   OH216376   3.451   2.884   1.524
 5457TIP3    H116377   3.521   2.916   1.467
 5457TIP3    H216378   3.418   2.805   1.480
 5458TIP3   OH216379   0.980   1.874   1.474
 5458TIP3    H116380   1.033   1.902   1.548
 5458TIP3    H216381   1.040   1.825   1.419
 5459TIP3   OH216382   2.701   4.444   2.784
 5459TIP3    H116383   2.618   4.403   2.805
 5459TIP3    H216384   2.713   4.511   2.852
 5460TIP3   OH216385   3.440   1.563   4.622
 5460TIP3    H116386   3.488   1.611   4.690
 5460TIP3    H216387   3.445   1.472   4.649
 5461TIP3   OH216388   5.192   0.024   5.093
 5461TIP3    H116389   5.277   0.009   5.135
 5461TIP3    H216390   5.147   0.085   5.151
 5462TIP3   OH216391   4.373   0.287   0.352
 5462TIP3    H116392   4.445   0.320   0.297
 5462TIP3    H216393   4.399   0.197   0.373
 5463TIP3   OH216394   3.784   1.182   2.315
 5463TIP3    H116395   3.814   1.249   2.376
 5463TIP3    H216396   3.808   1.099   2.357
 5464TIP3   OH216397   3.462   0.778   0.339
 5464TIP3    H116398   3.543   0.790   0.289
 5464TIP3    H216399   3.479   0.817   0.424
 5465TIP3   OH216400   5.525   4.622   4.397
 5465TIP3    H116401   5.606   4.673   4.397
 5465TIP3    H216402   5.525   4.577   4.482
 5466TIP3   OH216403   1.083   2.432   5.107
 5466TIP3    H116404   1.043   2.378   5.039
 5466TIP3    H216405   1.089   2.375   5.183
 5467TIP3   OH216406   2.390   1.170   2.314
 5467TIP3    H116407   2.307   1.128   2.334
 5467TIP3    H216408   2.456   1.106   2.342
 5468TIP3   OH216409   5.607   2.312   0.803
 5468TIP3    H116410   5.692   2.301   0.760
 5468TIP3    H216411   5.611   2.399   0.842
 5469TIP3   OH216412   2.342   0.336   4.565
 5469TIP3    H116413   2.363   0.244   4.580
 5469TIP3    H216414   2.320   0.370   4.652
 5470TIP3   OH216415   3.014   0.190   4.167
 5470TIP3    H116416   2.932   0.156   4.201
 5470TIP3    H216417   3.079   0.124   4.190
 5471TIP3   OH216418   5.392   1.867   0.204
 5471TIP3    H116419   5.378   1.950   0.159
 5471TIP3    H216420   5.331   1.807   0.161
 5472TIP3   OH216421   4.721   5.757   2.703
 5472TIP3    H116422   4.714   5.843   2.745
 5472TIP3    H216423   4.630   5.734   2.680
 5473TIP3   OH216424   0.594   1.561   3.946
 5473TIP3    H116425   0.622   1.532   4.033
 5473TIP3    H216426   0.626   1.651   3.940
 5474TIP3   OH216427   5.383   1.345   3.357
 5474TIP3    H116428   5.397   1.399   3.279
 5474TIP3    H216429   5.340   1.403   3.419
 5475TIP3   OH216430   0.910   1.522   3.454
 5475TIP3    H116431   1.003   1.539   3.470
 5475TIP3    H216432   0.909   1.437   3.409
 5476TIP3   OH216433   5.787   3.223   2.015
 5476TIP3    H116434   5.712   3.176   2.051
 5476TIP3    H216435   5.755   3.261   1.933
 5477TIP3   OH216436   3.070   0.677   5.199
 5477TIP3    H116437   3.018   0.757   5.206
 5477TIP3    H216438   3.127   0.678   5.276
 5478TIP3   OH216439   3.589   0.394   1.324
 5478TIP3    H116440   3.672   0.419   1.366
 5478TIP3    H216441   3.541   0.348   1.393
 5479TIP3   OH216442   6.235   2.634   0.908
 5479TIP3    H116443   6.295   2.667   0.841
 5479TIP3    H216444   6.289   2.576   0.962
 5480TIP3   OH216445   1.358   3.063   4.776
 5480TIP3    H116446   1.345   2.996   4.844
 5480TIP3    H216447   1.374   3.012   4.696
 5481TIP3   OH216448   2.022   2.383   3.068
 5481TIP3    H116449   2.015   2.467   3.113
 5481TIP3    H216450   1.942   2.336   3.091
 5482TIP3   OH216451   4.431   2.121   2.151
 5482TIP3    H116452   4.373   2.181   2.104
 5482TIP3    H216453   4.498   2.098   2.086
 5483TIP3   OH216454   3.052   3.270   4.511
 5483TIP3    H116455   3.096   3.228   4.437
 5483TIP3    H216456   3.102   3.350   4.527
 5484TIP3   OH216457   0.928   3.703   2.079
 5484TIP3    H116458   0.901   3.644   2.150
 5484TIP3    H216459   0.965   3.645   2.013
 5485TIP3   OH216460   5.383   2.981   3.942
 5485TIP3    H116461   5.377   3.071   3.910
 5485TIP3    H216462   5.353   2.927   3.868
 5486TIP3   OH216463   3.364   0.299   1.132
 5486TIP3    H116464   3.304   0.351   1.185
 5486TIP3    H216465   3.332   0.209   1.140
 5487TIP3   OH216466   5.706   5.785   2.600
 5487TIP3    H116467   5.627   5.838   2.610
 5487TIP3    H216468   5.731   5.762   2.689
 5488TIP3   OH216469   4.703   0.992   4.654
 5488TIP3    H116470   4.715   0.990   4.559
 5488TIP3    H216471   4.633   1.056   4.668
 5489TIP3   OH216472   0.626   5.752   3.551
 5489TIP3    H116473   0.532   5.738   3.565
 5489TIP3    H216474   0.630   5.820   3.484
 5490TIP3   OH216475   3.792   3.327   4.731
 5490TIP3    H116476   3.781   3.317   4.636
 5490TIP3    H216477   3.874   3.376   4.741
 5491TIP3   OH216478   3.440   5.196   2.393
 5491TIP3    H116479   3.454   5.161   2.482
 5491TIP3    H216480   3.483   5.133   2.336
 5492TIP3   OH216481   2.234   5.505   3.792
 5492TIP3    H116482   2.173   5.499   3.719
 5492TIP3    H216483   2.318   5.527   3.751
 5493TIP3   OH216484   4.118   4.200   2.134
 5493TIP3    H116485   4.112   4.116   2.179
 5493TIP3    H216486   4.035   4.208   2.087
 5494TIP3   OH216487   6.337   4.601   3.171
 5494TIP3    H116488   6.318   4.560   3.086
 5494TIP3    H216489   6.391   4.537   3.217
 5495TIP3   OH216490   0.769   4.779   2.587
 5495TIP3    H116491   0.705   4.821   2.529
 5495TIP3    H216492   0.830   4.849   2.611
 5496TIP3   OH216493   1.240   0.212   0.024
 5496TIP3    H116494   1.165   0.171  -0.020
 5496TIP3    H216495   1.289   0.139   0.061
 5497TIP3   OH216496   5.504   4.514   0.820
 5497TIP3    H116497   5.490   4.464   0.900
 5497TIP3    H216498   5.597   4.502   0.800
 5498TIP3   OH216499   0.179   2.694   2.545
 5498TIP3    H116500   0.102   2.743   2.573
 5498TIP3    H216501   0.232   2.685   2.624
 5499TIP3   OH216502   4.053   3.831   1.904
 5499TIP3    H116503   4.093   3.883   1.974
 5499TIP3    H216504   4.029   3.749   1.946
 5500TIP3   OH216505   4.048   2.354   0.392
 5500TIP3    H116506   3.977   2.395   0.440
 5500TIP3    H216507   4.005   2.294   0.332
 5501TIP3   OH216508   4.521   3.753   1.618
 5501TIP3    H116509   4.574   3.809   1.562
 5501TIP3    H216510   4.583   3.715   1.680
 5502TIP3   OH216511   4.292   2.231   1.308
 5502TIP3    H116512   4.378   2.270   1.324
 5502TIP3    H216513   4.283   2.229   1.213
 5503TIP3   OH216514   2.599   4.168   2.495
 5503TIP3    H116515   2.683   4.215   2.501
 5503TIP3    H216516   2.533   4.234   2.518
 5504TIP3   OH216517   5.514   3.043   4.624
 5504TIP3    H116518   5.542   2.952   4.622
 5504TIP3    H216519   5.595   3.093   4.615
 5505TIP3   OH216520   0.753   3.681   3.192
 5505TIP3    H116521   0.694   3.752   3.166
 5505TIP3    H216522   0.825   3.685   3.128
 5506TIP3   OH216523   3.751   5.292   4.104
 5506TIP3    H116524   3.828   5.347   4.115
 5506TIP3    H216525   3.772   5.211   4.150
 5507TIP3   OH216526   4.733   4.291   1.822
 5507TIP3    H116527   4.706   4.234   1.750
 5507TIP3    H216528   4.744   4.377   1.782
 5508TIP3   OH216529   2.643   0.254   5.049
 5508TIP3    H116530   2.621   0.331   5.102
 5508TIP3    H216531   2.732   0.271   5.018
 5509TIP3   OH216532   3.821   2.809   3.657
 5509TIP3    H116533   3.784   2.896   3.644
 5509TIP3    H216534   3.800   2.787   3.748
 5510TIP3   OH216535   3.464   4.834   0.148
 5510TIP3    H116536   3.375   4.813   0.176
 5510TIP3    H216537   3.508   4.864   0.228
 5511TIP3   OH216538   0.539   0.697   3.954
 5511TIP3    H116539   0.617   0.649   3.981
 5511TIP3    H216540   0.535   0.772   4.014
 5512TIP3   OH216541   0.584   3.436   2.044
 5512TIP3    H116542   0.659   3.377   2.054
 5512TIP3    H216543   0.523   3.409   2.113
 5513TIP3   OH216544   1.643   2.806   3.303
 5513TIP3    H116545   1.640   2.780   3.395
 5513TIP3    H216546   1.692   2.888   3.302
 5514TIP3   OH216547   2.525   0.082   2.829
 5514TIP3    H116548   2.533   0.172   2.799
 5514TIP3    H216549   2.614   0.047   2.825
 5515TIP3   OH216550   1.186   4.098   0.948
 5515TIP3    H116551   1.166   4.111   1.041
 5515TIP3    H216552   1.101   4.102   0.905
 5516TIP3   OH216553   5.414   3.720   4.394
 5516TIP3    H116554   5.509   3.725   4.377
 5516TIP3    H216555   5.404   3.644   4.451
 5517TIP3   OH216556   1.844   0.074   3.251
 5517TIP3    H116557   1.822   0.116   3.168
 5517TIP3    H216558   1.896   0.140   3.298
 5518TIP3   OH216559   2.396   4.208   0.580
 5518TIP3    H116560   2.476   4.199   0.633
 5518TIP3    H216561   2.367   4.298   0.595
 5519TIP3   OH216562   4.180   3.341   4.532
 5519TIP3    H116563   4.164   3.353   4.439
 5519TIP3    H216564   4.148   3.422   4.572
 5520TIP3   OH216565   3.985   5.634   1.279
 5520TIP3    H116566   3.973   5.723   1.246
 5520TIP3    H216567   4.070   5.607   1.243
 5521TIP3   OH216568   5.229   3.885   2.133
 5521TIP3    H116569   5.317   3.854   2.158
 5521TIP3    H216570   5.183   3.806   2.105
 5522TIP3   OH216571   4.977   1.182   1.733
 5522TIP3    H116572   4.952   1.272   1.713
 5522TIP3    H216573   5.047   1.190   1.798
 5523TIP3   OH216574   4.414   1.746   1.986
 5523TIP3    H116575   4.392   1.654   2.000
 5523TIP3    H216576   4.499   1.744   1.941
 5524TIP3   OH216577   0.542   2.642   3.328
 5524TIP3    H116578   0.521   2.554   3.358
 5524TIP3    H216579   0.597   2.629   3.250
 5525TIP3   OH216580   1.403   5.869   1.816
 5525TIP3    H116581   1.448   5.805   1.872
 5525TIP3    H216582   1.310   5.851   1.829
 5526TIP3   OH216583   0.988   1.599   3.967
 5526TIP3    H116584   0.982   1.570   3.876
 5526TIP3    H216585   0.915   1.660   3.978
 5527TIP3   OH216586   0.562   4.597   2.594
 5527TIP3    H116587   0.564   4.558   2.506
 5527TIP3    H216588   0.633   4.660   2.594
 5528TIP3   OH216589   2.143   4.147   2.544
 5528TIP3    H116590   2.218   4.087   2.541
 5528TIP3    H216591   2.168   4.220   2.488
 5529TIP3   OH216592   5.259   3.892   0.697
 5529TIP3    H116593   5.255   3.858   0.786
 5529TIP3    H216594   5.266   3.815   0.642
 5530TIP3   OH216595   4.345   2.403   0.823
 5530TIP3    H116596   4.271   2.382   0.767
 5530TIP3    H216597   4.419   2.410   0.764
 5531TIP3   OH216598   2.198   1.003   0.399
 5531TIP3    H116599   2.273   0.945   0.386
 5531TIP3    H216600   2.191   1.013   0.494
 5532TIP3   OH216601   6.196   0.058   1.404
 5532TIP3    H116602   6.286   0.089   1.401
 5532TIP3    H216603   6.142   0.137   1.394
 5533TIP3   OH216604   1.527   5.258   0.106
 5533TIP3    H116605   1.533   5.301   0.021
 5533TIP3    H216606   1.485   5.174   0.088
 5534TIP3   OH216607   3.613   5.433   2.510
 5534TIP3    H116608   3.541   5.461   2.566
 5534TIP3    H216609   3.575   5.429   2.422
 5535TIP3   OH216610   1.072   3.298   2.139
 5535TIP3    H116611   1.156   3.271   2.173
 5535TIP3    H216612   1.050   3.233   2.072
 5536TIP3   OH216613   3.175   2.943   2.726
 5536TIP3    H116614   3.229   2.908   2.655
 5536TIP3    H216615   3.230   2.936   2.804
 5537TIP3   OH216616   4.095   1.262   3.890
 5537TIP3    H116617   4.172   1.253   3.946
 5537TIP3    H216618   4.040   1.188   3.913
 5538TIP3   OH216619   2.238   2.252   3.446
 5538TIP3    H116620   2.272   2.245   3.535
 5538TIP3    H216621   2.255   2.167   3.406
 5539TIP3   OH216622   0.082   1.675   1.821
 5539TIP3    H116623   0.095   1.750   1.763
 5539TIP3    H216624  -0.013   1.667   1.828
 5540TIP3   OH216625   1.413   4.253   1.193
 5540TIP3    H116626   1.490   4.223   1.143
 5540TIP3    H216627   1.398   4.183   1.257
 5541TIP3   OH216628   3.531   0.377   4.235
 5541TIP3    H116629   3.550   0.319   4.308
 5541TIP3    H216630   3.449   0.421   4.259
 5542TIP3   OH216631   2.655   0.608   3.808
 5542TIP3    H116632   2.684   0.691   3.846
 5542TIP3    H216633   2.584   0.632   3.749
 5543TIP3   OH216634   2.371   0.387   2.497
 5543TIP3    H116635   2.424   0.381   2.577
 5543TIP3    H216636   2.346   0.480   2.492
 5544TIP3   OH216637   1.663   4.920   4.020
 5544TIP3    H116638   1.687   4.886   4.107
 5544TIP3    H216639   1.631   5.008   4.037
 5545TIP3   OH216640   3.984   4.583   0.759
 5545TIP3    H116641   3.938   4.625   0.685
 5545TIP3    H216642   4.070   4.625   0.760
 5546TIP3   OH216643   4.737   4.040   3.329
 5546TIP3    H116644   4.680   4.102   3.373
 5546TIP3    H216645   4.746   4.073   3.240
 5547TIP3   OH216646   1.361   5.236   0.405
 5547TIP3    H116647   1.329   5.254   0.317
 5547TIP3    H216648   1.290   5.189   0.448
 5548TIP3   OH216649   0.517   0.647   0.452
 5548TIP3    H116650   0.470   0.568   0.425
 5548TIP3    H216651   0.565   0.675   0.374
 5549TIP3   OH216652   1.052   4.804   4.654
 5549TIP3    H116653   1.098   4.811   4.571
 5549TIP3    H216654   1.068   4.714   4.684
 5550TIP3   OH216655   3.511   0.628   1.504
 5550TIP3    H116656   3.517   0.721   1.484
 5550TIP3    H216657   3.542   0.584   1.425
 5551TIP3   OH216658   5.768   2.256   3.382
 5551TIP3    H116659   5.734   2.263   3.293
 5551TIP3    H216660   5.761   2.345   3.417
 5552TIP3   OH216661   5.281   2.385   5.160
 5552TIP3    H116662   5.283   2.298   5.121
 5552TIP3    H216663   5.189   2.402   5.178
 5553TIP3   OH216664   1.976   2.431   1.600
 5553TIP3    H116665   2.047   2.404   1.542
 5553TIP3    H216666   1.930   2.500   1.551
 5554TIP3   OH216667   5.526   4.960   1.455
 5554TIP3    H116668   5.504   4.931   1.367
 5554TIP3    H216669   5.596   4.900   1.483
 5555TIP3   OH216670   0.803   5.292   0.176
 5555TIP3    H116671   0.732   5.265   0.234
 5555TIP3    H216672   0.771   5.372   0.133
 5556TIP3   OH216673   3.998   4.539   0.462
 5556TIP3    H116674   4.060   4.600   0.423
 5556TIP3    H216675   4.026   4.453   0.432
 5557TIP3   OH216676   6.135   4.242   3.473
 5557TIP3    H116677   6.148   4.313   3.536
 5557TIP3    H216678   6.111   4.286   3.391
 5558TIP3   OH216679   3.039   4.387   1.987
 5558TIP3    H116680   2.985   4.465   1.972
 5558TIP3    H216681   2.995   4.318   1.938
 5559TIP3   OH216682   0.222   5.584   4.347
 5559TIP3    H116683   0.173   5.524   4.404
 5559TIP3    H216684   0.277   5.527   4.293
 5560TIP3   OH216685   0.446   2.399   0.927
 5560TIP3    H116686   0.445   2.443   0.842
 5560TIP3    H216687   0.398   2.318   0.913
 5561TIP3   OH216688   4.520   5.921   4.147
 5561TIP3    H116689   4.572   6.001   4.141
 5561TIP3    H216690   4.577   5.859   4.192
 5562TIP3   OH216691   3.490   3.549   0.566
 5562TIP3    H116692   3.498   3.632   0.613
 5562TIP3    H216693   3.475   3.484   0.635
 5563TIP3   OH216694   4.642   1.348   0.233
 5563TIP3    H116695   4.724   1.301   0.249
 5563TIP3    H216696   4.576   1.279   0.225
 5564TIP3   OH216697   1.715   1.243   0.195
 5564TIP3    H116698   1.803   1.243   0.233
 5564TIP3    H216699   1.675   1.324   0.225
 5565TIP3   OH216700   5.369   0.832   4.210
 5565TIP3    H116701   5.277   0.839   4.185
 5565TIP3    H216702   5.409   0.781   4.141
 5566TIP3   OH216703   4.245   2.361   2.951
 5566TIP3    H116704   4.150   2.357   2.947
 5566TIP3    H216705   4.274   2.274   2.926
 5567TIP3   OH216706   4.144   4.341   0.682
 5567TIP3    H116707   4.124   4.312   0.593
 5567TIP3    H216708   4.071   4.397   0.706
 5568TIP3   OH216709   3.240   1.130   2.327
 5568TIP3    H116710   3.277   1.056   2.280
 5568TIP3    H216711   3.176   1.091   2.387
 5569TIP3   OH216712   1.591   6.007   1.138
 5569TIP3    H116713   1.528   5.975   1.074
 5569TIP3    H216714   1.674   5.968   1.112
 5570TIP3   OH216715   3.011   4.730   0.417
 5570TIP3    H116716   3.049   4.643   0.414
 5570TIP3    H216717   3.019   4.757   0.508
 5571TIP3   OH216718   0.875   2.912   4.040
 5571TIP3    H116719   0.938   2.960   3.986
 5571TIP3    H216720   0.802   2.893   3.980
 5572TIP3   OH216721   1.178   3.287   4.870
 5572TIP3    H116722   1.121   3.319   4.801
 5572TIP3    H216723   1.232   3.220   4.828
 5573TIP3   OH216724   4.851   3.498   1.870
 5573TIP3    H116725   4.807   3.424   1.912
 5573TIP3    H216726   4.944   3.483   1.884
 5574TIP3   OH216727   4.628   5.594   5.056
 5574TIP3    H116728   4.588   5.608   5.142
 5574TIP3    H216729   4.599   5.507   5.030
 5575TIP3   OH216730   4.030   0.800   3.728
 5575TIP3    H116731   3.987   0.786   3.644
 5575TIP3    H216732   4.122   0.811   3.707
 5576TIP3   OH216733   4.322   1.573   3.515
 5576TIP3    H116734   4.265   1.622   3.455
 5576TIP3    H216735   4.360   1.640   3.571
 5577TIP3   OH216736   5.784   5.294   4.475
 5577TIP3    H116737   5.780   5.199   4.469
 5577TIP3    H216738   5.714   5.318   4.535
 5578TIP3   OH216739   3.604   2.025   5.078
 5578TIP3    H116740   3.689   2.066   5.092
 5578TIP3    H216741   3.540   2.093   5.100
 5579TIP3   OH216742   3.917   3.192   3.103
 5579TIP3    H116743   3.879   3.135   3.036
 5579TIP3    H216744   3.985   3.139   3.144
 5580TIP3   OH216745   2.976   2.038   2.122
 5580TIP3    H116746   3.007   1.952   2.150
 5580TIP3    H216747   3.036   2.100   2.163
 5581TIP3   OH216748   3.986   2.143   1.766
 5581TIP3    H116749   3.998   2.097   1.849
 5581TIP3    H216750   3.950   2.077   1.707
 5582TIP3   OH216751   2.216   5.405   4.046
 5582TIP3    H116752   2.241   5.330   3.991
 5582TIP3    H216753   2.200   5.475   3.983
 5583TIP3   OH216754   3.995   4.258   0.363
 5583TIP3    H116755   3.907   4.256   0.325
 5583TIP3    H216756   4.054   4.250   0.288
 5584TIP3   OH216757   3.098   4.968   0.851
 5584TIP3    H116758   3.137   5.044   0.895
 5584TIP3    H216759   3.004   4.976   0.869
 5585TIP3   OH216760   0.689   0.243   0.690
 5585TIP3    H116761   0.750   0.205   0.752
 5585TIP3    H216762   0.675   0.175   0.625
 5586TIP3   OH216763   1.932   1.863   1.143
 5586TIP3    H116764   1.902   1.947   1.177
 5586TIP3    H216765   1.924   1.872   1.048
 5587TIP3   OH216766   3.802   3.522   1.655
 5587TIP3    H116767   3.738   3.521   1.584
 5587TIP3    H216768   3.769   3.586   1.717
 5588TIP3   OH216769   5.740   2.589   1.056
 5588TIP3    H116770   5.835   2.590   1.051
 5588TIP3    H216771   5.718   2.497   1.075
 5589TIP3   OH216772   1.563   0.378   0.930
 5589TIP3    H116773   1.478   0.396   0.969
 5589TIP3    H216774   1.555   0.290   0.893
 5590TIP3   OH216775   1.676   5.377   1.515
 5590TIP3    H116776   1.672   5.372   1.420
 5590TIP3    H216777   1.737   5.308   1.541
 5591TIP3   OH216778   0.371   2.173   1.155
 5591TIP3    H116779   0.362   2.170   1.060
 5591TIP3    H216780   0.305   2.112   1.188
 5592TIP3   OH216781   2.277   5.804   2.518
 5592TIP3    H116782   2.194   5.765   2.492
 5592TIP3    H216783   2.340   5.732   2.510
 5593TIP3   OH216784   1.530   1.707   3.729
 5593TIP3    H116785   1.608   1.677   3.683
 5593TIP3    H216786   1.492   1.773   3.671
 5594TIP3   OH216787   1.510   3.640   2.243
 5594TIP3    H116788   1.594   3.603   2.217
 5594TIP3    H216789   1.502   3.719   2.190
 5595TIP3   OH216790   1.529   3.244   3.028
 5595TIP3    H116791   1.481   3.283   3.101
 5595TIP3    H216792   1.472   3.175   2.995
 5596TIP3   OH216793   5.160   2.379   0.884
 5596TIP3    H116794   5.174   2.414   0.796
 5596TIP3    H216795   5.246   2.349   0.913
 5597TIP3   OH216796   0.939   1.270   2.247
 5597TIP3    H116797   0.891   1.253   2.165
 5597TIP3    H216798   0.881   1.327   2.297
 5598TIP3   OH216799   1.110   1.400   1.251
 5598TIP3    H116800   1.166   1.401   1.173
 5598TIP3    H216801   1.164   1.360   1.319
 5599TIP3   OH216802   0.811   5.554   0.063
 5599TIP3    H116803   0.762   5.501   0.000
 5599TIP3    H216804   0.842   5.629   0.012
 5600TIP3   OH216805   3.705   4.591   1.850
 5600TIP3    H116806   3.786   4.544   1.831
 5600TIP3    H216807   3.641   4.554   1.788
 5601TIP3   OH216808   5.432   2.801   2.082
 5601TIP3    H116809   5.400   2.718   2.116
 5601TIP3    H216810   5.493   2.777   2.012
 5602TIP3   OH216811   3.078   0.361   4.790
 5602TIP3    H116812   3.097   0.424   4.720
 5602TIP3    H216813   2.996   0.392   4.828
 5603TIP3   OH216814   2.029   5.123   3.859
 5603TIP3    H116815   2.115   5.164   3.846
 5603TIP3    H216816   1.969   5.196   3.871
 5604TIP3   OH216817   1.361   3.253   2.076
 5604TIP3    H116818   1.381   3.159   2.074
 5604TIP3    H216819   1.402   3.287   1.996
 5605TIP3   OH216820   5.444   5.831   2.682
 5605TIP3    H116821   5.409   5.882   2.755
 5605TIP3    H216822   5.366   5.806   2.632
 5606TIP3   OH216823   1.477   2.613   1.843
 5606TIP3    H116824   1.559   2.658   1.866
 5606TIP3    H216825   1.412   2.682   1.840
 5607TIP3   OH216826   2.567   0.172   0.557
 5607TIP3    H116827   2.611   0.160   0.641
 5607TIP3    H216828   2.595   0.096   0.505
 5608TIP3   OH216829   5.734   5.330   3.532
 5608TIP3    H116830   5.753   5.238   3.516
 5608TIP3    H216831   5.748   5.343   3.625
 5609TIP3   OH216832   2.469   4.770   4.266
 5609TIP3    H116833   2.562   4.760   4.245
 5609TIP3    H216834   2.425   4.714   4.202
 5610TIP3   OH216835   0.311   2.570   1.097
 5610TIP3    H116836   0.341   2.503   1.036
 5610TIP3    H216837   0.314   2.651   1.047
 5611TIP3   OH216838   3.187   1.802   3.335
 5611TIP3    H116839   3.251   1.769   3.398
 5611TIP3    H216840   3.126   1.730   3.323
 5612TIP3   OH216841   2.904   1.690   3.133
 5612TIP3    H116842   2.965   1.627   3.170
 5612TIP3    H216843   2.957   1.768   3.115
 5613TIP3   OH216844   0.154   3.765   2.469
 5613TIP3    H116845   0.114   3.851   2.460
 5613TIP3    H216846   0.170   3.736   2.379
 5614TIP3   OH216847   0.106   1.239   4.222
 5614TIP3    H116848   0.029   1.293   4.240
 5614TIP3    H216849   0.084   1.192   4.142
 5615TIP3   OH216850   2.062   1.080   2.310
 5615TIP3    H116851   1.997   1.041   2.368
 5615TIP3    H216852   2.133   1.016   2.306
 5616TIP3   OH216853   5.909   2.016   3.994
 5616TIP3    H116854   5.926   2.076   4.067
 5616TIP3    H216855   5.824   2.045   3.960
 5617TIP3   OH216856   4.017   2.238   0.075
 5617TIP3    H116857   3.963   2.209   0.001
 5617TIP3    H216858   3.992   2.181   0.147
 5618TIP3   OH216859   5.653   1.586   1.459
 5618TIP3    H116860   5.742   1.592   1.494
 5618TIP3    H216861   5.632   1.493   1.466
 5619TIP3   OH216862   1.348   5.312   5.207
 5619TIP3    H116863   1.273   5.258   5.181
 5619TIP3    H216864   1.415   5.295   5.141
 5620TIP3   OH216865   5.401   5.838   1.831
 5620TIP3    H116866   5.436   5.808   1.915
 5620TIP3    H216867   5.393   5.759   1.778
 5621TIP3   OH216868   5.487   4.520   3.520
 5621TIP3    H116869   5.513   4.431   3.542
 5621TIP3    H216870   5.505   4.528   3.426
 5622TIP3   OH216871   2.082   1.439   1.750
 5622TIP3    H116872   2.057   1.492   1.675
 5622TIP3    H216873   2.120   1.502   1.812
 5623TIP3   OH216874   1.820   0.954   2.358
 5623TIP3    H116875   1.755   1.015   2.392
 5623TIP3    H216876   1.791   0.868   2.389
 5624TIP3   OH216877   1.722   3.041   2.900
 5624TIP3    H116878   1.741   3.018   2.809
 5624TIP3    H216879   1.627   3.054   2.902
 5625TIP3   OH216880   3.216   3.245   4.781
 5625TIP3    H116881   3.208   3.185   4.707
 5625TIP3    H216882   3.300   3.290   4.767
 5626TIP3   OH216883   2.525   5.931   0.619
 5626TIP3    H116884   2.471   6.008   0.639
 5626TIP3    H216885   2.570   5.911   0.701
 5627TIP3   OH216886   2.766   1.026   0.858
 5627TIP3    H116887   2.783   0.969   0.933
 5627TIP3    H216888   2.708   1.094   0.893
 5628TIP3   OH216889   5.027   4.327   0.239
 5628TIP3    H116890   4.948   4.283   0.270
 5628TIP3    H216891   5.078   4.343   0.318
 5629TIP3   OH216892   5.043   5.223   2.593
 5629TIP3    H116893   5.106   5.153   2.577
 5629TIP3    H216894   4.974   5.209   2.528
 5630TIP3   OH216895   0.345   0.613   5.171
 5630TIP3    H116896   0.274   0.668   5.137
 5630TIP3    H216897   0.423   0.643   5.125
 5631TIP3   OH216898   2.954   4.531   1.164
 5631TIP3    H116899   2.950   4.437   1.151
 5631TIP3    H216900   3.046   4.554   1.148
 5632TIP3   OH216901   0.191   5.733   1.033
 5632TIP3    H116902   0.196   5.763   0.942
 5632TIP3    H216903   0.192   5.637   1.027
 5633TIP3   OH216904   5.510   1.549   4.444
 5633TIP3    H116905   5.538   1.491   4.373
 5633TIP3    H216906   5.546   1.509   4.523
 5634TIP3   OH216907   1.835   3.765   1.961
 5634TIP3    H116908   1.872   3.828   2.023
 5634TIP3    H216909   1.909   3.734   1.909
 5635TIP3   OH216910   4.923   0.821   2.151
 5635TIP3    H116911   4.857   0.887   2.128
 5635TIP3    H216912   4.943   0.777   2.068
 5636TIP3   OH216913   1.792   5.964   1.751
 5636TIP3    H116914   1.704   5.964   1.714
 5636TIP3    H216915   1.849   5.942   1.677
 5637TIP3   OH216916   0.897   2.143   2.499
 5637TIP3    H116917   0.815   2.142   2.549
 5637TIP3    H216918   0.924   2.235   2.499
 5638TIP3   OH216919   4.313   0.565   2.942
 5638TIP3    H116920   4.241   0.620   2.973
 5638TIP3    H216921   4.392   0.614   2.965
 5639TIP3   OH216922   5.518   3.361   1.930
 5639TIP3    H116923   5.508   3.387   2.022
 5639TIP3    H216924   5.481   3.434   1.881
 5640TIP3   OH216925   0.411   1.535   3.400
 5640TIP3    H116926   0.354   1.463   3.372
 5640TIP3    H216927   0.490   1.524   3.348
 5641TIP3   OH216928   6.168   4.302   2.180
 5641TIP3    H116929   6.169   4.313   2.085
 5641TIP3    H216930   6.184   4.209   2.193
 5642TIP3   OH216931   6.371   2.822   1.739
 5642TIP3    H116932   6.402   2.877   1.812
 5642TIP3    H216933   6.288   2.863   1.713
 5643TIP3   OH216934   5.075   2.799   4.519
 5643TIP3    H116935   5.061   2.822   4.611
 5643TIP3    H216936   5.123   2.873   4.482
 5644TIP3   OH216937   5.729   2.311   4.515
 5644TIP3    H116938   5.716   2.306   4.420
 5644TIP3    H216939   5.642   2.331   4.550
 5645TIP3   OH216940   4.980   2.469   0.603
 5645TIP3    H116941   4.964   2.414   0.680
 5645TIP3    H216942   5.073   2.457   0.584
 5646TIP3   OH216943   6.234   5.538   0.842
 5646TIP3    H116944   6.206   5.603   0.906
 5646TIP3    H216945   6.208   5.454   0.881
 5647TIP3   OH216946   4.925   1.028   0.692
 5647TIP3    H116947   4.917   0.970   0.767
 5647TIP3    H216948   4.844   1.078   0.691
 5648TIP3   OH216949   3.748   3.485   3.627
 5648TIP3    H116950   3.723   3.491   3.535
 5648TIP3    H216951   3.841   3.462   3.625
 5649TIP3   OH216952   0.873   1.248   3.076
 5649TIP3    H116953   0.845   1.336   3.053
 5649TIP3    H216954   0.862   1.197   2.996
 5650TIP3   OH216955   0.038   5.748   4.706
 5650TIP3    H116956  -0.008   5.669   4.734
 5650TIP3    H216957  -0.026   5.798   4.656
 5651TIP3   OH216958   1.416   1.991   4.903
 5651TIP3    H116959   1.369   2.075   4.904
 5651TIP3    H216960   1.424   1.970   4.810
 5652TIP3   OH216961   4.764   0.777   1.510
 5652TIP3    H116962   4.713   0.728   1.575
 5652TIP3    H216963   4.743   0.869   1.527
 5653TIP3   OH216964   4.262   1.870   1.733
 5653TIP3    H116965   4.267   1.865   1.637
 5653TIP3    H216966   4.284   1.961   1.753
 5654TIP3   OH216967   6.314   2.493   3.589
 5654TIP3    H116968   6.299   2.493   3.494
 5654TIP3    H216969   6.237   2.539   3.624
 5655TIP3   OH216970   2.502   4.306   0.054
 5655TIP3    H116971   2.592   4.338   0.058
 5655TIP3    H216972   2.508   4.213   0.075
 5656TIP3   OH216973   2.234   1.748   4.851
 5656TIP3    H116974   2.301   1.800   4.895
 5656TIP3    H216975   2.279   1.708   4.777
 5657TIP3   OH216976   0.133   2.019   1.179
 5657TIP3    H116977   0.120   1.948   1.242
 5657TIP3    H216978   0.137   1.974   1.094
 5658TIP3   OH216979   5.166   2.077   4.554
 5658TIP3    H116980   5.169   2.122   4.469
 5658TIP3    H216981   5.099   2.009   4.542
 5659TIP3   OH216982   5.756   1.766   4.405
 5659TIP3    H116983   5.817   1.724   4.466
 5659TIP3    H216984   5.675   1.716   4.415
 5660TIP3   OH216985   0.210   5.054   3.291
 5660TIP3    H116986   0.235   4.962   3.279
 5660TIP3    H216987   0.118   5.050   3.316
 5661TIP3   OH216988   2.792   0.113   1.997
 5661TIP3    H116989   2.842   0.033   1.986
 5661TIP3    H216990   2.811   0.164   1.918
 5662TIP3   OH216991   1.051   3.798   1.058
 5662TIP3    H116992   1.060   3.796   0.962
 5662TIP3    H216993   1.022   3.887   1.077
 5663TIP3   OH216994   0.922   1.114   1.123
 5663TIP3    H116995   0.940   1.208   1.121
 5663TIP3    H216996   0.885   1.099   1.210
 5664TIP3   OH216997   2.497   5.746   0.298
 5664TIP3    H116998   2.476   5.683   0.366
 5664TIP3    H216999   2.416   5.755   0.247
 5665TIP3   OH217000   1.871   4.201   3.481
 5665TIP3    H117001   1.905   4.117   3.449
 5665TIP3    H217002   1.927   4.267   3.440
 5666TIP3   OH217003   2.225   3.203   1.679
 5666TIP3    H117004   2.216   3.276   1.617
 5666TIP3    H217005   2.242   3.246   1.764
 5667TIP3   OH217006   4.178   0.530   1.860
 5667TIP3    H117007   4.107   0.467   1.870
 5667TIP3    H217008   4.134   0.614   1.849
 5668TIP3   OH217009   4.079   5.483   3.679
 5668TIP3    H117010   4.074   5.409   3.740
 5668TIP3    H217011   4.159   5.466   3.629
 5669TIP3   OH217012   0.766   4.428   0.819
 5669TIP3    H117013   0.713   4.371   0.763
 5669TIP3    H217014   0.765   4.386   0.905
 5670TIP3   OH217015   3.994   5.413   1.861
 5670TIP3    H117016   4.054   5.457   1.921
 5670TIP3    H217017   3.907   5.433   1.896
 5671TIP3   OH217018   1.259   0.484   4.618
 5671TIP3    H117019   1.288   0.554   4.559
 5671TIP3    H217020   1.286   0.514   4.705
 5672TIP3   OH217021   5.873   4.098   3.531
 5672TIP3    H117022   5.941   4.154   3.566
 5672TIP3    H217023   5.919   4.019   3.503
 5673TIP3   OH217024   0.914   1.693   2.203
 5673TIP3    H117025   0.887   1.784   2.195
 5673TIP3    H217026   1.003   1.690   2.168
 5674TIP3   OH217027   0.881   2.348   1.210
 5674TIP3    H117028   0.794   2.336   1.173
 5674TIP3    H217029   0.941   2.324   1.139
 5675TIP3   OH217030   6.224   1.500   4.783
 5675TIP3    H117031   6.310   1.489   4.824
 5675TIP3    H217032   6.209   1.595   4.783
 5676TIP3   OH217033   3.441   0.707   2.800
 5676TIP3    H117034   3.525   0.719   2.756
 5676TIP3    H217035   3.412   0.619   2.776
 5677TIP3   OH217036   4.907   5.783   3.529
 5677TIP3    H117037   4.972   5.797   3.460
 5677TIP3    H217038   4.943   5.711   3.582
 5678TIP3   OH217039   5.436   5.242   3.500
 5678TIP3    H117040   5.528   5.259   3.517
 5678TIP3    H217041   5.390   5.318   3.536
 5679TIP3   OH217042   4.708   5.748   0.080
 5679TIP3    H117043   4.719   5.676   0.142
 5679TIP3    H217044   4.615   5.746   0.058
 5680TIP3   OH217045   3.803   2.995   1.713
 5680TIP3    H117046   3.789   2.918   1.659
 5680TIP3    H217047   3.835   3.062   1.652
 5681TIP3   OH217048   2.140   4.933   0.840
 5681TIP3    H117049   2.155   4.937   0.935
 5681TIP3    H217050   2.200   5.000   0.805
 5682TIP3   OH217051   0.624   2.866   1.841
 5682TIP3    H117052   0.650   2.775   1.856
 5682TIP3    H217053   0.696   2.904   1.790
 5683TIP3   OH217054   0.558   3.296   3.452
 5683TIP3    H117055   0.510   3.303   3.535
 5683TIP3    H217056   0.558   3.202   3.433
 5684TIP3   OH217057   1.587   4.068   5.039
 5684TIP3    H117058   1.506   4.100   4.999
 5684TIP3    H217059   1.558   4.022   5.118
 5685TIP3   OH217060   5.268   2.825   4.154
 5685TIP3    H117061   5.306   2.871   4.079
 5685TIP3    H217062   5.334   2.832   4.223
 5686TIP3   OH217063   2.348   1.364   3.050
 5686TIP3    H117064   2.377   1.411   3.129
 5686TIP3    H217065   2.428   1.356   2.998
 5687TIP3   OH217066   0.514   3.760   5.008
 5687TIP3    H117067   0.547   3.824   5.071
 5687TIP3    H217068   0.442   3.716   5.053
 5688TIP3   OH217069   4.104   5.105   1.621
 5688TIP3    H117070   4.072   5.127   1.534
 5688TIP3    H217071   4.123   5.011   1.617
 5689TIP3   OH217072   5.178   1.548   1.026
 5689TIP3    H117073   5.226   1.491   1.086
 5689TIP3    H217074   5.145   1.489   0.958
 5690TIP3   OH217075   0.978   2.892   1.777
 5690TIP3    H117076   0.953   2.837   1.703
 5690TIP3    H217077   1.004   2.831   1.846
 5691TIP3   OH217078   5.007   2.132   4.801
 5691TIP3    H117079   5.054   2.146   4.718
 5691TIP3    H217080   5.069   2.084   4.856
 5692TIP3   OH217081   2.301   2.341   5.041
 5692TIP3    H117082   2.378   2.308   5.088
 5692TIP3    H217083   2.337   2.395   4.970
 5693TIP3   OH217084   6.109   1.542   0.468
 5693TIP3    H117085   6.085   1.453   0.494
 5693TIP3    H217086   6.109   1.592   0.549
 5694TIP3   OH217087   0.094   0.440   0.452
 5694TIP3    H117088   0.157   0.375   0.482
 5694TIP3    H217089   0.140   0.489   0.384
 5695TIP3   OH217090   0.954   0.879   0.925
 5695TIP3    H117091   0.944   0.960   0.974
 5695TIP3    H217092   0.907   0.894   0.843
 5696TIP3   OH217093   1.714   2.302   3.918
 5696TIP3    H117094   1.715   2.383   3.868
 5696TIP3    H217095   1.675   2.326   4.002
 5697TIP3   OH217096   5.379   0.631   2.183
 5697TIP3    H117097   5.366   0.702   2.120
 5697TIP3    H217098   5.406   0.556   2.130
 5698TIP3   OH217099   6.254   5.544   4.880
 5698TIP3    H117100   6.323   5.569   4.943
 5698TIP3    H217101   6.176   5.590   4.911
 5699TIP3   OH217102   4.575   3.572   0.255
 5699TIP3    H117103   4.578   3.663   0.284
 5699TIP3    H217104   4.483   3.557   0.233
 5700TIP3   OH217105   3.475   5.059   4.344
 5700TIP3    H117106   3.472   5.063   4.249
 5700TIP3    H217107   3.413   4.990   4.368
 5701TIP3   OH217108   2.632   1.748   4.072
 5701TIP3    H117109   2.573   1.798   4.016
 5701TIP3    H217110   2.698   1.811   4.100
 5702TIP3   OH217111   1.605   5.425   2.891
 5702TIP3    H117112   1.687   5.470   2.911
 5702TIP3    H217113   1.629   5.359   2.826
 5703TIP3   OH217114   4.797   4.864   1.432
 5703TIP3    H117115   4.879   4.888   1.387
 5703TIP3    H217116   4.754   4.803   1.373
 5704TIP3   OH217117   5.867   2.774   0.199
 5704TIP3    H117118   5.821   2.852   0.168
 5704TIP3    H217119   5.941   2.809   0.249
 5705TIP3   OH217120   5.580   5.689   3.803
 5705TIP3    H117121   5.496   5.727   3.828
 5705TIP3    H217122   5.570   5.595   3.822
 5706TIP3   OH217123   1.527   5.280   3.218
 5706TIP3    H117124   1.493   5.357   3.173
 5706TIP3    H217125   1.611   5.262   3.176
 5707TIP3   OH217126   3.075   2.924   4.835
 5707TIP3    H117127   2.984   2.919   4.805
 5707TIP3    H217128   3.126   2.929   4.754
 5708TIP3   OH217129   1.714   0.106   4.449
 5708TIP3    H117130   1.678   0.069   4.530
 5708TIP3    H217131   1.647   0.166   4.418
 5709TIP3   OH217132   1.496   3.482   0.702
 5709TIP3    H117133   1.454   3.566   0.721
 5709TIP3    H217134   1.425   3.418   0.712
 5710TIP3   OH217135   0.747   3.274   3.727
 5710TIP3    H117136   0.774   3.356   3.766
 5710TIP3    H217137   0.779   3.278   3.637
 5711TIP3   OH217138   1.999   0.782   4.208
 5711TIP3    H117139   1.971   0.835   4.283
 5711TIP3    H217140   2.047   0.709   4.246
 5712TIP3   OH217141   2.328   1.333   3.941
 5712TIP3    H117142   2.388   1.345   4.015
 5712TIP3    H217143   2.306   1.422   3.914
 5713TIP3   OH217144   1.861   5.413   4.458
 5713TIP3    H117145   1.873   5.326   4.497
 5713TIP3    H217146   1.946   5.435   4.421
 5714TIP3   OH217147   4.948   0.416   4.241
 5714TIP3    H117148   4.882   0.369   4.292
 5714TIP3    H217149   5.028   0.409   4.293
 5715TIP3   OH217150   2.474   2.278   4.619
 5715TIP3    H117151   2.417   2.330   4.562
 5715TIP3    H217152   2.509   2.341   4.682
 5716TIP3   OH217153   1.628   3.264   1.292
 5716TIP3    H117154   1.662   3.217   1.215
 5716TIP3    H217155   1.616   3.195   1.358
 5717TIP3   OH217156   4.303   5.712   1.874
 5717TIP3    H117157   4.258   5.788   1.837
 5717TIP3    H217158   4.388   5.746   1.902
 5718TIP3   OH217159   0.099   2.665   0.720
 5718TIP3    H117160   0.081   2.685   0.628
 5718TIP3    H217161   0.096   2.569   0.725
 5719TIP3   OH217162   0.552   4.549   3.809
 5719TIP3    H117163   0.481   4.608   3.834
 5719TIP3    H217164   0.509   4.465   3.794
 5720TIP3   OH217165   4.986   4.652   1.889
 5720TIP3    H117166   4.899   4.672   1.925
 5720TIP3    H217167   5.045   4.660   1.963
 5721TIP3   OH217168   0.990   0.336   0.848
 5721TIP3    H117169   0.908   0.312   0.890
 5721TIP3    H217170   0.974   0.423   0.811
 5722TIP3   OH217171   3.290   1.207   3.333
 5722TIP3    H117172   3.347   1.164   3.397
 5722TIP3    H217173   3.321   1.297   3.329
 5723TIP3   OH217174   5.971   2.145   4.220
 5723TIP3    H117175   6.028   2.170   4.292
 5723TIP3    H217176   5.883   2.171   4.249
 5724TIP3   OH217177   3.717   5.707   4.393
 5724TIP3    H117178   3.712   5.784   4.449
 5724TIP3    H217179   3.709   5.633   4.453
 5725TIP3   OH217180   0.848   5.205   3.030
 5725TIP3    H117181   0.912   5.142   2.996
 5725TIP3    H217182   0.813   5.248   2.953
 5726TIP3   OH217183   5.206   5.381   4.324
 5726TIP3    H117184   5.216   5.475   4.335
 5726TIP3    H217185   5.289   5.344   4.356
 5727TIP3   OH217186   5.262   1.818   2.400
 5727TIP3    H117187   5.295   1.732   2.375
 5727TIP3    H217188   5.268   1.870   2.320
 5728TIP3   OH217189   1.581   5.323   0.744
 5728TIP3    H117190   1.529   5.340   0.665
 5728TIP3    H217191   1.515   5.307   0.812
 5729TIP3   OH217192   4.159   3.142   4.131
 5729TIP3    H117193   4.114   3.060   4.153
 5729TIP3    H217194   4.231   3.147   4.193
 5730TIP3   OH217195   0.811   0.371   1.828
 5730TIP3    H117196   0.831   0.396   1.738
 5730TIP3    H217197   0.855   0.437   1.881
 5731TIP3   OH217198   5.401   1.339   1.113
 5731TIP3    H117199   5.431   1.282   1.185
 5731TIP3    H217200   5.437   1.425   1.134
 5732TIP3   OH217201   1.690   4.955   0.544
 5732TIP3    H117202   1.734   4.991   0.468
 5732TIP3    H217203   1.758   4.947   0.610
 5733TIP3   OH217204   0.798   1.658   2.890
 5733TIP3    H117205   0.845   1.577   2.874
 5733TIP3    H217206   0.809   1.675   2.983
 5734TIP3   OH217207   1.256   0.107   4.113
 5734TIP3    H117208   1.248   0.146   4.026
 5734TIP3    H217209   1.274   0.180   4.171
 5735TIP3   OH217210   3.630   2.654   1.084
 5735TIP3    H117211   3.716   2.656   1.126
 5735TIP3    H217212   3.568   2.667   1.155
 5736TIP3   OH217213   4.508   1.827   2.249
 5736TIP3    H117214   4.495   1.920   2.230
 5736TIP3    H217215   4.460   1.782   2.179
 5737TIP3   OH217216   4.578   4.244   4.465
 5737TIP3    H117217   4.496   4.205   4.495
 5737TIP3    H217218   4.619   4.277   4.545
 5738TIP3   OH217219   3.671   2.490   3.727
 5738TIP3    H117220   3.638   2.569   3.768
 5738TIP3    H217221   3.660   2.505   3.633
 5739TIP3   OH217222   4.357   4.127   3.796
 5739TIP3    H117223   4.374   4.181   3.872
 5739TIP3    H217224   4.319   4.046   3.831
 5740TIP3   OH217225   4.265   0.933   0.484
 5740TIP3    H117226   4.189   0.990   0.496
 5740TIP3    H217227   4.239   0.872   0.415
 5741TIP3   OH217228   4.091   2.827   3.885
 5741TIP3    H117229   4.169   2.838   3.830
 5741TIP3    H217230   4.037   2.765   3.837
 5742TIP3   OH217231   2.125   2.297   3.968
 5742TIP3    H117232   2.057   2.249   3.922
 5742TIP3    H217233   2.127   2.257   4.055
 5743TIP3   OH217234   0.072   0.082   3.498
 5743TIP3    H117235   0.085   0.003   3.446
 5743TIP3    H217236   0.159   0.122   3.503
 5744TIP3   OH217237   2.326   3.373   4.288
 5744TIP3    H117238   2.240   3.344   4.321
 5744TIP3    H217239   2.306   3.423   4.209
 5745TIP3   OH217240   5.125   2.680   0.398
 5745TIP3    H117241   5.042   2.636   0.417
 5745TIP3    H217242   5.147   2.724   0.481
 5746TIP3   OH217243   5.721   1.007   0.141
 5746TIP3    H117244   5.655   1.011   0.210
 5746TIP3    H217245   5.731   0.914   0.122
 5747TIP3   OH217246   3.928   4.539   2.097
 5747TIP3    H117247   4.023   4.544   2.098
 5747TIP3    H217248   3.905   4.521   2.006
 5748TIP3   OH217249   5.339   2.428   2.423
 5748TIP3    H117250   5.307   2.387   2.343
 5748TIP3    H217251   5.350   2.356   2.485
 5749TIP3   OH217252   2.546   0.538   4.538
 5749TIP3    H117253   2.499   0.456   4.520
 5749TIP3    H217254   2.636   0.520   4.511
 5750TIP3   OH217255   4.112   0.583   4.783
 5750TIP3    H117256   4.172   0.609   4.853
 5750TIP3    H217257   4.166   0.533   4.722
 5751TIP3   OH217258   5.981   2.952   3.469
 5751TIP3    H117259   6.032   3.029   3.493
 5751TIP3    H217260   6.034   2.908   3.402
 5752TIP3   OH217261   4.894   3.935   4.221
 5752TIP3    H117262   4.866   4.026   4.215
 5752TIP3    H217263   4.942   3.929   4.304
 5753TIP3   OH217264   1.350   4.026   4.617
 5753TIP3    H117265   1.435   3.985   4.599
 5753TIP3    H217266   1.357   4.113   4.577
 5754TIP3   OH217267   5.581   5.335   0.144
 5754TIP3    H117268   5.660   5.341   0.090
 5754TIP3    H217269   5.573   5.241   0.163
 5755TIP3   OH217270   0.534   0.433   0.251
 5755TIP3    H117271   0.512   0.454   0.160
 5755TIP3    H217272   0.599   0.363   0.244
 5756TIP3   OH217273   5.282   3.467   2.373
 5756TIP3    H117274   5.306   3.483   2.464
 5756TIP3    H217275   5.240   3.382   2.373
 5757TIP3   OH217276   1.060   3.115   1.377
 5757TIP3    H117277   1.064   3.103   1.282
 5757TIP3    H217278   0.981   3.167   1.390
 5758TIP3   OH217279   1.613   2.787   0.139
 5758TIP3    H117280   1.584   2.873   0.170
 5758TIP3    H217281   1.622   2.734   0.219
 5759TIP3   OH217282   6.234   3.192   0.196
 5759TIP3    H117283   6.228   3.119   0.135
 5759TIP3    H217284   6.289   3.159   0.268
 5760TIP3   OH217285   1.328   3.036   2.685
 5760TIP3    H117286   1.349   3.050   2.777
 5760TIP3    H217287   1.232   3.037   2.682
 5761TIP3   OH217288   3.458   5.171   2.822
 5761TIP3    H117289   3.508   5.184   2.741
 5761TIP3    H217290   3.429   5.080   2.818
 5762TIP3   OH217291   6.190   2.389   2.613
 5762TIP3    H117292   6.275   2.372   2.653
 5762TIP3    H217293   6.206   2.459   2.550
 5763TIP3   OH217294   3.410   5.530   4.676
 5763TIP3    H117295   3.457   5.602   4.718
 5763TIP3    H217296   3.434   5.538   4.583
 5764TIP3   OH217297   4.422   4.558   2.190
 5764TIP3    H117298   4.485   4.528   2.256
 5764TIP3    H217299   4.477   4.586   2.117
 5765TIP3   OH217300   1.059   2.628   1.861
 5765TIP3    H117301   1.045   2.551   1.916
 5765TIP3    H217302   1.060   2.593   1.772
 5766TIP3   OH217303   4.028   5.408   4.722
 5766TIP3    H117304   3.972   5.360   4.660
 5766TIP3    H217305   4.111   5.360   4.721
 5767TIP3   OH217306   2.880   1.205   5.006
 5767TIP3    H117307   2.819   1.239   5.071
 5767TIP3    H217308   2.965   1.242   5.031
 5768TIP3   OH217309   1.006   4.578   0.770
 5768TIP3    H117310   0.954   4.521   0.827
 5768TIP3    H217311   1.097   4.555   0.790
 5769TIP3   OH217312   4.342   5.607   3.818
 5769TIP3    H117313   4.267   5.662   3.795
 5769TIP3    H217314   4.356   5.551   3.742
 5770TIP3   OH217315   4.340   4.802   2.950
 5770TIP3    H117316   4.293   4.886   2.956
 5770TIP3    H217317   4.413   4.820   2.891
 5771TIP3   OH217318   3.946   1.110   2.586
 5771TIP3    H117319   4.019   1.071   2.538
 5771TIP3    H217320   3.889   1.035   2.607
 5772TIP3   OH217321   2.394   4.527   5.024
 5772TIP3    H117322   2.388   4.611   4.978
 5772TIP3    H217323   2.395   4.550   5.116
 5773TIP3   OH217324   3.966   2.005   4.267
 5773TIP3    H117325   3.909   2.063   4.318
 5773TIP3    H217326   3.915   1.982   4.190
 5774TIP3   OH217327   3.510   4.084   2.362
 5774TIP3    H117328   3.476   4.043   2.283
 5774TIP3    H217329   3.513   4.013   2.426
 5775TIP3   OH217330   5.164   3.213   3.591
 5775TIP3    H117331   5.075   3.198   3.621
 5775TIP3    H217332   5.191   3.129   3.553
 5776TIP3   OH217333   2.779   1.282   3.131
 5776TIP3    H117334   2.766   1.196   3.093
 5776TIP3    H217335   2.800   1.265   3.223
 5777TIP3   OH217336   1.171   4.027   3.106
 5777TIP3    H117337   1.247   4.023   3.048
 5777TIP3    H217338   1.118   4.099   3.073
 5778TIP3   OH217339   4.624   5.887   0.861
 5778TIP3    H117340   4.612   5.923   0.773
 5778TIP3    H217341   4.660   5.959   0.912
 5779TIP3   OH217342   2.985   4.250   1.167
 5779TIP3    H117343   2.891   4.249   1.185
 5779TIP3    H217344   2.992   4.222   1.076
 5780TIP3   OH217345   2.685   5.353   3.334
 5780TIP3    H117346   2.700   5.443   3.306
 5780TIP3    H217347   2.770   5.311   3.326
 5781TIP3   OH217348   3.955   1.704   2.882
 5781TIP3    H117349   4.004   1.784   2.861
 5781TIP3    H217350   3.917   1.720   2.968
 5782TIP3   OH217351   2.252   2.933   1.735
 5782TIP3    H117352   2.245   3.024   1.705
 5782TIP3    H217353   2.208   2.881   1.668
 5783TIP3   OH217354   4.979   3.891   4.942
 5783TIP3    H117355   4.996   3.932   4.857
 5783TIP3    H217356   5.007   3.800   4.931
 5784TIP3   OH217357   2.937   5.856   4.884
 5784TIP3    H117358   2.882   5.923   4.843
 5784TIP3    H217359   2.978   5.901   4.957
 5785TIP3   OH217360   3.319   5.584   1.441
 5785TIP3    H117361   3.321   5.595   1.536
 5785TIP3    H217362   3.385   5.646   1.409
 5786TIP3   OH217363   5.443   0.735   0.779
 5786TIP3    H117364   5.350   0.739   0.760
 5786TIP3    H217365   5.484   0.780   0.705
 5787TIP3   OH217366   1.636   0.951   4.467
 5787TIP3    H117367   1.672   1.028   4.510
 5787TIP3    H217368   1.595   0.900   4.537
 5788TIP3   OH217369   5.540   0.231   4.886
 5788TIP3    H117370   5.612   0.169   4.898
 5788TIP3    H217371   5.462   0.176   4.879
 5789TIP3   OH217372   5.353   0.091   3.049
 5789TIP3    H117373   5.335   0.092   2.955
 5789TIP3    H217374   5.357   0.183   3.075
 5790TIP3   OH217375   0.171   4.177   2.021
 5790TIP3    H117376   0.142   4.155   2.109
 5790TIP3    H217377   0.110   4.132   1.963
 5791TIP3   OH217378   3.442   4.415   2.490
 5791TIP3    H117379   3.392   4.480   2.440
 5791TIP3    H217380   3.428   4.333   2.443
 5792TIP3   OH217381   5.067   1.727   1.459
 5792TIP3    H117382   5.070   1.772   1.544
 5792TIP3    H217383   5.121   1.649   1.472
 5793TIP3   OH217384   1.718   3.468   0.853
 5793TIP3    H117385   1.726   3.559   0.879
 5793TIP3    H217386   1.659   3.470   0.777
 5794TIP3   OH217387   4.901   2.541   4.456
 5794TIP3    H117388   4.994   2.529   4.474
 5794TIP3    H217389   4.892   2.634   4.435
 5795TIP3   OH217390   5.895   3.577   2.139
 5795TIP3    H117391   5.874   3.534   2.222
 5795TIP3    H217392   5.915   3.505   2.079
 5796TIP3   OH217393   1.228   0.993   4.211
 5796TIP3    H117394   1.230   0.936   4.134
 5796TIP3    H217395   1.158   0.957   4.266
 5797TIP3   OH217396   5.453   2.172   2.386
 5797TIP3    H117397   5.426   2.150   2.297
 5797TIP3    H217398   5.539   2.131   2.396
 5798TIP3   OH217399   0.809   5.448   1.711
 5798TIP3    H117400   0.788   5.380   1.647
 5798TIP3    H217401   0.737   5.445   1.774
 5799TIP3   OH217402   4.561   5.692   2.346
 5799TIP3    H117403   4.599   5.749   2.279
 5799TIP3    H217404   4.539   5.752   2.418
 5800TIP3   OH217405   5.163   3.625   3.399
 5800TIP3    H117406   5.070   3.630   3.376
 5800TIP3    H217407   5.209   3.655   3.321
 5801TIP3   OH217408   4.021   0.423   2.159
 5801TIP3    H117409   3.992   0.457   2.075
 5801TIP3    H217410   4.108   0.386   2.141
 5802TIP3   OH217411   3.920   0.911   3.206
 5802TIP3    H117412   3.868   0.896   3.128
 5802TIP3    H217413   3.952   1.001   3.197
 5803TIP3   OH217414   5.572   1.465   4.727
 5803TIP3    H117415   5.622   1.435   4.803
 5803TIP3    H217416   5.488   1.494   4.763
 5804TIP3   OH217417   0.867   5.532   0.731
 5804TIP3    H117418   0.917   5.561   0.807
 5804TIP3    H217419   0.777   5.560   0.750
 5805TIP3   OH217420   6.302   0.661   1.427
 5805TIP3    H117421   6.256   0.684   1.507
 5805TIP3    H217422   6.237   0.674   1.357
 5806TIP3   OH217423   6.169   3.084   2.376
 5806TIP3    H117424   6.136   3.010   2.427
 5806TIP3    H217425   6.104   3.095   2.306
 5807TIP3   OH217426   2.140   2.966   2.553
 5807TIP3    H117427   2.130   3.031   2.483
 5807TIP3    H217428   2.080   2.896   2.530
 5808TIP3   OH217429   4.518   2.829   3.427
 5808TIP3    H117430   4.603   2.872   3.414
 5808TIP3    H217431   4.458   2.901   3.445
 5809TIP3   OH217432   1.873   5.632   4.007
 5809TIP3    H117433   1.960   5.670   3.996
 5809TIP3    H217434   1.813   5.704   3.991
 5810TIP3   OH217435   6.173   5.964   2.908
 5810TIP3    H117436   6.144   5.875   2.927
 5810TIP3    H217437   6.242   5.982   2.971
 5811TIP3   OH217438   1.547   1.146   3.076
 5811TIP3    H117439   1.502   1.082   3.131
 5811TIP3    H217440   1.523   1.122   2.986
 5812TIP3   OH217441   2.622   2.925   0.953
 5812TIP3    H117442   2.695   2.874   0.987
 5812TIP3    H217443   2.612   2.997   1.015
 5813TIP3   OH217444   4.234   2.991   4.877
 5813TIP3    H117445   4.143   2.979   4.906
 5813TIP3    H217446   4.226   3.039   4.794
 5814TIP3   OH217447   3.362   1.022   3.778
 5814TIP3    H117448   3.306   1.087   3.821
 5814TIP3    H217449   3.407   1.072   3.709
 5815TIP3   OH217450   1.748   0.245   3.029
 5815TIP3    H117451   1.749   0.330   2.986
 5815TIP3    H217452   1.743   0.182   2.957
 5816TIP3   OH217453   5.344   1.892   1.457
 5816TIP3    H117454   5.281   1.946   1.410
 5816TIP3    H217455   5.407   1.954   1.493
 5817TIP3   OH217456   5.940   1.806   4.180
 5817TIP3    H117457   5.868   1.793   4.243
 5817TIP3    H217458   5.931   1.897   4.153
 5818TIP3   OH217459   4.466   1.336   2.684
 5818TIP3    H117460   4.534   1.311   2.621
 5818TIP3    H217461   4.389   1.356   2.631
 5819TIP3   OH217462   4.814   4.928   0.170
 5819TIP3    H117463   4.777   4.895   0.252
 5819TIP3    H217464   4.738   4.955   0.119
 5820TIP3   OH217465   3.104   5.899   1.849
 5820TIP3    H117466   3.166   5.918   1.778
 5820TIP3    H217467   3.129   5.957   1.920
 5821TIP3   OH217468   4.734   3.853   4.758
 5821TIP3    H117469   4.695   3.779   4.713
 5821TIP3    H217470   4.791   3.814   4.825
 5822TIP3   OH217471   4.335   0.239   1.696
 5822TIP3    H117472   4.365   0.212   1.783
 5822TIP3    H217473   4.240   0.225   1.698
 5823TIP3   OH217474   5.669   1.854   1.815
 5823TIP3    H117475   5.612   1.799   1.761
 5823TIP3    H217476   5.609   1.904   1.871
 5824TIP3   OH217477   0.186   1.113   0.229
 5824TIP3    H117478   0.125   1.043   0.206
 5824TIP3    H217479   0.195   1.164   0.148
 5825TIP3   OH217480   5.009   1.829   2.144
 5825TIP3    H117481   5.021   1.737   2.170
 5825TIP3    H217482   5.099   1.861   2.132
 5826TIP3   OH217483   5.652   5.864   0.536
 5826TIP3    H117484   5.745   5.879   0.521
 5826TIP3    H217485   5.616   5.952   0.551
 5827TIP3   OH217486   2.684   5.241   2.412
 5827TIP3    H117487   2.762   5.278   2.371
 5827TIP3    H217488   2.712   5.217   2.500
 5828TIP3   OH217489   5.734   1.631   0.541
 5828TIP3    H117490   5.826   1.640   0.515
 5828TIP3    H217491   5.712   1.540   0.519
 5829TIP3   OH217492   3.123   3.669   1.486
 5829TIP3    H117493   3.143   3.624   1.568
 5829TIP3    H217494   3.156   3.610   1.418
 5830TIP3   OH217495   3.565   5.343   3.757
 5830TIP3    H117496   3.651   5.370   3.723
 5830TIP3    H217497   3.580   5.256   3.793
 5831TIP3   OH217498   5.077   2.096   3.745
 5831TIP3    H117499   5.038   2.078   3.659
 5831TIP3    H217500   5.068   2.013   3.792
 5832TIP3   OH217501   1.633   3.151   0.976
 5832TIP3    H117502   1.678   3.187   0.900
 5832TIP3    H217503   1.582   3.078   0.941
 5833TIP3   OH217504   5.470   3.576   4.898
 5833TIP3    H117505   5.510   3.491   4.916
 5833TIP3    H217506   5.516   3.636   4.957
 5834TIP3   OH217507   1.474   4.988   0.049
 5834TIP3    H117508   1.421   4.992  -0.031
 5834TIP3    H217509   1.436   4.917   0.100
 5835TIP3   OH217510   5.310   3.939   1.080
 5835TIP3    H117511   5.237   3.971   1.026
 5835TIP3    H217512   5.331   4.012   1.138
 5836TIP3   OH217513   0.682   5.091   3.479
 5836TIP3    H117514   0.632   5.137   3.547
 5836TIP3    H217515   0.726   5.020   3.526
 5837TIP3   OH217516   3.513   3.354   4.153
 5837TIP3    H117517   3.508   3.431   4.096
 5837TIP3    H217518   3.603   3.355   4.186
 5838TIP3   OH217519   5.083   0.458   4.732
 5838TIP3    H117520   5.045   0.479   4.647
 5838TIP3    H217521   5.081   0.362   4.737
 5839TIP3   OH217522   0.721   0.724   1.573
 5839TIP3    H117523   0.809   0.754   1.549
 5839TIP3    H217524   0.688   0.791   1.632
 5840TIP3   OH217525   1.357   4.215   3.636
 5840TIP3    H117526   1.344   4.169   3.719
 5840TIP3    H217527   1.450   4.236   3.634
 5841TIP3   OH217528   3.580   4.455   4.379
 5841TIP3    H117529   3.565   4.361   4.367
 5841TIP3    H217530   3.502   4.496   4.340
 5842TIP3   OH217531   5.559   0.128   2.180
 5842TIP3    H117532   5.574   0.043   2.138
 5842TIP3    H217533   5.645   0.171   2.179
 5843TIP3   OH217534   2.406   3.787   4.594
 5843TIP3    H117535   2.340   3.729   4.633
 5843TIP3    H217536   2.368   3.874   4.599
 5844TIP3   OH217537   5.370   3.091   4.905
 5844TIP3    H117538   5.417   3.031   4.963
 5844TIP3    H217539   5.435   3.114   4.838
 5845TIP3   OH217540   4.565   0.943   3.300
 5845TIP3    H117541   4.582   1.036   3.290
 5845TIP3    H217542   4.648   0.906   3.330
 5846TIP3   OH217543   2.335   2.382   2.586
 5846TIP3    H117544   2.430   2.371   2.576
 5846TIP3    H217545   2.298   2.332   2.514
 5847TIP3   OH217546   4.915   0.634   4.941
 5847TIP3    H117547   4.866   0.663   4.863
 5847TIP3    H217548   5.003   0.669   4.929
 5848TIP3   OH217549   1.792   0.962   4.840
 5848TIP3    H117550   1.821   0.962   4.932
 5848TIP3    H217551   1.780   0.869   4.819
 5849TIP3   OH217552   2.253   3.101   3.350
 5849TIP3    H117553   2.331   3.056   3.382
 5849TIP3    H217554   2.282   3.148   3.273
 5850TIP3   OH217555   5.531   5.838   3.267
 5850TIP3    H117556   5.620   5.805   3.252
 5850TIP3    H217557   5.543   5.933   3.276
 5851TIP3   OH217558   1.331   2.090   3.382
 5851TIP3    H117559   1.285   2.165   3.345
 5851TIP3    H217560   1.338   2.028   3.309
 5852TIP3   OH217561   0.371   0.194   2.516
 5852TIP3    H117562   0.316   0.178   2.440
 5852TIP3    H217563   0.460   0.203   2.481
 5853TIP3   OH217564   2.135   3.061   1.955
 5853TIP3    H117565   2.169   3.054   2.044
 5853TIP3    H217566   2.187   2.997   1.905
 5854TIP3   OH217567   4.802   2.342   2.005
 5854TIP3    H117568   4.805   2.420   2.060
 5854TIP3    H217569   4.738   2.364   1.937
 5855TIP3   OH217570   2.251   3.386   2.521
 5855TIP3    H117571   2.328   3.409   2.575
 5855TIP3    H217572   2.280   3.309   2.471
 5856TIP3   OH217573   1.814   5.893   2.493
 5856TIP3    H117574   1.868   5.928   2.422
 5856TIP3    H217575   1.728   5.932   2.480
 5857TIP3   OH217576   4.142   5.321   2.169
 5857TIP3    H117577   4.144   5.232   2.203
 5857TIP3    H217578   4.201   5.318   2.093
 5858TIP3   OH217579   5.727   4.886   2.623
 5858TIP3    H117580   5.792   4.839   2.676
 5858TIP3    H217581   5.664   4.818   2.598
 5859TIP3   OH217582   4.851   1.456   1.922
 5859TIP3    H117583   4.936   1.438   1.881
 5859TIP3    H217584   4.859   1.547   1.953
 5860TIP3   OH217585   1.277   4.849   0.583
 5860TIP3    H117586   1.348   4.793   0.554
 5860TIP3    H217587   1.227   4.868   0.503
 5861TIP3   OH217588   4.485   3.545   3.601
 5861TIP3    H117589   4.488   3.534   3.506
 5861TIP3    H217590   4.504   3.638   3.615
 5862TIP3   OH217591   5.053   4.330   2.680
 5862TIP3    H117592   5.001   4.275   2.621
 5862TIP3    H217593   5.006   4.326   2.763
 5863TIP3   OH217594   3.395   1.982   2.430
 5863TIP3    H117595   3.394   1.975   2.526
 5863TIP3    H217596   3.450   1.909   2.402
 5864TIP3   OH217597   2.951   2.029   4.981
 5864TIP3    H117598   2.975   2.017   5.073
 5864TIP3    H217599   2.863   1.992   4.975
 5865TIP3   OH217600  -0.038   3.845   4.085
 5865TIP3    H117601  -0.030   3.930   4.128
 5865TIP3    H217602   0.036   3.794   4.117
 5866TIP3   OH217603   0.119   2.766   1.441
 5866TIP3    H117604   0.147   2.793   1.528
 5866TIP3    H217605   0.026   2.787   1.439
 5867TIP3   OH217606   4.155   5.576   4.375
 5867TIP3    H117607   4.233   5.594   4.427
 5867TIP3    H217608   4.163   5.484   4.349
 5868TIP3   OH217609   0.065   0.374   3.223
 5868TIP3    H117610  -0.027   0.397   3.212
 5868TIP3    H217611   0.064   0.288   3.266
 5869TIP3   OH217612   6.010   2.531   1.037
 5869TIP3    H117613   6.100   2.559   1.022
 5869TIP3    H217614   6.005   2.444   0.997
 5870TIP3   OH217615   1.391   0.518   0.438
 5870TIP3    H117616   1.383   0.613   0.448
 5870TIP3    H217617   1.382   0.484   0.527
 5871TIP3   OH217618   0.157   2.616   4.070
 5871TIP3    H117619   0.117   2.627   3.983
 5871TIP3    H217620   0.117   2.684   4.124
 5872TIP3   OH217621   3.450   2.102   3.046
 5872TIP3    H117622   3.432   2.017   3.086
 5872TIP3    H217623   3.414   2.165   3.108
 5873TIP3   OH217624   4.277   5.275   4.723
 5873TIP3    H117625   4.326   5.357   4.715
 5873TIP3    H217626   4.324   5.213   4.668
 5874TIP3   OH217627   0.458   0.923   3.748
 5874TIP3    H117628   0.404   0.847   3.770
 5874TIP3    H217629   0.409   0.998   3.782
 5875TIP3   OH217630   0.975   3.070   4.410
 5875TIP3    H117631   1.004   2.981   4.393
 5875TIP3    H217632   1.050   3.125   4.386
 5876TIP3   OH217633   6.019   5.460   3.815
 5876TIP3    H117634   6.067   5.463   3.898
 5876TIP3    H217635   6.029   5.548   3.779
 5877TIP3   OH217636   5.915   0.436   2.458
 5877TIP3    H117637   5.992   0.483   2.490
 5877TIP3    H217638   5.930   0.429   2.363
 5878TIP3   OH217639   0.686   2.215   3.385
 5878TIP3    H117640   0.611   2.275   3.393
 5878TIP3    H217641   0.760   2.266   3.417
 5879TIP3   OH217642   1.937   4.305   0.150
 5879TIP3    H117643   1.937   4.229   0.209
 5879TIP3    H217644   2.013   4.292   0.094
 5880TIP3   OH217645   3.929   4.107   1.721
 5880TIP3    H117646   3.983   4.043   1.676
 5880TIP3    H217647   3.945   4.189   1.674
 5881TIP3   OH217648   0.506   5.416   0.242
 5881TIP3    H117649   0.467   5.412   0.155
 5881TIP3    H217650   0.449   5.474   0.292
 5882TIP3   OH217651   3.929   1.640   0.932
 5882TIP3    H117652   3.840   1.657   0.901
 5882TIP3    H217653   3.986   1.683   0.868
 5883TIP3   OH217654   3.764   5.081   1.300
 5883TIP3    H117655   3.716   5.125   1.370
 5883TIP3    H217656   3.701   5.073   1.229
 5884TIP3   OH217657   0.321   3.377   0.367
 5884TIP3    H117658   0.290   3.333   0.288
 5884TIP3    H217659   0.267   3.455   0.374
 5885TIP3   OH217660  -0.024   1.978   4.418
 5885TIP3    H117661   0.064   2.013   4.432
 5885TIP3    H217662  -0.012   1.908   4.354
 5886TIP3   OH217663   5.064   3.955   0.958
 5886TIP3    H117664   5.004   3.895   1.002
 5886TIP3    H217665   5.008   4.023   0.921
 5887TIP3   OH217666   5.117   4.415   1.777
 5887TIP3    H117667   5.093   4.502   1.747
 5887TIP3    H217668   5.139   4.427   1.869
 5888TIP3   OH217669   2.772   1.593   3.586
 5888TIP3    H117670   2.718   1.559   3.658
 5888TIP3    H217671   2.859   1.605   3.625
 5889TIP3   OH217672   1.140   4.956   0.814
 5889TIP3    H117673   1.192   4.952   0.733
 5889TIP3    H217674   1.058   4.912   0.792
 5890TIP3   OH217675   4.652   2.167   4.503
 5890TIP3    H117676   4.734   2.118   4.497
 5890TIP3    H217677   4.678   2.259   4.493
 5891TIP3   OH217678   1.538   2.393   4.915
 5891TIP3    H117679   1.590   2.392   4.995
 5891TIP3    H217680   1.456   2.434   4.941
 5892TIP3   OH217681   2.543   5.685   4.683
 5892TIP3    H117682   2.625   5.720   4.650
 5892TIP3    H217683   2.529   5.605   4.632
 5893TIP3   OH217684   1.621   4.472   4.748
 5893TIP3    H117685   1.698   4.434   4.790
 5893TIP3    H217686   1.560   4.399   4.737
 5894TIP3   OH217687   3.304   1.788   0.025
 5894TIP3    H117688   3.260   1.718   0.073
 5894TIP3    H217689   3.394   1.756   0.013
 5895TIP3   OH217690   3.076   1.512   1.611
 5895TIP3    H117691   3.014   1.526   1.683
 5895TIP3    H217692   3.115   1.598   1.597
 5896TIP3   OH217693   2.289   5.875   3.414
 5896TIP3    H117694   2.349   5.916   3.476
 5896TIP3    H217695   2.274   5.788   3.449
 5897TIP3   OH217696   6.332   2.945   2.626
 5897TIP3    H117697   6.265   2.995   2.674
 5897TIP3    H217698   6.281   2.886   2.570
 5898TIP3   OH217699   0.973   4.628   1.789
 5898TIP3    H117700   0.937   4.693   1.850
 5898TIP3    H217701   0.904   4.561   1.783
 5899TIP3   OH217702   1.098   3.395   4.349
 5899TIP3    H117703   1.109   3.454   4.274
 5899TIP3    H217704   1.148   3.317   4.326
 5900TIP3   OH217705   1.703   0.790   0.204
 5900TIP3    H117706   1.673   0.867   0.156
 5900TIP3    H217707   1.688   0.812   0.296
 5901TIP3   OH217708   1.046   0.875   0.089
 5901TIP3    H117709   1.080   0.913   0.008
 5901TIP3    H217710   1.029   0.783   0.068
 5902TIP3   OH217711   2.014   4.012   1.955
 5902TIP3    H117712   2.011   4.001   2.050
 5902TIP3    H217713   2.046   4.101   1.942
 5903TIP3   OH217714   4.996   2.954   2.476
 5903TIP3    H117715   5.058   2.936   2.406
 5903TIP3    H217716   4.948   3.031   2.447
 5904TIP3   OH217717   5.313   1.443   2.052
 5904TIP3    H117718   5.336   1.373   2.113
 5904TIP3    H217719   5.394   1.460   2.004
 5905TIP3   OH217720   1.131   5.586   0.637
 5905TIP3    H117721   1.149   5.636   0.557
 5905TIP3    H217722   1.035   5.586   0.644
 5906TIP3   OH217723   3.765   5.045   1.723
 5906TIP3    H117724   3.807   4.988   1.787
 5906TIP3    H217725   3.685   5.075   1.767
 5907TIP3   OH217726   0.329   5.239   0.660
 5907TIP3    H117727   0.337   5.155   0.705
 5907TIP3    H217728   0.410   5.247   0.610
 5908TIP3   OH217729   0.261   2.012   4.565
 5908TIP3    H117730   0.351   2.018   4.534
 5908TIP3    H217731   0.260   1.937   4.623
 5909TIP3   OH217732   1.168   3.873   2.171
 5909TIP3    H117733   1.091   3.822   2.147
 5909TIP3    H217734   1.215   3.818   2.234
 5910TIP3   OH217735   3.531   4.694   0.522
 5910TIP3    H117736   3.466   4.760   0.495
 5910TIP3    H217737   3.614   4.727   0.487
 5911TIP3   OH217738   3.052   2.330   3.477
 5911TIP3    H117739   3.075   2.252   3.426
 5911TIP3    H217740   3.128   2.345   3.533
 5912TIP3   OH217741   5.299   0.324   0.323
 5912TIP3    H117742   5.231   0.288   0.267
 5912TIP3    H217743   5.377   0.271   0.304
 5913TIP3   OH217744   0.070   3.266   5.145
 5913TIP3    H117745   0.010   3.202   5.184
 5913TIP3    H217746   0.157   3.240   5.178
 5914TIP3   OH217747   0.801   0.309   3.616
 5914TIP3    H117748   0.766   0.359   3.542
 5914TIP3    H217749   0.895   0.306   3.600
 5915TIP3   OH217750   3.197   1.036   2.032
 5915TIP3    H117751   3.209   1.117   1.983
 5915TIP3    H217752   3.277   0.987   2.016
 5916TIP3   OH217753   0.879   1.073   1.399
 5916TIP3    H117754   0.785   1.081   1.415
 5916TIP3    H217755   0.903   0.989   1.438
 5917TIP3   OH217756   0.544   5.731   2.646
 5917TIP3    H117757   0.614   5.686   2.598
 5917TIP3    H217758   0.580   5.748   2.732
 5918TIP3   OH217759   1.463   2.349   3.607
 5918TIP3    H117760   1.531   2.397   3.653
 5918TIP3    H217761   1.496   2.338   3.518
 5919TIP3   OH217762   0.359   4.800   4.937
 5919TIP3    H117763   0.290   4.865   4.951
 5919TIP3    H217764   0.368   4.794   4.842
 5920TIP3   OH217765   2.721   0.534   3.081
 5920TIP3    H117766   2.697   0.445   3.107
 5920TIP3    H217767   2.673   0.550   3.000
 5921TIP3   OH217768   4.594   0.714   3.912
 5921TIP3    H117769   4.573   0.776   3.842
 5921TIP3    H217770   4.598   0.629   3.868
 5922TIP3   OH217771   0.191   2.050   4.223
 5922TIP3    H117772   0.155   2.038   4.135
 5922TIP3    H217773   0.207   1.961   4.255
 5923TIP3   OH217774   0.981   2.037   1.075
 5923TIP3    H117775   1.013   1.948   1.085
 5923TIP3    H217776   0.900   2.028   1.024
 5924TIP3   OH217777   6.138   0.229   4.450
 5924TIP3    H117778   6.111   0.307   4.401
 5924TIP3    H217779   6.200   0.261   4.515
 5925TIP3   OH217780   3.233   4.674   1.438
 5925TIP3    H117781   3.191   4.760   1.427
 5925TIP3    H217782   3.326   4.694   1.440
 5926TIP3   OH217783   4.518   1.464   1.350
 5926TIP3    H117784   4.430   1.428   1.360
 5926TIP3    H217785   4.516   1.508   1.265
 5927TIP3   OH217786   2.187   3.327   1.075
 5927TIP3    H117787   2.106   3.276   1.071
 5927TIP3    H217788   2.178   3.382   1.152
 5928TIP3   OH217789   5.609   2.337   3.170
 5928TIP3    H117790   5.589   2.263   3.113
 5928TIP3    H217791   5.606   2.414   3.113
 5929TIP3   OH217792   2.327   4.498   0.516
 5929TIP3    H117793   2.364   4.489   0.429
 5929TIP3    H217794   2.258   4.564   0.506
 5930TIP3   OH217795   5.896   5.410   0.693
 5930TIP3    H117796   5.850   5.433   0.774
 5930TIP3    H217797   5.895   5.314   0.692
 5931TIP3   OH217798   4.361   5.515   0.340
 5931TIP3    H117799   4.282   5.561   0.369
 5931TIP3    H217800   4.384   5.458   0.413
 5932TIP3   OH217801   5.017   2.926   3.751
 5932TIP3    H117802   5.105   2.889   3.757
 5932TIP3    H217803   4.997   2.953   3.840
 5933TIP3   OH217804   1.711   0.264   1.950
 5933TIP3    H117805   1.800   0.283   1.978
 5933TIP3    H217806   1.675   0.210   2.021
 5934TIP3   OH217807   2.559   0.987   2.448
 5934TIP3    H117808   2.569   0.989   2.543
 5934TIP3    H217809   2.647   0.998   2.414
 5935TIP3   OH217810   3.939   0.975  -0.003
 5935TIP3    H117811   3.936   0.881  -0.017
 5935TIP3    H217812   4.032   0.994   0.012
 5936TIP3   OH217813   0.382   3.772   3.683
 5936TIP3    H117814   0.317   3.769   3.754
 5936TIP3    H217815   0.331   3.755   3.604
 5937TIP3   OH217816   3.509   5.312   1.690
 5937TIP3    H117817   3.600   5.342   1.691
 5937TIP3    H217818   3.459   5.385   1.726
 5938TIP3   OH217819   4.398   1.431   3.273
 5938TIP3    H117820   4.395   1.392   3.361
 5938TIP3    H217821   4.443   1.366   3.220
 5939TIP3   OH217822   4.266   4.716   2.497
 5939TIP3    H117823   4.192   4.755   2.451
 5939TIP3    H217824   4.287   4.638   2.446
 5940TIP3   OH217825   2.551   2.015   4.414
 5940TIP3    H117826   2.458   1.990   4.417
 5940TIP3    H217827   2.595   1.953   4.472
 5941TIP3   OH217828   0.451   5.299   1.059
 5941TIP3    H117829   0.413   5.359   0.995
 5941TIP3    H217830   0.408   5.321   1.141
 5942TIP3   OH217831   5.442   5.757   0.153
 5942TIP3    H117832   5.354   5.764   0.116
 5942TIP3    H217833   5.434   5.691   0.221
 5943TIP3   OH217834   5.698   3.363   1.009
 5943TIP3    H117835   5.607   3.371   1.040
 5943TIP3    H217836   5.748   3.342   1.088
 5944TIP3   OH217837   4.132   1.560   0.621
 5944TIP3    H117838   4.059   1.622   0.624
 5944TIP3    H217839   4.164   1.563   0.531
 5945TIP3   OH217840   3.007   0.556   4.495
 5945TIP3    H117841   3.101   0.542   4.499
 5945TIP3    H217842   2.997   0.647   4.467
 5946TIP3   OH217843   2.362   2.636   3.872
 5946TIP3    H117844   2.349   2.588   3.954
 5946TIP3    H217845   2.358   2.728   3.897
 5947TIP3   OH217846   3.416   1.238   2.534
 5947TIP3    H117847   3.449   1.315   2.486
 5947TIP3    H217848   3.349   1.202   2.477
 5948TIP3   OH217849   2.812   2.568   3.197
 5948TIP3    H117850   2.849   2.563   3.285
 5948TIP3    H217851   2.864   2.636   3.154
 5949TIP3   OH217852   1.106   2.804   4.733
 5949TIP3    H117853   1.195   2.808   4.767
 5949TIP3    H217854   1.080   2.896   4.723
 5950TIP3   OH217855   0.473   5.647   1.121
 5950TIP3    H117856   0.384   5.676   1.100
 5950TIP3    H217857   0.465   5.552   1.131
 5951TIP3   OH217858   6.306   4.853   2.941
 5951TIP3    H117859   6.347   4.773   2.973
 5951TIP3    H217860   6.379   4.908   2.913
 5952TIP3   OH217861   2.079   1.693   0.876
 5952TIP3    H117862   2.011   1.737   0.825
 5952TIP3    H217863   2.033   1.657   0.952
 5953TIP3   OH217864   4.848   0.400   3.133
 5953TIP3    H117865   4.935   0.434   3.157
 5953TIP3    H217866   4.796   0.408   3.212
 5954TIP3   OH217867   5.206   3.688   4.880
 5954TIP3    H117868   5.287   3.639   4.866
 5954TIP3    H217869   5.191   3.685   4.974
 5955TIP3   OH217870   2.283   2.860   0.321
 5955TIP3    H117871   2.329   2.877   0.403
 5955TIP3    H217872   2.225   2.935   0.311
 5956TIP3   OH217873   2.840   0.160   3.683
 5956TIP3    H117874   2.896   0.110   3.742
 5956TIP3    H217875   2.790   0.218   3.740
 5957TIP3   OH217876   2.278   2.241   3.718
 5957TIP3    H117877   2.291   2.165   3.775
 5957TIP3    H217878   2.204   2.288   3.757
 5958TIP3   OH217879   4.539   2.840   1.360
 5958TIP3    H117880   4.577   2.901   1.297
 5958TIP3    H217881   4.540   2.755   1.315
 5959TIP3   OH217882   3.003   3.343   2.091
 5959TIP3    H117883   2.945   3.344   2.015
 5959TIP3    H217884   3.048   3.259   2.086
 5960TIP3   OH217885   0.076   4.354   3.162
 5960TIP3    H117886   0.047   4.270   3.198
 5960TIP3    H217887   0.126   4.331   3.083
 5961TIP3   OH217888   3.129   2.403   1.364
 5961TIP3    H117889   3.211   2.354   1.370
 5961TIP3    H217890   3.149   2.476   1.305
 5962TIP3   OH217891   1.605   5.118   1.823
 5962TIP3    H117892   1.668   5.049   1.842
 5962TIP3    H217893   1.520   5.080   1.847
 5963TIP3   OH217894   1.989   1.215   2.086
 5963TIP3    H117895   1.969   1.151   2.155
 5963TIP3    H217896   2.033   1.164   2.018
 5964TIP3   OH217897   4.928   2.551   0.926
 5964TIP3    H117898   4.977   2.474   0.896
 5964TIP3    H217899   4.958   2.564   1.016
 5965TIP3   OH217900   1.707   3.627   3.546
 5965TIP3    H117901   1.784   3.625   3.602
 5965TIP3    H217902   1.640   3.579   3.595
 5966TIP3   OH217903   2.850   2.767   0.937
 5966TIP3    H117904   2.928   2.735   0.983
 5966TIP3    H217905   2.879   2.782   0.848
 5967TIP3   OH217906   1.312   1.352   1.033
 5967TIP3    H117907   1.313   1.256   1.029
 5967TIP3    H217908   1.398   1.375   1.066
 5968TIP3   OH217909   5.081   2.272   3.037
 5968TIP3    H117910   5.087   2.347   3.096
 5968TIP3    H217911   5.011   2.297   2.975
 5969TIP3   OH217912   2.911   4.591   4.597
 5969TIP3    H117913   2.874   4.650   4.532
 5969TIP3    H217914   2.939   4.649   4.669
 5970TIP3   OH217915   6.167   2.085   0.810
 5970TIP3    H117916   6.232   2.014   0.811
 5970TIP3    H217917   6.119   2.072   0.728
 5971TIP3   OH217918   2.225   0.084   1.090
 5971TIP3    H117919   2.138   0.090   1.050
 5971TIP3    H217920   2.242  -0.010   1.096
 5972TIP3   OH217921   3.353   0.441   0.736
 5972TIP3    H117922   3.261   0.427   0.758
 5972TIP3    H217923   3.351   0.460   0.642
 5973TIP3   OH217924   2.545   0.910   0.527
 5973TIP3    H117925   2.501   0.914   0.442
 5973TIP3    H217926   2.479   0.938   0.590
 5974TIP3   OH217927   5.801   5.931   2.403
 5974TIP3    H117928   5.746   6.002   2.436
 5974TIP3    H217929   5.768   5.852   2.446
 5975TIP3   OH217930   0.037   5.979  -0.004
 5975TIP3    H117931   0.031   5.884   0.006
 5975TIP3    H217932  -0.045   6.004  -0.047
 5976TIP3   OH217933   2.505   5.484   1.272
 5976TIP3    H117934   2.481   5.493   1.364
 5976TIP3    H217935   2.426   5.510   1.224
 5977TIP3   OH217936   4.000   2.597   3.780
 5977TIP3    H117937   3.925   2.630   3.732
 5977TIP3    H217938   3.966   2.522   3.830
 5978TIP3   OH217939   5.355   3.988   0.390
 5978TIP3    H117940   5.304   3.919   0.432
 5978TIP3    H217941   5.361   4.057   0.456
 5979TIP3   OH217942   4.686   3.784   2.434
 5979TIP3    H117943   4.705   3.857   2.493
 5979TIP3    H217944   4.599   3.754   2.461
 5980TIP3   OH217945   5.553   4.928   3.422
 5980TIP3    H117946   5.466   4.890   3.431
 5980TIP3    H217947   5.600   4.899   3.500
 5981TIP3   OH217948   5.308   5.357   0.566
 5981TIP3    H117949   5.258   5.437   0.584
 5981TIP3    H217950   5.259   5.312   0.498
 5982TIP3   OH217951   4.723   2.673   0.217
 5982TIP3    H117952   4.731   2.740   0.284
 5982TIP3    H217953   4.700   2.593   0.264
 5983TIP3   OH217954   4.130   2.617   0.262
 5983TIP3    H117955   4.121   2.640   0.355
 5983TIP3    H217956   4.058   2.556   0.246
 5984TIP3   OH217957   0.068   4.436   1.043
 5984TIP3    H117958   0.061   4.498   0.970
 5984TIP3    H217959  -0.008   4.378   1.033
 5985TIP3   OH217960   5.081   0.983   5.033
 5985TIP3    H117961   5.092   0.972   5.128
 5985TIP3    H217962   4.988   0.968   5.017
 5986TIP3   OH217963   2.142   1.401   4.810
 5986TIP3    H117964   2.158   1.314   4.774
 5986TIP3    H217965   2.048   1.401   4.830
 5987TIP3   OH217966   6.142   1.882   2.833
 5987TIP3    H117967   6.185   1.876   2.919
 5987TIP3    H217968   6.119   1.975   2.825
 5988TIP3   OH217969   3.312   1.616   4.398
 5988TIP3    H117970   3.367   1.645   4.326
 5988TIP3    H217971   3.372   1.605   4.471
 5989TIP3   OH217972   3.864   1.616   0.306
 5989TIP3    H117973   3.784   1.564   0.318
 5989TIP3    H217974   3.883   1.606   0.213
 5990TIP3   OH217975   2.336   0.211   3.553
 5990TIP3    H117976   2.341   0.134   3.611
 5990TIP3    H217977   2.265   0.264   3.590
 5991TIP3   OH217978   2.402   0.571   0.163
 5991TIP3    H117979   2.428   0.610   0.080
 5991TIP3    H217980   2.389   0.646   0.221
 5992TIP3   OH217981   1.580   1.565   3.363
 5992TIP3    H117982   1.639   1.567   3.288
 5992TIP3    H217983   1.496   1.596   3.329
 5993TIP3   OH217984   0.178   2.720   5.044
 5993TIP3    H117985   0.269   2.717   5.072
 5993TIP3    H217986   0.129   2.681   5.116
 5994TIP3   OH217987   0.710   5.086   2.167
 5994TIP3    H117988   0.755   5.089   2.252
 5994TIP3    H217989   0.620   5.112   2.187
 5995TIP3   OH217990   3.509   4.214   2.744
 5995TIP3    H117991   3.524   4.165   2.825
 5995TIP3    H217992   3.414   4.220   2.738
 5996TIP3   OH217993   4.243   5.476   2.557
 5996TIP3    H117994   4.160   5.467   2.510
 5996TIP3    H217995   4.248   5.398   2.612
 5997TIP3   OH217996   4.322   5.421   3.587
 5997TIP3    H117997   4.336   5.342   3.639
 5997TIP3    H217998   4.363   5.401   3.503
 5998TIP3   OH217999   4.602   5.133   1.109
 5998TIP3    H118000   4.549   5.202   1.150
 5998TIP3    H218001   4.558   5.052   1.133
 5999TIP3   OH218002   1.168   5.330   3.415
 5999TIP3    H118003   1.096   5.287   3.460
 5999TIP3    H218004   1.190   5.405   3.470
 6000TIP3   OH218005   0.455   4.452   0.211
 6000TIP3    H118006   0.460   4.492   0.124
 6000TIP3    H218007   0.463   4.526   0.272
 6001TIP3   OH218008   3.785   0.984   2.967
 6001TIP3    H118009   3.859   1.044   2.974
 6001TIP3    H218010   3.775   0.969   2.873
 6002TIP3   OH218011   0.184   0.778   1.674
 6002TIP3    H118012   0.152   0.694   1.708
 6002TIP3    H218013   0.137   0.843   1.726
 6003TIP3   OH218014   5.319   3.279   3.835
 6003TIP3    H118015   5.253   3.345   3.856
 6003TIP3    H218016   5.313   3.269   3.740
 6004TIP3   OH218017   1.862   4.694   0.420
 6004TIP3    H118018   1.828   4.674   0.508
 6004TIP3    H218019   1.948   4.652   0.418
 6005TIP3   OH218020   6.157   4.996   4.872
 6005TIP3    H118021   6.157   4.962   4.783
 6005TIP3    H218022   6.168   5.090   4.863
 6006TIP3   OH218023   2.360   1.402   1.452
 6006TIP3    H118024   2.282   1.453   1.474
 6006TIP3    H218025   2.434   1.460   1.469
 6007TIP3   OH218026   3.700   0.030   2.219
 6007TIP3    H118027   3.719   0.047   2.127
 6007TIP3    H218028   3.767   0.079   2.267
 6008TIP3   OH218029   0.089   1.876   1.640
 6008TIP3    H118030   0.034   1.916   1.573
 6008TIP3    H218031   0.172   1.922   1.634
 6009TIP3   OH218032   2.547   2.140   2.421
 6009TIP3    H118033   2.488   2.160   2.349
 6009TIP3    H218034   2.493   2.093   2.484
 6010TIP3   OH218035   1.973   3.351   0.820
 6010TIP3    H118036   1.961   3.286   0.890
 6010TIP3    H218037   1.892   3.402   0.821
 6011TIP3   OH218038   6.305   0.774   4.962
 6011TIP3    H118039   6.257   0.851   4.992
 6011TIP3    H218040   6.394   0.787   4.996
 6012TIP3   OH218041   1.104   5.115   3.022
 6012TIP3    H118042   1.123   5.199   3.063
 6012TIP3    H218043   1.150   5.118   2.938
 6013TIP3   OH218044   1.993   2.748   4.050
 6013TIP3    H118045   2.002   2.714   4.139
 6013TIP3    H218046   2.001   2.671   3.994
 6014TIP3   OH218047   5.878   0.182   2.772
 6014TIP3    H118048   5.809   0.161   2.709
 6014TIP3    H218049   5.835   0.174   2.858
 6015TIP3   OH218050   1.438   4.803   4.896
 6015TIP3    H118051   1.359   4.774   4.850
 6015TIP3    H218052   1.473   4.723   4.935
 6016TIP3   OH218053   4.555   2.595   3.174
 6016TIP3    H118054   4.580   2.554   3.256
 6016TIP3    H218055   4.613   2.671   3.166
 6017TIP3   OH218056   5.993   5.241   2.892
 6017TIP3    H118057   5.969   5.332   2.911
 6017TIP3    H218058   6.087   5.244   2.877
 6018TIP3   OH218059   0.125   5.368   1.794
 6018TIP3    H118060   0.207   5.409   1.767
 6018TIP3    H218061   0.146   5.325   1.877
 6019TIP3   OH218062   6.272   4.401   0.117
 6019TIP3    H118063   6.333   4.332   0.143
 6019TIP3    H218064   6.304   4.431   0.033
 6020TIP3   OH218065   5.180   3.976   2.742
 6020TIP3    H118066   5.121   3.921   2.691
 6020TIP3    H218067   5.158   4.065   2.716
 6021TIP3   OH218068   1.734   3.816   1.572
 6021TIP3    H118069   1.683   3.760   1.631
 6021TIP3    H218070   1.785   3.872   1.631
 6022TIP3   OH218071   0.094   3.143   2.364
 6022TIP3    H118072   0.012   3.099   2.386
 6022TIP3    H218073   0.162   3.077   2.381
 6023TIP3   OH218074   6.070   4.689   0.731
 6023TIP3    H118075   6.064   4.614   0.790
 6023TIP3    H218076   6.162   4.713   0.732
 6024TIP3   OH218077   2.600   0.462   0.319
 6024TIP3    H118078   2.541   0.453   0.393
 6024TIP3    H218079   2.544   0.454   0.242
 6025TIP3   OH218080   1.898   3.060   4.815
 6025TIP3    H118081   1.904   3.008   4.895
 6025TIP3    H218082   1.940   3.144   4.837
 6026TIP3   OH218083   4.430   0.870   2.659
 6026TIP3    H118084   4.466   0.784   2.681
 6026TIP3    H218085   4.440   0.921   2.739
 6027TIP3   OH218086   0.983   3.694   3.781
 6027TIP3    H118087   0.896   3.667   3.810
 6027TIP3    H218088   0.988   3.787   3.804
 6028TIP3   OH218089   1.158   3.689   3.228
 6028TIP3    H118090   1.162   3.622   3.296
 6028TIP3    H218091   1.249   3.700   3.199
 6029TIP3   OH218092   3.662   0.178   0.628
 6029TIP3    H118093   3.574   0.214   0.643
 6029TIP3    H218094   3.647   0.103   0.570
 6030TIP3   OH218095   3.729   3.686   0.444
 6030TIP3    H118096   3.746   3.727   0.528
 6030TIP3    H218097   3.770   3.599   0.450
 6031TIP3   OH218098   5.074   4.874   3.100
 6031TIP3    H118099   5.045   4.898   3.012
 6031TIP3    H218100   5.022   4.797   3.122
 6032TIP3   OH218101   0.419   5.560   3.611
 6032TIP3    H118102   0.355   5.531   3.546
 6032TIP3    H218103   0.501   5.518   3.584
 6033TIP3   OH218104   0.856   5.558   4.424
 6033TIP3    H118105   0.764   5.533   4.411
 6033TIP3    H218106   0.865   5.566   4.519
 6034TIP3   OH218107   1.162   0.711   3.370
 6034TIP3    H118108   1.228   0.641   3.367
 6034TIP3    H218109   1.124   0.711   3.282
 6035TIP3   OH218110   1.929   0.382   0.309
 6035TIP3    H118111   2.012   0.381   0.261
 6035TIP3    H218112   1.934   0.306   0.367
 6036TIP3   OH218113   3.367   5.146   0.328
 6036TIP3    H118114   3.432   5.211   0.351
 6036TIP3    H218115   3.322   5.183   0.251
 6037TIP3   OH218116   0.630   0.541   2.380
 6037TIP3    H118117   0.603   0.588   2.459
 6037TIP3    H218118   0.630   0.608   2.311
 6038TIP3   OH218119   4.230   0.487   0.781
 6038TIP3    H118120   4.137   0.506   0.787
 6038TIP3    H218121   4.254   0.510   0.691
 6039TIP3   OH218122   4.389   0.025   2.291
 6039TIP3    H118123   4.468   0.058   2.249
 6039TIP3    H218124   4.370  -0.057   2.246
 6040TIP3   OH218125   4.046   0.500   3.553
 6040TIP3    H118126   4.080   0.589   3.543
 6040TIP3    H218127   3.952   0.510   3.560
 6041TIP3   OH218128   2.124   4.071   4.806
 6041TIP3    H118129   2.080   4.090   4.723
 6041TIP3    H218130   2.055   4.084   4.872
 6042TIP3   OH218131   5.413   4.450   0.225
 6042TIP3    H118132   5.464   4.490   0.295
 6042TIP3    H218133   5.322   4.456   0.256
 6043TIP3   OH218134   4.823   2.834   1.034
 6043TIP3    H118135   4.884   2.771   1.074
 6043TIP3    H218136   4.765   2.780   0.980
 6044TIP3   OH218137   4.865   5.790   3.853
 6044TIP3    H118138   4.775   5.758   3.846
 6044TIP3    H218139   4.857   5.885   3.842
 6045TIP3   OH218140   1.155   4.638   5.141
 6045TIP3    H118141   1.105   4.611   5.064
 6045TIP3    H218142   1.233   4.583   5.139
 6046TIP3   OH218143   0.903   4.169   3.555
 6046TIP3    H118144   0.994   4.138   3.555
 6046TIP3    H218145   0.900   4.233   3.627
 6047TIP3   OH218146   2.840   1.518   2.414
 6047TIP3    H118147   2.881   1.539   2.498
 6047TIP3    H218148   2.865   1.427   2.398
 6048TIP3   OH218149   4.552   5.287   2.569
 6048TIP3    H118150   4.557   5.277   2.664
 6048TIP3    H218151   4.563   5.198   2.536
 6049TIP3   OH218152   0.051   4.244   1.686
 6049TIP3    H118153   0.106   4.313   1.724
 6049TIP3    H218154   0.012   4.201   1.762
 6050TIP3   OH218155   3.719   4.597   4.571
 6050TIP3    H118156   3.674   4.680   4.584
 6050TIP3    H218157   3.660   4.546   4.514
 6051TIP3   OH218158   3.044   2.277   3.158
 6051TIP3    H118159   3.050   2.340   3.230
 6051TIP3    H218160   3.004   2.326   3.086
 6052TIP3   OH218161   1.195   5.240   2.258
 6052TIP3    H118162   1.171   5.308   2.321
 6052TIP3    H218163   1.260   5.281   2.201
 6053TIP3   OH218164   2.203   2.251   1.203
 6053TIP3    H118165   2.185   2.191   1.131
 6053TIP3    H218166   2.237   2.330   1.160
 6054TIP3   OH218167   1.695   4.413   0.913
 6054TIP3    H118168   1.692   4.366   0.997
 6054TIP3    H218169   1.637   4.488   0.925
 6055TIP3   OH218170   3.073   0.122   3.506
 6055TIP3    H118171   3.150   0.071   3.528
 6055TIP3    H218172   3.003   0.084   3.559
 6056TIP3   OH218173   0.189   1.932   2.051
 6056TIP3    H118174   0.219   1.917   1.961
 6056TIP3    H218175   0.132   1.858   2.070
 6057TIP3   OH218176   4.289   2.836   4.388
 6057TIP3    H118177   4.313   2.845   4.296
 6057TIP3    H218178   4.309   2.745   4.409
 6058TIP3   OH218179   6.187   2.762   1.381
 6058TIP3    H118180   6.181   2.803   1.295
 6058TIP3    H218181   6.183   2.668   1.364
 6059TIP3   OH218182   1.915   2.421   4.624
 6059TIP3    H118183   1.955   2.497   4.665
 6059TIP3    H218184   1.976   2.349   4.642
 6060TIP3   OH218185   1.939   5.463   4.920
 6060TIP3    H118186   1.905   5.478   5.008
 6060TIP3    H218187   1.932   5.369   4.907
 6061TIP3   OH218188   3.632   5.070   2.180
 6061TIP3    H118189   3.639   4.999   2.117
 6061TIP3    H218190   3.692   5.046   2.250
 6062TIP3   OH218191   2.723   5.299   0.018
 6062TIP3    H118192   2.701   5.238   0.089
 6062TIP3    H218193   2.712   5.385   0.057
 6063TIP3   OH218194   0.471   2.031   0.888
 6063TIP3    H118195   0.459   1.939   0.864
 6063TIP3    H218196   0.382   2.067   0.891
 6064TIP3   OH218197   0.407   4.934   4.285
 6064TIP3    H118198   0.375   5.023   4.271
 6064TIP3    H218199   0.488   4.945   4.335
 6065TIP3   OH218200   2.640   1.196   1.237
 6065TIP3    H118201   2.665   1.118   1.287
 6065TIP3    H218202   2.551   1.178   1.207
 6066TIP3   OH218203   1.075   0.853   3.161
 6066TIP3    H118204   1.079   0.890   3.072
 6066TIP3    H218205   1.113   0.921   3.216
 6067TIP3   OH218206   2.812   3.770   1.530
 6067TIP3    H118207   2.900   3.742   1.506
 6067TIP3    H218208   2.794   3.726   1.613
 6068TIP3   OH218209   4.712   4.870   3.641
 6068TIP3    H118210   4.666   4.952   3.622
 6068TIP3    H218211   4.760   4.851   3.560
 6069TIP3   OH218212   5.072   4.431   4.789
 6069TIP3    H118213   5.108   4.491   4.724
 6069TIP3    H218214   5.052   4.351   4.740
 6070TIP3   OH218215   4.457   4.550   1.506
 6070TIP3    H118216   4.377   4.498   1.516
 6070TIP3    H218217   4.528   4.487   1.511
 6071TIP3   OH218218   0.647   2.112   2.650
 6071TIP3    H118219   0.636   2.022   2.681
 6071TIP3    H218220   0.703   2.153   2.716
 6072TIP3   OH218221   1.479   4.355   1.795
 6072TIP3    H118222   1.519   4.268   1.791
 6072TIP3    H218223   1.542   4.412   1.749
 6073TIP3   OH218224   6.139   0.508   3.787
 6073TIP3    H118225   6.065   0.465   3.830
 6073TIP3    H218226   6.115   0.601   3.787
 6074TIP3   OH218227   5.330   4.427   4.863
 6074TIP3    H118228   5.336   4.503   4.921
 6074TIP3    H218229   5.238   4.422   4.839
 6075TIP3   OH218230   4.303   5.122   0.222
 6075TIP3    H118231   4.250   5.199   0.200
 6075TIP3    H218232   4.381   5.159   0.263
 6076TIP3   OH218233   5.379   0.908   2.081
 6076TIP3    H118234   5.333   0.951   2.009
 6076TIP3    H218235   5.406   0.981   2.138
 6077TIP3   OH218236   3.473   2.981   0.714
 6077TIP3    H118237   3.500   2.893   0.738
 6077TIP3    H218238   3.438   2.973   0.626
 6078TIP3   OH218239   2.240   3.999   0.723
 6078TIP3    H118240   2.282   4.045   0.650
 6078TIP3    H218241   2.162   3.958   0.685
 6079TIP3   OH218242   3.809   4.275   2.774
 6079TIP3    H118243   3.745   4.255   2.706
 6079TIP3    H218244   3.875   4.206   2.765
 6080TIP3   OH218245   6.133   2.448   0.530
 6080TIP3    H118246   6.110   2.395   0.453
 6080TIP3    H218247   6.226   2.466   0.519
 6081TIP3   OH218248   0.262   3.775   1.268
 6081TIP3    H118249   0.249   3.693   1.316
 6081TIP3    H218250   0.269   3.748   1.176
 6082TIP3   OH218251   6.040   4.456   0.532
 6082TIP3    H118252   5.982   4.467   0.458
 6082TIP3    H218253   6.057   4.545   0.563
 6083TIP3   OH218254   0.585   1.898   2.988
 6083TIP3    H118255   0.589   1.895   2.893
 6083TIP3    H218256   0.666   1.942   3.014
 6084TIP3   OH218257  -0.011   0.812   0.478
 6084TIP3    H118258   0.081   0.811   0.504
 6084TIP3    H218259  -0.049   0.887   0.525
 6085TIP3   OH218260   1.113   3.337   3.902
 6085TIP3    H118261   1.182   3.305   3.959
 6085TIP3    H218262   1.095   3.426   3.934
 6086TIP3   OH218263   3.442   3.917   3.268
 6086TIP3    H118264   3.461   3.880   3.355
 6086TIP3    H218265   3.408   4.005   3.286
 6087TIP3   OH218266   0.686   4.169   2.669
 6087TIP3    H118267   0.688   4.099   2.734
 6087TIP3    H218268   0.592   4.186   2.656
 6088TIP3   OH218269   4.486   3.782   3.753
 6088TIP3    H118270   4.420   3.836   3.709
 6088TIP3    H218271   4.455   3.774   3.843
 6089TIP3   OH218272   4.461   4.633   4.116
 6089TIP3    H118273   4.530   4.568   4.132
 6089TIP3    H218274   4.467   4.694   4.188
 6090TIP3   OH218275   2.553   3.747   4.361
 6090TIP3    H118276   2.507   3.802   4.297
 6090TIP3    H218277   2.503   3.759   4.442
 6091TIP3   OH218278   0.409   2.549   0.714
 6091TIP3    H118279   0.331   2.502   0.682
 6091TIP3    H218280   0.416   2.625   0.656
 6092TIP3   OH218281   5.029   5.588   3.762
 6092TIP3    H118282   4.990   5.664   3.804
 6092TIP3    H218283   5.120   5.586   3.794
 6093TIP3   OH218284   2.037   4.633   2.480
 6093TIP3    H118285   2.064   4.684   2.557
 6093TIP3    H218286   1.963   4.581   2.510
 6094TIP3   OH218287   2.914   0.149   0.623
 6094TIP3    H118288   2.847   0.130   0.690
 6094TIP3    H218289   2.935   0.064   0.585
 6095TIP3   OH218290   1.739   0.682   4.719
 6095TIP3    H118291   1.721   0.631   4.798
 6095TIP3    H218292   1.763   0.617   4.653
 6096TIP3   OH218293   1.039   5.533   4.217
 6096TIP3    H118294   1.051   5.438   4.219
 6096TIP3    H218295   0.961   5.547   4.271
 6097TIP3   OH218296   3.046   5.966   4.332
 6097TIP3    H118297   3.102   5.933   4.401
 6097TIP3    H218298   3.071   5.916   4.254
 6098TIP3   OH218299   1.834   1.954   0.864
 6098TIP3    H118300   1.835   2.050   0.857
 6098TIP3    H218301   1.742   1.930   0.856
 6099TIP3   OH218302   1.371   2.225   4.033
 6099TIP3    H118303   1.367   2.193   3.942
 6099TIP3    H218304   1.377   2.320   4.024
 6100TIP3   OH218305   4.618   0.217   2.775
 6100TIP3    H118306   4.560   0.273   2.828
 6100TIP3    H218307   4.559   0.152   2.736
 6101TIP3   OH218308   2.326   4.296   3.413
 6101TIP3    H118309   2.309   4.205   3.437
 6101TIP3    H218310   2.337   4.342   3.496
 6102TIP3   OH218311   1.796   5.010   1.334
 6102TIP3    H118312   1.781   4.927   1.380
 6102TIP3    H218313   1.786   5.077   1.401
 6103TIP3   OH218314   1.682   2.516   3.730
 6103TIP3    H118315   1.770   2.495   3.699
 6103TIP3    H218316   1.659   2.596   3.684
 6104TIP3   OH218317   0.420   2.162   3.184
 6104TIP3    H118318   0.499   2.176   3.132
 6104TIP3    H218319   0.389   2.250   3.204
 6105TIP3   OH218320   0.857   1.613   3.711
 6105TIP3    H118321   0.772   1.657   3.709
 6105TIP3    H218322   0.875   1.592   3.619
 6106TIP3   OH218323   6.101   3.352   2.876
 6106TIP3    H118324   6.166   3.404   2.828
 6106TIP3    H218325   6.153   3.290   2.926
 6107TIP3   OH218326   4.787   1.760   2.847
 6107TIP3    H118327   4.747   1.684   2.805
 6107TIP3    H218328   4.816   1.729   2.932
 6108TIP3   OH218329   2.966   2.882   3.533
 6108TIP3    H118330   2.894   2.848   3.587
 6108TIP3    H218331   2.973   2.974   3.558
 6109TIP3   OH218332   2.817   0.942   1.925
 6109TIP3    H118333   2.871   0.877   1.881
 6109TIP3    H218334   2.752   0.969   1.860
 6110TIP3   OH218335   3.326   0.439   3.942
 6110TIP3    H118336   3.297   0.439   4.034
 6110TIP3    H218337   3.264   0.381   3.897
 6111TIP3   OH218338   2.765   1.817   2.725
 6111TIP3    H118339   2.684   1.810   2.676
 6111TIP3    H218340   2.740   1.801   2.816
 6112TIP3   OH218341   3.347   5.347   1.263
 6112TIP3    H118342   3.298   5.428   1.271
 6112TIP3    H218343   3.439   5.374   1.265
 6113TIP3   OH218344   4.009   0.963   0.814
 6113TIP3    H118345   4.059   0.916   0.880
 6113TIP3    H218346   4.073   1.024   0.775
 6114TIP3   OH218347   6.007   5.924   0.118
 6114TIP3    H118348   5.928   5.900   0.168
 6114TIP3    H218349   6.056   5.980   0.178
 6115TIP3   OH218350   2.923   0.061   3.086
 6115TIP3    H118351   2.947   0.122   3.155
 6115TIP3    H218352   2.829   0.047   3.097
 6116TIP3   OH218353   4.570   3.320   3.261
 6116TIP3    H118354   4.536   3.264   3.331
 6116TIP3    H218355   4.556   3.409   3.294
 6117TIP3   OH218356   1.186   1.535   3.460
 6117TIP3    H118357   1.214   1.614   3.413
 6117TIP3    H218358   1.190   1.559   3.552
 6118TIP3   OH218359   3.235   3.276   1.162
 6118TIP3    H118360   3.294   3.217   1.115
 6118TIP3    H218361   3.293   3.339   1.205
 6119TIP3   OH218362   5.845   0.466   0.145
 6119TIP3    H118363   5.784   0.401   0.110
 6119TIP3    H218364   5.902   0.417   0.204
 6120TIP3   OH218365   5.285   1.334   1.602
 6120TIP3    H118366   5.223   1.289   1.544
 6120TIP3    H218367   5.314   1.410   1.551
 6121TIP3   OH218368   3.292   1.027   1.448
 6121TIP3    H118369   3.266   0.936   1.437
 6121TIP3    H218370   3.330   1.031   1.536
 6122TIP3   OH218371   0.128   5.605   1.592
 6122TIP3    H118372   0.087   5.518   1.594
 6122TIP3    H218373   0.112   5.641   1.679
 6123TIP3   OH218374   1.076   0.577   0.404
 6123TIP3    H118375   1.118   0.500   0.365
 6123TIP3    H218376   1.063   0.553   0.496
 6124TIP3   OH218377   0.426   1.874   3.850
 6124TIP3    H118378   0.337   1.841   3.833
 6124TIP3    H218379   0.413   1.947   3.910
 6125TIP3   OH218380   3.280   0.586   1.931
 6125TIP3    H118381   3.234   0.614   2.010
 6125TIP3    H218382   3.291   0.492   1.941
 6126TIP3   OH218383   3.236   5.324   3.932
 6126TIP3    H118384   3.254   5.238   3.970
 6126TIP3    H218385   3.296   5.383   3.977
 6127TIP3   OH218386   2.449   5.033   3.311
 6127TIP3    H118387   2.487   5.091   3.377
 6127TIP3    H218388   2.512   4.961   3.302
 6128TIP3   OH218389   2.034   5.078   2.978
 6128TIP3    H118390   2.046   4.983   2.987
 6128TIP3    H218391   2.058   5.097   2.888
 6129TIP3   OH218392   1.072   2.676   2.992
 6129TIP3    H118393   1.061   2.751   3.050
 6129TIP3    H218394   1.159   2.642   3.012
 6130TIP3   OH218395   0.606   4.580   0.653
 6130TIP3    H118396   0.677   4.554   0.710
 6130TIP3    H218397   0.527   4.547   0.695
 6131TIP3   OH218398   2.562   3.202   2.577
 6131TIP3    H118399   2.618   3.145   2.631
 6131TIP3    H218400   2.526   3.265   2.639
 6132TIP3   OH218401   1.336   1.967   3.126
 6132TIP3    H118402   1.269   1.971   3.058
 6132TIP3    H218403   1.415   1.939   3.081
 6133TIP3   OH218404   2.985   3.103   2.939
 6133TIP3    H118405   3.032   3.108   3.023
 6133TIP3    H218406   2.911   3.046   2.956
 6134TIP3   OH218407   1.708   4.361   0.289
 6134TIP3    H118408   1.732   4.434   0.345
 6134TIP3    H218409   1.790   4.335   0.246
 6135TIP3   OH218410   0.197   2.110   2.255
 6135TIP3    H118411   0.203   2.059   2.174
 6135TIP3    H218412   0.109   2.093   2.288
 6136TIP3   OH218413   4.626   4.261   3.428
 6136TIP3    H118414   4.613   4.319   3.353
 6136TIP3    H218415   4.592   4.310   3.503
 6137TIP3   OH218416   5.668   4.785   4.791
 6137TIP3    H118417   5.635   4.858   4.844
 6137TIP3    H218418   5.763   4.792   4.799
 6138TIP3   OH218419   3.178   5.046   2.198
 6138TIP3    H118420   3.253   4.986   2.207
 6138TIP3    H218421   3.214   5.122   2.152
 6139TIP3   OH218422   0.251   1.051   1.327
 6139TIP3    H118423   0.235   1.062   1.233
 6139TIP3    H218424   0.252   0.957   1.341
 6140TIP3   OH218425   0.517   0.665   4.342
 6140TIP3    H118426   0.485   0.754   4.356
 6140TIP3    H218427   0.438   0.612   4.334
 6141TIP3   OH218428   0.412   5.598   4.926
 6141TIP3    H118429   0.353   5.625   4.856
 6141TIP3    H218430   0.487   5.657   4.918
 6142TIP3   OH218431   3.866   3.933   1.062
 6142TIP3    H118432   3.821   3.859   1.105
 6142TIP3    H218433   3.904   3.983   1.134
 6143TIP3   OH218434   2.629   0.212   4.098
 6143TIP3    H118435   2.578   0.190   4.176
 6143TIP3    H218436   2.624   0.307   4.092
 6144TIP3   OH218437   5.225   1.229   0.415
 6144TIP3    H118438   5.150   1.172   0.396
 6144TIP3    H218439   5.194   1.284   0.487
 6145TIP3   OH218440   2.586   4.092   5.064
 6145TIP3    H118441   2.545   4.116   5.147
 6145TIP3    H218442   2.520   4.037   5.020
 6146TIP3   OH218443   5.315   5.771   1.138
 6146TIP3    H118444   5.410   5.777   1.126
 6146TIP3    H218445   5.288   5.859   1.163
 6147TIP3   OH218446   3.727   2.783   3.915
 6147TIP3    H118447   3.754   2.800   4.005
 6147TIP3    H218448   3.642   2.828   3.906
 6148TIP3   OH218449   1.148   3.603   4.755
 6148TIP3    H118450   1.091   3.532   4.727
 6148TIP3    H218451   1.171   3.649   4.674
 6149TIP3   OH218452   2.216   4.997   0.403
 6149TIP3    H118453   2.309   4.975   0.406
 6149TIP3    H218454   2.211   5.069   0.339
 6150TIP3   OH218455   0.919   4.746   4.230
 6150TIP3    H118456   0.909   4.697   4.148
 6150TIP3    H218457   0.968   4.824   4.204
 6151TIP3   OH218458   2.311   4.023   3.366
 6151TIP3    H118459   2.229   4.012   3.318
 6151TIP3    H218460   2.319   3.942   3.417
 6152TIP3   OH218461   5.696   3.226   3.019
 6152TIP3    H118462   5.666   3.168   2.949
 6152TIP3    H218463   5.628   3.294   3.023
 6153TIP3   OH218464   4.047   1.869   4.482
 6153TIP3    H118465   3.986   1.795   4.490
 6153TIP3    H218466   4.022   1.913   4.402
 6154TIP3   OH218467   2.918   1.592   1.821
 6154TIP3    H118468   2.939   1.684   1.832
 6154TIP3    H218469   2.936   1.552   1.907
 6155TIP3   OH218470   2.987   4.979   1.694
 6155TIP3    H118471   3.057   5.034   1.729
 6155TIP3    H218472   2.990   4.899   1.746
 6156TIP3   OH218473   0.320   3.031   1.145
 6156TIP3    H118474   0.294   2.945   1.111
 6156TIP3    H218475   0.252   3.053   1.209
 6157TIP3   OH218476   0.152   2.468   4.744
 6157TIP3    H118477   0.081   2.483   4.807
 6157TIP3    H218478   0.207   2.546   4.751
 6158TIP3   OH218479   5.752   4.659   2.060
 6158TIP3    H118480   5.771   4.569   2.084
 6158TIP3    H218481   5.722   4.655   1.969
 6159TIP3   OH218482   4.158   0.015   3.595
 6159TIP3    H118483   4.120   0.071   3.662
 6159TIP3    H218484   4.139   0.060   3.513
 6160TIP3   OH218485   4.996   5.880   2.530
 6160TIP3    H118486   5.024   5.855   2.442
 6160TIP3    H218487   4.925   5.819   2.552
 6161TIP3   OH218488   5.638   1.419   2.605
 6161TIP3    H118489   5.690   1.431   2.526
 6161TIP3    H218490   5.683   1.350   2.653
 6162TIP3   OH218491   5.537   0.505   4.249
 6162TIP3    H118492   5.451   0.528   4.284
 6162TIP3    H218493   5.576   0.448   4.314
 6163TIP3   OH218494   3.488   2.450   0.670
 6163TIP3    H118495   3.455   2.439   0.581
 6163TIP3    H218496   3.470   2.366   0.713
 6164TIP3   OH218497   1.169   0.117   3.821
 6164TIP3    H118498   1.193   0.138   3.731
 6164TIP3    H218499   1.073   0.110   3.820
 6165TIP3   OH218500   5.340   0.873   4.476
 6165TIP3    H118501   5.342   0.860   4.381
 6165TIP3    H218502   5.323   0.967   4.487
 6166TIP3   OH218503   6.249   3.962   0.390
 6166TIP3    H118504   6.177   3.932   0.446
 6166TIP3    H218505   6.277   3.884   0.343
 6167TIP3   OH218506   5.017   5.626   1.720
 6167TIP3    H118507   5.035   5.599   1.809
 6167TIP3    H218508   4.936   5.677   1.726
 6168TIP3   OH218509   6.133   5.146   4.078
 6168TIP3    H118510   6.045   5.176   4.057
 6168TIP3    H218511   6.178   5.142   3.994
 6169TIP3   OH218512   2.809   3.948   4.091
 6169TIP3    H118513   2.748   3.998   4.144
 6169TIP3    H218514   2.888   3.940   4.145
 6170TIP3   OH218515   1.390   2.137   3.768
 6170TIP3    H118516   1.400   2.057   3.718
 6170TIP3    H218517   1.429   2.205   3.713
 6171TIP3   OH218518   2.364   3.250   0.712
 6171TIP3    H118519   2.305   3.326   0.716
 6171TIP3    H218520   2.308   3.176   0.736
 6172TIP3   OH218521   3.148   1.208   4.664
 6172TIP3    H118522   3.138   1.268   4.590
 6172TIP3    H218523   3.243   1.196   4.672
 6173TIP3   OH218524   1.231   1.938   1.269
 6173TIP3    H118525   1.205   1.849   1.290
 6173TIP3    H218526   1.324   1.932   1.249
 6174TIP3   OH218527   1.144   2.374   0.105
 6174TIP3    H118528   1.107   2.422   0.179
 6174TIP3    H218529   1.234   2.357   0.130
 6175TIP3   OH218530   3.274   0.598   0.380
 6175TIP3    H118531   3.337   0.667   0.360
 6175TIP3    H218532   3.210   0.602   0.308
 6176TIP3   OH218533   4.890   2.072   3.117
 6176TIP3    H118534   4.937   2.156   3.121
 6176TIP3    H218535   4.951   2.012   3.074
 6177TIP3   OH218536   4.678   4.054   3.658
 6177TIP3    H118537   4.587   4.027   3.646
 6177TIP3    H218538   4.694   4.116   3.588
 6178TIP3   OH218539   4.662   1.340   2.953
 6178TIP3    H118540   4.629   1.382   2.874
 6178TIP3    H218541   4.750   1.309   2.929
 6179TIP3   OH218542   0.444   2.071   4.043
 6179TIP3    H118543   0.436   2.066   4.138
 6179TIP3    H218544   0.524   2.122   4.028
 6180TIP3   OH218545   0.820   4.764   0.333
 6180TIP3    H118546   0.870   4.771   0.252
 6180TIP3    H218547   0.827   4.672   0.358
 6181TIP3   OH218548   2.512   1.373   4.595
 6181TIP3    H118549   2.489   1.359   4.687
 6181TIP3    H218550   2.579   1.441   4.597
 6182TIP3   OH218551   1.188   2.966   0.031
 6182TIP3    H118552   1.203   2.923   0.115
 6182TIP3    H218553   1.243   3.044   0.034
 6183TIP3   OH218554   3.722   1.212   0.395
 6183TIP3    H118555   3.692   1.132   0.437
 6183TIP3    H218556   3.742   1.271   0.467
 6184TIP3   OH218557   1.773   3.124   4.305
 6184TIP3    H118558   1.860   3.133   4.268
 6184TIP3    H218559   1.770   3.035   4.339
 6185TIP3   OH218560   3.180   2.538   4.468
 6185TIP3    H118561   3.196   2.451   4.505
 6185TIP3    H218562   3.111   2.575   4.522
 6186TIP3   OH218563   3.916   4.538   1.006
 6186TIP3    H118564   3.947   4.522   0.917
 6186TIP3    H218565   3.882   4.627   1.004
 6187TIP3   OH218566   1.122   4.713   2.991
 6187TIP3    H118567   1.123   4.622   3.019
 6187TIP3    H218568   1.171   4.759   3.060
 6188TIP3   OH218569   0.080   0.892   0.784
 6188TIP3    H118570   0.017   0.820   0.788
 6188TIP3    H218571   0.027   0.971   0.790
 6189TIP3   OH218572   6.188   3.283   4.348
 6189TIP3    H118573   6.161   3.375   4.341
 6189TIP3    H218574   6.145   3.252   4.427
 6190TIP3   OH218575   3.453   5.909   1.064
 6190TIP3    H118576   3.536   5.860   1.064
 6190TIP3    H218577   3.472   5.987   1.012
 6191TIP3   OH218578   0.842   0.963   0.687
 6191TIP3    H118579   0.807   0.899   0.625
 6191TIP3    H218580   0.908   1.011   0.637
 6192TIP3   OH218581   4.460   5.849   0.238
 6192TIP3    H118582   4.433   5.829   0.327
 6192TIP3    H218583   4.446   5.768   0.189
 6193TIP3   OH218584   6.057   0.864   1.892
 6193TIP3    H118585   5.965   0.867   1.866
 6193TIP3    H218586   6.056   0.879   1.986
 6194TIP3   OH218587   5.098   4.505   3.337
 6194TIP3    H118588   5.122   4.412   3.337
 6194TIP3    H218589   5.182   4.552   3.333
 6195TIP3   OH218590   2.914   4.094   4.802
 6195TIP3    H118591   2.844   4.057   4.748
 6195TIP3    H218592   2.995   4.071   4.756
 6196TIP3   OH218593   3.845   4.869   4.435
 6196TIP3    H118594   3.811   4.858   4.523
 6196TIP3    H218595   3.919   4.808   4.430
 6197TIP3   OH218596   4.175   3.758   4.649
 6197TIP3    H118597   4.253   3.805   4.681
 6197TIP3    H218598   4.109   3.826   4.640
 6198TIP3   OH218599   3.877   2.674   0.851
 6198TIP3    H118600   3.793   2.707   0.820
 6198TIP3    H218601   3.883   2.585   0.815
 6199TIP3   OH218602   3.877   0.059   2.007
 6199TIP3    H118603   3.904   0.038   1.917
 6199TIP3    H218604   3.958   0.064   2.056
 6200TIP3   OH218605   6.050   1.613   2.214
 6200TIP3    H118606   6.138   1.575   2.216
 6200TIP3    H218607   6.024   1.609   2.122
 6201TIP3   OH218608   5.584   5.837   1.037
 6201TIP3    H118609   5.648   5.774   1.071
 6201TIP3    H218610   5.567   5.808   0.947
 6202TIP3   OH218611   5.558   1.206   3.945
 6202TIP3    H118612   5.600   1.120   3.942
 6202TIP3    H218613   5.495   1.205   3.874
 6203TIP3   OH218614   4.018   3.492   0.081
 6203TIP3    H118615   4.049   3.551   0.012
 6203TIP3    H218616   4.012   3.547   0.159
 6204TIP3   OH218617   2.677   1.770   0.940
 6204TIP3    H118618   2.720   1.794   0.858
 6204TIP3    H218619   2.688   1.675   0.946
 6205TIP3   OH218620   0.572   4.082   4.632
 6205TIP3    H118621   0.623   4.001   4.632
 6205TIP3    H218622   0.612   4.136   4.564
 6206TIP3   OH218623   3.056   5.690   4.720
 6206TIP3    H118624   3.035   5.608   4.766
 6206TIP3    H218625   3.005   5.757   4.765
 6207TIP3   OH218626   2.867   5.805   2.728
 6207TIP3    H118627   2.914   5.753   2.794
 6207TIP3    H218628   2.887   5.896   2.752
 6208TIP3   OH218629   3.312   2.695   0.567
 6208TIP3    H118630   3.291   2.618   0.515
 6208TIP3    H218631   3.256   2.688   0.644
 6209TIP3   OH218632   4.110   2.793   0.771
 6209TIP3    H118633   4.028   2.759   0.806
 6209TIP3    H218634   4.178   2.758   0.829
 6210TIP3   OH218635   2.710   4.374   4.268
 6210TIP3    H118636   2.732   4.414   4.184
 6210TIP3    H218637   2.795   4.349   4.305
 6211TIP3   OH218638   0.026   0.126   0.611
 6211TIP3    H118639  -0.012   0.108   0.525
 6211TIP3    H218640   0.108   0.173   0.592
 6212TIP3   OH218641   1.737   1.695   5.227
 6212TIP3    H118642   1.744   1.717   5.134
 6212TIP3    H218643   1.827   1.677   5.254
 6213TIP3   OH218644   0.139   5.100   4.438
 6213TIP3    H118645   0.199   5.098   4.363
 6213TIP3    H218646   0.060   5.143   4.405
 6214TIP3   OH218647   5.052   5.505   4.587
 6214TIP3    H118648   4.977   5.560   4.611
 6214TIP3    H218649   5.022   5.454   4.512
 6215TIP3   OH218650   6.052   3.442   3.543
 6215TIP3    H118651   6.046   3.459   3.449
 6215TIP3    H218652   5.961   3.428   3.571
 6216TIP3   OH218653   0.545   3.286   2.685
 6216TIP3    H118654   0.490   3.266   2.761
 6216TIP3    H218655   0.583   3.202   2.659
 6217TIP3   OH218656   4.073   2.541   4.448
 6217TIP3    H118657   4.062   2.634   4.470
 6217TIP3    H218658   4.048   2.495   4.528
 6218TIP3   OH218659   6.243   1.480   3.020
 6218TIP3    H118660   6.281   1.399   2.986
 6218TIP3    H218661   6.276   1.549   2.962
 6219TIP3   OH218662   5.445   4.168   4.678
 6219TIP3    H118663   5.408   4.233   4.620
 6219TIP3    H218664   5.474   4.097   4.621
 6220TIP3   OH218665   3.826   5.669   0.793
 6220TIP3    H118666   3.888   5.732   0.756
 6220TIP3    H218667   3.876   5.622   0.860
 6221TIP3   OH218668   1.442   1.620   0.718
 6221TIP3    H118669   1.502   1.672   0.665
 6221TIP3    H218670   1.497   1.582   0.787
 6222TIP3   OH218671   6.024   0.346   0.690
 6222TIP3    H118672   6.047   0.255   0.710
 6222TIP3    H218673   6.086   0.397   0.742
 6223TIP3   OH218674   0.338   0.945   2.444
 6223TIP3    H118675   0.343   0.998   2.524
 6223TIP3    H218676   0.346   0.855   2.474
 6224TIP3   OH218677   4.708   2.234   4.835
 6224TIP3    H118678   4.803   2.220   4.839
 6224TIP3    H218679   4.678   2.174   4.767
 6225TIP3   OH218680   6.123   0.791   4.024
 6225TIP3    H118681   6.087   0.797   3.935
 6225TIP3    H218682   6.203   0.740   4.013
 6226TIP3   OH218683   1.847   2.765   3.726
 6226TIP3    H118684   1.833   2.684   3.776
 6226TIP3    H218685   1.934   2.755   3.687
 6227TIP3   OH218686   6.224   1.044   0.700
 6227TIP3    H118687   6.148   1.018   0.648
 6227TIP3    H218688   6.256   1.124   0.658
 6228TIP3   OH218689   4.066   1.705   2.367
 6228TIP3    H118690   4.085   1.684   2.275
 6228TIP3    H218691   4.080   1.623   2.414
 6229TIP3   OH218692   4.422   0.071   4.298
 6229TIP3    H118693   4.422   0.164   4.321
 6229TIP3    H218694   4.370   0.030   4.367
 6230TIP3   OH218695   4.565   3.140   4.229
 6230TIP3    H118696   4.553   3.070   4.166
 6230TIP3    H218697   4.478   3.155   4.267
 6231TIP3   OH218698   1.593   1.581   4.415
 6231TIP3    H118699   1.602   1.646   4.485
 6231TIP3    H218700   1.514   1.608   4.368
 6232TIP3   OH218701   0.985   5.070   1.802
 6232TIP3    H118702   1.063   5.121   1.828
 6232TIP3    H218703   1.020   4.985   1.777
 6233TIP3   OH218704   2.320   1.480   3.292
 6233TIP3    H118705   2.404   1.486   3.337
 6233TIP3    H218706   2.276   1.404   3.332
 6234TIP3   OH218707   6.176   3.856   3.651
 6234TIP3    H118708   6.139   3.886   3.734
 6234TIP3    H218709   6.270   3.872   3.659
 6235TIP3   OH218710   4.135   3.444   1.092
 6235TIP3    H118711   4.112   3.351   1.101
 6235TIP3    H218712   4.176   3.467   1.175
 6236TIP3   OH218713   2.667   2.141   4.207
 6236TIP3    H118714   2.643   2.089   4.283
 6236TIP3    H218715   2.732   2.203   4.239
 6237TIP3   OH218716   4.999   1.490   2.700
 6237TIP3    H118717   5.021   1.445   2.618
 6237TIP3    H218718   4.907   1.515   2.689
 6238TIP3   OH218719   6.055   3.144   4.033
 6238TIP3    H118720   6.098   3.227   4.012
 6238TIP3    H218721   6.095   3.116   4.115
 6239TIP3   OH218722   3.187   0.821   1.791
 6239TIP3    H118723   3.257   0.756   1.795
 6239TIP3    H218724   3.129   0.797   1.863
 6240TIP3   OH218725   5.951   4.108   0.433
 6240TIP3    H118726   6.001   4.073   0.506
 6240TIP3    H218727   5.892   4.173   0.472
 6241TIP3   OH218728   2.559   2.187   1.269
 6241TIP3    H118729   2.620   2.223   1.334
 6241TIP3    H218730   2.533   2.102   1.305
 6242TIP3   OH218731   2.978   2.350   2.618
 6242TIP3    H118732   3.051   2.333   2.677
 6242TIP3    H218733   2.918   2.276   2.633
 6243TIP3   OH218734   5.583   1.094   2.175
 6243TIP3    H118735   5.581   1.033   2.249
 6243TIP3    H218736   5.517   1.159   2.196
 6244TIP3   OH218737   4.530   3.652   4.410
 6244TIP3    H118738   4.567   3.721   4.356
 6244TIP3    H218739   4.457   3.618   4.358
 6245TIP3   OH218740   6.271   4.937   1.932
 6245TIP3    H118741   6.217   5.007   1.897
 6245TIP3    H218742   6.267   4.868   1.867
 6246TIP3   OH218743   4.660   4.149   4.213
 6246TIP3    H118744   4.593   4.118   4.151
 6246TIP3    H218745   4.612   4.167   4.293
 6247TIP3   OH218746   3.933   0.374   2.516
 6247TIP3    H118747   3.865   0.353   2.581
 6247TIP3    H218748   3.939   0.469   2.518
 6248TIP3   OH218749   5.565   3.583   0.338
 6248TIP3    H118750   5.575   3.654   0.401
 6248TIP3    H218751   5.652   3.546   0.328
 6249TIP3   OH218752   1.209   3.726   2.658
 6249TIP3    H118753   1.232   3.717   2.566
 6249TIP3    H218754   1.220   3.819   2.677
 6250TIP3   OH218755   5.452   3.106   3.296
 6250TIP3    H118756   5.435   3.200   3.283
 6250TIP3    H218757   5.527   3.103   3.355
 6251TIP3   OH218758   0.628   4.071   4.125
 6251TIP3    H118759   0.687   3.996   4.119
 6251TIP3    H218760   0.614   4.082   4.219
 6252TIP3   OH218761   3.713   0.649   1.693
 6252TIP3    H118762   3.643   0.643   1.627
 6252TIP3    H218763   3.682   0.594   1.765
 6253TIP3   OH218764   4.660   3.363   0.413
 6253TIP3    H118765   4.697   3.405   0.492
 6253TIP3    H218766   4.636   3.436   0.356
 6254TIP3   OH218767   2.538   0.890   3.364
 6254TIP3    H118768   2.473   0.915   3.429
 6254TIP3    H218769   2.614   0.862   3.415
 6255TIP3   OH218770   3.223   3.144   2.510
 6255TIP3    H118771   3.237   3.049   2.508
 6255TIP3    H218772   3.309   3.181   2.528
 6256TIP3   OH218773   4.916   2.832   2.218
 6256TIP3    H118774   4.912   2.923   2.189
 6256TIP3    H218775   5.000   2.799   2.185
 6257TIP3   OH218776   5.030   3.416   0.430
 6257TIP3    H118777   4.977   3.403   0.351
 6257TIP3    H218778   5.111   3.456   0.398
 6258TIP3   OH218779   5.316   3.360   0.032
 6258TIP3    H118780   5.323   3.268   0.005
 6258TIP3    H218781   5.365   3.408  -0.035
 6259TIP3   OH218782   5.158   4.241   4.169
 6259TIP3    H118783   5.206   4.159   4.176
 6259TIP3    H218784   5.188   4.281   4.088
 6260TIP3   OH218785   1.528   0.590   1.239
 6260TIP3    H118786   1.581   0.604   1.318
 6260TIP3    H218787   1.456   0.653   1.246
 6261TIP3   OH218788   3.629   2.615   2.419
 6261TIP3    H118789   3.604   2.543   2.362
 6261TIP3    H218790   3.595   2.693   2.374
 6262TIP3   OH218791   2.619   1.544   1.659
 6262TIP3    H118792   2.715   1.549   1.660
 6262TIP3    H218793   2.596   1.521   1.749
 6263TIP3   OH218794   1.523   1.130   4.003
 6263TIP3    H118795   1.613   1.133   3.972
 6263TIP3    H218796   1.515   1.206   4.061
 6264TIP3   OH218797   5.770   0.291   5.102
 6264TIP3    H118798   5.804   0.231   5.035
 6264TIP3    H218799   5.675   0.279   5.099
 6265TIP3   OH218800   5.858   5.221   4.058
 6265TIP3    H118801   5.783   5.262   4.101
 6265TIP3    H218802   5.830   5.130   4.042
 6266TIP3   OH218803   3.339   3.735   1.276
 6266TIP3    H118804   3.387   3.691   1.346
 6266TIP3    H218805   3.341   3.828   1.300
 6267TIP3   OH218806   4.159   3.163   1.570
 6267TIP3    H118807   4.226   3.195   1.630
 6267TIP3    H218808   4.145   3.236   1.509
 6268TIP3   OH218809   1.802   0.445   4.201
 6268TIP3    H118810   1.863   0.379   4.234
 6268TIP3    H218811   1.819   0.449   4.107
 6269TIP3   OH218812   2.056   2.541   0.252
 6269TIP3    H118813   2.025   2.575   0.168
 6269TIP3    H218814   2.150   2.529   0.240
 6270TIP3   OH218815   3.805   0.237   0.262
 6270TIP3    H118816   3.756   0.302   0.313
 6270TIP3    H218817   3.896   0.250   0.288
 6271TIP3   OH218818   3.057   4.454   2.271
 6271TIP3    H118819   3.039   4.432   2.180
 6271TIP3    H218820   2.982   4.507   2.298
 6272TIP3   OH218821   4.581   4.283   2.210
 6272TIP3    H118822   4.572   4.219   2.139
 6272TIP3    H218823   4.497   4.279   2.256
 6273TIP3   OH218824   0.690   1.368   2.360
 6273TIP3    H118825   0.659   1.451   2.322
 6273TIP3    H218826   0.623   1.305   2.335
 6274TIP3   OH218827   1.806   0.271   4.831
 6274TIP3    H118828   1.736   0.332   4.856
 6274TIP3    H218829   1.780   0.188   4.872
 6275TIP3   OH218830   3.402   4.541   2.722
 6275TIP3    H118831   3.313   4.520   2.748
 6275TIP3    H218832   3.424   4.476   2.655
 6276TIP3   OH218833   2.460   4.684   0.107
 6276TIP3    H118834   2.368   4.662   0.124
 6276TIP3    H218835   2.503   4.674   0.192
 6277TIP3   OH218836   1.087   2.288   3.641
 6277TIP3    H118837   1.152   2.283   3.571
 6277TIP3    H218838   1.131   2.334   3.712
 6278TIP3   OH218839   5.268   4.639   1.023
 6278TIP3    H118840   5.343   4.695   1.046
 6278TIP3    H218841   5.291   4.603   0.938
 6279TIP3   OH218842   0.011   4.894   0.661
 6279TIP3    H118843   0.091   4.873   0.613
 6279TIP3    H218844  -0.048   4.931   0.595
 6280TIP3   OH218845   1.657   2.423   0.564
 6280TIP3    H118846   1.748   2.413   0.535
 6280TIP3    H218847   1.654   2.510   0.604
 6281TIP3   OH218848   0.184   4.094   2.289
 6281TIP3    H118849   0.115   4.067   2.350
 6281TIP3    H218850   0.266   4.074   2.335
 6282TIP3   OH218851   0.867   5.565   3.653
 6282TIP3    H118852   0.954   5.529   3.670
 6282TIP3    H218853   0.835   5.593   3.739
 6283TIP3   OH218854   1.633   1.431   3.093
 6283TIP3    H118855   1.597   1.345   3.114
 6283TIP3    H218856   1.662   1.423   3.002
 6284TIP3   OH218857   5.122   5.723   3.356
 6284TIP3    H118858   5.169   5.806   3.356
 6284TIP3    H218859   5.142   5.683   3.271
 6285TIP3   OH218860   3.536   4.170   0.638
 6285TIP3    H118861   3.539   4.197   0.730
 6285TIP3    H218862   3.539   4.252   0.589
 6286TIP3   OH218863   5.481   5.365   1.147
 6286TIP3    H118864   5.559   5.319   1.178
 6286TIP3    H218865   5.429   5.297   1.104
 6287TIP3   OH218866   0.129   5.622   0.755
 6287TIP3    H118867   0.053   5.568   0.774
 6287TIP3    H218868   0.110   5.661   0.670
 6288TIP3   OH218869   2.651   3.413   1.009
 6288TIP3    H118870   2.585   3.475   0.978
 6288TIP3    H218871   2.628   3.330   0.968
 6289TIP3   OH218872   3.842   4.985   1.002
 6289TIP3    H118873   3.750   5.003   1.019
 6289TIP3    H218874   3.873   4.940   1.080
 6290TIP3   OH218875   1.938   3.955   2.766
 6290TIP3    H118876   2.032   3.936   2.773
 6290TIP3    H218877   1.930   4.004   2.684
 6291TIP3   OH218878   0.414   4.727   3.019
 6291TIP3    H118879   0.439   4.637   3.040
 6291TIP3    H218880   0.319   4.726   3.019
 6292TIP3   OH218881   4.797   1.248   0.780
 6292TIP3    H118882   4.782   1.176   0.840
 6292TIP3    H218883   4.716   1.299   0.783
 6293TIP3   OH218884   3.060   1.545   3.289
 6293TIP3    H118885   3.145   1.502   3.284
 6293TIP3    H218886   3.013   1.498   3.358
 6294TIP3   OH218887   5.617   3.936   2.702
 6294TIP3    H118888   5.629   3.927   2.796
 6294TIP3    H218889   5.704   3.919   2.665
 6295TIP3   OH218890   3.367   2.515   3.456
 6295TIP3    H118891   3.455   2.512   3.418
 6295TIP3    H218892   3.311   2.539   3.383
 6296TIP3   OH218893   0.174   3.559   0.119
 6296TIP3    H118894   0.119   3.490   0.083
 6296TIP3    H218895   0.236   3.579   0.050
 6297TIP3   OH218896   5.497   1.566   1.211
 6297TIP3    H118897   5.559   1.592   1.279
 6297TIP3    H218898   5.531   1.606   1.131
 6298TIP3   OH218899   1.382   3.333   2.336
 6298TIP3    H118900   1.437   3.411   2.326
 6298TIP3    H218901   1.367   3.302   2.246
 6299TIP3   OH218902   3.770   3.351   0.972
 6299TIP3    H118903   3.837   3.411   0.942
 6299TIP3    H218904   3.795   3.266   0.934
 6300TIP3   OH218905   0.466   0.629   1.472
 6300TIP3    H118906   0.541   0.668   1.517
 6300TIP3    H218907   0.472   0.663   1.382
 6301TIP3   OH218908   2.233   0.641   2.496
 6301TIP3    H118909   2.228   0.713   2.434
 6301TIP3    H218910   2.144   0.607   2.501
 6302TIP3   OH218911   2.762   2.829   0.126
 6302TIP3    H118912   2.708   2.876   0.063
 6302TIP3    H218913   2.802   2.899   0.179
 6303TIP3   OH218914   3.048   0.732   2.467
 6303TIP3    H118915   3.014   0.819   2.486
 6303TIP3    H218916   3.143   0.741   2.474
 6304TIP3   OH218917   0.026   5.700   4.220
 6304TIP3    H118918   0.042   5.671   4.130
 6304TIP3    H218919   0.109   5.682   4.266
 6305TIP3   OH218920   1.673   0.913   0.896
 6305TIP3    H118921   1.725   0.940   0.971
 6305TIP3    H218922   1.667   0.818   0.903
 6306TIP3   OH218923   2.857   2.823   4.325
 6306TIP3    H118924   2.883   2.902   4.277
 6306TIP3    H218925   2.936   2.769   4.327
 6307TIP3   OH218926   0.995   2.024   3.396
 6307TIP3    H118927   1.037   2.100   3.356
 6307TIP3    H218928   1.050   2.004   3.472
 6308TIP3   OH218929   4.850   2.223   0.716
 6308TIP3    H118930   4.827   2.165   0.643
 6308TIP3    H218931   4.929   2.184   0.753
 6309TIP3   OH218932   3.755   0.207   2.958
 6309TIP3    H118933   3.838   0.198   3.005
 6309TIP3    H218934   3.718   0.118   2.958
 6310TIP3   OH218935   2.375   2.739   1.913
 6310TIP3    H118936   2.368   2.816   1.856
 6310TIP3    H218937   2.382   2.775   2.002
 6311TIP3   OH218938   0.047   5.520   2.292
 6311TIP3    H118939   0.063   5.611   2.318
 6311TIP3    H218940   0.129   5.493   2.250
 6312TIP3   OH218941   3.818   3.026   0.597
 6312TIP3    H118942   3.754   2.959   0.571
 6312TIP3    H218943   3.903   2.987   0.575
 6313TIP3   OH218944   5.338   5.480   0.169
 6313TIP3    H118945   5.433   5.477   0.181
 6313TIP3    H218946   5.304   5.409   0.222
 6314TIP3   OH218947   0.190   4.050   4.211
 6314TIP3    H118948   0.224   4.130   4.251
 6314TIP3    H218949   0.177   3.991   4.285
 6315TIP3   OH218950   5.033   3.101   1.741
 6315TIP3    H118951   4.946   3.128   1.714
 6315TIP3    H218952   5.073   3.180   1.777
 6316TIP3   OH218953   6.281   1.825   0.501
 6316TIP3    H118954   6.319   1.912   0.513
 6316TIP3    H218955   6.199   1.841   0.455
 6317TIP3   OH218956   3.371   1.428   1.549
 6317TIP3    H118957   3.415   1.498   1.501
 6317TIP3    H218958   3.300   1.400   1.492
 6318TIP3   OH218959   4.424   0.092   3.667
 6318TIP3    H118960   4.344   0.059   3.624
 6318TIP3    H218961   4.410   0.186   3.676
 6319TIP3   OH218962   2.344   4.959   3.967
 6319TIP3    H118963   2.415   4.993   4.022
 6319TIP3    H218964   2.321   5.033   3.910
 6320TIP3   OH218965   0.499   3.284   4.781
 6320TIP3    H118966   0.501   3.238   4.865
 6320TIP3    H218967   0.434   3.236   4.729
 6321TIP3   OH218968   4.754   0.330   5.063
 6321TIP3    H118969   4.804   0.376   5.131
 6321TIP3    H218970   4.700   0.398   5.023
 6322TIP3   OH218971   1.476   4.691   0.444
 6322TIP3    H118972   1.555   4.716   0.491
 6322TIP3    H218973   1.499   4.700   0.351
 6323TIP3   OH218974   1.469   5.528   0.268
 6323TIP3    H118975   1.426   5.482   0.196
 6323TIP3    H218976   1.548   5.477   0.286
 6324TIP3   OH218977   2.457   3.458   1.978
 6324TIP3    H118978   2.410   3.437   1.897
 6324TIP3    H218979   2.498   3.543   1.961
 6325TIP3   OH218980   1.738   2.428   5.139
 6325TIP3    H118981   1.767   2.339   5.162
 6325TIP3    H218982   1.812   2.484   5.161
 6326TIP3   OH218983   1.172   1.690   1.350
 6326TIP3    H118984   1.261   1.674   1.380
 6326TIP3    H218985   1.125   1.609   1.370
 6327TIP3   OH218986   3.380   1.043   1.018
 6327TIP3    H118987   3.322   1.092   0.960
 6327TIP3    H218988   3.325   0.973   1.053
 6328TIP3   OH218989   4.849   4.808   4.603
 6328TIP3    H118990   4.906   4.797   4.527
 6328TIP3    H218991   4.894   4.873   4.658
 6329TIP3   OH218992   5.575   1.868   3.997
 6329TIP3    H118993   5.548   1.932   3.931
 6329TIP3    H218994   5.633   1.916   4.056
 6330TIP3   OH218995   3.237   2.851   0.110
 6330TIP3    H118996   3.318   2.807   0.133
 6330TIP3    H218997   3.229   2.838   0.015
 6331TIP3   OH218998   1.975   1.748   3.514
 6331TIP3    H118999   2.066   1.742   3.486
 6331TIP3    H219000   1.947   1.835   3.488
 6332TIP3   OH219001   2.295   5.225   3.855
 6332TIP3    H119002   2.253   5.286   3.794
 6332TIP3    H219003   2.377   5.269   3.879
 6333TIP3   OH219004   4.871   3.380   3.565
 6333TIP3    H119005   4.796   3.333   3.529
 6333TIP3    H219006   4.847   3.400   3.655
 6334TIP3   OH219007   2.411   5.242   2.803
 6334TIP3    H119008   2.477   5.278   2.862
 6334TIP3    H219009   2.457   5.229   2.720
 6335TIP3   OH219010   4.594   4.122   4.771
 6335TIP3    H119011   4.652   4.195   4.748
 6335TIP3    H219012   4.653   4.054   4.804
 6336TIP3   OH219013   4.892   0.048   3.265
 6336TIP3    H119014   4.869   0.141   3.273
 6336TIP3    H219015   4.835   0.014   3.196
 6337TIP3   OH219016   1.281   1.638   2.357
 6337TIP3    H119017   1.205   1.680   2.396
 6337TIP3    H219018   1.308   1.573   2.421
 6338TIP3   OH219019   4.193   3.511   0.420
 6338TIP3    H119020   4.199   3.418   0.441
 6338TIP3    H219021   4.236   3.555   0.494
 6339TIP3   OH219022   5.832   3.382   1.613
 6339TIP3    H119023   5.906   3.416   1.562
 6339TIP3    H219024   5.758   3.437   1.587
 6340TIP3   OH219025   4.225   4.696   0.742
 6340TIP3    H119026   4.298   4.634   0.736
 6340TIP3    H219027   4.254   4.773   0.693
 6341TIP3   OH219028   2.455   3.993   1.930
 6341TIP3    H119029   2.539   4.003   1.885
 6341TIP3    H219030   2.405   3.934   1.874
 6342TIP3   OH219031   4.403   1.457   2.448
 6342TIP3    H119032   4.421   1.545   2.482
 6342TIP3    H219033   4.433   1.460   2.357
 6343TIP3   OH219034   2.336   1.771   4.237
 6343TIP3    H119035   2.319   1.861   4.264
 6343TIP3    H219036   2.414   1.745   4.286
 6344TIP3   OH219037   4.715   4.569   3.502
 6344TIP3    H119038   4.790   4.516   3.528
 6344TIP3    H219039   4.753   4.646   3.460
 6345TIP3   OH219040   2.145   2.552   4.828
 6345TIP3    H119041   2.110   2.602   4.755
 6345TIP3    H219042   2.128   2.606   4.905
 6346TIP3   OH219043   4.956   2.086   1.549
 6346TIP3    H119044   5.024   2.081   1.481
 6346TIP3    H219045   4.926   2.176   1.546
 6347TIP3   OH219046   5.724   1.300   1.550
 6347TIP3    H119047   5.816   1.275   1.535
 6347TIP3    H219048   5.728   1.361   1.624
 6348TIP3   OH219049   1.539   3.546   1.672
 6348TIP3    H119050   1.511   3.506   1.589
 6348TIP3    H219051   1.509   3.485   1.739
 6349TIP3   OH219052   4.491   3.560   2.158
 6349TIP3    H119053   4.472   3.535   2.067
 6349TIP3    H219054   4.452   3.647   2.167
 6350TIP3   OH219055   6.267   1.451   2.598
 6350TIP3    H119056   6.174   1.437   2.579
 6350TIP3    H219057   6.271   1.461   2.693
 6351TIP3   OH219058   3.887   1.666   4.465
 6351TIP3    H119059   3.810   1.609   4.461
 6351TIP3    H219060   3.959   1.607   4.488
 6352TIP3   OH219061   3.806   1.718   3.577
 6352TIP3    H119062   3.797   1.707   3.672
 6352TIP3    H219063   3.859   1.644   3.549
 6353TIP3   OH219064   4.014   5.261   4.258
 6353TIP3    H119065   4.106   5.282   4.273
 6353TIP3    H219066   3.966   5.318   4.318
 6354TIP3   OH219067   0.570   5.717   4.558
 6354TIP3    H119068   0.533   5.789   4.507
 6354TIP3    H219069   0.627   5.760   4.621
 6355TIP3   OH219070   6.022   1.416   2.824
 6355TIP3    H119071   6.057   1.378   2.905
 6355TIP3    H219072   6.009   1.508   2.844
 6356TIP3   OH219073   0.626   5.129   3.167
 6356TIP3    H119074   0.708   5.137   3.119
 6356TIP3    H219075   0.652   5.124   3.259
 6357TIP3   OH219076   5.491   4.753   1.086
 6357TIP3    H119077   5.520   4.750   0.995
 6357TIP3    H219078   5.568   4.785   1.134
 6358TIP3   OH219079   5.447   4.313   5.070
 6358TIP3    H119080   5.406   4.227   5.060
 6358TIP3    H219081   5.432   4.357   4.987
 6359TIP3   OH219082   5.646   0.336   4.440
 6359TIP3    H119083   5.737   0.334   4.468
 6359TIP3    H219084   5.604   0.265   4.490
 6360TIP3   OH219085   1.548   4.654   2.045
 6360TIP3    H119086   1.488   4.656   1.971
 6360TIP3    H219087   1.493   4.633   2.120
 6361TIP3   OH219088   1.064   2.176   1.374
 6361TIP3    H119089   0.983   2.200   1.328
 6361TIP3    H219090   1.087   2.090   1.339
 6362TIP3   OH219091   1.463   5.588   4.892
 6362TIP3    H119092   1.488   5.661   4.835
 6362TIP3    H219093   1.484   5.618   4.980
 6363TIP3   OH219094   1.577   5.905   4.309
 6363TIP3    H119095   1.506   5.912   4.373
 6363TIP3    H219096   1.542   5.947   4.230
 6364TIP3   OH219097   0.575   1.050   1.424
 6364TIP3    H119098   0.565   1.136   1.384
 6364TIP3    H219099   0.523   1.054   1.504
 6365TIP3   OH219100   4.163   3.124   3.857
 6365TIP3    H119101   4.137   3.128   3.949
 6365TIP3    H219102   4.168   3.030   3.838
 6366TIP3   OH219103   0.964   3.839   2.691
 6366TIP3    H119104   0.916   3.836   2.608
 6366TIP3    H219105   1.040   3.783   2.677
 6367TIP3   OH219106   5.571   4.247   3.636
 6367TIP3    H119107   5.494   4.222   3.687
 6367TIP3    H219108   5.574   4.184   3.564
 6368TIP3   OH219109   0.051   4.557   4.323
 6368TIP3    H119110   0.099   4.637   4.348
 6368TIP3    H219111   0.099   4.523   4.248
 6369TIP3   OH219112   5.203   1.369   3.973
 6369TIP3    H119113   5.225   1.337   4.061
 6369TIP3    H219114   5.288   1.387   3.933
 6370TIP3   OH219115   3.572   0.478   0.239
 6370TIP3    H119116   3.523   0.536   0.297
 6370TIP3    H219117   3.528   0.393   0.246
 6371TIP3   OH219118   5.540   4.837   0.827
 6371TIP3    H119119   5.620   4.874   0.789
 6371TIP3    H219120   5.471   4.863   0.767
 6372TIP3   OH219121   0.427   5.366   3.355
 6372TIP3    H119122   0.428   5.311   3.278
 6372TIP3    H219123   0.519   5.376   3.379
 6373TIP3   OH219124   3.895   0.480   1.920
 6373TIP3    H119125   3.858   0.396   1.893
 6373TIP3    H219126   3.819   0.536   1.936
 6374TIP3   OH219127   3.441   5.484   4.393
 6374TIP3    H119128   3.492   5.472   4.313
 6374TIP3    H219129   3.459   5.406   4.445
 6375TIP3   OH219130   6.268   4.270   4.282
 6375TIP3    H119131   6.306   4.308   4.361
 6375TIP3    H219132   6.212   4.340   4.247
 6376TIP3   OH219133   2.506   1.145   4.378
 6376TIP3    H119134   2.516   1.207   4.450
 6376TIP3    H219135   2.483   1.063   4.420
 6377TIP3   OH219136   6.146   3.572   3.077
 6377TIP3    H119137   6.238   3.567   3.104
 6377TIP3    H219138   6.142   3.518   2.998
 6378TIP3   OH219139   3.602   4.583   3.991
 6378TIP3    H119140   3.660   4.577   3.915
 6378TIP3    H219141   3.652   4.635   4.055
 6379TIP3   OH219142   2.106   0.383   4.003
 6379TIP3    H119143   2.111   0.304   3.949
 6379TIP3    H219144   2.068   0.354   4.085
 6380TIP3   OH219145   0.606   5.681   2.933
 6380TIP3    H119146   0.677   5.701   2.994
 6380TIP3    H219147   0.567   5.600   2.966
 6381TIP3   OH219148   1.913   5.439   1.057
 6381TIP3    H119149   1.968   5.500   1.008
 6381TIP3    H219150   1.899   5.366   0.997
 6382TIP3   OH219151   2.559   5.213   3.506
 6382TIP3    H119152   2.603   5.237   3.588
 6382TIP3    H219153   2.595   5.274   3.441
 6383TIP3   OH219154   1.354   3.357   3.239
 6383TIP3    H119155   1.382   3.374   3.329
 6383TIP3    H219156   1.259   3.349   3.244
 6384TIP3   OH219157   3.304   3.481   5.121
 6384TIP3    H119158   3.380   3.532   5.149
 6384TIP3    H219159   3.318   3.395   5.160
 6385TIP3   OH219160   5.256   1.911   3.927
 6385TIP3    H119161   5.245   1.909   4.022
 6385TIP3    H219162   5.260   2.004   3.905
 6386TIP3   OH219163   4.280   3.187   3.304
 6386TIP3    H119164   4.264   3.175   3.211
 6386TIP3    H219165   4.221   3.259   3.329
 6387TIP3   OH219166   4.680   4.393   1.476
 6387TIP3    H119167   4.713   4.309   1.444
 6387TIP3    H219168   4.758   4.444   1.497
 6388TIP3   OH219169   2.810   5.076   1.503
 6388TIP3    H119170   2.869   5.061   1.576
 6388TIP3    H219171   2.806   5.171   1.493
 6389TIP3   OH219172   3.844   3.399   2.728
 6389TIP3    H119173   3.842   3.325   2.789
 6389TIP3    H219174   3.790   3.370   2.654
 6390TIP3   OH219175   4.803   2.587   4.964
 6390TIP3    H119176   4.899   2.590   4.960
 6390TIP3    H219177   4.780   2.653   5.029
 6391TIP3   OH219178   5.989   4.581   5.213
 6391TIP3    H119179   6.023   4.614   5.130
 6391TIP3    H219180   5.924   4.515   5.188
 6392TIP3   OH219181   5.692   1.123   1.900
 6392TIP3    H119182   5.658   1.126   1.989
 6392TIP3    H219183   5.623   1.163   1.847
 6393TIP3   OH219184   0.235   5.555   3.387
 6393TIP3    H119185   0.303   5.488   3.380
 6393TIP3    H219186   0.159   5.509   3.424
 6394TIP3   OH219187   3.294   3.613   4.810
 6394TIP3    H119188   3.247   3.573   4.884
 6394TIP3    H219189   3.383   3.625   4.843
 6395TIP3   OH219190   4.841   5.222   2.425
 6395TIP3    H119191   4.806   5.311   2.425
 6395TIP3    H219192   4.777   5.171   2.376
 6396TIP3   OH219193   4.865   5.597   2.190
 6396TIP3    H119194   4.833   5.569   2.104
 6396TIP3    H219195   4.801   5.563   2.252
 6397TIP3   OH219196   2.728   2.094   4.653
 6397TIP3    H119197   2.661   2.144   4.606
 6397TIP3    H219198   2.798   2.157   4.670
 6398TIP3   OH219199   1.018   2.837   3.226
 6398TIP3    H119200   0.998   2.907   3.165
 6398TIP3    H219201   1.074   2.877   3.292
 6399TIP3   OH219202   4.527   3.751   0.502
 6399TIP3    H119203   4.441   3.774   0.468
 6399TIP3    H219204   4.516   3.661   0.534
 6400TIP3   OH219205   2.187   2.764   1.513
 6400TIP3    H119206   2.119   2.812   1.466
 6400TIP3    H219207   2.269   2.794   1.474
 6401TIP3   OH219208   5.981   3.855   3.479
 6401TIP3    H119209   5.916   3.793   3.513
 6401TIP3    H219210   6.057   3.841   3.535
 6402TIP3   OH219211   2.408   4.054   4.659
 6402TIP3    H119212   2.349   4.080   4.730
 6402TIP3    H219213   2.428   4.136   4.613
 6403TIP3   OH219214   4.058   0.197   1.667
 6403TIP3    H119215   4.012   0.121   1.703
 6403TIP3    H219216   3.997   0.270   1.681
 6404TIP3   OH219217   5.028   1.334   0.893
 6404TIP3    H119218   5.059   1.265   0.952
 6404TIP3    H219219   4.943   1.302   0.861
 6405TIP3   OH219220   1.197   3.982   3.546
 6405TIP3    H119221   1.184   3.917   3.616
 6405TIP3    H219222   1.280   4.024   3.567
 6406TIP3   OH219223   3.835   2.177   2.971
 6406TIP3    H119224   3.883   2.260   2.979
 6406TIP3    H219225   3.878   2.119   3.034
 6407TIP3   OH219226   1.397   3.341   5.219
 6407TIP3    H119227   1.448   3.288   5.157
 6407TIP3    H219228   1.365   3.414   5.167
 6408TIP3   OH219229   2.489   3.625   0.921
 6408TIP3    H119230   2.405   3.583   0.902
 6408TIP3    H219231   2.494   3.697   0.858
 6409TIP3   OH219232   0.815   2.033   1.312
 6409TIP3    H119233   0.870   2.045   1.234
 6409TIP3    H219234   0.865   1.972   1.367
 6410TIP3   OH219235   5.491   1.690   0.659
 6410TIP3    H119236   5.452   1.697   0.572
 6410TIP3    H219237   5.586   1.696   0.643
 6411TIP3   OH219238   3.717   1.098   4.560
 6411TIP3    H119239   3.749   1.130   4.644
 6411TIP3    H219240   3.793   1.058   4.518
 6412TIP3   OH219241   0.284   3.422   3.228
 6412TIP3    H119242   0.252   3.331   3.225
 6412TIP3    H219243   0.371   3.418   3.190
 6413TIP3   OH219244   5.424   4.390   3.213
 6413TIP3    H119245   5.383   4.476   3.221
 6413TIP3    H219246   5.368   4.342   3.153
 6414TIP3   OH219247   5.456   3.560   2.166
 6414TIP3    H119248   5.533   3.608   2.196
 6414TIP3    H219249   5.407   3.541   2.246
 6415TIP3   OH219250   2.616   6.037   3.996
 6415TIP3    H119251   2.587   6.025   4.086
 6415TIP3    H219252   2.548   5.997   3.942
 6416TIP3   OH219253   2.855   2.473   0.850
 6416TIP3    H119254   2.785   2.536   0.830
 6416TIP3    H219255   2.851   2.409   0.778
 6417TIP3   OH219256   6.116   0.468   1.269
 6417TIP3    H119257   6.086   0.518   1.345
 6417TIP3    H219258   6.185   0.411   1.303
 6418TIP3   OH219259   1.434   0.936   5.037
 6418TIP3    H119260   1.395   1.015   5.074
 6418TIP3    H219261   1.469   0.889   5.113
 6419TIP3   OH219262   0.669   2.669   4.787
 6419TIP3    H119263   0.619   2.606   4.736
 6419TIP3    H219264   0.758   2.633   4.789
 6420TIP3   OH219265   3.558   2.369   2.282
 6420TIP3    H119266   3.551   2.299   2.217
 6420TIP3    H219267   3.489   2.350   2.346
 6421TIP3   OH219268   3.068   3.259   2.707
 6421TIP3    H119269   3.051   3.189   2.769
 6421TIP3    H219270   3.129   3.221   2.644
 6422TIP3   OH219271   4.947   3.399   4.558
 6422TIP3    H119272   4.862   3.421   4.521
 6422TIP3    H219273   5.007   3.463   4.521
 6423TIP3   OH219274   1.915   1.388   3.977
 6423TIP3    H119275   1.866   1.313   3.944
 6423TIP3    H219276   1.941   1.436   3.898
 6424TIP3   OH219277   0.324   5.065   0.998
 6424TIP3    H119278   0.258   5.066   1.067
 6424TIP3    H219279   0.396   5.119   1.033
 6425TIP3   OH219280   5.411   3.938   2.476
 6425TIP3    H119281   5.433   3.846   2.460
 6425TIP3    H219282   5.448   3.957   2.562
 6426TIP3   OH219283   6.348   5.706   0.086
 6426TIP3    H119284   6.269   5.693   0.139
 6426TIP3    H219285   6.329   5.662   0.003
 6427TIP3   OH219286   0.419   5.483   2.997
 6427TIP3    H119287   0.399   5.465   2.905
 6427TIP3    H219288   0.417   5.397   3.039
 6428TIP3   OH219289   3.502   0.164   1.779
 6428TIP3    H119290   3.480   0.072   1.796
 6428TIP3    H219291   3.554   0.191   1.855
 6429TIP3   OH219292   3.219   5.832   4.075
 6429TIP3    H119293   3.306   5.861   4.102
 6429TIP3    H219294   3.235   5.787   3.991
 6430TIP3   OH219295   2.705   5.652   3.306
 6430TIP3    H119296   2.779   5.658   3.366
 6430TIP3    H219297   2.644   5.720   3.335
 6431TIP3   OH219298   1.422   3.659   4.846
 6431TIP3    H119299   1.509   3.663   4.886
 6431TIP3    H219300   1.434   3.603   4.769
 6432TIP3   OH219301   3.264   1.442   1.105
 6432TIP3    H119302   3.268   1.364   1.160
 6432TIP3    H219303   3.186   1.431   1.051
 6433TIP3   OH219304   5.279   4.442   0.695
 6433TIP3    H119305   5.214   4.409   0.758
 6433TIP3    H219306   5.356   4.461   0.748
 6434TIP3   OH219307   3.726   3.798   2.302
 6434TIP3    H119308   3.750   3.878   2.349
 6434TIP3    H219309   3.665   3.753   2.360
 6435TIP3   OH219310   2.476   2.616   4.411
 6435TIP3    H119311   2.407   2.551   4.428
 6435TIP3    H219312   2.553   2.582   4.456
 6436TIP3   OH219313   5.853   5.949   3.343
 6436TIP3    H119314   5.937   5.986   3.315
 6436TIP3    H219315   5.841   5.872   3.287
 6437TIP3   OH219316   0.537   5.044   2.846
 6437TIP3    H119317   0.479   4.978   2.810
 6437TIP3    H219318   0.500   5.064   2.932
 6438TIP3   OH219319   2.957   5.021   2.352
 6438TIP3    H119320   2.946   5.065   2.436
 6438TIP3    H219321   3.039   5.056   2.318
 6439TIP3   OH219322   6.190   5.888   4.582
 6439TIP3    H119323   6.196   5.841   4.499
 6439TIP3    H219324   6.099   5.917   4.586
 6440TIP3   OH219325   4.920   0.070   4.247
 6440TIP3    H119326   4.852   0.023   4.296
 6440TIP3    H219327   5.001   0.049   4.294
 6441TIP3   OH219328   5.976   0.603   4.150
 6441TIP3    H119329   6.040   0.667   4.118
 6441TIP3    H219330   5.895   0.653   4.161
 6442TIP3   OH219331   0.316   5.121   2.553
 6442TIP3    H119332   0.235   5.168   2.533
 6442TIP3    H219333   0.384   5.171   2.509
 6443TIP3   OH219334   1.875   4.014   1.196
 6443TIP3    H119335   1.965   4.040   1.215
 6443TIP3    H219336   1.879   3.919   1.184
 6444TIP3   OH219337   6.367   1.177   3.983
 6444TIP3    H119338   6.297   1.113   3.993
 6444TIP3    H219339   6.322   1.260   3.966
 6445TIP3   OH219340   2.318   0.030   0.374
 6445TIP3    H119341   2.342  -0.058   0.344
 6445TIP3    H219342   2.355   0.089   0.308
 6446TIP3   OH219343   2.933   3.435   4.216
 6446TIP3    H119344   2.850   3.479   4.232
 6446TIP3    H219345   2.996   3.479   4.273
 6447TIP3   OH219346   6.324   2.210   4.890
 6447TIP3    H119347   6.280   2.254   4.818
 6447TIP3    H219348   6.300   2.118   4.880
 6448TIP3   OH219349   3.174   1.390   3.576
 6448TIP3    H119350   3.266   1.366   3.591
 6448TIP3    H219351   3.165   1.477   3.616
 6449TIP3   OH219352   3.664   3.970   2.084
 6449TIP3    H119353   3.569   3.969   2.087
 6449TIP3    H219354   3.691   3.914   2.157
 6450TIP3   OH219355   5.497   2.872   1.449
 6450TIP3    H119356   5.558   2.945   1.453
 6450TIP3    H219357   5.536   2.812   1.385
 6451TIP3   OH219358   1.954   4.526   4.350
 6451TIP3    H119359   1.982   4.614   4.325
 6451TIP3    H219360   1.968   4.473   4.271
 6452TIP3   OH219361   2.766   5.635   1.264
 6452TIP3    H119362   2.790   5.635   1.357
 6452TIP3    H219363   2.679   5.596   1.262
 6453TIP3   OH219364   0.000   5.030   2.190
 6453TIP3    H119365   0.087   5.018   2.154
 6453TIP3    H219366  -0.059   5.018   2.116
 6454TIP3   OH219367   5.397   0.849   0.407
 6454TIP3    H119368   5.336   0.891   0.346
 6454TIP3    H219369   5.372   0.757   0.406
 6455TIP3   OH219370   0.127   3.222   0.805
 6455TIP3    H119371   0.176   3.249   0.728
 6455TIP3    H219372   0.114   3.128   0.793
 6456TIP3   OH219373   4.394   1.529   2.178
 6456TIP3    H119374   4.301   1.549   2.191
 6456TIP3    H219375   4.398   1.434   2.177
 6457TIP3   OH219376   0.804   1.944   2.197
 6457TIP3    H119377   0.722   1.968   2.240
 6457TIP3    H219378   0.847   2.027   2.178
 6458TIP3   OH219379   4.781   4.115   0.318
 6458TIP3    H119380   4.780   4.099   0.413
 6458TIP3    H219381   4.803   4.030   0.280
 6459TIP3   OH219382   3.463   3.301   1.933
 6459TIP3    H119383   3.405   3.290   2.008
 6459TIP3    H219384   3.535   3.240   1.949
 6460TIP3   OH219385   4.804   1.986   0.091
 6460TIP3    H119386   4.857   2.057   0.129
 6460TIP3    H219387   4.843   1.971   0.005
 6461TIP3   OH219388   2.046   3.361   2.215
 6461TIP3    H119389   2.140   3.368   2.232
 6461TIP3    H219390   2.014   3.298   2.279
 6462TIP3   OH219391   4.995   5.513   2.543
 6462TIP3    H119392   5.001   5.428   2.588
 6462TIP3    H219393   4.902   5.537   2.551
 6463TIP3   OH219394   4.637   4.415   1.103
 6463TIP3    H119395   4.702   4.465   1.153
 6463TIP3    H219396   4.658   4.324   1.122
 6464TIP3   OH219397   4.942   3.327   0.192
 6464TIP3    H119398   4.907   3.239   0.207
 6464TIP3    H219399   4.879   3.368   0.133
 6465TIP3   OH219400   5.108   2.014   1.763
 6465TIP3    H119401   5.080   1.937   1.813
 6465TIP3    H219402   5.053   2.014   1.685
 6466TIP3   OH219403   5.509   2.936   2.324
 6466TIP3    H119404   5.540   2.911   2.411
 6466TIP3    H219405   5.501   2.853   2.276
 6467TIP3   OH219406   2.265   5.877   4.930
 6467TIP3    H119407   2.173   5.853   4.943
 6467TIP3    H219408   2.314   5.817   4.986
 6468TIP3   OH219409   3.829   1.670   3.857
 6468TIP3    H119410   3.879   1.636   3.931
 6468TIP3    H219411   3.742   1.686   3.893
 6469TIP3   OH219412   4.585   0.069   0.040
 6469TIP3    H119413   4.567   0.057  -0.054
 6469TIP3    H219414   4.679   0.088   0.044
 6470TIP3   OH219415   2.587   3.738   0.290
 6470TIP3    H119416   2.505   3.699   0.321
 6470TIP3    H219417   2.604   3.810   0.350
 6471TIP3   OH219418   1.536   0.859   2.789
 6471TIP3    H119419   1.459   0.853   2.846
 6471TIP3    H219420   1.538   0.950   2.759
 6472TIP3   OH219421   5.163   2.409   3.635
 6472TIP3    H119422   5.096   2.368   3.689
 6472TIP3    H219423   5.133   2.397   3.545
 6473TIP3   OH219424   5.107   0.349   2.664
 6473TIP3    H119425   5.061   0.409   2.722
 6473TIP3    H219426   5.051   0.342   2.587
 6474TIP3   OH219427   2.677   0.080   1.511
 6474TIP3    H119428   2.679   0.165   1.469
 6474TIP3    H219429   2.749   0.082   1.574
 6475TIP3   OH219430   1.815   0.043   4.977
 6475TIP3    H119431   1.838  -0.043   5.012
 6475TIP3    H219432   1.867   0.104   5.030
 6476TIP3   OH219433   2.418   2.837   4.616
 6476TIP3    H119434   2.512   2.849   4.606
 6476TIP3    H219435   2.393   2.780   4.543
 6477TIP3   OH219436   5.957   3.462   0.635
 6477TIP3    H119437   5.971   3.555   0.650
 6477TIP3    H219438   6.026   3.418   0.685
 6478TIP3   OH219439   0.130   2.600   1.855
 6478TIP3    H119440   0.209   2.651   1.873
 6478TIP3    H219441   0.063   2.665   1.835
 6479TIP3   OH219442   3.157   3.162   1.806
 6479TIP3    H119443   3.202   3.245   1.789
 6479TIP3    H219444   3.218   3.095   1.774
 6480TIP3   OH219445   2.291   5.562   2.223
 6480TIP3    H119446   2.381   5.544   2.253
 6480TIP3    H219447   2.236   5.541   2.298
 6481TIP3   OH219448   2.271   3.500   3.309
 6481TIP3    H119449   2.293   3.438   3.240
 6481TIP3    H219450   2.290   3.586   3.272
 6482TIP3   OH219451   5.354   2.852   3.260
 6482TIP3    H119452   5.393   2.938   3.249
 6482TIP3    H219453   5.404   2.795   3.202
 6483TIP3   OH219454   4.397   0.420   2.546
 6483TIP3    H119455   4.316   0.470   2.559
 6483TIP3    H219456   4.373   0.351   2.484
 6484TIP3   OH219457   3.636   2.669   4.451
 6484TIP3    H119458   3.547   2.647   4.427
 6484TIP3    H219459   3.640   2.765   4.446
 6485TIP3   OH219460   3.206   5.252   0.108
 6485TIP3    H119461   3.199   5.164   0.070
 6485TIP3    H219462   3.131   5.259   0.167
 6486TIP3   OH219463   3.952   5.121   4.866
 6486TIP3    H119464   3.881   5.167   4.911
 6486TIP3    H219465   3.921   5.113   4.776
 6487TIP3   OH219466   2.562   4.952   1.562
 6487TIP3    H119467   2.500   5.022   1.542
 6487TIP3    H219468   2.648   4.994   1.555
 6488TIP3   OH219469   4.605   2.850   3.845
 6488TIP3    H119470   4.655   2.914   3.897
 6488TIP3    H219471   4.651   2.767   3.858
 6489TIP3   OH219472   2.346   0.965   4.146
 6489TIP3    H119473   2.376   0.954   4.056
 6489TIP3    H219474   2.325   1.059   4.153
 6490TIP3   OH219475   0.803   5.371   4.028
 6490TIP3    H119476   0.874   5.356   4.091
 6490TIP3    H219477   0.836   5.335   3.946
 6491TIP3   OH219478   3.582   4.506   4.911
 6491TIP3    H119479   3.558   4.439   4.975
 6491TIP3    H219480   3.569   4.465   4.826
 6492TIP3   OH219481   3.637   0.692   4.618
 6492TIP3    H119482   3.639   0.641   4.699
 6492TIP3    H219483   3.720   0.671   4.574
 6493TIP3   OH219484   5.651   1.355   0.565
 6493TIP3    H119485   5.592   1.318   0.500
 6493TIP3    H219486   5.598   1.365   0.644
 6494TIP3   OH219487   2.991   1.876   1.887
 6494TIP3    H119488   3.058   1.913   1.829
 6494TIP3    H219489   2.990   1.936   1.962
 6495TIP3   OH219490   4.570   2.055   1.144
 6495TIP3    H119491   4.502   2.010   1.195
 6495TIP3    H219492   4.552   2.029   1.053
 6496TIP3   OH219493   4.023   3.443   3.613
 6496TIP3    H119494   4.021   3.535   3.587
 6496TIP3    H219495   4.051   3.444   3.705
 6497TIP3   OH219496   3.356   4.651   4.073
 6497TIP3    H119497   3.443   4.625   4.045
 6497TIP3    H219498   3.301   4.574   4.058
 6498TIP3   OH219499   1.301   3.214   1.566
 6498TIP3    H119500   1.228   3.174   1.613
 6498TIP3    H219501   1.283   3.194   1.474
 6499TIP3   OH219502   5.688   3.946   3.381
 6499TIP3    H119503   5.630   3.932   3.456
 6499TIP3    H219504   5.760   3.999   3.415
 6500TIP3   OH219505   5.118   1.412   1.842
 6500TIP3    H119506   5.186   1.399   1.908
 6500TIP3    H219507   5.166   1.413   1.759
 6501TIP3   OH219508   0.491   1.752   0.855
 6501TIP3    H119509   0.500   1.699   0.934
 6501TIP3    H219510   0.477   1.689   0.785
 6502TIP3   OH219511   0.732   3.803   0.371
 6502TIP3    H119512   0.819   3.839   0.388
 6502TIP3    H219513   0.725   3.801   0.276
 6503TIP3   OH219514   5.660   5.569   1.078
 6503TIP3    H119515   5.591   5.514   1.116
 6503TIP3    H219516   5.736   5.511   1.074
 6504TIP3   OH219517   5.054   3.852   4.426
 6504TIP3    H119518   5.147   3.857   4.404
 6504TIP3    H219519   5.030   3.761   4.411
 6505TIP3   OH219520   3.030   1.049   3.799
 6505TIP3    H119521   2.960   1.050   3.865
 6505TIP3    H219522   3.054   0.957   3.792
 6506TIP3   OH219523   1.142   3.236   2.441
 6506TIP3    H119524   1.117   3.179   2.369
 6506TIP3    H219525   1.234   3.258   2.424
 6507TIP3   OH219526   4.454   0.522   1.918
 6507TIP3    H119527   4.460   0.594   1.981
 6507TIP3    H219528   4.362   0.518   1.895
 6508TIP3   OH219529   5.521   1.521   0.329
 6508TIP3    H119530   5.453   1.569   0.376
 6508TIP3    H219531   5.506   1.430   0.351
 6509TIP3   OH219532   0.652   1.110   1.785
 6509TIP3    H119533   0.561   1.127   1.761
 6509TIP3    H219534   0.704   1.153   1.717
 6510TIP3   OH219535   3.388   5.520   2.663
 6510TIP3    H119536   3.371   5.483   2.749
 6510TIP3    H219537   3.370   5.613   2.673
 6511TIP3   OH219538   6.009   4.454   4.587
 6511TIP3    H119539   5.963   4.537   4.603
 6511TIP3    H219540   6.001   4.407   4.670
 6512TIP3   OH219541   3.749   5.782   3.886
 6512TIP3    H119542   3.740   5.872   3.853
 6512TIP3    H219543   3.735   5.727   3.809
 6513TIP3   OH219544   5.183   2.581   4.180
 6513TIP3    H119545   5.248   2.566   4.248
 6513TIP3    H219546   5.194   2.673   4.155
 6514TIP3   OH219547   0.225   3.419   1.059
 6514TIP3    H119548   0.232   3.342   1.003
 6514TIP3    H219549   0.240   3.386   1.147
 6515TIP3   OH219550   1.286   4.614   0.772
 6515TIP3    H119551   1.285   4.644   0.863
 6515TIP3    H219552   1.245   4.684   0.722
 6516TIP3   OH219553   0.052   2.259   3.672
 6516TIP3    H119554  -0.013   2.218   3.730
 6516TIP3    H219555   0.015   2.346   3.653
 6517TIP3   OH219556   3.330   4.764   1.856
 6517TIP3    H119557   3.366   4.742   1.770
 6517TIP3    H219558   3.249   4.812   1.837
 6518TIP3   OH219559   5.423   0.177   4.210
 6518TIP3    H119560   5.479   0.227   4.151
 6518TIP3    H219561   5.480   0.111   4.248
 6519TIP3   OH219562   6.099   4.030   0.661
 6519TIP3    H119563   6.036   4.039   0.732
 6519TIP3    H219564   6.151   3.952   0.684
 6520TIP3   OH219565   4.331   3.312   0.706
 6520TIP3    H119566   4.332   3.408   0.706
 6520TIP3    H219567   4.336   3.288   0.613
 6521TIP3   OH219568   5.089   0.417   4.991
 6521TIP3    H119569   5.078   0.429   4.896
 6521TIP3    H219570   5.043   0.491   5.030
 6522TIP3   OH219571   4.402   4.888   5.155
 6522TIP3    H119572   4.311   4.904   5.131
 6522TIP3    H219573   4.421   4.956   5.220
 6523TIP3   OH219574   3.015   2.967   1.516
 6523TIP3    H119575   2.963   3.032   1.563
 6523TIP3    H219576   2.973   2.883   1.538
 6524TIP3   OH219577   2.415   2.859   1.391
 6524TIP3    H119578   2.433   2.951   1.370
 6524TIP3    H219579   2.467   2.809   1.329
 6525TIP3   OH219580   4.649   3.689   1.865
 6525TIP3    H119581   4.715   3.621   1.869
 6525TIP3    H219582   4.696   3.770   1.887
 6526TIP3   OH219583   5.781   0.713   2.467
 6526TIP3    H119584   5.819   0.625   2.470
 6526TIP3    H219585   5.687   0.699   2.460
 6527TIP3   OH219586   1.946   1.305   0.855
 6527TIP3    H119587   1.949   1.362   0.778
 6527TIP3    H219588   1.853   1.293   0.873
 6528TIP3   OH219589   1.118   0.394   3.241
 6528TIP3    H119590   1.027   0.423   3.246
 6528TIP3    H219591   1.144   0.413   3.151
 6529TIP3   OH219592   5.403   1.414   0.700
 6529TIP3    H119593   5.323   1.384   0.655
 6529TIP3    H219594   5.413   1.505   0.672
 6530TIP3   OH219595   1.434   4.945   2.774
 6530TIP3    H119596   1.400   5.004   2.707
 6530TIP3    H219597   1.416   4.857   2.741
 6531TIP3   OH219598   5.124   0.262   0.124
 6531TIP3    H119599   5.039   0.243   0.164
 6531TIP3    H219600   5.108   0.253   0.030
 6532TIP3   OH219601   4.080   1.148   0.533
 6532TIP3    H119602   4.081   1.206   0.457
 6532TIP3    H219603   4.014   1.186   0.592
 6533TIP3   OH219604   5.285   4.241   1.128
 6533TIP3    H119605   5.248   4.167   1.177
 6533TIP3    H219606   5.294   4.311   1.192
 6534TIP3   OH219607   2.481   4.997   2.011
 6534TIP3    H119608   2.485   4.912   1.968
 6534TIP3    H219609   2.481   5.061   1.940
 6535TIP3   OH219610   5.090   0.506   3.223
 6535TIP3    H119611   5.147   0.583   3.225
 6535TIP3    H219612   5.088   0.476   3.314
 6536TIP3   OH219613   3.493   0.310   2.646
 6536TIP3    H119614   3.474   0.248   2.717
 6536TIP3    H219615   3.407   0.335   2.613
 6537TIP3   OH219616   5.950   2.554   4.333
 6537TIP3    H119617   6.030   2.567   4.384
 6537TIP3    H219618   5.898   2.493   4.385
 6538TIP3   OH219619   3.908   0.605   4.598
 6538TIP3    H119620   3.854   0.565   4.530
 6538TIP3    H219621   3.991   0.624   4.555
 6539TIP3   OH219622   2.044   5.500   2.657
 6539TIP3    H119623   1.995   5.418   2.657
 6539TIP3    H219624   2.118   5.484   2.716
 6540TIP3   OH219625   6.181   2.019   2.069
 6540TIP3    H119626   6.240   1.946   2.089
 6540TIP3    H219627   6.224   2.067   1.999
 6541TIP3   OH219628   3.842   3.946   2.823
 6541TIP3    H119629   3.841   3.857   2.857
 6541TIP3    H219630   3.868   4.000   2.898
 6542TIP3   OH219631   1.976   0.764   0.788
 6542TIP3    H119632   2.001   0.714   0.866
 6542TIP3    H219633   2.005   0.854   0.807
 6543TIP3   OH219634   5.369   0.134   0.924
 6543TIP3    H119635   5.433   0.188   0.878
 6543TIP3    H219636   5.393   0.044   0.902
 6544TIP3   OH219637   2.063   4.462   2.255
 6544TIP3    H119638   2.042   4.518   2.329
 6544TIP3    H219639   2.086   4.522   2.185
 6545TIP3   OH219640   6.114   4.673   4.994
 6545TIP3    H119641   6.181   4.741   4.991
 6545TIP3    H219642   6.163   4.591   4.997
 6546TIP3   OH219643   5.060   5.856   0.135
 6546TIP3    H119644   5.070   5.761   0.131
 6546TIP3    H219645   5.111   5.882   0.212
 6547TIP3   OH219646   1.679   4.245   2.477
 6547TIP3    H119647   1.630   4.185   2.421
 6547TIP3    H219648   1.639   4.236   2.563
 6548TIP3   OH219649   1.093   1.068   4.586
 6548TIP3    H119650   1.002   1.039   4.585
 6548TIP3    H219651   1.145   0.988   4.580
 6549TIP3   OH219652   3.524   3.344   0.369
 6549TIP3    H119653   3.526   3.437   0.391
 6549TIP3    H219654   3.556   3.301   0.449
 6550TIP3   OH219655   2.850   4.255   1.770
 6550TIP3    H119656   2.769   4.244   1.820
 6550TIP3    H219657   2.829   4.219   1.684
 6551TIP3   OH219658   1.760   0.711   0.651
 6551TIP3    H119659   1.760   0.615   0.640
 6551TIP3    H219660   1.842   0.729   0.698
 6552TIP3   OH219661   3.447   4.146   1.612
 6552TIP3    H119662   3.476   4.135   1.702
 6552TIP3    H219663   3.378   4.213   1.616
 6553TIP3   OH219664   3.134   4.246   2.437
 6553TIP3    H119665   3.085   4.309   2.386
 6553TIP3    H219666   3.164   4.181   2.374
 6554TIP3   OH219667   3.110   0.928   0.347
 6554TIP3    H119668   3.054   0.991   0.393
 6554TIP3    H219669   3.198   0.965   0.352
 6555TIP3   OH219670   3.786   0.268   1.788
 6555TIP3    H119671   3.703   0.232   1.757
 6555TIP3    H219672   3.804   0.221   1.869
 6556TIP3   OH219673   1.039   5.404   2.592
 6556TIP3    H119674   1.059   5.474   2.531
 6556TIP3    H219675   1.113   5.343   2.582
 6557TIP3   OH219676   0.008   2.777   3.094
 6557TIP3    H119677   0.086   2.810   3.049
 6557TIP3    H219678  -0.026   2.709   3.036
 6558TIP3   OH219679   1.628   4.315   4.468
 6558TIP3    H119680   1.675   4.234   4.447
 6558TIP3    H219681   1.658   4.377   4.402
 6559TIP3   OH219682   5.120   0.835   0.055
 6559TIP3    H119683   5.035   0.802   0.084
 6559TIP3    H219684   5.172   0.756   0.037
 6560TIP3   OH219685   6.213   0.723   2.332
 6560TIP3    H119686   6.120   0.741   2.318
 6560TIP3    H219687   6.242   0.791   2.392
 6561TIP3   OH219688   5.888   1.181   4.774
 6561TIP3    H119689   5.849   1.246   4.715
 6561TIP3    H219690   5.982   1.198   4.769
 6562TIP3   OH219691   3.019   0.550   1.043
 6562TIP3    H119692   2.977   0.558   1.128
 6562TIP3    H219693   2.948   0.564   0.980
 6563TIP3   OH219694   6.221   2.975   0.010
 6563TIP3    H119695   6.154   2.906   0.015
 6563TIP3    H219696   6.304   2.927   0.015
 6564TIP3   OH219697   0.939   5.507   4.696
 6564TIP3    H119698   0.925   5.412   4.691
 6564TIP3    H219699   1.034   5.516   4.709
 6565TIP3   OH219700   3.787   1.101   1.209
 6565TIP3    H119701   3.817   1.184   1.245
 6565TIP3    H219702   3.692   1.105   1.213
 6566TIP3   OH219703   4.637   1.633   0.342
 6566TIP3    H119704   4.580   1.674   0.277
 6566TIP3    H219705   4.650   1.544   0.310
 6567TIP3   OH219706   4.902   3.119   5.199
 6567TIP3    H119707   4.831   3.076   5.151
 6567TIP3    H219708   4.978   3.064   5.185
 6568TIP3   OH219709   5.823   5.335   0.049
 6568TIP3    H119710   5.877   5.396   0.098
 6568TIP3    H219711   5.878   5.258   0.037
 6569TIP3   OH219712   0.676   5.307   4.931
 6569TIP3    H119713   0.720   5.229   4.966
 6569TIP3    H219714   0.599   5.318   4.987
 6570TIP3   OH219715   1.612   1.967   4.275
 6570TIP3    H119716   1.612   1.999   4.185
 6570TIP3    H219717   1.561   1.886   4.271
 6571TIP3   OH219718   2.745   0.299   4.723
 6571TIP3    H119719   2.688   0.222   4.733
 6571TIP3    H219720   2.809   0.273   4.657
 6572TIP3   OH219721   0.359   5.756   2.438
 6572TIP3    H119722   0.393   5.721   2.520
 6572TIP3    H219723   0.408   5.837   2.424
 6573TIP3   OH219724   1.052   5.994   4.279
 6573TIP3    H119725   1.103   5.920   4.246
 6573TIP3    H219726   1.065   5.992   4.374
 6574TIP3   OH219727   4.760   4.970   2.653
 6574TIP3    H119728   4.843   4.923   2.641
 6574TIP3    H219729   4.773   5.053   2.608
 6575TIP3   OH219730   2.644   2.818   2.722
 6575TIP3    H119731   2.629   2.807   2.816
 6575TIP3    H219732   2.560   2.850   2.689
 6576TIP3   OH219733   5.156   4.258   0.858
 6576TIP3    H119734   5.190   4.248   0.947
 6576TIP3    H219735   5.061   4.254   0.869
 6577TIP3   OH219736   2.599   3.984   1.340
 6577TIP3    H119737   2.685   3.954   1.311
 6577TIP3    H219738   2.544   3.978   1.262
 6578TIP3   OH219739   3.815   2.460   0.523
 6578TIP3    H119740   3.748   2.408   0.479
 6578TIP3    H219741   3.813   2.545   0.479
 6579TIP3   OH219742   2.638   3.178   0.824
 6579TIP3    H119743   2.633   3.088   0.855
 6579TIP3    H219744   2.550   3.197   0.791
 6580TIP3   OH219745   1.785   3.529   4.412
 6580TIP3    H119746   1.701   3.484   4.405
 6580TIP3    H219747   1.850   3.460   4.402
 6581TIP3   OH219748   5.996   5.863   2.583
 6581TIP3    H119749   5.934   5.881   2.512
 6581TIP3    H219750   6.027   5.949   2.610
 6582TIP3   OH219751   5.376   1.775   2.915
 6582TIP3    H119752   5.353   1.845   2.854
 6582TIP3    H219753   5.431   1.716   2.864
 6583TIP3   OH219754   4.965   3.989   3.473
 6583TIP3    H119755   4.896   4.001   3.407
 6583TIP3    H219756   5.044   4.022   3.430
 6584TIP3   OH219757   1.102   4.868   0.383
 6584TIP3    H119758   1.086   4.959   0.406
 6584TIP3    H219759   1.081   4.862   0.290
 6585TIP3   OH219760   4.001   5.902   2.549
 6585TIP3    H119761   3.940   5.830   2.530
 6585TIP3    H219762   4.067   5.897   2.479
 6586TIP3   OH219763   5.641   5.968   3.811
 6586TIP3    H119764   5.617   5.882   3.778
 6586TIP3    H219765   5.584   5.982   3.886
 6587TIP3   OH219766   1.062   1.762   5.003
 6587TIP3    H119767   1.144   1.777   5.050
 6587TIP3    H219768   1.078   1.682   4.953
 6588TIP3   OH219769   0.726   1.947   1.861
 6588TIP3    H119770   0.801   1.999   1.889
 6588TIP3    H219771   0.667   1.949   1.936
 6589TIP3   OH219772   4.815   1.098   2.080
 6589TIP3    H119773   4.753   1.058   2.018
 6589TIP3    H219774   4.882   1.138   2.025
 6590TIP3   OH219775   3.246   4.866   5.079
 6590TIP3    H119776   3.321   4.890   5.024
 6590TIP3    H219777   3.272   4.893   5.167
 6591TIP3   OH219778   4.954   4.276   4.356
 6591TIP3    H119779   4.924   4.361   4.325
 6591TIP3    H219780   5.034   4.259   4.305
 6592TIP3   OH219781   2.035   3.894   4.471
 6592TIP3    H119782   2.072   3.904   4.383
 6592TIP3    H219783   2.062   3.807   4.499
 6593TIP3   OH219784   0.902   4.875   0.714
 6593TIP3    H119785   0.816   4.855   0.677
 6593TIP3    H219786   0.945   4.790   0.722
 6594TIP3   OH219787   2.885   3.130   3.625
 6594TIP3    H119788   2.936   3.207   3.602
 6594TIP3    H219789   2.886   3.128   3.721
 6595TIP3   OH219790   3.659   3.265   0.163
 6595TIP3    H119791   3.585   3.288   0.219
 6595TIP3    H219792   3.736   3.278   0.218
 6596TIP3   OH219793   2.791   3.886   3.506
 6596TIP3    H119794   2.841   3.875   3.587
 6596TIP3    H219795   2.711   3.929   3.534
 6597TIP3   OH219796   0.704   4.915   4.315
 6597TIP3    H119797   0.749   4.834   4.291
 6597TIP3    H219798   0.754   4.984   4.270
 6598TIP3   OH219799   5.039   5.551   1.471
 6598TIP3    H119800   5.028   5.579   1.561
 6598TIP3    H219801   4.951   5.524   1.444
 6599TIP3   OH219802   3.290   0.788   2.552
 6599TIP3    H119803   3.353   0.720   2.576
 6599TIP3    H219804   3.309   0.861   2.611
 6600TIP3   OH219805   1.854   4.028   2.448
 6600TIP3    H119806   1.812   4.114   2.451
 6600TIP3    H219807   1.796   3.970   2.497
 6601TIP3   OH219808   4.021   2.936   4.451
 6601TIP3    H119809   4.088   2.927   4.383
 6601TIP3    H219810   4.040   2.864   4.512
 6602TIP3   OH219811   3.700   0.032   1.588
 6602TIP3    H119812   3.691   0.018   1.494
 6602TIP3    H219813   3.610   0.025   1.622
 6603TIP3   OH219814   6.242   0.412   1.001
 6603TIP3    H119815   6.167   0.467   1.024
 6603TIP3    H219816   6.255   0.356   1.077
 6604TIP3   OH219817   3.263   0.421   4.490
 6604TIP3    H119818   3.243   0.336   4.529
 6604TIP3    H219819   3.267   0.403   4.396
 6605TIP3   OH219820   2.217   3.733   3.526
 6605TIP3    H119821   2.278   3.703   3.593
 6605TIP3    H219822   2.262   3.717   3.443
 6606TIP3   OH219823   0.364   1.844   1.258
 6606TIP3    H119824   0.320   1.761   1.240
 6606TIP3    H219825   0.454   1.830   1.229
 6607TIP3   OH219826   5.133   4.758   2.817
 6607TIP3    H119827   5.178   4.686   2.861
 6607TIP3    H219828   5.203   4.814   2.785
 6608TIP3   OH219829   4.099   5.897   1.699
 6608TIP3    H119830   4.122   5.814   1.660
 6608TIP3    H219831   4.124   5.963   1.634
 6609TIP3   OH219832   4.788   1.465   0.014
 6609TIP3    H119833   4.740   1.428   0.088
 6609TIP3    H219834   4.723   1.519  -0.032
 6610TIP3   OH219835   0.415   3.385   2.255
 6610TIP3    H119836   0.368   3.424   2.329
 6610TIP3    H219837   0.456   3.307   2.291
 6611TIP3   OH219838   2.953   3.131   2.436
 6611TIP3    H119839   2.904   3.213   2.430
 6611TIP3    H219840   3.043   3.159   2.454
 6612TIP3   OH219841   3.485   1.031   0.129
 6612TIP3    H119842   3.458   1.033   0.037
 6612TIP3    H219843   3.579   1.050   0.127
 6613TIP3   OH219844   1.321   3.599   1.934
 6613TIP3    H119845   1.299   3.563   1.848
 6613TIP3    H219846   1.396   3.547   1.963
 6614TIP3   OH219847   2.089   2.656   1.882
 6614TIP3    H119848   2.075   2.748   1.900
 6614TIP3    H219849   2.006   2.625   1.844
 6615TIP3   OH219850   1.581   0.093   0.822
 6615TIP3    H119851   1.616   0.004   0.828
 6615TIP3    H219852   1.533   0.106   0.904
 6616TIP3   OH219853   6.029   1.270   0.502
 6616TIP3    H119854   6.096   1.309   0.558
 6616TIP3    H219855   6.039   1.175   0.515
 6617TIP3   OH219856   2.627   0.641   1.976
 6617TIP3    H119857   2.581   0.599   2.049
 6617TIP3    H219858   2.558   0.660   1.912
 6618TIP3   OH219859   4.384   0.520   3.249
 6618TIP3    H119860   4.321   0.575   3.296
 6618TIP3    H219861   4.344   0.507   3.162
 6619TIP3   OH219862   2.662   4.780   1.812
 6619TIP3    H119863   2.600   4.744   1.876
 6619TIP3    H219864   2.607   4.833   1.754
 6620TIP3   OH219865   0.195   3.808   1.960
 6620TIP3    H119866   0.150   3.755   1.895
 6620TIP3    H219867   0.182   3.898   1.932
 6621TIP3   OH219868   5.234   5.658   2.507
 6621TIP3    H119869   5.215   5.719   2.435
 6621TIP3    H219870   5.165   5.592   2.501
 6622TIP3   OH219871   0.396   4.952   0.758
 6622TIP3    H119872   0.379   4.988   0.845
 6622TIP3    H219873   0.487   4.923   0.762
 6623TIP3   OH219874   1.767   0.482   3.843
 6623TIP3    H119875   1.690   0.538   3.840
 6623TIP3    H219876   1.830   0.524   3.785
 6624TIP3   OH219877   3.165   5.065   4.428
 6624TIP3    H119878   3.202   4.983   4.395
 6624TIP3    H219879   3.097   5.037   4.490
 6625TIP3   OH219880   2.507   3.054   1.828
 6625TIP3    H119881   2.579   2.994   1.807
 6625TIP3    H219882   2.429   3.010   1.795
 6626TIP3   OH219883   5.944   5.137   0.684
 6626TIP3    H119884   5.958   5.075   0.613
 6626TIP3    H219885   5.946   5.083   0.763
 6627TIP3   OH219886   3.919   2.415   4.672
 6627TIP3    H119887   3.927   2.344   4.736
 6627TIP3    H219888   3.876   2.486   4.720
 6628TIP3   OH219889   2.785   2.869   3.086
 6628TIP3    H119890   2.769   2.857   3.180
 6628TIP3    H219891   2.698   2.858   3.046
 6629TIP3   OH219892   3.990   3.722   0.263
 6629TIP3    H119893   3.969   3.673   0.343
 6629TIP3    H219894   3.932   3.798   0.267
 6630TIP3   OH219895   1.970   3.630   3.668
 6630TIP3    H119896   2.008   3.637   3.581
 6630TIP3    H219897   2.022   3.690   3.722
 6631TIP3   OH219898   5.380   1.265   5.049
 6631TIP3    H119899   5.412   1.189   5.001
 6631TIP3    H219900   5.458   1.304   5.088
 6632TIP3   OH219901   4.109   0.018   2.310
 6632TIP3    H119902   4.191   0.017   2.361
 6632TIP3    H219903   4.137   0.040   2.221
 6633TIP3   OH219904   0.627   5.586   0.833
 6633TIP3    H119905   0.600   5.671   0.796
 6633TIP3    H219906   0.544   5.539   0.846
 6634TIP3   OH219907   4.259   5.239   3.182
 6634TIP3    H119908   4.277   5.333   3.188
 6634TIP3    H219909   4.306   5.201   3.256
 6635TIP3   OH219910   1.453   1.384   3.800
 6635TIP3    H119911   1.418   1.296   3.788
 6635TIP3    H219912   1.483   1.410   3.713
 6636TIP3   OH219913   3.901   4.156   4.692
 6636TIP3    H119914   3.819   4.199   4.667
 6636TIP3    H219915   3.924   4.194   4.776
 6637TIP3   OH219916   2.217   3.732   3.071
 6637TIP3    H119917   2.238   3.701   2.983
 6637TIP3    H219918   2.121   3.740   3.071
 6638TIP3   OH219919   0.714   2.142   0.443
 6638TIP3    H119920   0.722   2.206   0.372
 6638TIP3    H219921   0.690   2.061   0.398
 6639TIP3   OH219922   4.069   4.716   4.224
 6639TIP3    H119923   4.103   4.686   4.309
 6639TIP3    H219924   3.993   4.660   4.207
 6640TIP3   OH219925   4.165   3.979   1.228
 6640TIP3    H119926   4.210   3.930   1.297
 6640TIP3    H219927   4.076   3.993   1.262
 6641TIP3   OH219928   6.006   3.248   2.522
 6641TIP3    H119929   6.083   3.217   2.475
 6641TIP3    H219930   5.996   3.188   2.596
 6642TIP3   OH219931   1.205   4.962   2.625
 6642TIP3    H119932   1.147   4.889   2.604
 6642TIP3    H219933   1.164   5.005   2.700
 6643TIP3   OH219934   1.483   0.857   1.866
 6643TIP3    H119935   1.486   0.918   1.940
 6643TIP3    H219936   1.422   0.897   1.805
 6644TIP3   OH219937   0.407   3.757   0.317
 6644TIP3    H119938   0.465   3.801   0.380
 6644TIP3    H219939   0.330   3.732   0.368
 6645TIP3   OH219940   5.983   2.670   4.700
 6645TIP3    H119941   5.912   2.610   4.722
 6645TIP3    H219942   6.015   2.640   4.615
   6.35698   5.99342   5.19046   0.00000   0.00000  -2.11900   0.00000  -2.11900  -2.99671
