Title t= 162.00000 step= 81000
46055
    1GLY      N    1   2.615   2.614   1.083
    1GLY    HT1    2   2.596   2.546   1.160
    1GLY    HT2    3   2.686   2.578   1.017
    1GLY    HT3    4   2.527   2.633   1.032
    1GLY     CA    5   2.655   2.745   1.140
    1GLY    HA1    6   2.585   2.763   1.220
    1GLY    HA2    7   2.647   2.804   1.050
    1GLY      C    8   2.796   2.734   1.208
    1GLY      O    9   2.847   2.626   1.227
    2PRO      N   10   2.850   2.849   1.243
    2PRO     CD   11   2.785   2.980   1.213
    2PRO    HD1   12   2.698   2.992   1.281
    2PRO    HD2   13   2.739   2.988   1.112
    2PRO     CA   14   2.951   2.871   1.349
    2PRO     HA   15   3.046   2.846   1.303
    2PRO     CB   16   2.934   3.021   1.379
    2PRO    HB1   17   3.028   3.060   1.423
    2PRO    HB2   18   2.860   3.032   1.461
    2PRO     CG   19   2.879   3.083   1.255
    2PRO    HG1   20   2.829   3.183   1.257
    2PRO    HG2   21   2.954   3.094   1.174
    2PRO      C   22   2.951   2.779   1.465
    2PRO      O   23   2.842   2.728   1.498
    3GLY      N   24   3.065   2.762   1.531
    3GLY     HN   25   3.143   2.815   1.500
    3GLY     CA   26   3.083   2.665   1.639
    3GLY    HA1   27   3.187   2.670   1.666
    3GLY    HA2   28   3.071   2.564   1.602
    3GLY      C   29   2.985   2.686   1.757
    3GLY      O   30   2.904   2.779   1.758
    4ALA      N   31   2.990   2.602   1.860
    4ALA     HN   32   3.036   2.515   1.849
    4ALA     CA   33   2.909   2.618   1.980
    4ALA     HA   34   2.806   2.634   1.955
    4ALA     CB   35   2.934   2.493   2.062
    4ALA    HB1   36   2.887   2.507   2.162
    4ALA    HB2   37   3.043   2.470   2.062
    4ALA    HB3   38   2.872   2.414   2.014
    4ALA      C   39   2.933   2.750   2.061
    4ALA      O   40   3.038   2.809   2.047
    5PRO      N   41   2.844   2.789   2.150
    5PRO     CD   42   2.708   2.734   2.168
    5PRO    HD1   43   2.722   2.637   2.219
    5PRO    HD2   44   2.657   2.724   2.070
    5PRO     CA   45   2.868   2.896   2.249
    5PRO     HA   46   2.869   2.994   2.205
    5PRO     CB   47   2.747   2.886   2.347
    5PRO    HB1   48   2.728   2.984   2.397
    5PRO    HB2   49   2.777   2.812   2.424
    5PRO     CG   50   2.638   2.827   2.260
    5PRO    HG1   51   2.565   2.770   2.321
    5PRO    HG2   52   2.583   2.903   2.200
    5PRO      C   53   2.997   2.885   2.331
    5PRO      O   54   3.026   2.785   2.395
    6GLY      N   55   3.077   2.993   2.333
    6GLY     HN   56   3.028   3.069   2.290
    6GLY     CA   57   3.195   3.027   2.421
    6GLY    HA1   58   3.219   3.127   2.388
    6GLY    HA2   59   3.273   2.954   2.402
    6GLY      C   60   3.163   3.023   2.571
    6GLY      O   61   3.048   3.027   2.611
    7PRO      N   62   3.270   3.011   2.660
    7PRO     CD   63   3.414   3.035   2.616
    7PRO    HD1   64   3.417   3.117   2.540
    7PRO    HD2   65   3.465   2.948   2.569
    7PRO     CA   66   3.261   3.016   2.811
    7PRO     HA   67   3.198   2.938   2.851
    7PRO     CB   68   3.408   2.991   2.855
    7PRO    HB1   69   3.427   2.882   2.850
    7PRO    HB2   70   3.414   3.030   2.958
    7PRO     CG   71   3.486   3.068   2.745
    7PRO    HG1   72   3.495   3.177   2.767
    7PRO    HG2   73   3.591   3.032   2.741
    7PRO      C   74   3.187   3.139   2.853
    7PRO      O   75   3.227   3.249   2.806
    8GLY      N   76   3.077   3.120   2.930
    8GLY     HN   77   3.040   3.029   2.946
    8GLY     CA   78   2.985   3.223   2.981
    8GLY    HA1   79   2.958   3.189   3.080
    8GLY    HA2   80   2.901   3.227   2.914
    8GLY      C   81   3.041   3.362   3.001
    8GLY      O   82   3.128   3.375   3.083
    9ALA      N   83   2.986   3.461   2.947
    9ALA     HN   84   2.910   3.446   2.884
    9ALA     CA   85   3.032   3.596   2.967
    9ALA     HA   86   3.139   3.589   2.982
    9ALA     CB   87   3.005   3.672   2.844
    9ALA    HB1   88   3.010   3.608   2.753
    9ALA    HB2   89   3.082   3.751   2.838
    9ALA    HB3   90   2.905   3.721   2.837
    9ALA      C   91   2.970   3.656   3.097
    9ALA      O   92   2.861   3.601   3.134
   10PRO      N   93   3.031   3.750   3.168
   10PRO     CD   94   3.138   3.824   3.115
   10PRO    HD1   95   3.107   3.904   3.044
   10PRO    HD2   96   3.221   3.758   3.082
   10PRO     CA   97   2.991   3.801   3.301
   10PRO     HA   98   3.008   3.721   3.372
   10PRO     CB   99   3.067   3.930   3.312
   10PRO    HB1  100   3.084   3.964   3.417
   10PRO    HB2  101   3.021   4.009   3.249
   10PRO     CG  102   3.196   3.898   3.237
   10PRO    HG1  103   3.256   3.983   3.200
   10PRO    HG2  104   3.260   3.828   3.295
   10PRO      C  105   2.840   3.833   3.309
   10PRO      O  106   2.778   3.869   3.207
   11GLY      N  107   2.777   3.819   3.428
   11GLY     HN  108   2.832   3.790   3.505
   11GLY     CA  109   2.638   3.840   3.458
   11GLY    HA1  110   2.619   3.785   3.548
   11GLY    HA2  111   2.586   3.803   3.371
   11GLY      C  112   2.593   3.983   3.482
   11GLY      O  113   2.665   4.081   3.451
   12PRO      N  114   2.474   4.007   3.549
   12PRO     CD  115   2.360   3.917   3.545
   12PRO    HD1  116   2.392   3.820   3.588
   12PRO    HD2  117   2.333   3.905   3.438
   12PRO     CA  118   2.438   4.131   3.618
   12PRO     HA  119   2.402   4.208   3.551
   12PRO     CB  120   2.328   4.090   3.707
   12PRO    HB1  121   2.278   4.178   3.752
   12PRO    HB2  122   2.355   4.018   3.787
   12PRO     CG  123   2.255   3.996   3.614
   12PRO    HG1  124   2.172   3.944   3.667
   12PRO    HG2  125   2.204   4.061   3.540
   12PRO      C  126   2.546   4.208   3.694
   12PRO      O  127   2.626   4.143   3.762
   13GLY      N  128   2.556   4.344   3.677
   13GLY     HN  129   2.494   4.391   3.614
   13GLY     CA  130   2.642   4.430   3.759
   13GLY    HA1  131   2.660   4.523   3.707
   13GLY    HA2  132   2.733   4.373   3.773
   13GLY      C  133   2.580   4.459   3.894
   13GLY      O  134   2.457   4.477   3.897
   14ALA      N  135   2.658   4.462   4.001
   14ALA     HN  136   2.757   4.458   4.000
   14ALA     CA  137   2.610   4.480   4.140
   14ALA     HA  138   2.503   4.465   4.149
   14ALA     CB  139   2.673   4.370   4.224
   14ALA    HB1  140   2.781   4.363   4.200
   14ALA    HB2  141   2.632   4.270   4.197
   14ALA    HB3  142   2.669   4.386   4.334
   14ALA      C  143   2.640   4.613   4.191
   14ALA      O  144   2.758   4.656   4.188
   15PRO      N  145   2.541   4.691   4.236
   15PRO     CD  146   2.400   4.683   4.197
   15PRO    HD1  147   2.343   4.624   4.272
   15PRO    HD2  148   2.384   4.639   4.096
   15PRO     CA  149   2.575   4.822   4.285
   15PRO     HA  150   2.636   4.877   4.214
   15PRO     CB  151   2.442   4.893   4.295
   15PRO    HB1  152   2.463   5.000   4.272
   15PRO    HB2  153   2.397   4.898   4.397
   15PRO     CG  154   2.353   4.830   4.189
   15PRO    HG1  155   2.245   4.854   4.200
   15PRO    HG2  156   2.382   4.870   4.090
   15PRO      C  157   2.642   4.816   4.420
   15PRO    OT1  158   2.590   4.756   4.516
   15PRO    OT2  159   2.741   4.878   4.434
   16LIT    LIT  160   5.708   4.705   2.898
   17LIT    LIT  161   3.760   6.335   4.444
   18LIT    LIT  162   3.470   1.244   0.558
   19LIT    LIT  163   5.450   5.459   1.736
   20LIT    LIT  164   2.506   5.867   1.727
   21LIT    LIT  165   1.924   4.749   2.676
   22LIT    LIT  166   3.222   1.381   4.817
   23LIT    LIT  167   7.160   4.530   3.714
   24LIT    LIT  168   5.169   5.486   3.250
   25LIT    LIT  169   5.490   0.299   6.557
   26LIT    LIT  170   6.528   2.476   4.620
   27LIT    LIT  171   8.284   4.385   2.712
   28LIT    LIT  172   0.653   6.649   5.184
   29LIT    LIT  173   5.593   1.495   1.497
   30LIT    LIT  174   3.759   5.212   2.752
   31LIT    LIT  175   7.792   2.879   4.276
   32LIT    LIT  176   0.418   3.203   5.316
   33LIT    LIT  177   5.247   7.061   2.811
   34LIT    LIT  178   7.824   6.601   0.229
   35LIT    LIT  179   6.066   7.477   4.376
   36LIT    LIT  180   7.491   6.254   4.682
   37LIT    LIT  181   2.414   6.263   2.808
   38LIT    LIT  182   0.505   5.547   1.352
   39LIT    LIT  183   2.606   2.220   5.736
   40LIT    LIT  184   8.244   6.388   5.701
   41LIT    LIT  185   1.246   2.487   6.151
   42LIT    LIT  186   5.946   4.137   1.741
   43LIT    LIT  187   1.266   7.442   1.733
   44LIT    LIT  188   4.620   7.762   1.269
   45LIT    LIT  189   8.221   7.340   2.436
   46LIT    LIT  190   1.580   3.704   3.926
   47LIT    LIT  191   1.559   0.779   1.558
   48LIT    LIT  192   0.745   6.149   1.913
   49LIT    LIT  193   5.034   7.767   5.749
   50LIT    LIT  194   4.163   5.368   2.189
   51LIT    LIT  195   0.886   3.165   6.567
   52LIT    LIT  196   7.296   0.900   5.533
   53LIT    LIT  197   3.735   6.566   5.302
   54LIT    LIT  198   5.187   1.854   6.284
   55LIT    LIT  199   3.270   1.044   3.332
   56LIT    LIT  200   6.735   5.548   3.756
   57LIT    LIT  201   3.228   4.640   0.433
   58LIT    LIT  202   2.760   4.775   4.614
   59CLA    CLA  203   3.739   5.763   1.674
   60CLA    CLA  204   4.078   6.560   3.980
   61CLA    CLA  205   6.386   6.739   1.259
   62CLA    CLA  206   2.781   7.926   5.105
   63CLA    CLA  207   0.073   7.070   2.700
   64CLA    CLA  208   3.374   7.044   4.755
   65CLA    CLA  209   1.182   3.355   6.823
   66CLA    CLA  210   6.092   2.272   6.529
   67CLA    CLA  211   6.631   4.200   4.316
   68CLA    CLA  212   7.186   4.965   3.269
   69CLA    CLA  213   6.638   7.439   3.985
   70CLA    CLA  214   8.103   3.065   6.297
   71CLA    CLA  215   1.606   2.522   1.329
   72CLA    CLA  216   6.425   5.672   4.316
   73CLA    CLA  217   0.440   6.558   5.213
   74CLA    CLA  218   5.213   7.341   1.186
   75CLA    CLA  219   5.067   6.763   5.755
   76CLA    CLA  220   4.271   6.260   6.665
   77CLA    CLA  221   2.764   2.508   4.777
   78CLA    CLA  222   0.131   1.619   4.905
   79CLA    CLA  223   6.539   5.788   0.908
   80CLA    CLA  224   7.076   6.341   0.825
   81CLA    CLA  225   2.553   1.587   1.565
   82CLA    CLA  226   4.769   4.910   2.169
   83CLA    CLA  227   8.370   6.460   4.609
   84CLA    CLA  228   8.037   6.958   2.337
   85CLA    CLA  229   0.703   6.136   2.346
   86CLA    CLA  230   7.392   3.579   5.848
   87CLA    CLA  231   0.203   1.275   5.805
   88CLA    CLA  232   5.768   4.433   2.018
   89CLA    CLA  233   3.203   2.530   0.772
   90CLA    CLA  234   4.614   6.629   0.582
   91CLA    CLA  235   0.035   0.392   0.028
   92CLA    CLA  236   4.947   5.276   1.618
   93CLA    CLA  237   3.169   1.305   5.271
   94CLA    CLA  238   5.095   6.545   3.942
   95CLA    CLA  239   4.437   0.641   1.697
   96CLA    CLA  240   6.424   1.927   4.173
   97CLA    CLA  241   1.419   2.103   5.912
   98CLA    CLA  242   6.879   2.961   5.754
   99CLA    CLA  243   1.292   4.910   1.955
  100CLA    CLA  244   2.216   7.818   6.370
  101CLA    CLA  245   2.051   0.464   2.951
  102TIP3   OH2  246   4.904   6.910   5.228
  102TIP3    H1  247   4.921   6.902   5.322
  102TIP3    H2  248   4.951   6.836   5.189
  103TIP3   OH2  249   0.816   4.513   5.300
  103TIP3    H1  250   0.829   4.557   5.384
  103TIP3    H2  251   0.811   4.420   5.322
  104TIP3   OH2  252   3.343   2.465   5.165
  104TIP3    H1  253   3.379   2.548   5.196
  104TIP3    H2  254   3.412   2.429   5.108
  105TIP3   OH2  255   6.917   1.656   0.900
  105TIP3    H1  256   6.965   1.711   0.962
  105TIP3    H2  257   6.831   1.696   0.895
  106TIP3   OH2  258   1.910   7.147   1.464
  106TIP3    H1  259   1.913   7.128   1.370
  106TIP3    H2  260   1.890   7.063   1.505
  107TIP3   OH2  261   5.249   6.756   6.743
  107TIP3    H1  262   5.283   6.739   6.831
  107TIP3    H2  263   5.320   6.731   6.684
  108TIP3   OH2  264   0.710   2.783   6.073
  108TIP3    H1  265   0.696   2.797   5.980
  108TIP3    H2  266   0.800   2.750   6.079
  109TIP3   OH2  267   6.200   5.505   4.093
  109TIP3    H1  268   6.240   5.562   4.158
  109TIP3    H2  269   6.112   5.540   4.080
  110TIP3   OH2  270   3.632   3.422   0.823
  110TIP3    H1  271   3.633   3.330   0.850
  110TIP3    H2  272   3.717   3.456   0.852
  111TIP3   OH2  273   3.801   1.582   6.721
  111TIP3    H1  274   3.763   1.586   6.633
  111TIP3    H2  275   3.729   1.606   6.779
  112TIP3   OH2  276   3.080   6.793   3.642
  112TIP3    H1  277   3.002   6.738   3.631
  112TIP3    H2  278   3.050   6.882   3.621
  113TIP3   OH2  279   6.904   3.711   6.705
  113TIP3    H1  280   6.858   3.660   6.773
  113TIP3    H2  281   6.975   3.653   6.677
  114TIP3   OH2  282   3.071   2.335   1.781
  114TIP3    H1  283   2.978   2.324   1.759
  114TIP3    H2  284   3.088   2.266   1.845
  115TIP3   OH2  285   2.508   4.175   0.125
  115TIP3    H1  286   2.550   4.239   0.067
  115TIP3    H2  287   2.544   4.091   0.099
  116TIP3   OH2  288   1.474   0.671   5.618
  116TIP3    H1  289   1.494   0.578   5.610
  116TIP3    H2  290   1.557   0.712   5.643
  117TIP3   OH2  291   6.247   7.604   0.285
  117TIP3    H1  292   6.250   7.589   0.380
  117TIP3    H2  293   6.154   7.618   0.266
  118TIP3   OH2  294   2.596   6.438   1.036
  118TIP3    H1  295   2.568   6.383   0.962
  118TIP3    H2  296   2.688   6.457   1.018
  119TIP3   OH2  297   5.504   5.830   6.622
  119TIP3    H1  298   5.467   5.901   6.674
  119TIP3    H2  299   5.495   5.752   6.676
  120TIP3   OH2  300   6.773   2.111   2.025
  120TIP3    H1  301   6.678   2.108   2.034
  120TIP3    H2  302   6.797   2.029   1.983
  121TIP3   OH2  303   0.380   6.704   5.494
  121TIP3    H1  304   0.413   6.660   5.416
  121TIP3    H2  305   0.392   6.797   5.476
  122TIP3   OH2  306   1.279   1.304   3.163
  122TIP3    H1  307   1.260   1.375   3.224
  122TIP3    H2  308   1.311   1.233   3.219
  123TIP3   OH2  309   6.580   6.628   2.436
  123TIP3    H1  310   6.601   6.546   2.390
  123TIP3    H2  311   6.488   6.618   2.461
  124TIP3   OH2  312   5.640   4.176   3.269
  124TIP3    H1  313   5.562   4.216   3.231
  124TIP3    H2  314   5.664   4.233   3.342
  125TIP3   OH2  315   2.687   5.302   6.696
  125TIP3    H1  316   2.766   5.347   6.726
  125TIP3    H2  317   2.650   5.262   6.775
  126TIP3   OH2  318   2.202   4.290   0.936
  126TIP3    H1  319   2.227   4.350   1.007
  126TIP3    H2  320   2.109   4.271   0.952
  127TIP3   OH2  321   7.420   7.786   5.628
  127TIP3    H1  322   7.353   7.718   5.628
  127TIP3    H2  323   7.393   7.847   5.696
  128TIP3   OH2  324   7.235   3.870   3.582
  128TIP3    H1  325   7.171   3.841   3.517
  128TIP3    H2  326   7.291   3.932   3.535
  129TIP3   OH2  327   5.638   7.903   0.545
  129TIP3    H1  328   5.577   7.900   0.618
  129TIP3    H2  329   5.687   7.821   0.552
  130TIP3   OH2  330   3.998   0.797   6.407
  130TIP3    H1  331   4.034   0.842   6.483
  130TIP3    H2  332   3.997   0.705   6.432
  131TIP3   OH2  333   5.488   0.988   4.811
  131TIP3    H1  334   5.438   0.941   4.744
  131TIP3    H2  335   5.576   0.992   4.775
  132TIP3   OH2  336   0.427   0.511   6.685
  132TIP3    H1  337   0.498   0.496   6.622
  132TIP3    H2  338   0.393   0.597   6.662
  133TIP3   OH2  339   6.050   0.439   3.159
  133TIP3    H1  340   6.034   0.521   3.112
  133TIP3    H2  341   6.145   0.433   3.166
  134TIP3   OH2  342   8.046   4.642   0.665
  134TIP3    H1  343   8.090   4.584   0.728
  134TIP3    H2  344   8.080   4.729   0.686
  135TIP3   OH2  345   7.912   7.655   6.211
  135TIP3    H1  346   7.960   7.680   6.290
  135TIP3    H2  347   7.823   7.686   6.225
  136TIP3   OH2  348   7.965   2.250   1.273
  136TIP3    H1  349   7.948   2.240   1.179
  136TIP3    H2  350   8.035   2.315   1.278
  137TIP3   OH2  351   5.514   4.488   3.656
  137TIP3    H1  352   5.567   4.565   3.634
  137TIP3    H2  353   5.425   4.521   3.662
  138TIP3   OH2  354   6.240   6.356   1.285
  138TIP3    H1  355   6.213   6.304   1.209
  138TIP3    H2  356   6.158   6.389   1.322
  139TIP3   OH2  357   4.781   5.087   1.431
  139TIP3    H1  358   4.831   5.145   1.490
  139TIP3    H2  359   4.727   5.034   1.490
  140TIP3   OH2  360   5.484   0.082   1.973
  140TIP3    H1  361   5.578   0.098   1.982
  140TIP3    H2  362   5.444   0.127   2.048
  141TIP3   OH2  363   7.262   7.311   0.121
  141TIP3    H1  364   7.232   7.351   0.202
  141TIP3    H2  365   7.358   7.315   0.126
  142TIP3   OH2  366   0.792   7.724   5.353
  142TIP3    H1  367   0.785   7.706   5.260
  142TIP3    H2  368   0.710   7.768   5.376
  143TIP3   OH2  369   6.895   0.786   5.377
  143TIP3    H1  370   6.946   0.850   5.326
  143TIP3    H2  371   6.955   0.714   5.392
  144TIP3   OH2  372   8.205   0.586   6.654
  144TIP3    H1  373   8.230   0.579   6.562
  144TIP3    H2  374   8.233   0.673   6.681
  145TIP3   OH2  375   3.286   5.761   4.066
  145TIP3    H1  376   3.312   5.671   4.086
  145TIP3    H2  377   3.353   5.793   4.007
  146TIP3   OH2  378   1.875   5.256   2.899
  146TIP3    H1  379   1.899   5.348   2.903
  146TIP3    H2  380   1.893   5.222   2.987
  147TIP3   OH2  381   4.667   2.144   0.338
  147TIP3    H1  382   4.737   2.079   0.330
  147TIP3    H2  383   4.706   2.226   0.307
  148TIP3   OH2  384   6.965   6.796   4.095
  148TIP3    H1  385   6.996   6.711   4.066
  148TIP3    H2  386   6.904   6.777   4.166
  149TIP3   OH2  387   5.366   4.409   1.368
  149TIP3    H1  388   5.331   4.458   1.442
  149TIP3    H2  389   5.304   4.338   1.353
  150TIP3   OH2  390   6.793   4.190   3.891
  150TIP3    H1  391   6.803   4.130   3.965
  150TIP3    H2  392   6.862   4.255   3.903
  151TIP3   OH2  393   3.182   5.142   1.148
  151TIP3    H1  394   3.197   5.104   1.234
  151TIP3    H2  395   3.227   5.226   1.150
  152TIP3   OH2  396   6.901   3.788   2.697
  152TIP3    H1  397   6.840   3.831   2.638
  152TIP3    H2  398   6.982   3.780   2.647
  153TIP3   OH2  399   6.154   3.158   1.064
  153TIP3    H1  400   6.143   3.069   1.097
  153TIP3    H2  401   6.161   3.213   1.142
  154TIP3   OH2  402   6.345   3.597   6.510
  154TIP3    H1  403   6.329   3.512   6.552
  154TIP3    H2  404   6.440   3.610   6.519
  155TIP3   OH2  405   1.662   2.382   5.348
  155TIP3    H1  406   1.730   2.449   5.361
  155TIP3    H2  407   1.588   2.431   5.312
  156TIP3   OH2  408   6.224   6.480   4.589
  156TIP3    H1  409   6.318   6.498   4.577
  156TIP3    H2  410   6.211   6.395   4.546
  157TIP3   OH2  411   8.108   1.191   1.473
  157TIP3    H1  412   8.084   1.262   1.533
  157TIP3    H2  413   8.111   1.113   1.528
  158TIP3   OH2  414   2.420   2.992   1.352
  158TIP3    H1  415   2.466   2.942   1.419
  158TIP3    H2  416   2.347   2.935   1.327
  159TIP3   OH2  417   5.241   7.189   3.955
  159TIP3    H1  418   5.330   7.198   3.988
  159TIP3    H2  419   5.238   7.101   3.918
  160TIP3   OH2  420   1.271   3.430   5.232
  160TIP3    H1  421   1.280   3.342   5.196
  160TIP3    H2  422   1.328   3.431   5.309
  161TIP3   OH2  423   3.943   5.129   3.818
  161TIP3    H1  424   3.879   5.195   3.793
  161TIP3    H2  425   4.020   5.180   3.845
  162TIP3   OH2  426   4.389   1.993   2.665
  162TIP3    H1  427   4.306   2.009   2.709
  162TIP3    H2  428   4.365   1.968   2.576
  163TIP3   OH2  429   3.413   6.434   0.965
  163TIP3    H1  430   3.487   6.475   1.011
  163TIP3    H2  431   3.433   6.444   0.872
  164TIP3   OH2  432   4.770   1.802   6.794
  164TIP3    H1  433   4.750   1.894   6.812
  164TIP3    H2  434   4.748   1.757   6.876
  165TIP3   OH2  435   1.613   2.068   3.887
  165TIP3    H1  436   1.609   2.163   3.886
  165TIP3    H2  437   1.535   2.041   3.837
  166TIP3   OH2  438   4.315   4.959   6.388
  166TIP3    H1  439   4.396   4.915   6.411
  166TIP3    H2  440   4.301   5.022   6.459
  167TIP3   OH2  441   5.576   4.224   4.141
  167TIP3    H1  442   5.565   4.131   4.159
  167TIP3    H2  443   5.496   4.265   4.173
  168TIP3   OH2  444   3.940   3.388   2.100
  168TIP3    H1  445   3.904   3.437   2.027
  168TIP3    H2  446   3.870   3.388   2.165
  169TIP3   OH2  447   1.150   4.913   3.488
  169TIP3    H1  448   1.070   4.965   3.481
  169TIP3    H2  449   1.210   4.968   3.539
  170TIP3   OH2  450   5.144   0.978   4.761
  170TIP3    H1  451   5.149   0.912   4.692
  170TIP3    H2  452   5.138   1.061   4.714
  171TIP3   OH2  453   6.146   5.856   3.991
  171TIP3    H1  454   6.074   5.793   3.993
  171TIP3    H2  455   6.160   5.878   4.083
  172TIP3   OH2  456   5.490   2.643   2.832
  172TIP3    H1  457   5.431   2.568   2.838
  172TIP3    H2  458   5.555   2.618   2.766
  173TIP3   OH2  459   4.673   1.499   4.327
  173TIP3    H1  460   4.672   1.445   4.406
  173TIP3    H2  461   4.719   1.579   4.352
  174TIP3   OH2  462   2.434   3.029   5.886
  174TIP3    H1  463   2.347   3.046   5.848
  174TIP3    H2  464   2.430   3.070   5.972
  175TIP3   OH2  465   7.439   2.324   0.736
  175TIP3    H1  466   7.428   2.383   0.662
  175TIP3    H2  467   7.440   2.237   0.697
  176TIP3   OH2  468   1.518   3.277   0.615
  176TIP3    H1  469   1.553   3.318   0.536
  176TIP3    H2  470   1.440   3.230   0.585
  177TIP3   OH2  471   2.509   0.488   4.928
  177TIP3    H1  472   2.428   0.509   4.882
  177TIP3    H2  473   2.490   0.506   5.020
  178TIP3   OH2  474   4.541   6.712   4.519
  178TIP3    H1  475   4.578   6.796   4.548
  178TIP3    H2  476   4.572   6.702   4.429
  179TIP3   OH2  477   3.075   7.652   1.363
  179TIP3    H1  478   3.087   7.657   1.268
  179TIP3    H2  479   3.134   7.718   1.398
  180TIP3   OH2  480   3.108   6.330   0.091
  180TIP3    H1  481   3.185   6.334   0.034
  180TIP3    H2  482   3.142   6.304   0.176
  181TIP3   OH2  483   8.015   2.263   2.823
  181TIP3    H1  484   8.027   2.252   2.917
  181TIP3    H2  485   7.921   2.276   2.812
  182TIP3   OH2  486   7.304   5.133   5.210
  182TIP3    H1  487   7.249   5.101   5.139
  182TIP3    H2  488   7.362   5.198   5.169
  183TIP3   OH2  489   1.100   6.293   1.717
  183TIP3    H1  490   1.161   6.346   1.666
  183TIP3    H2  491   1.154   6.250   1.782
  184TIP3   OH2  492   2.360   6.312   6.254
  184TIP3    H1  493   2.325   6.365   6.326
  184TIP3    H2  494   2.311   6.340   6.177
  185TIP3   OH2  495   2.285   0.562   4.770
  185TIP3    H1  496   2.228   0.634   4.743
  185TIP3    H2  497   2.225   0.488   4.783
  186TIP3   OH2  498   2.662   3.263   1.563
  186TIP3    H1  499   2.709   3.189   1.600
  186TIP3    H2  500   2.722   3.337   1.572
  187TIP3   OH2  501   4.811   3.780   1.703
  187TIP3    H1  502   4.729   3.824   1.681
  187TIP3    H2  503   4.826   3.718   1.631
  188TIP3   OH2  504   1.361   6.750   0.855
  188TIP3    H1  505   1.338   6.824   0.798
  188TIP3    H2  506   1.399   6.791   0.933
  189TIP3   OH2  507   4.948   4.397   3.617
  189TIP3    H1  508   4.868   4.352   3.591
  189TIP3    H2  509   4.994   4.412   3.534
  190TIP3   OH2  510   2.942   0.948   5.110
  190TIP3    H1  511   2.866   0.905   5.148
  190TIP3    H2  512   3.008   0.879   5.101
  191TIP3   OH2  513   1.194   4.559   4.551
  191TIP3    H1  514   1.281   4.564   4.590
  191TIP3    H2  515   1.208   4.580   4.459
  192TIP3   OH2  516   3.546   2.197   3.647
  192TIP3    H1  517   3.591   2.242   3.719
  192TIP3    H2  518   3.455   2.224   3.657
  193TIP3   OH2  519   6.989   0.106   2.113
  193TIP3    H1  520   7.064   0.111   2.053
  193TIP3    H2  521   6.948   0.192   2.106
  194TIP3   OH2  522   0.148   4.468   2.124
  194TIP3    H1  523   0.114   4.466   2.035
  194TIP3    H2  524   0.142   4.560   2.151
  195TIP3   OH2  525   1.613   4.963   2.699
  195TIP3    H1  526   1.596   5.030   2.765
  195TIP3    H2  527   1.536   4.966   2.641
  196TIP3   OH2  528   5.115   5.861   1.913
  196TIP3    H1  529   5.125   5.829   2.003
  196TIP3    H2  530   5.066   5.792   1.869
  197TIP3   OH2  531   3.770   2.130   2.701
  197TIP3    H1  532   3.799   2.045   2.666
  197TIP3    H2  533   3.781   2.190   2.627
  198TIP3   OH2  534   3.781   2.965   0.806
  198TIP3    H1  535   3.769   3.039   0.865
  198TIP3    H2  536   3.790   3.004   0.719
  199TIP3   OH2  537   2.224   6.102   6.503
  199TIP3    H1  538   2.315   6.130   6.516
  199TIP3    H2  539   2.225   6.057   6.418
  200TIP3   OH2  540   3.385   0.523   3.361
  200TIP3    H1  541   3.398   0.494   3.451
  200TIP3    H2  542   3.292   0.509   3.344
  201TIP3   OH2  543   2.762   7.631   1.100
  201TIP3    H1  544   2.748   7.635   1.005
  201TIP3    H2  545   2.697   7.692   1.136
  202TIP3   OH2  546   6.545   7.655   5.782
  202TIP3    H1  547   6.641   7.659   5.774
  202TIP3    H2  548   6.526   7.563   5.799
  203TIP3   OH2  549   4.308   5.885   3.544
  203TIP3    H1  550   4.244   5.843   3.602
  203TIP3    H2  551   4.349   5.812   3.497
  204TIP3   OH2  552   1.931   2.220   4.579
  204TIP3    H1  553   1.950   2.195   4.669
  204TIP3    H2  554   1.888   2.144   4.541
  205TIP3   OH2  555   7.976   4.529   5.941
  205TIP3    H1  556   7.896   4.491   5.903
  205TIP3    H2  557   8.007   4.462   6.003
  206TIP3   OH2  558   8.417   1.212   3.105
  206TIP3    H1  559   8.418   1.281   3.171
  206TIP3    H2  560   8.333   1.167   3.119
  207TIP3   OH2  561   5.107   1.519   4.037
  207TIP3    H1  562   5.128   1.598   4.088
  207TIP3    H2  563   5.021   1.492   4.068
  208TIP3   OH2  564   8.196   1.137   0.040
  208TIP3    H1  565   8.286   1.103   0.039
  208TIP3    H2  566   8.151   1.085   0.106
  209TIP3   OH2  567   5.691   6.631   6.658
  209TIP3    H1  568   5.695   6.669   6.745
  209TIP3    H2  569   5.664   6.703   6.601
  210TIP3   OH2  570   6.627   1.563   0.894
  210TIP3    H1  571   6.644   1.477   0.931
  210TIP3    H2  572   6.589   1.545   0.808
  211TIP3   OH2  573   5.488   6.371   3.475
  211TIP3    H1  574   5.441   6.382   3.558
  211TIP3    H2  575   5.568   6.422   3.486
  212TIP3   OH2  576   8.319   4.087   3.877
  212TIP3    H1  577   8.266   4.032   3.935
  212TIP3    H2  578   8.274   4.085   3.793
  213TIP3   OH2  579   0.789   4.628   6.604
  213TIP3    H1  580   0.832   4.542   6.603
  213TIP3    H2  581   0.743   4.630   6.687
  214TIP3   OH2  582   1.966   5.724   3.810
  214TIP3    H1  583   1.884   5.710   3.763
  214TIP3    H2  584   2.020   5.648   3.786
  215TIP3   OH2  585   0.394   5.779   4.089
  215TIP3    H1  586   0.467   5.731   4.051
  215TIP3    H2  587   0.332   5.711   4.115
  216TIP3   OH2  588   6.841   0.438   4.180
  216TIP3    H1  589   6.801   0.359   4.143
  216TIP3    H2  590   6.771   0.503   4.179
  217TIP3   OH2  591   4.311   5.110   1.623
  217TIP3    H1  592   4.254   5.171   1.577
  217TIP3    H2  593   4.399   5.147   1.614
  218TIP3   OH2  594   6.122   1.109   0.674
  218TIP3    H1  595   6.189   1.177   0.680
  218TIP3    H2  596   6.082   1.108   0.761
  219TIP3   OH2  597   6.015   3.550   4.400
  219TIP3    H1  598   5.952   3.479   4.408
  219TIP3    H2  599   6.058   3.536   4.315
  220TIP3   OH2  600   7.857   0.507   4.425
  220TIP3    H1  601   7.840   0.521   4.332
  220TIP3    H2  602   7.891   0.592   4.456
  221TIP3   OH2  603   3.550   5.879   6.320
  221TIP3    H1  604   3.573   5.843   6.406
  221TIP3    H2  605   3.477   5.825   6.291
  222TIP3   OH2  606   6.724   5.446   3.585
  222TIP3    H1  607   6.795   5.387   3.561
  222TIP3    H2  608   6.677   5.462   3.503
  223TIP3   OH2  609   6.656   5.393   0.486
  223TIP3    H1  610   6.594   5.330   0.524
  223TIP3    H2  611   6.652   5.469   0.544
  224TIP3   OH2  612   6.940   4.996   0.477
  224TIP3    H1  613   6.918   4.961   0.391
  224TIP3    H2  614   7.013   5.057   0.461
  225TIP3   OH2  615   1.493   7.859   6.820
  225TIP3    H1  616   1.424   7.924   6.835
  225TIP3    H2  617   1.457   7.777   6.855
  226TIP3   OH2  618   2.470   7.406   3.758
  226TIP3    H1  619   2.539   7.403   3.692
  226TIP3    H2  620   2.425   7.488   3.742
  227TIP3   OH2  621   4.994   6.756   1.352
  227TIP3    H1  622   4.942   6.819   1.302
  227TIP3    H2  623   4.929   6.698   1.393
  228TIP3   OH2  624   0.693   7.391   2.439
  228TIP3    H1  625   0.724   7.478   2.416
  228TIP3    H2  626   0.621   7.406   2.500
  229TIP3   OH2  627   2.508   4.505   0.186
  229TIP3    H1  628   2.514   4.559   0.108
  229TIP3    H2  629   2.598   4.495   0.216
  230TIP3   OH2  630   4.001   3.791   0.828
  230TIP3    H1  631   4.002   3.863   0.891
  230TIP3    H2  632   4.079   3.805   0.774
  231TIP3   OH2  633   0.273   2.595   4.227
  231TIP3    H1  634   0.266   2.511   4.182
  231TIP3    H2  635   0.344   2.583   4.290
  232TIP3   OH2  636   0.375   5.996   5.841
  232TIP3    H1  637   0.303   6.044   5.800
  232TIP3    H2  638   0.332   5.937   5.903
  233TIP3   OH2  639   6.129   7.124   1.098
  233TIP3    H1  640   6.164   7.199   1.146
  233TIP3    H2  641   6.109   7.059   1.165
  234TIP3   OH2  642   7.309   7.731   4.944
  234TIP3    H1  643   7.271   7.777   5.019
  234TIP3    H2  644   7.403   7.747   4.952
  235TIP3   OH2  645   7.253   0.386   2.814
  235TIP3    H1  646   7.281   0.340   2.893
  235TIP3    H2  647   7.283   0.476   2.828
  236TIP3   OH2  648   5.198   2.208   2.264
  236TIP3    H1  649   5.255   2.266   2.314
  236TIP3    H2  650   5.173   2.139   2.326
  237TIP3   OH2  651   3.778   2.234   4.749
  237TIP3    H1  652   3.872   2.218   4.757
  237TIP3    H2  653   3.738   2.174   4.811
  238TIP3   OH2  654   2.613   7.578   1.424
  238TIP3    H1  655   2.547   7.516   1.392
  238TIP3    H2  656   2.588   7.594   1.515
  239TIP3   OH2  657   5.107   0.079   5.229
  239TIP3    H1  658   5.054  -0.001   5.225
  239TIP3    H2  659   5.043   0.148   5.251
  240TIP3   OH2  660   4.544   1.762   6.540
  240TIP3    H1  661   4.469   1.820   6.545
  240TIP3    H2  662   4.536   1.704   6.617
  241TIP3   OH2  663   1.779   6.925   1.622
  241TIP3    H1  664   1.810   6.969   1.701
  241TIP3    H2  665   1.847   6.861   1.602
  242TIP3   OH2  666   6.494   4.627   0.865
  242TIP3    H1  667   6.488   4.532   0.866
  242TIP3    H2  668   6.492   4.651   0.773
  243TIP3   OH2  669   8.138   3.570   4.560
  243TIP3    H1  670   8.208   3.629   4.585
  243TIP3    H2  671   8.180   3.504   4.504
  244TIP3   OH2  672   3.671   1.327   5.225
  244TIP3    H1  673   3.633   1.397   5.173
  244TIP3    H2  674   3.721   1.372   5.294
  245TIP3   OH2  675   0.245   2.106   5.766
  245TIP3    H1  676   0.243   2.059   5.683
  245TIP3    H2  677   0.205   2.046   5.829
  246TIP3   OH2  678   3.904   0.607   5.720
  246TIP3    H1  679   3.866   0.681   5.672
  246TIP3    H2  680   3.978   0.646   5.767
  247TIP3   OH2  681   5.906   3.974   0.306
  247TIP3    H1  682   5.892   4.059   0.348
  247TIP3    H2  683   5.959   3.993   0.229
  248TIP3   OH2  684   2.130   5.255   2.380
  248TIP3    H1  685   2.115   5.167   2.346
  248TIP3    H2  686   2.049   5.302   2.363
  249TIP3   OH2  687   6.448   0.051   3.698
  249TIP3    H1  688   6.511   0.012   3.758
  249TIP3    H2  689   6.459   0.146   3.709
  250TIP3   OH2  690   7.149   6.569   5.560
  250TIP3    H1  691   7.174   6.553   5.651
  250TIP3    H2  692   7.175   6.490   5.513
  251TIP3   OH2  693   4.350   3.613   4.785
  251TIP3    H1  694   4.384   3.613   4.695
  251TIP3    H2  695   4.343   3.706   4.808
  252TIP3   OH2  696   5.105   5.955   4.921
  252TIP3    H1  697   5.110   5.931   5.013
  252TIP3    H2  698   5.043   5.892   4.883
  253TIP3   OH2  699   4.567   0.450   0.785
  253TIP3    H1  700   4.622   0.429   0.861
  253TIP3    H2  701   4.568   0.546   0.780
  254TIP3   OH2  702   8.209   6.437   5.109
  254TIP3    H1  703   8.254   6.422   5.026
  254TIP3    H2  704   8.121   6.465   5.084
  255TIP3   OH2  705   3.816   2.050   3.161
  255TIP3    H1  706   3.735   2.097   3.178
  255TIP3    H2  707   3.794   1.988   3.091
  256TIP3   OH2  708   3.096   6.791   5.368
  256TIP3    H1  709   3.059   6.859   5.423
  256TIP3    H2  710   3.163   6.749   5.422
  257TIP3   OH2  711   8.110   1.480   4.383
  257TIP3    H1  712   8.092   1.396   4.341
  257TIP3    H2  713   8.125   1.540   4.310
  258TIP3   OH2  714   6.878   3.657   4.646
  258TIP3    H1  715   6.805   3.631   4.702
  258TIP3    H2  716   6.870   3.600   4.569
  259TIP3   OH2  717   5.991   4.397   5.030
  259TIP3    H1  718   5.990   4.322   4.970
  259TIP3    H2  719   5.908   4.442   5.014
  260TIP3   OH2  720   5.563   7.720   4.106
  260TIP3    H1  721   5.612   7.777   4.165
  260TIP3    H2  722   5.587   7.750   4.018
  261TIP3   OH2  723   4.307   0.616   5.575
  261TIP3    H1  724   4.367   0.620   5.650
  261TIP3    H2  725   4.224   0.650   5.609
  262TIP3   OH2  726   7.072   0.791   4.963
  262TIP3    H1  727   7.098   0.817   4.874
  262TIP3    H2  728   6.977   0.783   4.958
  263TIP3   OH2  729   5.140   5.328   3.364
  263TIP3    H1  730   5.087   5.323   3.444
  263TIP3    H2  731   5.198   5.252   3.368
  264TIP3   OH2  732   5.646   7.510   6.272
  264TIP3    H1  733   5.703   7.433   6.272
  264TIP3    H2  734   5.618   7.519   6.181
  265TIP3   OH2  735   0.947   3.883   1.881
  265TIP3    H1  736   0.910   3.958   1.836
  265TIP3    H2  737   0.939   3.811   1.818
  266TIP3   OH2  738   4.348   5.158   6.603
  266TIP3    H1  739   4.327   5.232   6.660
  266TIP3    H2  740   4.439   5.172   6.579
  267TIP3   OH2  741   2.215   1.343   4.750
  267TIP3    H1  742   2.131   1.330   4.794
  267TIP3    H2  743   2.280   1.339   4.820
  268TIP3   OH2  744   2.071   7.473   5.217
  268TIP3    H1  745   2.163   7.502   5.221
  268TIP3    H2  746   2.056   7.454   5.125
  269TIP3   OH2  747   3.158   4.562   5.661
  269TIP3    H1  748   3.197   4.647   5.639
  269TIP3    H2  749   3.079   4.584   5.710
  270TIP3   OH2  750   1.091   7.063   5.087
  270TIP3    H1  751   1.150   7.129   5.121
  270TIP3    H2  752   1.102   7.067   4.992
  271TIP3   OH2  753   4.421   0.052   4.215
  271TIP3    H1  754   4.388   0.003   4.291
  271TIP3    H2  755   4.342   0.074   4.165
  272TIP3   OH2  756   3.296   4.233   0.316
  272TIP3    H1  757   3.278   4.234   0.222
  272TIP3    H2  758   3.377   4.183   0.324
  273TIP3   OH2  759   7.480   0.019   1.723
  273TIP3    H1  760   7.535   0.086   1.683
  273TIP3    H2  761   7.396   0.028   1.678
  274TIP3   OH2  762   1.859   0.858   2.125
  274TIP3    H1  763   1.825   0.946   2.141
  274TIP3    H2  764   1.953   0.865   2.143
  275TIP3   OH2  765   0.850   7.289   3.313
  275TIP3    H1  766   0.832   7.214   3.370
  275TIP3    H2  767   0.936   7.320   3.342
  276TIP3   OH2  768   5.497   0.746   2.084
  276TIP3    H1  769   5.579   0.738   2.035
  276TIP3    H2  770   5.436   0.687   2.039
  277TIP3   OH2  771   1.427   7.407   3.416
  277TIP3    H1  772   1.482   7.466   3.365
  277TIP3    H2  773   1.355   7.463   3.446
  278TIP3   OH2  774   6.897   4.745   5.531
  278TIP3    H1  775   6.987   4.713   5.523
  278TIP3    H2  776   6.883   4.754   5.626
  279TIP3   OH2  777   2.836   6.435   5.847
  279TIP3    H1  778   2.838   6.340   5.855
  279TIP3    H2  779   2.821   6.451   5.754
  280TIP3   OH2  780   5.377   3.298   4.451
  280TIP3    H1  781   5.455   3.260   4.411
  280TIP3    H2  782   5.361   3.377   4.400
  281TIP3   OH2  783   0.537   2.728   2.343
  281TIP3    H1  784   0.496   2.647   2.313
  281TIP3    H2  785   0.630   2.705   2.354
  282TIP3   OH2  786   5.309   3.254   5.397
  282TIP3    H1  787   5.271   3.294   5.319
  282TIP3    H2  788   5.253   3.281   5.469
  283TIP3   OH2  789   6.634   5.338   5.858
  283TIP3    H1  790   6.639   5.253   5.902
  283TIP3    H2  791   6.718   5.379   5.876
  284TIP3   OH2  792   7.105   7.594   3.245
  284TIP3    H1  793   7.067   7.584   3.332
  284TIP3    H2  794   7.179   7.654   3.257
  285TIP3   OH2  795   7.734   5.506   4.332
  285TIP3    H1  796   7.712   5.500   4.239
  285TIP3    H2  797   7.796   5.434   4.346
  286TIP3   OH2  798   2.296   5.144   5.788
  286TIP3    H1  799   2.352   5.163   5.713
  286TIP3    H2  800   2.279   5.229   5.828
  287TIP3   OH2  801   0.716   7.615   6.045
  287TIP3    H1  802   0.808   7.642   6.042
  287TIP3    H2  803   0.680   7.644   5.962
  288TIP3   OH2  804   7.563   4.703   5.076
  288TIP3    H1  805   7.549   4.687   5.169
  288TIP3    H2  806   7.512   4.782   5.057
  289TIP3   OH2  807   3.520   1.261   4.441
  289TIP3    H1  808   3.589   1.322   4.467
  289TIP3    H2  809   3.497   1.215   4.521
  290TIP3   OH2  810   4.323   3.567   2.203
  290TIP3    H1  811   4.385   3.633   2.172
  290TIP3    H2  812   4.350   3.548   2.293
  291TIP3   OH2  813   6.528   3.183   2.537
  291TIP3    H1  814   6.602   3.170   2.477
  291TIP3    H2  815   6.568   3.221   2.616
  292TIP3   OH2  816   4.723   4.913   0.580
  292TIP3    H1  817   4.782   4.849   0.621
  292TIP3    H2  818   4.764   4.998   0.595
  293TIP3   OH2  819   6.487   2.334   1.437
  293TIP3    H1  820   6.406   2.291   1.463
  293TIP3    H2  821   6.468   2.371   1.351
  294TIP3   OH2  822   6.764   0.063   5.107
  294TIP3    H1  823   6.672   0.089   5.114
  294TIP3    H2  824   6.790   0.045   5.197
  295TIP3   OH2  825   3.349   4.764   3.054
  295TIP3    H1  826   3.332   4.700   2.984
  295TIP3    H2  827   3.444   4.767   3.061
  296TIP3   OH2  828   7.771   0.266   4.515
  296TIP3    H1  829   7.796   0.234   4.428
  296TIP3    H2  830   7.776   0.361   4.507
  297TIP3   OH2  831   2.064   3.271   3.451
  297TIP3    H1  832   1.990   3.264   3.391
  297TIP3    H2  833   2.083   3.365   3.456
  298TIP3   OH2  834   8.316   7.428   0.776
  298TIP3    H1  835   8.267   7.482   0.714
  298TIP3    H2  836   8.406   7.461   0.770
  299TIP3   OH2  837   5.646   0.153   3.384
  299TIP3    H1  838   5.580   0.084   3.385
  299TIP3    H2  839   5.597   0.234   3.397
  300TIP3   OH2  840   2.309   6.212   1.212
  300TIP3    H1  841   2.214   6.220   1.215
  300TIP3    H2  842   2.341   6.302   1.215
  301TIP3   OH2  843   5.289   3.595   4.582
  301TIP3    H1  844   5.284   3.556   4.495
  301TIP3    H2  845   5.206   3.571   4.624
  302TIP3   OH2  846   2.751   7.265   6.101
  302TIP3    H1  847   2.721   7.226   6.183
  302TIP3    H2  848   2.845   7.274   6.111
  303TIP3   OH2  849   3.272   6.991   5.965
  303TIP3    H1  850   3.248   7.009   5.874
  303TIP3    H2  851   3.189   6.983   6.011
  304TIP3   OH2  852   2.703   5.863   3.305
  304TIP3    H1  853   2.707   5.771   3.277
  304TIP3    H2  854   2.620   5.870   3.352
  305TIP3   OH2  855   7.463   0.200   4.501
  305TIP3    H1  856   7.437   0.287   4.533
  305TIP3    H2  857   7.557   0.208   4.484
  306TIP3   OH2  858   7.101   7.122   0.444
  306TIP3    H1  859   7.046   7.199   0.427
  306TIP3    H2  860   7.147   7.144   0.525
  307TIP3   OH2  861   2.161   4.959   3.920
  307TIP3    H1  862   2.127   5.011   3.992
  307TIP3    H2  863   2.146   4.868   3.946
  308TIP3   OH2  864   4.299   1.403   0.301
  308TIP3    H1  865   4.289   1.478   0.242
  308TIP3    H2  866   4.375   1.426   0.355
  309TIP3   OH2  867   4.649   2.929   1.114
  309TIP3    H1  868   4.646   2.911   1.208
  309TIP3    H2  869   4.559   2.917   1.084
  310TIP3   OH2  870   5.314   7.078   3.231
  310TIP3    H1  871   5.297   7.150   3.292
  310TIP3    H2  872   5.254   7.009   3.257
  311TIP3   OH2  873   1.949   5.591   5.803
  311TIP3    H1  874   1.931   5.657   5.870
  311TIP3    H2  875   1.954   5.640   5.721
  312TIP3   OH2  876   5.324   0.348   1.949
  312TIP3    H1  877   5.373   0.355   2.031
  312TIP3    H2  878   5.256   0.283   1.967
  313TIP3   OH2  879   7.309   2.964   2.466
  313TIP3    H1  880   7.326   2.916   2.547
  313TIP3    H2  881   7.319   3.056   2.490
  314TIP3   OH2  882   5.753   1.926   5.882
  314TIP3    H1  883   5.744   1.853   5.820
  314TIP3    H2  884   5.704   1.897   5.960
  315TIP3   OH2  885   5.043   5.046   6.091
  315TIP3    H1  886   5.051   4.951   6.100
  315TIP3    H2  887   5.128   5.074   6.057
  316TIP3   OH2  888   4.291   6.352   2.682
  316TIP3    H1  889   4.216   6.343   2.740
  316TIP3    H2  890   4.291   6.443   2.655
  317TIP3   OH2  891   3.282   2.322   1.409
  317TIP3    H1  892   3.286   2.269   1.329
  317TIP3    H2  893   3.245   2.406   1.381
  318TIP3   OH2  894   8.372   3.216   5.857
  318TIP3    H1  895   8.386   3.124   5.882
  318TIP3    H2  896   8.312   3.250   5.923
  319TIP3   OH2  897   1.581   5.540   1.199
  319TIP3    H1  898   1.610   5.516   1.111
  319TIP3    H2  899   1.613   5.468   1.254
  320TIP3   OH2  900   4.431   4.256   0.199
  320TIP3    H1  901   4.462   4.343   0.173
  320TIP3    H2  902   4.336   4.262   0.195
  321TIP3   OH2  903   6.368   7.002   5.912
  321TIP3    H1  904   6.314   6.954   5.974
  321TIP3    H2  905   6.451   7.016   5.958
  322TIP3   OH2  906   5.548   4.668   1.075
  322TIP3    H1  907   5.542   4.675   1.170
  322TIP3    H2  908   5.473   4.614   1.050
  323TIP3   OH2  909   4.822   2.812   6.699
  323TIP3    H1  910   4.826   2.880   6.766
  323TIP3    H2  911   4.761   2.747   6.734
  324TIP3   OH2  912   1.790   1.865   2.436
  324TIP3    H1  913   1.826   1.948   2.405
  324TIP3    H2  914   1.814   1.802   2.368
  325TIP3   OH2  915   1.921   4.527   0.471
  325TIP3    H1  916   1.923   4.440   0.432
  325TIP3    H2  917   1.878   4.582   0.406
  326TIP3   OH2  918   7.015   7.564   6.516
  326TIP3    H1  919   7.050   7.632   6.458
  326TIP3    H2  920   7.078   7.559   6.588
  327TIP3   OH2  921   3.594   7.060   2.262
  327TIP3    H1  922   3.530   7.031   2.327
  327TIP3    H2  923   3.542   7.085   2.186
  328TIP3   OH2  924   0.790   0.259   1.628
  328TIP3    H1  925   0.787   0.177   1.676
  328TIP3    H2  926   0.702   0.268   1.591
  329TIP3   OH2  927   3.977   6.033   4.059
  329TIP3    H1  928   4.004   6.125   4.058
  329TIP3    H2  929   3.897   6.032   4.112
  330TIP3   OH2  930   7.467   6.174   5.688
  330TIP3    H1  931   7.382   6.149   5.654
  330TIP3    H2  932   7.451   6.200   5.779
  331TIP3   OH2  933   4.000   0.685   3.151
  331TIP3    H1  934   4.078   0.701   3.205
  331TIP3    H2  935   3.927   0.693   3.211
  332TIP3   OH2  936   4.870   1.463   6.078
  332TIP3    H1  937   4.788   1.460   6.029
  332TIP3    H2  938   4.918   1.385   6.050
  333TIP3   OH2  939   3.700   7.474   1.479
  333TIP3    H1  940   3.628   7.440   1.426
  333TIP3    H2  941   3.728   7.553   1.434
  334TIP3   OH2  942   8.008   5.457   2.127
  334TIP3    H1  943   7.984   5.366   2.111
  334TIP3    H2  944   8.099   5.452   2.158
  335TIP3   OH2  945   7.368   1.774   6.269
  335TIP3    H1  946   7.437   1.725   6.226
  335TIP3    H2  947   7.288   1.750   6.222
  336TIP3   OH2  948   6.059   2.924   2.648
  336TIP3    H1  949   5.972   2.900   2.617
  336TIP3    H2  950   6.113   2.927   2.569
  337TIP3   OH2  951   8.070   1.915   4.271
  337TIP3    H1  952   8.084   1.824   4.295
  337TIP3    H2  953   8.155   1.944   4.237
  338TIP3   OH2  954   5.693   1.420   2.237
  338TIP3    H1  955   5.774   1.415   2.186
  338TIP3    H2  956   5.723   1.419   2.328
  339TIP3   OH2  957   4.242   4.964   5.227
  339TIP3    H1  958   4.284   5.050   5.237
  339TIP3    H2  959   4.295   4.920   5.161
  340TIP3   OH2  960   7.068   5.240   5.768
  340TIP3    H1  961   6.975   5.231   5.745
  340TIP3    H2  962   7.113   5.241   5.683
  341TIP3   OH2  963   5.880   7.654   1.918
  341TIP3    H1  964   5.811   7.713   1.886
  341TIP3    H2  965   5.936   7.639   1.842
  342TIP3   OH2  966   5.630   5.729   1.233
  342TIP3    H1  967   5.705   5.771   1.275
  342TIP3    H2  968   5.655   5.721   1.141
  343TIP3   OH2  969   3.441   1.952   6.433
  343TIP3    H1  970   3.384   1.881   6.402
  343TIP3    H2  971   3.381   2.016   6.472
  344TIP3   OH2  972   1.492   4.650   1.648
  344TIP3    H1  973   1.519   4.649   1.556
  344TIP3    H2  974   1.412   4.704   1.649
  345TIP3   OH2  975   7.280   6.248   4.312
  345TIP3    H1  976   7.230   6.282   4.239
  345TIP3    H2  977   7.368   6.284   4.300
  346TIP3   OH2  978   6.181   4.756   5.834
  346TIP3    H1  979   6.202   4.850   5.840
  346TIP3    H2  980   6.149   4.734   5.922
  347TIP3   OH2  981   5.046   5.015   0.074
  347TIP3    H1  982   5.040   4.970   0.158
  347TIP3    H2  983   5.112   5.083   0.088
  348TIP3   OH2  984   3.662   2.207   0.178
  348TIP3    H1  985   3.605   2.202   0.101
  348TIP3    H2  986   3.603   2.217   0.252
  349TIP3   OH2  987   7.813   3.346   6.545
  349TIP3    H1  988   7.822   3.426   6.596
  349TIP3    H2  989   7.719   3.338   6.528
  350TIP3   OH2  990   1.539   3.706   3.738
  350TIP3    H1  991   1.471   3.647   3.707
  350TIP3    H2  992   1.558   3.763   3.663
  351TIP3   OH2  993   7.536   5.901   0.604
  351TIP3    H1  994   7.506   5.824   0.651
  351TIP3    H2  995   7.457   5.940   0.568
  352TIP3   OH2  996   4.074   6.063   3.637
  352TIP3    H1  997   3.985   6.037   3.612
  352TIP3    H2  998   4.078   6.156   3.616
  353TIP3   OH2  999   6.489   6.933   2.790
  353TIP3    H1 1000   6.555   6.864   2.786
  353TIP3    H2 1001   6.445   6.919   2.873
  354TIP3   OH2 1002   6.286   0.921   5.307
  354TIP3    H1 1003   6.337   0.998   5.282
  354TIP3    H2 1004   6.204   0.957   5.340
  355TIP3   OH2 1005   2.612   2.182   5.924
  355TIP3    H1 1006   2.538   2.215   5.974
  355TIP3    H2 1007   2.644   2.107   5.974
  356TIP3   OH2 1008   2.943   2.373   1.183
  356TIP3    H1 1009   2.890   2.441   1.141
  356TIP3    H2 1010   2.914   2.374   1.274
  357TIP3   OH2 1011   0.909   0.586   6.354
  357TIP3    H1 1012   0.909   0.508   6.410
  357TIP3    H2 1013   0.892   0.553   6.266
  358TIP3   OH2 1014   0.900   5.625   0.738
  358TIP3    H1 1015   0.833   5.648   0.675
  358TIP3    H2 1016   0.963   5.697   0.735
  359TIP3   OH2 1017   5.744   2.124   0.257
  359TIP3    H1 1018   5.774   2.118   0.348
  359TIP3    H2 1019   5.656   2.086   0.258
  360TIP3   OH2 1020   3.148   1.283   4.960
  360TIP3    H1 1021   3.162   1.284   5.055
  360TIP3    H2 1022   3.063   1.239   4.949
  361TIP3   OH2 1023   0.533   7.899   5.263
  361TIP3    H1 1024   0.587   7.889   5.184
  361TIP3    H2 1025   0.498   7.811   5.279
  362TIP3   OH2 1026   4.775   6.822   1.174
  362TIP3    H1 1027   4.692   6.782   1.198
  362TIP3    H2 1028   4.752   6.911   1.147
  363TIP3   OH2 1029   0.248   1.631   2.612
  363TIP3    H1 1030   0.284   1.647   2.700
  363TIP3    H2 1031   0.156   1.612   2.627
  364TIP3   OH2 1032   2.217   3.414   5.702
  364TIP3    H1 1033   2.241   3.468   5.627
  364TIP3    H2 1034   2.280   3.437   5.770
  365TIP3   OH2 1035   1.876   2.404   5.142
  365TIP3    H1 1036   1.791   2.369   5.170
  365TIP3    H2 1037   1.902   2.463   5.213
  366TIP3   OH2 1038   6.138   0.164   2.458
  366TIP3    H1 1039   6.095   0.203   2.534
  366TIP3    H2 1040   6.210   0.224   2.438
  367TIP3   OH2 1041   2.537   4.905   2.671
  367TIP3    H1 1042   2.509   4.887   2.581
  367TIP3    H2 1043   2.625   4.868   2.677
  368TIP3   OH2 1044   1.048   5.833   1.996
  368TIP3    H1 1045   1.080   5.900   2.056
  368TIP3    H2 1046   1.119   5.822   1.932
  369TIP3   OH2 1047   6.925   5.591   3.381
  369TIP3    H1 1048   6.928   5.521   3.446
  369TIP3    H2 1049   6.919   5.547   3.297
  370TIP3   OH2 1050   3.735   4.846   1.006
  370TIP3    H1 1051   3.798   4.884   1.068
  370TIP3    H2 1052   3.652   4.889   1.028
  371TIP3   OH2 1053   5.199   0.470   3.649
  371TIP3    H1 1054   5.212   0.460   3.554
  371TIP3    H2 1055   5.208   0.564   3.664
  372TIP3   OH2 1056   2.450   4.261   4.425
  372TIP3    H1 1057   2.481   4.343   4.464
  372TIP3    H2 1058   2.396   4.221   4.494
  373TIP3   OH2 1059   2.356   2.181  -0.016
  373TIP3    H1 1060   2.303   2.260  -0.007
  373TIP3    H2 1061   2.292   2.113  -0.038
  374TIP3   OH2 1062   2.619   7.295   0.387
  374TIP3    H1 1063   2.634   7.329   0.299
  374TIP3    H2 1064   2.697   7.321   0.436
  375TIP3   OH2 1065   2.457   4.409   2.863
  375TIP3    H1 1066   2.426   4.364   2.942
  375TIP3    H2 1067   2.537   4.362   2.839
  376TIP3   OH2 1068   4.090   5.962   0.990
  376TIP3    H1 1069   4.147   5.978   1.066
  376TIP3    H2 1070   4.020   6.027   0.999
  377TIP3   OH2 1071   2.300   0.336   0.588
  377TIP3    H1 1072   2.334   0.247   0.583
  377TIP3    H2 1073   2.250   0.338   0.670
  378TIP3   OH2 1074   8.086   7.739   2.882
  378TIP3    H1 1075   8.026   7.678   2.840
  378TIP3    H2 1076   8.030   7.799   2.931
  379TIP3   OH2 1077   2.616   6.753   2.243
  379TIP3    H1 1078   2.648   6.827   2.294
  379TIP3    H2 1079   2.633   6.778   2.152
  380TIP3   OH2 1080   7.800   2.643   6.314
  380TIP3    H1 1081   7.806   2.705   6.387
  380TIP3    H2 1082   7.725   2.673   6.263
  381TIP3   OH2 1083   5.185   5.125   1.718
  381TIP3    H1 1084   5.131   5.157   1.645
  381TIP3    H2 1085   5.127   5.130   1.794
  382TIP3   OH2 1086   0.180   5.077   0.420
  382TIP3    H1 1087   0.158   5.165   0.450
  382TIP3    H2 1088   0.097   5.030   0.420
  383TIP3   OH2 1089   0.456   5.616   3.387
  383TIP3    H1 1090   0.431   5.708   3.394
  383TIP3    H2 1091   0.398   5.570   3.449
  384TIP3   OH2 1092   3.760   4.448   5.482
  384TIP3    H1 1093   3.758   4.387   5.556
  384TIP3    H2 1094   3.809   4.402   5.414
  385TIP3   OH2 1095   6.117   2.732   1.685
  385TIP3    H1 1096   6.136   2.817   1.726
  385TIP3    H2 1097   6.200   2.684   1.691
  386TIP3   OH2 1098   1.853   3.324   3.280
  386TIP3    H1 1099   1.818   3.408   3.250
  386TIP3    H2 1100   1.913   3.298   3.209
  387TIP3   OH2 1101   4.143   3.866   1.831
  387TIP3    H1 1102   4.083   3.816   1.775
  387TIP3    H2 1103   4.087   3.931   1.874
  388TIP3   OH2 1104   6.466   5.806   0.174
  388TIP3    H1 1105   6.382   5.826   0.214
  388TIP3    H2 1106   6.477   5.712   0.187
  389TIP3   OH2 1107   3.187   5.892   3.259
  389TIP3    H1 1108   3.101   5.924   3.285
  389TIP3    H2 1109   3.241   5.899   3.338
  390TIP3   OH2 1110   8.270   4.586   3.674
  390TIP3    H1 1111   8.223   4.572   3.756
  390TIP3    H2 1112   8.342   4.645   3.697
  391TIP3   OH2 1113   6.917   2.830   0.769
  391TIP3    H1 1114   7.010   2.822   0.789
  391TIP3    H2 1115   6.876   2.759   0.818
  392TIP3   OH2 1116   3.822   6.292   5.574
  392TIP3    H1 1117   3.842   6.319   5.664
  392TIP3    H2 1118   3.727   6.279   5.573
  393TIP3   OH2 1119   3.092   4.586   5.271
  393TIP3    H1 1120   3.105   4.660   5.330
  393TIP3    H2 1121   3.166   4.589   5.211
  394TIP3   OH2 1122   3.633   6.727   4.945
  394TIP3    H1 1123   3.674   6.700   4.864
  394TIP3    H2 1124   3.634   6.823   4.942
  395TIP3   OH2 1125   6.422   1.577   2.450
  395TIP3    H1 1126   6.453   1.571   2.540
  395TIP3    H2 1127   6.502   1.589   2.398
  396TIP3   OH2 1128   5.591   0.541   1.231
  396TIP3    H1 1129   5.531   0.599   1.185
  396TIP3    H2 1130   5.583   0.457   1.186
  397TIP3   OH2 1131   7.027   4.806   0.853
  397TIP3    H1 1132   6.976   4.785   0.775
  397TIP3    H2 1133   7.112   4.832   0.819
  398TIP3   OH2 1134   6.946   6.846   0.387
  398TIP3    H1 1135   7.038   6.862   0.404
  398TIP3    H2 1136   6.900   6.918   0.431
  399TIP3   OH2 1137   3.754   0.746   3.260
  399TIP3    H1 1138   3.737   0.770   3.169
  399TIP3    H2 1139   3.695   0.672   3.277
  400TIP3   OH2 1140   8.187   4.413   1.965
  400TIP3    H1 1141   8.178   4.405   1.870
  400TIP3    H2 1142   8.180   4.324   1.998
  401TIP3   OH2 1143   7.808   4.587   5.129
  401TIP3    H1 1144   7.723   4.619   5.096
  401TIP3    H2 1145   7.817   4.627   5.215
  402TIP3   OH2 1146   4.376   3.287   0.709
  402TIP3    H1 1147   4.417   3.366   0.675
  402TIP3    H2 1148   4.424   3.268   0.790
  403TIP3   OH2 1149   3.005   6.437   5.119
  403TIP3    H1 1150   3.092   6.399   5.120
  403TIP3    H2 1151   3.005   6.495   5.043
  404TIP3   OH2 1152   2.014   6.404   6.037
  404TIP3    H1 1153   1.933   6.427   5.991
  404TIP3    H2 1154   2.018   6.466   6.111
  405TIP3   OH2 1155   2.118   0.404   2.667
  405TIP3    H1 1156   2.086   0.428   2.754
  405TIP3    H2 1157   2.111   0.485   2.615
  406TIP3   OH2 1158   3.510   2.946   1.741
  406TIP3    H1 1159   3.448   2.873   1.740
  406TIP3    H2 1160   3.459   3.021   1.713
  407TIP3   OH2 1161   4.101   1.501   0.994
  407TIP3    H1 1162   4.178   1.444   0.994
  407TIP3    H2 1163   4.027   1.441   1.004
  408TIP3   OH2 1164   6.055   0.883   4.722
  408TIP3    H1 1165   6.116   0.911   4.791
  408TIP3    H2 1166   6.014   0.965   4.693
  409TIP3   OH2 1167   7.709   1.288   0.453
  409TIP3    H1 1168   7.691   1.195   0.467
  409TIP3    H2 1169   7.802   1.298   0.475
  410TIP3   OH2 1170   3.160   7.043   4.509
  410TIP3    H1 1171   3.116   6.958   4.512
  410TIP3    H2 1172   3.220   7.042   4.583
  411TIP3   OH2 1173   6.384   7.172   0.404
  411TIP3    H1 1174   6.405   7.226   0.481
  411TIP3    H2 1175   6.433   7.091   0.417
  412TIP3   OH2 1176   0.919   0.492   1.518
  412TIP3    H1 1177   0.904   0.523   1.607
  412TIP3    H2 1178   0.895   0.399   1.520
  413TIP3   OH2 1179   0.641   0.025   2.690
  413TIP3    H1 1180   0.600   0.035   2.604
  413TIP3    H2 1181   0.710  -0.041   2.676
  414TIP3   OH2 1182   4.108   2.308   0.079
  414TIP3    H1 1183   4.121   2.348  -0.007
  414TIP3    H2 1184   4.084   2.382   0.136
  415TIP3   OH2 1185   2.899   0.052   1.605
  415TIP3    H1 1186   2.857  -0.027   1.570
  415TIP3    H2 1187   2.868   0.123   1.549
  416TIP3   OH2 1188   1.146   1.601   4.236
  416TIP3    H1 1189   1.092   1.530   4.202
  416TIP3    H2 1190   1.106   1.681   4.200
  417TIP3   OH2 1191   4.888   6.053   2.074
  417TIP3    H1 1192   4.983   6.043   2.081
  417TIP3    H2 1193   4.874   6.148   2.068
  418TIP3   OH2 1194   7.804   1.925   1.727
  418TIP3    H1 1195   7.736   1.919   1.795
  418TIP3    H2 1196   7.886   1.936   1.775
  419TIP3   OH2 1197   4.658   4.693   2.368
  419TIP3    H1 1198   4.609   4.675   2.288
  419TIP3    H2 1199   4.734   4.743   2.339
  420TIP3   OH2 1200   1.319   6.800   3.715
  420TIP3    H1 1201   1.243   6.806   3.657
  420TIP3    H2 1202   1.369   6.880   3.698
  421TIP3   OH2 1203   0.874   6.908   0.959
  421TIP3    H1 1204   0.958   6.892   1.002
  421TIP3    H2 1205   0.810   6.864   1.015
  422TIP3   OH2 1206   6.942   5.673   0.150
  422TIP3    H1 1207   6.862   5.681   0.202
  422TIP3    H2 1208   6.991   5.602   0.193
  423TIP3   OH2 1209   2.128   5.700   5.499
  423TIP3    H1 1210   2.187   5.624   5.495
  423TIP3    H2 1211   2.041   5.662   5.492
  424TIP3   OH2 1212   2.682   0.953   0.480
  424TIP3    H1 1213   2.588   0.944   0.499
  424TIP3    H2 1214   2.692   0.920   0.391
  425TIP3   OH2 1215   2.632   6.813   0.024
  425TIP3    H1 1216   2.649   6.902  -0.005
  425TIP3    H2 1217   2.587   6.823   0.108
  426TIP3   OH2 1218   2.170   6.616   6.686
  426TIP3    H1 1219   2.113   6.691   6.669
  426TIP3    H2 1220   2.109   6.545   6.709
  427TIP3   OH2 1221   1.141   3.165   0.326
  427TIP3    H1 1222   1.049   3.161   0.352
  427TIP3    H2 1223   1.151   3.094   0.263
  428TIP3   OH2 1224   7.097   2.195   3.180
  428TIP3    H1 1225   7.017   2.165   3.137
  428TIP3    H2 1226   7.165   2.189   3.113
  429TIP3   OH2 1227   8.132   5.399   5.644
  429TIP3    H1 1228   8.159   5.391   5.736
  429TIP3    H2 1229   8.184   5.472   5.611
  430TIP3   OH2 1230   2.988   5.790   6.066
  430TIP3    H1 1231   2.923   5.845   6.022
  430TIP3    H2 1232   3.053   5.772   5.998
  431TIP3   OH2 1233   7.723   6.251   1.302
  431TIP3    H1 1234   7.817   6.262   1.317
  431TIP3    H2 1235   7.710   6.156   1.299
  432TIP3   OH2 1236   0.758   4.454   2.526
  432TIP3    H1 1237   0.719   4.537   2.498
  432TIP3    H2 1238   0.705   4.428   2.602
  433TIP3   OH2 1239   6.552   7.694   6.607
  433TIP3    H1 1240   6.509   7.764   6.656
  433TIP3    H2 1241   6.514   7.613   6.641
  434TIP3   OH2 1242   2.263   5.012   1.063
  434TIP3    H1 1243   2.175   5.005   1.101
  434TIP3    H2 1244   2.276   5.105   1.048
  435TIP3   OH2 1245   4.117   5.449   1.837
  435TIP3    H1 1246   4.172   5.448   1.758
  435TIP3    H2 1247   4.030   5.425   1.805
  436TIP3   OH2 1248   7.180   7.848   3.621
  436TIP3    H1 1249   7.231   7.903   3.563
  436TIP3    H2 1250   7.239   7.777   3.646
  437TIP3   OH2 1251   3.602   2.756   0.885
  437TIP3    H1 1252   3.648   2.688   0.934
  437TIP3    H2 1253   3.655   2.835   0.899
  438TIP3   OH2 1254   3.588   6.293   0.302
  438TIP3    H1 1255   3.607   6.322   0.213
  438TIP3    H2 1256   3.673   6.299   0.347
  439TIP3   OH2 1257   3.222   7.001   1.688
  439TIP3    H1 1258   3.165   7.045   1.624
  439TIP3    H2 1259   3.307   7.042   1.677
  440TIP3   OH2 1260   5.327   0.037   3.931
  440TIP3    H1 1261   5.231   0.035   3.937
  440TIP3    H2 1262   5.357   0.035   4.021
  441TIP3   OH2 1263   3.705   4.689   0.224
  441TIP3    H1 1264   3.681   4.705   0.133
  441TIP3    H2 1265   3.801   4.688   0.224
  442TIP3   OH2 1266   2.385   4.462   3.505
  442TIP3    H1 1267   2.327   4.450   3.430
  442TIP3    H2 1268   2.441   4.536   3.482
  443TIP3   OH2 1269   3.209   6.512   4.698
  443TIP3    H1 1270   3.176   6.557   4.776
  443TIP3    H2 1271   3.297   6.483   4.723
  444TIP3   OH2 1272   5.094   1.672   2.988
  444TIP3    H1 1273   5.058   1.633   2.909
  444TIP3    H2 1274   5.188   1.679   2.970
  445TIP3   OH2 1275   4.658   0.554   6.274
  445TIP3    H1 1276   4.661   0.468   6.315
  445TIP3    H2 1277   4.654   0.616   6.347
  446TIP3   OH2 1278   4.189   0.794   3.326
  446TIP3    H1 1279   4.155   0.750   3.404
  446TIP3    H2 1280   4.275   0.827   3.353
  447TIP3   OH2 1281   6.143   3.238   1.948
  447TIP3    H1 1282   6.099   3.276   2.023
  447TIP3    H2 1283   6.214   3.298   1.928
  448TIP3   OH2 1284   1.626   3.543   1.379
  448TIP3    H1 1285   1.681   3.465   1.379
  448TIP3    H2 1286   1.578   3.538   1.296
  449TIP3   OH2 1287   3.841   6.671   0.298
  449TIP3    H1 1288   3.747   6.680   0.314
  449TIP3    H2 1289   3.878   6.756   0.320
  450TIP3   OH2 1290   5.155   0.884   3.344
  450TIP3    H1 1291   5.215   0.846   3.279
  450TIP3    H2 1292   5.166   0.828   3.421
  451TIP3   OH2 1293   3.338   3.589   3.375
  451TIP3    H1 1294   3.427   3.625   3.380
  451TIP3    H2 1295   3.328   3.561   3.284
  452TIP3   OH2 1296   7.562   4.550   3.258
  452TIP3    H1 1297   7.531   4.461   3.271
  452TIP3    H2 1298   7.645   4.554   3.306
  453TIP3   OH2 1299   0.331   5.003   6.749
  453TIP3    H1 1300   0.311   4.943   6.677
  453TIP3    H2 1301   0.255   4.999   6.806
  454TIP3   OH2 1302   1.533   2.655   5.432
  454TIP3    H1 1303   1.470   2.584   5.450
  454TIP3    H2 1304   1.479   2.726   5.398
  455TIP3   OH2 1305   0.352   1.460   3.556
  455TIP3    H1 1306   0.445   1.478   3.541
  455TIP3    H2 1307   0.351   1.388   3.619
  456TIP3   OH2 1308   2.118   1.617   6.207
  456TIP3    H1 1309   2.186   1.605   6.273
  456TIP3    H2 1310   2.111   1.712   6.197
  457TIP3   OH2 1311   0.656   3.529   1.684
  457TIP3    H1 1312   0.600   3.456   1.707
  457TIP3    H2 1313   0.634   3.598   1.748
  458TIP3   OH2 1314   8.331   0.575   3.441
  458TIP3    H1 1315   8.329   0.608   3.351
  458TIP3    H2 1316   8.403   0.621   3.483
  459TIP3   OH2 1317   5.556   4.210   4.717
  459TIP3    H1 1318   5.559   4.186   4.624
  459TIP3    H2 1319   5.477   4.263   4.726
  460TIP3   OH2 1320   8.355   3.672   4.639
  460TIP3    H1 1321   8.405   3.605   4.684
  460TIP3    H2 1322   8.400   3.754   4.661
  461TIP3   OH2 1323   5.444   0.721   1.078
  461TIP3    H1 1324   5.372   0.684   1.027
  461TIP3    H2 1325   5.488   0.781   1.018
  462TIP3   OH2 1326   6.436   3.906   1.968
  462TIP3    H1 1327   6.460   3.999   1.963
  462TIP3    H2 1328   6.390   3.889   1.886
  463TIP3   OH2 1329   1.767   1.087   2.826
  463TIP3    H1 1330   1.704   1.106   2.756
  463TIP3    H2 1331   1.796   0.998   2.808
  464TIP3   OH2 1332   0.819   4.081   6.664
  464TIP3    H1 1333   0.818   4.023   6.740
  464TIP3    H2 1334   0.736   4.128   6.669
  465TIP3   OH2 1335   0.079   1.074   2.515
  465TIP3    H1 1336   0.115   1.162   2.513
  465TIP3    H2 1337   0.035   1.067   2.600
  466TIP3   OH2 1338   5.157   1.855   2.361
  466TIP3    H1 1339   5.115   1.907   2.292
  466TIP3    H2 1340   5.232   1.814   2.319
  467TIP3   OH2 1341   0.365   0.275   0.460
  467TIP3    H1 1342   0.387   0.188   0.428
  467TIP3    H2 1343   0.284   0.263   0.510
  468TIP3   OH2 1344   6.930   3.049   1.413
  468TIP3    H1 1345   7.014   3.010   1.390
  468TIP3    H2 1346   6.913   3.019   1.502
  469TIP3   OH2 1347   3.372   4.496   3.167
  469TIP3    H1 1348   3.421   4.486   3.085
  469TIP3    H2 1349   3.311   4.567   3.151
  470TIP3   OH2 1350   6.009   0.804   6.655
  470TIP3    H1 1351   5.999   0.741   6.583
  470TIP3    H2 1352   6.067   0.872   6.620
  471TIP3   OH2 1353   6.766   5.045   1.297
  471TIP3    H1 1354   6.694   5.029   1.236
  471TIP3    H2 1355   6.808   5.124   1.264
  472TIP3   OH2 1356   1.620   0.273   2.350
  472TIP3    H1 1357   1.685   0.297   2.416
  472TIP3    H2 1358   1.587   0.356   2.316
  473TIP3   OH2 1359   5.576   4.334   2.607
  473TIP3    H1 1360   5.488   4.297   2.597
  473TIP3    H2 1361   5.603   4.354   2.518
  474TIP3   OH2 1362   5.853   0.375   0.775
  474TIP3    H1 1363   5.909   0.330   0.838
  474TIP3    H2 1364   5.905   0.376   0.694
  475TIP3   OH2 1365   4.572   0.801   5.423
  475TIP3    H1 1366   4.636   0.788   5.352
  475TIP3    H2 1367   4.511   0.728   5.414
  476TIP3   OH2 1368   7.779   0.188   5.044
  476TIP3    H1 1369   7.839   0.245   4.995
  476TIP3    H2 1370   7.750   0.242   5.118
  477TIP3   OH2 1371   7.409   7.314   4.809
  477TIP3    H1 1372   7.346   7.384   4.788
  477TIP3    H2 1373   7.358   7.251   4.859
  478TIP3   OH2 1374   5.901   0.969   4.364
  478TIP3    H1 1375   5.955   1.014   4.429
  478TIP3    H2 1376   5.846   1.039   4.327
  479TIP3   OH2 1377   5.596   7.594   1.714
  479TIP3    H1 1378   5.659   7.638   1.657
  479TIP3    H2 1379   5.618   7.624   1.802
  480TIP3   OH2 1380   0.712   5.795   2.565
  480TIP3    H1 1381   0.683   5.838   2.645
  480TIP3    H2 1382   0.724   5.866   2.502
  481TIP3   OH2 1383   7.627   6.051   5.998
  481TIP3    H1 1384   7.625   5.987   6.069
  481TIP3    H2 1385   7.637   5.998   5.919
  482TIP3   OH2 1386   4.836   6.784   6.003
  482TIP3    H1 1387   4.912   6.786   5.946
  482TIP3    H2 1388   4.808   6.876   6.008
  483TIP3   OH2 1389   5.853   1.602   5.484
  483TIP3    H1 1390   5.911   1.671   5.452
  483TIP3    H2 1391   5.862   1.531   5.421
  484TIP3   OH2 1392   4.946   7.339   3.454
  484TIP3    H1 1393   5.003   7.276   3.498
  484TIP3    H2 1394   4.860   7.298   3.454
  485TIP3   OH2 1395   0.200   7.359   1.677
  485TIP3    H1 1396   0.253   7.284   1.703
  485TIP3    H2 1397   0.112   7.339   1.708
  486TIP3   OH2 1398   2.592   6.603   1.815
  486TIP3    H1 1399   2.626   6.652   1.741
  486TIP3    H2 1400   2.638   6.640   1.891
  487TIP3   OH2 1401   6.356   7.901   1.766
  487TIP3    H1 1402   6.270   7.871   1.736
  487TIP3    H2 1403   6.373   7.851   1.846
  488TIP3   OH2 1404   2.209   5.609   2.656
  488TIP3    H1 1405   2.151   5.666   2.605
  488TIP3    H2 1406   2.265   5.670   2.705
  489TIP3   OH2 1407   5.605   3.116   0.501
  489TIP3    H1 1408   5.584   3.027   0.530
  489TIP3    H2 1409   5.700   3.120   0.499
  490TIP3   OH2 1410   1.268   2.711   5.612
  490TIP3    H1 1411   1.262   2.616   5.618
  490TIP3    H2 1412   1.262   2.741   5.703
  491TIP3   OH2 1413   8.241   2.082   0.460
  491TIP3    H1 1414   8.289   2.001   0.476
  491TIP3    H2 1415   8.216   2.113   0.546
  492TIP3   OH2 1416   4.114   2.521   3.822
  492TIP3    H1 1417   4.072   2.605   3.840
  492TIP3    H2 1418   4.205   2.544   3.803
  493TIP3   OH2 1419   1.685   6.460   0.716
  493TIP3    H1 1420   1.721   6.416   0.639
  493TIP3    H2 1421   1.676   6.551   0.689
  494TIP3   OH2 1422   1.206   0.573   4.397
  494TIP3    H1 1423   1.283   0.516   4.393
  494TIP3    H2 1424   1.154   0.539   4.469
  495TIP3   OH2 1425   5.700   0.555   6.724
  495TIP3    H1 1426   5.674   0.581   6.813
  495TIP3    H2 1427   5.681   0.633   6.671
  496TIP3   OH2 1428   4.540   2.234   5.012
  496TIP3    H1 1429   4.610   2.283   5.055
  496TIP3    H2 1430   4.572   2.219   4.923
  497TIP3   OH2 1431   2.865   7.921   6.129
  497TIP3    H1 1432   2.871   7.825   6.133
  497TIP3    H2 1433   2.856   7.941   6.036
  498TIP3   OH2 1434   1.883   1.796   2.682
  498TIP3    H1 1435   1.808   1.738   2.693
  498TIP3    H2 1436   1.872   1.833   2.594
  499TIP3   OH2 1437   2.352   3.290   3.543
  499TIP3    H1 1438   2.325   3.204   3.573
  499TIP3    H2 1439   2.314   3.351   3.607
  500TIP3   OH2 1440   8.216   4.070   5.196
  500TIP3    H1 1441   8.201   4.164   5.193
  500TIP3    H2 1442   8.304   4.061   5.234
  501TIP3   OH2 1443   3.348   5.295   4.355
  501TIP3    H1 1444   3.302   5.312   4.437
  501TIP3    H2 1445   3.406   5.222   4.374
  502TIP3   OH2 1446   4.265   5.684   0.553
  502TIP3    H1 1447   4.325   5.756   0.537
  502TIP3    H2 1448   4.195   5.722   0.605
  503TIP3   OH2 1449   5.370   5.786   4.104
  503TIP3    H1 1450   5.301   5.758   4.165
  503TIP3    H2 1451   5.413   5.705   4.078
  504TIP3   OH2 1452   2.868   1.077   3.013
  504TIP3    H1 1453   2.778   1.108   3.022
  504TIP3    H2 1454   2.897   1.060   3.102
  505TIP3   OH2 1455   3.974   7.461   2.637
  505TIP3    H1 1456   3.890   7.459   2.684
  505TIP3    H2 1457   4.016   7.541   2.668
  506TIP3   OH2 1458   3.542   0.044   4.183
  506TIP3    H1 1459   3.609  -0.025   4.176
  506TIP3    H2 1460   3.461   0.001   4.158
  507TIP3   OH2 1461   0.298   1.285   0.482
  507TIP3    H1 1462   0.232   1.253   0.543
  507TIP3    H2 1463   0.357   1.338   0.535
  508TIP3   OH2 1464   2.675   6.299   4.430
  508TIP3    H1 1465   2.687   6.384   4.387
  508TIP3    H2 1466   2.760   6.280   4.470
  509TIP3   OH2 1467   1.420   3.722   3.003
  509TIP3    H1 1468   1.396   3.633   2.976
  509TIP3    H2 1469   1.336   3.767   3.012
  510TIP3   OH2 1470   7.105   3.140   6.608
  510TIP3    H1 1471   7.065   3.088   6.537
  510TIP3    H2 1472   7.031   3.186   6.648
  511TIP3   OH2 1473   4.227   7.257   2.298
  511TIP3    H1 1474   4.198   7.170   2.273
  511TIP3    H2 1475   4.166   7.284   2.367
  512TIP3   OH2 1476   7.275   7.561   2.633
  512TIP3    H1 1477   7.296   7.647   2.670
  512TIP3    H2 1478   7.225   7.516   2.701
  513TIP3   OH2 1479   2.632   1.323   6.403
  513TIP3    H1 1480   2.574   1.374   6.347
  513TIP3    H2 1481   2.710   1.308   6.349
  514TIP3   OH2 1482   6.501   2.069   1.975
  514TIP3    H1 1483   6.516   1.976   1.964
  514TIP3    H2 1484   6.425   2.088   1.921
  515TIP3   OH2 1485   6.173   0.622   6.091
  515TIP3    H1 1486   6.101   0.586   6.142
  515TIP3    H2 1487   6.231   0.662   6.155
  516TIP3   OH2 1488   0.359   0.915   5.034
  516TIP3    H1 1489   0.411   0.846   5.076
  516TIP3    H2 1490   0.350   0.886   4.943
  517TIP3   OH2 1491   1.273   6.422   6.598
  517TIP3    H1 1492   1.254   6.328   6.605
  517TIP3    H2 1493   1.223   6.461   6.669
  518TIP3   OH2 1494   2.224   6.072   1.427
  518TIP3    H1 1495   2.248   6.126   1.352
  518TIP3    H2 1496   2.138   6.035   1.404
  519TIP3   OH2 1497   3.867   4.551   6.092
  519TIP3    H1 1498   3.810   4.478   6.067
  519TIP3    H2 1499   3.955   4.521   6.071
  520TIP3   OH2 1500   5.719   5.208   1.987
  520TIP3    H1 1501   5.681   5.135   2.036
  520TIP3    H2 1502   5.701   5.187   1.895
  521TIP3   OH2 1503   2.243   1.729   1.937
  521TIP3    H1 1504   2.241   1.718   2.032
  521TIP3    H2 1505   2.334   1.708   1.913
  522TIP3   OH2 1506   2.674   4.158   0.838
  522TIP3    H1 1507   2.707   4.245   0.814
  522TIP3    H2 1508   2.646   4.119   0.755
  523TIP3   OH2 1509   8.147   7.420   0.077
  523TIP3    H1 1510   8.120   7.442  -0.012
  523TIP3    H2 1511   8.105   7.487   0.131
  524TIP3   OH2 1512   5.683   3.035   1.316
  524TIP3    H1 1513   5.693   3.103   1.383
  524TIP3    H2 1514   5.610   3.065   1.262
  525TIP3   OH2 1515   1.247   1.614   6.893
  525TIP3    H1 1516   1.177   1.578   6.948
  525TIP3    H2 1517   1.327   1.572   6.925
  526TIP3   OH2 1518   7.725   6.653   3.830
  526TIP3    H1 1519   7.659   6.584   3.834
  526TIP3    H2 1520   7.800   6.614   3.786
  527TIP3   OH2 1521   1.273   0.269   3.597
  527TIP3    H1 1522   1.193   0.314   3.625
  527TIP3    H2 1523   1.321   0.253   3.678
  528TIP3   OH2 1524   6.401   5.298   0.965
  528TIP3    H1 1525   6.462   5.230   0.993
  528TIP3    H2 1526   6.455   5.376   0.954
  529TIP3   OH2 1527   7.811   1.674   3.516
  529TIP3    H1 1528   7.730   1.622   3.516
  529TIP3    H2 1529   7.805   1.727   3.595
  530TIP3   OH2 1530   8.363   3.140   1.898
  530TIP3    H1 1531   8.276   3.180   1.904
  530TIP3    H2 1532   8.354   3.057   1.944
  531TIP3   OH2 1533   8.110   6.322   6.086
  531TIP3    H1 1534   8.180   6.270   6.125
  531TIP3    H2 1535   8.077   6.375   6.158
  532TIP3   OH2 1536   6.232   4.223   4.236
  532TIP3    H1 1537   6.246   4.183   4.322
  532TIP3    H2 1538   6.293   4.177   4.178
  533TIP3   OH2 1539   5.160   6.143   4.153
  533TIP3    H1 1540   5.192   6.118   4.239
  533TIP3    H2 1541   5.075   6.098   4.145
  534TIP3   OH2 1542   6.246   4.024   2.522
  534TIP3    H1 1543   6.162   4.068   2.528
  534TIP3    H2 1544   6.311   4.095   2.521
  535TIP3   OH2 1545   6.045   3.085   5.556
  535TIP3    H1 1546   5.959   3.100   5.516
  535TIP3    H2 1547   6.046   2.992   5.575
  536TIP3   OH2 1548   6.056   0.715   4.331
  536TIP3    H1 1549   6.024   0.805   4.330
  536TIP3    H2 1550   6.067   0.694   4.424
  537TIP3   OH2 1551   7.693   2.780   6.037
  537TIP3    H1 1552   7.785   2.804   6.047
  537TIP3    H2 1553   7.670   2.809   5.949
  538TIP3   OH2 1554   4.864   7.658   2.022
  538TIP3    H1 1555   4.911   7.691   2.099
  538TIP3    H2 1556   4.931   7.653   1.954
  539TIP3   OH2 1557   6.181   0.772   2.626
  539TIP3    H1 1558   6.204   0.765   2.719
  539TIP3    H2 1559   6.252   0.727   2.580
  540TIP3   OH2 1560   4.358   7.572   6.006
  540TIP3    H1 1561   4.353   7.476   5.999
  540TIP3    H2 1562   4.366   7.601   5.915
  541TIP3   OH2 1563   6.857   6.405   5.915
  541TIP3    H1 1564   6.827   6.494   5.930
  541TIP3    H2 1565   6.881   6.403   5.822
  542TIP3   OH2 1566   8.287   6.155   0.138
  542TIP3    H1 1567   8.354   6.132   0.073
  542TIP3    H2 1568   8.260   6.071   0.174
  543TIP3   OH2 1569   6.573   6.830   2.229
  543TIP3    H1 1570   6.596   6.775   2.304
  543TIP3    H2 1571   6.537   6.910   2.268
  544TIP3   OH2 1572   7.777   2.651   5.660
  544TIP3    H1 1573   7.706   2.702   5.701
  544TIP3    H2 1574   7.807   2.706   5.588
  545TIP3   OH2 1575   8.010   1.040   5.764
  545TIP3    H1 1576   8.103   1.064   5.757
  545TIP3    H2 1577   7.968   1.120   5.797
  546TIP3   OH2 1578   0.727   7.439   5.513
  546TIP3    H1 1579   0.684   7.494   5.448
  546TIP3    H2 1580   0.820   7.444   5.492
  547TIP3   OH2 1581   2.274   2.869   3.929
  547TIP3    H1 1582   2.181   2.887   3.914
  547TIP3    H2 1583   2.318   2.951   3.904
  548TIP3   OH2 1584   5.324   1.629   4.925
  548TIP3    H1 1585   5.231   1.632   4.948
  548TIP3    H2 1586   5.327   1.645   4.831
  549TIP3   OH2 1587   0.206   4.003   4.944
  549TIP3    H1 1588   0.240   4.089   4.918
  549TIP3    H2 1589   0.246   3.987   5.030
  550TIP3   OH2 1590   8.337   0.081   3.012
  550TIP3    H1 1591   8.247   0.049   3.019
  550TIP3    H2 1592   8.339   0.158   3.070
  551TIP3   OH2 1593   2.207   5.666   6.065
  551TIP3    H1 1594   2.219   5.731   5.995
  551TIP3    H2 1595   2.154   5.711   6.130
  552TIP3   OH2 1596   7.524   3.714   5.115
  552TIP3    H1 1597   7.546   3.745   5.027
  552TIP3    H2 1598   7.583   3.763   5.172
  553TIP3   OH2 1599   2.403   6.258   2.170
  553TIP3    H1 1600   2.459   6.186   2.139
  553TIP3    H2 1601   2.465   6.324   2.200
  554TIP3   OH2 1602   7.193   3.844   4.397
  554TIP3    H1 1603   7.182   3.939   4.401
  554TIP3    H2 1604   7.104   3.809   4.393
  555TIP3   OH2 1605   0.612   1.378   4.793
  555TIP3    H1 1606   0.523   1.414   4.795
  555TIP3    H2 1607   0.617   1.325   4.873
  556TIP3   OH2 1608   6.984   1.023   2.617
  556TIP3    H1 1609   6.917   1.013   2.685
  556TIP3    H2 1610   7.000   1.117   2.613
  557TIP3   OH2 1611   3.491   1.654   4.726
  557TIP3    H1 1612   3.525   1.743   4.734
  557TIP3    H2 1613   3.424   1.660   4.658
  558TIP3   OH2 1614   5.453   6.344   0.983
  558TIP3    H1 1615   5.499   6.301   1.055
  558TIP3    H2 1616   5.397   6.409   1.026
  559TIP3   OH2 1617   2.980   0.700   6.125
  559TIP3    H1 1618   2.892   0.704   6.087
  559TIP3    H2 1619   2.969   0.734   6.214
  560TIP3   OH2 1620   3.501   6.988   0.376
  560TIP3    H1 1621   3.588   6.979   0.338
  560TIP3    H2 1622   3.460   7.059   0.326
  561TIP3   OH2 1623   2.582   0.235   3.784
  561TIP3    H1 1624   2.634   0.216   3.863
  561TIP3    H2 1625   2.621   0.180   3.716
  562TIP3   OH2 1626   2.975   2.382   5.614
  562TIP3    H1 1627   2.894   2.358   5.660
  562TIP3    H2 1628   2.965   2.347   5.526
  563TIP3   OH2 1629   5.238   0.407   5.398
  563TIP3    H1 1630   5.205   0.390   5.310
  563TIP3    H2 1631   5.202   0.493   5.422
  564TIP3   OH2 1632   2.823   7.767   1.351
  564TIP3    H1 1633   2.897   7.720   1.312
  564TIP3    H2 1634   2.751   7.704   1.346
  565TIP3   OH2 1635   7.775   0.295   1.688
  565TIP3    H1 1636   7.851   0.341   1.723
  565TIP3    H2 1637   7.709   0.299   1.758
  566TIP3   OH2 1638   6.655   2.876   4.563
  566TIP3    H1 1639   6.688   2.966   4.555
  566TIP3    H2 1640   6.679   2.851   4.652
  567TIP3   OH2 1641   5.110   3.467   1.612
  567TIP3    H1 1642   5.148   3.488   1.697
  567TIP3    H2 1643   5.049   3.395   1.631
  568TIP3   OH2 1644   6.719   7.315   2.551
  568TIP3    H1 1645   6.775   7.392   2.542
  568TIP3    H2 1646   6.659   7.320   2.477
  569TIP3   OH2 1647   1.757   5.333   5.306
  569TIP3    H1 1648   1.711   5.340   5.222
  569TIP3    H2 1649   1.730   5.248   5.341
  570TIP3   OH2 1650   2.264   2.757   5.151
  570TIP3    H1 1651   2.207   2.783   5.224
  570TIP3    H2 1652   2.351   2.787   5.176
  571TIP3   OH2 1653   1.438   2.898   6.570
  571TIP3    H1 1654   1.376   2.853   6.627
  571TIP3    H2 1655   1.393   2.903   6.485
  572TIP3   OH2 1656   6.505   4.267   0.651
  572TIP3    H1 1657   6.428   4.250   0.597
  572TIP3    H2 1658   6.513   4.363   0.651
  573TIP3   OH2 1659   6.367   3.476   4.762
  573TIP3    H1 1660   6.302   3.498   4.695
  573TIP3    H2 1661   6.316   3.433   4.832
  574TIP3   OH2 1662   6.923   5.630   0.755
  574TIP3    H1 1663   6.830   5.626   0.731
  574TIP3    H2 1664   6.953   5.714   0.720
  575TIP3   OH2 1665   5.624   2.758   5.597
  575TIP3    H1 1666   5.717   2.750   5.574
  575TIP3    H2 1667   5.624   2.814   5.675
  576TIP3   OH2 1668   6.028   3.746   6.085
  576TIP3    H1 1669   5.961   3.765   6.151
  576TIP3    H2 1670   6.109   3.740   6.136
  577TIP3   OH2 1671   4.189   5.228   1.407
  577TIP3    H1 1672   4.111   5.276   1.378
  577TIP3    H2 1673   4.253   5.242   1.338
  578TIP3   OH2 1674   2.208   3.317   4.113
  578TIP3    H1 1675   2.148   3.259   4.160
  578TIP3    H2 1676   2.165   3.332   4.029
  579TIP3   OH2 1677   7.188   5.774   0.180
  579TIP3    H1 1678   7.172   5.868   0.186
  579TIP3    H2 1679   7.114   5.740   0.129
  580TIP3   OH2 1680   4.818   2.171   3.174
  580TIP3    H1 1681   4.864   2.092   3.146
  580TIP3    H2 1682   4.734   2.140   3.207
  581TIP3   OH2 1683   6.342   4.481   2.577
  581TIP3    H1 1684   6.431   4.445   2.584
  581TIP3    H2 1685   6.298   4.425   2.514
  582TIP3   OH2 1686   2.045   3.649   3.670
  582TIP3    H1 1687   2.003   3.718   3.619
  582TIP3    H2 1688   2.050   3.685   3.759
  583TIP3   OH2 1689   5.800   1.556   6.222
  583TIP3    H1 1690   5.851   1.637   6.222
  583TIP3    H2 1691   5.725   1.575   6.166
  584TIP3   OH2 1692   1.901   6.112   6.184
  584TIP3    H1 1693   1.834   6.150   6.127
  584TIP3    H2 1694   1.931   6.185   6.238
  585TIP3   OH2 1695   7.439   6.400   3.936
  585TIP3    H1 1696   7.376   6.472   3.946
  585TIP3    H2 1697   7.415   6.360   3.853
  586TIP3   OH2 1698   1.465   4.029   0.655
  586TIP3    H1 1699   1.395   4.046   0.719
  586TIP3    H2 1700   1.486   4.115   0.619
  587TIP3   OH2 1701   5.413   1.699   0.506
  587TIP3    H1 1702   5.350   1.759   0.547
  587TIP3    H2 1703   5.483   1.756   0.475
  588TIP3   OH2 1704   0.112   2.687   0.892
  588TIP3    H1 1705   0.027   2.709   0.929
  588TIP3    H2 1706   0.096   2.610   0.837
  589TIP3   OH2 1707   1.413   7.236   4.262
  589TIP3    H1 1708   1.442   7.320   4.226
  589TIP3    H2 1709   1.493   7.187   4.277
  590TIP3   OH2 1710   8.082   2.825   1.635
  590TIP3    H1 1711   8.013   2.839   1.569
  590TIP3    H2 1712   8.155   2.879   1.605
  591TIP3   OH2 1713   5.098   2.652   4.124
  591TIP3    H1 1714   5.110   2.631   4.031
  591TIP3    H2 1715   5.184   2.640   4.163
  592TIP3   OH2 1716   1.481   2.303   1.134
  592TIP3    H1 1717   1.530   2.351   1.201
  592TIP3    H2 1718   1.440   2.371   1.081
  593TIP3   OH2 1719   1.133   6.018   2.220
  593TIP3    H1 1720   1.176   6.008   2.305
  593TIP3    H2 1721   1.044   5.986   2.234
  594TIP3   OH2 1722   3.685   0.285   4.384
  594TIP3    H1 1723   3.593   0.290   4.410
  594TIP3    H2 1724   3.685   0.309   4.291
  595TIP3   OH2 1725   3.273   5.424   2.462
  595TIP3    H1 1726   3.233   5.444   2.547
  595TIP3    H2 1727   3.199   5.414   2.402
  596TIP3   OH2 1728   2.046   6.464   0.472
  596TIP3    H1 1729   2.027   6.529   0.404
  596TIP3    H2 1730   2.020   6.507   0.554
  597TIP3   OH2 1731   3.951   2.756   0.886
  597TIP3    H1 1732   3.982   2.806   0.962
  597TIP3    H2 1733   3.922   2.823   0.824
  598TIP3   OH2 1734   0.457   2.102   2.909
  598TIP3    H1 1735   0.475   2.040   2.980
  598TIP3    H2 1736   0.530   2.090   2.848
  599TIP3   OH2 1737   6.410   5.812   4.601
  599TIP3    H1 1738   6.441   5.776   4.517
  599TIP3    H2 1739   6.484   5.864   4.633
  600TIP3   OH2 1740   8.445   3.403   1.407
  600TIP3    H1 1741   8.407   3.319   1.380
  600TIP3    H2 1742   8.472   3.388   1.498
  601TIP3   OH2 1743   2.405   6.611   5.706
  601TIP3    H1 1744   2.362   6.638   5.787
  601TIP3    H2 1745   2.452   6.690   5.678
  602TIP3   OH2 1746   6.367   4.637   6.629
  602TIP3    H1 1747   6.390   4.556   6.673
  602TIP3    H2 1748   6.326   4.610   6.547
  603TIP3   OH2 1749   3.066   3.873   6.133
  603TIP3    H1 1750   3.079   3.952   6.186
  603TIP3    H2 1751   3.027   3.810   6.193
  604TIP3   OH2 1752   4.629   6.561   4.038
  604TIP3    H1 1753   4.608   6.468   4.030
  604TIP3    H2 1754   4.683   6.581   3.962
  605TIP3   OH2 1755   8.099   3.574   3.595
  605TIP3    H1 1756   8.112   3.639   3.526
  605TIP3    H2 1757   8.053   3.621   3.665
  606TIP3   OH2 1758   8.101   6.755   4.847
  606TIP3    H1 1759   8.131   6.834   4.802
  606TIP3    H2 1760   8.182   6.714   4.880
  607TIP3   OH2 1761   6.243   3.353   5.275
  607TIP3    H1 1762   6.177   3.421   5.259
  607TIP3    H2 1763   6.272   3.369   5.365
  608TIP3   OH2 1764   7.451   1.557   4.905
  608TIP3    H1 1765   7.540   1.542   4.937
  608TIP3    H2 1766   7.413   1.619   4.967
  609TIP3   OH2 1767   6.569   0.824   2.844
  609TIP3    H1 1768   6.509   0.830   2.918
  609TIP3    H2 1769   6.560   0.733   2.814
  610TIP3   OH2 1770   5.486   3.588   5.580
  610TIP3    H1 1771   5.515   3.661   5.634
  610TIP3    H2 1772   5.564   3.562   5.530
  611TIP3   OH2 1773   4.104   7.410   5.733
  611TIP3    H1 1774   4.157   7.400   5.812
  611TIP3    H2 1775   4.154   7.471   5.679
  612TIP3   OH2 1776   6.397   1.211   0.936
  612TIP3    H1 1777   6.371   1.258   1.015
  612TIP3    H2 1778   6.358   1.261   0.864
  613TIP3   OH2 1779   7.716   5.137   5.497
  613TIP3    H1 1780   7.646   5.165   5.557
  613TIP3    H2 1781   7.797   5.161   5.543
  614TIP3   OH2 1782   5.057   0.761   6.525
  614TIP3    H1 1783   4.976   0.761   6.474
  614TIP3    H2 1784   5.038   0.814   6.602
  615TIP3   OH2 1785   5.754   7.195   2.419
  615TIP3    H1 1786   5.824   7.254   2.393
  615TIP3    H2 1787   5.749   7.130   2.349
  616TIP3   OH2 1788   8.387   1.560   2.678
  616TIP3    H1 1789   8.364   1.500   2.748
  616TIP3    H2 1790   8.304   1.603   2.655
  617TIP3   OH2 1791   7.821   4.688   1.088
  617TIP3    H1 1792   7.819   4.678   0.993
  617TIP3    H2 1793   7.741   4.737   1.108
  618TIP3   OH2 1794   4.581   0.643   3.441
  618TIP3    H1 1795   4.561   0.550   3.450
  618TIP3    H2 1796   4.674   0.651   3.463
  619TIP3   OH2 1797   2.794   5.519   5.525
  619TIP3    H1 1798   2.734   5.525   5.451
  619TIP3    H2 1799   2.744   5.473   5.593
  620TIP3   OH2 1800   4.306   7.539   4.348
  620TIP3    H1 1801   4.367   7.595   4.395
  620TIP3    H2 1802   4.278   7.474   4.412
  621TIP3   OH2 1803   3.440   5.816   0.428
  621TIP3    H1 1804   3.405   5.887   0.374
  621TIP3    H2 1805   3.510   5.777   0.374
  622TIP3   OH2 1806   5.114   5.762   5.716
  622TIP3    H1 1807   5.126   5.709   5.795
  622TIP3    H2 1808   5.197   5.809   5.707
  623TIP3   OH2 1809   5.639   2.180   5.816
  623TIP3    H1 1810   5.665   2.088   5.821
  623TIP3    H2 1811   5.693   2.217   5.745
  624TIP3   OH2 1812   4.295   2.627   3.433
  624TIP3    H1 1813   4.365   2.677   3.474
  624TIP3    H2 1814   4.218   2.682   3.442
  625TIP3   OH2 1815   0.367   5.793   6.022
  625TIP3    H1 1816   0.277   5.823   6.033
  625TIP3    H2 1817   0.387   5.746   6.103
  626TIP3   OH2 1818   7.077   6.426   4.756
  626TIP3    H1 1819   7.046   6.464   4.674
  626TIP3    H2 1820   7.025   6.469   4.823
  627TIP3   OH2 1821   8.350   3.558   5.012
  627TIP3    H1 1822   8.296   3.627   4.975
  627TIP3    H2 1823   8.432   3.562   4.961
  628TIP3   OH2 1824   0.454   7.855   2.595
  628TIP3    H1 1825   0.374   7.802   2.600
  628TIP3    H2 1826   0.482   7.864   2.686
  629TIP3   OH2 1827   1.774   5.674   4.013
  629TIP3    H1 1828   1.849   5.672   3.955
  629TIP3    H2 1829   1.804   5.719   4.092
  630TIP3   OH2 1830   4.533   1.400   1.994
  630TIP3    H1 1831   4.501   1.342   2.064
  630TIP3    H2 1832   4.619   1.428   2.024
  631TIP3   OH2 1833   3.906   4.806   5.741
  631TIP3    H1 1834   3.988   4.756   5.737
  631TIP3    H2 1835   3.869   4.786   5.827
  632TIP3   OH2 1836   3.394   2.864   4.313
  632TIP3    H1 1837   3.320   2.916   4.344
  632TIP3    H2 1838   3.472   2.916   4.335
  633TIP3   OH2 1839   4.021   6.824   1.161
  633TIP3    H1 1840   4.029   6.741   1.209
  633TIP3    H2 1841   4.029   6.799   1.069
  634TIP3   OH2 1842   7.337   1.465   2.609
  634TIP3    H1 1843   7.340   1.517   2.690
  634TIP3    H2 1844   7.244   1.448   2.596
  635TIP3   OH2 1845   5.008   7.377   1.948
  635TIP3    H1 1846   5.103   7.368   1.951
  635TIP3    H2 1847   4.991   7.467   1.973
  636TIP3   OH2 1848   6.208   4.558   5.631
  636TIP3    H1 1849   6.176   4.621   5.696
  636TIP3    H2 1850   6.130   4.511   5.603
  637TIP3   OH2 1851   2.847   6.507   3.403
  637TIP3    H1 1852   2.757   6.475   3.400
  637TIP3    H2 1853   2.896   6.436   3.444
  638TIP3   OH2 1854   2.333   7.068   0.982
  638TIP3    H1 1855   2.255   7.029   1.020
  638TIP3    H2 1856   2.304   7.153   0.950
  639TIP3   OH2 1857   7.201   2.687   4.064
  639TIP3    H1 1858   7.118   2.721   4.099
  639TIP3    H2 1859   7.188   2.592   4.060
  640TIP3   OH2 1860   2.232   3.148   5.600
  640TIP3    H1 1861   2.191   3.125   5.683
  640TIP3    H2 1862   2.240   3.243   5.603
  641TIP3   OH2 1863   5.108   2.265   4.873
  641TIP3    H1 1864   5.166   2.314   4.931
  641TIP3    H2 1865   5.149   2.272   4.786
  642TIP3   OH2 1866   7.937   0.577   2.649
  642TIP3    H1 1867   8.031   0.567   2.665
  642TIP3    H2 1868   7.922   0.535   2.564
  643TIP3   OH2 1869   4.169   7.023   6.029
  643TIP3    H1 1870   4.118   7.065   6.098
  643TIP3    H2 1871   4.231   6.967   6.076
  644TIP3   OH2 1872   0.792   0.473   6.130
  644TIP3    H1 1873   0.720   0.531   6.106
  644TIP3    H2 1874   0.794   0.407   6.061
  645TIP3   OH2 1875   0.886   2.625   0.027
  645TIP3    H1 1876   0.867   2.719   0.035
  645TIP3    H2 1877   0.908   2.598   0.116
  646TIP3   OH2 1878   1.305   2.933   1.824
  646TIP3    H1 1879   1.251   2.867   1.866
  646TIP3    H2 1880   1.379   2.884   1.789
  647TIP3   OH2 1881   0.246   6.509   4.455
  647TIP3    H1 1882   0.159   6.503   4.494
  647TIP3    H2 1883   0.277   6.596   4.479
  648TIP3   OH2 1884   6.359   6.980   1.004
  648TIP3    H1 1885   6.391   6.936   1.083
  648TIP3    H2 1886   6.278   7.024   1.032
  649TIP3   OH2 1887   4.749   6.876   5.688
  649TIP3    H1 1888   4.830   6.826   5.690
  649TIP3    H2 1889   4.773   6.959   5.647
  650TIP3   OH2 1890   2.076   5.786   1.729
  650TIP3    H1 1891   2.101   5.696   1.750
  650TIP3    H2 1892   2.040   5.782   1.641
  651TIP3   OH2 1893   4.686   1.210   5.629
  651TIP3    H1 1894   4.745   1.139   5.601
  651TIP3    H2 1895   4.720   1.288   5.585
  652TIP3   OH2 1896   3.257   3.013   4.898
  652TIP3    H1 1897   3.163   2.995   4.896
  652TIP3    H2 1898   3.297   2.930   4.923
  653TIP3   OH2 1899   6.731   2.540   5.376
  653TIP3    H1 1900   6.757   2.600   5.446
  653TIP3    H2 1901   6.738   2.592   5.296
  654TIP3   OH2 1902   2.734   6.487   2.055
  654TIP3    H1 1903   2.646   6.512   2.083
  654TIP3    H2 1904   2.725   6.468   1.961
  655TIP3   OH2 1905   5.843   2.666   2.901
  655TIP3    H1 1906   5.811   2.728   2.836
  655TIP3    H2 1907   5.930   2.641   2.869
  656TIP3   OH2 1908   4.227   0.141   2.598
  656TIP3    H1 1909   4.141   0.157   2.637
  656TIP3    H2 1910   4.211   0.072   2.533
  657TIP3   OH2 1911   2.850   2.308   2.440
  657TIP3    H1 1912   2.891   2.292   2.355
  657TIP3    H2 1913   2.923   2.321   2.500
  658TIP3   OH2 1914   6.642   0.879   4.018
  658TIP3    H1 1915   6.672   0.850   3.931
  658TIP3    H2 1916   6.573   0.943   3.999
  659TIP3   OH2 1917   0.391   1.941   6.482
  659TIP3    H1 1918   0.441   1.861   6.499
  659TIP3    H2 1919   0.435   1.981   6.407
  660TIP3   OH2 1920   7.360   1.945   5.228
  660TIP3    H1 1921   7.364   2.034   5.193
  660TIP3    H2 1922   7.282   1.944   5.283
  661TIP3   OH2 1923   8.389   1.221   1.423
  661TIP3    H1 1924   8.426   1.222   1.511
  661TIP3    H2 1925   8.294   1.229   1.438
  662TIP3   OH2 1926   5.508   1.232   2.197
  662TIP3    H1 1927   5.518   1.325   2.216
  662TIP3    H2 1928   5.435   1.228   2.135
  663TIP3   OH2 1929   0.725   6.203   5.391
  663TIP3    H1 1930   0.811   6.185   5.431
  663TIP3    H2 1931   0.664   6.151   5.443
  664TIP3   OH2 1932   3.513   4.989   2.451
  664TIP3    H1 1933   3.577   4.927   2.417
  664TIP3    H2 1934   3.428   4.950   2.430
  665TIP3   OH2 1935   6.040   2.264   2.791
  665TIP3    H1 1936   6.015   2.185   2.837
  665TIP3    H2 1937   6.068   2.233   2.704
  666TIP3   OH2 1938   7.267   1.783   4.695
  666TIP3    H1 1939   7.313   1.756   4.775
  666TIP3    H2 1940   7.292   1.717   4.630
  667TIP3   OH2 1941   5.204   4.561   5.181
  667TIP3    H1 1942   5.258   4.638   5.200
  667TIP3    H2 1943   5.144   4.555   5.255
  668TIP3   OH2 1944   7.665   2.703   2.286
  668TIP3    H1 1945   7.676   2.765   2.358
  668TIP3    H2 1946   7.572   2.711   2.263
  669TIP3   OH2 1947   0.088   4.151   0.876
  669TIP3    H1 1948   0.165   4.175   0.929
  669TIP3    H2 1949   0.026   4.116   0.940
  670TIP3   OH2 1950   4.703   6.285   2.142
  670TIP3    H1 1951   4.755   6.365   2.152
  670TIP3    H2 1952   4.686   6.256   2.232
  671TIP3   OH2 1953   6.868   6.595   0.484
  671TIP3    H1 1954   6.886   6.688   0.475
  671TIP3    H2 1955   6.774   6.587   0.469
  672TIP3   OH2 1956   0.248   3.525   3.988
  672TIP3    H1 1957   0.207   3.479   4.062
  672TIP3    H2 1958   0.180   3.585   3.957
  673TIP3   OH2 1959   7.768   4.018   3.154
  673TIP3    H1 1960   7.780   4.014   3.249
  673TIP3    H2 1961   7.695   3.959   3.136
  674TIP3   OH2 1962   2.970   5.370   1.418
  674TIP3    H1 1963   3.024   5.442   1.451
  674TIP3    H2 1964   2.982   5.300   1.482
  675TIP3   OH2 1965   3.450   1.446   0.526
  675TIP3    H1 1966   3.396   1.489   0.460
  675TIP3    H2 1967   3.446   1.505   0.602
  676TIP3   OH2 1968   8.095   7.264   2.304
  676TIP3    H1 1969   8.066   7.174   2.315
  676TIP3    H2 1970   8.038   7.301   2.237
  677TIP3   OH2 1971   1.162   6.804   6.614
  677TIP3    H1 1972   1.249   6.821   6.652
  677TIP3    H2 1973   1.106   6.787   6.690
  678TIP3   OH2 1974   7.291   2.616   0.303
  678TIP3    H1 1975   7.327   2.568   0.378
  678TIP3    H2 1976   7.358   2.609   0.236
  679TIP3   OH2 1977   1.724   6.375   5.288
  679TIP3    H1 1978   1.695   6.409   5.203
  679TIP3    H2 1979   1.818   6.361   5.277
  680TIP3   OH2 1980   1.799   6.511   5.578
  680TIP3    H1 1981   1.835   6.423   5.572
  680TIP3    H2 1982   1.827   6.554   5.498
  681TIP3   OH2 1983   0.979   6.909   5.424
  681TIP3    H1 1984   0.999   6.906   5.331
  681TIP3    H2 1985   0.951   6.820   5.446
  682TIP3   OH2 1986   4.696   5.062   2.773
  682TIP3    H1 1987   4.651   5.077   2.691
  682TIP3    H2 1988   4.632   5.018   2.829
  683TIP3   OH2 1989   7.211   7.294   6.041
  683TIP3    H1 1990   7.217   7.381   6.081
  683TIP3    H2 1991   7.193   7.235   6.115
  684TIP3   OH2 1992   0.624   1.959   1.790
  684TIP3    H1 1993   0.689   1.897   1.756
  684TIP3    H2 1994   0.672   2.010   1.856
  685TIP3   OH2 1995   5.302   2.909   5.020
  685TIP3    H1 1996   5.262   2.823   5.011
  685TIP3    H2 1997   5.244   2.958   5.078
  686TIP3   OH2 1998   7.872   1.484   2.155
  686TIP3    H1 1999   7.932   1.542   2.108
  686TIP3    H2 2000   7.840   1.536   2.228
  687TIP3   OH2 2001   0.566   7.204   0.782
  687TIP3    H1 2002   0.544   7.117   0.815
  687TIP3    H2 2003   0.655   7.220   0.814
  688TIP3   OH2 2004   2.438   1.212   1.411
  688TIP3    H1 2005   2.383   1.145   1.371
  688TIP3    H2 2006   2.473   1.261   1.336
  689TIP3   OH2 2007   5.700   6.768   0.326
  689TIP3    H1 2008   5.741   6.745   0.242
  689TIP3    H2 2009   5.650   6.690   0.350
  690TIP3   OH2 2010   1.522   2.166   5.117
  690TIP3    H1 2011   1.555   2.235   5.058
  690TIP3    H2 2012   1.599   2.112   5.135
  691TIP3   OH2 2013   4.499   5.070   2.325
  691TIP3    H1 2014   4.553   5.084   2.403
  691TIP3    H2 2015   4.557   5.027   2.263
  692TIP3   OH2 2016   6.501   7.936   3.780
  692TIP3    H1 2017   6.558   7.979   3.717
  692TIP3    H2 2018   6.538   7.848   3.790
  693TIP3   OH2 2019   0.114   1.508   0.597
  693TIP3    H1 2020   0.031   1.510   0.645
  693TIP3    H2 2021   0.181   1.520   0.664
  694TIP3   OH2 2022   4.406   4.700   4.241
  694TIP3    H1 2023   4.449   4.741   4.316
  694TIP3    H2 2024   4.328   4.657   4.278
  695TIP3   OH2 2025   5.633   0.561   2.492
  695TIP3    H1 2026   5.609   0.651   2.469
  695TIP3    H2 2027   5.557   0.509   2.469
  696TIP3   OH2 2028   4.744   3.548   4.636
  696TIP3    H1 2029   4.696   3.630   4.648
  696TIP3    H2 2030   4.713   3.491   4.707
  697TIP3   OH2 2031   7.573   5.595   1.577
  697TIP3    H1 2032   7.570   5.552   1.662
  697TIP3    H2 2033   7.502   5.660   1.580
  698TIP3   OH2 2034   0.438   7.390   3.241
  698TIP3    H1 2035   0.368   7.374   3.305
  698TIP3    H2 2036   0.485   7.466   3.275
  699TIP3   OH2 2037   6.225   5.499   2.722
  699TIP3    H1 2038   6.162   5.570   2.709
  699TIP3    H2 2039   6.196   5.430   2.663
  700TIP3   OH2 2040   8.030   2.549   2.453
  700TIP3    H1 2041   8.015   2.608   2.527
  700TIP3    H2 2042   7.990   2.594   2.378
  701TIP3   OH2 2043   2.130   3.546   3.416
  701TIP3    H1 2044   2.132   3.577   3.506
  701TIP3    H2 2045   2.186   3.607   3.368
  702TIP3   OH2 2046   8.104   3.665   2.302
  702TIP3    H1 2047   8.138   3.644   2.389
  702TIP3    H2 2048   8.113   3.760   2.296
  703TIP3   OH2 2049   8.315   5.677   4.639
  703TIP3    H1 2050   8.365   5.625   4.702
  703TIP3    H2 2051   8.317   5.766   4.674
  704TIP3   OH2 2052   7.313   3.459   5.541
  704TIP3    H1 2053   7.355   3.493   5.621
  704TIP3    H2 2054   7.319   3.364   5.550
  705TIP3   OH2 2055   7.340   4.042   3.833
  705TIP3    H1 2056   7.263   4.099   3.828
  705TIP3    H2 2057   7.365   4.026   3.742
  706TIP3   OH2 2058   8.306   1.319   5.989
  706TIP3    H1 2059   8.401   1.322   6.001
  706TIP3    H2 2060   8.272   1.294   6.074
  707TIP3   OH2 2061   0.475   2.670   2.627
  707TIP3    H1 2062   0.524   2.598   2.588
  707TIP3    H2 2063   0.436   2.716   2.553
  708TIP3   OH2 2064   5.559   5.102   0.455
  708TIP3    H1 2065   5.530   5.049   0.529
  708TIP3    H2 2066   5.507   5.071   0.381
  709TIP3   OH2 2067   2.216   4.611   6.631
  709TIP3    H1 2068   2.151   4.663   6.583
  709TIP3    H2 2069   2.295   4.665   6.630
  710TIP3   OH2 2070   8.009   3.060   6.589
  710TIP3    H1 2071   8.037   3.052   6.498
  710TIP3    H2 2072   7.988   3.152   6.600
  711TIP3   OH2 2073   0.262   6.652   6.228
  711TIP3    H1 2074   0.220   6.664   6.314
  711TIP3    H2 2075   0.296   6.739   6.207
  712TIP3   OH2 2076   4.313   3.281   5.537
  712TIP3    H1 2077   4.304   3.195   5.497
  712TIP3    H2 2078   4.228   3.299   5.577
  713TIP3   OH2 2079   0.473   7.344   6.286
  713TIP3    H1 2080   0.543   7.282   6.307
  713TIP3    H2 2081   0.514   7.430   6.293
  714TIP3   OH2 2082   1.355   2.192   4.752
  714TIP3    H1 2083   1.382   2.109   4.790
  714TIP3    H2 2084   1.291   2.168   4.685
  715TIP3   OH2 2085   2.984   2.962   4.913
  715TIP3    H1 2086   2.950   2.873   4.919
  715TIP3    H2 2087   2.912   3.013   4.875
  716TIP3   OH2 2088   8.196   3.067   4.534
  716TIP3    H1 2089   8.219   2.987   4.487
  716TIP3    H2 2090   8.261   3.073   4.604
  717TIP3   OH2 2091   5.555   5.160   4.468
  717TIP3    H1 2092   5.615   5.187   4.399
  717TIP3    H2 2093   5.606   5.167   4.549
  718TIP3   OH2 2094   4.041   5.013   5.981
  718TIP3    H1 2095   3.986   4.935   5.991
  718TIP3    H2 2096   3.982   5.086   5.996
  719TIP3   OH2 2097   6.661   4.088   4.961
  719TIP3    H1 2098   6.652   4.170   5.009
  719TIP3    H2 2099   6.587   4.087   4.900
  720TIP3   OH2 2100   4.036   1.074   2.984
  720TIP3    H1 2101   4.039   0.986   2.945
  720TIP3    H2 2102   4.088   1.128   2.925
  721TIP3   OH2 2103   2.579   1.064   6.468
  721TIP3    H1 2104   2.601   1.152   6.438
  721TIP3    H2 2105   2.592   1.068   6.563
  722TIP3   OH2 2106   5.310   2.630   1.333
  722TIP3    H1 2107   5.305   2.668   1.245
  722TIP3    H2 2108   5.312   2.705   1.392
  723TIP3   OH2 2109   8.163   1.767   6.256
  723TIP3    H1 2110   8.096   1.800   6.197
  723TIP3    H2 2111   8.227   1.726   6.198
  724TIP3   OH2 2112   7.582   1.070   1.424
  724TIP3    H1 2113   7.624   0.984   1.418
  724TIP3    H2 2114   7.652   1.129   1.453
  725TIP3   OH2 2115   8.149   1.880   6.507
  725TIP3    H1 2116   8.150   1.813   6.438
  725TIP3    H2 2117   8.241   1.894   6.528
  726TIP3   OH2 2118   3.719   3.929   6.515
  726TIP3    H1 2119   3.802   3.975   6.530
  726TIP3    H2 2120   3.727   3.891   6.428
  727TIP3   OH2 2121   3.128   0.813   5.825
  727TIP3    H1 2122   3.042   0.780   5.849
  727TIP3    H2 2123   3.111   0.873   5.752
  728TIP3   OH2 2124   3.043   0.156   3.915
  728TIP3    H1 2125   2.948   0.163   3.907
  728TIP3    H2 2126   3.063   0.195   4.000
  729TIP3   OH2 2127   0.476   2.879   1.037
  729TIP3    H1 2128   0.549   2.843   0.987
  729TIP3    H2 2129   0.405   2.889   0.973
  730TIP3   OH2 2130   2.199   6.073   3.543
  730TIP3    H1 2131   2.141   5.997   3.542
  730TIP3    H2 2132   2.142   6.146   3.566
  731TIP3   OH2 2133   0.181   4.779   2.093
  731TIP3    H1 2134   0.187   4.872   2.070
  731TIP3    H2 2135   0.256   4.764   2.150
  732TIP3   OH2 2136   0.773   3.916   0.924
  732TIP3    H1 2137   0.707   3.970   0.967
  732TIP3    H2 2138   0.767   3.830   0.967
  733TIP3   OH2 2139   8.019   0.437   1.778
  733TIP3    H1 2140   8.034   0.397   1.863
  733TIP3    H2 2141   8.095   0.494   1.765
  734TIP3   OH2 2142   3.210   7.197   3.140
  734TIP3    H1 2143   3.259   7.116   3.156
  734TIP3    H2 2144   3.234   7.254   3.213
  735TIP3   OH2 2145   3.167   5.116   0.297
  735TIP3    H1 2146   3.170   5.176   0.223
  735TIP3    H2 2147   3.226   5.156   0.362
  736TIP3   OH2 2148   6.440   5.684   3.067
  736TIP3    H1 2149   6.517   5.739   3.086
  736TIP3    H2 2150   6.451   5.659   2.976
  737TIP3   OH2 2151   5.480   3.161   3.667
  737TIP3    H1 2152   5.467   3.069   3.642
  737TIP3    H2 2153   5.560   3.188   3.621
  738TIP3   OH2 2154   1.094   6.694   2.384
  738TIP3    H1 2155   1.111   6.769   2.328
  738TIP3    H2 2156   1.122   6.722   2.471
  739TIP3   OH2 2157   6.571   1.778   5.319
  739TIP3    H1 2158   6.630   1.825   5.260
  739TIP3    H2 2159   6.568   1.831   5.399
  740TIP3   OH2 2160   0.619   1.238   6.390
  740TIP3    H1 2161   0.714   1.240   6.387
  740TIP3    H2 2162   0.598   1.156   6.436
  741TIP3   OH2 2163   7.247   2.777   6.643
  741TIP3    H1 2164   7.274   2.703   6.698
  741TIP3    H2 2165   7.329   2.811   6.606
  742TIP3   OH2 2166   0.524   6.721   5.822
  742TIP3    H1 2167   0.550   6.801   5.777
  742TIP3    H2 2168   0.494   6.751   5.908
  743TIP3   OH2 2169   0.028   7.059   0.243
  743TIP3    H1 2170  -0.006   6.978   0.282
  743TIP3    H2 2171  -0.028   7.128   0.278
  744TIP3   OH2 2172   6.717   0.824   0.847
  744TIP3    H1 2173   6.751   0.863   0.928
  744TIP3    H2 2174   6.654   0.888   0.814
  745TIP3   OH2 2175   4.618   1.319   0.389
  745TIP3    H1 2176   4.593   1.381   0.457
  745TIP3    H2 2177   4.585   1.235   0.420
  746TIP3   OH2 2178   6.563   4.216   3.778
  746TIP3    H1 2179   6.644   4.180   3.814
  746TIP3    H2 2180   6.555   4.176   3.691
  747TIP3   OH2 2181   3.452   3.857   2.972
  747TIP3    H1 2182   3.487   3.916   3.039
  747TIP3    H2 2183   3.412   3.915   2.907
  748TIP3   OH2 2184   7.776   0.273   2.540
  748TIP3    H1 2185   7.871   0.270   2.547
  748TIP3    H2 2186   7.757   0.239   2.453
  749TIP3   OH2 2187   3.250   1.974   1.770
  749TIP3    H1 2188   3.230   2.002   1.859
  749TIP3    H2 2189   3.262   1.880   1.777
  750TIP3   OH2 2190   1.501   7.601   6.235
  750TIP3    H1 2191   1.551   7.601   6.317
  750TIP3    H2 2192   1.473   7.510   6.224
  751TIP3   OH2 2193   7.410   0.816   1.471
  751TIP3    H1 2194   7.479   0.790   1.532
  751TIP3    H2 2195   7.378   0.899   1.506
  752TIP3   OH2 2196   4.427   2.514   2.365
  752TIP3    H1 2197   4.412   2.609   2.370
  752TIP3    H2 2198   4.413   2.483   2.454
  753TIP3   OH2 2199   6.574   2.517   3.227
  753TIP3    H1 2200   6.587   2.607   3.197
  753TIP3    H2 2201   6.480   2.503   3.220
  754TIP3   OH2 2202   6.087   0.784   5.864
  754TIP3    H1 2203   6.080   0.716   5.797
  754TIP3    H2 2204   6.108   0.735   5.944
  755TIP3   OH2 2205   7.277   1.760   4.998
  755TIP3    H1 2206   7.353   1.776   5.055
  755TIP3    H2 2207   7.227   1.841   5.001
  756TIP3   OH2 2208   2.126   0.586   3.925
  756TIP3    H1 2209   2.160   0.539   4.001
  756TIP3    H2 2210   2.133   0.524   3.853
  757TIP3   OH2 2211   5.359   5.940   5.413
  757TIP3    H1 2212   5.365   5.943   5.509
  757TIP3    H2 2213   5.347   5.847   5.393
  758TIP3   OH2 2214   0.550   1.767   3.386
  758TIP3    H1 2215   0.645   1.751   3.383
  758TIP3    H2 2216   0.525   1.745   3.476
  759TIP3   OH2 2217   2.338   1.450   3.184
  759TIP3    H1 2218   2.433   1.438   3.178
  759TIP3    H2 2219   2.328   1.534   3.229
  760TIP3   OH2 2220   5.634   5.652   3.132
  760TIP3    H1 2221   5.716   5.602   3.135
  760TIP3    H2 2222   5.637   5.697   3.047
  761TIP3   OH2 2223   3.853   3.518   1.458
  761TIP3    H1 2224   3.768   3.516   1.504
  761TIP3    H2 2225   3.895   3.436   1.482
  762TIP3   OH2 2226   2.830   3.924   5.053
  762TIP3    H1 2227   2.919   3.920   5.088
  762TIP3    H2 2228   2.775   3.943   5.129
  763TIP3   OH2 2229   2.478   5.186  -0.002
  763TIP3    H1 2230   2.429   5.120   0.047
  763TIP3    H2 2231   2.460   5.268   0.044
  764TIP3   OH2 2232   2.124   1.181   5.202
  764TIP3    H1 2233   2.169   1.261   5.230
  764TIP3    H2 2234   2.044   1.180   5.255
  765TIP3   OH2 2235   1.029   6.188   5.163
  765TIP3    H1 2236   1.082   6.268   5.159
  765TIP3    H2 2237   1.060   6.143   5.242
  766TIP3   OH2 2238   4.333   6.792   1.711
  766TIP3    H1 2239   4.344   6.736   1.788
  766TIP3    H2 2240   4.416   6.784   1.664
  767TIP3   OH2 2241   1.474   3.218   1.796
  767TIP3    H1 2242   1.493   3.301   1.753
  767TIP3    H2 2243   1.433   3.165   1.727
  768TIP3   OH2 2244   4.805   0.872   4.553
  768TIP3    H1 2245   4.897   0.878   4.529
  768TIP3    H2 2246   4.758   0.876   4.470
  769TIP3   OH2 2247   2.315   1.121   5.572
  769TIP3    H1 2248   2.272   1.120   5.486
  769TIP3    H2 2249   2.249   1.158   5.631
  770TIP3   OH2 2250   4.800   3.102   4.344
  770TIP3    H1 2251   4.725   3.051   4.374
  770TIP3    H2 2252   4.874   3.069   4.396
  771TIP3   OH2 2253   7.618   0.367   4.815
  771TIP3    H1 2254   7.712   0.388   4.811
  771TIP3    H2 2255   7.583   0.400   4.733
  772TIP3   OH2 2256   1.664   2.213   3.215
  772TIP3    H1 2257   1.733   2.224   3.281
  772TIP3    H2 2258   1.703   2.246   3.134
  773TIP3   OH2 2259   0.578   6.808   0.946
  773TIP3    H1 2260   0.512   6.747   0.915
  773TIP3    H2 2261   0.629   6.831   0.869
  774TIP3   OH2 2262   3.944   2.774   0.560
  774TIP3    H1 2263   3.852   2.789   0.581
  774TIP3    H2 2264   3.991   2.845   0.603
  775TIP3   OH2 2265   1.243   6.619   2.096
  775TIP3    H1 2266   1.194   6.629   2.177
  775TIP3    H2 2267   1.323   6.574   2.121
  776TIP3   OH2 2268   4.438   2.155   6.836
  776TIP3    H1 2269   4.461   2.133   6.745
  776TIP3    H2 2270   4.514   2.128   6.887
  777TIP3   OH2 2271   4.391   3.521   6.771
  777TIP3    H1 2272   4.484   3.518   6.749
  777TIP3    H2 2273   4.382   3.457   6.842
  778TIP3   OH2 2274   2.260   5.202   0.333
  778TIP3    H1 2275   2.317   5.177   0.406
  778TIP3    H2 2276   2.279   5.138   0.265
  779TIP3   OH2 2277   0.050   2.001   1.729
  779TIP3    H1 2278  -0.001   2.031   1.654
  779TIP3    H2 2279   0.053   2.077   1.788
  780TIP3   OH2 2280   4.569   4.916   0.882
  780TIP3    H1 2281   4.661   4.933   0.864
  780TIP3    H2 2282   4.566   4.826   0.914
  781TIP3   OH2 2283   7.692   0.379   5.243
  781TIP3    H1 2284   7.604   0.401   5.273
  781TIP3    H2 2285   7.748   0.399   5.317
  782TIP3   OH2 2286   0.141   2.476   3.519
  782TIP3    H1 2287   0.103   2.522   3.594
  782TIP3    H2 2288   0.225   2.519   3.505
  783TIP3   OH2 2289   4.364   6.766   0.433
  783TIP3    H1 2290   4.442   6.727   0.473
  783TIP3    H2 2291   4.292   6.745   0.493
  784TIP3   OH2 2292   6.958   5.284   3.515
  784TIP3    H1 2293   6.995   5.305   3.601
  784TIP3    H2 2294   7.032   5.293   3.455
  785TIP3   OH2 2295   7.914   4.876   6.752
  785TIP3    H1 2296   7.929   4.928   6.831
  785TIP3    H2 2297   7.820   4.884   6.736
  786TIP3   OH2 2298   4.682   6.310   1.459
  786TIP3    H1 2299   4.616   6.378   1.464
  786TIP3    H2 2300   4.633   6.228   1.470
  787TIP3   OH2 2301   2.643   2.385   2.282
  787TIP3    H1 2302   2.592   2.461   2.309
  787TIP3    H2 2303   2.696   2.363   2.359
  788TIP3   OH2 2304   7.757   5.642   5.332
  788TIP3    H1 2305   7.744   5.551   5.304
  788TIP3    H2 2306   7.852   5.652   5.336
  789TIP3   OH2 2307   1.606   0.775   4.457
  789TIP3    H1 2308   1.622   0.808   4.368
  789TIP3    H2 2309   1.662   0.698   4.465
  790TIP3   OH2 2310   2.906   4.467   5.412
  790TIP3    H1 2311   2.918   4.529   5.341
  790TIP3    H2 2312   2.992   4.462   5.454
  791TIP3   OH2 2313   5.810   6.502   1.100
  791TIP3    H1 2314   5.804   6.550   1.018
  791TIP3    H2 2315   5.900   6.517   1.130
  792TIP3   OH2 2316   5.693   4.418   2.349
  792TIP3    H1 2317   5.699   4.436   2.255
  792TIP3    H2 2318   5.752   4.344   2.363
  793TIP3   OH2 2319   4.327   5.342   4.232
  793TIP3    H1 2320   4.412   5.342   4.189
  793TIP3    H2 2321   4.292   5.430   4.217
  794TIP3   OH2 2322   2.420   5.114   3.118
  794TIP3    H1 2323   2.336   5.070   3.133
  794TIP3    H2 2324   2.434   5.107   3.023
  795TIP3   OH2 2325   6.734   4.759   1.784
  795TIP3    H1 2326   6.703   4.794   1.868
  795TIP3    H2 2327   6.772   4.834   1.739
  796TIP3   OH2 2328   8.361   2.321   3.150
  796TIP3    H1 2329   8.385   2.348   3.239
  796TIP3    H2 2330   8.348   2.403   3.102
  797TIP3   OH2 2331   6.765   1.018   0.588
  797TIP3    H1 2332   6.695   1.044   0.647
  797TIP3    H2 2333   6.720   0.992   0.507
  798TIP3   OH2 2334   7.806   4.278   4.557
  798TIP3    H1 2335   7.810   4.367   4.593
  798TIP3    H2 2336   7.857   4.225   4.617
  799TIP3   OH2 2337   4.444   5.442   6.412
  799TIP3    H1 2338   4.441   5.537   6.415
  799TIP3    H2 2339   4.376   5.418   6.349
  800TIP3   OH2 2340   2.799   2.807   6.189
  800TIP3    H1 2341   2.773   2.716   6.182
  800TIP3    H2 2342   2.815   2.834   6.098
  801TIP3   OH2 2343   3.612   2.894   6.427
  801TIP3    H1 2344   3.538   2.909   6.369
  801TIP3    H2 2345   3.597   2.806   6.463
  802TIP3   OH2 2346   4.764   6.037   4.962
  802TIP3    H1 2347   4.787   5.945   4.950
  802TIP3    H2 2348   4.764   6.050   5.057
  803TIP3   OH2 2349   4.844   0.088   1.927
  803TIP3    H1 2350   4.790   0.148   1.978
  803TIP3    H2 2351   4.843   0.006   1.977
  804TIP3   OH2 2352   7.332   1.754   0.835
  804TIP3    H1 2353   7.403   1.798   0.789
  804TIP3    H2 2354   7.311   1.678   0.781
  805TIP3   OH2 2355   3.000   6.718   1.384
  805TIP3    H1 2356   3.049   6.764   1.316
  805TIP3    H2 2357   3.007   6.625   1.360
  806TIP3   OH2 2358   6.641   7.436   0.251
  806TIP3    H1 2359   6.648   7.342   0.267
  806TIP3    H2 2360   6.717   7.456   0.196
  807TIP3   OH2 2361   2.925   0.417   2.949
  807TIP3    H1 2362   2.931   0.386   3.040
  807TIP3    H2 2363   2.996   0.372   2.904
  808TIP3   OH2 2364   1.616   6.475   0.389
  808TIP3    H1 2365   1.546   6.418   0.359
  808TIP3    H2 2366   1.677   6.417   0.434
  809TIP3   OH2 2367   5.520   5.317   2.683
  809TIP3    H1 2368   5.485   5.232   2.656
  809TIP3    H2 2369   5.582   5.340   2.614
  810TIP3   OH2 2370   7.015   5.366   5.120
  810TIP3    H1 2371   7.080   5.311   5.076
  810TIP3    H2 2372   6.932   5.319   5.110
  811TIP3   OH2 2373   6.467   0.579   5.945
  811TIP3    H1 2374   6.406   0.569   5.871
  811TIP3    H2 2375   6.412   0.609   6.017
  812TIP3   OH2 2376   2.781   4.045   5.539
  812TIP3    H1 2377   2.865   4.079   5.569
  812TIP3    H2 2378   2.717   4.111   5.568
  813TIP3   OH2 2379   1.914   1.776   3.162
  813TIP3    H1 2380   1.945   1.845   3.220
  813TIP3    H2 2381   1.991   1.754   3.108
  814TIP3   OH2 2382   6.428   4.971   5.024
  814TIP3    H1 2383   6.397   5.056   5.053
  814TIP3    H2 2384   6.360   4.909   5.052
  815TIP3   OH2 2385   3.913   6.887   6.257
  815TIP3    H1 2386   3.965   6.968   6.257
  815TIP3    H2 2387   3.966   6.824   6.305
  816TIP3   OH2 2388   7.482   5.727   3.626
  816TIP3    H1 2389   7.415   5.775   3.675
  816TIP3    H2 2390   7.449   5.724   3.536
  817TIP3   OH2 2391   3.610   2.343   2.096
  817TIP3    H1 2392   3.516   2.333   2.111
  817TIP3    H2 2393   3.622   2.328   2.002
  818TIP3   OH2 2394   5.283   4.358   2.407
  818TIP3    H1 2395   5.227   4.348   2.485
  818TIP3    H2 2396   5.331   4.439   2.423
  819TIP3   OH2 2397   4.013   1.037   5.756
  819TIP3    H1 2398   4.082   1.102   5.756
  819TIP3    H2 2399   3.964   1.053   5.676
  820TIP3   OH2 2400   4.587   1.005   2.189
  820TIP3    H1 2401   4.502   1.045   2.169
  820TIP3    H2 2402   4.565   0.917   2.219
  821TIP3   OH2 2403   7.776   4.323   5.811
  821TIP3    H1 2404   7.696   4.300   5.764
  821TIP3    H2 2405   7.757   4.298   5.902
  822TIP3   OH2 2406   5.647   7.283   0.524
  822TIP3    H1 2407   5.612   7.195   0.521
  822TIP3    H2 2408   5.740   7.271   0.544
  823TIP3   OH2 2409   6.988   1.833   1.119
  823TIP3    H1 2410   6.941   1.916   1.112
  823TIP3    H2 2411   6.976   1.806   1.210
  824TIP3   OH2 2412   4.559   5.479   5.078
  824TIP3    H1 2413   4.604   5.543   5.022
  824TIP3    H2 2414   4.511   5.423   5.017
  825TIP3   OH2 2415   4.275   0.282   3.984
  825TIP3    H1 2416   4.356   0.292   3.934
  825TIP3    H2 2417   4.229   0.209   3.941
  826TIP3   OH2 2418   5.965   7.377   4.524
  826TIP3    H1 2419   6.017   7.342   4.595
  826TIP3    H2 2420   5.875   7.354   4.546
  827TIP3   OH2 2421   0.570   2.673   4.932
  827TIP3    H1 2422   0.492   2.638   4.976
  827TIP3    H2 2423   0.618   2.596   4.903
  828TIP3   OH2 2424   7.820   6.929   5.053
  828TIP3    H1 2425   7.754   6.886   5.108
  828TIP3    H2 2426   7.808   6.890   4.966
  829TIP3   OH2 2427   5.556   2.771   1.081
  829TIP3    H1 2428   5.593   2.859   1.080
  829TIP3    H2 2429   5.624   2.717   1.123
  830TIP3   OH2 2430   0.989   1.377   4.178
  830TIP3    H1 2431   0.974   1.348   4.268
  830TIP3    H2 2432   0.973   1.299   4.125
  831TIP3   OH2 2433   4.584   7.565   2.564
  831TIP3    H1 2434   4.642   7.496   2.598
  831TIP3    H2 2435   4.505   7.518   2.536
  832TIP3   OH2 2436   4.983   5.090   3.753
  832TIP3    H1 2437   4.994   5.009   3.804
  832TIP3    H2 2438   4.946   5.061   3.669
  833TIP3   OH2 2439   2.833   3.897   6.846
  833TIP3    H1 2440   2.787   3.816   6.826
  833TIP3    H2 2441   2.780   3.965   6.805
  834TIP3   OH2 2442   7.864   7.470   1.388
  834TIP3    H1 2443   7.874   7.375   1.382
  834TIP3    H2 2444   7.841   7.486   1.480
  835TIP3   OH2 2445   3.106   4.449   4.462
  835TIP3    H1 2446   3.099   4.497   4.379
  835TIP3    H2 2447   3.033   4.387   4.461
  836TIP3   OH2 2448   6.837   5.387   0.838
  836TIP3    H1 2449   6.888   5.465   0.815
  836TIP3    H2 2450   6.856   5.324   0.769
  837TIP3   OH2 2451   5.153   1.983   6.876
  837TIP3    H1 2452   5.113   1.899   6.854
  837TIP3    H2 2453   5.201   2.007   6.796
  838TIP3   OH2 2454   3.898   1.538   0.017
  838TIP3    H1 2455   3.809   1.508   0.033
  838TIP3    H2 2456   3.907   1.616   0.072
  839TIP3   OH2 2457   6.868   0.867   1.342
  839TIP3    H1 2458   6.956   0.905   1.339
  839TIP3    H2 2459   6.830   0.902   1.423
  840TIP3   OH2 2460  -0.008   6.317   5.553
  840TIP3    H1 2461  -0.043   6.288   5.469
  840TIP3    H2 2462   0.081   6.282   5.556
  841TIP3   OH2 2463   6.875   2.029   3.094
  841TIP3    H1 2464   6.787   2.046   3.060
  841TIP3    H2 2465   6.914   1.968   3.032
  842TIP3   OH2 2466   4.058   4.887   4.285
  842TIP3    H1 2467   3.970   4.878   4.319
  842TIP3    H2 2468   4.068   4.816   4.222
  843TIP3   OH2 2469   1.995   4.185   1.361
  843TIP3    H1 2470   2.088   4.202   1.373
  843TIP3    H2 2471   1.957   4.196   1.448
  844TIP3   OH2 2472   0.115   7.657   6.447
  844TIP3    H1 2473   0.037   7.685   6.497
  844TIP3    H2 2474   0.089   7.575   6.406
  845TIP3   OH2 2475   5.397   4.558   1.802
  845TIP3    H1 2476   5.355   4.568   1.717
  845TIP3    H2 2477   5.330   4.584   1.866
  846TIP3   OH2 2478   7.046   3.893   1.009
  846TIP3    H1 2479   6.992   3.932   0.940
  846TIP3    H2 2480   7.115   3.958   1.024
  847TIP3   OH2 2481   5.991   2.755   4.108
  847TIP3    H1 2482   5.964   2.846   4.107
  847TIP3    H2 2483   5.977   2.726   4.198
  848TIP3   OH2 2484   2.909   1.363   5.454
  848TIP3    H1 2485   2.975   1.319   5.400
  848TIP3    H2 2486   2.960   1.416   5.515
  849TIP3   OH2 2487   5.204   2.039   6.340
  849TIP3    H1 2488   5.184   2.105   6.406
  849TIP3    H2 2489   5.286   2.068   6.301
  850TIP3   OH2 2490   0.559   5.956   1.569
  850TIP3    H1 2491   0.565   5.983   1.660
  850TIP3    H2 2492   0.503   6.022   1.528
  851TIP3   OH2 2493   1.678   6.137   5.433
  851TIP3    H1 2494   1.694   6.215   5.379
  851TIP3    H2 2495   1.693   6.064   5.373
  852TIP3   OH2 2496   6.203   5.891   4.254
  852TIP3    H1 2497   6.275   5.831   4.276
  852TIP3    H2 2498   6.141   5.881   4.326
  853TIP3   OH2 2499   1.905   6.126   0.768
  853TIP3    H1 2500   1.907   6.182   0.846
  853TIP3    H2 2501   1.997   6.110   0.748
  854TIP3   OH2 2502   3.650   0.780   4.908
  854TIP3    H1 2503   3.631   0.755   4.999
  854TIP3    H2 2504   3.642   0.699   4.859
  855TIP3   OH2 2505   6.883   2.146   4.097
  855TIP3    H1 2506   6.811   2.083   4.085
  855TIP3    H2 2507   6.942   2.104   4.159
  856TIP3   OH2 2508   7.481   5.746   5.398
  856TIP3    H1 2509   7.470   5.810   5.328
  856TIP3    H2 2510   7.464   5.795   5.479
  857TIP3   OH2 2511   2.648   3.951   0.058
  857TIP3    H1 2512   2.635   3.872   0.111
  857TIP3    H2 2513   2.614   3.928  -0.029
  858TIP3   OH2 2514   7.503   1.363   2.842
  858TIP3    H1 2515   7.571   1.383   2.905
  858TIP3    H2 2516   7.537   1.396   2.759
  859TIP3   OH2 2517   0.455   7.951   1.609
  859TIP3    H1 2518   0.397   7.890   1.564
  859TIP3    H2 2519   0.406   7.979   1.686
  860TIP3   OH2 2520   4.904   1.353   2.114
  860TIP3    H1 2521   4.958   1.423   2.152
  860TIP3    H2 2522   4.858   1.316   2.190
  861TIP3   OH2 2523   0.204   3.023   4.695
  861TIP3    H1 2524   0.109   3.024   4.711
  861TIP3    H2 2525   0.234   2.943   4.736
  862TIP3   OH2 2526   1.487   5.952   4.520
  862TIP3    H1 2527   1.475   5.914   4.607
  862TIP3    H2 2528   1.557   6.017   4.531
  863TIP3   OH2 2529   4.973   6.736   6.693
  863TIP3    H1 2530   5.039   6.805   6.699
  863TIP3    H2 2531   5.023   6.655   6.698
  864TIP3   OH2 2532   0.464   0.619   4.495
  864TIP3    H1 2533   0.555   0.609   4.468
  864TIP3    H2 2534   0.418   0.549   4.450
  865TIP3   OH2 2535   0.153   6.370   3.583
  865TIP3    H1 2536   0.080   6.314   3.608
  865TIP3    H2 2537   0.149   6.443   3.645
  866TIP3   OH2 2538   0.571   0.953   6.117
  866TIP3    H1 2539   0.655   0.996   6.129
  866TIP3    H2 2540   0.547   0.971   6.026
  867TIP3   OH2 2541   4.043   1.376   2.134
  867TIP3    H1 2542   4.014   1.301   2.083
  867TIP3    H2 2543   4.120   1.409   2.087
  868TIP3   OH2 2544   3.229   3.749   3.769
  868TIP3    H1 2545   3.202   3.688   3.700
  868TIP3    H2 2546   3.185   3.718   3.848
  869TIP3   OH2 2547   6.214   1.967   6.581
  869TIP3    H1 2548   6.170   2.048   6.556
  869TIP3    H2 2549   6.277   1.951   6.511
  870TIP3   OH2 2550   5.537   2.954   0.088
  870TIP3    H1 2551   5.474   3.010   0.134
  870TIP3    H2 2552   5.490   2.871   0.077
  871TIP3   OH2 2553   4.671   6.399   3.020
  871TIP3    H1 2554   4.766   6.400   3.036
  871TIP3    H2 2555   4.633   6.367   3.101
  872TIP3   OH2 2556   4.564   2.538   2.889
  872TIP3    H1 2557   4.608   2.460   2.922
  872TIP3    H2 2558   4.484   2.544   2.940
  873TIP3   OH2 2559   7.107   5.478   0.621
  873TIP3    H1 2560   7.130   5.514   0.536
  873TIP3    H2 2561   7.066   5.550   0.668
  874TIP3   OH2 2562   2.632   6.562   1.439
  874TIP3    H1 2563   2.694   6.546   1.511
  874TIP3    H2 2564   2.678   6.625   1.383
  875TIP3   OH2 2565   0.229   7.115   1.783
  875TIP3    H1 2566   0.195   7.096   1.870
  875TIP3    H2 2567   0.221   7.033   1.735
  876TIP3   OH2 2568   6.466   1.039   2.313
  876TIP3    H1 2569   6.417   1.075   2.239
  876TIP3    H2 2570   6.531   1.106   2.334
  877TIP3   OH2 2571   2.877   5.490   4.910
  877TIP3    H1 2572   2.799   5.445   4.876
  877TIP3    H2 2573   2.859   5.501   5.003
  878TIP3   OH2 2574   4.822   0.958   0.467
  878TIP3    H1 2575   4.836   0.910   0.386
  878TIP3    H2 2576   4.735   0.996   0.458
  879TIP3   OH2 2577   4.016   0.011   1.814
  879TIP3    H1 2578   3.983   0.043   1.898
  879TIP3    H2 2579   3.988  -0.080   1.811
  880TIP3   OH2 2580   1.075   2.010   0.044
  880TIP3    H1 2581   0.983   2.010   0.019
  880TIP3    H2 2582   1.114   2.083  -0.004
  881TIP3   OH2 2583   0.983   5.244   5.581
  881TIP3    H1 2584   0.961   5.286   5.664
  881TIP3    H2 2585   1.051   5.181   5.603
  882TIP3   OH2 2586   7.584   7.259   1.014
  882TIP3    H1 2587   7.668   7.303   1.030
  882TIP3    H2 2588   7.540   7.261   1.099
  883TIP3   OH2 2589   0.259   7.625   1.753
  883TIP3    H1 2590   0.301   7.673   1.682
  883TIP3    H2 2591   0.249   7.536   1.719
  884TIP3   OH2 2592   1.988   3.027   2.919
  884TIP3    H1 2593   2.055   3.019   2.987
  884TIP3    H2 2594   1.994   2.945   2.870
  885TIP3   OH2 2595   7.026   5.257   2.835
  885TIP3    H1 2596   6.996   5.251   2.925
  885TIP3    H2 2597   6.996   5.343   2.805
  886TIP3   OH2 2598   4.616   2.125   0.602
  886TIP3    H1 2599   4.628   2.032   0.583
  886TIP3    H2 2600   4.608   2.166   0.515
  887TIP3   OH2 2601   1.947   0.207   6.593
  887TIP3    H1 2602   1.906   0.251   6.519
  887TIP3    H2 2603   1.888   0.224   6.666
  888TIP3   OH2 2604   2.462   4.940   4.682
  888TIP3    H1 2605   2.534   4.944   4.745
  888TIP3    H2 2606   2.482   4.864   4.628
  889TIP3   OH2 2607   8.378   5.514   6.241
  889TIP3    H1 2608   8.363   5.608   6.232
  889TIP3    H2 2609   8.294   5.478   6.268
  890TIP3   OH2 2610   2.445   5.990   5.533
  890TIP3    H1 2611   2.507   6.052   5.495
  890TIP3    H2 2612   2.391   6.043   5.592
  891TIP3   OH2 2613   0.753   2.564   1.247
  891TIP3    H1 2614   0.801   2.492   1.288
  891TIP3    H2 2615   0.815   2.599   1.182
  892TIP3   OH2 2616   2.229   6.156   3.146
  892TIP3    H1 2617   2.284   6.207   3.205
  892TIP3    H2 2618   2.160   6.217   3.120
  893TIP3   OH2 2619   0.509   7.128   2.299
  893TIP3    H1 2620   0.523   7.215   2.335
  893TIP3    H2 2621   0.558   7.070   2.358
  894TIP3   OH2 2622   7.386   3.089   2.971
  894TIP3    H1 2623   7.448   3.059   3.038
  894TIP3    H2 2624   7.347   3.009   2.936
  895TIP3   OH2 2625   3.274   0.759   0.797
  895TIP3    H1 2626   3.360   0.733   0.831
  895TIP3    H2 2627   3.287   0.766   0.702
  896TIP3   OH2 2628   0.315   5.701   0.635
  896TIP3    H1 2629   0.319   5.649   0.555
  896TIP3    H2 2630   0.384   5.665   0.691
  897TIP3   OH2 2631   7.411   6.437   3.458
  897TIP3    H1 2632   7.484   6.500   3.460
  897TIP3    H2 2633   7.420   6.392   3.374
  898TIP3   OH2 2634   7.277   2.096   4.524
  898TIP3    H1 2635   7.225   2.141   4.457
  898TIP3    H2 2636   7.212   2.065   4.587
  899TIP3   OH2 2637   1.670   3.366   3.783
  899TIP3    H1 2638   1.711   3.280   3.770
  899TIP3    H2 2639   1.704   3.419   3.711
  900TIP3   OH2 2640   5.295   2.945   2.101
  900TIP3    H1 2641   5.267   2.989   2.181
  900TIP3    H2 2642   5.391   2.948   2.105
  901TIP3   OH2 2643   1.181   7.970   2.703
  901TIP3    H1 2644   1.166   7.876   2.710
  901TIP3    H2 2645   1.139   7.995   2.621
  902TIP3   OH2 2646   4.949   3.294   5.298
  902TIP3    H1 2647   5.011   3.361   5.328
  902TIP3    H2 2648   4.893   3.278   5.374
  903TIP3   OH2 2649   3.025   0.737   2.134
  903TIP3    H1 2650   2.996   0.677   2.202
  903TIP3    H2 2651   3.031   0.822   2.178
  904TIP3   OH2 2652   7.694   4.179   4.026
  904TIP3    H1 2653   7.697   4.096   4.075
  904TIP3    H2 2654   7.708   4.246   4.092
  905TIP3   OH2 2655   7.466   7.909   2.260
  905TIP3    H1 2656   7.515   7.844   2.310
  905TIP3    H2 2657   7.407   7.948   2.324
  906TIP3   OH2 2658   5.630   0.804   6.629
  906TIP3    H1 2659   5.568   0.796   6.556
  906TIP3    H2 2660   5.578   0.843   6.699
  907TIP3   OH2 2661   0.577   7.031   3.053
  907TIP3    H1 2662   0.494   7.075   3.036
  907TIP3    H2 2663   0.584   6.965   2.985
  908TIP3   OH2 2664   4.956   5.508   0.366
  908TIP3    H1 2665   4.959   5.535   0.274
  908TIP3    H2 2666   5.011   5.430   0.369
  909TIP3   OH2 2667   2.194   5.566   1.154
  909TIP3    H1 2668   2.101   5.543   1.165
  909TIP3    H2 2669   2.226   5.578   1.244
  910TIP3   OH2 2670   4.938   3.658   3.849
  910TIP3    H1 2671   5.008   3.635   3.789
  910TIP3    H2 2672   4.916   3.577   3.894
  911TIP3   OH2 2673   3.578   4.102   6.248
  911TIP3    H1 2674   3.512   4.051   6.296
  911TIP3    H2 2675   3.615   4.041   6.185
  912TIP3   OH2 2676   1.815   0.146   1.919
  912TIP3    H1 2677   1.766   0.074   1.960
  912TIP3    H2 2678   1.762   0.224   1.935
  913TIP3   OH2 2679   2.737   1.796   1.098
  913TIP3    H1 2680   2.727   1.853   1.022
  913TIP3    H2 2681   2.819   1.822   1.138
  914TIP3   OH2 2682   0.308   0.774   5.537
  914TIP3    H1 2683   0.263   0.714   5.597
  914TIP3    H2 2684   0.252   0.775   5.459
  915TIP3   OH2 2685   5.645   6.578   6.362
  915TIP3    H1 2686   5.734   6.553   6.386
  915TIP3    H2 2687   5.638   6.670   6.387
  916TIP3   OH2 2688   5.279   4.684   5.872
  916TIP3    H1 2689   5.317   4.600   5.849
  916TIP3    H2 2690   5.214   4.701   5.804
  917TIP3   OH2 2691   2.302   4.210   0.677
  917TIP3    H1 2692   2.274   4.219   0.768
  917TIP3    H2 2693   2.334   4.297   0.652
  918TIP3   OH2 2694   4.275   7.496   2.447
  918TIP3    H1 2695   4.180   7.501   2.431
  918TIP3    H2 2696   4.308   7.437   2.380
  919TIP3   OH2 2697   0.035   4.554   0.607
  919TIP3    H1 2698  -0.051   4.516   0.587
  919TIP3    H2 2699   0.025   4.592   0.694
  920TIP3   OH2 2700   7.940   0.516   4.158
  920TIP3    H1 2701   8.011   0.465   4.120
  920TIP3    H2 2702   7.862   0.484   4.113
  921TIP3   OH2 2703   4.092   6.075   1.845
  921TIP3    H1 2704   4.009   6.114   1.875
  921TIP3    H2 2705   4.066   6.016   1.774
  922TIP3   OH2 2706   1.175   1.950   5.536
  922TIP3    H1 2707   1.164   1.916   5.447
  922TIP3    H2 2708   1.268   1.940   5.554
  923TIP3   OH2 2709   7.648   4.838   6.630
  923TIP3    H1 2710   7.609   4.896   6.565
  923TIP3    H2 2711   7.658   4.754   6.584
  924TIP3   OH2 2712   6.028   5.192   2.084
  924TIP3    H1 2713   6.113   5.155   2.056
  924TIP3    H2 2714   6.039   5.286   2.075
  925TIP3   OH2 2715   1.907   7.634   3.604
  925TIP3    H1 2716   1.875   7.619   3.515
  925TIP3    H2 2717   1.844   7.588   3.660
  926TIP3   OH2 2718   1.230   7.074   3.616
  926TIP3    H1 2719   1.163   7.088   3.683
  926TIP3    H2 2720   1.292   7.146   3.628
  927TIP3   OH2 2721   4.369   7.744   2.185
  927TIP3    H1 2722   4.392   7.681   2.117
  927TIP3    H2 2723   4.292   7.789   2.151
  928TIP3   OH2 2724   3.926   2.331   3.911
  928TIP3    H1 2725   3.986   2.404   3.896
  928TIP3    H2 2726   3.934   2.277   3.833
  929TIP3   OH2 2727   0.179   5.459   6.054
  929TIP3    H1 2728   0.118   5.471   6.127
  929TIP3    H2 2729   0.144   5.513   5.984
  930TIP3   OH2 2730   5.789   3.429   4.595
  930TIP3    H1 2731   5.878   3.456   4.617
  930TIP3    H2 2732   5.757   3.385   4.674
  931TIP3   OH2 2733   0.028   6.445   1.220
  931TIP3    H1 2734   0.109   6.399   1.242
  931TIP3    H2 2735  -0.029   6.378   1.183
  932TIP3   OH2 2736   4.221   7.429   0.376
  932TIP3    H1 2737   4.160   7.387   0.436
  932TIP3    H2 2738   4.173   7.505   0.343
  933TIP3   OH2 2739   4.431   3.438   5.158
  933TIP3    H1 2740   4.517   3.422   5.197
  933TIP3    H2 2741   4.398   3.516   5.202
  934TIP3   OH2 2742   2.569   2.886   1.556
  934TIP3    H1 2743   2.645   2.923   1.602
  934TIP3    H2 2744   2.518   2.844   1.626
  935TIP3   OH2 2745   0.784   4.640   4.519
  935TIP3    H1 2746   0.708   4.614   4.571
  935TIP3    H2 2747   0.829   4.557   4.501
  936TIP3   OH2 2748   3.651   3.171   5.237
  936TIP3    H1 2749   3.563   3.188   5.203
  936TIP3    H2 2750   3.639   3.104   5.304
  937TIP3   OH2 2751   0.460   2.986   5.747
  937TIP3    H1 2752   0.448   2.913   5.686
  937TIP3    H2 2753   0.548   2.974   5.783
  938TIP3   OH2 2754   7.775   2.478   4.488
  938TIP3    H1 2755   7.807   2.390   4.467
  938TIP3    H2 2756   7.681   2.474   4.470
  939TIP3   OH2 2757   1.582   5.122   2.248
  939TIP3    H1 2758   1.646   5.056   2.277
  939TIP3    H2 2759   1.497   5.078   2.257
  940TIP3   OH2 2760   6.148   1.633   6.335
  940TIP3    H1 2761   6.203   1.591   6.270
  940TIP3    H2 2762   6.168   1.726   6.327
  941TIP3   OH2 2763   6.027   1.140   1.946
  941TIP3    H1 2764   5.934   1.116   1.942
  941TIP3    H2 2765   6.031   1.209   2.012
  942TIP3   OH2 2766   0.998   7.375   4.900
  942TIP3    H1 2767   1.023   7.417   4.982
  942TIP3    H2 2768   1.050   7.295   4.897
  943TIP3   OH2 2769   1.256   4.991   5.023
  943TIP3    H1 2770   1.328   4.929   5.020
  943TIP3    H2 2771   1.264   5.042   4.942
  944TIP3   OH2 2772   5.274   5.580   3.850
  944TIP3    H1 2773   5.307   5.635   3.779
  944TIP3    H2 2774   5.349   5.527   3.877
  945TIP3   OH2 2775   0.839   1.065   0.372
  945TIP3    H1 2776   0.889   1.102   0.445
  945TIP3    H2 2777   0.764   1.125   0.362
  946TIP3   OH2 2778   0.398   7.060   6.519
  946TIP3    H1 2779   0.453   6.987   6.546
  946TIP3    H2 2780   0.322   7.018   6.477
  947TIP3   OH2 2781   0.147   7.907   2.814
  947TIP3    H1 2782   0.126   7.840   2.750
  947TIP3    H2 2783   0.112   7.873   2.897
  948TIP3   OH2 2784   4.570   2.697   6.831
  948TIP3    H1 2785   4.554   2.612   6.791
  948TIP3    H2 2786   4.490   2.746   6.817
  949TIP3   OH2 2787   6.936   2.098   4.528
  949TIP3    H1 2788   6.918   2.184   4.492
  949TIP3    H2 2789   6.978   2.116   4.613
  950TIP3   OH2 2790   6.456   0.113   2.636
  950TIP3    H1 2791   6.443   0.208   2.634
  950TIP3    H2 2792   6.545   0.100   2.605
  951TIP3   OH2 2793   4.391   5.684   5.540
  951TIP3    H1 2794   4.299   5.692   5.567
  951TIP3    H2 2795   4.409   5.590   5.544
  952TIP3   OH2 2796   7.190   5.994   3.367
  952TIP3    H1 2797   7.246   5.920   3.343
  952TIP3    H2 2798   7.227   6.028   3.448
  953TIP3   OH2 2799   7.856   2.336   2.312
  953TIP3    H1 2800   7.933   2.280   2.325
  953TIP3    H2 2801   7.893   2.423   2.296
  954TIP3   OH2 2802   5.560   4.543   5.216
  954TIP3    H1 2803   5.559   4.478   5.145
  954TIP3    H2 2804   5.642   4.525   5.262
  955TIP3   OH2 2805   5.904   5.637   0.106
  955TIP3    H1 2806   5.824   5.667   0.064
  955TIP3    H2 2807   5.942   5.716   0.146
  956TIP3   OH2 2808   4.215   6.856   4.356
  956TIP3    H1 2809   4.234   6.858   4.450
  956TIP3    H2 2810   4.231   6.945   4.327
  957TIP3   OH2 2811   7.553   1.207   5.695
  957TIP3    H1 2812   7.648   1.196   5.692
  957TIP3    H2 2813   7.534   1.224   5.788
  958TIP3   OH2 2814   6.840   4.115   3.098
  958TIP3    H1 2815   6.896   4.053   3.050
  958TIP3    H2 2816   6.825   4.186   3.036
  959TIP3   OH2 2817   4.711   3.329   2.844
  959TIP3    H1 2818   4.718   3.302   2.936
  959TIP3    H2 2819   4.619   3.356   2.835
  960TIP3   OH2 2820   0.678   2.814   0.845
  960TIP3    H1 2821   0.626   2.793   0.767
  960TIP3    H2 2822   0.752   2.754   0.842
  961TIP3   OH2 2823   0.536   5.224   4.501
  961TIP3    H1 2824   0.494   5.173   4.432
  961TIP3    H2 2825   0.464   5.253   4.557
  962TIP3   OH2 2826   3.634   0.702   4.579
  962TIP3    H1 2827   3.719   0.714   4.537
  962TIP3    H2 2828   3.652   0.646   4.654
  963TIP3   OH2 2829   3.955   1.993   6.747
  963TIP3    H1 2830   3.863   1.969   6.736
  963TIP3    H2 2831   3.958   2.035   6.834
  964TIP3   OH2 2832   7.577   3.532   5.406
  964TIP3    H1 2833   7.487   3.500   5.400
  964TIP3    H2 2834   7.569   3.619   5.444
  965TIP3   OH2 2835   2.922   1.557   6.265
  965TIP3    H1 2836   3.009   1.578   6.230
  965TIP3    H2 2837   2.890   1.486   6.209
  966TIP3   OH2 2838   7.794   6.461   2.688
  966TIP3    H1 2839   7.857   6.390   2.704
  966TIP3    H2 2840   7.754   6.438   2.604
  967TIP3   OH2 2841   3.209   1.123   3.173
  967TIP3    H1 2842   3.118   1.139   3.148
  967TIP3    H2 2843   3.260   1.159   3.100
  968TIP3   OH2 2844   4.104   7.063   0.133
  968TIP3    H1 2845   4.196   7.089   0.132
  968TIP3    H2 2846   4.063   7.118   0.067
  969TIP3   OH2 2847   2.477   2.281   6.324
  969TIP3    H1 2848   2.477   2.186   6.320
  969TIP3    H2 2849   2.472   2.309   6.232
  970TIP3   OH2 2850   8.194   6.277   1.825
  970TIP3    H1 2851   8.126   6.345   1.831
  970TIP3    H2 2852   8.153   6.206   1.775
  971TIP3   OH2 2853   4.355   3.590   3.404
  971TIP3    H1 2854   4.429   3.584   3.465
  971TIP3    H2 2855   4.295   3.651   3.445
  972TIP3   OH2 2856   6.710   3.132   3.999
  972TIP3    H1 2857   6.633   3.091   3.960
  972TIP3    H2 2858   6.690   3.140   4.092
  973TIP3   OH2 2859   1.878   6.355   4.004
  973TIP3    H1 2860   1.864   6.438   3.959
  973TIP3    H2 2861   1.859   6.373   4.096
  974TIP3   OH2 2862   1.499   4.900   0.783
  974TIP3    H1 2863   1.549   4.960   0.728
  974TIP3    H2 2864   1.562   4.870   0.849
  975TIP3   OH2 2865   2.762   6.465   3.014
  975TIP3    H1 2866   2.680   6.429   3.049
  975TIP3    H2 2867   2.794   6.396   2.955
  976TIP3   OH2 2868   1.916   0.812   3.998
  976TIP3    H1 2869   1.969   0.851   3.928
  976TIP3    H2 2870   1.947   0.722   4.004
  977TIP3   OH2 2871   2.633   4.910   2.966
  977TIP3    H1 2872   2.575   4.984   2.952
  977TIP3    H2 2873   2.685   4.905   2.886
  978TIP3   OH2 2874   4.423   0.503   6.152
  978TIP3    H1 2875   4.401   0.586   6.109
  978TIP3    H2 2876   4.506   0.521   6.197
  979TIP3   OH2 2877   4.298   3.373   5.872
  979TIP3    H1 2878   4.246   3.438   5.825
  979TIP3    H2 2879   4.376   3.421   5.901
  980TIP3   OH2 2880   7.412   6.694   1.242
  980TIP3    H1 2881   7.443   6.720   1.329
  980TIP3    H2 2882   7.450   6.608   1.228
  981TIP3   OH2 2883   6.299   6.487   6.498
  981TIP3    H1 2884   6.359   6.542   6.548
  981TIP3    H2 2885   6.356   6.426   6.451
  982TIP3   OH2 2886   0.370   4.001   4.532
  982TIP3    H1 2887   0.347   4.058   4.459
  982TIP3    H2 2888   0.466   4.005   4.536
  983TIP3   OH2 2889   4.610   2.639   3.577
  983TIP3    H1 2890   4.585   2.607   3.664
  983TIP3    H2 2891   4.576   2.728   3.574
  984TIP3   OH2 2892   5.245   2.401   5.077
  984TIP3    H1 2893   5.332   2.432   5.102
  984TIP3    H2 2894   5.185   2.454   5.130
  985TIP3   OH2 2895   1.640   1.069   4.796
  985TIP3    H1 2896   1.734   1.071   4.779
  985TIP3    H2 2897   1.626   0.988   4.846
  986TIP3   OH2 2898   7.006   4.097   5.143
  986TIP3    H1 2899   7.039   4.079   5.055
  986TIP3    H2 2900   6.941   4.166   5.130
  987TIP3   OH2 2901   7.923   4.200   4.795
  987TIP3    H1 2902   8.014   4.171   4.789
  987TIP3    H2 2903   7.926   4.275   4.854
  988TIP3   OH2 2904   3.968   3.499   0.340
  988TIP3    H1 2905   4.026   3.555   0.288
  988TIP3    H2 2906   3.971   3.414   0.296
  989TIP3   OH2 2907   5.388   2.610   3.892
  989TIP3    H1 2908   5.468   2.658   3.871
  989TIP3    H2 2909   5.350   2.588   3.807
  990TIP3   OH2 2910   2.365   2.680   4.659
  990TIP3    H1 2911   2.325   2.690   4.746
  990TIP3    H2 2912   2.451   2.721   4.668
  991TIP3   OH2 2913   7.493   0.876   4.178
  991TIP3    H1 2914   7.570   0.820   4.163
  991TIP3    H2 2915   7.483   0.878   4.273
  992TIP3   OH2 2916   7.100   2.966   0.494
  992TIP3    H1 2917   7.104   2.880   0.537
  992TIP3    H2 2918   7.128   3.028   0.562
  993TIP3   OH2 2919   4.556   4.042   5.025
  993TIP3    H1 2920   4.581   4.125   5.066
  993TIP3    H2 2921   4.639   4.003   4.996
  994TIP3   OH2 2922   5.035   1.511   0.206
  994TIP3    H1 2923   4.977   1.528   0.131
  994TIP3    H2 2924   5.122   1.504   0.168
  995TIP3   OH2 2925   2.995   5.649   3.467
  995TIP3    H1 2926   2.974   5.596   3.390
  995TIP3    H2 2927   3.090   5.660   3.464
  996TIP3   OH2 2928   0.187   0.331   5.482
  996TIP3    H1 2929   0.150   0.419   5.477
  996TIP3    H2 2930   0.277   0.340   5.452
  997TIP3   OH2 2931   5.090   7.108   5.213
  997TIP3    H1 2932   5.023   7.039   5.210
  997TIP3    H2 2933   5.147   7.089   5.138
  998TIP3   OH2 2934   7.402   2.842   2.681
  998TIP3    H1 2935   7.427   2.880   2.765
  998TIP3    H2 2936   7.396   2.748   2.697
  999TIP3   OH2 2937   6.803   5.668   4.670
  999TIP3    H1 2938   6.848   5.593   4.709
  999TIP3    H2 2939   6.738   5.694   4.736
 1000TIP3   OH2 2940   8.286   4.850   5.512
 1000TIP3    H1 2941   8.210   4.903   5.489
 1000TIP3    H2 2942   8.291   4.785   5.442
 1001TIP3   OH2 2943   2.859   0.766   4.507
 1001TIP3    H1 2944   2.926   0.698   4.509
 1001TIP3    H2 2945   2.826   0.764   4.417
 1002TIP3   OH2 2946   5.322   1.766   4.507
 1002TIP3    H1 2947   5.253   1.817   4.550
 1002TIP3    H2 2948   5.393   1.763   4.572
 1003TIP3   OH2 2949   4.752   7.303   6.530
 1003TIP3    H1 2950   4.683   7.285   6.466
 1003TIP3    H2 2951   4.814   7.360   6.484
 1004TIP3   OH2 2952   6.660   2.816   4.854
 1004TIP3    H1 2953   6.738   2.780   4.896
 1004TIP3    H2 2954   6.655   2.906   4.887
 1005TIP3   OH2 2955   0.757   5.602   3.810
 1005TIP3    H1 2956   0.666   5.619   3.784
 1005TIP3    H2 2957   0.771   5.509   3.791
 1006TIP3   OH2 2958   7.543   6.426   1.181
 1006TIP3    H1 2959   7.478   6.357   1.187
 1006TIP3    H2 2960   7.626   6.383   1.203
 1007TIP3   OH2 2961   4.854   5.669   0.971
 1007TIP3    H1 2962   4.930   5.675   0.913
 1007TIP3    H2 2963   4.778   5.681   0.914
 1008TIP3   OH2 2964   7.654   2.819   1.941
 1008TIP3    H1 2965   7.741   2.830   1.980
 1008TIP3    H2 2966   7.604   2.773   2.008
 1009TIP3   OH2 2967   5.304   6.874   5.101
 1009TIP3    H1 2968   5.361   6.805   5.137
 1009TIP3    H2 2969   5.358   6.953   5.102
 1010TIP3   OH2 2970   8.260   1.120   5.780
 1010TIP3    H1 2971   8.263   1.196   5.838
 1010TIP3    H2 2972   8.351   1.092   5.773
 1011TIP3   OH2 2973   4.177   4.506   2.026
 1011TIP3    H1 2974   4.250   4.537   1.973
 1011TIP3    H2 2975   4.219   4.464   2.102
 1012TIP3   OH2 2976   6.169   7.712   4.664
 1012TIP3    H1 2977   6.151   7.784   4.724
 1012TIP3    H2 2978   6.112   7.729   4.589
 1013TIP3   OH2 2979   5.870   2.857   4.370
 1013TIP3    H1 2980   5.869   2.761   4.372
 1013TIP3    H2 2981   5.824   2.883   4.449
 1014TIP3   OH2 2982   5.586   0.872   5.844
 1014TIP3    H1 2983   5.552   0.782   5.843
 1014TIP3    H2 2984   5.681   0.861   5.847
 1015TIP3   OH2 2985   1.528   3.214   5.653
 1015TIP3    H1 2986   1.618   3.187   5.669
 1015TIP3    H2 2987   1.514   3.286   5.715
 1016TIP3   OH2 2988   0.866   3.189   1.452
 1016TIP3    H1 2989   0.787   3.241   1.440
 1016TIP3    H2 2990   0.890   3.201   1.544
 1017TIP3   OH2 2991   5.043   1.746   6.345
 1017TIP3    H1 2992   5.032   1.651   6.337
 1017TIP3    H2 2993   4.992   1.769   6.423
 1018TIP3   OH2 2994   2.802   2.545   6.123
 1018TIP3    H1 2995   2.755   2.515   6.201
 1018TIP3    H2 2996   2.890   2.511   6.133
 1019TIP3   OH2 2997   7.364   5.025   2.628
 1019TIP3    H1 2998   7.343   5.082   2.703
 1019TIP3    H2 2999   7.445   4.982   2.654
 1020TIP3   OH2 3000   8.259   7.480   2.776
 1020TIP3    H1 3001   8.254   7.567   2.817
 1020TIP3    H2 3002   8.248   7.419   2.848
 1021TIP3   OH2 3003   4.348   5.964   5.199
 1021TIP3    H1 3004   4.253   5.978   5.191
 1021TIP3    H2 3005   4.386   6.051   5.188
 1022TIP3   OH2 3006   3.832   2.512   0.920
 1022TIP3    H1 3007   3.918   2.471   0.935
 1022TIP3    H2 3008   3.853   2.600   0.890
 1023TIP3   OH2 3009   4.745   0.156   5.984
 1023TIP3    H1 3010   4.746   0.118   6.072
 1023TIP3    H2 3011   4.652   0.165   5.963
 1024TIP3   OH2 3012   3.868   3.322   5.585
 1024TIP3    H1 3013   3.953   3.324   5.630
 1024TIP3    H2 3014   3.812   3.379   5.639
 1025TIP3   OH2 3015   5.256   4.289   2.727
 1025TIP3    H1 3016   5.236   4.201   2.696
 1025TIP3    H2 3017   5.289   4.276   2.816
 1026TIP3   OH2 3018   6.080   2.847   2.387
 1026TIP3    H1 3019   6.059   2.779   2.322
 1026TIP3    H2 3020   6.149   2.899   2.346
 1027TIP3   OH2 3021   7.854   3.896   2.671
 1027TIP3    H1 3022   7.791   3.907   2.600
 1027TIP3    H2 3023   7.828   3.813   2.713
 1028TIP3   OH2 3024   4.623   4.184  -0.013
 1028TIP3    H1 3025   4.680   4.133   0.045
 1028TIP3    H2 3026   4.584   4.250   0.044
 1029TIP3   OH2 3027   3.543   5.761   6.571
 1029TIP3    H1 3028   3.461   5.765   6.620
 1029TIP3    H2 3029   3.577   5.673   6.588
 1030TIP3   OH2 3030   0.840   5.577   4.184
 1030TIP3    H1 3031   0.924   5.531   4.183
 1030TIP3    H2 3032   0.783   5.522   4.237
 1031TIP3   OH2 3033   6.532   2.757   3.066
 1031TIP3    H1 3034   6.441   2.785   3.052
 1031TIP3    H2 3035   6.580   2.838   3.080
 1032TIP3   OH2 3036   2.938   3.276   5.504
 1032TIP3    H1 3037   2.964   3.271   5.412
 1032TIP3    H2 3038   2.912   3.367   5.517
 1033TIP3   OH2 3039   1.568   1.352  -0.021
 1033TIP3    H1 3040   1.631   1.306   0.035
 1033TIP3    H2 3041   1.484   1.342   0.025
 1034TIP3   OH2 3042   0.066   2.453   0.727
 1034TIP3    H1 3043   0.044   2.430   0.637
 1034TIP3    H2 3044   0.015   2.392   0.781
 1035TIP3   OH2 3045   0.933   2.084   1.248
 1035TIP3    H1 3046   0.948   2.178   1.259
 1035TIP3    H2 3047   1.005   2.043   1.295
 1036TIP3   OH2 3048   5.922   1.801   6.150
 1036TIP3    H1 3049   5.871   1.849   6.085
 1036TIP3    H2 3050   6.003   1.851   6.158
 1037TIP3   OH2 3051   4.141   3.733   2.743
 1037TIP3    H1 3052   4.120   3.641   2.727
 1037TIP3    H2 3053   4.161   3.738   2.836
 1038TIP3   OH2 3054   1.531   7.623   1.446
 1038TIP3    H1 3055   1.500   7.693   1.389
 1038TIP3    H2 3056   1.474   7.549   1.426
 1039TIP3   OH2 3057   0.453   5.727   1.374
 1039TIP3    H1 3058   0.483   5.814   1.398
 1039TIP3    H2 3059   0.361   5.739   1.350
 1040TIP3   OH2 3060   4.393   2.892   1.516
 1040TIP3    H1 3061   4.436   2.890   1.430
 1040TIP3    H2 3062   4.463   2.916   1.577
 1041TIP3   OH2 3063   3.713   7.251   4.977
 1041TIP3    H1 3064   3.749   7.338   4.995
 1041TIP3    H2 3065   3.618   7.263   4.979
 1042TIP3   OH2 3066   4.274   4.840   4.687
 1042TIP3    H1 3067   4.361   4.866   4.657
 1042TIP3    H2 3068   4.227   4.815   4.607
 1043TIP3   OH2 3069   3.116   5.905   0.063
 1043TIP3    H1 3070   3.204   5.920   0.028
 1043TIP3    H2 3071   3.124   5.921   0.157
 1044TIP3   OH2 3072   7.986   1.674   2.994
 1044TIP3    H1 3073   8.033   1.648   3.073
 1044TIP3    H2 3074   8.028   1.623   2.924
 1045TIP3   OH2 3075   4.822   1.211   1.879
 1045TIP3    H1 3076   4.874   1.274   1.929
 1045TIP3    H2 3077   4.828   1.130   1.929
 1046TIP3   OH2 3078   1.327   5.446   2.533
 1046TIP3    H1 3079   1.234   5.427   2.519
 1046TIP3    H2 3080   1.327   5.520   2.595
 1047TIP3   OH2 3081   1.480   0.840   2.618
 1047TIP3    H1 3082   1.488   0.913   2.557
 1047TIP3    H2 3083   1.528   0.768   2.577
 1048TIP3   OH2 3084   1.045   6.631   3.123
 1048TIP3    H1 3085   0.949   6.623   3.121
 1048TIP3    H2 3086   1.060   6.724   3.142
 1049TIP3   OH2 3087   4.176   5.473   0.767
 1049TIP3    H1 3088   4.159   5.378   0.764
 1049TIP3    H2 3089   4.240   5.487   0.698
 1050TIP3   OH2 3090   2.187   0.167   2.328
 1050TIP3    H1 3091   2.233   0.250   2.325
 1050TIP3    H2 3092   2.165   0.148   2.237
 1051TIP3   OH2 3093   6.559   4.187   0.908
 1051TIP3    H1 3094   6.492   4.217   0.970
 1051TIP3    H2 3095   6.531   4.221   0.823
 1052TIP3   OH2 3096   2.566   3.160   2.627
 1052TIP3    H1 3097   2.594   3.190   2.541
 1052TIP3    H2 3098   2.641   3.111   2.661
 1053TIP3   OH2 3099   2.677   0.968   6.221
 1053TIP3    H1 3100   2.757   1.019   6.205
 1053TIP3    H2 3101   2.650   0.993   6.309
 1054TIP3   OH2 3102   7.911   6.732   5.854
 1054TIP3    H1 3103   7.839   6.681   5.893
 1054TIP3    H2 3104   7.899   6.821   5.888
 1055TIP3   OH2 3105   6.052   7.484   2.083
 1055TIP3    H1 3106   6.003   7.551   2.035
 1055TIP3    H2 3107   6.003   7.403   2.068
 1056TIP3   OH2 3108   7.120   4.411   3.330
 1056TIP3    H1 3109   7.119   4.394   3.236
 1056TIP3    H2 3110   7.151   4.501   3.338
 1057TIP3   OH2 3111   6.854   3.386   4.175
 1057TIP3    H1 3112   6.768   3.403   4.138
 1057TIP3    H2 3113   6.915   3.401   4.103
 1058TIP3   OH2 3114   4.467   2.171   1.247
 1058TIP3    H1 3115   4.471   2.251   1.196
 1058TIP3    H2 3116   4.447   2.200   1.336
 1059TIP3   OH2 3117   4.677   2.909   3.955
 1059TIP3    H1 3118   4.715   2.991   3.987
 1059TIP3    H2 3119   4.591   2.904   3.999
 1060TIP3   OH2 3120   2.617   7.809   6.349
 1060TIP3    H1 3121   2.542   7.801   6.291
 1060TIP3    H2 3122   2.619   7.727   6.399
 1061TIP3   OH2 3123   1.286   4.002   2.111
 1061TIP3    H1 3124   1.219   3.934   2.116
 1061TIP3    H2 3125   1.293   4.036   2.200
 1062TIP3   OH2 3126   0.031   5.598   0.243
 1062TIP3    H1 3127   0.043   5.647   0.325
 1062TIP3    H2 3128   0.120   5.581   0.213
 1063TIP3   OH2 3129   3.229   7.678   5.879
 1063TIP3    H1 3130   3.307   7.674   5.824
 1063TIP3    H2 3131   3.208   7.771   5.886
 1064TIP3   OH2 3132   5.892   6.820   3.634
 1064TIP3    H1 3133   5.822   6.855   3.579
 1064TIP3    H2 3134   5.911   6.733   3.597
 1065TIP3   OH2 3135   5.877   3.616   5.832
 1065TIP3    H1 3136   5.924   3.534   5.819
 1065TIP3    H2 3137   5.929   3.663   5.898
 1066TIP3   OH2 3138   3.024   4.607   3.127
 1066TIP3    H1 3139   3.024   4.691   3.081
 1066TIP3    H2 3140   2.940   4.567   3.104
 1067TIP3   OH2 3141   1.944   5.202   5.937
 1067TIP3    H1 3142   1.993   5.245   6.007
 1067TIP3    H2 3143   1.989   5.227   5.856
 1068TIP3   OH2 3144   0.718   3.798   6.205
 1068TIP3    H1 3145   0.750   3.823   6.292
 1068TIP3    H2 3146   0.791   3.818   6.146
 1069TIP3   OH2 3147   5.462   1.272   5.587
 1069TIP3    H1 3148   5.481   1.258   5.494
 1069TIP3    H2 3149   5.366   1.276   5.592
 1070TIP3   OH2 3150   1.760   5.353   1.919
 1070TIP3    H1 3151   1.666   5.365   1.935
 1070TIP3    H2 3152   1.799   5.437   1.942
 1071TIP3   OH2 3153   8.059   4.428   3.899
 1071TIP3    H1 3154   7.975   4.452   3.859
 1071TIP3    H2 3155   8.045   4.340   3.932
 1072TIP3   OH2 3156   1.768   3.107   3.431
 1072TIP3    H1 3157   1.777   3.198   3.404
 1072TIP3    H2 3158   1.767   3.057   3.349
 1073TIP3   OH2 3159   2.174   3.432   5.193
 1073TIP3    H1 3160   2.128   3.440   5.276
 1073TIP3    H2 3161   2.227   3.353   5.202
 1074TIP3   OH2 3162   5.077   5.517   3.081
 1074TIP3    H1 3163   5.047   5.473   3.001
 1074TIP3    H2 3164   5.054   5.609   3.068
 1075TIP3   OH2 3165   1.020   4.329   4.202
 1075TIP3    H1 3166   1.102   4.281   4.212
 1075TIP3    H2 3167   0.999   4.360   4.290
 1076TIP3   OH2 3168   7.587   6.409   1.517
 1076TIP3    H1 3169   7.647   6.383   1.446
 1076TIP3    H2 3170   7.570   6.327   1.565
 1077TIP3   OH2 3171   7.461   5.701   0.760
 1077TIP3    H1 3172   7.382   5.706   0.814
 1077TIP3    H2 3173   7.533   5.689   0.822
 1078TIP3   OH2 3174   7.219   6.115   5.593
 1078TIP3    H1 3175   7.174   6.048   5.541
 1078TIP3    H2 3176   7.161   6.130   5.668
 1079TIP3   OH2 3177   3.501   0.060   6.409
 1079TIP3    H1 3178   3.447   0.046   6.330
 1079TIP3    H2 3179   3.588   0.027   6.384
 1080TIP3   OH2 3180   7.110   0.645   0.463
 1080TIP3    H1 3181   7.104   0.559   0.504
 1080TIP3    H2 3182   7.129   0.704   0.536
 1081TIP3   OH2 3183   5.500   7.869   2.250
 1081TIP3    H1 3184   5.477   7.927   2.323
 1081TIP3    H2 3185   5.537   7.792   2.293
 1082TIP3   OH2 3186   0.422   4.948   4.795
 1082TIP3    H1 3187   0.513   4.924   4.811
 1082TIP3    H2 3188   0.405   4.919   4.705
 1083TIP3   OH2 3189   7.349   3.688   3.837
 1083TIP3    H1 3190   7.397   3.736   3.905
 1083TIP3    H2 3191   7.322   3.755   3.775
 1084TIP3   OH2 3192   3.863   7.065   1.689
 1084TIP3    H1 3193   3.890   7.138   1.633
 1084TIP3    H2 3194   3.889   6.987   1.639
 1085TIP3   OH2 3195   0.880   6.423   5.598
 1085TIP3    H1 3196   0.917   6.337   5.576
 1085TIP3    H2 3197   0.788   6.405   5.617
 1086TIP3   OH2 3198   6.541   3.275   5.386
 1086TIP3    H1 3199   6.578   3.284   5.299
 1086TIP3    H2 3200   6.548   3.362   5.425
 1087TIP3   OH2 3201   4.838   6.076   5.241
 1087TIP3    H1 3202   4.892   6.150   5.265
 1087TIP3    H2 3203   4.789   6.055   5.321
 1088TIP3   OH2 3204   7.956   1.925   0.978
 1088TIP3    H1 3205   7.890   1.910   1.045
 1088TIP3    H2 3206   7.910   1.914   0.895
 1089TIP3   OH2 3207   5.067   5.144   5.471
 1089TIP3    H1 3208   5.156   5.139   5.435
 1089TIP3    H2 3209   5.029   5.222   5.431
 1090TIP3   OH2 3210   3.885   5.513   3.535
 1090TIP3    H1 3211   3.833   5.466   3.601
 1090TIP3    H2 3212   3.954   5.556   3.585
 1091TIP3   OH2 3213   7.404   5.838   5.670
 1091TIP3    H1 3214   7.319   5.850   5.711
 1091TIP3    H2 3215   7.467   5.861   5.738
 1092TIP3   OH2 3216   1.384   3.261   0.284
 1092TIP3    H1 3217   1.293   3.242   0.306
 1092TIP3    H2 3218   1.393   3.234   0.193
 1093TIP3   OH2 3219   7.615   1.845   5.016
 1093TIP3    H1 3220   7.618   1.821   5.109
 1093TIP3    H2 3221   7.695   1.897   5.003
 1094TIP3   OH2 3222   1.693   0.730   5.368
 1094TIP3    H1 3223   1.739   0.665   5.422
 1094TIP3    H2 3224   1.652   0.678   5.299
 1095TIP3   OH2 3225   2.692   2.571   5.472
 1095TIP3    H1 3226   2.753   2.581   5.399
 1095TIP3    H2 3227   2.735   2.615   5.546
 1096TIP3   OH2 3228   3.992   6.645   0.928
 1096TIP3    H1 3229   4.058   6.603   0.873
 1096TIP3    H2 3230   3.932   6.575   0.953
 1097TIP3   OH2 3231   4.811   7.433   5.651
 1097TIP3    H1 3232   4.746   7.499   5.672
 1097TIP3    H2 3233   4.840   7.455   5.562
 1098TIP3   OH2 3234   4.690   3.418   0.094
 1098TIP3    H1 3235   4.778   3.381   0.105
 1098TIP3    H2 3236   4.657   3.428   0.183
 1099TIP3   OH2 3237   0.824   0.952   2.995
 1099TIP3    H1 3238   0.904   1.003   2.985
 1099TIP3    H2 3239   0.805   0.955   3.089
 1100TIP3   OH2 3240   0.652   0.180   2.249
 1100TIP3    H1 3241   0.647   0.136   2.164
 1100TIP3    H2 3242   0.682   0.112   2.310
 1101TIP3   OH2 3243   4.720   5.248   0.488
 1101TIP3    H1 3244   4.735   5.291   0.404
 1101TIP3    H2 3245   4.625   5.252   0.501
 1102TIP3   OH2 3246   1.210   5.280   3.784
 1102TIP3    H1 3247   1.154   5.241   3.851
 1102TIP3    H2 3248   1.178   5.242   3.702
 1103TIP3   OH2 3249   6.014   6.820   0.340
 1103TIP3    H1 3250   6.087   6.858   0.389
 1103TIP3    H2 3251   5.971   6.894   0.299
 1104TIP3   OH2 3252   2.094   3.254   3.131
 1104TIP3    H1 3253   2.089   3.162   3.158
 1104TIP3    H2 3254   2.183   3.281   3.154
 1105TIP3   OH2 3255   2.085   1.523   4.070
 1105TIP3    H1 3256   2.008   1.553   4.022
 1105TIP3    H2 3257   2.138   1.477   4.005
 1106TIP3   OH2 3258   3.016   2.567   2.565
 1106TIP3    H1 3259   3.012   2.638   2.501
 1106TIP3    H2 3260   2.930   2.567   2.607
 1107TIP3   OH2 3261   3.574   7.508   1.964
 1107TIP3    H1 3262   3.565   7.600   1.987
 1107TIP3    H2 3263   3.566   7.506   1.869
 1108TIP3   OH2 3264   3.343   4.614   6.279
 1108TIP3    H1 3265   3.302   4.568   6.205
 1108TIP3    H2 3266   3.430   4.575   6.287
 1109TIP3   OH2 3267   3.100   1.277   1.596
 1109TIP3    H1 3268   3.083   1.206   1.534
 1109TIP3    H2 3269   3.013   1.300   1.629
 1110TIP3   OH2 3270   2.126   1.740   2.783
 1110TIP3    H1 3271   2.030   1.742   2.777
 1110TIP3    H2 3272   2.148   1.647   2.777
 1111TIP3   OH2 3273   4.958   3.361   0.151
 1111TIP3    H1 3274   5.010   3.298   0.100
 1111TIP3    H2 3275   5.015   3.385   0.224
 1112TIP3   OH2 3276   0.274   0.385   6.483
 1112TIP3    H1 3277   0.292   0.384   6.389
 1112TIP3    H2 3278   0.342   0.440   6.520
 1113TIP3   OH2 3279   1.747   4.300   4.816
 1113TIP3    H1 3280   1.751   4.319   4.910
 1113TIP3    H2 3281   1.838   4.284   4.791
 1114TIP3   OH2 3282   0.704   1.765   0.141
 1114TIP3    H1 3283   0.718   1.690   0.199
 1114TIP3    H2 3284   0.708   1.727   0.053
 1115TIP3   OH2 3285   5.668   3.789   4.999
 1115TIP3    H1 3286   5.700   3.714   4.950
 1115TIP3    H2 3287   5.581   3.763   5.028
 1116TIP3   OH2 3288   7.300   5.398   2.586
 1116TIP3    H1 3289   7.316   5.354   2.669
 1116TIP3    H2 3290   7.386   5.427   2.557
 1117TIP3   OH2 3291   3.554   4.068   3.101
 1117TIP3    H1 3292   3.467   4.100   3.123
 1117TIP3    H2 3293   3.603   4.074   3.183
 1118TIP3   OH2 3294   7.408   6.783   6.343
 1118TIP3    H1 3295   7.336   6.777   6.405
 1118TIP3    H2 3296   7.465   6.851   6.380
 1119TIP3   OH2 3297   3.176   2.991   4.437
 1119TIP3    H1 3298   3.197   3.027   4.523
 1119TIP3    H2 3299   3.117   3.055   4.397
 1120TIP3   OH2 3300   3.106   0.681   5.453
 1120TIP3    H1 3301   3.069   0.633   5.526
 1120TIP3    H2 3302   3.178   0.625   5.421
 1121TIP3   OH2 3303   8.099   0.144   1.186
 1121TIP3    H1 3304   8.114   0.209   1.255
 1121TIP3    H2 3305   8.156   0.171   1.114
 1122TIP3   OH2 3306   7.582   0.303   0.836
 1122TIP3    H1 3307   7.501   0.320   0.787
 1122TIP3    H2 3308   7.646   0.363   0.798
 1123TIP3   OH2 3309   5.453   1.332   2.685
 1123TIP3    H1 3310   5.446   1.425   2.662
 1123TIP3    H2 3311   5.390   1.321   2.757
 1124TIP3   OH2 3312   0.170   7.819   5.175
 1124TIP3    H1 3313   0.245   7.761   5.177
 1124TIP3    H2 3314   0.109   7.783   5.239
 1125TIP3   OH2 3315   3.529   0.185   3.485
 1125TIP3    H1 3316   3.492   0.264   3.525
 1125TIP3    H2 3317   3.589   0.151   3.551
 1126TIP3   OH2 3318   1.773   3.867   4.258
 1126TIP3    H1 3319   1.803   3.894   4.344
 1126TIP3    H2 3320   1.833   3.797   4.232
 1127TIP3   OH2 3321   6.147   5.336   5.356
 1127TIP3    H1 3322   6.080   5.382   5.406
 1127TIP3    H2 3323   6.147   5.379   5.271
 1128TIP3   OH2 3324   5.884   4.661   2.213
 1128TIP3    H1 3325   5.843   4.611   2.142
 1128TIP3    H2 3326   5.875   4.752   2.186
 1129TIP3   OH2 3327   7.415   3.041   6.032
 1129TIP3    H1 3328   7.489   3.070   5.978
 1129TIP3    H2 3329   7.377   3.123   6.065
 1130TIP3   OH2 3330   1.633   0.619   6.167
 1130TIP3    H1 3331   1.709   0.636   6.223
 1130TIP3    H2 3332   1.571   0.688   6.191
 1131TIP3   OH2 3333   6.960   2.803   6.215
 1131TIP3    H1 3334   6.866   2.785   6.220
 1131TIP3    H2 3335   6.984   2.777   6.126
 1132TIP3   OH2 3336   2.658   1.482   2.547
 1132TIP3    H1 3337   2.724   1.550   2.560
 1132TIP3    H2 3338   2.691   1.430   2.474
 1133TIP3   OH2 3339   0.342   5.501   0.455
 1133TIP3    H1 3340   0.330   5.492   0.360
 1133TIP3    H2 3341   0.416   5.443   0.475
 1134TIP3   OH2 3342   5.454   1.878   5.017
 1134TIP3    H1 3343   5.405   1.802   4.987
 1134TIP3    H2 3344   5.543   1.845   5.030
 1135TIP3   OH2 3345   7.328   3.900   0.065
 1135TIP3    H1 3346   7.242   3.915   0.024
 1135TIP3    H2 3347   7.315   3.823   0.120
 1136TIP3   OH2 3348   6.198   7.312   1.299
 1136TIP3    H1 3349   6.258   7.385   1.309
 1136TIP3    H2 3350   6.204   7.264   1.382
 1137TIP3   OH2 3351   1.461   1.395   0.380
 1137TIP3    H1 3352   1.395   1.434   0.436
 1137TIP3    H2 3353   1.412   1.338   0.320
 1138TIP3   OH2 3354   3.964   0.852   6.071
 1138TIP3    H1 3355   4.012   0.839   5.990
 1138TIP3    H2 3356   3.918   0.935   6.059
 1139TIP3   OH2 3357   6.185   1.338   6.645
 1139TIP3    H1 3358   6.187   1.427   6.679
 1139TIP3    H2 3359   6.102   1.333   6.597
 1140TIP3   OH2 3360   4.538   3.113   4.659
 1140TIP3    H1 3361   4.471   3.067   4.608
 1140TIP3    H2 3362   4.516   3.094   4.750
 1141TIP3   OH2 3363   2.307   1.476   6.024
 1141TIP3    H1 3364   2.230   1.530   6.044
 1141TIP3    H2 3365   2.359   1.530   5.965
 1142TIP3   OH2 3366   3.408   6.510   2.517
 1142TIP3    H1 3367   3.319   6.485   2.542
 1142TIP3    H2 3368   3.433   6.577   2.581
 1143TIP3   OH2 3369   5.069   3.963   1.638
 1143TIP3    H1 3370   5.102   3.932   1.554
 1143TIP3    H2 3371   4.994   3.907   1.657
 1144TIP3   OH2 3372   2.542   1.210   5.887
 1144TIP3    H1 3373   2.530   1.235   5.796
 1144TIP3    H2 3374   2.632   1.178   5.892
 1145TIP3   OH2 3375   0.676   5.742   4.040
 1145TIP3    H1 3376   0.713   5.708   3.959
 1145TIP3    H2 3377   0.751   5.752   4.099
 1146TIP3   OH2 3378   6.002   7.460   0.864
 1146TIP3    H1 3379   5.954   7.441   0.783
 1146TIP3    H2 3380   6.092   7.437   0.845
 1147TIP3   OH2 3381   1.710   4.851   0.955
 1147TIP3    H1 3382   1.747   4.767   0.983
 1147TIP3    H2 3383   1.777   4.916   0.977
 1148TIP3   OH2 3384   2.381   3.085   6.338
 1148TIP3    H1 3385   2.403   2.992   6.344
 1148TIP3    H2 3386   2.464   3.131   6.351
 1149TIP3   OH2 3387   3.320   6.586   6.143
 1149TIP3    H1 3388   3.320   6.494   6.118
 1149TIP3    H2 3389   3.228   6.613   6.137
 1150TIP3   OH2 3390   7.087   5.321   2.402
 1150TIP3    H1 3391   7.123   5.370   2.475
 1150TIP3    H2 3392   7.010   5.370   2.375
 1151TIP3   OH2 3393   1.785   2.106   5.073
 1151TIP3    H1 3394   1.859   2.152   5.112
 1151TIP3    H2 3395   1.765   2.155   4.994
 1152TIP3   OH2 3396   0.777   4.750   3.044
 1152TIP3    H1 3397   0.819   4.755   2.958
 1152TIP3    H2 3398   0.816   4.822   3.093
 1153TIP3   OH2 3399   4.232   7.387   4.577
 1153TIP3    H1 3400   4.186   7.450   4.632
 1153TIP3    H2 3401   4.324   7.399   4.599
 1154TIP3   OH2 3402  -0.023   7.160   5.148
 1154TIP3    H1 3403  -0.062   7.079   5.182
 1154TIP3    H2 3404   0.060   7.168   5.195
 1155TIP3   OH2 3405   7.503   5.603   6.700
 1155TIP3    H1 3406   7.488   5.536   6.766
 1155TIP3    H2 3407   7.578   5.652   6.732
 1156TIP3   OH2 3408   5.156   7.144   6.817
 1156TIP3    H1 3409   5.144   7.056   6.852
 1156TIP3    H2 3410   5.085   7.154   6.753
 1157TIP3   OH2 3411   1.241   1.022   6.253
 1157TIP3    H1 3412   1.156   0.981   6.237
 1157TIP3    H2 3413   1.238   1.105   6.206
 1158TIP3   OH2 3414   0.298   1.828   5.915
 1158TIP3    H1 3415   0.346   1.764   5.968
 1158TIP3    H2 3416   0.334   1.913   5.942
 1159TIP3   OH2 3417   1.583   3.451   2.526
 1159TIP3    H1 3418   1.589   3.359   2.497
 1159TIP3    H2 3419   1.491   3.474   2.514
 1160TIP3   OH2 3420   5.827   4.536   5.905
 1160TIP3    H1 3421   5.898   4.472   5.897
 1160TIP3    H2 3422   5.841   4.578   5.989
 1161TIP3   OH2 3423   3.586   2.280   1.817
 1161TIP3    H1 3424   3.656   2.281   1.751
 1161TIP3    H2 3425   3.510   2.318   1.772
 1162TIP3   OH2 3426   7.180   4.520   0.611
 1162TIP3    H1 3427   7.246   4.453   0.625
 1162TIP3    H2 3428   7.216   4.576   0.542
 1163TIP3   OH2 3429   7.059   4.517   6.384
 1163TIP3    H1 3430   7.106   4.566   6.451
 1163TIP3    H2 3431   7.018   4.583   6.329
 1164TIP3   OH2 3432   0.422   3.915   6.174
 1164TIP3    H1 3433   0.380   3.849   6.120
 1164TIP3    H2 3434   0.516   3.902   6.160
 1165TIP3   OH2 3435   3.795   5.895   3.858
 1165TIP3    H1 3436   3.875   5.893   3.911
 1165TIP3    H2 3437   3.815   5.957   3.788
 1166TIP3   OH2 3438   1.802   3.529   2.698
 1166TIP3    H1 3439   1.834   3.438   2.699
 1166TIP3    H2 3440   1.717   3.524   2.654
 1167TIP3   OH2 3441   6.235   7.312   6.754
 1167TIP3    H1 3442   6.287   7.348   6.682
 1167TIP3    H2 3443   6.145   7.319   6.723
 1168TIP3   OH2 3444   2.573   1.687   2.842
 1168TIP3    H1 3445   2.596   1.710   2.932
 1168TIP3    H2 3446   2.484   1.653   2.848
 1169TIP3   OH2 3447   4.441   1.472   5.413
 1169TIP3    H1 3448   4.477   1.555   5.381
 1169TIP3    H2 3449   4.470   1.408   5.349
 1170TIP3   OH2 3450   7.134   0.920   1.056
 1170TIP3    H1 3451   7.219   0.876   1.058
 1170TIP3    H2 3452   7.154   1.010   1.030
 1171TIP3   OH2 3453   0.376   5.590   2.282
 1171TIP3    H1 3454   0.438   5.581   2.354
 1171TIP3    H2 3455   0.426   5.563   2.205
 1172TIP3   OH2 3456   1.853   2.738   1.307
 1172TIP3    H1 3457   1.821   2.757   1.219
 1172TIP3    H2 3458   1.781   2.690   1.349
 1173TIP3   OH2 3459   3.235   5.748   5.396
 1173TIP3    H1 3460   3.165   5.740   5.460
 1173TIP3    H2 3461   3.220   5.677   5.334
 1174TIP3   OH2 3462   4.524   2.134   3.268
 1174TIP3    H1 3463   4.491   2.209   3.220
 1174TIP3    H2 3464   4.483   2.140   3.354
 1175TIP3   OH2 3465   5.458   0.368   3.095
 1175TIP3    H1 3466   5.540   0.417   3.106
 1175TIP3    H2 3467   5.410   0.384   3.176
 1176TIP3   OH2 3468   1.551   2.984   1.484
 1176TIP3    H1 3469   1.511   2.900   1.505
 1176TIP3    H2 3470   1.517   3.005   1.397
 1177TIP3   OH2 3471   7.305   3.973   2.789
 1177TIP3    H1 3472   7.308   3.878   2.803
 1177TIP3    H2 3473   7.235   3.985   2.725
 1178TIP3   OH2 3474   0.929   3.488   1.933
 1178TIP3    H1 3475   0.856   3.463   1.989
 1178TIP3    H2 3476   1.005   3.485   1.990
 1179TIP3   OH2 3477   5.861   2.864   5.189
 1179TIP3    H1 3478   5.867   2.826   5.277
 1179TIP3    H2 3479   5.944   2.842   5.147
 1180TIP3   OH2 3480   5.630   1.603   3.314
 1180TIP3    H1 3481   5.708   1.623   3.367
 1180TIP3    H2 3482   5.641   1.657   3.236
 1181TIP3   OH2 3483   5.151   6.217   6.069
 1181TIP3    H1 3484   5.128   6.309   6.058
 1181TIP3    H2 3485   5.081   6.180   6.123
 1182TIP3   OH2 3486   7.378   4.937   6.060
 1182TIP3    H1 3487   7.300   4.966   6.014
 1182TIP3    H2 3488   7.356   4.850   6.093
 1183TIP3   OH2 3489   7.719   6.518   6.140
 1183TIP3    H1 3490   7.759   6.580   6.201
 1183TIP3    H2 3491   7.753   6.433   6.167
 1184TIP3   OH2 3492   4.654   6.652   5.833
 1184TIP3    H1 3493   4.682   6.694   5.752
 1184TIP3    H2 3494   4.721   6.676   5.897
 1185TIP3   OH2 3495   7.364   5.203   3.572
 1185TIP3    H1 3496   7.433   5.260   3.605
 1185TIP3    H2 3497   7.290   5.218   3.631
 1186TIP3   OH2 3498   4.159   1.413   4.566
 1186TIP3    H1 3499   4.092   1.475   4.594
 1186TIP3    H2 3500   4.110   1.339   4.529
 1187TIP3   OH2 3501   5.386   1.374   1.977
 1187TIP3    H1 3502   5.349   1.460   1.957
 1187TIP3    H2 3503   5.321   1.331   2.032
 1188TIP3   OH2 3504   2.953   5.516   3.204
 1188TIP3    H1 3505   2.926   5.441   3.257
 1188TIP3    H2 3506   2.874   5.570   3.198
 1189TIP3   OH2 3507   0.488   0.518   1.649
 1189TIP3    H1 3508   0.484   0.580   1.721
 1189TIP3    H2 3509   0.480   0.571   1.570
 1190TIP3   OH2 3510   0.933   2.534   0.297
 1190TIP3    H1 3511   0.982   2.614   0.318
 1190TIP3    H2 3512   0.883   2.516   0.376
 1191TIP3   OH2 3513   1.361   7.550   0.885
 1191TIP3    H1 3514   1.337   7.473   0.833
 1191TIP3    H2 3515   1.286   7.564   0.944
 1192TIP3   OH2 3516   3.218   1.156   2.427
 1192TIP3    H1 3517   3.134   1.200   2.412
 1192TIP3    H2 3518   3.217   1.133   2.520
 1193TIP3   OH2 3519   4.593   3.628   6.208
 1193TIP3    H1 3520   4.688   3.612   6.202
 1193TIP3    H2 3521   4.573   3.617   6.301
 1194TIP3   OH2 3522   1.666   6.145   4.694
 1194TIP3    H1 3523   1.685   6.163   4.786
 1194TIP3    H2 3524   1.736   6.190   4.646
 1195TIP3   OH2 3525   1.829   4.468   3.167
 1195TIP3    H1 3526   1.916   4.493   3.200
 1195TIP3    H2 3527   1.846   4.427   3.082
 1196TIP3   OH2 3528   3.791   5.377   3.049
 1196TIP3    H1 3529   3.793   5.450   3.112
 1196TIP3    H2 3530   3.874   5.384   3.003
 1197TIP3   OH2 3531   1.142   4.746   4.748
 1197TIP3    H1 3532   1.084   4.793   4.688
 1197TIP3    H2 3533   1.164   4.665   4.703
 1198TIP3   OH2 3534   3.195   4.474   4.024
 1198TIP3    H1 3535   3.139   4.517   4.089
 1198TIP3    H2 3536   3.160   4.502   3.940
 1199TIP3   OH2 3537   7.383   4.424   0.373
 1199TIP3    H1 3538   7.327   4.501   0.361
 1199TIP3    H2 3539   7.372   4.373   0.293
 1200TIP3   OH2 3540   5.073   4.902   3.538
 1200TIP3    H1 3541   5.003   4.908   3.473
 1200TIP3    H2 3542   5.039   4.841   3.604
 1201TIP3   OH2 3543   5.538   5.554   3.972
 1201TIP3    H1 3544   5.556   5.572   4.064
 1201TIP3    H2 3545   5.622   5.568   3.928
 1202TIP3   OH2 3546   6.616   7.644   0.435
 1202TIP3    H1 3547   6.642   7.604   0.352
 1202TIP3    H2 3548   6.601   7.569   0.493
 1203TIP3   OH2 3549   5.342   2.986   6.392
 1203TIP3    H1 3550   5.344   2.893   6.370
 1203TIP3    H2 3551   5.259   2.998   6.438
 1204TIP3   OH2 3552   4.019   3.633   5.849
 1204TIP3    H1 3553   4.063   3.704   5.803
 1204TIP3    H2 3554   4.021   3.660   5.941
 1205TIP3   OH2 3555   4.583   2.673   6.154
 1205TIP3    H1 3556   4.582   2.693   6.248
 1205TIP3    H2 3557   4.491   2.654   6.133
 1206TIP3   OH2 3558   0.703   6.666   6.212
 1206TIP3    H1 3559   0.752   6.621   6.143
 1206TIP3    H2 3560   0.770   6.709   6.265
 1207TIP3   OH2 3561   3.347   0.611   0.574
 1207TIP3    H1 3562   3.335   0.541   0.637
 1207TIP3    H2 3563   3.442   0.620   0.565
 1208TIP3   OH2 3564   0.882   0.501   0.751
 1208TIP3    H1 3565   0.842   0.414   0.746
 1208TIP3    H2 3566   0.968   0.485   0.789
 1209TIP3   OH2 3567   1.666   1.371   6.601
 1209TIP3    H1 3568   1.604   1.338   6.535
 1209TIP3    H2 3569   1.751   1.365   6.558
 1210TIP3   OH2 3570   6.058   0.647   4.911
 1210TIP3    H1 3571   5.967   0.639   4.881
 1210TIP3    H2 3572   6.103   0.575   4.868
 1211TIP3   OH2 3573   7.047   3.408   3.485
 1211TIP3    H1 3574   6.954   3.427   3.499
 1211TIP3    H2 3575   7.051   3.371   3.397
 1212TIP3   OH2 3576   2.690   1.085   5.447
 1212TIP3    H1 3577   2.769   1.138   5.434
 1212TIP3    H2 3578   2.650   1.122   5.526
 1213TIP3   OH2 3579   6.597   7.635   6.119
 1213TIP3    H1 3580   6.651   7.597   6.050
 1213TIP3    H2 3581   6.658   7.685   6.173
 1214TIP3   OH2 3582   0.329   7.598   4.691
 1214TIP3    H1 3583   0.268   7.636   4.627
 1214TIP3    H2 3584   0.292   7.623   4.776
 1215TIP3   OH2 3585   0.803   1.161   4.119
 1215TIP3    H1 3586   0.780   1.071   4.098
 1215TIP3    H2 3587   0.726   1.196   4.164
 1216TIP3   OH2 3588   1.464   6.871   2.171
 1216TIP3    H1 3589   1.531   6.872   2.103
 1216TIP3    H2 3590   1.446   6.963   2.189
 1217TIP3   OH2 3591   4.763   0.786   5.185
 1217TIP3    H1 3592   4.840   0.842   5.194
 1217TIP3    H2 3593   4.784   0.707   5.234
 1218TIP3   OH2 3594   3.408   0.631   0.263
 1218TIP3    H1 3595   3.472   0.656   0.196
 1218TIP3    H2 3596   3.391   0.713   0.310
 1219TIP3   OH2 3597   1.178   4.390   5.844
 1219TIP3    H1 3598   1.179   4.352   5.756
 1219TIP3    H2 3599   1.249   4.346   5.889
 1220TIP3   OH2 3600   8.269   6.685   6.341
 1220TIP3    H1 3601   8.359   6.704   6.316
 1220TIP3    H2 3602   8.276   6.621   6.412
 1221TIP3   OH2 3603   0.074   0.346   2.621
 1221TIP3    H1 3604   0.007   0.292   2.664
 1221TIP3    H2 3605   0.153   0.331   2.673
 1222TIP3   OH2 3606   2.485   7.695   4.421
 1222TIP3    H1 3607   2.493   7.757   4.494
 1222TIP3    H2 3608   2.525   7.614   4.454
 1223TIP3   OH2 3609   3.926   7.583   6.535
 1223TIP3    H1 3610   3.873   7.572   6.613
 1223TIP3    H2 3611   3.866   7.617   6.469
 1224TIP3   OH2 3612   3.630   4.046   5.502
 1224TIP3    H1 3613   3.551   4.051   5.554
 1224TIP3    H2 3614   3.647   4.136   5.473
 1225TIP3   OH2 3615   1.782   2.922   0.810
 1225TIP3    H1 3616   1.872   2.955   0.820
 1225TIP3    H2 3617   1.734   2.994   0.768
 1226TIP3   OH2 3618   2.911   1.855   1.314
 1226TIP3    H1 3619   2.956   1.939   1.320
 1226TIP3    H2 3620   2.826   1.870   1.354
 1227TIP3   OH2 3621   5.929   2.072   3.754
 1227TIP3    H1 3622   5.905   2.154   3.711
 1227TIP3    H2 3623   5.851   2.017   3.745
 1228TIP3   OH2 3624   3.484   6.497   3.920
 1228TIP3    H1 3625   3.413   6.508   3.856
 1228TIP3    H2 3626   3.455   6.547   3.996
 1229TIP3   OH2 3627   4.954   4.802   6.388
 1229TIP3    H1 3628   4.944   4.889   6.428
 1229TIP3    H2 3629   5.046   4.797   6.363
 1230TIP3   OH2 3630   1.918   2.561   4.866
 1230TIP3    H1 3631   1.996   2.546   4.920
 1230TIP3    H2 3632   1.950   2.558   4.776
 1231TIP3   OH2 3633   6.304   4.534   5.357
 1231TIP3    H1 3634   6.238   4.574   5.301
 1231TIP3    H2 3635   6.265   4.535   5.445
 1232TIP3   OH2 3636   5.613   0.875   0.212
 1232TIP3    H1 3637   5.621   0.942   0.144
 1232TIP3    H2 3638   5.582   0.797   0.166
 1233TIP3   OH2 3639   0.023   0.856   0.252
 1233TIP3    H1 3640   0.109   0.817   0.241
 1233TIP3    H2 3641  -0.037   0.793   0.211
 1234TIP3   OH2 3642   2.076   2.530   2.343
 1234TIP3    H1 3643   2.105   2.603   2.397
 1234TIP3    H2 3644   1.981   2.530   2.350
 1235TIP3   OH2 3645   2.352   7.703   4.778
 1235TIP3    H1 3646   2.432   7.719   4.729
 1235TIP3    H2 3647   2.369   7.622   4.826
 1236TIP3   OH2 3648   6.000   2.452   5.455
 1236TIP3    H1 3649   6.045   2.472   5.537
 1236TIP3    H2 3650   6.059   2.392   5.410
 1237TIP3   OH2 3651   6.437   7.686   3.175
 1237TIP3    H1 3652   6.470   7.605   3.214
 1237TIP3    H2 3653   6.354   7.703   3.220
 1238TIP3   OH2 3654   8.120   1.044   1.725
 1238TIP3    H1 3655   8.094   0.958   1.757
 1238TIP3    H2 3656   8.049   1.102   1.749
 1239TIP3   OH2 3657   1.152   1.745   4.983
 1239TIP3    H1 3658   1.090   1.789   5.041
 1239TIP3    H2 3659   1.109   1.745   4.898
 1240TIP3   OH2 3660   5.819   5.019   4.091
 1240TIP3    H1 3661   5.769   4.937   4.091
 1240TIP3    H2 3662   5.907   4.992   4.116
 1241TIP3   OH2 3663   6.253   6.011   4.524
 1241TIP3    H1 3664   6.302   5.929   4.526
 1241TIP3    H2 3665   6.310   6.073   4.480
 1242TIP3   OH2 3666   7.434   4.994   0.557
 1242TIP3    H1 3667   7.391   4.978   0.473
 1242TIP3    H2 3668   7.481   4.913   0.575
 1243TIP3   OH2 3669   3.778   6.767   6.555
 1243TIP3    H1 3670   3.685   6.758   6.577
 1243TIP3    H2 3671   3.808   6.678   6.537
 1244TIP3   OH2 3672   1.528   1.162   2.696
 1244TIP3    H1 3673   1.545   1.254   2.674
 1244TIP3    H2 3674   1.436   1.149   2.673
 1245TIP3   OH2 3675   5.307   3.858   4.440
 1245TIP3    H1 3676   5.312   3.831   4.531
 1245TIP3    H2 3677   5.264   3.785   4.395
 1246TIP3   OH2 3678   5.420   7.822   5.791
 1246TIP3    H1 3679   5.402   7.758   5.721
 1246TIP3    H2 3680   5.356   7.802   5.858
 1247TIP3   OH2 3681   7.056   7.242   4.699
 1247TIP3    H1 3682   7.141   7.220   4.737
 1247TIP3    H2 3683   7.062   7.214   4.608
 1248TIP3   OH2 3684   6.374   0.956   4.701
 1248TIP3    H1 3685   6.375   0.972   4.795
 1248TIP3    H2 3686   6.433   1.023   4.665
 1249TIP3   OH2 3687   6.167   6.425   3.424
 1249TIP3    H1 3688   6.135   6.384   3.343
 1249TIP3    H2 3689   6.105   6.395   3.491
 1250TIP3   OH2 3690   1.535   2.731   1.105
 1250TIP3    H1 3691   1.440   2.715   1.099
 1250TIP3    H2 3692   1.564   2.678   1.179
 1251TIP3   OH2 3693   7.988   3.568   5.220
 1251TIP3    H1 3694   7.897   3.551   5.194
 1251TIP3    H2 3695   8.001   3.662   5.203
 1252TIP3   OH2 3696   8.077   4.993   5.407
 1252TIP3    H1 3697   8.030   4.952   5.334
 1252TIP3    H2 3698   8.029   4.967   5.485
 1253TIP3   OH2 3699   6.032   0.168   6.465
 1253TIP3    H1 3700   5.981   0.241   6.429
 1253TIP3    H2 3701   6.111   0.165   6.409
 1254TIP3   OH2 3702   0.335   3.038   3.304
 1254TIP3    H1 3703   0.312   3.001   3.389
 1254TIP3    H2 3704   0.258   3.023   3.249
 1255TIP3   OH2 3705   5.711   6.941   2.258
 1255TIP3    H1 3706   5.642   6.875   2.266
 1255TIP3    H2 3707   5.788   6.900   2.298
 1256TIP3   OH2 3708   1.852   6.915   2.673
 1256TIP3    H1 3709   1.896   6.970   2.737
 1256TIP3    H2 3710   1.773   6.965   2.649
 1257TIP3   OH2 3711   6.703   3.916   6.413
 1257TIP3    H1 3712   6.682   3.891   6.503
 1257TIP3    H2 3713   6.782   3.865   6.392
 1258TIP3   OH2 3714   5.612   7.434   4.717
 1258TIP3    H1 3715   5.686   7.446   4.777
 1258TIP3    H2 3716   5.643   7.370   4.653
 1259TIP3   OH2 3717   0.445   3.900   1.000
 1259TIP3    H1 3718   0.478   3.820   0.958
 1259TIP3    H2 3719   0.523   3.952   1.018
 1260TIP3   OH2 3720   4.378   6.469   2.122
 1260TIP3    H1 3721   4.359   6.407   2.193
 1260TIP3    H2 3722   4.305   6.459   2.061
 1261TIP3   OH2 3723   6.726   4.289   4.768
 1261TIP3    H1 3724   6.762   4.361   4.820
 1261TIP3    H2 3725   6.711   4.219   4.831
 1262TIP3   OH2 3726   0.080   5.233   5.714
 1262TIP3    H1 3727  -0.003   5.279   5.727
 1262TIP3    H2 3728   0.064   5.144   5.748
 1263TIP3   OH2 3729   2.014   7.045   5.715
 1263TIP3    H1 3730   1.977   7.089   5.639
 1263TIP3    H2 3731   2.075   6.980   5.678
 1264TIP3   OH2 3732   0.804   4.186   2.441
 1264TIP3    H1 3733   0.802   4.274   2.480
 1264TIP3    H2 3734   0.807   4.127   2.517
 1265TIP3   OH2 3735   3.599   5.614   2.124
 1265TIP3    H1 3736   3.616   5.700   2.085
 1265TIP3    H2 3737   3.603   5.553   2.050
 1266TIP3   OH2 3738   2.190   5.042   4.423
 1266TIP3    H1 3739   2.203   4.955   4.460
 1266TIP3    H2 3740   2.098   5.063   4.442
 1267TIP3   OH2 3741   5.818   2.353   1.864
 1267TIP3    H1 3742   5.781   2.333   1.950
 1267TIP3    H2 3743   5.813   2.270   1.817
 1268TIP3   OH2 3744   3.251   3.191   1.651
 1268TIP3    H1 3745   3.176   3.132   1.646
 1268TIP3    H2 3746   3.245   3.245   1.572
 1269TIP3   OH2 3747   8.181   1.328   6.249
 1269TIP3    H1 3748   8.218   1.375   6.323
 1269TIP3    H2 3749   8.092   1.363   6.239
 1270TIP3   OH2 3750   5.549   3.020   2.147
 1270TIP3    H1 3751   5.632   2.980   2.121
 1270TIP3    H2 3752   5.563   3.114   2.137
 1271TIP3   OH2 3753   0.668   7.080   5.164
 1271TIP3    H1 3754   0.713   7.142   5.106
 1271TIP3    H2 3755   0.692   7.106   5.252
 1272TIP3   OH2 3756   3.635   2.583   5.912
 1272TIP3    H1 3757   3.585   2.591   5.831
 1272TIP3    H2 3758   3.689   2.662   5.914
 1273TIP3   OH2 3759   6.149   1.289   1.046
 1273TIP3    H1 3760   6.092   1.305   1.121
 1273TIP3    H2 3761   6.220   1.353   1.055
 1274TIP3   OH2 3762   2.105   2.136   5.198
 1274TIP3    H1 3763   2.173   2.154   5.262
 1274TIP3    H2 3764   2.029   2.185   5.229
 1275TIP3   OH2 3765   7.890   0.668   6.290
 1275TIP3    H1 3766   7.969   0.719   6.309
 1275TIP3    H2 3767   7.918   0.607   6.221
 1276TIP3   OH2 3768   4.617   7.748   1.954
 1276TIP3    H1 3769   4.700   7.715   1.989
 1276TIP3    H2 3770   4.640   7.789   1.871
 1277TIP3   OH2 3771   8.182   0.460   5.434
 1277TIP3    H1 3772   8.117   0.522   5.402
 1277TIP3    H2 3773   8.184   0.390   5.368
 1278TIP3   OH2 3774   0.932   0.132   0.193
 1278TIP3    H1 3775   0.943   0.187   0.271
 1278TIP3    H2 3776   0.899   0.049   0.227
 1279TIP3   OH2 3777   5.684   7.505   1.310
 1279TIP3    H1 3778   5.754   7.500   1.244
 1279TIP3    H2 3779   5.659   7.597   1.312
 1280TIP3   OH2 3780   8.269   0.082   2.499
 1280TIP3    H1 3781   8.189   0.114   2.458
 1280TIP3    H2 3782   8.261   0.109   2.591
 1281TIP3   OH2 3783   7.522   1.786   0.637
 1281TIP3    H1 3784   7.521   1.757   0.546
 1281TIP3    H2 3785   7.590   1.854   0.639
 1282TIP3   OH2 3786   1.608   0.316   6.397
 1282TIP3    H1 3787   1.595   0.293   6.489
 1282TIP3    H2 3788   1.700   0.340   6.391
 1283TIP3   OH2 3789   7.242   7.199   2.641
 1283TIP3    H1 3790   7.274   7.221   2.728
 1283TIP3    H2 3791   7.150   7.223   2.642
 1284TIP3   OH2 3792   0.860   5.937   5.687
 1284TIP3    H1 3793   0.776   5.916   5.728
 1284TIP3    H2 3794   0.880   5.860   5.633
 1285TIP3   OH2 3795   2.522   2.804   5.559
 1285TIP3    H1 3796   2.601   2.752   5.543
 1285TIP3    H2 3797   2.493   2.831   5.472
 1286TIP3   OH2 3798   5.595   2.794   4.129
 1286TIP3    H1 3799   5.545   2.835   4.058
 1286TIP3    H2 3800   5.649   2.864   4.165
 1287TIP3   OH2 3801   8.153   2.258   3.910
 1287TIP3    H1 3802   8.185   2.267   4.000
 1287TIP3    H2 3803   8.210   2.191   3.871
 1288TIP3   OH2 3804   3.598   5.132   5.614
 1288TIP3    H1 3805   3.537   5.097   5.679
 1288TIP3    H2 3806   3.685   5.103   5.644
 1289TIP3   OH2 3807   5.538   4.169   0.343
 1289TIP3    H1 3808   5.618   4.148   0.391
 1289TIP3    H2 3809   5.473   4.185   0.411
 1290TIP3   OH2 3810   3.259   3.435   2.204
 1290TIP3    H1 3811   3.294   3.347   2.192
 1290TIP3    H2 3812   3.320   3.477   2.264
 1291TIP3   OH2 3813   4.284   3.117   1.264
 1291TIP3    H1 3814   4.253   3.158   1.183
 1291TIP3    H2 3815   4.363   3.166   1.286
 1292TIP3   OH2 3816   0.551   3.787   6.580
 1292TIP3    H1 3817   0.629   3.821   6.537
 1292TIP3    H2 3818   0.578   3.703   6.617
 1293TIP3   OH2 3819   5.043   1.181   2.359
 1293TIP3    H1 3820   5.077   1.107   2.410
 1293TIP3    H2 3821   4.949   1.177   2.373
 1294TIP3   OH2 3822   5.156   5.621   0.953
 1294TIP3    H1 3823   5.158   5.654   1.042
 1294TIP3    H2 3824   5.126   5.695   0.900
 1295TIP3   OH2 3825   5.536   1.739   3.661
 1295TIP3    H1 3826   5.459   1.718   3.713
 1295TIP3    H2 3827   5.505   1.738   3.571
 1296TIP3   OH2 3828   0.841   5.303   5.878
 1296TIP3    H1 3829   0.865   5.345   5.961
 1296TIP3    H2 3830   0.796   5.372   5.829
 1297TIP3   OH2 3831   3.810   1.587   2.963
 1297TIP3    H1 3832   3.757   1.543   2.897
 1297TIP3    H2 3833   3.892   1.537   2.966
 1298TIP3   OH2 3834   6.155   5.143   6.477
 1298TIP3    H1 3835   6.077   5.089   6.492
 1298TIP3    H2 3836   6.150   5.210   6.545
 1299TIP3   OH2 3837   0.816   0.220  -0.046
 1299TIP3    H1 3838   0.873   0.274  -0.100
 1299TIP3    H2 3839   0.846   0.236   0.044
 1300TIP3   OH2 3840   1.401   0.189   2.109
 1300TIP3    H1 3841   1.366   0.169   2.195
 1300TIP3    H2 3842   1.425   0.281   2.113
 1301TIP3   OH2 3843   2.004   4.205   3.165
 1301TIP3    H1 3844   1.938   4.176   3.227
 1301TIP3    H2 3845   1.985   4.156   3.085
 1302TIP3   OH2 3846   3.993   3.044   3.560
 1302TIP3    H1 3847   3.941   3.098   3.620
 1302TIP3    H2 3848   4.050   3.106   3.515
 1303TIP3   OH2 3849   7.933   4.965   4.963
 1303TIP3    H1 3850   7.958   5.018   4.887
 1303TIP3    H2 3851   7.849   5.002   4.991
 1304TIP3   OH2 3852   0.738   2.209   2.447
 1304TIP3    H1 3853   0.753   2.303   2.458
 1304TIP3    H2 3854   0.712   2.178   2.533
 1305TIP3   OH2 3855   7.698   2.161   3.865
 1305TIP3    H1 3856   7.692   2.184   3.958
 1305TIP3    H2 3857   7.778   2.109   3.858
 1306TIP3   OH2 3858   1.031   4.991   4.245
 1306TIP3    H1 3859   1.084   5.033   4.312
 1306TIP3    H2 3860   1.073   5.015   4.162
 1307TIP3   OH2 3861   4.450   5.674   4.368
 1307TIP3    H1 3862   4.385   5.737   4.398
 1307TIP3    H2 3863   4.515   5.727   4.322
 1308TIP3   OH2 3864   1.688   2.585   4.712
 1308TIP3    H1 3865   1.758   2.583   4.777
 1308TIP3    H2 3866   1.667   2.493   4.696
 1309TIP3   OH2 3867   0.041   0.182   2.121
 1309TIP3    H1 3868   0.047   0.244   2.194
 1309TIP3    H2 3869  -0.007   0.108   2.156
 1310TIP3   OH2 3870   2.908   0.587   3.640
 1310TIP3    H1 3871   2.965   0.576   3.565
 1310TIP3    H2 3872   2.847   0.514   3.635
 1311TIP3   OH2 3873   0.025   3.881   4.175
 1311TIP3    H1 3874  -0.041   3.814   4.158
 1311TIP3    H2 3875   0.099   3.858   4.120
 1312TIP3   OH2 3876   6.611   5.604   0.670
 1312TIP3    H1 3877   6.587   5.662   0.742
 1312TIP3    H2 3878   6.586   5.651   0.591
 1313TIP3   OH2 3879   0.051   2.060   2.547
 1313TIP3    H1 3880   0.103   2.124   2.498
 1313TIP3    H2 3881   0.107   2.036   2.620
 1314TIP3   OH2 3882   3.823   5.663   5.593
 1314TIP3    H1 3883   3.821   5.757   5.610
 1314TIP3    H2 3884   3.829   5.656   5.498
 1315TIP3   OH2 3885   5.843   5.356   2.863
 1315TIP3    H1 3886   5.909   5.344   2.930
 1315TIP3    H2 3887   5.814   5.267   2.841
 1316TIP3   OH2 3888   8.044   1.200   6.563
 1316TIP3    H1 3889   8.042   1.214   6.658
 1316TIP3    H2 3890   8.107   1.264   6.531
 1317TIP3   OH2 3891   1.711   4.331   3.765
 1317TIP3    H1 3892   1.793   4.375   3.788
 1317TIP3    H2 3893   1.732   4.281   3.686
 1318TIP3   OH2 3894   5.460   7.010   1.558
 1318TIP3    H1 3895   5.538   7.060   1.531
 1318TIP3    H2 3896   5.422   6.978   1.476
 1319TIP3   OH2 3897   2.342   3.670   4.836
 1319TIP3    H1 3898   2.431   3.638   4.850
 1319TIP3    H2 3899   2.321   3.719   4.915
 1320TIP3   OH2 3900   7.582   7.701   0.927
 1320TIP3    H1 3901   7.555   7.615   0.894
 1320TIP3    H2 3902   7.658   7.682   0.983
 1321TIP3   OH2 3903   8.287   1.210   4.260
 1321TIP3    H1 3904   8.210   1.187   4.310
 1321TIP3    H2 3905   8.305   1.134   4.205
 1322TIP3   OH2 3906   1.320   0.487   5.816
 1322TIP3    H1 3907   1.310   0.545   5.741
 1322TIP3    H2 3908   1.368   0.412   5.783
 1323TIP3   OH2 3909   1.308   2.169   0.559
 1323TIP3    H1 3910   1.213   2.168   0.569
 1323TIP3    H2 3911   1.322   2.156   0.465
 1324TIP3   OH2 3912   4.076   3.378   6.155
 1324TIP3    H1 3913   4.045   3.410   6.239
 1324TIP3    H2 3914   4.135   3.305   6.177
 1325TIP3   OH2 3915   4.098   3.343   1.809
 1325TIP3    H1 3916   4.144   3.417   1.768
 1325TIP3    H2 3917   4.107   3.358   1.903
 1326TIP3   OH2 3918   5.188   3.756   1.231
 1326TIP3    H1 3919   5.227   3.807   1.301
 1326TIP3    H2 3920   5.173   3.670   1.270
 1327TIP3   OH2 3921   8.227   5.675   3.421
 1327TIP3    H1 3922   8.208   5.749   3.479
 1327TIP3    H2 3923   8.201   5.706   3.334
 1328TIP3   OH2 3924   2.022   1.187   3.524
 1328TIP3    H1 3925   1.938   1.224   3.499
 1328TIP3    H2 3926   2.087   1.247   3.487
 1329TIP3   OH2 3927   5.481   3.067   4.690
 1329TIP3    H1 3928   5.446   3.140   4.742
 1329TIP3    H2 3929   5.533   3.016   4.752
 1330TIP3   OH2 3930   3.596   3.620   5.012
 1330TIP3    H1 3931   3.513   3.656   4.983
 1330TIP3    H2 3932   3.626   3.679   5.081
 1331TIP3   OH2 3933   3.849   7.439   4.639
 1331TIP3    H1 3934   3.786   7.383   4.593
 1331TIP3    H2 3935   3.913   7.464   4.572
 1332TIP3   OH2 3936   1.754   6.586   1.467
 1332TIP3    H1 3937   1.668   6.610   1.503
 1332TIP3    H2 3938   1.817   6.625   1.529
 1333TIP3   OH2 3939   5.758   5.202   4.302
 1333TIP3    H1 3940   5.843   5.246   4.303
 1333TIP3    H2 3941   5.760   5.148   4.223
 1334TIP3   OH2 3942   2.166   3.561   0.900
 1334TIP3    H1 3943   2.080   3.556   0.858
 1334TIP3    H2 3944   2.147   3.580   0.992
 1335TIP3   OH2 3945   0.396   0.490   2.562
 1335TIP3    H1 3946   0.367   0.415   2.615
 1335TIP3    H2 3947   0.442   0.450   2.488
 1336TIP3   OH2 3948   0.607   5.377   1.761
 1336TIP3    H1 3949   0.601   5.327   1.842
 1336TIP3    H2 3950   0.517   5.404   1.742
 1337TIP3   OH2 3951   4.115   7.894   4.479
 1337TIP3    H1 3952   4.074   7.876   4.564
 1337TIP3    H2 3953   4.203   7.924   4.501
 1338TIP3   OH2 3954   1.844   1.919   6.042
 1338TIP3    H1 3955   1.816   1.876   5.961
 1338TIP3    H2 3956   1.796   2.002   6.043
 1339TIP3   OH2 3957   7.188   7.832   5.217
 1339TIP3    H1 3958   7.110   7.886   5.205
 1339TIP3    H2 3959   7.153   7.743   5.228
 1340TIP3   OH2 3960   5.778   3.418   3.178
 1340TIP3    H1 3961   5.841   3.489   3.193
 1340TIP3    H2 3962   5.717   3.424   3.251
 1341TIP3   OH2 3963   1.340   0.351   2.823
 1341TIP3    H1 3964   1.392   0.430   2.810
 1341TIP3    H2 3965   1.360   0.324   2.913
 1342TIP3   OH2 3966   1.394   5.874   5.349
 1342TIP3    H1 3967   1.431   5.792   5.314
 1342TIP3    H2 3968   1.328   5.846   5.411
 1343TIP3   OH2 3969   3.247   7.429   6.045
 1343TIP3    H1 3970   3.267   7.483   5.969
 1343TIP3    H2 3971   3.270   7.485   6.120
 1344TIP3   OH2 3972   3.226   6.092   1.458
 1344TIP3    H1 3973   3.233   6.186   1.472
 1344TIP3    H2 3974   3.284   6.074   1.384
 1345TIP3   OH2 3975   5.068   5.881   5.179
 1345TIP3    H1 3976   5.087   5.935   5.256
 1345TIP3    H2 3977   4.976   5.856   5.189
 1346TIP3   OH2 3978   2.416   1.285   2.857
 1346TIP3    H1 3979   2.394   1.258   2.768
 1346TIP3    H2 3980   2.435   1.379   2.849
 1347TIP3   OH2 3981   7.253   5.688   0.935
 1347TIP3    H1 3982   7.183   5.749   0.956
 1347TIP3    H2 3983   7.213   5.602   0.943
 1348TIP3   OH2 3984   5.745   0.098   2.781
 1348TIP3    H1 3985   5.823   0.094   2.837
 1348TIP3    H2 3986   5.706   0.183   2.799
 1349TIP3   OH2 3987   4.754   6.008   2.324
 1349TIP3    H1 3988   4.698   6.085   2.309
 1349TIP3    H2 3989   4.785   5.984   2.237
 1350TIP3   OH2 3990   5.614   4.774   4.070
 1350TIP3    H1 3991   5.598   4.702   4.009
 1350TIP3    H2 3992   5.608   4.734   4.156
 1351TIP3   OH2 3993   4.443   6.827   3.370
 1351TIP3    H1 3994   4.366   6.821   3.426
 1351TIP3    H2 3995   4.485   6.909   3.394
 1352TIP3   OH2 3996   8.313   2.239   6.371
 1352TIP3    H1 3997   8.403   2.232   6.403
 1352TIP3    H2 3998   8.286   2.149   6.353
 1353TIP3   OH2 3999   6.489   7.631   2.899
 1353TIP3    H1 4000   6.502   7.543   2.933
 1353TIP3    H2 4001   6.462   7.682   2.975
 1354TIP3   OH2 4002   1.831   0.373   4.816
 1354TIP3    H1 4003   1.822   0.468   4.814
 1354TIP3    H2 4004   1.925   0.358   4.825
 1355TIP3   OH2 4005   3.372   6.067   3.435
 1355TIP3    H1 4006   3.403   6.155   3.454
 1355TIP3    H2 4007   3.346   6.031   3.520
 1356TIP3   OH2 4008   4.627   7.527   0.757
 1356TIP3    H1 4009   4.708   7.524   0.705
 1356TIP3    H2 4010   4.572   7.459   0.719
 1357TIP3   OH2 4011   0.699   4.453   5.892
 1357TIP3    H1 4012   0.641   4.524   5.863
 1357TIP3    H2 4013   0.682   4.445   5.986
 1358TIP3   OH2 4014   8.209   5.986   6.502
 1358TIP3    H1 4015   8.300   5.969   6.525
 1358TIP3    H2 4016   8.195   6.078   6.524
 1359TIP3   OH2 4017   3.161   2.518   1.285
 1359TIP3    H1 4018   3.095   2.453   1.260
 1359TIP3    H2 4019   3.138   2.596   1.235
 1360TIP3   OH2 4020   3.019   1.775   5.773
 1360TIP3    H1 4021   3.105   1.809   5.797
 1360TIP3    H2 4022   3.036   1.684   5.748
 1361TIP3   OH2 4023   4.689   5.948   3.929
 1361TIP3    H1 4024   4.744   5.878   3.893
 1361TIP3    H2 4025   4.602   5.930   3.894
 1362TIP3   OH2 4026   7.171   6.949   1.300
 1362TIP3    H1 4027   7.235   6.877   1.302
 1362TIP3    H2 4028   7.134   6.945   1.212
 1363TIP3   OH2 4029   1.267   4.387   5.319
 1363TIP3    H1 4030   1.217   4.386   5.237
 1363TIP3    H2 4031   1.228   4.458   5.370
 1364TIP3   OH2 4032   6.857   6.035   6.204
 1364TIP3    H1 4033   6.799   6.104   6.173
 1364TIP3    H2 4034   6.857   6.045   6.300
 1365TIP3   OH2 4035   3.055   3.695   5.485
 1365TIP3    H1 4036   2.969   3.712   5.525
 1365TIP3    H2 4037   3.085   3.615   5.529
 1366TIP3   OH2 4038   3.504   4.996   5.091
 1366TIP3    H1 4039   3.593   4.974   5.065
 1366TIP3    H2 4040   3.450   4.927   5.050
 1367TIP3   OH2 4041   3.419   0.255   4.798
 1367TIP3    H1 4042   3.409   0.301   4.714
 1367TIP3    H2 4043   3.383   0.168   4.782
 1368TIP3   OH2 4044   0.615   2.274   4.675
 1368TIP3    H1 4045   0.566   2.208   4.625
 1368TIP3    H2 4046   0.700   2.278   4.631
 1369TIP3   OH2 4047   7.788   0.047   0.899
 1369TIP3    H1 4048   7.726   0.003   0.957
 1369TIP3    H2 4049   7.736   0.073   0.823
 1370TIP3   OH2 4050   4.981   3.682   1.491
 1370TIP3    H1 4051   4.913   3.614   1.494
 1370TIP3    H2 4052   5.061   3.636   1.516
 1371TIP3   OH2 4053   6.810   5.195   4.268
 1371TIP3    H1 4054   6.902   5.181   4.242
 1371TIP3    H2 4055   6.807   5.286   4.298
 1372TIP3   OH2 4056   3.328   0.473   1.707
 1372TIP3    H1 4057   3.275   0.545   1.671
 1372TIP3    H2 4058   3.265   0.415   1.749
 1373TIP3   OH2 4059   3.852   6.404   0.970
 1373TIP3    H1 4060   3.810   6.329   0.926
 1373TIP3    H2 4061   3.920   6.364   1.024
 1374TIP3   OH2 4062   6.926   2.439   5.154
 1374TIP3    H1 4063   7.015   2.465   5.181
 1374TIP3    H2 4064   6.877   2.435   5.236
 1375TIP3   OH2 4065   6.101   2.532   3.991
 1375TIP3    H1 4066   6.072   2.622   3.978
 1375TIP3    H2 4067   6.169   2.539   4.058
 1376TIP3   OH2 4068   0.697   0.543   3.520
 1376TIP3    H1 4069   0.618   0.498   3.490
 1376TIP3    H2 4070   0.704   0.620   3.463
 1377TIP3   OH2 4071   7.059   3.451   3.995
 1377TIP3    H1 4072   7.066   3.522   4.058
 1377TIP3    H2 4073   7.094   3.487   3.914
 1378TIP3   OH2 4074   0.411   3.949   2.044
 1378TIP3    H1 4075   0.502   3.926   2.067
 1378TIP3    H2 4076   0.397   4.033   2.087
 1379TIP3   OH2 4077   8.097   1.491   0.254
 1379TIP3    H1 4078   8.177   1.533   0.284
 1379TIP3    H2 4079   8.095   1.508   0.160
 1380TIP3   OH2 4080   1.929   3.011   2.580
 1380TIP3    H1 4081   2.004   2.957   2.604
 1380TIP3    H2 4082   1.853   2.954   2.594
 1381TIP3   OH2 4083   0.472   6.135   2.543
 1381TIP3    H1 4084   0.510   6.140   2.631
 1381TIP3    H2 4085   0.548   6.133   2.484
 1382TIP3   OH2 4086   2.575   2.206   4.449
 1382TIP3    H1 4087   2.670   2.202   4.451
 1382TIP3    H2 4088   2.551   2.251   4.531
 1383TIP3   OH2 4089   4.326   0.942   6.753
 1383TIP3    H1 4090   4.398   0.935   6.690
 1383TIP3    H2 4091   4.247   0.930   6.701
 1384TIP3   OH2 4092   6.920   3.830   5.758
 1384TIP3    H1 4093   6.958   3.746   5.786
 1384TIP3    H2 4094   6.826   3.813   5.754
 1385TIP3   OH2 4095   4.051   5.239   5.283
 1385TIP3    H1 4096   4.118   5.273   5.342
 1385TIP3    H2 4097   4.090   5.161   5.245
 1386TIP3   OH2 4098   1.223   2.552   3.010
 1386TIP3    H1 4099   1.152   2.597   3.055
 1386TIP3    H2 4100   1.280   2.520   3.080
 1387TIP3   OH2 4101   2.737   6.256   0.235
 1387TIP3    H1 4102   2.812   6.212   0.275
 1387TIP3    H2 4103   2.664   6.238   0.294
 1388TIP3   OH2 4104   7.536   3.219   6.458
 1388TIP3    H1 4105   7.454   3.191   6.500
 1388TIP3    H2 4106   7.551   3.153   6.390
 1389TIP3   OH2 4107   1.392   0.259   3.889
 1389TIP3    H1 4108   1.372   0.168   3.867
 1389TIP3    H2 4109   1.476   0.254   3.935
 1390TIP3   OH2 4110   3.175   5.001   0.922
 1390TIP3    H1 4111   3.150   5.055   0.846
 1390TIP3    H2 4112   3.185   5.064   0.993
 1391TIP3   OH2 4113   1.447   7.816   1.219
 1391TIP3    H1 4114   1.368   7.854   1.257
 1391TIP3    H2 4115   1.448   7.847   1.128
 1392TIP3   OH2 4116   3.149   7.669   0.109
 1392TIP3    H1 4117   3.130   7.684   0.201
 1392TIP3    H2 4118   3.239   7.637   0.108
 1393TIP3   OH2 4119   7.276   4.520   3.874
 1393TIP3    H1 4120   7.339   4.468   3.924
 1393TIP3    H2 4121   7.297   4.611   3.896
 1394TIP3   OH2 4122  -0.007   0.039   1.366
 1394TIP3    H1 4123  -0.016  -0.055   1.346
 1394TIP3    H2 4124  -0.034   0.083   1.285
 1395TIP3   OH2 4125   2.190   0.055   3.811
 1395TIP3    H1 4126   2.114   0.093   3.766
 1395TIP3    H2 4127   2.198   0.107   3.891
 1396TIP3   OH2 4128   7.574   3.324   1.523
 1396TIP3    H1 4129   7.524   3.404   1.542
 1396TIP3    H2 4130   7.513   3.269   1.475
 1397TIP3   OH2 4131   6.341   0.499   6.809
 1397TIP3    H1 4132   6.411   0.478   6.871
 1397TIP3    H2 4133   6.263   0.459   6.845
 1398TIP3   OH2 4134   2.357   7.590   5.299
 1398TIP3    H1 4135   2.407   7.511   5.279
 1398TIP3    H2 4136   2.418   7.662   5.282
 1399TIP3   OH2 4137   6.744   0.732   3.807
 1399TIP3    H1 4138   6.800   0.681   3.866
 1399TIP3    H2 4139   6.704   0.667   3.750
 1400TIP3   OH2 4140   7.596   2.895   5.794
 1400TIP3    H1 4141   7.639   2.978   5.814
 1400TIP3    H2 4142   7.503   2.918   5.783
 1401TIP3   OH2 4143   4.933   3.769   3.508
 1401TIP3    H1 4144   4.955   3.773   3.415
 1401TIP3    H2 4145   4.905   3.679   3.523
 1402TIP3   OH2 4146   0.917   6.243   1.210
 1402TIP3    H1 4147   0.964   6.165   1.239
 1402TIP3    H2 4148   0.860   6.212   1.140
 1403TIP3   OH2 4149   0.223   3.966   1.118
 1403TIP3    H1 4150   0.235   4.060   1.133
 1403TIP3    H2 4151   0.310   3.935   1.093
 1404TIP3   OH2 4152   6.592   7.857   2.509
 1404TIP3    H1 4153   6.681   7.821   2.511
 1404TIP3    H2 4154   6.548   7.816   2.583
 1405TIP3   OH2 4155   0.464   4.404   0.358
 1405TIP3    H1 4156   0.515   4.464   0.413
 1405TIP3    H2 4157   0.374   4.414   0.389
 1406TIP3   OH2 4158   3.043   5.995   6.554
 1406TIP3    H1 4159   2.977   6.063   6.541
 1406TIP3    H2 4160   3.072   5.972   6.466
 1407TIP3   OH2 4161   7.271   0.786   6.200
 1407TIP3    H1 4162   7.251   0.818   6.287
 1407TIP3    H2 4163   7.355   0.741   6.209
 1408TIP3   OH2 4164   1.899   2.091   3.832
 1408TIP3    H1 4165   1.809   2.110   3.859
 1408TIP3    H2 4166   1.921   2.161   3.770
 1409TIP3   OH2 4167   7.586   4.884   2.652
 1409TIP3    H1 4168   7.561   4.858   2.563
 1409TIP3    H2 4169   7.560   4.810   2.707
 1410TIP3   OH2 4170   1.420   1.277   6.446
 1410TIP3    H1 4171   1.369   1.332   6.387
 1410TIP3    H2 4172   1.494   1.248   6.394
 1411TIP3   OH2 4173   1.990   6.012   0.395
 1411TIP3    H1 4174   1.897   6.028   0.379
 1411TIP3    H2 4175   2.028   6.006   0.307
 1412TIP3   OH2 4176   2.484   5.490   4.688
 1412TIP3    H1 4177   2.471   5.407   4.735
 1412TIP3    H2 4178   2.557   5.473   4.629
 1413TIP3   OH2 4179   7.971   7.175   3.098
 1413TIP3    H1 4180   7.994   7.268   3.095
 1413TIP3    H2 4181   8.056   7.130   3.107
 1414TIP3   OH2 4182   6.783   5.611   2.082
 1414TIP3    H1 4183   6.728   5.610   2.004
 1414TIP3    H2 4184   6.724   5.638   2.153
 1415TIP3   OH2 4185   7.741   0.383   0.487
 1415TIP3    H1 4186   7.700   0.310   0.439
 1415TIP3    H2 4187   7.834   0.374   0.468
 1416TIP3   OH2 4188   1.955   7.864   6.202
 1416TIP3    H1 4189   2.042   7.826   6.211
 1416TIP3    H2 4190   1.925   7.877   6.292
 1417TIP3   OH2 4191   4.061   5.145   1.839
 1417TIP3    H1 4192   4.153   5.130   1.817
 1417TIP3    H2 4193   4.049   5.104   1.924
 1418TIP3   OH2 4194   0.929   4.778   1.350
 1418TIP3    H1 4195   0.883   4.765   1.433
 1418TIP3    H2 4196   0.975   4.862   1.361
 1419TIP3   OH2 4197   5.567   1.192   1.168
 1419TIP3    H1 4198   5.549   1.101   1.190
 1419TIP3    H2 4199   5.610   1.189   1.083
 1420TIP3   OH2 4200   6.614   3.023   0.343
 1420TIP3    H1 4201   6.609   3.059   0.432
 1420TIP3    H2 4202   6.705   3.039   0.316
 1421TIP3   OH2 4203   6.089   1.371   3.424
 1421TIP3    H1 4204   6.122   1.439   3.482
 1421TIP3    H2 4205   6.014   1.335   3.471
 1422TIP3   OH2 4206   1.231   3.044   6.385
 1422TIP3    H1 4207   1.191   3.018   6.303
 1422TIP3    H2 4208   1.183   2.996   6.452
 1423TIP3   OH2 4209   4.576   5.816   5.400
 1423TIP3    H1 4210   4.509   5.856   5.344
 1423TIP3    H2 4211   4.528   5.749   5.450
 1424TIP3   OH2 4212   8.358   0.730   0.945
 1424TIP3    H1 4213   8.365   0.650   0.996
 1424TIP3    H2 4214   8.422   0.719   0.874
 1425TIP3   OH2 4215   2.505   7.187   3.931
 1425TIP3    H1 4216   2.568   7.136   3.881
 1425TIP3    H2 4217   2.516   7.276   3.900
 1426TIP3   OH2 4218   4.788   2.416   1.207
 1426TIP3    H1 4219   4.773   2.367   1.289
 1426TIP3    H2 4220   4.710   2.398   1.155
 1427TIP3   OH2 4221   4.328   2.304   1.474
 1427TIP3    H1 4222   4.324   2.386   1.523
 1427TIP3    H2 4223   4.249   2.257   1.498
 1428TIP3   OH2 4224   4.629   2.521   3.333
 1428TIP3    H1 4225   4.619   2.579   3.409
 1428TIP3    H2 4226   4.555   2.461   3.339
 1429TIP3   OH2 4227   7.175   5.692   5.337
 1429TIP3    H1 4228   7.248   5.718   5.393
 1429TIP3    H2 4229   7.121   5.772   5.330
 1430TIP3   OH2 4230   3.288   6.781   4.912
 1430TIP3    H1 4231   3.304   6.814   5.001
 1430TIP3    H2 4232   3.272   6.860   4.860
 1431TIP3   OH2 4233   1.691   2.502   5.646
 1431TIP3    H1 4234   1.650   2.418   5.665
 1431TIP3    H2 4235   1.620   2.556   5.611
 1432TIP3   OH2 4236   8.239   1.959   2.690
 1432TIP3    H1 4237   8.202   1.874   2.665
 1432TIP3    H2 4238   8.306   1.977   2.623
 1433TIP3   OH2 4239   5.235   6.933   0.876
 1433TIP3    H1 4240   5.191   6.928   0.791
 1433TIP3    H2 4241   5.214   7.020   0.909
 1434TIP3   OH2 4242   3.564   3.668   1.814
 1434TIP3    H1 4243   3.504   3.734   1.848
 1434TIP3    H2 4244   3.647   3.686   1.858
 1435TIP3   OH2 4245   7.253   7.293   4.258
 1435TIP3    H1 4246   7.215   7.221   4.309
 1435TIP3    H2 4247   7.347   7.276   4.260
 1436TIP3   OH2 4248   4.144   7.176   0.749
 1436TIP3    H1 4249   4.176   7.085   0.747
 1436TIP3    H2 4250   4.203   7.221   0.809
 1437TIP3   OH2 4251   0.008   4.174   4.150
 1437TIP3    H1 4252   0.020   4.079   4.157
 1437TIP3    H2 4253  -0.014   4.188   4.058
 1438TIP3   OH2 4254   1.340   5.392   3.064
 1438TIP3    H1 4255   1.269   5.372   3.124
 1438TIP3    H2 4256   1.360   5.309   3.021
 1439TIP3   OH2 4257   7.458   3.906   1.856
 1439TIP3    H1 4258   7.423   3.938   1.772
 1439TIP3    H2 4259   7.382   3.866   1.899
 1440TIP3   OH2 4260   6.671   2.734   0.634
 1440TIP3    H1 4261   6.668   2.641   0.658
 1440TIP3    H2 4262   6.756   2.765   0.667
 1441TIP3   OH2 4263   6.520   2.217   3.317
 1441TIP3    H1 4264   6.424   2.217   3.316
 1441TIP3    H2 4265   6.543   2.259   3.400
 1442TIP3   OH2 4266   0.327   2.720   6.594
 1442TIP3    H1 4267   0.247   2.677   6.624
 1442TIP3    H2 4268   0.327   2.805   6.639
 1443TIP3   OH2 4269   4.416   1.330   6.388
 1443TIP3    H1 4270   4.412   1.251   6.335
 1443TIP3    H2 4271   4.430   1.299   6.477
 1444TIP3   OH2 4272   8.102   7.313   1.860
 1444TIP3    H1 4273   8.182   7.364   1.865
 1444TIP3    H2 4274   8.065   7.334   1.775
 1445TIP3   OH2 4275   2.244   4.052   0.335
 1445TIP3    H1 4276   2.197   4.008   0.406
 1445TIP3    H2 4277   2.324   4.001   0.323
 1446TIP3   OH2 4278   0.719   6.406   2.495
 1446TIP3    H1 4279   0.629   6.437   2.483
 1446TIP3    H2 4280   0.726   6.330   2.437
 1447TIP3   OH2 4281   7.459   5.598   0.514
 1447TIP3    H1 4282   7.468   5.606   0.609
 1447TIP3    H2 4283   7.382   5.651   0.492
 1448TIP3   OH2 4284   4.755   0.042   3.020
 1448TIP3    H1 4285   4.820   0.075   3.082
 1448TIP3    H2 4286   4.804   0.026   2.939
 1449TIP3   OH2 4287   7.604   0.292   3.287
 1449TIP3    H1 4288   7.646   0.222   3.338
 1449TIP3    H2 4289   7.639   0.281   3.198
 1450TIP3   OH2 4290   0.646   2.579   5.456
 1450TIP3    H1 4291   0.623   2.492   5.490
 1450TIP3    H2 4292   0.738   2.590   5.480
 1451TIP3   OH2 4293   5.225   3.163   2.722
 1451TIP3    H1 4294   5.246   3.252   2.752
 1451TIP3    H2 4295   5.311   3.122   2.708
 1452TIP3   OH2 4296   0.926   0.355   6.520
 1452TIP3    H1 4297   0.974   0.289   6.470
 1452TIP3    H2 4298   0.973   0.360   6.603
 1453TIP3   OH2 4299   7.659   4.626   5.964
 1453TIP3    H1 4300   7.664   4.721   5.956
 1453TIP3    H2 4301   7.615   4.597   5.884
 1454TIP3   OH2 4302   2.695   4.682   0.541
 1454TIP3    H1 4303   2.733   4.680   0.629
 1454TIP3    H2 4304   2.625   4.747   0.547
 1455TIP3   OH2 4305   3.262   4.940   3.999
 1455TIP3    H1 4306   3.246   4.965   3.908
 1455TIP3    H2 4307   3.240   5.017   4.050
 1456TIP3   OH2 4308   5.972   5.636   6.455
 1456TIP3    H1 4309   5.926   5.553   6.442
 1456TIP3    H2 4310   6.031   5.620   6.528
 1457TIP3   OH2 4311   8.271   5.725   5.926
 1457TIP3    H1 4312   8.181   5.721   5.895
 1457TIP3    H2 4313   8.323   5.734   5.847
 1458TIP3   OH2 4314   8.143   1.052   2.126
 1458TIP3    H1 4315   8.065   1.093   2.162
 1458TIP3    H2 4316   8.213   1.077   2.186
 1459TIP3   OH2 4317   5.902   6.887   2.952
 1459TIP3    H1 4318   5.939   6.823   2.891
 1459TIP3    H2 4319   5.975   6.947   2.970
 1460TIP3   OH2 4320   7.741   6.659   1.537
 1460TIP3    H1 4321   7.648   6.649   1.556
 1460TIP3    H2 4322   7.745   6.663   1.441
 1461TIP3   OH2 4323   5.638   3.366   2.738
 1461TIP3    H1 4324   5.607   3.280   2.710
 1461TIP3    H2 4325   5.727   3.372   2.705
 1462TIP3   OH2 4326   6.953   1.307   3.908
 1462TIP3    H1 4327   6.866   1.280   3.938
 1462TIP3    H2 4328   6.967   1.257   3.828
 1463TIP3   OH2 4329   3.329   4.764   5.974
 1463TIP3    H1 4330   3.254   4.704   5.973
 1463TIP3    H2 4331   3.298   4.839   6.025
 1464TIP3   OH2 4332   5.624   0.716   3.243
 1464TIP3    H1 4333   5.658   0.743   3.329
 1464TIP3    H2 4334   5.678   0.763   3.180
 1465TIP3   OH2 4335   7.049   1.932   3.367
 1465TIP3    H1 4336   7.059   2.010   3.313
 1465TIP3    H2 4337   6.995   1.873   3.315
 1466TIP3   OH2 4338   6.204   2.237   5.745
 1466TIP3    H1 4339   6.294   2.224   5.716
 1466TIP3    H2 4340   6.150   2.201   5.674
 1467TIP3   OH2 4341   3.783   7.110   6.792
 1467TIP3    H1 4342   3.833   7.192   6.800
 1467TIP3    H2 4343   3.820   7.066   6.716
 1468TIP3   OH2 4344   8.148   1.705   1.637
 1468TIP3    H1 4345   8.158   1.799   1.620
 1468TIP3    H2 4346   8.233   1.677   1.670
 1469TIP3   OH2 4347   4.777   1.465   5.520
 1469TIP3    H1 4348   4.758   1.539   5.462
 1469TIP3    H2 4349   4.838   1.501   5.585
 1470TIP3   OH2 4350   7.279   3.044   1.991
 1470TIP3    H1 4351   7.340   3.025   2.063
 1470TIP3    H2 4352   7.327   3.105   1.935
 1471TIP3   OH2 4353   5.869   5.695   5.633
 1471TIP3    H1 4354   5.831   5.775   5.669
 1471TIP3    H2 4355   5.910   5.722   5.551
 1472TIP3   OH2 4356   8.113   3.912   0.958
 1472TIP3    H1 4357   8.020   3.925   0.937
 1472TIP3    H2 4358   8.138   3.992   1.005
 1473TIP3   OH2 4359   8.041   2.039   0.254
 1473TIP3    H1 4360   8.122   2.040   0.305
 1473TIP3    H2 4361   8.050   2.112   0.193
 1474TIP3   OH2 4362   6.785   0.710   0.580
 1474TIP3    H1 4363   6.847   0.640   0.601
 1474TIP3    H2 4364   6.799   0.776   0.648
 1475TIP3   OH2 4365   6.491   1.444   1.428
 1475TIP3    H1 4366   6.431   1.426   1.355
 1475TIP3    H2 4367   6.560   1.500   1.389
 1476TIP3   OH2 4368   2.454   1.874   6.688
 1476TIP3    H1 4369   2.360   1.885   6.700
 1476TIP3    H2 4370   2.481   1.815   6.759
 1477TIP3   OH2 4371   5.834   6.388   3.738
 1477TIP3    H1 4372   5.781   6.309   3.730
 1477TIP3    H2 4373   5.802   6.429   3.819
 1478TIP3   OH2 4374   1.958   3.479   0.741
 1478TIP3    H1 4375   1.972   3.411   0.675
 1478TIP3    H2 4376   1.897   3.540   0.698
 1479TIP3   OH2 4377   5.001   3.021   0.099
 1479TIP3    H1 4378   5.050   2.939   0.100
 1479TIP3    H2 4379   5.034   3.068   0.022
 1480TIP3   OH2 4380   5.622   6.765   1.238
 1480TIP3    H1 4381   5.553   6.813   1.192
 1480TIP3    H2 4382   5.702   6.788   1.191
 1481TIP3   OH2 4383   1.179   2.068   4.566
 1481TIP3    H1 4384   1.231   2.083   4.487
 1481TIP3    H2 4385   1.150   1.977   4.559
 1482TIP3   OH2 4386   1.775   5.894   1.729
 1482TIP3    H1 4387   1.859   5.847   1.729
 1482TIP3    H2 4388   1.775   5.943   1.647
 1483TIP3   OH2 4389   5.725   2.656   3.404
 1483TIP3    H1 4390   5.788   2.686   3.338
 1483TIP3    H2 4391   5.646   2.637   3.355
 1484TIP3   OH2 4392   0.020   5.530   1.806
 1484TIP3    H1 4393   0.088   5.578   1.757
 1484TIP3    H2 4394   0.068   5.487   1.876
 1485TIP3   OH2 4395   1.413   7.620   0.559
 1485TIP3    H1 4396   1.328   7.598   0.523
 1485TIP3    H2 4397   1.450   7.536   0.588
 1486TIP3   OH2 4398   4.337   1.955   6.543
 1486TIP3    H1 4399   4.377   2.038   6.569
 1486TIP3    H2 4400   4.275   1.935   6.612
 1487TIP3   OH2 4401   1.956   6.702   1.624
 1487TIP3    H1 4402   1.930   6.692   1.716
 1487TIP3    H2 4403   2.030   6.643   1.613
 1488TIP3   OH2 4404   4.478   5.639   1.629
 1488TIP3    H1 4405   4.436   5.716   1.665
 1488TIP3    H2 4406   4.517   5.669   1.547
 1489TIP3   OH2 4407   7.401   6.514   0.226
 1489TIP3    H1 4408   7.307   6.501   0.239
 1489TIP3    H2 4409   7.407   6.581   0.158
 1490TIP3   OH2 4410   2.014   5.694   0.315
 1490TIP3    H1 4411   2.076   5.637   0.270
 1490TIP3    H2 4412   2.044   5.783   0.296
 1491TIP3   OH2 4413   0.093   5.773   0.484
 1491TIP3    H1 4414   0.004   5.750   0.509
 1491TIP3    H2 4415   0.147   5.749   0.559
 1492TIP3   OH2 4416   1.709   6.248   5.931
 1492TIP3    H1 4417   1.623   6.207   5.936
 1492TIP3    H2 4418   1.759   6.191   5.873
 1493TIP3   OH2 4419   2.733   3.001   1.725
 1493TIP3    H1 4420   2.758   2.911   1.745
 1493TIP3    H2 4421   2.758   3.051   1.803
 1494TIP3   OH2 4422   6.100   2.797   5.992
 1494TIP3    H1 4423   6.165   2.755   5.934
 1494TIP3    H2 4424   6.015   2.771   5.955
 1495TIP3   OH2 4425   4.836   4.400   4.683
 1495TIP3    H1 4426   4.893   4.476   4.671
 1495TIP3    H2 4427   4.887   4.327   4.646
 1496TIP3   OH2 4428   8.117   7.164   0.219
 1496TIP3    H1 4429   8.095   7.164   0.313
 1496TIP3    H2 4430   8.125   7.256   0.196
 1497TIP3   OH2 4431   6.447   7.596   2.344
 1497TIP3    H1 4432   6.382   7.560   2.404
 1497TIP3    H2 4433   6.419   7.567   2.257
 1498TIP3   OH2 4434   7.035   5.931   2.767
 1498TIP3    H1 4435   7.073   6.017   2.786
 1498TIP3    H2 4436   7.030   5.887   2.852
 1499TIP3   OH2 4437   3.376   7.583   2.980
 1499TIP3    H1 4438   3.432   7.531   3.037
 1499TIP3    H2 4439   3.290   7.542   2.987
 1500TIP3   OH2 4440   4.971   6.855   3.651
 1500TIP3    H1 4441   5.030   6.791   3.612
 1500TIP3    H2 4442   4.937   6.812   3.729
 1501TIP3   OH2 4443   6.807   3.737   5.018
 1501TIP3    H1 4444   6.800   3.802   4.948
 1501TIP3    H2 4445   6.718   3.729   5.052
 1502TIP3   OH2 4446   7.155   6.591   6.092
 1502TIP3    H1 4447   7.227   6.551   6.141
 1502TIP3    H2 4448   7.091   6.614   6.158
 1503TIP3   OH2 4449   6.796   0.646   3.167
 1503TIP3    H1 4450   6.755   0.623   3.251
 1503TIP3    H2 4451   6.798   0.563   3.119
 1504TIP3   OH2 4452   3.095   0.660   0.450
 1504TIP3    H1 4453   3.181   0.647   0.488
 1504TIP3    H2 4454   3.108   0.644   0.356
 1505TIP3   OH2 4455   0.401   4.445   2.479
 1505TIP3    H1 4456   0.327   4.410   2.429
 1505TIP3    H2 4457   0.361   4.506   2.542
 1506TIP3   OH2 4458   2.019   0.474   0.974
 1506TIP3    H1 4459   1.999   0.466   1.068
 1506TIP3    H2 4460   1.934   0.471   0.931
 1507TIP3   OH2 4461   7.986   4.777   6.130
 1507TIP3    H1 4462   7.922   4.828   6.180
 1507TIP3    H2 4463   7.933   4.715   6.079
 1508TIP3   OH2 4464   6.986   4.684   0.187
 1508TIP3    H1 4465   6.963   4.774   0.165
 1508TIP3    H2 4466   7.048   4.658   0.119
 1509TIP3   OH2 4467   7.148   1.259   3.392
 1509TIP3    H1 4468   7.075   1.204   3.364
 1509TIP3    H2 4469   7.107   1.340   3.423
 1510TIP3   OH2 4470   6.992   0.705   1.717
 1510TIP3    H1 4471   7.065   0.727   1.659
 1510TIP3    H2 4472   6.957   0.790   1.744
 1511TIP3   OH2 4473   3.671   2.479   4.684
 1511TIP3    H1 4474   3.576   2.468   4.689
 1511TIP3    H2 4475   3.707   2.401   4.726
 1512TIP3   OH2 4476   5.403   2.364   2.018
 1512TIP3    H1 4477   5.368   2.366   1.930
 1512TIP3    H2 4478   5.373   2.446   2.058
 1513TIP3   OH2 4479   6.349   4.029   3.019
 1513TIP3    H1 4480   6.346   4.103   3.080
 1513TIP3    H2 4481   6.435   3.989   3.035
 1514TIP3   OH2 4482   1.164   6.459   5.412
 1514TIP3    H1 4483   1.114   6.514   5.471
 1514TIP3    H2 4484   1.248   6.446   5.456
 1515TIP3   OH2 4485   7.544   7.070   6.634
 1515TIP3    H1 4486   7.586   7.156   6.633
 1515TIP3    H2 4487   7.561   7.033   6.548
 1516TIP3   OH2 4488   2.207   4.855   1.728
 1516TIP3    H1 4489   2.166   4.792   1.669
 1516TIP3    H2 4490   2.224   4.932   1.673
 1517TIP3   OH2 4491   7.652   5.311   4.638
 1517TIP3    H1 4492   7.638   5.397   4.599
 1517TIP3    H2 4493   7.743   5.312   4.668
 1518TIP3   OH2 4494   3.823   4.560   2.870
 1518TIP3    H1 4495   3.769   4.506   2.928
 1518TIP3    H2 4496   3.818   4.517   2.785
 1519TIP3   OH2 4497   7.671   6.059   3.584
 1519TIP3    H1 4498   7.723   6.082   3.508
 1519TIP3    H2 4499   7.727   6.078   3.659
 1520TIP3   OH2 4500   5.786   4.829   6.715
 1520TIP3    H1 4501   5.875   4.863   6.713
 1520TIP3    H2 4502   5.794   4.739   6.683
 1521TIP3   OH2 4503   6.973   4.382   1.103
 1521TIP3    H1 4504   7.018   4.441   1.043
 1521TIP3    H2 4505   6.984   4.295   1.065
 1522TIP3   OH2 4506   6.055   1.319   3.125
 1522TIP3    H1 4507   6.071   1.226   3.112
 1522TIP3    H2 4508   6.031   1.327   3.217
 1523TIP3   OH2 4509   6.986   1.436   6.490
 1523TIP3    H1 4510   6.990   1.341   6.494
 1523TIP3    H2 4511   6.970   1.455   6.397
 1524TIP3   OH2 4512   4.662   3.714   3.345
 1524TIP3    H1 4513   4.715   3.794   3.343
 1524TIP3    H2 4514   4.724   3.645   3.367
 1525TIP3   OH2 4515   2.252   0.099   6.474
 1525TIP3    H1 4516   2.268   0.183   6.518
 1525TIP3    H2 4517   2.197   0.122   6.399
 1526TIP3   OH2 4518   7.654   6.071   6.768
 1526TIP3    H1 4519   7.625   6.149   6.722
 1526TIP3    H2 4520   7.602   6.000   6.730
 1527TIP3   OH2 4521   5.709   6.737   3.063
 1527TIP3    H1 4522   5.748   6.715   3.147
 1527TIP3    H2 4523   5.768   6.801   3.025
 1528TIP3   OH2 4524   7.251   5.873   3.717
 1528TIP3    H1 4525   7.310   5.942   3.687
 1528TIP3    H2 4526   7.166   5.916   3.728
 1529TIP3   OH2 4527   5.173   4.211   1.011
 1529TIP3    H1 4528   5.226   4.266   0.954
 1529TIP3    H2 4529   5.096   4.188   0.958
 1530TIP3   OH2 4530   1.784   3.644   5.385
 1530TIP3    H1 4531   1.804   3.664   5.476
 1530TIP3    H2 4532   1.705   3.695   5.365
 1531TIP3   OH2 4533   0.865   5.809   6.172
 1531TIP3    H1 4534   0.778   5.839   6.199
 1531TIP3    H2 4535   0.911   5.890   6.147
 1532TIP3   OH2 4536   8.200   3.402   5.160
 1532TIP3    H1 4537   8.271   3.450   5.117
 1532TIP3    H2 4538   8.132   3.469   5.174
 1533TIP3   OH2 4539   5.484   0.330   4.189
 1533TIP3    H1 4540   5.531   0.383   4.253
 1533TIP3    H2 4541   5.551   0.275   4.149
 1534TIP3   OH2 4542   2.808   1.401   1.648
 1534TIP3    H1 4543   2.773   1.314   1.628
 1534TIP3    H2 4544   2.751   1.461   1.600
 1535TIP3   OH2 4545   1.291   0.745   3.613
 1535TIP3    H1 4546   1.301   0.830   3.657
 1535TIP3    H2 4547   1.333   0.683   3.672
 1536TIP3   OH2 4548   1.226   3.284   4.323
 1536TIP3    H1 4549   1.249   3.335   4.401
 1536TIP3    H2 4550   1.234   3.193   4.350
 1537TIP3   OH2 4551   8.333   7.249   4.908
 1537TIP3    H1 4552   8.357   7.217   4.995
 1537TIP3    H2 4553   8.323   7.343   4.919
 1538TIP3   OH2 4554   8.027   5.699   1.716
 1538TIP3    H1 4555   8.097   5.761   1.735
 1538TIP3    H2 4556   7.969   5.746   1.655
 1539TIP3   OH2 4557   2.837   6.819   6.672
 1539TIP3    H1 4558   2.818   6.817   6.766
 1539TIP3    H2 4559   2.926   6.854   6.666
 1540TIP3   OH2 4560   1.891   1.138   3.089
 1540TIP3    H1 4561   1.975   1.184   3.087
 1540TIP3    H2 4562   1.855   1.150   3.001
 1541TIP3   OH2 4563   3.861   6.987   2.463
 1541TIP3    H1 4564   3.811   6.937   2.399
 1541TIP3    H2 4565   3.819   6.967   2.547
 1542TIP3   OH2 4566   4.818   5.585   1.479
 1542TIP3    H1 4567   4.788   5.563   1.391
 1542TIP3    H2 4568   4.738   5.604   1.529
 1543TIP3   OH2 4569   1.208   2.306   2.164
 1543TIP3    H1 4570   1.266   2.363   2.215
 1543TIP3    H2 4571   1.254   2.222   2.163
 1544TIP3   OH2 4572   3.019   5.438   4.037
 1544TIP3    H1 4573   2.984   5.498   4.103
 1544TIP3    H2 4574   2.949   5.374   4.024
 1545TIP3   OH2 4575   5.930   2.694   3.210
 1545TIP3    H1 4576   5.983   2.616   3.197
 1545TIP3    H2 4577   5.886   2.708   3.126
 1546TIP3   OH2 4578   4.119   6.495   0.734
 1546TIP3    H1 4579   4.106   6.578   0.687
 1546TIP3    H2 4580   4.197   6.457   0.693
 1547TIP3   OH2 4581   6.648   1.203   1.275
 1547TIP3    H1 4582   6.726   1.196   1.329
 1547TIP3    H2 4583   6.577   1.223   1.337
 1548TIP3   OH2 4584   4.471   4.132   1.959
 1548TIP3    H1 4585   4.476   4.042   1.928
 1548TIP3    H2 4586   4.392   4.134   2.014
 1549TIP3   OH2 4587   6.564   6.601   1.884
 1549TIP3    H1 4588   6.610   6.609   1.968
 1549TIP3    H2 4589   6.614   6.535   1.836
 1550TIP3   OH2 4590   4.446   1.186   6.782
 1550TIP3    H1 4591   4.386   1.111   6.788
 1550TIP3    H2 4592   4.390   1.259   6.755
 1551TIP3   OH2 4593   4.594   0.756   1.040
 1551TIP3    H1 4594   4.635   0.771   0.954
 1551TIP3    H2 4595   4.609   0.663   1.057
 1552TIP3   OH2 4596   0.759   0.963   3.571
 1552TIP3    H1 4597   0.715   0.885   3.606
 1552TIP3    H2 4598   0.698   0.997   3.506
 1553TIP3   OH2 4599   6.495   4.317   4.039
 1553TIP3    H1 4600   6.532   4.272   3.963
 1553TIP3    H2 4601   6.542   4.279   4.114
 1554TIP3   OH2 4602   6.978   0.246   4.307
 1554TIP3    H1 4603   6.920   0.241   4.383
 1554TIP3    H2 4604   6.932   0.303   4.245
 1555TIP3   OH2 4605   1.437   0.803   6.226
 1555TIP3    H1 4606   1.429   0.727   6.284
 1555TIP3    H2 4607   1.358   0.855   6.243
 1556TIP3   OH2 4608   4.995   6.851   1.845
 1556TIP3    H1 4609   5.008   6.773   1.790
 1556TIP3    H2 4610   4.968   6.919   1.785
 1557TIP3   OH2 4611   7.930   0.348   2.882
 1557TIP3    H1 4612   7.923   0.399   2.801
 1557TIP3    H2 4613   7.946   0.258   2.852
 1558TIP3   OH2 4614   8.401   7.725   1.485
 1558TIP3    H1 4615   8.359   7.728   1.399
 1558TIP3    H2 4616   8.355   7.657   1.533
 1559TIP3   OH2 4617   3.476   0.650   0.973
 1559TIP3    H1 4618   3.552   0.681   1.022
 1559TIP3    H2 4619   3.470   0.557   0.994
 1560TIP3   OH2 4620   2.195   2.889   0.679
 1560TIP3    H1 4621   2.153   2.809   0.710
 1560TIP3    H2 4622   2.255   2.860   0.610
 1561TIP3   OH2 4623   7.976   5.071   2.539
 1561TIP3    H1 4624   8.065   5.102   2.524
 1561TIP3    H2 4625   7.986   5.001   2.605
 1562TIP3   OH2 4626   2.474   2.834   1.840
 1562TIP3    H1 4627   2.467   2.740   1.858
 1562TIP3    H2 4628   2.444   2.876   1.920
 1563TIP3   OH2 4629   2.676   5.273   4.947
 1563TIP3    H1 4630   2.740   5.233   5.005
 1563TIP3    H2 4631   2.607   5.305   5.006
 1564TIP3   OH2 4632   6.419   3.642   1.213
 1564TIP3    H1 4633   6.446   3.711   1.153
 1564TIP3    H2 4634   6.324   3.651   1.219
 1565TIP3   OH2 4635   5.972   7.748   5.758
 1565TIP3    H1 4636   6.014   7.781   5.837
 1565TIP3    H2 4637   5.949   7.827   5.708
 1566TIP3   OH2 4638   0.051   5.762   5.012
 1566TIP3    H1 4639   0.074   5.742   4.921
 1566TIP3    H2 4640   0.128   5.808   5.047
 1567TIP3   OH2 4641   1.634   4.054   1.582
 1567TIP3    H1 4642   1.576   4.127   1.605
 1567TIP3    H2 4643   1.613   4.034   1.490
 1568TIP3   OH2 4644   1.125   1.254   6.080
 1568TIP3    H1 4645   1.188   1.289   6.017
 1568TIP3    H2 4646   1.097   1.331   6.131
 1569TIP3   OH2 4647   5.854   0.411   2.382
 1569TIP3    H1 4648   5.862   0.504   2.361
 1569TIP3    H2 4649   5.760   0.398   2.396
 1570TIP3   OH2 4650   7.654   6.132   3.253
 1570TIP3    H1 4651   7.676   6.168   3.167
 1570TIP3    H2 4652   7.620   6.044   3.235
 1571TIP3   OH2 4653   6.585   1.055   6.094
 1571TIP3    H1 4654   6.652   1.120   6.116
 1571TIP3    H2 4655   6.596   1.042   6.000
 1572TIP3   OH2 4656   1.453   6.906   1.782
 1572TIP3    H1 4657   1.365   6.871   1.795
 1572TIP3    H2 4658   1.454   6.986   1.834
 1573TIP3   OH2 4659   1.437   6.596   3.009
 1573TIP3    H1 4660   1.371   6.566   3.072
 1573TIP3    H2 4661   1.513   6.617   3.063
 1574TIP3   OH2 4662   3.971   6.378   2.504
 1574TIP3    H1 4663   3.925   6.349   2.426
 1574TIP3    H2 4664   4.040   6.435   2.472
 1575TIP3   OH2 4665   4.321   5.398   2.041
 1575TIP3    H1 4666   4.387   5.343   1.998
 1575TIP3    H2 4667   4.278   5.444   1.968
 1576TIP3   OH2 4668   7.346   0.644   2.885
 1576TIP3    H1 4669   7.334   0.683   2.798
 1576TIP3    H2 4670   7.401   0.707   2.931
 1577TIP3   OH2 4671   8.072   3.171   2.805
 1577TIP3    H1 4672   8.064   3.226   2.882
 1577TIP3    H2 4673   8.164   3.179   2.779
 1578TIP3   OH2 4674   1.148   5.875   0.828
 1578TIP3    H1 4675   1.127   5.931   0.753
 1578TIP3    H2 4676   1.070   5.881   0.884
 1579TIP3   OH2 4677   4.923   6.716   4.941
 1579TIP3    H1 4678   5.017   6.731   4.935
 1579TIP3    H2 4679   4.915   6.646   5.006
 1580TIP3   OH2 4680   2.086   0.659   6.052
 1580TIP3    H1 4681   2.135   0.660   6.134
 1580TIP3    H2 4682   2.153   0.643   5.985
 1581TIP3   OH2 4683   6.198   0.274   0.476
 1581TIP3    H1 4684   6.148   0.292   0.396
 1581TIP3    H2 4685   6.281   0.320   0.463
 1582TIP3   OH2 4686   7.524   3.050   0.641
 1582TIP3    H1 4687   7.602   3.001   0.613
 1582TIP3    H2 4688   7.512   3.118   0.575
 1583TIP3   OH2 4689   7.953   4.064   5.930
 1583TIP3    H1 4690   7.999   3.987   5.897
 1583TIP3    H2 4691   7.884   4.080   5.865
 1584TIP3   OH2 4692   3.092   3.503   4.732
 1584TIP3    H1 4693   3.172   3.463   4.697
 1584TIP3    H2 4694   3.033   3.507   4.656
 1585TIP3   OH2 4695   3.558   0.024   1.461
 1585TIP3    H1 4696   3.518   0.079   1.528
 1585TIP3    H2 4697   3.497   0.028   1.387
 1586TIP3   OH2 4698   1.706   0.608   1.924
 1586TIP3    H1 4699   1.737   0.579   2.009
 1586TIP3    H2 4700   1.611   0.615   1.934
 1587TIP3   OH2 4701   0.912   4.150   0.999
 1587TIP3    H1 4702   0.890   4.059   0.982
 1587TIP3    H2 4703   0.999   4.147   1.041
 1588TIP3   OH2 4704   1.393   6.865   1.109
 1588TIP3    H1 4705   1.462   6.921   1.074
 1588TIP3    H2 4706   1.430   6.828   1.189
 1589TIP3   OH2 4707   4.634   5.907   6.333
 1589TIP3    H1 4708   4.584   5.970   6.385
 1589TIP3    H2 4709   4.726   5.929   6.350
 1590TIP3   OH2 4710   7.385   4.314   0.630
 1590TIP3    H1 4711   7.422   4.226   0.619
 1590TIP3    H2 4712   7.373   4.346   0.541
 1591TIP3   OH2 4713   7.013   6.940   3.879
 1591TIP3    H1 4714   6.994   6.886   3.956
 1591TIP3    H2 4715   6.928   6.952   3.837
 1592TIP3   OH2 4716   0.683   7.117   5.431
 1592TIP3    H1 4717   0.728   7.063   5.496
 1592TIP3    H2 4718   0.698   7.207   5.461
 1593TIP3   OH2 4719   4.071   3.790   1.142
 1593TIP3    H1 4720   4.021   3.835   1.209
 1593TIP3    H2 4721   4.157   3.775   1.181
 1594TIP3   OH2 4722   6.547   6.918   5.021
 1594TIP3    H1 4723   6.468   6.869   5.001
 1594TIP3    H2 4724   6.539   6.998   4.970
 1595TIP3   OH2 4725   5.425   3.692   6.749
 1595TIP3    H1 4726   5.438   3.671   6.842
 1595TIP3    H2 4727   5.499   3.749   6.728
 1596TIP3   OH2 4728   4.500   3.926   3.451
 1596TIP3    H1 4729   4.556   3.977   3.392
 1596TIP3    H2 4730   4.519   3.835   3.428
 1597TIP3   OH2 4731   3.632   3.252   0.393
 1597TIP3    H1 4732   3.578   3.229   0.317
 1597TIP3    H2 4733   3.606   3.341   0.415
 1598TIP3   OH2 4734   5.358   7.363   4.890
 1598TIP3    H1 4735   5.422   7.420   4.849
 1598TIP3    H2 4736   5.368   7.279   4.844
 1599TIP3   OH2 4737   5.344   5.013   6.298
 1599TIP3    H1 4738   5.306   5.100   6.299
 1599TIP3    H2 4739   5.379   5.003   6.209
 1600TIP3   OH2 4740   5.411   4.934   2.359
 1600TIP3    H1 4741   5.395   4.919   2.453
 1600TIP3    H2 4742   5.493   4.888   2.341
 1601TIP3   OH2 4743   4.078   1.645   5.117
 1601TIP3    H1 4744   3.988   1.679   5.112
 1601TIP3    H2 4745   4.126   1.700   5.055
 1602TIP3   OH2 4746   5.680   1.547   3.923
 1602TIP3    H1 4747   5.680   1.640   3.945
 1602TIP3    H2 4748   5.718   1.544   3.835
 1603TIP3   OH2 4749   5.247   7.257   3.523
 1603TIP3    H1 4750   5.312   7.240   3.592
 1603TIP3    H2 4751   5.276   7.339   3.483
 1604TIP3   OH2 4752   6.762   3.939   2.079
 1604TIP3    H1 4753   6.749   4.032   2.097
 1604TIP3    H2 4754   6.832   3.912   2.138
 1605TIP3   OH2 4755   3.833   4.793   2.585
 1605TIP3    H1 4756   3.864   4.747   2.507
 1605TIP3    H2 4757   3.907   4.848   2.611
 1606TIP3   OH2 4758   0.366   5.065   1.685
 1606TIP3    H1 4759   0.326   5.013   1.615
 1606TIP3    H2 4760   0.292   5.095   1.738
 1607TIP3   OH2 4761   4.582   7.663   3.735
 1607TIP3    H1 4762   4.531   7.617   3.801
 1607TIP3    H2 4763   4.610   7.595   3.674
 1608TIP3   OH2 4764   5.102   2.285   3.996
 1608TIP3    H1 4765   5.109   2.364   3.941
 1608TIP3    H2 4766   5.032   2.306   4.058
 1609TIP3   OH2 4767   3.389   2.624   3.513
 1609TIP3    H1 4768   3.459   2.616   3.448
 1609TIP3    H2 4769   3.434   2.649   3.594
 1610TIP3   OH2 4770   6.398   4.843   3.452
 1610TIP3    H1 4771   6.312   4.865   3.487
 1610TIP3    H2 4772   6.454   4.918   3.474
 1611TIP3   OH2 4773   0.539   6.382   6.055
 1611TIP3    H1 4774   0.472   6.317   6.076
 1611TIP3    H2 4775   0.599   6.379   6.130
 1612TIP3   OH2 4776   3.389   1.655   6.062
 1612TIP3    H1 4777   3.353   1.717   5.998
 1612TIP3    H2 4778   3.434   1.589   6.009
 1613TIP3   OH2 4779   1.428   6.229   4.566
 1613TIP3    H1 4780   1.507   6.191   4.604
 1613TIP3    H2 4781   1.357   6.193   4.617
 1614TIP3   OH2 4782   5.510   4.656   0.324
 1614TIP3    H1 4783   5.475   4.676   0.237
 1614TIP3    H2 4784   5.568   4.581   0.309
 1615TIP3   OH2 4785   5.612   3.463   1.722
 1615TIP3    H1 4786   5.557   3.474   1.800
 1615TIP3    H2 4787   5.624   3.368   1.715
 1616TIP3   OH2 4788   0.547   6.837   6.605
 1616TIP3    H1 4789   0.625   6.893   6.600
 1616TIP3    H2 4790   0.579   6.755   6.643
 1617TIP3   OH2 4791   6.248   2.788   2.834
 1617TIP3    H1 4792   6.195   2.850   2.784
 1617TIP3    H2 4793   6.284   2.839   2.907
 1618TIP3   OH2 4794   4.286   2.818   6.273
 1618TIP3    H1 4795   4.289   2.816   6.369
 1618TIP3    H2 4796   4.358   2.877   6.248
 1619TIP3   OH2 4797   0.107   2.342   3.958
 1619TIP3    H1 4798   0.090   2.403   3.886
 1619TIP3    H2 4799   0.200   2.352   3.977
 1620TIP3   OH2 4800   7.918   1.415   2.441
 1620TIP3    H1 4801   7.855   1.488   2.444
 1620TIP3    H2 4802   8.003   1.458   2.432
 1621TIP3   OH2 4803   7.927   6.356   0.629
 1621TIP3    H1 4804   7.927   6.288   0.697
 1621TIP3    H2 4805   7.953   6.311   0.549
 1622TIP3   OH2 4806   4.206   3.983   3.727
 1622TIP3    H1 4807   4.232   4.055   3.670
 1622TIP3    H2 4808   4.255   3.998   3.808
 1623TIP3   OH2 4809   7.466   1.677   1.816
 1623TIP3    H1 4810   7.480   1.768   1.792
 1623TIP3    H2 4811   7.552   1.636   1.807
 1624TIP3   OH2 4812   1.405   1.190   4.826
 1624TIP3    H1 4813   1.485   1.143   4.803
 1624TIP3    H2 4814   1.430   1.282   4.824
 1625TIP3   OH2 4815   1.256   1.214   4.424
 1625TIP3    H1 4816   1.187   1.175   4.371
 1625TIP3    H2 4817   1.244   1.176   4.511
 1626TIP3   OH2 4818   5.983   3.277   5.050
 1626TIP3    H1 4819   6.041   3.229   4.990
 1626TIP3    H2 4820   5.911   3.217   5.067
 1627TIP3   OH2 4821   2.546   6.287   4.051
 1627TIP3    H1 4822   2.640   6.298   4.069
 1627TIP3    H2 4823   2.523   6.363   3.998
 1628TIP3   OH2 4824   8.074   0.096   5.476
 1628TIP3    H1 4825   8.146   0.152   5.448
 1628TIP3    H2 4826   8.022   0.082   5.397
 1629TIP3   OH2 4827   5.319   7.598   6.085
 1629TIP3    H1 4828   5.412   7.601   6.059
 1629TIP3    H2 4829   5.307   7.509   6.119
 1630TIP3   OH2 4830   2.787   4.799   2.633
 1630TIP3    H1 4831   2.878   4.826   2.647
 1630TIP3    H2 4832   2.773   4.810   2.539
 1631TIP3   OH2 4833   2.870   3.952   0.853
 1631TIP3    H1 4834   2.807   4.018   0.824
 1631TIP3    H2 4835   2.951   3.976   0.808
 1632TIP3   OH2 4836   3.293   4.817   0.388
 1632TIP3    H1 4837   3.379   4.852   0.362
 1632TIP3    H2 4838   3.230   4.874   0.344
 1633TIP3   OH2 4839   2.941   5.399   6.585
 1633TIP3    H1 4840   3.004   5.346   6.537
 1633TIP3    H2 4841   2.953   5.374   6.676
 1634TIP3   OH2 4842   5.542   4.028   4.902
 1634TIP3    H1 4843   5.551   4.087   4.827
 1634TIP3    H2 4844   5.621   3.973   4.898
 1635TIP3   OH2 4845   4.510   2.992   4.336
 1635TIP3    H1 4846   4.502   3.085   4.354
 1635TIP3    H2 4847   4.455   2.950   4.402
 1636TIP3   OH2 4848   5.153   5.750   6.485
 1636TIP3    H1 4849   5.079   5.723   6.540
 1636TIP3    H2 4850   5.189   5.826   6.530
 1637TIP3   OH2 4851   6.871   7.782   3.488
 1637TIP3    H1 4852   6.850   7.842   3.559
 1637TIP3    H2 4853   6.798   7.720   3.486
 1638TIP3   OH2 4854   5.175   5.445   4.735
 1638TIP3    H1 4855   5.243   5.461   4.670
 1638TIP3    H2 4856   5.109   5.393   4.689
 1639TIP3   OH2 4857   3.508   6.757   3.684
 1639TIP3    H1 4858   3.560   6.761   3.604
 1639TIP3    H2 4859   3.567   6.789   3.752
 1640TIP3   OH2 4860   2.701   4.419   2.398
 1640TIP3    H1 4861   2.715   4.446   2.489
 1640TIP3    H2 4862   2.749   4.337   2.390
 1641TIP3   OH2 4863   7.827   0.419   5.468
 1641TIP3    H1 4864   7.903   0.476   5.476
 1641TIP3    H2 4865   7.804   0.398   5.558
 1642TIP3   OH2 4866   2.320   2.737   1.193
 1642TIP3    H1 4867   2.373   2.706   1.267
 1642TIP3    H2 4868   2.234   2.756   1.232
 1643TIP3   OH2 4869   5.007   6.761   6.425
 1643TIP3    H1 4870   4.944   6.736   6.358
 1643TIP3    H2 4871   4.960   6.751   6.508
 1644TIP3   OH2 4872   6.315   5.462   3.161
 1644TIP3    H1 4873   6.358   5.548   3.160
 1644TIP3    H2 4874   6.328   5.427   3.073
 1645TIP3   OH2 4875   6.997   3.027   2.181
 1645TIP3    H1 4876   7.067   3.091   2.195
 1645TIP3    H2 4877   6.985   3.024   2.087
 1646TIP3   OH2 4878   0.565   2.656   3.120
 1646TIP3    H1 4879   0.514   2.660   3.039
 1646TIP3    H2 4880   0.603   2.744   3.128
 1647TIP3   OH2 4881   7.797   1.021   0.472
 1647TIP3    H1 4882   7.880   1.019   0.424
 1647TIP3    H2 4883   7.816   0.974   0.554
 1648TIP3   OH2 4884   7.196   1.414   3.758
 1648TIP3    H1 4885   7.140   1.468   3.702
 1648TIP3    H2 4886   7.135   1.362   3.810
 1649TIP3   OH2 4887   1.718   4.648   0.331
 1649TIP3    H1 4888   1.678   4.565   0.304
 1649TIP3    H2 4889   1.645   4.711   0.331
 1650TIP3   OH2 4890   7.490   6.174   2.604
 1650TIP3    H1 4891   7.409   6.158   2.653
 1650TIP3    H2 4892   7.532   6.088   2.597
 1651TIP3   OH2 4893   2.732   6.747   0.370
 1651TIP3    H1 4894   2.795   6.750   0.443
 1651TIP3    H2 4895   2.759   6.670   0.319
 1652TIP3   OH2 4896   7.097   0.283   5.357
 1652TIP3    H1 4897   7.092   0.258   5.264
 1652TIP3    H2 4898   7.149   0.213   5.398
 1653TIP3   OH2 4899   4.153   6.837   6.521
 1653TIP3    H1 4900   4.131   6.765   6.462
 1653TIP3    H2 4901   4.241   6.816   6.553
 1654TIP3   OH2 4902   8.113   4.929   2.216
 1654TIP3    H1 4903   8.028   4.965   2.241
 1654TIP3    H2 4904   8.143   4.882   2.294
 1655TIP3   OH2 4905   2.243   0.098   4.754
 1655TIP3    H1 4906   2.334   0.109   4.782
 1655TIP3    H2 4907   2.217   0.013   4.790
 1656TIP3   OH2 4908   1.199   3.012   1.278
 1656TIP3    H1 4909   1.170   2.932   1.322
 1656TIP3    H2 4910   1.202   3.078   1.347
 1657TIP3   OH2 4911   2.228   6.493   2.271
 1657TIP3    H1 4912   2.182   6.523   2.349
 1657TIP3    H2 4913   2.160   6.484   2.204
 1658TIP3   OH2 4914   7.186   2.546   2.782
 1658TIP3    H1 4915   7.153   2.636   2.780
 1658TIP3    H2 4916   7.128   2.498   2.723
 1659TIP3   OH2 4917   4.447   4.666   5.724
 1659TIP3    H1 4918   4.387   4.592   5.732
 1659TIP3    H2 4919   4.425   4.723   5.798
 1660TIP3   OH2 4920   3.929   3.449   3.507
 1660TIP3    H1 4921   3.999   3.429   3.444
 1660TIP3    H2 4922   3.947   3.539   3.535
 1661TIP3   OH2 4923   4.867   5.790   4.880
 1661TIP3    H1 4924   4.918   5.737   4.820
 1661TIP3    H2 4925   4.789   5.737   4.899
 1662TIP3   OH2 4926   2.644   1.462   5.435
 1662TIP3    H1 4927   2.738   1.451   5.421
 1662TIP3    H2 4928   2.616   1.520   5.364
 1663TIP3   OH2 4929   7.229   0.088   4.482
 1663TIP3    H1 4930   7.320   0.118   4.488
 1663TIP3    H2 4931   7.207   0.097   4.389
 1664TIP3   OH2 4932   6.718   5.070   0.820
 1664TIP3    H1 4933   6.676   4.997   0.776
 1664TIP3    H2 4934   6.753   5.124   0.748
 1665TIP3   OH2 4935   4.858   4.057   6.756
 1665TIP3    H1 4936   4.781   4.048   6.812
 1665TIP3    H2 4937   4.847   4.142   6.713
 1666TIP3   OH2 4938   0.039   0.945   2.942
 1666TIP3    H1 4939  -0.005   0.939   2.857
 1666TIP3    H2 4940   0.123   0.901   2.928
 1667TIP3   OH2 4941   4.401   7.204   4.344
 1667TIP3    H1 4942   4.402   7.226   4.437
 1667TIP3    H2 4943   4.485   7.163   4.328
 1668TIP3   OH2 4944   7.782   1.268   1.092
 1668TIP3    H1 4945   7.790   1.258   0.997
 1668TIP3    H2 4946   7.799   1.361   1.108
 1669TIP3   OH2 4947   0.298   2.353   6.006
 1669TIP3    H1 4948   0.329   2.362   6.096
 1669TIP3    H2 4949   0.346   2.421   5.958
 1670TIP3   OH2 4950   5.665   0.504   5.082
 1670TIP3    H1 4951   5.639   0.462   5.164
 1670TIP3    H2 4952   5.584   0.542   5.048
 1671TIP3   OH2 4953   3.234   2.233   5.298
 1671TIP3    H1 4954   3.262   2.317   5.261
 1671TIP3    H2 4955   3.235   2.172   5.224
 1672TIP3   OH2 4956   3.772   2.384   4.123
 1672TIP3    H1 4957   3.818   2.383   4.039
 1672TIP3    H2 4958   3.683   2.412   4.102
 1673TIP3   OH2 4959   0.434   1.574   0.223
 1673TIP3    H1 4960   0.387   1.490   0.224
 1673TIP3    H2 4961   0.522   1.552   0.253
 1674TIP3   OH2 4962   0.336   2.873   4.117
 1674TIP3    H1 4963   0.405   2.864   4.051
 1674TIP3    H2 4964   0.344   2.796   4.173
 1675TIP3   OH2 4965   3.752   1.630   0.441
 1675TIP3    H1 4966   3.719   1.550   0.400
 1675TIP3    H2 4967   3.677   1.690   0.442
 1676TIP3   OH2 4968   4.805   0.319   5.770
 1676TIP3    H1 4969   4.781   0.258   5.840
 1676TIP3    H2 4970   4.828   0.263   5.696
 1677TIP3   OH2 4971   0.764   1.208   1.591
 1677TIP3    H1 4972   0.814   1.190   1.512
 1677TIP3    H2 4973   0.690   1.262   1.560
 1678TIP3   OH2 4974   6.370   5.173   4.409
 1678TIP3    H1 4975   6.457   5.133   4.399
 1678TIP3    H2 4976   6.342   5.145   4.496
 1679TIP3   OH2 4977   2.472   6.781   3.344
 1679TIP3    H1 4978   2.451   6.872   3.323
 1679TIP3    H2 4979   2.406   6.755   3.408
 1680TIP3   OH2 4980   4.640   0.213   1.537
 1680TIP3    H1 4981   4.624   0.307   1.548
 1680TIP3    H2 4982   4.553   0.173   1.545
 1681TIP3   OH2 4983   2.678   1.174   3.342
 1681TIP3    H1 4984   2.763   1.153   3.303
 1681TIP3    H2 4985   2.663   1.104   3.406
 1682TIP3   OH2 4986   6.971   1.376   3.178
 1682TIP3    H1 4987   7.057   1.418   3.187
 1682TIP3    H2 4988   6.977   1.327   3.096
 1683TIP3   OH2 4989   1.928   6.922   3.565
 1683TIP3    H1 4990   1.861   6.987   3.545
 1683TIP3    H2 4991   1.943   6.933   3.659
 1684TIP3   OH2 4992   7.298   2.538   1.947
 1684TIP3    H1 4993   7.228   2.567   1.888
 1684TIP3    H2 4994   7.323   2.452   1.914
 1685TIP3   OH2 4995   4.361   2.942   1.030
 1685TIP3    H1 4996   4.379   2.858   0.988
 1685TIP3    H2 4997   4.300   2.920   1.101
 1686TIP3   OH2 4998   0.565   5.640   4.476
 1686TIP3    H1 4999   0.621   5.686   4.539
 1686TIP3    H2 5000   0.532   5.709   4.418
 1687TIP3   OH2 5001   2.572   3.516   4.864
 1687TIP3    H1 5002   2.550   3.473   4.947
 1687TIP3    H2 5003   2.645   3.574   4.885
 1688TIP3   OH2 5004   5.674   1.919   3.417
 1688TIP3    H1 5005   5.693   1.864   3.493
 1688TIP3    H2 5006   5.759   1.928   3.373
 1689TIP3   OH2 5007   2.915   5.558   3.808
 1689TIP3    H1 5008   2.960   5.489   3.758
 1689TIP3    H2 5009   2.952   5.552   3.896
 1690TIP3   OH2 5010   2.085   3.635   6.052
 1690TIP3    H1 5011   2.066   3.624   5.959
 1690TIP3    H2 5012   2.117   3.549   6.080
 1691TIP3   OH2 5013   3.295   3.972   1.523
 1691TIP3    H1 5014   3.368   3.979   1.462
 1691TIP3    H2 5015   3.307   3.888   1.567
 1692TIP3   OH2 5016   4.303   6.730   3.850
 1692TIP3    H1 5017   4.327   6.776   3.930
 1692TIP3    H2 5018   4.222   6.684   3.871
 1693TIP3   OH2 5019   2.130   4.688   3.971
 1693TIP3    H1 5020   2.164   4.599   3.961
 1693TIP3    H2 5021   2.100   4.692   4.062
 1694TIP3   OH2 5022   7.560   5.447   0.045
 1694TIP3    H1 5023   7.526   5.529   0.082
 1694TIP3    H2 5024   7.534   5.451  -0.048
 1695TIP3   OH2 5025   2.844   3.127   4.434
 1695TIP3    H1 5026   2.915   3.188   4.412
 1695TIP3    H2 5027   2.825   3.081   4.352
 1696TIP3   OH2 5028   1.716   7.575   0.002
 1696TIP3    H1 5029   1.778   7.518  -0.043
 1696TIP3    H2 5030   1.632   7.557  -0.039
 1697TIP3   OH2 5031   4.663   5.953   1.992
 1697TIP3    H1 5032   4.698   5.874   1.952
 1697TIP3    H2 5033   4.738   5.993   2.036
 1698TIP3   OH2 5034   4.400   3.919   1.086
 1698TIP3    H1 5035   4.363   3.908   1.174
 1698TIP3    H2 5036   4.472   3.857   1.083
 1699TIP3   OH2 5037   6.520   7.384   5.734
 1699TIP3    H1 5038   6.462   7.360   5.806
 1699TIP3    H2 5039   6.556   7.300   5.704
 1700TIP3   OH2 5040   4.187   1.399   4.109
 1700TIP3    H1 5041   4.282   1.399   4.118
 1700TIP3    H2 5042   4.163   1.492   4.107
 1701TIP3   OH2 5043   4.456   4.644   0.166
 1701TIP3    H1 5044   4.513   4.701   0.217
 1701TIP3    H2 5045   4.392   4.703   0.126
 1702TIP3   OH2 5046   3.888   5.156   3.313
 1702TIP3    H1 5047   3.857   5.133   3.225
 1702TIP3    H2 5048   3.811   5.191   3.357
 1703TIP3   OH2 5049   1.001   2.133   2.371
 1703TIP3    H1 5050   1.019   2.227   2.370
 1703TIP3    H2 5051   0.907   2.127   2.386
 1704TIP3   OH2 5052   0.466   7.794   3.275
 1704TIP3    H1 5053   0.490   7.886   3.283
 1704TIP3    H2 5054   0.549   7.747   3.275
 1705TIP3   OH2 5055   6.537   2.448   2.199
 1705TIP3    H1 5056   6.548   2.448   2.104
 1705TIP3    H2 5057   6.613   2.400   2.232
 1706TIP3   OH2 5058   7.231   6.549   5.829
 1706TIP3    H1 5059   7.180   6.564   5.909
 1706TIP3    H2 5060   7.270   6.634   5.810
 1707TIP3   OH2 5061   0.748   1.317   5.703
 1707TIP3    H1 5062   0.658   1.287   5.715
 1707TIP3    H2 5063   0.780   1.267   5.628
 1708TIP3   OH2 5064   2.317   2.277   6.538
 1708TIP3    H1 5065   2.242   2.229   6.502
 1708TIP3    H2 5066   2.375   2.290   6.462
 1709TIP3   OH2 5067   8.025   1.834   5.745
 1709TIP3    H1 5068   7.959   1.793   5.801
 1709TIP3    H2 5069   7.989   1.920   5.724
 1710TIP3   OH2 5070   7.367   3.152   5.642
 1710TIP3    H1 5071   7.307   3.082   5.614
 1710TIP3    H2 5072   7.439   3.148   5.578
 1711TIP3   OH2 5073   6.416   5.857   3.901
 1711TIP3    H1 5074   6.330   5.829   3.932
 1711TIP3    H2 5075   6.459   5.892   3.979
 1712TIP3   OH2 5076   6.696   4.203   0.036
 1712TIP3    H1 5077   6.629   4.136   0.046
 1712TIP3    H2 5078   6.647   4.286   0.036
 1713TIP3   OH2 5079   6.947   5.010   6.016
 1713TIP3    H1 5080   6.895   4.969   6.084
 1713TIP3    H2 5081   6.897   5.088   5.991
 1714TIP3   OH2 5082   3.739   2.097   4.106
 1714TIP3    H1 5083   3.708   2.094   4.015
 1714TIP3    H2 5084   3.747   2.190   4.126
 1715TIP3   OH2 5085   5.882   0.801   0.158
 1715TIP3    H1 5086   5.960   0.844   0.192
 1715TIP3    H2 5087   5.809   0.852   0.193
 1716TIP3   OH2 5088   5.732   0.324   4.719
 1716TIP3    H1 5089   5.694   0.327   4.632
 1716TIP3    H2 5090   5.659   0.297   4.776
 1717TIP3   OH2 5091   2.897   1.140   3.582
 1717TIP3    H1 5092   2.889   1.045   3.574
 1717TIP3    H2 5093   2.826   1.165   3.640
 1718TIP3   OH2 5094   6.976   4.209   2.278
 1718TIP3    H1 5095   7.069   4.209   2.303
 1718TIP3    H2 5096   6.960   4.299   2.248
 1719TIP3   OH2 5097   5.741   5.502   5.776
 1719TIP3    H1 5098   5.648   5.503   5.754
 1719TIP3    H2 5099   5.775   5.583   5.739
 1720TIP3   OH2 5100   3.810   5.541   4.189
 1720TIP3    H1 5101   3.847   5.484   4.256
 1720TIP3    H2 5102   3.886   5.569   4.137
 1721TIP3   OH2 5103   6.051   6.573   1.200
 1721TIP3    H1 5104   6.139   6.599   1.171
 1721TIP3    H2 5105   6.049   6.596   1.293
 1722TIP3   OH2 5106   5.363   4.919   3.425
 1722TIP3    H1 5107   5.319   4.998   3.456
 1722TIP3    H2 5108   5.319   4.896   3.344
 1723TIP3   OH2 5109   6.381   5.349   2.033
 1723TIP3    H1 5110   6.397   5.443   2.033
 1723TIP3    H2 5111   6.453   5.313   1.981
 1724TIP3   OH2 5112   2.039   7.465   4.387
 1724TIP3    H1 5113   2.034   7.384   4.438
 1724TIP3    H2 5114   2.132   7.488   4.390
 1725TIP3   OH2 5115   0.230   0.542   2.315
 1725TIP3    H1 5116   0.319   0.529   2.348
 1725TIP3    H2 5117   0.205   0.629   2.347
 1726TIP3   OH2 5118   1.799   2.136   2.309
 1726TIP3    H1 5119   1.746   2.215   2.325
 1726TIP3    H2 5120   1.881   2.152   2.356
 1727TIP3   OH2 5121   4.743   4.719   3.039
 1727TIP3    H1 5122   4.763   4.688   3.127
 1727TIP3    H2 5123   4.824   4.758   3.007
 1728TIP3   OH2 5124   6.835   3.495   3.797
 1728TIP3    H1 5125   6.810   3.579   3.835
 1728TIP3    H2 5126   6.929   3.490   3.810
 1729TIP3   OH2 5127   2.602   3.779   0.893
 1729TIP3    H1 5128   2.678   3.775   0.836
 1729TIP3    H2 5129   2.527   3.772   0.834
 1730TIP3   OH2 5130   3.389   3.365   1.843
 1730TIP3    H1 5131   3.356   3.452   1.821
 1730TIP3    H2 5132   3.335   3.305   1.793
 1731TIP3   OH2 5133   6.408   0.450   0.462
 1731TIP3    H1 5134   6.456   0.475   0.541
 1731TIP3    H2 5135   6.459   0.378   0.424
 1732TIP3   OH2 5136   0.729   7.373   3.630
 1732TIP3    H1 5137   0.819   7.374   3.662
 1732TIP3    H2 5138   0.727   7.438   3.560
 1733TIP3   OH2 5139   5.089   0.424   5.853
 1733TIP3    H1 5140   4.995   0.430   5.870
 1733TIP3    H2 5141   5.102   0.335   5.821
 1734TIP3   OH2 5142   1.863   6.658   3.558
 1734TIP3    H1 5143   1.847   6.613   3.641
 1734TIP3    H2 5144   1.902   6.742   3.583
 1735TIP3   OH2 5145   5.749   5.867   4.035
 1735TIP3    H1 5146   5.756   5.954   4.075
 1735TIP3    H2 5147   5.692   5.880   3.959
 1736TIP3   OH2 5148   7.202   0.558   6.010
 1736TIP3    H1 5149   7.276   0.617   6.000
 1736TIP3    H2 5150   7.137   0.589   5.947
 1737TIP3   OH2 5151   2.517   4.773   0.040
 1737TIP3    H1 5152   2.589   4.815   0.087
 1737TIP3    H2 5153   2.438   4.809   0.080
 1738TIP3   OH2 5154   2.516   2.755   0.162
 1738TIP3    H1 5155   2.459   2.771   0.237
 1738TIP3    H2 5156   2.597   2.801   0.183
 1739TIP3   OH2 5157   1.028   3.512   1.439
 1739TIP3    H1 5158   1.085   3.448   1.397
 1739TIP3    H2 5159   1.080   3.547   1.511
 1740TIP3   OH2 5160   5.443   7.747   3.374
 1740TIP3    H1 5161   5.519   7.780   3.325
 1740TIP3    H2 5162   5.394   7.825   3.397
 1741TIP3   OH2 5163   8.031   4.488   1.059
 1741TIP3    H1 5164   8.031   4.483   1.155
 1741TIP3    H2 5165   7.973   4.562   1.039
 1742TIP3   OH2 5166   7.861   1.950   2.141
 1742TIP3    H1 5167   7.893   1.955   2.050
 1742TIP3    H2 5168   7.772   1.984   2.137
 1743TIP3   OH2 5169   6.107   0.058   0.692
 1743TIP3    H1 5170   6.091  -0.025   0.736
 1743TIP3    H2 5171   6.197   0.052   0.661
 1744TIP3   OH2 5172   4.003   2.513   6.239
 1744TIP3    H1 5173   3.986   2.584   6.176
 1744TIP3    H2 5174   3.937   2.447   6.218
 1745TIP3   OH2 5175   3.889   0.941   0.623
 1745TIP3    H1 5176   3.832   0.933   0.699
 1745TIP3    H2 5177   3.843   0.894   0.553
 1746TIP3   OH2 5178   0.164   0.365   6.041
 1746TIP3    H1 5179   0.179   0.317   5.960
 1746TIP3    H2 5180   0.137   0.298   6.104
 1747TIP3   OH2 5181   4.225   7.183   4.776
 1747TIP3    H1 5182   4.138   7.153   4.801
 1747TIP3    H2 5183   4.210   7.251   4.710
 1748TIP3   OH2 5184   8.293   6.395   0.655
 1748TIP3    H1 5185   8.349   6.379   0.731
 1748TIP3    H2 5186   8.342   6.359   0.581
 1749TIP3   OH2 5187   7.125   0.256   1.719
 1749TIP3    H1 5188   7.169   0.334   1.686
 1749TIP3    H2 5189   7.036   0.262   1.684
 1750TIP3   OH2 5190   5.963   7.602   0.258
 1750TIP3    H1 5191   5.950   7.679   0.201
 1750TIP3    H2 5192   5.876   7.584   0.294
 1751TIP3   OH2 5193   5.777   5.569   4.742
 1751TIP3    H1 5194   5.829   5.599   4.816
 1751TIP3    H2 5195   5.815   5.613   4.666
 1752TIP3   OH2 5196   7.337   0.327   3.698
 1752TIP3    H1 5197   7.305   0.403   3.650
 1752TIP3    H2 5198   7.257   0.288   3.735
 1753TIP3   OH2 5199   3.050   2.900   3.724
 1753TIP3    H1 5200   3.025   2.988   3.749
 1753TIP3    H2 5201   3.134   2.910   3.678
 1754TIP3   OH2 5202   1.357   3.517   1.954
 1754TIP3    H1 5203   1.450   3.495   1.953
 1754TIP3    H2 5204   1.332   3.521   1.862
 1755TIP3   OH2 5205   5.805   6.674   4.783
 1755TIP3    H1 5206   5.790   6.591   4.828
 1755TIP3    H2 5207   5.861   6.651   4.709
 1756TIP3   OH2 5208   1.718   4.185   6.576
 1756TIP3    H1 5209   1.721   4.090   6.571
 1756TIP3    H2 5210   1.768   4.215   6.500
 1757TIP3   OH2 5211   7.899   2.692   3.753
 1757TIP3    H1 5212   7.841   2.700   3.829
 1757TIP3    H2 5213   7.955   2.617   3.773
 1758TIP3   OH2 5214   3.341   7.402   2.216
 1758TIP3    H1 5215   3.327   7.461   2.290
 1758TIP3    H2 5216   3.437   7.395   2.210
 1759TIP3   OH2 5217   4.093   6.291   4.117
 1759TIP3    H1 5218   4.097   6.385   4.097
 1759TIP3    H2 5219   4.119   6.285   4.209
 1760TIP3   OH2 5220   1.072   0.158   1.767
 1760TIP3    H1 5221   1.149   0.115   1.804
 1760TIP3    H2 5222   1.019   0.183   1.842
 1761TIP3   OH2 5223   1.142   4.650   4.114
 1761TIP3    H1 5224   1.078   4.661   4.185
 1761TIP3    H2 5225   1.092   4.611   4.042
 1762TIP3   OH2 5226   2.336   0.544   6.092
 1762TIP3    H1 5227   2.409   0.545   6.153
 1762TIP3    H2 5228   2.361   0.604   6.022
 1763TIP3   OH2 5229   0.593   1.522   0.929
 1763TIP3    H1 5230   0.503   1.524   0.959
 1763TIP3    H2 5231   0.619   1.430   0.934
 1764TIP3   OH2 5232   7.411   4.925   3.497
 1764TIP3    H1 5233   7.358   4.937   3.419
 1764TIP3    H2 5234   7.426   5.014   3.530
 1765TIP3   OH2 5235   6.243   7.416   3.578
 1765TIP3    H1 5236   6.321   7.380   3.536
 1765TIP3    H2 5237   6.171   7.386   3.522
 1766TIP3   OH2 5238   1.484   4.069   0.140
 1766TIP3    H1 5239   1.558   4.126   0.121
 1766TIP3    H2 5240   1.458   4.094   0.229
 1767TIP3   OH2 5241   4.769   5.879   1.551
 1767TIP3    H1 5242   4.847   5.881   1.496
 1767TIP3    H2 5243   4.696   5.880   1.489
 1768TIP3   OH2 5244   7.682   5.958   5.367
 1768TIP3    H1 5245   7.674   5.963   5.463
 1768TIP3    H2 5246   7.684   5.865   5.348
 1769TIP3   OH2 5247   5.939   7.301   5.537
 1769TIP3    H1 5248   6.031   7.275   5.529
 1769TIP3    H2 5249   5.894   7.219   5.559
 1770TIP3   OH2 5250   5.260   7.205   6.409
 1770TIP3    H1 5251   5.302   7.251   6.482
 1770TIP3    H2 5252   5.213   7.132   6.450
 1771TIP3   OH2 5253   2.545   3.155   2.148
 1771TIP3    H1 5254   2.540   3.141   2.243
 1771TIP3    H2 5255   2.505   3.076   2.110
 1772TIP3   OH2 5256   2.958   5.654   0.879
 1772TIP3    H1 5257   3.046   5.688   0.895
 1772TIP3    H2 5258   2.915   5.658   0.964
 1773TIP3   OH2 5259   1.167   6.456   0.192
 1773TIP3    H1 5260   1.198   6.517   0.259
 1773TIP3    H2 5261   1.231   6.385   0.193
 1774TIP3   OH2 5262   6.420   2.473   5.318
 1774TIP3    H1 5263   6.415   2.398   5.258
 1774TIP3    H2 5264   6.482   2.533   5.276
 1775TIP3   OH2 5265   0.214   7.401   3.485
 1775TIP3    H1 5266   0.279   7.339   3.515
 1775TIP3    H2 5267   0.130   7.362   3.511
 1776TIP3   OH2 5268   5.492   1.146   3.269
 1776TIP3    H1 5269   5.422   1.126   3.207
 1776TIP3    H2 5270   5.447   1.185   3.344
 1777TIP3   OH2 5271   2.611   0.885   4.510
 1777TIP3    H1 5272   2.615   0.888   4.415
 1777TIP3    H2 5273   2.694   0.845   4.537
 1778TIP3   OH2 5274   3.288   7.729   0.827
 1778TIP3    H1 5275   3.209   7.678   0.844
 1778TIP3    H2 5276   3.360   7.668   0.841
 1779TIP3   OH2 5277   2.305   6.388   2.925
 1779TIP3    H1 5278   2.238   6.439   2.879
 1779TIP3    H2 5279   2.352   6.453   2.978
 1780TIP3   OH2 5280   4.951   4.020   2.288
 1780TIP3    H1 5281   5.045   4.038   2.278
 1780TIP3    H2 5282   4.948   3.938   2.338
 1781TIP3   OH2 5283   1.851   6.959   4.800
 1781TIP3    H1 5284   1.837   7.053   4.786
 1781TIP3    H2 5285   1.776   6.917   4.758
 1782TIP3   OH2 5286   4.687   0.388   3.216
 1782TIP3    H1 5287   4.749   0.456   3.191
 1782TIP3    H2 5288   4.741   0.314   3.242
 1783TIP3   OH2 5289   8.196   5.335   1.204
 1783TIP3    H1 5290   8.129   5.404   1.214
 1783TIP3    H2 5291   8.193   5.287   1.287
 1784TIP3   OH2 5292   6.130   5.698   3.627
 1784TIP3    H1 5293   6.084   5.632   3.575
 1784TIP3    H2 5294   6.206   5.652   3.663
 1785TIP3   OH2 5295   0.296   3.729   2.816
 1785TIP3    H1 5296   0.321   3.728   2.908
 1785TIP3    H2 5297   0.242   3.651   2.804
 1786TIP3   OH2 5298   4.996   3.183   3.641
 1786TIP3    H1 5299   4.963   3.106   3.688
 1786TIP3    H2 5300   5.021   3.149   3.555
 1787TIP3   OH2 5301   8.269   0.609   1.762
 1787TIP3    H1 5302   8.352   0.650   1.787
 1787TIP3    H2 5303   8.295   0.526   1.723
 1788TIP3   OH2 5304   2.504   2.513   6.596
 1788TIP3    H1 5305   2.596   2.493   6.613
 1788TIP3    H2 5306   2.468   2.434   6.556
 1789TIP3   OH2 5307   6.856   3.449   4.996
 1789TIP3    H1 5308   6.950   3.466   4.995
 1789TIP3    H2 5309   6.817   3.532   5.024
 1790TIP3   OH2 5310   1.506   4.019   1.305
 1790TIP3    H1 5311   1.505   4.086   1.236
 1790TIP3    H2 5312   1.419   4.024   1.344
 1791TIP3   OH2 5313   3.329   2.807   0.839
 1791TIP3    H1 5314   3.312   2.714   0.845
 1791TIP3    H2 5315   3.424   2.815   0.846
 1792TIP3   OH2 5316   3.778   2.036   2.199
 1792TIP3    H1 5317   3.828   1.990   2.132
 1792TIP3    H2 5318   3.836   2.106   2.228
 1793TIP3   OH2 5319   4.492   3.935   6.115
 1793TIP3    H1 5320   4.447   3.999   6.059
 1793TIP3    H2 5321   4.529   3.872   6.053
 1794TIP3   OH2 5322   1.993   2.718   0.806
 1794TIP3    H1 5323   1.941   2.648   0.846
 1794TIP3    H2 5324   1.929   2.784   0.780
 1795TIP3   OH2 5325   7.348   1.213   6.328
 1795TIP3    H1 5326   7.407   1.137   6.332
 1795TIP3    H2 5327   7.359   1.256   6.413
 1796TIP3   OH2 5328   2.815   0.956   2.209
 1796TIP3    H1 5329   2.910   0.965   2.212
 1796TIP3    H2 5330   2.782   1.039   2.244
 1797TIP3   OH2 5331   3.603   0.110   0.335
 1797TIP3    H1 5332   3.513   0.134   0.358
 1797TIP3    H2 5333   3.596   0.070   0.248
 1798TIP3   OH2 5334   3.454   1.269   1.074
 1798TIP3    H1 5335   3.524   1.204   1.074
 1798TIP3    H2 5336   3.375   1.221   1.097
 1799TIP3   OH2 5337   4.039   1.750   2.467
 1799TIP3    H1 5338   4.077   1.724   2.383
 1799TIP3    H2 5339   4.114   1.780   2.518
 1800TIP3   OH2 5340   5.741   5.650   3.771
 1800TIP3    H1 5341   5.744   5.554   3.773
 1800TIP3    H2 5342   5.744   5.672   3.679
 1801TIP3   OH2 5343   6.283   7.372   5.868
 1801TIP3    H1 5344   6.219   7.399   5.934
 1801TIP3    H2 5345   6.242   7.298   5.823
 1802TIP3   OH2 5346   3.686   2.562   2.224
 1802TIP3    H1 5347   3.673   2.476   2.183
 1802TIP3    H2 5348   3.652   2.552   2.313
 1803TIP3   OH2 5349   7.517   4.170   6.807
 1803TIP3    H1 5350   7.447   4.225   6.772
 1803TIP3    H2 5351   7.544   4.215   6.888
 1804TIP3   OH2 5352   3.746   2.105   5.460
 1804TIP3    H1 5353   3.732   2.098   5.365
 1804TIP3    H2 5354   3.841   2.107   5.470
 1805TIP3   OH2 5355   7.403   0.376   0.646
 1805TIP3    H1 5356   7.325   0.345   0.598
 1805TIP3    H2 5357   7.423   0.460   0.605
 1806TIP3   OH2 5358   4.585   4.259   3.821
 1806TIP3    H1 5359   4.522   4.322   3.787
 1806TIP3    H2 5360   4.561   4.176   3.779
 1807TIP3   OH2 5361   3.305   5.276   6.702
 1807TIP3    H1 5362   3.267   5.333   6.635
 1807TIP3    H2 5363   3.254   5.196   6.698
 1808TIP3   OH2 5364   0.535   4.382   5.610
 1808TIP3    H1 5365   0.514   4.439   5.536
 1808TIP3    H2 5366   0.462   4.320   5.613
 1809TIP3   OH2 5367   4.006   7.122   4.606
 1809TIP3    H1 5368   4.022   7.199   4.552
 1809TIP3    H2 5369   3.988   7.052   4.544
 1810TIP3   OH2 5370   7.448   0.712   5.921
 1810TIP3    H1 5371   7.486   0.737   6.005
 1810TIP3    H2 5372   7.524   0.698   5.864
 1811TIP3   OH2 5373   7.328   5.374   1.898
 1811TIP3    H1 5374   7.422   5.372   1.880
 1811TIP3    H2 5375   7.320   5.342   1.987
 1812TIP3   OH2 5376   2.263   4.042   3.052
 1812TIP3    H1 5377   2.259   4.136   3.070
 1812TIP3    H2 5378   2.356   4.022   3.049
 1813TIP3   OH2 5379   0.666   3.005   1.760
 1813TIP3    H1 5380   0.602   2.979   1.694
 1813TIP3    H2 5381   0.670   2.931   1.820
 1814TIP3   OH2 5382   0.154   4.978   6.259
 1814TIP3    H1 5383   0.228   4.918   6.270
 1814TIP3    H2 5384   0.195   5.063   6.244
 1815TIP3   OH2 5385   5.310   1.291   6.325
 1815TIP3    H1 5386   5.279   1.296   6.415
 1815TIP3    H2 5387   5.386   1.349   6.322
 1816TIP3   OH2 5388   7.756   0.813   2.121
 1816TIP3    H1 5389   7.693   0.755   2.163
 1816TIP3    H2 5390   7.705   0.890   2.097
 1817TIP3   OH2 5391   5.962   2.954   0.300
 1817TIP3    H1 5392   5.952   2.993   0.387
 1817TIP3    H2 5393   5.889   2.893   0.292
 1818TIP3   OH2 5394   0.382   4.456   3.491
 1818TIP3    H1 5395   0.468   4.466   3.532
 1818TIP3    H2 5396   0.353   4.546   3.477
 1819TIP3   OH2 5397   4.857   7.319   2.645
 1819TIP3    H1 5398   4.864   7.392   2.582
 1819TIP3    H2 5399   4.763   7.297   2.645
 1820TIP3   OH2 5400   1.621   2.229   5.712
 1820TIP3    H1 5401   1.544   2.201   5.761
 1820TIP3    H2 5402   1.694   2.210   5.770
 1821TIP3   OH2 5403   0.511   4.663   2.749
 1821TIP3    H1 5404   0.438   4.617   2.789
 1821TIP3    H2 5405   0.583   4.600   2.750
 1822TIP3   OH2 5406   5.832   4.169   2.314
 1822TIP3    H1 5407   5.778   4.100   2.275
 1822TIP3    H2 5408   5.901   4.184   2.251
 1823TIP3   OH2 5409   1.033   4.459   2.466
 1823TIP3    H1 5410   1.044   4.443   2.372
 1823TIP3    H2 5411   0.938   4.461   2.478
 1824TIP3   OH2 5412   5.027   7.477   6.116
 1824TIP3    H1 5413   5.023   7.572   6.131
 1824TIP3    H2 5414   4.953   7.460   6.057
 1825TIP3   OH2 5415   5.930   6.057   1.541
 1825TIP3    H1 5416   6.012   6.061   1.590
 1825TIP3    H2 5417   5.953   6.089   1.453
 1826TIP3   OH2 5418   2.283   4.317   4.649
 1826TIP3    H1 5419   2.256   4.395   4.601
 1826TIP3    H2 5420   2.319   4.350   4.732
 1827TIP3   OH2 5421   0.993   4.758   5.763
 1827TIP3    H1 5422   0.979   4.704   5.841
 1827TIP3    H2 5423   0.952   4.841   5.784
 1828TIP3   OH2 5424   2.901   1.582   2.914
 1828TIP3    H1 5425   2.892   1.489   2.896
 1828TIP3    H2 5426   2.815   1.618   2.894
 1829TIP3   OH2 5427   6.405   0.841   0.222
 1829TIP3    H1 5428   6.388   0.749   0.200
 1829TIP3    H2 5429   6.448   0.838   0.307
 1830TIP3   OH2 5430   0.269   7.461   1.426
 1830TIP3    H1 5431   0.213   7.408   1.369
 1830TIP3    H2 5432   0.238   7.442   1.515
 1831TIP3   OH2 5433   4.060   6.275   1.172
 1831TIP3    H1 5434   4.150   6.245   1.180
 1831TIP3    H2 5435   4.010   6.218   1.231
 1832TIP3   OH2 5436   2.883   3.787   1.302
 1832TIP3    H1 5437   2.793   3.777   1.271
 1832TIP3    H2 5438   2.937   3.757   1.229
 1833TIP3   OH2 5439   0.378   5.185   4.128
 1833TIP3    H1 5440   0.351   5.190   4.036
 1833TIP3    H2 5441   0.426   5.267   4.143
 1834TIP3   OH2 5442   3.017   5.122   5.606
 1834TIP3    H1 5443   2.992   5.129   5.699
 1834TIP3    H2 5444   3.091   5.181   5.597
 1835TIP3   OH2 5445   8.190   7.771   5.380
 1835TIP3    H1 5446   8.135   7.694   5.364
 1835TIP3    H2 5447   8.273   7.751   5.338
 1836TIP3   OH2 5448   2.197   6.865   1.419
 1836TIP3    H1 5449   2.118   6.838   1.372
 1836TIP3    H2 5450   2.264   6.804   1.390
 1837TIP3   OH2 5451   2.437   1.022   6.094
 1837TIP3    H1 5452   2.447   1.088   6.026
 1837TIP3    H2 5453   2.527   0.997   6.116
 1838TIP3   OH2 5454   7.027   5.494   4.311
 1838TIP3    H1 5455   7.083   5.474   4.236
 1838TIP3    H2 5456   7.080   5.470   4.387
 1839TIP3   OH2 5457   3.136   4.861   5.732
 1839TIP3    H1 5458   3.204   4.923   5.707
 1839TIP3    H2 5459   3.055   4.913   5.733
 1840TIP3   OH2 5460   2.255   3.588   1.212
 1840TIP3    H1 5461   2.181   3.558   1.264
 1840TIP3    H2 5462   2.241   3.682   1.202
 1841TIP3   OH2 5463   7.796   5.289   5.000
 1841TIP3    H1 5464   7.822   5.282   4.909
 1841TIP3    H2 5465   7.731   5.219   5.011
 1842TIP3   OH2 5466   4.219   3.828   1.545
 1842TIP3    H1 5467   4.247   3.908   1.590
 1842TIP3    H2 5468   4.226   3.759   1.611
 1843TIP3   OH2 5469   6.730   7.536   4.777
 1843TIP3    H1 5470   6.669   7.585   4.832
 1843TIP3    H2 5471   6.816   7.554   4.814
 1844TIP3   OH2 5472   2.663   7.597   5.705
 1844TIP3    H1 5473   2.621   7.672   5.747
 1844TIP3    H2 5474   2.637   7.522   5.757
 1845TIP3   OH2 5475   3.408   4.853   1.861
 1845TIP3    H1 5476   3.356   4.807   1.926
 1845TIP3    H2 5477   3.371   4.941   1.857
 1846TIP3   OH2 5478   5.186   1.939   0.013
 1846TIP3    H1 5479   5.214   2.029  -0.002
 1846TIP3    H2 5480   5.092   1.946   0.034
 1847TIP3   OH2 5481   3.887   0.702   4.472
 1847TIP3    H1 5482   3.948   0.629   4.484
 1847TIP3    H2 5483   3.936   0.766   4.421
 1848TIP3   OH2 5484   1.236   7.680   3.820
 1848TIP3    H1 5485   1.237   7.728   3.903
 1848TIP3    H2 5486   1.143   7.665   3.802
 1849TIP3   OH2 5487   0.218   1.314   0.984
 1849TIP3    H1 5488   0.277   1.245   0.953
 1849TIP3    H2 5489   0.137   1.267   1.005
 1850TIP3   OH2 5490   5.354   2.650   2.063
 1850TIP3    H1 5491   5.264   2.619   2.070
 1850TIP3    H2 5492   5.346   2.743   2.044
 1851TIP3   OH2 5493   2.098   7.621   3.855
 1851TIP3    H1 5494   2.079   7.528   3.868
 1851TIP3    H2 5495   2.159   7.622   3.780
 1852TIP3   OH2 5496   0.784   3.721  -0.016
 1852TIP3    H1 5497   0.825   3.636  -0.032
 1852TIP3    H2 5498   0.707   3.701   0.036
 1853TIP3   OH2 5499   7.181   4.317   2.713
 1853TIP3    H1 5500   7.153   4.409   2.718
 1853TIP3    H2 5501   7.226   4.302   2.796
 1854TIP3   OH2 5502   0.534   1.919   1.257
 1854TIP3    H1 5503   0.612   1.897   1.308
 1854TIP3    H2 5504   0.510   2.007   1.286
 1855TIP3   OH2 5505   5.238   3.339   5.145
 1855TIP3    H1 5506   5.159   3.390   5.127
 1855TIP3    H2 5507   5.309   3.396   5.116
 1856TIP3   OH2 5508   1.449   2.176   2.029
 1856TIP3    H1 5509   1.475   2.086   2.007
 1856TIP3    H2 5510   1.424   2.172   2.121
 1857TIP3   OH2 5511   0.223   4.516   3.010
 1857TIP3    H1 5512   0.181   4.602   3.007
 1857TIP3    H2 5513   0.208   4.485   3.099
 1858TIP3   OH2 5514   0.299   6.018   1.404
 1858TIP3    H1 5515   0.227   5.956   1.401
 1858TIP3    H2 5516   0.332   6.023   1.314
 1859TIP3   OH2 5517   4.323   6.849   6.186
 1859TIP3    H1 5518   4.408   6.812   6.163
 1859TIP3    H2 5519   4.260   6.785   6.154
 1860TIP3   OH2 5520   0.018   4.837   4.524
 1860TIP3    H1 5521   0.030   4.884   4.442
 1860TIP3    H2 5522  -0.045   4.768   4.504
 1861TIP3   OH2 5523   2.879   0.677   1.899
 1861TIP3    H1 5524   2.964   0.694   1.940
 1861TIP3    H2 5525   2.841   0.763   1.885
 1862TIP3   OH2 5526   3.232   4.273   5.674
 1862TIP3    H1 5527   3.218   4.367   5.662
 1862TIP3    H2 5528   3.325   4.265   5.696
 1863TIP3   OH2 5529   1.084   0.618   5.673
 1863TIP3    H1 5530   1.002   0.635   5.627
 1863TIP3    H2 5531   1.133   0.700   5.669
 1864TIP3   OH2 5532   1.003   7.375   6.073
 1864TIP3    H1 5533   0.968   7.388   5.985
 1864TIP3    H2 5534   0.961   7.293   6.102
 1865TIP3   OH2 5535   3.738   4.040   3.851
 1865TIP3    H1 5536   3.824   4.001   3.868
 1865TIP3    H2 5537   3.690   4.026   3.932
 1866TIP3   OH2 5538   3.512   6.606   0.090
 1866TIP3    H1 5539   3.542   6.631   0.177
 1866TIP3    H2 5540   3.418   6.623   0.091
 1867TIP3   OH2 5541   0.188   4.749   0.235
 1867TIP3    H1 5542   0.229   4.706   0.160
 1867TIP3    H2 5543   0.232   4.833   0.242
 1868TIP3   OH2 5544   7.512   1.635   0.102
 1868TIP3    H1 5545   7.456   1.624   0.026
 1868TIP3    H2 5546   7.502   1.554   0.151
 1869TIP3   OH2 5547   4.026   6.641   4.595
 1869TIP3    H1 5548   4.077   6.565   4.622
 1869TIP3    H2 5549   4.092   6.705   4.567
 1870TIP3   OH2 5550   3.284   4.124   0.846
 1870TIP3    H1 5551   3.206   4.106   0.899
 1870TIP3    H2 5552   3.339   4.179   0.902
 1871TIP3   OH2 5553   3.502   7.645   3.695
 1871TIP3    H1 5554   3.509   7.567   3.750
 1871TIP3    H2 5555   3.592   7.660   3.665
 1872TIP3   OH2 5556   6.511   1.297   2.734
 1872TIP3    H1 5557   6.520   1.267   2.825
 1872TIP3    H2 5558   6.573   1.242   2.685
 1873TIP3   OH2 5559   1.959   2.765   0.213
 1873TIP3    H1 5560   1.866   2.745   0.199
 1873TIP3    H2 5561   1.958   2.840   0.272
 1874TIP3   OH2 5562   4.100   1.673   4.049
 1874TIP3    H1 5563   4.139   1.742   4.103
 1874TIP3    H2 5564   4.018   1.710   4.018
 1875TIP3   OH2 5565   3.723   5.313   4.924
 1875TIP3    H1 5566   3.721   5.218   4.917
 1875TIP3    H2 5567   3.756   5.330   5.012
 1876TIP3   OH2 5568   2.916   5.843   3.019
 1876TIP3    H1 5569   2.908   5.917   2.957
 1876TIP3    H2 5570   3.003   5.808   3.003
 1877TIP3   OH2 5571   7.218   4.232   4.905
 1877TIP3    H1 5572   7.235   4.262   4.995
 1877TIP3    H2 5573   7.193   4.140   4.915
 1878TIP3   OH2 5574   8.039   0.470   6.060
 1878TIP3    H1 5575   8.051   0.410   6.133
 1878TIP3    H2 5576   8.072   0.423   5.984
 1879TIP3   OH2 5577   5.506   0.638   2.939
 1879TIP3    H1 5578   5.433   0.671   2.887
 1879TIP3    H2 5579   5.492   0.673   3.026
 1880TIP3   OH2 5580   1.006   0.643   2.078
 1880TIP3    H1 5581   0.925   0.611   2.117
 1880TIP3    H2 5582   0.991   0.737   2.067
 1881TIP3   OH2 5583   0.947   6.065   3.997
 1881TIP3    H1 5584   0.981   6.081   3.909
 1881TIP3    H2 5585   1.010   6.004   4.036
 1882TIP3   OH2 5586   4.595   4.823   6.399
 1882TIP3    H1 5587   4.608   4.835   6.305
 1882TIP3    H2 5588   4.642   4.896   6.440
 1883TIP3   OH2 5589   3.408   1.592   1.155
 1883TIP3    H1 5590   3.364   1.565   1.236
 1883TIP3    H2 5591   3.366   1.541   1.086
 1884TIP3   OH2 5592   3.322   6.581   0.637
 1884TIP3    H1 5593   3.367   6.547   0.560
 1884TIP3    H2 5594   3.338   6.675   0.636
 1885TIP3   OH2 5595   6.841   1.979   2.449
 1885TIP3    H1 5596   6.749   1.982   2.423
 1885TIP3    H2 5597   6.887   2.024   2.378
 1886TIP3   OH2 5598   0.157   5.454   4.451
 1886TIP3    H1 5599   0.083   5.395   4.468
 1886TIP3    H2 5600   0.201   5.463   4.535
 1887TIP3   OH2 5601   4.722   3.582   5.583
 1887TIP3    H1 5602   4.771   3.506   5.614
 1887TIP3    H2 5603   4.690   3.625   5.662
 1888TIP3   OH2 5604   0.618   3.272   1.833
 1888TIP3    H1 5605   0.651   3.196   1.785
 1888TIP3    H2 5606   0.661   3.267   1.918
 1889TIP3   OH2 5607   7.037   3.978   6.348
 1889TIP3    H1 5608   7.094   3.957   6.422
 1889TIP3    H2 5609   6.976   3.905   6.342
 1890TIP3   OH2 5610   2.195   0.710   6.315
 1890TIP3    H1 5611   2.270   0.768   6.312
 1890TIP3    H2 5612   2.227   0.632   6.361
 1891TIP3   OH2 5613   3.488   3.540   2.335
 1891TIP3    H1 5614   3.491   3.631   2.308
 1891TIP3    H2 5615   3.518   3.541   2.426
 1892TIP3   OH2 5616   3.553   4.291   0.532
 1892TIP3    H1 5617   3.515   4.204   0.545
 1892TIP3    H2 5618   3.613   4.302   0.606
 1893TIP3   OH2 5619   4.636   3.839   0.161
 1893TIP3    H1 5620   4.692   3.780   0.111
 1893TIP3    H2 5621   4.669   3.833   0.251
 1894TIP3   OH2 5622   0.082   0.566   5.409
 1894TIP3    H1 5623   0.103   0.573   5.316
 1894TIP3    H2 5624  -0.013   0.567   5.412
 1895TIP3   OH2 5625   4.661   0.052   4.418
 1895TIP3    H1 5626   4.724   0.123   4.433
 1895TIP3    H2 5627   4.620   0.075   4.334
 1896TIP3   OH2 5628   2.128   2.965   1.730
 1896TIP3    H1 5629   2.206   3.018   1.746
 1896TIP3    H2 5630   2.061   3.005   1.786
 1897TIP3   OH2 5631   6.651   0.293   2.063
 1897TIP3    H1 5632   6.626   0.384   2.045
 1897TIP3    H2 5633   6.739   0.299   2.099
 1898TIP3   OH2 5634   4.119   4.605   5.539
 1898TIP3    H1 5635   4.046   4.645   5.493
 1898TIP3    H2 5636   4.197   4.649   5.504
 1899TIP3   OH2 5637   5.726   1.690   3.066
 1899TIP3    H1 5638   5.677   1.736   2.998
 1899TIP3    H2 5639   5.749   1.606   3.026
 1900TIP3   OH2 5640   1.964   1.107   1.105
 1900TIP3    H1 5641   2.009   1.111   1.190
 1900TIP3    H2 5642   1.996   1.183   1.057
 1901TIP3   OH2 5643   4.268   4.439   3.390
 1901TIP3    H1 5644   4.220   4.376   3.336
 1901TIP3    H2 5645   4.224   4.437   3.475
 1902TIP3   OH2 5646   0.629   6.759   5.017
 1902TIP3    H1 5647   0.697   6.823   4.995
 1902TIP3    H2 5648   0.572   6.757   4.941
 1903TIP3   OH2 5649   1.407   1.016   5.394
 1903TIP3    H1 5650   1.346   1.058   5.334
 1903TIP3    H2 5651   1.400   0.923   5.373
 1904TIP3   OH2 5652   1.395   4.828   4.664
 1904TIP3    H1 5653   1.429   4.785   4.742
 1904TIP3    H2 5654   1.307   4.855   4.688
 1905TIP3   OH2 5655   2.546   5.102   3.714
 1905TIP3    H1 5656   2.496   5.126   3.792
 1905TIP3    H2 5657   2.479   5.076   3.650
 1906TIP3   OH2 5658  -0.035   1.604   4.049
 1906TIP3    H1 5659   0.015   1.685   4.063
 1906TIP3    H2 5660  -0.063   1.608   3.958
 1907TIP3   OH2 5661   6.854   4.082   1.219
 1907TIP3    H1 5662   6.860   4.072   1.124
 1907TIP3    H2 5663   6.760   4.086   1.237
 1908TIP3   OH2 5664   1.335   3.199   2.550
 1908TIP3    H1 5665   1.298   3.259   2.486
 1908TIP3    H2 5666   1.395   3.145   2.499
 1909TIP3   OH2 5667   4.559   1.956   3.679
 1909TIP3    H1 5668   4.474   1.913   3.680
 1909TIP3    H2 5669   4.598   1.936   3.764
 1910TIP3   OH2 5670   5.825   4.045   5.022
 1910TIP3    H1 5671   5.834   4.042   4.927
 1910TIP3    H2 5672   5.766   3.973   5.043
 1911TIP3   OH2 5673   0.565   7.486   6.701
 1911TIP3    H1 5674   0.528   7.536   6.629
 1911TIP3    H2 5675   0.510   7.509   6.776
 1912TIP3   OH2 5676   1.866   1.606   6.734
 1912TIP3    H1 5677   1.798   1.633   6.795
 1912TIP3    H2 5678   1.823   1.543   6.676
 1913TIP3   OH2 5679   4.598   4.365   4.174
 1913TIP3    H1 5680   4.521   4.332   4.221
 1913TIP3    H2 5681   4.562   4.410   4.098
 1914TIP3   OH2 5682   6.485   1.073   5.208
 1914TIP3    H1 5683   6.479   1.167   5.224
 1914TIP3    H2 5684   6.574   1.060   5.175
 1915TIP3   OH2 5685   4.184   4.426   4.292
 1915TIP3    H1 5686   4.142   4.416   4.207
 1915TIP3    H2 5687   4.112   4.422   4.355
 1916TIP3   OH2 5688   7.602   3.902   5.908
 1916TIP3    H1 5689   7.522   3.912   5.855
 1916TIP3    H2 5690   7.673   3.919   5.847
 1917TIP3   OH2 5691   3.886   0.876   3.483
 1917TIP3    H1 5692   3.977   0.855   3.466
 1917TIP3    H2 5693   3.838   0.844   3.406
 1918TIP3   OH2 5694   8.201   6.442   2.475
 1918TIP3    H1 5695   8.183   6.510   2.540
 1918TIP3    H2 5696   8.130   6.451   2.411
 1919TIP3   OH2 5697   7.785   6.261   0.385
 1919TIP3    H1 5698   7.871   6.225   0.407
 1919TIP3    H2 5699   7.774   6.241   0.292
 1920TIP3   OH2 5700   1.992   6.749   1.290
 1920TIP3    H1 5701   1.896   6.746   1.296
 1920TIP3    H2 5702   2.021   6.667   1.329
 1921TIP3   OH2 5703   3.395   7.903   3.626
 1921TIP3    H1 5704   3.391   7.813   3.658
 1921TIP3    H2 5705   3.488   7.924   3.624
 1922TIP3   OH2 5706   0.558   4.186   6.649
 1922TIP3    H1 5707   0.513   4.107   6.619
 1922TIP3    H2 5708   0.501   4.258   6.620
 1923TIP3   OH2 5709   5.562   3.437   6.523
 1923TIP3    H1 5710   5.606   3.369   6.471
 1923TIP3    H2 5711   5.610   3.437   6.606
 1924TIP3   OH2 5712   7.476   2.891   4.511
 1924TIP3    H1 5713   7.482   2.806   4.466
 1924TIP3    H2 5714   7.382   2.910   4.513
 1925TIP3   OH2 5715   2.432   7.410   1.699
 1925TIP3    H1 5716   2.420   7.393   1.792
 1925TIP3    H2 5717   2.388   7.494   1.683
 1926TIP3   OH2 5718   5.261   4.864   5.190
 1926TIP3    H1 5719   5.285   4.880   5.281
 1926TIP3    H2 5720   5.345   4.852   5.145
 1927TIP3   OH2 5721   5.755   1.193   0.273
 1927TIP3    H1 5722   5.665   1.164   0.288
 1927TIP3    H2 5723   5.805   1.159   0.347
 1928TIP3   OH2 5724   4.179   7.134   1.871
 1928TIP3    H1 5725   4.114   7.202   1.892
 1928TIP3    H2 5726   4.263   7.178   1.883
 1929TIP3   OH2 5727   5.181   7.873   2.468
 1929TIP3    H1 5728   5.206   7.817   2.395
 1929TIP3    H2 5729   5.092   7.845   2.490
 1930TIP3   OH2 5730   6.577   4.731   6.370
 1930TIP3    H1 5731   6.668   4.717   6.393
 1930TIP3    H2 5732   6.529   4.716   6.451
 1931TIP3   OH2 5733   4.439   5.039   4.092
 1931TIP3    H1 5734   4.365   5.024   4.034
 1931TIP3    H2 5735   4.447   5.134   4.098
 1932TIP3   OH2 5736   1.416   6.072   4.285
 1932TIP3    H1 5737   1.336   6.125   4.277
 1932TIP3    H2 5738   1.416   6.042   4.376
 1933TIP3   OH2 5739   3.534   5.107   4.408
 1933TIP3    H1 5740   3.533   5.035   4.471
 1933TIP3    H2 5741   3.517   5.066   4.323
 1934TIP3   OH2 5742   3.895   4.192   4.590
 1934TIP3    H1 5743   3.933   4.278   4.571
 1934TIP3    H2 5744   3.949   4.157   4.661
 1935TIP3   OH2 5745   6.664   0.004   6.570
 1935TIP3    H1 5746   6.595   0.010   6.635
 1935TIP3    H2 5747   6.618  -0.008   6.487
 1936TIP3   OH2 5748   5.949   1.798   0.204
 1936TIP3    H1 5749   5.889   1.724   0.205
 1936TIP3    H2 5750   5.970   1.814   0.297
 1937TIP3   OH2 5751   6.047   3.595   2.366
 1937TIP3    H1 5752   5.957   3.626   2.377
 1937TIP3    H2 5753   6.101   3.668   2.395
 1938TIP3   OH2 5754   6.165   4.842   5.046
 1938TIP3    H1 5755   6.135   4.774   4.986
 1938TIP3    H2 5756   6.168   4.799   5.131
 1939TIP3   OH2 5757   2.696   1.427   2.836
 1939TIP3    H1 5758   2.647   1.508   2.826
 1939TIP3    H2 5759   2.678   1.378   2.756
 1940TIP3   OH2 5760   0.369   6.642   1.304
 1940TIP3    H1 5761   0.300   6.613   1.364
 1940TIP3    H2 5762   0.364   6.580   1.230
 1941TIP3   OH2 5763   2.630   3.515   2.187
 1941TIP3    H1 5764   2.686   3.586   2.156
 1941TIP3    H2 5765   2.630   3.451   2.115
 1942TIP3   OH2 5766   5.127   1.674   3.638
 1942TIP3    H1 5767   5.151   1.734   3.709
 1942TIP3    H2 5768   5.185   1.698   3.566
 1943TIP3   OH2 5769   6.793   2.361   2.321
 1943TIP3    H1 5770   6.861   2.340   2.257
 1943TIP3    H2 5771   6.816   2.449   2.352
 1944TIP3   OH2 5772   0.911   3.050   6.421
 1944TIP3    H1 5773   0.839   2.995   6.391
 1944TIP3    H2 5774   0.977   3.044   6.352
 1945TIP3   OH2 5775   2.972   0.314   0.067
 1945TIP3    H1 5776   2.964   0.221   0.044
 1945TIP3    H2 5777   3.005   0.314   0.156
 1946TIP3   OH2 5778   2.933   0.304   4.847
 1946TIP3    H1 5779   2.903   0.296   4.938
 1946TIP3    H2 5780   2.899   0.389   4.819
 1947TIP3   OH2 5781   0.277   4.691   0.998
 1947TIP3    H1 5782   0.329   4.742   0.936
 1947TIP3    H2 5783   0.246   4.616   0.947
 1948TIP3   OH2 5784   0.429   1.555   2.426
 1948TIP3    H1 5785   0.371   1.604   2.485
 1948TIP3    H2 5786   0.513   1.602   2.431
 1949TIP3   OH2 5787   6.162   5.048   1.150
 1949TIP3    H1 5788   6.091   5.039   1.214
 1949TIP3    H2 5789   6.130   5.002   1.072
 1950TIP3   OH2 5790   1.434   6.128   5.610
 1950TIP3    H1 5791   1.511   6.114   5.555
 1950TIP3    H2 5792   1.409   6.040   5.639
 1951TIP3   OH2 5793   1.494   3.448   1.645
 1951TIP3    H1 5794   1.543   3.455   1.563
 1951TIP3    H2 5795   1.431   3.520   1.642
 1952TIP3   OH2 5796   5.456   1.843   1.344
 1952TIP3    H1 5797   5.361   1.840   1.334
 1952TIP3    H2 5798   5.472   1.924   1.393
 1953TIP3   OH2 5799   6.207   5.154   0.770
 1953TIP3    H1 5800   6.163   5.075   0.737
 1953TIP3    H2 5801   6.280   5.120   0.821
 1954TIP3   OH2 5802   8.264   5.059   4.617
 1954TIP3    H1 5803   8.349   5.052   4.573
 1954TIP3    H2 5804   8.269   4.993   4.687
 1955TIP3   OH2 5805   1.420   1.645   6.514
 1955TIP3    H1 5806   1.500   1.635   6.564
 1955TIP3    H2 5807   1.432   1.588   6.438
 1956TIP3   OH2 5808   3.304   6.594   3.315
 1956TIP3    H1 5809   3.374   6.563   3.372
 1956TIP3    H2 5810   3.291   6.685   3.340
 1957TIP3   OH2 5811   5.305   0.140   3.010
 1957TIP3    H1 5812   5.359   0.220   3.017
 1957TIP3    H2 5813   5.356   0.081   2.955
 1958TIP3   OH2 5814   1.327   5.025   6.086
 1958TIP3    H1 5815   1.373   5.010   6.169
 1958TIP3    H2 5816   1.278   4.944   6.071
 1959TIP3   OH2 5817   8.103   7.383   2.575
 1959TIP3    H1 5818   8.133   7.401   2.664
 1959TIP3    H2 5819   8.010   7.361   2.585
 1960TIP3   OH2 5820   0.169   3.526   4.791
 1960TIP3    H1 5821   0.120   3.447   4.765
 1960TIP3    H2 5822   0.260   3.495   4.800
 1961TIP3   OH2 5823   6.918   0.100   4.894
 1961TIP3    H1 5824   6.897   0.017   4.850
 1961TIP3    H2 5825   6.845   0.113   4.955
 1962TIP3   OH2 5826   2.859   3.247   4.047
 1962TIP3    H1 5827   2.809   3.167   4.033
 1962TIP3    H2 5828   2.918   3.252   3.972
 1963TIP3   OH2 5829   1.678   0.427   1.378
 1963TIP3    H1 5830   1.686   0.381   1.461
 1963TIP3    H2 5831   1.597   0.393   1.339
 1964TIP3   OH2 5832   0.910   3.302   2.990
 1964TIP3    H1 5833   0.979   3.359   2.957
 1964TIP3    H2 5834   0.947   3.214   2.983
 1965TIP3   OH2 5835   7.425   6.948   1.856
 1965TIP3    H1 5836   7.375   6.968   1.935
 1965TIP3    H2 5837   7.516   6.961   1.881
 1966TIP3   OH2 5838   1.168   4.298   0.245
 1966TIP3    H1 5839   1.164   4.219   0.192
 1966TIP3    H2 5840   1.261   4.309   0.265
 1967TIP3   OH2 5841   5.611   3.876   1.632
 1967TIP3    H1 5842   5.558   3.941   1.585
 1967TIP3    H2 5843   5.592   3.794   1.587
 1968TIP3   OH2 5844   0.245   2.928   0.834
 1968TIP3    H1 5845   0.194   2.853   0.867
 1968TIP3    H2 5846   0.292   2.894   0.758
 1969TIP3   OH2 5847   2.533   0.713   0.325
 1969TIP3    H1 5848   2.606   0.659   0.356
 1969TIP3    H2 5849   2.454   0.665   0.350
 1970TIP3   OH2 5850   6.358   1.904   2.530
 1970TIP3    H1 5851   6.283   1.849   2.504
 1970TIP3    H2 5852   6.408   1.849   2.590
 1971TIP3   OH2 5853   0.218   7.744   1.065
 1971TIP3    H1 5854   0.212   7.649   1.077
 1971TIP3    H2 5855   0.138   7.767   1.019
 1972TIP3   OH2 5856   2.121   7.334   3.856
 1972TIP3    H1 5857   2.040   7.316   3.809
 1972TIP3    H2 5858   2.166   7.250   3.860
 1973TIP3   OH2 5859   4.112   0.668   5.222
 1973TIP3    H1 5860   4.138   0.721   5.146
 1973TIP3    H2 5861   4.195   0.641   5.261
 1974TIP3   OH2 5862   6.702   1.204   2.562
 1974TIP3    H1 5863   6.718   1.203   2.467
 1974TIP3    H2 5864   6.662   1.120   2.580
 1975TIP3   OH2 5865   0.788   6.783   2.103
 1975TIP3    H1 5866   0.713   6.731   2.131
 1975TIP3    H2 5867   0.754   6.836   2.031
 1976TIP3   OH2 5868   4.518   3.518   0.874
 1976TIP3    H1 5869   4.611   3.540   0.886
 1976TIP3    H2 5870   4.502   3.447   0.936
 1977TIP3   OH2 5871  -0.026   4.616   4.789
 1977TIP3    H1 5872  -0.060   4.582   4.707
 1977TIP3    H2 5873   0.018   4.541   4.830
 1978TIP3   OH2 5874   4.561   5.383   0.285
 1978TIP3    H1 5875   4.488   5.368   0.345
 1978TIP3    H2 5876   4.539   5.332   0.207
 1979TIP3   OH2 5877   1.400   7.237   2.548
 1979TIP3    H1 5878   1.356   7.274   2.625
 1979TIP3    H2 5879   1.408   7.144   2.567
 1980TIP3   OH2 5880   4.829   7.504   0.976
 1980TIP3    H1 5881   4.842   7.411   0.957
 1980TIP3    H2 5882   4.764   7.533   0.913
 1981TIP3   OH2 5883   0.950   4.627   5.064
 1981TIP3    H1 5884   0.935   4.669   5.149
 1981TIP3    H2 5885   0.947   4.533   5.082
 1982TIP3   OH2 5886   0.821   0.040   4.482
 1982TIP3    H1 5887   0.878   0.114   4.465
 1982TIP3    H2 5888   0.867  -0.035   4.446
 1983TIP3   OH2 5889   1.996   3.387   2.394
 1983TIP3    H1 5890   2.061   3.457   2.397
 1983TIP3    H2 5891   1.933   3.410   2.462
 1984TIP3   OH2 5892   8.391   1.931   3.453
 1984TIP3    H1 5893   8.348   1.873   3.515
 1984TIP3    H2 5894   8.319   1.968   3.402
 1985TIP3   OH2 5895   8.183   6.731   2.880
 1985TIP3    H1 5896   8.117   6.680   2.927
 1985TIP3    H2 5897   8.140   6.760   2.800
 1986TIP3   OH2 5898   5.869   7.416   1.103
 1986TIP3    H1 5899   5.919   7.438   1.025
 1986TIP3    H2 5900   5.880   7.322   1.113
 1987TIP3   OH2 5901   2.891   0.920   0.661
 1987TIP3    H1 5902   2.849   0.917   0.575
 1987TIP3    H2 5903   2.820   0.943   0.721
 1988TIP3   OH2 5904   7.585   1.349   4.327
 1988TIP3    H1 5905   7.512   1.366   4.268
 1988TIP3    H2 5906   7.553   1.281   4.387
 1989TIP3   OH2 5907   0.968   5.297   4.289
 1989TIP3    H1 5908   0.910   5.321   4.362
 1989TIP3    H2 5909   1.046   5.262   4.332
 1990TIP3   OH2 5910   7.560   4.480   6.213
 1990TIP3    H1 5911   7.570   4.545   6.144
 1990TIP3    H2 5912   7.624   4.506   6.280
 1991TIP3   OH2 5913   1.291   3.450   0.660
 1991TIP3    H1 5914   1.366   3.398   0.630
 1991TIP3    H2 5915   1.278   3.423   0.751
 1992TIP3   OH2 5916   6.780   6.599   4.221
 1992TIP3    H1 5917   6.782   6.548   4.302
 1992TIP3    H2 5918   6.690   6.631   4.214
 1993TIP3   OH2 5919   7.030   3.138   1.876
 1993TIP3    H1 5920   7.009   3.230   1.889
 1993TIP3    H2 5921   7.111   3.124   1.924
 1994TIP3   OH2 5922   0.630   6.161   6.663
 1994TIP3    H1 5923   0.579   6.220   6.608
 1994TIP3    H2 5924   0.721   6.178   6.638
 1995TIP3   OH2 5925   0.395   2.219   0.294
 1995TIP3    H1 5926   0.326   2.285   0.295
 1995TIP3    H2 5927   0.378   2.166   0.372
 1996TIP3   OH2 5928   0.724   0.507   3.191
 1996TIP3    H1 5929   0.744   0.586   3.240
 1996TIP3    H2 5930   0.775   0.438   3.235
 1997TIP3   OH2 5931   6.304   4.734   4.781
 1997TIP3    H1 5932   6.313   4.711   4.874
 1997TIP3    H2 5933   6.221   4.694   4.755
 1998TIP3   OH2 5934   2.229   1.554   0.035
 1998TIP3    H1 5935   2.271   1.634   0.067
 1998TIP3    H2 5936   2.303   1.499   0.007
 1999TIP3   OH2 5937   7.249   4.078   1.107
 1999TIP3    H1 5938   7.334   4.050   1.071
 1999TIP3    H2 5939   7.234   4.165   1.070
 2000TIP3   OH2 5940   3.497   4.792   1.333
 2000TIP3    H1 5941   3.516   4.732   1.262
 2000TIP3    H2 5942   3.580   4.835   1.351
 2001TIP3   OH2 5943   2.860   6.135   2.238
 2001TIP3    H1 5944   2.903   6.090   2.311
 2001TIP3    H2 5945   2.926   6.137   2.169
 2002TIP3   OH2 5946   1.693   6.674   4.479
 2002TIP3    H1 5947   1.650   6.589   4.466
 2002TIP3    H2 5948   1.782   6.653   4.505
 2003TIP3   OH2 5949   6.661   0.863   4.404
 2003TIP3    H1 5950   6.566   0.850   4.399
 2003TIP3    H2 5951   6.690   0.798   4.469
 2004TIP3   OH2 5952   6.421   1.518   6.547
 2004TIP3    H1 5953   6.501   1.473   6.573
 2004TIP3    H2 5954   6.394   1.475   6.466
 2005TIP3   OH2 5955   6.185   1.677   5.745
 2005TIP3    H1 5956   6.265   1.715   5.782
 2005TIP3    H2 5957   6.175   1.721   5.661
 2006TIP3   OH2 5958   0.391   7.756   3.931
 2006TIP3    H1 5959   0.301   7.749   3.900
 2006TIP3    H2 5960   0.430   7.671   3.912
 2007TIP3   OH2 5961   4.243   1.079   6.331
 2007TIP3    H1 5962   4.206   1.085   6.243
 2007TIP3    H2 5963   4.291   0.996   6.331
 2008TIP3   OH2 5964   0.781   7.318   2.106
 2008TIP3    H1 5965   0.750   7.329   2.016
 2008TIP3    H2 5966   0.797   7.224   2.114
 2009TIP3   OH2 5967   5.274   2.161   0.503
 2009TIP3    H1 5968   5.309   2.097   0.441
 2009TIP3    H2 5969   5.184   2.133   0.518
 2010TIP3   OH2 5970   4.237   3.571   1.721
 2010TIP3    H1 5971   4.326   3.544   1.744
 2010TIP3    H2 5972   4.202   3.609   1.801
 2011TIP3   OH2 5973   4.741   7.448   2.234
 2011TIP3    H1 5974   4.649   7.475   2.238
 2011TIP3    H2 5975   4.771   7.477   2.148
 2012TIP3   OH2 5976   5.201   7.710   2.871
 2012TIP3    H1 5977   5.210   7.651   2.946
 2012TIP3    H2 5978   5.186   7.653   2.796
 2013TIP3   OH2 5979   2.256   5.957   2.229
 2013TIP3    H1 5980   2.336   5.959   2.176
 2013TIP3    H2 5981   2.187   5.934   2.166
 2014TIP3   OH2 5982   3.219   0.232   6.739
 2014TIP3    H1 5983   3.190   0.295   6.673
 2014TIP3    H2 5984   3.261   0.162   6.690
 2015TIP3   OH2 5985   0.123   5.761   4.396
 2015TIP3    H1 5986   0.064   5.815   4.448
 2015TIP3    H2 5987   0.094   5.672   4.412
 2016TIP3   OH2 5988   3.083   1.611   0.376
 2016TIP3    H1 5989   3.008   1.578   0.325
 2016TIP3    H2 5990   3.043   1.668   0.442
 2017TIP3   OH2 5991   0.957   1.945   1.821
 2017TIP3    H1 5992   1.025   1.977   1.761
 2017TIP3    H2 5993   0.969   1.997   1.900
 2018TIP3   OH2 5994   2.617   5.412   2.082
 2018TIP3    H1 5995   2.685   5.469   2.047
 2018TIP3    H2 5996   2.579   5.462   2.154
 2019TIP3   OH2 5997   3.295   5.896   6.660
 2019TIP3    H1 5998   3.340   5.958   6.716
 2019TIP3    H2 5999   3.219   5.944   6.626
 2020TIP3   OH2 6000   2.864   7.349   5.211
 2020TIP3    H1 6001   2.810   7.339   5.133
 2020TIP3    H2 6002   2.811   7.314   5.282
 2021TIP3   OH2 6003   1.156   0.214   6.130
 2021TIP3    H1 6004   1.160   0.301   6.090
 2021TIP3    H2 6005   1.063   0.192   6.131
 2022TIP3   OH2 6006   1.670   2.673   3.140
 2022TIP3    H1 6007   1.741   2.609   3.129
 2022TIP3    H2 6008   1.701   2.751   3.094
 2023TIP3   OH2 6009   0.702   2.202   5.092
 2023TIP3    H1 6010   0.627   2.182   5.147
 2023TIP3    H2 6011   0.705   2.130   5.028
 2024TIP3   OH2 6012   7.452   0.078   4.829
 2024TIP3    H1 6013   7.515   0.146   4.852
 2024TIP3    H2 6014   7.398   0.068   4.907
 2025TIP3   OH2 6015   7.045   6.458   2.724
 2025TIP3    H1 6016   7.024   6.501   2.807
 2025TIP3    H2 6017   6.961   6.422   2.694
 2026TIP3   OH2 6018   0.250   3.448   6.718
 2026TIP3    H1 6019   0.188   3.480   6.784
 2026TIP3    H2 6020   0.323   3.509   6.722
 2027TIP3   OH2 6021   5.638   0.462   5.588
 2027TIP3    H1 6022   5.627   0.461   5.493
 2027TIP3    H2 6023   5.709   0.400   5.605
 2028TIP3   OH2 6024   8.032   1.073   0.896
 2028TIP3    H1 6025   8.127   1.064   0.897
 2028TIP3    H2 6026   8.014   1.142   0.959
 2029TIP3   OH2 6027   0.868   5.872   2.274
 2029TIP3    H1 6028   0.817   5.822   2.211
 2029TIP3    H2 6029   0.816   5.951   2.289
 2030TIP3   OH2 6030   4.058   2.461   1.393
 2030TIP3    H1 6031   3.973   2.501   1.375
 2030TIP3    H2 6032   4.083   2.497   1.479
 2031TIP3   OH2 6033   2.001   5.158   3.427
 2031TIP3    H1 6034   2.065   5.153   3.498
 2031TIP3    H2 6035   1.944   5.082   3.440
 2032TIP3   OH2 6036   2.999   6.016   0.624
 2032TIP3    H1 6037   3.047   5.988   0.702
 2032TIP3    H2 6038   2.968   5.935   0.584
 2033TIP3   OH2 6039   5.688   2.894   3.552
 2033TIP3    H1 6040   5.672   2.808   3.512
 2033TIP3    H2 6041   5.649   2.956   3.491
 2034TIP3   OH2 6042   6.360   1.714   3.979
 2034TIP3    H1 6043   6.377   1.782   4.044
 2034TIP3    H2 6044   6.388   1.752   3.896
 2035TIP3   OH2 6045   3.067   7.437   1.521
 2035TIP3    H1 6046   3.059   7.478   1.434
 2035TIP3    H2 6047   2.993   7.473   1.570
 2036TIP3   OH2 6048   8.455   2.184   5.019
 2036TIP3    H1 6049   8.381   2.123   5.026
 2036TIP3    H2 6050   8.427   2.262   5.066
 2037TIP3   OH2 6051   3.957   2.054   0.759
 2037TIP3    H1 6052   3.887   2.118   0.762
 2037TIP3    H2 6053   3.944   2.000   0.837
 2038TIP3   OH2 6054   5.569   7.810   6.620
 2038TIP3    H1 6055   5.512   7.740   6.651
 2038TIP3    H2 6056   5.526   7.843   6.541
 2039TIP3   OH2 6057   2.791   7.411   2.297
 2039TIP3    H1 6058   2.733   7.357   2.244
 2039TIP3    H2 6059   2.800   7.493   2.247
 2040TIP3   OH2 6060   8.023   6.037   3.120
 2040TIP3    H1 6061   8.064   6.096   3.183
 2040TIP3    H2 6062   8.087   6.031   3.049
 2041TIP3   OH2 6063   8.084   0.752   4.573
 2041TIP3    H1 6064   8.041   0.795   4.499
 2041TIP3    H2 6065   8.171   0.791   4.576
 2042TIP3   OH2 6066   5.999   7.411   6.354
 2042TIP3    H1 6067   5.952   7.494   6.350
 2042TIP3    H2 6068   5.930   7.345   6.344
 2043TIP3   OH2 6069   6.500   1.319   4.110
 2043TIP3    H1 6070   6.518   1.399   4.061
 2043TIP3    H2 6071   6.479   1.349   4.199
 2044TIP3   OH2 6072   7.522   5.238   6.253
 2044TIP3    H1 6073   7.444   5.282   6.218
 2044TIP3    H2 6074   7.587   5.245   6.182
 2045TIP3   OH2 6075   4.184   4.228   1.822
 2045TIP3    H1 6076   4.224   4.208   1.906
 2045TIP3    H2 6077   4.092   4.204   1.832
 2046TIP3   OH2 6078   6.591   5.260   2.748
 2046TIP3    H1 6079   6.608   5.323   2.678
 2046TIP3    H2 6080   6.667   5.201   2.747
 2047TIP3   OH2 6081   6.836   5.652   1.049
 2047TIP3    H1 6082   6.793   5.720   0.998
 2047TIP3    H2 6083   6.851   5.693   1.135
 2048TIP3   OH2 6084   7.944   3.131   4.517
 2048TIP3    H1 6085   7.922   3.202   4.577
 2048TIP3    H2 6086   8.039   3.119   4.528
 2049TIP3   OH2 6087   2.938   4.978   0.351
 2049TIP3    H1 6088   2.912   5.009   0.438
 2049TIP3    H2 6089   3.026   5.015   0.338
 2050TIP3   OH2 6090   0.757   2.709   3.719
 2050TIP3    H1 6091   0.775   2.647   3.790
 2050TIP3    H2 6092   0.823   2.777   3.730
 2051TIP3   OH2 6093   7.579   6.503   4.870
 2051TIP3    H1 6094   7.662   6.467   4.838
 2051TIP3    H2 6095   7.556   6.571   4.807
 2052TIP3   OH2 6096   4.133   0.215   3.224
 2052TIP3    H1 6097   4.109   0.147   3.162
 2052TIP3    H2 6098   4.227   0.225   3.215
 2053TIP3   OH2 6099   2.683   1.734   4.379
 2053TIP3    H1 6100   2.624   1.771   4.313
 2053TIP3    H2 6101   2.630   1.730   4.459
 2054TIP3   OH2 6102   0.507   0.663   4.976
 2054TIP3    H1 6103   0.484   0.586   4.924
 2054TIP3    H2 6104   0.523   0.732   4.912
 2055TIP3   OH2 6105   1.810   2.853   1.606
 2055TIP3    H1 6106   1.840   2.775   1.652
 2055TIP3    H2 6107   1.802   2.827   1.515
 2056TIP3   OH2 6108   7.902   0.097   6.797
 2056TIP3    H1 6109   7.868   0.026   6.852
 2056TIP3    H2 6110   7.981   0.061   6.758
 2057TIP3   OH2 6111   7.330   1.678   3.218
 2057TIP3    H1 6112   7.344   1.742   3.149
 2057TIP3    H2 6113   7.263   1.718   3.275
 2058TIP3   OH2 6114   0.376   5.834   2.856
 2058TIP3    H1 6115   0.442   5.765   2.850
 2058TIP3    H2 6116   0.392   5.875   2.941
 2059TIP3   OH2 6117   7.096   1.706   5.560
 2059TIP3    H1 6118   7.053   1.663   5.634
 2059TIP3    H2 6119   7.038   1.689   5.485
 2060TIP3   OH2 6120   5.883   4.957   2.158
 2060TIP3    H1 6121   5.794   4.963   2.124
 2060TIP3    H2 6122   5.929   5.030   2.117
 2061TIP3   OH2 6123   1.469   7.328   6.198
 2061TIP3    H1 6124   1.410   7.282   6.139
 2061TIP3    H2 6125   1.496   7.262   6.261
 2062TIP3   OH2 6126   4.725   6.887   4.906
 2062TIP3    H1 6127   4.788   6.824   4.942
 2062TIP3    H2 6128   4.733   6.964   4.963
 2063TIP3   OH2 6129   4.522   0.427   1.892
 2063TIP3    H1 6130   4.499   0.375   1.815
 2063TIP3    H2 6131   4.506   0.518   1.865
 2064TIP3   OH2 6132   3.612   4.781   3.082
 2064TIP3    H1 6133   3.645   4.715   3.144
 2064TIP3    H2 6134   3.637   4.747   2.996
 2065TIP3   OH2 6135   4.353   4.424   2.240
 2065TIP3    H1 6136   4.413   4.496   2.218
 2065TIP3    H2 6137   4.405   4.367   2.297
 2066TIP3   OH2 6138   0.340   6.686   0.866
 2066TIP3    H1 6139   0.281   6.642   0.927
 2066TIP3    H2 6140   0.333   6.636   0.785
 2067TIP3   OH2 6141   7.897   2.321   0.146
 2067TIP3    H1 6142   7.838   2.285   0.080
 2067TIP3    H2 6143   7.951   2.384   0.099
 2068TIP3   OH2 6144   0.310   5.669   5.771
 2068TIP3    H1 6145   0.278   5.580   5.783
 2068TIP3    H2 6146   0.322   5.702   5.860
 2069TIP3   OH2 6147   0.388   7.656   6.532
 2069TIP3    H1 6148   0.389   7.644   6.437
 2069TIP3    H2 6149   0.312   7.711   6.548
 2070TIP3   OH2 6150   4.902   4.411   4.139
 2070TIP3    H1 6151   4.840   4.380   4.073
 2070TIP3    H2 6152   4.849   4.430   4.216
 2071TIP3   OH2 6153   4.001   1.643   4.565
 2071TIP3    H1 6154   3.966   1.638   4.476
 2071TIP3    H2 6155   3.942   1.703   4.610
 2072TIP3   OH2 6156   3.872   6.551   1.935
 2072TIP3    H1 6157   3.837   6.635   1.906
 2072TIP3    H2 6158   3.799   6.509   1.981
 2073TIP3   OH2 6159   2.002   2.206   6.155
 2073TIP3    H1 6160   1.912   2.200   6.123
 2073TIP3    H2 6161   1.993   2.216   6.250
 2074TIP3   OH2 6162   4.081   3.105   6.465
 2074TIP3    H1 6163   4.005   3.074   6.416
 2074TIP3    H2 6164   4.090   3.043   6.537
 2075TIP3   OH2 6165   7.517   2.007   0.261
 2075TIP3    H1 6166   7.523   1.921   0.303
 2075TIP3    H2 6167   7.434   2.043   0.292
 2076TIP3   OH2 6168   6.225   7.157   1.544
 2076TIP3    H1 6169   6.299   7.100   1.520
 2076TIP3    H2 6170   6.257   7.207   1.618
 2077TIP3   OH2 6171   1.683   7.268   3.907
 2077TIP3    H1 6172   1.763   7.222   3.932
 2077TIP3    H2 6173   1.614   7.202   3.915
 2078TIP3   OH2 6174   3.194   7.039   6.579
 2078TIP3    H1 6175   3.161   6.956   6.546
 2078TIP3    H2 6176   3.162   7.105   6.517
 2079TIP3   OH2 6177   6.677   6.444   6.304
 2079TIP3    H1 6178   6.626   6.518   6.271
 2079TIP3    H2 6179   6.612   6.387   6.345
 2080TIP3   OH2 6180   7.566   0.551   4.276
 2080TIP3    H1 6181   7.498   0.496   4.238
 2080TIP3    H2 6182   7.602   0.600   4.202
 2081TIP3   OH2 6183   0.426   0.477   4.792
 2081TIP3    H1 6184   0.352   0.532   4.766
 2081TIP3    H2 6185   0.437   0.415   4.720
 2082TIP3   OH2 6186   6.272   1.438   5.878
 2082TIP3    H1 6187   6.357   1.411   5.911
 2082TIP3    H2 6188   6.290   1.516   5.825
 2083TIP3   OH2 6189   2.706   5.685   3.529
 2083TIP3    H1 6190   2.681   5.776   3.544
 2083TIP3    H2 6191   2.801   5.684   3.539
 2084TIP3   OH2 6192   5.437   0.369   0.278
 2084TIP3    H1 6193   5.392   0.315   0.343
 2084TIP3    H2 6194   5.460   0.309   0.208
 2085TIP3   OH2 6195   6.196   3.889   2.089
 2085TIP3    H1 6196   6.290   3.908   2.078
 2085TIP3    H2 6197   6.182   3.810   2.037
 2086TIP3   OH2 6198   0.204   1.102   6.805
 2086TIP3    H1 6199   0.113   1.121   6.826
 2086TIP3    H2 6200   0.209   1.007   6.799
 2087TIP3   OH2 6201   4.373   2.206   3.945
 2087TIP3    H1 6202   4.412   2.221   3.859
 2087TIP3    H2 6203   4.376   2.292   3.988
 2088TIP3   OH2 6204   1.916   3.632   3.278
 2088TIP3    H1 6205   1.990   3.588   3.319
 2088TIP3    H2 6206   1.905   3.587   3.194
 2089TIP3   OH2 6207   1.678   6.894   2.008
 2089TIP3    H1 6208   1.655   6.861   1.921
 2089TIP3    H2 6209   1.676   6.989   1.999
 2090TIP3   OH2 6210   3.098   6.147   6.229
 2090TIP3    H1 6211   3.124   6.060   6.259
 2090TIP3    H2 6212   3.005   6.153   6.254
 2091TIP3   OH2 6213   1.275   3.167   0.553
 2091TIP3    H1 6214   1.187   3.169   0.591
 2091TIP3    H2 6215   1.261   3.177   0.459
 2092TIP3   OH2 6216   1.702   3.446   5.212
 2092TIP3    H1 6217   1.610   3.422   5.216
 2092TIP3    H2 6218   1.715   3.507   5.284
 2093TIP3   OH2 6219   1.847   4.083   2.474
 2093TIP3    H1 6220   1.771   4.141   2.474
 2093TIP3    H2 6221   1.897   4.109   2.551
 2094TIP3   OH2 6222   6.720   0.934   3.113
 2094TIP3    H1 6223   6.722   0.838   3.108
 2094TIP3    H2 6224   6.750   0.954   3.202
 2095TIP3   OH2 6225   0.342   2.633   3.610
 2095TIP3    H1 6226   0.377   2.706   3.559
 2095TIP3    H2 6227   0.332   2.668   3.699
 2096TIP3   OH2 6228   7.875   5.851   3.631
 2096TIP3    H1 6229   7.946   5.910   3.604
 2096TIP3    H2 6230   7.795   5.898   3.608
 2097TIP3   OH2 6231   0.068   1.536   6.488
 2097TIP3    H1 6232   0.080   1.629   6.503
 2097TIP3    H2 6233   0.090   1.523   6.396
 2098TIP3   OH2 6234   6.240   1.998   1.015
 2098TIP3    H1 6235   6.323   1.956   0.992
 2098TIP3    H2 6236   6.185   1.927   1.046
 2099TIP3   OH2 6237   5.121   3.436   0.912
 2099TIP3    H1 6238   5.042   3.416   0.863
 2099TIP3    H2 6239   5.154   3.517   0.873
 2100TIP3   OH2 6240   3.865   2.213   5.885
 2100TIP3    H1 6241   3.834   2.126   5.906
 2100TIP3    H2 6242   3.961   2.204   5.883
 2101TIP3   OH2 6243   3.488   2.136   4.751
 2101TIP3    H1 6244   3.437   2.123   4.831
 2101TIP3    H2 6245   3.428   2.182   4.692
 2102TIP3   OH2 6246   2.773   3.388   2.774
 2102TIP3    H1 6247   2.689   3.343   2.776
 2102TIP3    H2 6248   2.825   3.338   2.710
 2103TIP3   OH2 6249   4.837   4.673   1.668
 2103TIP3    H1 6250   4.808   4.589   1.703
 2103TIP3    H2 6251   4.850   4.656   1.575
 2104TIP3   OH2 6252   2.337   3.169   1.013
 2104TIP3    H1 6253   2.267   3.229   1.039
 2104TIP3    H2 6254   2.304   3.082   1.034
 2105TIP3   OH2 6255   6.847   6.803   6.498
 2105TIP3    H1 6256   6.804   6.820   6.582
 2105TIP3    H2 6257   6.879   6.713   6.505
 2106TIP3   OH2 6258   8.129   3.929   2.598
 2106TIP3    H1 6259   8.137   3.921   2.503
 2106TIP3    H2 6260   8.035   3.930   2.615
 2107TIP3   OH2 6261   7.704   0.778   5.495
 2107TIP3    H1 6262   7.677   0.689   5.472
 2107TIP3    H2 6263   7.763   0.804   5.425
 2108TIP3   OH2 6264   4.705   3.956   5.517
 2108TIP3    H1 6265   4.755   3.918   5.445
 2108TIP3    H2 6266   4.617   3.968   5.482
 2109TIP3   OH2 6267   6.804   0.408   5.123
 2109TIP3    H1 6268   6.824   0.334   5.181
 2109TIP3    H2 6269   6.710   0.402   5.108
 2110TIP3   OH2 6270   1.873   3.724   5.624
 2110TIP3    H1 6271   1.854   3.763   5.710
 2110TIP3    H2 6272   1.968   3.717   5.622
 2111TIP3   OH2 6273   4.947   6.644   3.243
 2111TIP3    H1 6274   4.853   6.660   3.236
 2111TIP3    H2 6275   4.960   6.559   3.201
 2112TIP3   OH2 6276   4.134   5.144   3.211
 2112TIP3    H1 6277   4.166   5.234   3.206
 2112TIP3    H2 6278   4.063   5.147   3.275
 2113TIP3   OH2 6279   7.449   5.449   1.230
 2113TIP3    H1 6280   7.465   5.443   1.136
 2113TIP3    H2 6281   7.536   5.452   1.268
 2114TIP3   OH2 6282   7.915   4.756   0.426
 2114TIP3    H1 6283   7.960   4.702   0.490
 2114TIP3    H2 6284   7.960   4.841   0.429
 2115TIP3   OH2 6285   7.502   4.014   4.276
 2115TIP3    H1 6286   7.550   3.950   4.328
 2115TIP3    H2 6287   7.528   4.099   4.313
 2116TIP3   OH2 6288   8.302   0.884   4.643
 2116TIP3    H1 6289   8.354   0.856   4.718
 2116TIP3    H2 6290   8.270   0.971   4.668
 2117TIP3   OH2 6291   7.458   3.981   0.945
 2117TIP3    H1 6292   7.419   3.936   0.870
 2117TIP3    H2 6293   7.522   4.040   0.907
 2118TIP3   OH2 6294   2.142   2.616   3.494
 2118TIP3    H1 6295   2.073   2.583   3.551
 2118TIP3    H2 6296   2.201   2.664   3.553
 2119TIP3   OH2 6297   2.326   0.856   4.959
 2119TIP3    H1 6298   2.386   0.814   4.898
 2119TIP3    H2 6299   2.367   0.941   4.977
 2120TIP3   OH2 6300   5.638   6.343   5.243
 2120TIP3    H1 6301   5.602   6.311   5.160
 2120TIP3    H2 6302   5.576   6.408   5.273
 2121TIP3   OH2 6303   3.283   6.371   1.766
 2121TIP3    H1 6304   3.368   6.351   1.807
 2121TIP3    H2 6305   3.246   6.440   1.820
 2122TIP3   OH2 6306   2.670   0.462   6.596
 2122TIP3    H1 6307   2.646   0.371   6.579
 2122TIP3    H2 6308   2.733   0.484   6.528
 2123TIP3   OH2 6309   5.043   5.935   5.476
 2123TIP3    H1 6310   5.129   5.963   5.508
 2123TIP3    H2 6311   4.980   5.984   5.529
 2124TIP3   OH2 6312   0.549   7.495   4.465
 2124TIP3    H1 6313   0.554   7.482   4.370
 2124TIP3    H2 6314   0.456   7.484   4.485
 2125TIP3   OH2 6315   3.738   2.265   2.453
 2125TIP3    H1 6316   3.704   2.353   2.437
 2125TIP3    H2 6317   3.811   2.256   2.391
 2126TIP3   OH2 6318   2.323   3.783   1.511
 2126TIP3    H1 6319   2.239   3.806   1.472
 2126TIP3    H2 6320   2.325   3.830   1.594
 2127TIP3   OH2 6321   7.150   4.882   3.587
 2127TIP3    H1 6322   7.121   4.912   3.500
 2127TIP3    H2 6323   7.245   4.892   3.585
 2128TIP3   OH2 6324   3.298   7.519   1.109
 2128TIP3    H1 6325   3.358   7.499   1.036
 2128TIP3    H2 6326   3.315   7.611   1.129
 2129TIP3   OH2 6327   4.194   4.847   1.008
 2129TIP3    H1 6328   4.196   4.793   1.087
 2129TIP3    H2 6329   4.207   4.785   0.936
 2130TIP3   OH2 6330   0.448   6.648   2.890
 2130TIP3    H1 6331   0.394   6.712   2.843
 2130TIP3    H2 6332   0.536   6.685   2.887
 2131TIP3   OH2 6333   6.837   3.080   4.683
 2131TIP3    H1 6334   6.857   3.168   4.650
 2131TIP3    H2 6335   6.921   3.035   4.683
 2132TIP3   OH2 6336   7.291   1.426   6.536
 2132TIP3    H1 6337   7.257   1.486   6.602
 2132TIP3    H2 6338   7.215   1.406   6.481
 2133TIP3   OH2 6339   1.034   0.179   4.365
 2133TIP3    H1 6340   1.044   0.140   4.279
 2133TIP3    H2 6341   1.091   0.127   4.422
 2134TIP3   OH2 6342   1.493   0.601   2.840
 2134TIP3    H1 6343   1.496   0.692   2.872
 2134TIP3    H2 6344   1.583   0.570   2.850
 2135TIP3   OH2 6345   4.883   0.140   4.135
 2135TIP3    H1 6346   4.971   0.129   4.100
 2135TIP3    H2 6347   4.829   0.077   4.087
 2136TIP3   OH2 6348   4.922   4.084   3.836
 2136TIP3    H1 6349   4.962   4.040   3.911
 2136TIP3    H2 6350   4.883   4.164   3.873
 2137TIP3   OH2 6351   5.783   6.563   0.821
 2137TIP3    H1 6352   5.854   6.618   0.853
 2137TIP3    H2 6353   5.806   6.544   0.730
 2138TIP3   OH2 6354   6.428   5.860   1.456
 2138TIP3    H1 6355   6.389   5.943   1.485
 2138TIP3    H2 6356   6.403   5.797   1.524
 2139TIP3   OH2 6357   1.529   6.225   6.367
 2139TIP3    H1 6358   1.463   6.159   6.386
 2139TIP3    H2 6359   1.542   6.220   6.273
 2140TIP3   OH2 6360   2.647   5.718   5.322
 2140TIP3    H1 6361   2.628   5.775   5.396
 2140TIP3    H2 6362   2.563   5.705   5.279
 2141TIP3   OH2 6363   3.620   0.559   6.009
 2141TIP3    H1 6364   3.550   0.515   5.961
 2141TIP3    H2 6365   3.648   0.496   6.075
 2142TIP3   OH2 6366   5.669   2.114   1.845
 2142TIP3    H1 6367   5.652   2.026   1.812
 2142TIP3    H2 6368   5.693   2.102   1.937
 2143TIP3   OH2 6369   0.487   3.845   2.528
 2143TIP3    H1 6370   0.576   3.854   2.494
 2143TIP3    H2 6371   0.434   3.899   2.470
 2144TIP3   OH2 6372   3.152   5.467   0.646
 2144TIP3    H1 6373   3.135   5.379   0.679
 2144TIP3    H2 6374   3.169   5.519   0.724
 2145TIP3   OH2 6375   1.553   7.133   1.962
 2145TIP3    H1 6376   1.520   7.171   2.043
 2145TIP3    H2 6377   1.583   7.208   1.910
 2146TIP3   OH2 6378   6.867   0.917   1.088
 2146TIP3    H1 6379   6.962   0.918   1.083
 2146TIP3    H2 6380   6.848   0.884   1.176
 2147TIP3   OH2 6381   4.580   7.477   1.880
 2147TIP3    H1 6382   4.497   7.509   1.915
 2147TIP3    H2 6383   4.639   7.553   1.884
 2148TIP3   OH2 6384   7.222   4.364   5.147
 2148TIP3    H1 6385   7.162   4.434   5.173
 2148TIP3    H2 6386   7.266   4.339   5.228
 2149TIP3   OH2 6387   1.313   0.565   3.418
 2149TIP3    H1 6388   1.231   0.516   3.420
 2149TIP3    H2 6389   1.304   0.628   3.489
 2150TIP3   OH2 6390   0.491   7.274   1.270
 2150TIP3    H1 6391   0.410   7.286   1.320
 2150TIP3    H2 6392   0.465   7.288   1.179
 2151TIP3   OH2 6393   7.631   1.152   6.075
 2151TIP3    H1 6394   7.623   1.076   6.132
 2151TIP3    H2 6395   7.702   1.129   6.014
 2152TIP3   OH2 6396   2.075   7.835   3.652
 2152TIP3    H1 6397   2.010   7.775   3.687
 2152TIP3    H2 6398   2.158   7.787   3.657
 2153TIP3   OH2 6399   2.845   2.090   1.894
 2153TIP3    H1 6400   2.813   2.042   1.971
 2153TIP3    H2 6401   2.769   2.142   1.866
 2154TIP3   OH2 6402   3.659   7.325   0.481
 2154TIP3    H1 6403   3.645   7.389   0.550
 2154TIP3    H2 6404   3.726   7.363   0.425
 2155TIP3   OH2 6405   8.181   4.390   0.501
 2155TIP3    H1 6406   8.098   4.420   0.538
 2155TIP3    H2 6407   8.206   4.314   0.555
 2156TIP3   OH2 6408   6.645   2.851   2.360
 2156TIP3    H1 6409   6.595   2.859   2.441
 2156TIP3    H2 6410   6.677   2.939   2.343
 2157TIP3   OH2 6411   7.604   0.758   1.080
 2157TIP3    H1 6412   7.688   0.713   1.088
 2157TIP3    H2 6413   7.626   0.845   1.048
 2158TIP3   OH2 6414   3.819   1.945   5.986
 2158TIP3    H1 6415   3.759   1.902   6.047
 2158TIP3    H2 6416   3.866   1.874   5.943
 2159TIP3   OH2 6417   0.658   3.934   4.275
 2159TIP3    H1 6418   0.669   3.858   4.333
 2159TIP3    H2 6419   0.661   4.009   4.334
 2160TIP3   OH2 6420   4.767   6.354   4.736
 2160TIP3    H1 6421   4.800   6.299   4.807
 2160TIP3    H2 6422   4.675   6.328   4.727
 2161TIP3   OH2 6423   1.991   3.460   3.932
 2161TIP3    H1 6424   2.018   3.444   3.841
 2161TIP3    H2 6425   1.963   3.374   3.963
 2162TIP3   OH2 6426   2.993   1.588   6.551
 2162TIP3    H1 6427   2.964   1.630   6.470
 2162TIP3    H2 6428   3.045   1.656   6.595
 2163TIP3   OH2 6429   7.617   5.859   6.451
 2163TIP3    H1 6430   7.682   5.810   6.501
 2163TIP3    H2 6431   7.541   5.801   6.447
 2164TIP3   OH2 6432   0.218   3.998   2.976
 2164TIP3    H1 6433   0.202   4.001   3.070
 2164TIP3    H2 6434   0.282   4.067   2.959
 2165TIP3   OH2 6435   2.248   2.023   0.588
 2165TIP3    H1 6436   2.278   2.040   0.677
 2165TIP3    H2 6437   2.236   1.928   0.584
 2166TIP3   OH2 6438   2.891   7.476   3.890
 2166TIP3    H1 6439   2.830   7.547   3.910
 2166TIP3    H2 6440   2.967   7.519   3.851
 2167TIP3   OH2 6441   5.601   4.358   5.864
 2167TIP3    H1 6442   5.541   4.366   5.938
 2167TIP3    H2 6443   5.668   4.424   5.880
 2168TIP3   OH2 6444   6.238   2.160   2.607
 2168TIP3    H1 6445   6.285   2.096   2.554
 2168TIP3    H2 6446   6.160   2.114   2.637
 2169TIP3   OH2 6447   6.216   5.199   4.833
 2169TIP3    H1 6448   6.264   5.154   4.764
 2169TIP3    H2 6449   6.159   5.261   4.787
 2170TIP3   OH2 6450   7.772   2.610   0.376
 2170TIP3    H1 6451   7.786   2.689   0.324
 2170TIP3    H2 6452   7.853   2.598   0.425
 2171TIP3   OH2 6453   0.610   3.674   1.445
 2171TIP3    H1 6454   0.597   3.592   1.493
 2171TIP3    H2 6455   0.661   3.650   1.368
 2172TIP3   OH2 6456   3.081   3.662   4.014
 2172TIP3    H1 6457   3.040   3.741   4.050
 2172TIP3    H2 6458   3.007   3.606   3.991
 2173TIP3   OH2 6459   7.885   5.391   1.137
 2173TIP3    H1 6460   7.853   5.325   1.199
 2173TIP3    H2 6461   7.841   5.369   1.054
 2174TIP3   OH2 6462   6.290   6.278   3.813
 2174TIP3    H1 6463   6.275   6.266   3.907
 2174TIP3    H2 6464   6.208   6.249   3.773
 2175TIP3   OH2 6465   5.110   3.783   0.573
 2175TIP3    H1 6466   5.181   3.843   0.550
 2175TIP3    H2 6467   5.144   3.735   0.649
 2176TIP3   OH2 6468   5.713   4.392   1.441
 2176TIP3    H1 6469   5.669   4.418   1.522
 2176TIP3    H2 6470   5.662   4.318   1.409
 2177TIP3   OH2 6471   6.156   1.116   4.086
 2177TIP3    H1 6472   6.108   1.171   4.149
 2177TIP3    H2 6473   6.152   1.165   4.004
 2178TIP3   OH2 6474   4.873   7.373   5.918
 2178TIP3    H1 6475   4.778   7.368   5.932
 2178TIP3    H2 6476   4.883   7.402   5.828
 2179TIP3   OH2 6477   3.779   2.255   0.750
 2179TIP3    H1 6478   3.799   2.315   0.822
 2179TIP3    H2 6479   3.683   2.260   0.741
 2180TIP3   OH2 6480   4.066   0.006   3.047
 2180TIP3    H1 6481   4.138  -0.023   2.991
 2180TIP3    H2 6482   4.002  -0.065   3.043
 2181TIP3   OH2 6483   5.006   6.241   0.700
 2181TIP3    H1 6484   4.992   6.335   0.688
 2181TIP3    H2 6485   5.061   6.236   0.778
 2182TIP3   OH2 6486   7.390   0.935   3.750
 2182TIP3    H1 6487   7.372   0.917   3.842
 2182TIP3    H2 6488   7.317   0.896   3.703
 2183TIP3   OH2 6489   4.481   2.897   2.781
 2183TIP3    H1 6490   4.504   2.964   2.717
 2183TIP3    H2 6491   4.562   2.880   2.829
 2184TIP3   OH2 6492   2.111   4.160   2.644
 2184TIP3    H1 6493   2.124   4.212   2.723
 2184TIP3    H2 6494   2.161   4.080   2.659
 2185TIP3   OH2 6495   5.720   4.750   1.881
 2185TIP3    H1 6496   5.725   4.658   1.907
 2185TIP3    H2 6497   5.753   4.751   1.792
 2186TIP3   OH2 6498   1.176   6.890   2.204
 2186TIP3    H1 6499   1.263   6.863   2.173
 2186TIP3    H2 6500   1.166   6.979   2.172
 2187TIP3   OH2 6501   3.224   5.167   4.130
 2187TIP3    H1 6502   3.139   5.210   4.121
 2187TIP3    H2 6503   3.264   5.209   4.206
 2188TIP3   OH2 6504   1.754   0.893   5.782
 2188TIP3    H1 6505   1.731   0.802   5.804
 2188TIP3    H2 6506   1.720   0.906   5.694
 2189TIP3   OH2 6507   6.231   0.910   1.881
 2189TIP3    H1 6508   6.232   0.823   1.841
 2189TIP3    H2 6509   6.146   0.947   1.858
 2190TIP3   OH2 6510   1.729   4.518   5.074
 2190TIP3    H1 6511   1.685   4.433   5.079
 2190TIP3    H2 6512   1.798   4.513   5.140
 2191TIP3   OH2 6513   8.185   5.900   3.578
 2191TIP3    H1 6514   8.243   5.878   3.650
 2191TIP3    H2 6515   8.139   5.979   3.607
 2192TIP3   OH2 6516   4.363   0.680   2.648
 2192TIP3    H1 6517   4.345   0.629   2.569
 2192TIP3    H2 6518   4.458   0.678   2.658
 2193TIP3   OH2 6519   6.517   6.173   1.102
 2193TIP3    H1 6520   6.599   6.127   1.122
 2193TIP3    H2 6521   6.518   6.248   1.162
 2194TIP3   OH2 6522   6.688   1.812   5.679
 2194TIP3    H1 6523   6.755   1.843   5.740
 2194TIP3    H2 6524   6.726   1.734   5.639
 2195TIP3   OH2 6525   2.960   6.404   0.535
 2195TIP3    H1 6526   2.960   6.393   0.630
 2195TIP3    H2 6527   3.020   6.337   0.503
 2196TIP3   OH2 6528   3.517   1.465   5.443
 2196TIP3    H1 6529   3.437   1.413   5.438
 2196TIP3    H2 6530   3.576   1.413   5.498
 2197TIP3   OH2 6531   4.515   1.534   1.470
 2197TIP3    H1 6532   4.473   1.495   1.393
 2197TIP3    H2 6533   4.486   1.479   1.543
 2198TIP3   OH2 6534   4.060   2.395   2.052
 2198TIP3    H1 6535   4.149   2.361   2.062
 2198TIP3    H2 6536   4.046   2.397   1.957
 2199TIP3   OH2 6537   2.293   0.284   6.140
 2199TIP3    H1 6538   2.365   0.255   6.083
 2199TIP3    H2 6539   2.290   0.379   6.129
 2200TIP3   OH2 6540   5.449   0.665   5.081
 2200TIP3    H1 6541   5.355   0.655   5.066
 2200TIP3    H2 6542   5.457   0.696   5.171
 2201TIP3   OH2 6543   6.768   1.662   1.726
 2201TIP3    H1 6544   6.810   1.623   1.650
 2201TIP3    H2 6545   6.798   1.610   1.801
 2202TIP3   OH2 6546   7.965   6.339   3.895
 2202TIP3    H1 6547   7.976   6.420   3.945
 2202TIP3    H2 6548   7.954   6.368   3.804
 2203TIP3   OH2 6549   3.226   1.593   5.483
 2203TIP3    H1 6550   3.214   1.533   5.409
 2203TIP3    H2 6551   3.154   1.573   5.542
 2204TIP3   OH2 6552   6.153   6.075   5.521
 2204TIP3    H1 6553   6.243   6.108   5.525
 2204TIP3    H2 6554   6.103   6.137   5.575
 2205TIP3   OH2 6555   5.440   3.153   2.480
 2205TIP3    H1 6556   5.501   3.218   2.445
 2205TIP3    H2 6557   5.483   3.117   2.557
 2206TIP3   OH2 6558   6.459   7.429   3.265
 2206TIP3    H1 6559   6.393   7.380   3.216
 2206TIP3    H2 6560   6.501   7.364   3.321
 2207TIP3   OH2 6561   2.993   0.008   0.818
 2207TIP3    H1 6562   2.930   0.015   0.889
 2207TIP3    H2 6563   2.943  -0.026   0.744
 2208TIP3   OH2 6564   1.497   2.843   4.010
 2208TIP3    H1 6565   1.572   2.787   3.992
 2208TIP3    H2 6566   1.500   2.910   3.941
 2209TIP3   OH2 6567   5.835   4.777   5.209
 2209TIP3    H1 6568   5.809   4.803   5.121
 2209TIP3    H2 6569   5.767   4.813   5.266
 2210TIP3   OH2 6570   2.938   3.710   0.226
 2210TIP3    H1 6571   2.984   3.628   0.241
 2210TIP3    H2 6572   2.921   3.711   0.132
 2211TIP3   OH2 6573   1.434   5.111   5.346
 2211TIP3    H1 6574   1.480   5.076   5.422
 2211TIP3    H2 6575   1.503   5.128   5.282
 2212TIP3   OH2 6576   4.023   6.499   0.163
 2212TIP3    H1 6577   4.107   6.543   0.171
 2212TIP3    H2 6578   3.961   6.555   0.210
 2213TIP3   OH2 6579   2.922   2.887   5.250
 2213TIP3    H1 6580   2.876   2.885   5.166
 2213TIP3    H2 6581   3.008   2.850   5.231
 2214TIP3   OH2 6582   7.805   2.341   0.431
 2214TIP3    H1 6583   7.847   2.321   0.347
 2214TIP3    H2 6584   7.776   2.432   0.422
 2215TIP3   OH2 6585   0.517   5.360   3.727
 2215TIP3    H1 6586   0.582   5.334   3.793
 2215TIP3    H2 6587   0.487   5.446   3.755
 2216TIP3   OH2 6588   4.042   2.468   1.752
 2216TIP3    H1 6589   3.980   2.539   1.770
 2216TIP3    H2 6590   4.128   2.511   1.753
 2217TIP3   OH2 6591   7.397   7.030   2.202
 2217TIP3    H1 6592   7.419   7.120   2.181
 2217TIP3    H2 6593   7.346   7.035   2.282
 2218TIP3   OH2 6594   1.824   3.483   5.919
 2218TIP3    H1 6595   1.735   3.461   5.892
 2218TIP3    H2 6596   1.879   3.419   5.874
 2219TIP3   OH2 6597   1.523   4.103   2.012
 2219TIP3    H1 6598   1.445   4.060   2.045
 2219TIP3    H2 6599   1.595   4.047   2.041
 2220TIP3   OH2 6600   6.563   6.836   1.728
 2220TIP3    H1 6601   6.597   6.866   1.812
 2220TIP3    H2 6602   6.544   6.743   1.741
 2221TIP3   OH2 6603   5.879   4.222   3.133
 2221TIP3    H1 6604   5.812   4.212   3.201
 2221TIP3    H2 6605   5.947   4.274   3.174
 2222TIP3   OH2 6606   2.593   5.197   1.651
 2222TIP3    H1 6607   2.674   5.211   1.699
 2222TIP3    H2 6608   2.618   5.205   1.559
 2223TIP3   OH2 6609   0.246   6.559   3.780
 2223TIP3    H1 6610   0.317   6.554   3.845
 2223TIP3    H2 6611   0.258   6.644   3.738
 2224TIP3   OH2 6612   1.732   6.402   1.086
 2224TIP3    H1 6613   1.798   6.445   1.032
 2224TIP3    H2 6614   1.654   6.399   1.031
 2225TIP3   OH2 6615   2.060   5.937   4.611
 2225TIP3    H1 6616   2.144   5.897   4.632
 2225TIP3    H2 6617   2.080   6.029   4.596
 2226TIP3   OH2 6618   6.533   5.408   3.348
 2226TIP3    H1 6619   6.499   5.448   3.268
 2226TIP3    H2 6620   6.526   5.314   3.333
 2227TIP3   OH2 6621   8.002   3.799   6.553
 2227TIP3    H1 6622   8.071   3.859   6.527
 2227TIP3    H2 6623   7.930   3.816   6.493
 2228TIP3   OH2 6624   4.824   2.503   2.027
 2228TIP3    H1 6625   4.756   2.478   2.089
 2228TIP3    H2 6626   4.836   2.425   1.972
 2229TIP3   OH2 6627   3.714   3.478   2.850
 2229TIP3    H1 6628   3.797   3.465   2.895
 2229TIP3    H2 6629   3.653   3.420   2.896
 2230TIP3   OH2 6630   7.255   6.150   4.989
 2230TIP3    H1 6631   7.267   6.056   4.981
 2230TIP3    H2 6632   7.162   6.165   4.973
 2231TIP3   OH2 6633   0.056   5.912   6.647
 2231TIP3    H1 6634   0.131   5.966   6.668
 2231TIP3    H2 6635   0.077   5.826   6.683
 2232TIP3   OH2 6636   5.806   3.253   1.455
 2232TIP3    H1 6637   5.866   3.258   1.380
 2232TIP3    H2 6638   5.864   3.244   1.531
 2233TIP3   OH2 6639   2.948   3.361   6.027
 2233TIP3    H1 6640   2.921   3.346   5.936
 2233TIP3    H2 6641   2.893   3.434   6.056
 2234TIP3   OH2 6642   2.912   5.021   6.871
 2234TIP3    H1 6643   2.890   4.984   6.786
 2234TIP3    H2 6644   2.998   4.983   6.892
 2235TIP3   OH2 6645   3.512   0.507   6.650
 2235TIP3    H1 6646   3.553   0.480   6.568
 2235TIP3    H2 6647   3.427   0.542   6.624
 2236TIP3   OH2 6648   3.835   7.385   3.191
 2236TIP3    H1 6649   3.854   7.438   3.114
 2236TIP3    H2 6650   3.908   7.402   3.250
 2237TIP3   OH2 6651   2.266   5.215   0.790
 2237TIP3    H1 6652   2.256   5.244   0.881
 2237TIP3    H2 6653   2.274   5.296   0.740
 2238TIP3   OH2 6654   5.608   1.313   4.837
 2238TIP3    H1 6655   5.613   1.408   4.825
 2238TIP3    H2 6656   5.529   1.287   4.790
 2239TIP3   OH2 6657   6.268   6.493   0.591
 2239TIP3    H1 6658   6.313   6.413   0.564
 2239TIP3    H2 6659   6.219   6.520   0.513
 2240TIP3   OH2 6660   4.117   4.548   5.959
 2240TIP3    H1 6661   4.166   4.605   6.019
 2240TIP3    H2 6662   4.159   4.562   5.874
 2241TIP3   OH2 6663   7.341   4.997   1.759
 2241TIP3    H1 6664   7.337   4.999   1.663
 2241TIP3    H2 6665   7.275   5.061   1.787
 2242TIP3   OH2 6666   1.144   6.689   6.365
 2242TIP3    H1 6667   1.220   6.632   6.370
 2242TIP3    H2 6668   1.144   6.738   6.447
 2243TIP3   OH2 6669   6.582   1.633   1.168
 2243TIP3    H1 6670   6.594   1.717   1.212
 2243TIP3    H2 6671   6.636   1.640   1.089
 2244TIP3   OH2 6672   3.846   1.358   5.929
 2244TIP3    H1 6673   3.895   1.365   5.847
 2244TIP3    H2 6674   3.912   1.362   5.997
 2245TIP3   OH2 6675   2.147   1.010   6.686
 2245TIP3    H1 6676   2.167   1.072   6.616
 2245TIP3    H2 6677   2.195   1.043   6.762
 2246TIP3   OH2 6678   2.227   6.239   2.409
 2246TIP3    H1 6679   2.220   6.323   2.364
 2246TIP3    H2 6680   2.293   6.191   2.359
 2247TIP3   OH2 6681   6.882   1.497   4.103
 2247TIP3    H1 6682   6.927   1.456   4.028
 2247TIP3    H2 6683   6.953   1.529   4.159
 2248TIP3   OH2 6684   4.875   7.760   2.609
 2248TIP3    H1 6685   4.921   7.780   2.691
 2248TIP3    H2 6686   4.787   7.736   2.636
 2249TIP3   OH2 6687   3.442   6.954   3.366
 2249TIP3    H1 6688   3.432   7.030   3.423
 2249TIP3    H2 6689   3.355   6.913   3.366
 2250TIP3   OH2 6690   5.809   5.915   6.098
 2250TIP3    H1 6691   5.838   5.849   6.161
 2250TIP3    H2 6692   5.714   5.918   6.107
 2251TIP3   OH2 6693   7.263   7.248   1.419
 2251TIP3    H1 6694   7.175   7.278   1.441
 2251TIP3    H2 6695   7.289   7.195   1.495
 2252TIP3   OH2 6696   3.262   7.552   4.970
 2252TIP3    H1 6697   3.197   7.577   4.906
 2252TIP3    H2 6698   3.255   7.618   5.039
 2253TIP3   OH2 6699   4.448   1.946   4.353
 2253TIP3    H1 6700   4.484   1.890   4.422
 2253TIP3    H2 6701   4.362   1.972   4.386
 2254TIP3   OH2 6702   3.303   4.426   6.771
 2254TIP3    H1 6703   3.309   4.374   6.851
 2254TIP3    H2 6704   3.392   4.428   6.736
 2255TIP3   OH2 6705   3.090   4.855   5.397
 2255TIP3    H1 6706   3.022   4.912   5.434
 2255TIP3    H2 6707   3.172   4.900   5.415
 2256TIP3   OH2 6708   8.066   1.299   1.954
 2256TIP3    H1 6709   8.103   1.217   1.985
 2256TIP3    H2 6710   7.992   1.316   2.013
 2257TIP3   OH2 6711   4.353   1.180   4.300
 2257TIP3    H1 6712   4.325   1.110   4.241
 2257TIP3    H2 6713   4.381   1.251   4.243
 2258TIP3   OH2 6714   1.226   3.945   3.908
 2258TIP3    H1 6715   1.135   3.929   3.885
 2258TIP3    H2 6716   1.253   4.018   3.852
 2259TIP3   OH2 6717   0.465   3.597   2.308
 2259TIP3    H1 6718   0.498   3.509   2.325
 2259TIP3    H2 6719   0.376   3.596   2.345
 2260TIP3   OH2 6720   7.535   6.149   1.965
 2260TIP3    H1 6721   7.548   6.152   2.060
 2260TIP3    H2 6722   7.443   6.127   1.954
 2261TIP3   OH2 6723   0.443   2.359   2.732
 2261TIP3    H1 6724   0.508   2.289   2.733
 2261TIP3    H2 6725   0.382   2.337   2.803
 2262TIP3   OH2 6726   4.340   6.006   6.334
 2262TIP3    H1 6727   4.264   6.050   6.372
 2262TIP3    H2 6728   4.414   6.036   6.386
 2263TIP3   OH2 6729   5.310   0.660   3.881
 2263TIP3    H1 6730   5.248   0.653   3.954
 2263TIP3    H2 6731   5.374   0.590   3.897
 2264TIP3   OH2 6732   2.742   6.954   4.975
 2264TIP3    H1 6733   2.770   6.915   4.893
 2264TIP3    H2 6734   2.817   6.947   5.033
 2265TIP3   OH2 6735   0.813   6.231   1.740
 2265TIP3    H1 6736   0.844   6.322   1.743
 2265TIP3    H2 6737   0.800   6.213   1.647
 2266TIP3   OH2 6738   4.677   7.252   4.450
 2266TIP3    H1 6739   4.760   7.252   4.402
 2266TIP3    H2 6740   4.703   7.273   4.540
 2267TIP3   OH2 6741   4.535   2.784   3.107
 2267TIP3    H1 6742   4.505   2.700   3.142
 2267TIP3    H2 6743   4.567   2.765   3.019
 2268TIP3   OH2 6744   5.829   6.841   4.120
 2268TIP3    H1 6745   5.893   6.861   4.189
 2268TIP3    H2 6746   5.782   6.923   4.107
 2269TIP3   OH2 6747   3.403   0.896   2.409
 2269TIP3    H1 6748   3.383   0.917   2.318
 2269TIP3    H2 6749   3.318   0.898   2.453
 2270TIP3   OH2 6750   1.338   6.119   2.711
 2270TIP3    H1 6751   1.415   6.123   2.654
 2270TIP3    H2 6752   1.336   6.205   2.754
 2271TIP3   OH2 6753   3.493   0.885   0.327
 2271TIP3    H1 6754   3.400   0.897   0.309
 2271TIP3    H2 6755   3.537   0.943   0.264
 2272TIP3   OH2 6756   6.223   5.417   0.339
 2272TIP3    H1 6757   6.164   5.385   0.407
 2272TIP3    H2 6758   6.259   5.498   0.375
 2273TIP3   OH2 6759   7.686   2.241   3.297
 2273TIP3    H1 6760   7.694   2.335   3.277
 2273TIP3    H2 6761   7.611   2.212   3.245
 2274TIP3   OH2 6762   2.899   2.797   6.727
 2274TIP3    H1 6763   2.809   2.764   6.728
 2274TIP3    H2 6764   2.907   2.842   6.643
 2275TIP3   OH2 6765   5.198   4.881   1.148
 2275TIP3    H1 6766   5.253   4.949   1.108
 2275TIP3    H2 6767   5.254   4.803   1.150
 2276TIP3   OH2 6768   4.606   5.444   3.866
 2276TIP3    H1 6769   4.579   5.534   3.845
 2276TIP3    H2 6770   4.540   5.388   3.826
 2277TIP3   OH2 6771   6.039   6.675   2.807
 2277TIP3    H1 6772   6.109   6.662   2.742
 2277TIP3    H2 6773   5.984   6.597   2.798
 2278TIP3   OH2 6774   5.090   4.256   4.917
 2278TIP3    H1 6775   5.032   4.307   4.974
 2278TIP3    H2 6776   5.162   4.229   4.975
 2279TIP3   OH2 6777   3.905   5.597   0.426
 2279TIP3    H1 6778   3.861   5.558   0.350
 2279TIP3    H2 6779   3.970   5.532   0.452
 2280TIP3   OH2 6780   7.229   0.892   0.436
 2280TIP3    H1 6781   7.195   0.803   0.439
 2280TIP3    H2 6782   7.323   0.882   0.452
 2281TIP3   OH2 6783   0.041   1.322   0.278
 2281TIP3    H1 6784   0.101   1.316   0.204
 2281TIP3    H2 6785   0.088   1.284   0.352
 2282TIP3   OH2 6786   0.231   0.383   1.743
 2282TIP3    H1 6787   0.252   0.306   1.797
 2282TIP3    H2 6788   0.312   0.400   1.695
 2283TIP3   OH2 6789   4.474   6.414   1.132
 2283TIP3    H1 6790   4.428   6.347   1.184
 2283TIP3    H2 6791   4.405   6.454   1.080
 2284TIP3   OH2 6792   5.488   1.110   1.732
 2284TIP3    H1 6793   5.466   1.026   1.773
 2284TIP3    H2 6794   5.544   1.086   1.657
 2285TIP3   OH2 6795   6.897   1.755   4.788
 2285TIP3    H1 6796   6.819   1.807   4.808
 2285TIP3    H2 6797   6.886   1.675   4.839
 2286TIP3   OH2 6798   0.018   1.985   6.652
 2286TIP3    H1 6799   0.026   1.993   6.747
 2286TIP3    H2 6800   0.035   2.073   6.619
 2287TIP3   OH2 6801   4.122   7.815   3.172
 2287TIP3    H1 6802   4.155   7.832   3.261
 2287TIP3    H2 6803   4.186   7.755   3.134
 2288TIP3   OH2 6804   3.466   7.223   3.556
 2288TIP3    H1 6805   3.469   7.189   3.646
 2288TIP3    H2 6806   3.544   7.277   3.548
 2289TIP3   OH2 6807   3.787   3.828   6.286
 2289TIP3    H1 6808   3.846   3.862   6.219
 2289TIP3    H2 6809   3.720   3.780   6.237
 2290TIP3   OH2 6810   1.005   3.393   5.200
 2290TIP3    H1 6811   1.089   3.438   5.194
 2290TIP3    H2 6812   0.988   3.385   5.294
 2291TIP3   OH2 6813   3.210   3.578   1.950
 2291TIP3    H1 6814   3.182   3.561   2.040
 2291TIP3    H2 6815   3.156   3.520   1.896
 2292TIP3   OH2 6816   7.608   1.854   5.695
 2292TIP3    H1 6817   7.544   1.916   5.659
 2292TIP3    H2 6818   7.564   1.769   5.690
 2293TIP3   OH2 6819   6.309   0.875   4.091
 2293TIP3    H1 6820   6.371   0.907   4.025
 2293TIP3    H2 6821   6.241   0.942   4.095
 2294TIP3   OH2 6822   7.205   2.260   2.359
 2294TIP3    H1 6823   7.224   2.254   2.453
 2294TIP3    H2 6824   7.220   2.353   2.339
 2295TIP3   OH2 6825   3.133   6.936   3.923
 2295TIP3    H1 6826   3.208   6.965   3.871
 2295TIP3    H2 6827   3.099   6.860   3.875
 2296TIP3   OH2 6828   5.751   2.805   0.203
 2296TIP3    H1 6829   5.724   2.713   0.204
 2296TIP3    H2 6830   5.671   2.852   0.182
 2297TIP3   OH2 6831   3.521   0.980   5.141
 2297TIP3    H1 6832   3.606   0.935   5.142
 2297TIP3    H2 6833   3.524   1.038   5.217
 2298TIP3   OH2 6834   1.385   0.995   6.500
 2298TIP3    H1 6835   1.321   0.999   6.429
 2298TIP3    H2 6836   1.422   1.084   6.504
 2299TIP3   OH2 6837   6.014   1.458   5.739
 2299TIP3    H1 6838   6.041   1.550   5.742
 2299TIP3    H2 6839   6.092   1.409   5.767
 2300TIP3   OH2 6840   2.311   1.554   6.699
 2300TIP3    H1 6841   2.252   1.540   6.625
 2300TIP3    H2 6842   2.373   1.481   6.694
 2301TIP3   OH2 6843   3.031   3.482   1.285
 2301TIP3    H1 6844   2.955   3.466   1.342
 2301TIP3    H2 6845   3.005   3.447   1.200
 2302TIP3   OH2 6846   3.055   1.496   5.671
 2302TIP3    H1 6847   3.108   1.454   5.739
 2302TIP3    H2 6848   2.965   1.485   5.702
 2303TIP3   OH2 6849   7.217   4.701   6.565
 2303TIP3    H1 6850   7.269   4.673   6.490
 2303TIP3    H2 6851   7.279   4.747   6.622
 2304TIP3   OH2 6852   4.801   5.651   3.282
 2304TIP3    H1 6853   4.766   5.671   3.195
 2304TIP3    H2 6854   4.776   5.559   3.297
 2305TIP3   OH2 6855   7.669   0.514   6.101
 2305TIP3    H1 6856   7.641   0.581   6.163
 2305TIP3    H2 6857   7.695   0.440   6.156
 2306TIP3   OH2 6858   8.183   4.218   4.699
 2306TIP3    H1 6859   8.278   4.219   4.711
 2306TIP3    H2 6860   8.164   4.301   4.655
 2307TIP3   OH2 6861   5.557   1.641   6.800
 2307TIP3    H1 6862   5.545   1.654   6.894
 2307TIP3    H2 6863   5.645   1.673   6.783
 2308TIP3   OH2 6864   0.786   2.432   2.784
 2308TIP3    H1 6865   0.725   2.425   2.710
 2308TIP3    H2 6866   0.858   2.373   2.762
 2309TIP3   OH2 6867   3.696   6.058   2.456
 2309TIP3    H1 6868   3.633   6.119   2.495
 2309TIP3    H2 6869   3.729   6.105   2.379
 2310TIP3   OH2 6870   3.643   2.338   2.945
 2310TIP3    H1 6871   3.738   2.339   2.931
 2310TIP3    H2 6872   3.606   2.342   2.856
 2311TIP3   OH2 6873   1.975   1.936   0.670
 2311TIP3    H1 6874   1.881   1.951   0.678
 2311TIP3    H2 6875   1.984   1.886   0.588
 2312TIP3   OH2 6876   4.959   2.415   4.199
 2312TIP3    H1 6877   4.994   2.502   4.178
 2312TIP3    H2 6878   4.953   2.414   4.295
 2313TIP3   OH2 6879   4.779   5.716   0.402
 2313TIP3    H1 6880   4.850   5.653   0.390
 2313TIP3    H2 6881   4.709   5.684   0.346
 2314TIP3   OH2 6882   5.458   5.367   2.405
 2314TIP3    H1 6883   5.543   5.396   2.371
 2314TIP3    H2 6884   5.427   5.442   2.457
 2315TIP3   OH2 6885   0.909   4.256   2.829
 2315TIP3    H1 6886   0.847   4.189   2.857
 2315TIP3    H2 6887   0.994   4.212   2.827
 2316TIP3   OH2 6888   8.337   1.296   1.706
 2316TIP3    H1 6889   8.246   1.276   1.730
 2316TIP3    H2 6890   8.388   1.267   1.782
 2317TIP3   OH2 6891   2.982   7.023   5.770
 2317TIP3    H1 6892   2.924   7.012   5.845
 2317TIP3    H2 6893   3.035   7.100   5.793
 2318TIP3   OH2 6894   0.090   1.194   0.649
 2318TIP3    H1 6895   0.040   1.173   0.571
 2318TIP3    H2 6896   0.034   1.256   0.697
 2319TIP3   OH2 6897   8.323   6.179   6.825
 2319TIP3    H1 6898   8.339   6.109   6.761
 2319TIP3    H2 6899   8.411   6.209   6.850
 2320TIP3   OH2 6900   1.792   5.479   2.655
 2320TIP3    H1 6901   1.750   5.544   2.598
 2320TIP3    H2 6902   1.740   5.480   2.735
 2321TIP3   OH2 6903   8.009   0.788   2.288
 2321TIP3    H1 6904   8.093   0.800   2.243
 2321TIP3    H2 6905   7.951   0.753   2.221
 2322TIP3   OH2 6906   1.737   7.633   5.687
 2322TIP3    H1 6907   1.726   7.541   5.709
 2322TIP3    H2 6908   1.815   7.637   5.633
 2323TIP3   OH2 6909   6.333   6.153   3.550
 2323TIP3    H1 6910   6.271   6.219   3.581
 2323TIP3    H2 6911   6.316   6.076   3.605
 2324TIP3   OH2 6912   4.056   5.589   1.348
 2324TIP3    H1 6913   4.017   5.501   1.350
 2324TIP3    H2 6914   4.112   5.589   1.270
 2325TIP3   OH2 6915   0.732   7.753   3.244
 2325TIP3    H1 6916   0.751   7.718   3.157
 2325TIP3    H2 6917   0.742   7.848   3.235
 2326TIP3   OH2 6918   0.265   5.428   5.674
 2326TIP3    H1 6919   0.223   5.342   5.688
 2326TIP3    H2 6920   0.259   5.441   5.579
 2327TIP3   OH2 6921   4.415   2.077   1.629
 2327TIP3    H1 6922   4.417   1.999   1.573
 2327TIP3    H2 6923   4.360   2.140   1.580
 2328TIP3   OH2 6924   6.619   3.827   6.660
 2328TIP3    H1 6925   6.673   3.869   6.727
 2328TIP3    H2 6926   6.582   3.750   6.703
 2329TIP3   OH2 6927   4.426   5.069   5.998
 2329TIP3    H1 6928   4.446   5.154   5.960
 2329TIP3    H2 6929   4.387   5.089   6.083
 2330TIP3   OH2 6930   8.266   1.675   0.754
 2330TIP3    H1 6931   8.240   1.700   0.842
 2330TIP3    H2 6932   8.263   1.579   0.753
 2331TIP3   OH2 6933   0.162   1.815   6.458
 2331TIP3    H1 6934   0.252   1.840   6.477
 2331TIP3    H2 6935   0.108   1.877   6.506
 2332TIP3   OH2 6936   3.193   6.659   6.705
 2332TIP3    H1 6937   3.156   6.706   6.780
 2332TIP3    H2 6938   3.236   6.583   6.744
 2333TIP3   OH2 6939   6.264   5.605   1.389
 2333TIP3    H1 6940   6.218   5.681   1.352
 2333TIP3    H2 6941   6.319   5.573   1.318
 2334TIP3   OH2 6942   6.796   1.596   1.988
 2334TIP3    H1 6943   6.885   1.562   1.980
 2334TIP3    H2 6944   6.785   1.612   2.082
 2335TIP3   OH2 6945   5.016   4.856   0.947
 2335TIP3    H1 6946   5.087   4.897   0.997
 2335TIP3    H2 6947   4.973   4.929   0.902
 2336TIP3   OH2 6948   5.840   0.055   5.510
 2336TIP3    H1 6949   5.858   0.095   5.595
 2336TIP3    H2 6950   5.782  -0.019   5.529
 2337TIP3   OH2 6951   5.983   6.185   2.754
 2337TIP3    H1 6952   5.991   6.102   2.802
 2337TIP3    H2 6953   5.951   6.159   2.667
 2338TIP3   OH2 6954   4.871   6.014   4.126
 2338TIP3    H1 6955   4.810   5.990   4.057
 2338TIP3    H2 6956   4.817   6.061   4.190
 2339TIP3   OH2 6957   1.679   5.300   1.342
 2339TIP3    H1 6958   1.643   5.253   1.417
 2339TIP3    H2 6959   1.773   5.278   1.343
 2340TIP3   OH2 6960   0.013   0.843   5.486
 2340TIP3    H1 6961  -0.035   0.891   5.418
 2340TIP3    H2 6962   0.037   0.760   5.444
 2341TIP3   OH2 6963   4.556   1.602   5.802
 2341TIP3    H1 6964   4.607   1.646   5.733
 2341TIP3    H2 6965   4.465   1.623   5.781
 2342TIP3   OH2 6966   3.517   2.456   5.506
 2342TIP3    H1 6967   3.455   2.527   5.523
 2342TIP3    H2 6968   3.596   2.500   5.475
 2343TIP3   OH2 6969   3.705   6.595   2.892
 2343TIP3    H1 6970   3.743   6.587   2.805
 2343TIP3    H2 6971   3.681   6.506   2.916
 2344TIP3   OH2 6972   2.591   6.035   4.483
 2344TIP3    H1 6973   2.613   6.045   4.576
 2344TIP3    H2 6974   2.601   6.122   4.446
 2345TIP3   OH2 6975   6.258   6.408   4.854
 2345TIP3    H1 6976   6.227   6.453   4.775
 2345TIP3    H2 6977   6.268   6.317   4.827
 2346TIP3   OH2 6978   8.251   7.432   6.653
 2346TIP3    H1 6979   8.177   7.427   6.713
 2346TIP3    H2 6980   8.268   7.525   6.642
 2347TIP3   OH2 6981   7.992   2.231   4.749
 2347TIP3    H1 6982   8.029   2.243   4.837
 2347TIP3    H2 6983   7.916   2.174   4.763
 2348TIP3   OH2 6984   4.621   4.848   4.115
 2348TIP3    H1 6985   4.578   4.932   4.100
 2348TIP3    H2 6986   4.572   4.809   4.188
 2349TIP3   OH2 6987   1.977   1.175   0.623
 2349TIP3    H1 6988   1.995   1.229   0.545
 2349TIP3    H2 6989   2.061   1.133   0.642
 2350TIP3   OH2 6990   7.417   1.316   2.404
 2350TIP3    H1 6991   7.396   1.232   2.444
 2350TIP3    H2 6992   7.399   1.381   2.472
 2351TIP3   OH2 6993   4.694   3.056   1.652
 2351TIP3    H1 6994   4.630   3.119   1.685
 2351TIP3    H2 6995   4.744   3.030   1.730
 2352TIP3   OH2 6996   6.117   4.671   3.145
 2352TIP3    H1 6997   6.027   4.698   3.165
 2352TIP3    H2 6998   6.170   4.748   3.164
 2353TIP3   OH2 6999   3.917   5.875   0.274
 2353TIP3    H1 7000   3.952   5.803   0.327
 2353TIP3    H2 7001   3.883   5.937   0.338
 2354TIP3   OH2 7002   3.203   0.909   0.403
 2354TIP3    H1 7003   3.171   0.830   0.446
 2354TIP3    H2 7004   3.161   0.907   0.316
 2355TIP3   OH2 7005   1.907   1.615   6.031
 2355TIP3    H1 7006   1.964   1.628   6.107
 2355TIP3    H2 7007   1.964   1.632   5.956
 2356TIP3   OH2 7008   6.794   7.842   1.186
 2356TIP3    H1 7009   6.775   7.761   1.235
 2356TIP3    H2 7010   6.722   7.901   1.209
 2357TIP3   OH2 7011   8.308   2.051   4.149
 2357TIP3    H1 7012   8.368   1.998   4.202
 2357TIP3    H2 7013   8.319   2.140   4.182
 2358TIP3   OH2 7014   4.567   6.879   2.868
 2358TIP3    H1 7015   4.566   6.964   2.912
 2358TIP3    H2 7016   4.503   6.827   2.915
 2359TIP3   OH2 7017   6.981   3.976   6.657
 2359TIP3    H1 7018   6.960   3.885   6.676
 2359TIP3    H2 7019   7.073   3.986   6.683
 2360TIP3   OH2 7020   1.637   0.802   3.814
 2360TIP3    H1 7021   1.714   0.854   3.793
 2360TIP3    H2 7022   1.666   0.743   3.883
 2361TIP3   OH2 7023   2.016   2.219   4.074
 2361TIP3    H1 7024   2.075   2.292   4.094
 2361TIP3    H2 7025   2.046   2.186   3.989
 2362TIP3   OH2 7026   2.690   0.324   4.218
 2362TIP3    H1 7027   2.671   0.250   4.276
 2362TIP3    H2 7028   2.608   0.373   4.215
 2363TIP3   OH2 7029   6.743   4.189   5.961
 2363TIP3    H1 7030   6.798   4.196   5.883
 2363TIP3    H2 7031   6.802   4.154   6.028
 2364TIP3   OH2 7032   7.768   1.899   1.211
 2364TIP3    H1 7033   7.768   1.807   1.187
 2364TIP3    H2 7034   7.823   1.904   1.289
 2365TIP3   OH2 7035   2.479   5.141   5.609
 2365TIP3    H1 7036   2.533   5.122   5.686
 2365TIP3    H2 7037   2.487   5.063   5.554
 2366TIP3   OH2 7038   3.361   4.114   3.777
 2366TIP3    H1 7039   3.314   4.075   3.851
 2366TIP3    H2 7040   3.338   4.207   3.781
 2367TIP3   OH2 7041   3.070   4.581   1.073
 2367TIP3    H1 7042   3.040   4.491   1.060
 2367TIP3    H2 7043   2.990   4.633   1.073
 2368TIP3   OH2 7044   5.193   6.418   2.108
 2368TIP3    H1 7045   5.159   6.345   2.159
 2368TIP3    H2 7046   5.171   6.496   2.159
 2369TIP3   OH2 7047   1.738   7.190   0.865
 2369TIP3    H1 7048   1.730   7.219   0.956
 2369TIP3    H2 7049   1.710   7.265   0.814
 2370TIP3   OH2 7050   4.308   6.316   1.846
 2370TIP3    H1 7051   4.235   6.257   1.829
 2370TIP3    H2 7052   4.370   6.263   1.897
 2371TIP3   OH2 7053   0.782   2.509   5.876
 2371TIP3    H1 7054   0.834   2.444   5.922
 2371TIP3    H2 7055   0.697   2.507   5.918
 2372TIP3   OH2 7056   2.563   1.575   6.541
 2372TIP3    H1 7057   2.614   1.495   6.544
 2372TIP3    H2 7058   2.570   1.612   6.629
 2373TIP3   OH2 7059   5.313   1.716   6.618
 2373TIP3    H1 7060   5.240   1.654   6.617
 2373TIP3    H2 7061   5.353   1.706   6.704
 2374TIP3   OH2 7062   3.032   7.687   1.057
 2374TIP3    H1 7063   3.022   7.775   1.023
 2374TIP3    H2 7064   2.943   7.650   1.054
 2375TIP3   OH2 7065   5.758   1.384   4.505
 2375TIP3    H1 7066   5.744   1.301   4.458
 2375TIP3    H2 7067   5.720   1.451   4.447
 2376TIP3   OH2 7068   6.930   1.251   4.352
 2376TIP3    H1 7069   6.942   1.337   4.394
 2376TIP3    H2 7070   6.835   1.236   4.356
 2377TIP3   OH2 7071   7.192   2.162   5.586
 2377TIP3    H1 7072   7.108   2.117   5.593
 2377TIP3    H2 7073   7.191   2.223   5.661
 2378TIP3   OH2 7074   6.690   7.529   1.137
 2378TIP3    H1 7075   6.731   7.471   1.073
 2378TIP3    H2 7076   6.723   7.616   1.114
 2379TIP3   OH2 7077   6.645   6.111   1.743
 2379TIP3    H1 7078   6.738   6.111   1.765
 2379TIP3    H2 7079   6.613   6.026   1.773
 2380TIP3   OH2 7080   6.741   5.910   3.860
 2380TIP3    H1 7081   6.709   5.962   3.934
 2380TIP3    H2 7082   6.691   5.942   3.785
 2381TIP3   OH2 7083   0.916   7.459   1.549
 2381TIP3    H1 7084   0.869   7.528   1.596
 2381TIP3    H2 7085   0.847   7.407   1.509
 2382TIP3   OH2 7086   4.171   4.258   2.861
 2382TIP3    H1 7087   4.101   4.198   2.837
 2382TIP3    H2 7088   4.247   4.201   2.876
 2383TIP3   OH2 7089   4.080   0.047   6.191
 2383TIP3    H1 7090   4.042   0.122   6.145
 2383TIP3    H2 7091   4.114   0.085   6.272
 2384TIP3   OH2 7092   0.435   2.601   1.892
 2384TIP3    H1 7093   0.433   2.518   1.846
 2384TIP3    H2 7094   0.365   2.595   1.957
 2385TIP3   OH2 7095   3.394   5.461   5.249
 2385TIP3    H1 7096   3.395   5.377   5.204
 2385TIP3    H2 7097   3.305   5.493   5.238
 2386TIP3   OH2 7098   1.700   5.891   5.314
 2386TIP3    H1 7099   1.768   5.831   5.285
 2386TIP3    H2 7100   1.626   5.874   5.256
 2387TIP3   OH2 7101   2.821   1.438   5.795
 2387TIP3    H1 7102   2.771   1.519   5.802
 2387TIP3    H2 7103   2.761   1.377   5.752
 2388TIP3   OH2 7104   3.423   3.302   1.260
 2388TIP3    H1 7105   3.510   3.287   1.225
 2388TIP3    H2 7106   3.367   3.311   1.183
 2389TIP3   OH2 7107   5.092   6.682   1.645
 2389TIP3    H1 7108   5.015   6.630   1.621
 2389TIP3    H2 7109   5.164   6.643   1.595
 2390TIP3   OH2 7110   0.773   4.101   4.811
 2390TIP3    H1 7111   0.719   4.166   4.766
 2390TIP3    H2 7112   0.861   4.114   4.775
 2391TIP3   OH2 7113   1.734   6.850   6.698
 2391TIP3    H1 7114   1.676   6.924   6.717
 2391TIP3    H2 7115   1.684   6.795   6.638
 2392TIP3   OH2 7116   3.792   7.821   3.882
 2392TIP3    H1 7117   3.887   7.813   3.893
 2392TIP3    H2 7118   3.758   7.829   3.972
 2393TIP3   OH2 7119   5.846   3.051   6.644
 2393TIP3    H1 7120   5.789   3.097   6.582
 2393TIP3    H2 7121   5.794   3.044   6.723
 2394TIP3   OH2 7122   6.575   7.345   2.769
 2394TIP3    H1 7123   6.635   7.341   2.695
 2394TIP3    H2 7124   6.630   7.364   2.845
 2395TIP3   OH2 7125   2.470   4.140   1.343
 2395TIP3    H1 7126   2.524   4.077   1.296
 2395TIP3    H2 7127   2.524   4.169   1.416
 2396TIP3   OH2 7128   4.454   0.411   4.656
 2396TIP3    H1 7129   4.397   0.358   4.600
 2396TIP3    H2 7130   4.463   0.360   4.737
 2397TIP3   OH2 7131   7.837   3.584   5.793
 2397TIP3    H1 7132   7.779   3.518   5.833
 2397TIP3    H2 7133   7.820   3.577   5.699
 2398TIP3   OH2 7134   0.313   7.664   6.193
 2398TIP3    H1 7135   0.290   7.749   6.231
 2398TIP3    H2 7136   0.240   7.641   6.136
 2399TIP3   OH2 7137   5.265   0.251   0.458
 2399TIP3    H1 7138   5.286   0.215   0.544
 2399TIP3    H2 7139   5.222   0.179   0.411
 2400TIP3   OH2 7140   3.866   5.735   2.891
 2400TIP3    H1 7141   3.875   5.742   2.986
 2400TIP3    H2 7142   3.790   5.789   2.870
 2401TIP3   OH2 7143   5.059   7.097   2.838
 2401TIP3    H1 7144   4.987   7.039   2.863
 2401TIP3    H2 7145   5.021   7.155   2.772
 2402TIP3   OH2 7146   3.613   3.380   3.110
 2402TIP3    H1 7147   3.641   3.374   3.201
 2402TIP3    H2 7148   3.585   3.471   3.100
 2403TIP3   OH2 7149   1.437   0.636   1.590
 2403TIP3    H1 7150   1.408   0.610   1.678
 2403TIP3    H2 7151   1.370   0.600   1.532
 2404TIP3   OH2 7152   3.860   1.095   3.638
 2404TIP3    H1 7153   3.853   1.021   3.577
 2404TIP3    H2 7154   3.947   1.131   3.622
 2405TIP3   OH2 7155   6.393   0.801   4.375
 2405TIP3    H1 7156   6.363   0.869   4.434
 2405TIP3    H2 7157   6.359   0.827   4.289
 2406TIP3   OH2 7158   1.363   3.532   3.616
 2406TIP3    H1 7159   1.326   3.579   3.541
 2406TIP3    H2 7160   1.420   3.466   3.576
 2407TIP3   OH2 7161   7.349   1.155   3.550
 2407TIP3    H1 7162   7.306   1.071   3.562
 2407TIP3    H2 7163   7.282   1.212   3.514
 2408TIP3   OH2 7164   1.529   4.974   3.584
 2408TIP3    H1 7165   1.582   4.899   3.612
 2408TIP3    H2 7166   1.441   4.953   3.615
 2409TIP3   OH2 7167   3.142   4.621   3.368
 2409TIP3    H1 7168   3.109   4.614   3.278
 2409TIP3    H2 7169   3.065   4.642   3.420
 2410TIP3   OH2 7170   3.994   0.406   3.094
 2410TIP3    H1 7171   4.054   0.475   3.122
 2410TIP3    H2 7172   4.039   0.324   3.114
 2411TIP3   OH2 7173   6.696   6.930   1.971
 2411TIP3    H1 7174   6.629   6.908   2.036
 2411TIP3    H2 7175   6.708   7.025   1.980
 2412TIP3   OH2 7176   8.345   1.829   0.499
 2412TIP3    H1 7177   8.369   1.761   0.436
 2412TIP3    H2 7178   8.325   1.782   0.580
 2413TIP3   OH2 7179   4.605   3.279   6.278
 2413TIP3    H1 7180   4.672   3.286   6.346
 2413TIP3    H2 7181   4.522   3.291   6.324
 2414TIP3   OH2 7182   6.477   6.626   4.571
 2414TIP3    H1 7183   6.511   6.673   4.646
 2414TIP3    H2 7184   6.450   6.694   4.509
 2415TIP3   OH2 7185   6.728   0.086   3.414
 2415TIP3    H1 7186   6.733   0.096   3.319
 2415TIP3    H2 7187   6.665   0.151   3.442
 2416TIP3   OH2 7188   1.114   6.859   1.099
 2416TIP3    H1 7189   1.093   6.808   1.177
 2416TIP3    H2 7190   1.210   6.866   1.101
 2417TIP3   OH2 7191   6.612   5.695   5.685
 2417TIP3    H1 7192   6.638   5.689   5.777
 2417TIP3    H2 7193   6.662   5.769   5.650
 2418TIP3   OH2 7194   4.574   5.583   6.158
 2418TIP3    H1 7195   4.516   5.660   6.158
 2418TIP3    H2 7196   4.566   5.548   6.247
 2419TIP3   OH2 7197   2.744   3.481   5.592
 2419TIP3    H1 7198   2.712   3.546   5.529
 2419TIP3    H2 7199   2.711   3.511   5.676
 2420TIP3   OH2 7200   1.902   6.405   1.733
 2420TIP3    H1 7201   1.899   6.492   1.772
 2420TIP3    H2 7202   1.995   6.384   1.726
 2421TIP3   OH2 7203   1.982   4.986   5.611
 2421TIP3    H1 7204   1.992   4.897   5.578
 2421TIP3    H2 7205   1.893   4.988   5.647
 2422TIP3   OH2 7206   6.767   3.826   2.460
 2422TIP3    H1 7207   6.755   3.921   2.450
 2422TIP3    H2 7208   6.837   3.805   2.399
 2423TIP3   OH2 7209   8.400   0.293   3.447
 2423TIP3    H1 7210   8.337   0.233   3.486
 2423TIP3    H2 7211   8.362   0.380   3.460
 2424TIP3   OH2 7212   6.965   1.084   4.890
 2424TIP3    H1 7213   6.941   1.145   4.821
 2424TIP3    H2 7214   6.914   1.005   4.870
 2425TIP3   OH2 7215   3.167   7.719   0.427
 2425TIP3    H1 7216   3.262   7.715   0.429
 2425TIP3    H2 7217   3.146   7.809   0.451
 2426TIP3   OH2 7218   8.316   2.248   4.392
 2426TIP3    H1 7219   8.393   2.241   4.449
 2426TIP3    H2 7220   8.246   2.206   4.442
 2427TIP3   OH2 7221   2.386   0.755   5.495
 2427TIP3    H1 7222   2.440   0.808   5.554
 2427TIP3    H2 7223   2.415   0.780   5.407
 2428TIP3   OH2 7224   7.941   3.877   1.616
 2428TIP3    H1 7225   7.968   3.858   1.526
 2428TIP3    H2 7226   7.946   3.793   1.661
 2429TIP3   OH2 7227   6.805   7.142   5.246
 2429TIP3    H1 7228   6.775   7.113   5.332
 2429TIP3    H2 7229   6.842   7.063   5.206
 2430TIP3   OH2 7230   2.528   6.387   2.717
 2430TIP3    H1 7231   2.511   6.476   2.685
 2430TIP3    H2 7232   2.615   6.365   2.685
 2431TIP3   OH2 7233   4.885   2.036   6.288
 2431TIP3    H1 7234   4.804   2.086   6.276
 2431TIP3    H2 7235   4.931   2.082   6.358
 2432TIP3   OH2 7236   4.861   3.793   6.016
 2432TIP3    H1 7237   4.882   3.723   6.078
 2432TIP3    H2 7238   4.946   3.825   5.987
 2433TIP3   OH2 7239   0.092   0.143   6.208
 2433TIP3    H1 7240   0.093   0.099   6.123
 2433TIP3    H2 7241   0.150   0.090   6.263
 2434TIP3   OH2 7242   0.472   2.266   5.757
 2434TIP3    H1 7243   0.532   2.246   5.829
 2434TIP3    H2 7244   0.399   2.205   5.770
 2435TIP3   OH2 7245   2.744   5.238   3.590
 2435TIP3    H1 7246   2.798   5.268   3.663
 2435TIP3    H2 7247   2.675   5.186   3.631
 2436TIP3   OH2 7248   0.668   3.312   1.323
 2436TIP3    H1 7249   0.582   3.343   1.352
 2436TIP3    H2 7250   0.659   3.217   1.318
 2437TIP3   OH2 7251   8.401   1.075   2.257
 2437TIP3    H1 7252   8.433   1.072   2.347
 2437TIP3    H2 7253   8.375   0.985   2.238
 2438TIP3   OH2 7254   6.331   2.205   4.876
 2438TIP3    H1 7255   6.288   2.242   4.953
 2438TIP3    H2 7256   6.321   2.110   4.885
 2439TIP3   OH2 7257   7.520   0.329   1.798
 2439TIP3    H1 7258   7.531   0.412   1.752
 2439TIP3    H2 7259   7.426   0.320   1.811
 2440TIP3   OH2 7260   3.643   6.565   1.047
 2440TIP3    H1 7261   3.713   6.501   1.032
 2440TIP3    H2 7262   3.677   6.647   1.010
 2441TIP3   OH2 7263   0.218   5.710   1.734
 2441TIP3    H1 7264   0.195   5.803   1.732
 2441TIP3    H2 7265   0.290   5.706   1.797
 2442TIP3   OH2 7266   7.572   7.075   2.904
 2442TIP3    H1 7267   7.587   6.981   2.892
 2442TIP3    H2 7268   7.630   7.117   2.841
 2443TIP3   OH2 7269   5.110   0.967   1.994
 2443TIP3    H1 7270   5.111   0.933   1.905
 2443TIP3    H2 7271   5.039   1.030   1.995
 2444TIP3   OH2 7272   5.327   1.478   5.154
 2444TIP3    H1 7273   5.359   1.525   5.077
 2444TIP3    H2 7274   5.274   1.541   5.201
 2445TIP3   OH2 7275   5.722   1.625   0.162
 2445TIP3    H1 7276   5.730   1.556   0.229
 2445TIP3    H2 7277   5.682   1.581   0.087
 2446TIP3   OH2 7278   4.179   3.784   3.542
 2446TIP3    H1 7279   4.093   3.755   3.572
 2446TIP3    H2 7280   4.203   3.855   3.602
 2447TIP3   OH2 7281   2.779   5.509   5.171
 2447TIP3    H1 7282   2.832   5.477   5.243
 2447TIP3    H2 7283   2.720   5.572   5.211
 2448TIP3   OH2 7284   3.253   6.271   2.127
 2448TIP3    H1 7285   3.257   6.307   2.216
 2448TIP3    H2 7286   3.245   6.349   2.071
 2449TIP3   OH2 7287   6.876   6.395   4.021
 2449TIP3    H1 7288   6.874   6.467   3.958
 2449TIP3    H2 7289   6.843   6.432   4.102
 2450TIP3   OH2 7290   6.030   5.766   6.694
 2450TIP3    H1 7291   5.943   5.804   6.681
 2450TIP3    H2 7292   6.048   5.781   6.787
 2451TIP3   OH2 7293   7.383   2.693   2.378
 2451TIP3    H1 7294   7.324   2.768   2.385
 2451TIP3    H2 7295   7.332   2.627   2.330
 2452TIP3   OH2 7296   4.876   3.692   0.725
 2452TIP3    H1 7297   4.941   3.737   0.671
 2452TIP3    H2 7298   4.843   3.760   0.783
 2453TIP3   OH2 7299   7.955   2.919   2.831
 2453TIP3    H1 7300   7.982   2.915   2.923
 2453TIP3    H2 7301   7.988   3.004   2.801
 2454TIP3   OH2 7302   3.730   6.785   0.018
 2454TIP3    H1 7303   3.653   6.730   0.034
 2454TIP3    H2 7304   3.801   6.722   0.004
 2455TIP3   OH2 7305   0.955   2.896   3.712
 2455TIP3    H1 7306   0.920   2.928   3.629
 2455TIP3    H2 7307   1.050   2.896   3.700
 2456TIP3   OH2 7308   5.800   1.033   3.665
 2456TIP3    H1 7309   5.727   0.977   3.691
 2456TIP3    H2 7310   5.809   1.096   3.736
 2457TIP3   OH2 7311   1.496   3.935   2.830
 2457TIP3    H1 7312   1.482   3.869   2.897
 2457TIP3    H2 7313   1.552   3.893   2.765
 2458TIP3   OH2 7314   5.709   5.488   3.446
 2458TIP3    H1 7315   5.636   5.545   3.422
 2458TIP3    H2 7316   5.787   5.541   3.431
 2459TIP3   OH2 7317   7.799   6.319   0.993
 2459TIP3    H1 7318   7.734   6.372   0.947
 2459TIP3    H2 7319   7.793   6.232   0.952
 2460TIP3   OH2 7320   2.214   2.569   6.418
 2460TIP3    H1 7321   2.260   2.593   6.498
 2460TIP3    H2 7322   2.121   2.580   6.439
 2461TIP3   OH2 7323   6.114   1.443   4.969
 2461TIP3    H1 7324   6.033   1.415   4.928
 2461TIP3    H2 7325   6.143   1.368   5.021
 2462TIP3   OH2 7326   7.287   5.213   2.800
 2462TIP3    H1 7327   7.293   5.185   2.892
 2462TIP3    H2 7328   7.199   5.249   2.792
 2463TIP3   OH2 7329   7.067   4.141   0.521
 2463TIP3    H1 7330   7.017   4.125   0.441
 2463TIP3    H2 7331   7.131   4.070   0.525
 2464TIP3   OH2 7332   7.705   5.037   4.250
 2464TIP3    H1 7333   7.734   5.009   4.337
 2464TIP3    H2 7334   7.610   5.026   4.251
 2465TIP3   OH2 7335   5.568   4.032   3.504
 2465TIP3    H1 7336   5.569   4.067   3.415
 2465TIP3    H2 7337   5.542   4.106   3.559
 2466TIP3   OH2 7338   8.075   3.378   0.733
 2466TIP3    H1 7339   8.015   3.365   0.659
 2466TIP3    H2 7340   8.156   3.335   0.705
 2467TIP3   OH2 7341   3.527   3.012   1.302
 2467TIP3    H1 7342   3.500   3.095   1.341
 2467TIP3    H2 7343   3.465   2.998   1.231
 2468TIP3   OH2 7344   4.099   5.913   5.447
 2468TIP3    H1 7345   4.134   5.934   5.534
 2468TIP3    H2 7346   4.109   5.993   5.397
 2469TIP3   OH2 7347   0.974   2.273   5.884
 2469TIP3    H1 7348   1.046   2.237   5.831
 2469TIP3    H2 7349   0.897   2.224   5.854
 2470TIP3   OH2 7350   2.772   2.361   1.731
 2470TIP3    H1 7351   2.700   2.299   1.744
 2470TIP3    H2 7352   2.733   2.447   1.744
 2471TIP3   OH2 7353   3.711   0.788   0.460
 2471TIP3    H1 7354   3.644   0.808   0.394
 2471TIP3    H2 7355   3.664   0.742   0.529
 2472TIP3   OH2 7356   6.602   0.189   1.704
 2472TIP3    H1 7357   6.575   0.103   1.737
 2472TIP3    H2 7358   6.534   0.249   1.734
 2473TIP3   OH2 7359   3.588   1.122   6.581
 2473TIP3    H1 7360   3.561   1.124   6.673
 2473TIP3    H2 7361   3.592   1.029   6.559
 2474TIP3   OH2 7362   2.911   7.417   1.237
 2474TIP3    H1 7363   2.890   7.352   1.170
 2474TIP3    H2 7364   2.842   7.483   1.230
 2475TIP3   OH2 7365   3.112   4.730   0.869
 2475TIP3    H1 7366   3.127   4.683   0.951
 2475TIP3    H2 7367   3.146   4.818   0.885
 2476TIP3   OH2 7368   6.786   3.448   3.371
 2476TIP3    H1 7369   6.754   3.413   3.454
 2476TIP3    H2 7370   6.775   3.377   3.309
 2477TIP3   OH2 7371   1.734   3.430   5.592
 2477TIP3    H1 7372   1.774   3.479   5.521
 2477TIP3    H2 7373   1.642   3.456   5.590
 2478TIP3   OH2 7374   7.880   3.463   6.096
 2478TIP3    H1 7375   7.950   3.518   6.059
 2478TIP3    H2 7376   7.799   3.506   6.069
 2479TIP3   OH2 7377   6.846   2.263   5.608
 2479TIP3    H1 7378   6.906   2.330   5.574
 2479TIP3    H2 7379   6.868   2.256   5.701
 2480TIP3   OH2 7380   6.601   3.017   5.171
 2480TIP3    H1 7381   6.567   3.085   5.229
 2480TIP3    H2 7382   6.655   3.064   5.107
 2481TIP3   OH2 7383   4.250   1.280   0.063
 2481TIP3    H1 7384   4.327   1.246   0.110
 2481TIP3    H2 7385   4.225   1.358   0.113
 2482TIP3   OH2 7386   2.433   5.737   4.013
 2482TIP3    H1 7387   2.348   5.714   3.976
 2482TIP3    H2 7388   2.435   5.833   4.012
 2483TIP3   OH2 7389   1.904   7.443   0.393
 2483TIP3    H1 7390   1.867   7.380   0.331
 2483TIP3    H2 7391   1.983   7.400   0.426
 2484TIP3   OH2 7392   7.504   3.888   3.141
 2484TIP3    H1 7393   7.471   3.798   3.149
 2484TIP3    H2 7394   7.541   3.891   3.052
 2485TIP3   OH2 7395   2.573   0.117   5.398
 2485TIP3    H1 7396   2.541   0.137   5.310
 2485TIP3    H2 7397   2.590   0.023   5.397
 2486TIP3   OH2 7398   6.168   2.220   6.801
 2486TIP3    H1 7399   6.137   2.248   6.714
 2486TIP3    H2 7400   6.141   2.129   6.808
 2487TIP3   OH2 7401   5.343   4.576   2.974
 2487TIP3    H1 7402   5.320   4.669   2.981
 2487TIP3    H2 7403   5.351   4.560   2.880
 2488TIP3   OH2 7404   2.838   7.748   3.587
 2488TIP3    H1 7405   2.785   7.729   3.664
 2488TIP3    H2 7406   2.921   7.781   3.623
 2489TIP3   OH2 7407   1.211   4.680   1.281
 2489TIP3    H1 7408   1.209   4.769   1.317
 2489TIP3    H2 7409   1.167   4.688   1.196
 2490TIP3   OH2 7410   8.099   0.067   6.632
 2490TIP3    H1 7411   8.167   0.054   6.566
 2490TIP3    H2 7412   8.117   0.155   6.667
 2491TIP3   OH2 7413   7.740   0.971   3.209
 2491TIP3    H1 7414   7.704   0.967   3.120
 2491TIP3    H2 7415   7.668   1.004   3.262
 2492TIP3   OH2 7416   8.101   2.558   2.841
 2492TIP3    H1 7417   8.056   2.506   2.775
 2492TIP3    H2 7418   8.034   2.579   2.906
 2493TIP3   OH2 7419   2.012   5.029   5.282
 2493TIP3    H1 7420   2.073   4.976   5.232
 2493TIP3    H2 7421   2.067   5.081   5.340
 2494TIP3   OH2 7422   0.817   5.855   0.299
 2494TIP3    H1 7423   0.870   5.926   0.336
 2494TIP3    H2 7424   0.865   5.828   0.221
 2495TIP3   OH2 7425   6.620   6.438   0.772
 2495TIP3    H1 7426   6.675   6.502   0.818
 2495TIP3    H2 7427   6.676   6.360   0.764
 2496TIP3   OH2 7428   1.831   1.180   1.472
 2496TIP3    H1 7429   1.788   1.095   1.467
 2496TIP3    H2 7430   1.917   1.161   1.510
 2497TIP3   OH2 7431   7.459   7.433   3.992
 2497TIP3    H1 7432   7.522   7.472   3.931
 2497TIP3    H2 7433   7.401   7.382   3.936
 2498TIP3   OH2 7434   0.362   3.021   0.284
 2498TIP3    H1 7435   0.339   3.066   0.366
 2498TIP3    H2 7436   0.419   3.083   0.238
 2499TIP3   OH2 7437   6.231   3.823   0.332
 2499TIP3    H1 7438   6.209   3.863   0.248
 2499TIP3    H2 7439   6.148   3.786   0.364
 2500TIP3   OH2 7440   7.510   2.183   1.691
 2500TIP3    H1 7441   7.491   2.175   1.784
 2500TIP3    H2 7442   7.530   2.276   1.678
 2501TIP3   OH2 7443   7.472   6.319   5.054
 2501TIP3    H1 7444   7.409   6.264   5.006
 2501TIP3    H2 7445   7.502   6.382   4.989
 2502TIP3   OH2 7446   0.961   7.089   6.424
 2502TIP3    H1 7447   1.054   7.071   6.437
 2502TIP3    H2 7448   0.954   7.185   6.426
 2503TIP3   OH2 7449   6.354   2.503   4.550
 2503TIP3    H1 7450   6.275   2.448   4.551
 2503TIP3    H2 7451   6.325   2.586   4.512
 2504TIP3   OH2 7452   1.151   2.456   5.712
 2504TIP3    H1 7453   1.069   2.481   5.669
 2504TIP3    H2 7454   1.141   2.362   5.730
 2505TIP3   OH2 7455   3.301  -0.005   4.397
 2505TIP3    H1 7456   3.314  -0.050   4.313
 2505TIP3    H2 7457   3.361  -0.049   4.457
 2506TIP3   OH2 7458   0.174   6.798   3.981
 2506TIP3    H1 7459   0.158   6.779   3.889
 2506TIP3    H2 7460   0.153   6.717   4.027
 2507TIP3   OH2 7461   1.890   1.430   6.481
 2507TIP3    H1 7462   1.893   1.526   6.481
 2507TIP3    H2 7463   1.859   1.408   6.393
 2508TIP3   OH2 7464   5.091   3.805   6.270
 2508TIP3    H1 7465   5.147   3.728   6.259
 2508TIP3    H2 7466   5.118   3.865   6.201
 2509TIP3   OH2 7467   2.158   6.953   3.406
 2509TIP3    H1 7468   2.172   6.860   3.389
 2509TIP3    H2 7469   2.073   6.956   3.452
 2510TIP3   OH2 7470   2.219   2.936   0.096
 2510TIP3    H1 7471   2.173   2.854   0.111
 2510TIP3    H2 7472   2.281   2.942   0.168
 2511TIP3   OH2 7473   7.149   7.467   6.237
 2511TIP3    H1 7474   7.208   7.413   6.289
 2511TIP3    H2 7475   7.068   7.471   6.288
 2512TIP3   OH2 7476   8.119   1.573   2.351
 2512TIP3    H1 7477   8.099   1.661   2.320
 2512TIP3    H2 7478   8.168   1.533   2.280
 2513TIP3   OH2 7479   7.903   3.942   0.183
 2513TIP3    H1 7480   7.994   3.916   0.166
 2513TIP3    H2 7481   7.881   3.899   0.265
 2514TIP3   OH2 7482   5.645   2.647   2.582
 2514TIP3    H1 7483   5.568   2.658   2.527
 2514TIP3    H2 7484   5.650   2.553   2.598
 2515TIP3   OH2 7485   6.748   7.224   5.926
 2515TIP3    H1 7486   6.841   7.207   5.913
 2515TIP3    H2 7487   6.744   7.280   6.003
 2516TIP3   OH2 7488   0.813   0.125   5.384
 2516TIP3    H1 7489   0.854   0.206   5.417
 2516TIP3    H2 7490   0.807   0.069   5.461
 2517TIP3   OH2 7491   0.861   5.021   3.494
 2517TIP3    H1 7492   0.783   4.972   3.467
 2517TIP3    H2 7493   0.830   5.110   3.509
 2518TIP3   OH2 7494   6.373   0.849   3.645
 2518TIP3    H1 7495   6.325   0.886   3.572
 2518TIP3    H2 7496   6.397   0.925   3.699
 2519TIP3   OH2 7497   3.533   6.906   5.907
 2519TIP3    H1 7498   3.447   6.914   5.948
 2519TIP3    H2 7499   3.593   6.896   5.980
 2520TIP3   OH2 7500   5.700   7.672   6.811
 2520TIP3    H1 7501   5.738   7.615   6.743
 2520TIP3    H2 7502   5.689   7.757   6.767
 2521TIP3   OH2 7503   8.124   3.937   2.319
 2521TIP3    H1 7504   8.154   3.950   2.229
 2521TIP3    H2 7505   8.066   4.011   2.336
 2522TIP3   OH2 7506   3.821   4.092   5.211
 2522TIP3    H1 7507   3.861   4.156   5.151
 2522TIP3    H2 7508   3.872   4.100   5.291
 2523TIP3   OH2 7509   3.057   7.839   3.688
 2523TIP3    H1 7510   3.086   7.923   3.653
 2523TIP3    H2 7511   3.067   7.848   3.783
 2524TIP3   OH2 7512   0.902   0.798   1.616
 2524TIP3    H1 7513   0.860   0.742   1.681
 2524TIP3    H2 7514   0.986   0.821   1.655
 2525TIP3   OH2 7515   2.064   1.343   0.418
 2525TIP3    H1 7516   2.059   1.430   0.457
 2525TIP3    H2 7517   2.008   1.348   0.341
 2526TIP3   OH2 7518   4.689   4.154   3.156
 2526TIP3    H1 7519   4.703   4.234   3.206
 2526TIP3    H2 7520   4.676   4.184   3.066
 2527TIP3   OH2 7521   6.080   7.505   1.754
 2527TIP3    H1 7522   6.016   7.436   1.774
 2527TIP3    H2 7523   6.092   7.499   1.659
 2528TIP3   OH2 7524   7.423   6.476   1.755
 2528TIP3    H1 7525   7.487   6.482   1.684
 2528TIP3    H2 7526   7.439   6.554   1.808
 2529TIP3   OH2 7527   6.740   7.379   3.441
 2529TIP3    H1 7528   6.826   7.412   3.417
 2529TIP3    H2 7529   6.695   7.453   3.482
 2530TIP3   OH2 7530   1.796   4.981   3.468
 2530TIP3    H1 7531   1.821   4.956   3.557
 2530TIP3    H2 7532   1.704   5.006   3.476
 2531TIP3   OH2 7533   2.060   7.452   4.958
 2531TIP3    H1 7534   2.015   7.515   4.902
 2531TIP3    H2 7535   2.152   7.462   4.937
 2532TIP3   OH2 7536   6.197   2.896   0.064
 2532TIP3    H1 7537   6.210   2.986   0.033
 2532TIP3    H2 7538   6.107   2.875   0.039
 2533TIP3   OH2 7539   1.150   4.898   2.408
 2533TIP3    H1 7540   1.093   4.836   2.362
 2533TIP3    H2 7541   1.092   4.969   2.433
 2534TIP3   OH2 7542   5.041   6.607   3.506
 2534TIP3    H1 7543   5.001   6.597   3.420
 2534TIP3    H2 7544   5.024   6.524   3.550
 2535TIP3   OH2 7545   7.871   6.281   3.046
 2535TIP3    H1 7546   7.905   6.193   3.058
 2535TIP3    H2 7547   7.799   6.271   2.983
 2536TIP3   OH2 7548   5.693   6.107   0.773
 2536TIP3    H1 7549   5.765   6.165   0.799
 2536TIP3    H2 7550   5.643   6.158   0.709
 2537TIP3   OH2 7551   5.002   5.993   6.651
 2537TIP3    H1 7552   5.072   5.931   6.672
 2537TIP3    H2 7553   5.044   6.056   6.591
 2538TIP3   OH2 7554   1.653   0.056   0.342
 2538TIP3    H1 7555   1.597   0.003   0.399
 2538TIP3    H2 7556   1.739   0.013   0.346
 2539TIP3   OH2 7557   7.010   0.292   4.706
 2539TIP3    H1 7558   7.102   0.294   4.732
 2539TIP3    H2 7559   6.974   0.218   4.755
 2540TIP3   OH2 7560   0.886   1.148   1.311
 2540TIP3    H1 7561   0.884   1.086   1.239
 2540TIP3    H2 7562   0.979   1.163   1.328
 2541TIP3   OH2 7563   2.744   4.324   2.849
 2541TIP3    H1 7564   2.761   4.377   2.772
 2541TIP3    H2 7565   2.721   4.237   2.815
 2542TIP3   OH2 7566   2.158   0.209   4.100
 2542TIP3    H1 7567   2.237   0.193   4.151
 2542TIP3    H2 7568   2.189   0.260   4.024
 2543TIP3   OH2 7569   1.244   2.872   5.042
 2543TIP3    H1 7570   1.205   2.842   5.124
 2543TIP3    H2 7571   1.337   2.881   5.061
 2544TIP3   OH2 7572   3.974   4.088   0.642
 2544TIP3    H1 7573   4.035   4.150   0.604
 2544TIP3    H2 7574   3.981   4.100   0.737
 2545TIP3   OH2 7575   0.327   1.545   4.085
 2545TIP3    H1 7576   0.282   1.504   4.158
 2545TIP3    H2 7577   0.349   1.633   4.116
 2546TIP3   OH2 7578   5.141   2.836   2.735
 2546TIP3    H1 7579   5.200   2.875   2.800
 2546TIP3    H2 7580   5.200   2.792   2.673
 2547TIP3   OH2 7581   1.108   6.202   4.274
 2547TIP3    H1 7582   1.016   6.217   4.296
 2547TIP3    H2 7583   1.119   6.107   4.286
 2548TIP3   OH2 7584   2.215   1.392   5.330
 2548TIP3    H1 7585   2.130   1.435   5.343
 2548TIP3    H2 7586   2.266   1.418   5.407
 2549TIP3   OH2 7587   7.420   1.363   0.239
 2549TIP3    H1 7588   7.503   1.324   0.267
 2549TIP3    H2 7589   7.362   1.288   0.225
 2550TIP3   OH2 7590   4.183   2.127   2.939
 2550TIP3    H1 7591   4.188   2.044   2.986
 2550TIP3    H2 7592   4.142   2.106   2.855
 2551TIP3   OH2 7593   2.177   5.848   5.276
 2551TIP3    H1 7594   2.202   5.813   5.362
 2551TIP3    H2 7595   2.139   5.773   5.230
 2552TIP3   OH2 7596   8.247   5.533   2.218
 2552TIP3    H1 7597   8.202   5.617   2.208
 2552TIP3    H2 7598   8.321   5.551   2.275
 2553TIP3   OH2 7599   6.549   0.581   0.646
 2553TIP3    H1 7600   6.567   0.519   0.715
 2553TIP3    H2 7601   6.633   0.592   0.600
 2554TIP3   OH2 7602   7.810   4.312   3.073
 2554TIP3    H1 7603   7.824   4.256   3.149
 2554TIP3    H2 7604   7.817   4.253   2.998
 2555TIP3   OH2 7605   0.682   5.001   2.056
 2555TIP3    H1 7606   0.735   5.023   2.132
 2555TIP3    H2 7607   0.695   4.907   2.044
 2556TIP3   OH2 7608   6.049   0.763   1.309
 2556TIP3    H1 7609   6.097   0.741   1.389
 2556TIP3    H2 7610   5.982   0.695   1.302
 2557TIP3   OH2 7611   1.769   3.918   6.477
 2557TIP3    H1 7612   1.742   3.830   6.502
 2557TIP3    H2 7613   1.863   3.920   6.495
 2558TIP3   OH2 7614   3.829   1.192   1.619
 2558TIP3    H1 7615   3.912   1.152   1.592
 2558TIP3    H2 7616   3.764   1.123   1.605
 2559TIP3   OH2 7617   8.226   1.092   6.360
 2559TIP3    H1 7618   8.185   1.152   6.297
 2559TIP3    H2 7619   8.176   1.104   6.440
 2560TIP3   OH2 7620   2.455   0.811   0.859
 2560TIP3    H1 7621   2.462   0.718   0.881
 2560TIP3    H2 7622   2.361   0.824   0.842
 2561TIP3   OH2 7623   7.094   1.958   5.013
 2561TIP3    H1 7624   7.120   1.993   4.927
 2561TIP3    H2 7625   7.001   1.978   5.019
 2562TIP3   OH2 7626   2.467   2.335   2.617
 2562TIP3    H1 7627   2.449   2.359   2.707
 2562TIP3    H2 7628   2.436   2.246   2.608
 2563TIP3   OH2 7629   3.555   3.466   2.611
 2563TIP3    H1 7630   3.639   3.497   2.645
 2563TIP3    H2 7631   3.501   3.454   2.689
 2564TIP3   OH2 7632   5.734   5.858   0.420
 2564TIP3    H1 7633   5.663   5.824   0.474
 2564TIP3    H2 7634   5.809   5.861   0.479
 2565TIP3   OH2 7635   2.671   1.748   6.257
 2565TIP3    H1 7636   2.578   1.725   6.253
 2565TIP3    H2 7637   2.717   1.664   6.251
 2566TIP3   OH2 7638   6.572   4.349   5.017
 2566TIP3    H1 7639   6.567   4.443   5.003
 2566TIP3    H2 7640   6.495   4.328   5.069
 2567TIP3   OH2 7641   3.926   4.875   3.917
 2567TIP3    H1 7642   3.921   4.841   3.828
 2567TIP3    H2 7643   3.907   4.968   3.909
 2568TIP3   OH2 7644   2.562   3.243   1.289
 2568TIP3    H1 7645   2.588   3.253   1.381
 2568TIP3    H2 7646   2.516   3.159   1.286
 2569TIP3   OH2 7647   5.756   3.874   3.317
 2569TIP3    H1 7648   5.829   3.893   3.257
 2569TIP3    H2 7649   5.738   3.958   3.359
 2570TIP3   OH2 7650   4.640   0.713   0.754
 2570TIP3    H1 7651   4.573   0.765   0.710
 2570TIP3    H2 7652   4.719   0.767   0.749
 2571TIP3   OH2 7653   5.406   2.904   5.464
 2571TIP3    H1 7654   5.457   2.949   5.396
 2571TIP3    H2 7655   5.463   2.833   5.493
 2572TIP3   OH2 7656   6.360   6.044   2.585
 2572TIP3    H1 7657   6.426   5.975   2.590
 2572TIP3    H2 7658   6.308   6.033   2.665
 2573TIP3   OH2 7659   0.442   2.474   2.359
 2573TIP3    H1 7660   0.364   2.470   2.416
 2573TIP3    H2 7661   0.434   2.398   2.302
 2574TIP3   OH2 7662   0.827   5.989   3.299
 2574TIP3    H1 7663   0.914   5.955   3.321
 2574TIP3    H2 7664   0.842   6.080   3.275
 2575TIP3   OH2 7665   5.448   3.539   1.112
 2575TIP3    H1 7666   5.380   3.585   1.161
 2575TIP3    H2 7667   5.418   3.448   1.110
 2576TIP3   OH2 7668   4.206   4.014   6.289
 2576TIP3    H1 7669   4.226   4.108   6.284
 2576TIP3    H2 7670   4.290   3.973   6.307
 2577TIP3   OH2 7671   4.534   6.994   2.112
 2577TIP3    H1 7672   4.496   6.917   2.071
 2577TIP3    H2 7673   4.570   6.961   2.195
 2578TIP3   OH2 7674   6.901   2.232   1.320
 2578TIP3    H1 7675   6.862   2.299   1.376
 2578TIP3    H2 7676   6.990   2.222   1.354
 2579TIP3   OH2 7677   1.274   0.094   2.339
 2579TIP3    H1 7678   1.192   0.143   2.335
 2579TIP3    H2 7679   1.313   0.119   2.423
 2580TIP3   OH2 7680   2.700   0.709   6.123
 2580TIP3    H1 7681   2.679   0.789   6.171
 2580TIP3    H2 7682   2.709   0.642   6.191
 2581TIP3   OH2 7683   5.348   3.837   0.994
 2581TIP3    H1 7684   5.302   3.815   1.075
 2581TIP3    H2 7685   5.370   3.930   1.003
 2582TIP3   OH2 7686   5.317   6.166   2.065
 2582TIP3    H1 7687   5.280   6.253   2.048
 2582TIP3    H2 7688   5.263   6.130   2.135
 2583TIP3   OH2 7689   0.823   3.189   5.670
 2583TIP3    H1 7690   0.826   3.176   5.575
 2583TIP3    H2 7691   0.752   3.251   5.683
 2584TIP3   OH2 7692   1.087   7.234   1.921
 2584TIP3    H1 7693   1.006   7.277   1.892
 2584TIP3    H2 7694   1.109   7.173   1.850
 2585TIP3   OH2 7695   1.137   5.638   0.345
 2585TIP3    H1 7696   1.192   5.591   0.282
 2585TIP3    H2 7697   1.128   5.578   0.419
 2586TIP3   OH2 7698   6.346   1.940   1.659
 2586TIP3    H1 7699   6.303   1.918   1.741
 2586TIP3    H2 7700   6.329   1.866   1.601
 2587TIP3   OH2 7701   5.176   1.874   3.336
 2587TIP3    H1 7702   5.199   1.898   3.246
 2587TIP3    H2 7703   5.097   1.820   3.327
 2588TIP3   OH2 7704   1.882   5.210   1.731
 2588TIP3    H1 7705   1.852   5.234   1.818
 2588TIP3    H2 7706   1.867   5.115   1.726
 2589TIP3   OH2 7707   5.587   6.009  -0.017
 2589TIP3    H1 7708   5.586   5.950   0.058
 2589TIP3    H2 7709   5.514   6.069  -0.002
 2590TIP3   OH2 7710   5.533   4.802   5.136
 2590TIP3    H1 7711   5.546   4.709   5.121
 2590TIP3    H2 7712   5.567   4.818   5.224
 2591TIP3   OH2 7713   4.037   3.418   5.079
 2591TIP3    H1 7714   3.984   3.407   5.157
 2591TIP3    H2 7715   3.973   3.430   5.008
 2592TIP3   OH2 7716   4.587   6.796   6.447
 2592TIP3    H1 7717   4.527   6.739   6.399
 2592TIP3    H2 7718   4.652   6.736   6.484
 2593TIP3   OH2 7719   4.943   4.645   2.471
 2593TIP3    H1 7720   4.965   4.710   2.538
 2593TIP3    H2 7721   5.010   4.657   2.404
 2594TIP3   OH2 7722   4.549   0.902   1.494
 2594TIP3    H1 7723   4.538   0.825   1.550
 2594TIP3    H2 7724   4.462   0.943   1.493
 2595TIP3   OH2 7725   5.154   4.528   5.533
 2595TIP3    H1 7726   5.109   4.611   5.550
 2595TIP3    H2 7727   5.102   4.486   5.465
 2596TIP3   OH2 7728   3.131   0.555   0.188
 2596TIP3    H1 7729   3.222   0.557   0.158
 2596TIP3    H2 7730   3.124   0.474   0.238
 2597TIP3   OH2 7731   0.804   5.323   5.382
 2597TIP3    H1 7732   0.720   5.310   5.427
 2597TIP3    H2 7733   0.868   5.278   5.438
 2598TIP3   OH2 7734   2.631   2.542   4.316
 2598TIP3    H1 7735   2.704   2.604   4.317
 2598TIP3    H2 7736   2.609   2.528   4.408
 2599TIP3   OH2 7737   3.557   2.325   2.690
 2599TIP3    H1 7738   3.489   2.279   2.641
 2599TIP3    H2 7739   3.625   2.259   2.703
 2600TIP3   OH2 7740   6.714   6.464   5.666
 2600TIP3    H1 7741   6.781   6.517   5.622
 2600TIP3    H2 7742   6.631   6.503   5.639
 2601TIP3   OH2 7743   7.173   5.038   4.502
 2601TIP3    H1 7744   7.101   5.003   4.554
 2601TIP3    H2 7745   7.131   5.079   4.427
 2602TIP3   OH2 7746   6.304   1.306   1.849
 2602TIP3    H1 7747   6.220   1.342   1.822
 2602TIP3    H2 7748   6.352   1.293   1.767
 2603TIP3   OH2 7749   4.002   2.231   0.530
 2603TIP3    H1 7750   3.932   2.229   0.595
 2603TIP3    H2 7751   3.986   2.155   0.474
 2604TIP3   OH2 7752   8.112   6.606   6.015
 2604TIP3    H1 7753   8.029   6.625   5.971
 2604TIP3    H2 7754   8.116   6.510   6.018
 2605TIP3   OH2 7755   6.569   5.352   6.321
 2605TIP3    H1 7756   6.565   5.269   6.274
 2605TIP3    H2 7757   6.507   5.409   6.274
 2606TIP3   OH2 7758   1.333   6.750   3.386
 2606TIP3    H1 7759   1.240   6.748   3.409
 2606TIP3    H2 7760   1.378   6.761   3.470
 2607TIP3   OH2 7761   0.364   7.195   4.631
 2607TIP3    H1 7762   0.347   7.249   4.553
 2607TIP3    H2 7763   0.440   7.142   4.607
 2608TIP3   OH2 7764   4.906   1.301   6.530
 2608TIP3    H1 7765   4.893   1.330   6.621
 2608TIP3    H2 7766   4.842   1.351   6.479
 2609TIP3   OH2 7767   6.331   2.024   0.253
 2609TIP3    H1 7768   6.403   2.087   0.254
 2609TIP3    H2 7769   6.265   2.064   0.195
 2610TIP3   OH2 7770   7.545   0.747   6.188
 2610TIP3    H1 7771   7.614   0.813   6.194
 2610TIP3    H2 7772   7.518   0.732   6.279
 2611TIP3   OH2 7773   1.342   5.356   4.603
 2611TIP3    H1 7774   1.317   5.433   4.550
 2611TIP3    H2 7775   1.352   5.390   4.692
 2612TIP3   OH2 7776   7.074   1.197   2.027
 2612TIP3    H1 7777   7.090   1.134   2.098
 2612TIP3    H2 7778   7.076   1.282   2.071
 2613TIP3   OH2 7779   3.829   2.673   5.689
 2613TIP3    H1 7780   3.762   2.725   5.734
 2613TIP3    H2 7781   3.855   2.728   5.614
 2614TIP3   OH2 7782   2.932   7.839   1.640
 2614TIP3    H1 7783   2.905   7.766   1.584
 2614TIP3    H2 7784   3.010   7.807   1.684
 2615TIP3   OH2 7785   5.963   5.473   5.955
 2615TIP3    H1 7786   5.972   5.556   6.002
 2615TIP3    H2 7787   5.897   5.491   5.888
 2616TIP3   OH2 7788   0.227   0.921   3.862
 2616TIP3    H1 7789   0.158   0.876   3.910
 2616TIP3    H2 7790   0.185   0.954   3.784
 2617TIP3   OH2 7791   4.962   7.439   6.413
 2617TIP3    H1 7792   4.978   7.416   6.322
 2617TIP3    H2 7793   4.982   7.532   6.419
 2618TIP3   OH2 7794   3.918   4.420   1.974
 2618TIP3    H1 7795   4.013   4.435   1.982
 2618TIP3    H2 7796   3.898   4.440   1.883
 2619TIP3   OH2 7797   5.599   7.445   4.030
 2619TIP3    H1 7798   5.526   7.436   3.969
 2619TIP3    H2 7799   5.597   7.538   4.056
 2620TIP3   OH2 7800   2.752   1.775   0.265
 2620TIP3    H1 7801   2.795   1.842   0.212
 2620TIP3    H2 7802   2.804   1.696   0.251
 2621TIP3   OH2 7803   2.505   0.105   4.843
 2621TIP3    H1 7804   2.502   0.129   4.936
 2621TIP3    H2 7805   2.587   0.057   4.833
 2622TIP3   OH2 7806   5.251   0.214   4.283
 2622TIP3    H1 7807   5.273   0.122   4.295
 2622TIP3    H2 7808   5.333   0.255   4.254
 2623TIP3   OH2 7809   6.946   7.381   5.413
 2623TIP3    H1 7810   7.021   7.330   5.381
 2623TIP3    H2 7811   6.933   7.349   5.503
 2624TIP3   OH2 7812   0.897   5.556   3.490
 2624TIP3    H1 7813   0.951   5.540   3.568
 2624TIP3    H2 7814   0.960   5.574   3.421
 2625TIP3   OH2 7815   0.958   1.454   4.997
 2625TIP3    H1 7816   0.943   1.456   5.092
 2625TIP3    H2 7817   0.919   1.535   4.964
 2626TIP3   OH2 7818   1.184   6.101   5.384
 2626TIP3    H1 7819   1.255   6.150   5.341
 2626TIP3    H2 7820   1.226   6.021   5.414
 2627TIP3   OH2 7821   3.857   1.809   4.007
 2627TIP3    H1 7822   3.810   1.749   4.065
 2627TIP3    H2 7823   3.838   1.896   4.043
 2628TIP3   OH2 7824   1.979   6.114   2.289
 2628TIP3    H1 7825   2.014   6.136   2.202
 2628TIP3    H2 7826   2.052   6.130   2.349
 2629TIP3   OH2 7827   3.908   1.744   4.320
 2629TIP3    H1 7828   3.995   1.773   4.293
 2629TIP3    H2 7829   3.858   1.825   4.330
 2630TIP3   OH2 7830   0.146   4.687   3.428
 2630TIP3    H1 7831   0.184   4.726   3.349
 2630TIP3    H2 7832   0.114   4.761   3.479
 2631TIP3   OH2 7833   5.660   1.773   0.387
 2631TIP3    H1 7834   5.689   1.755   0.297
 2631TIP3    H2 7835   5.727   1.731   0.442
 2632TIP3   OH2 7836   4.663   3.613   1.498
 2632TIP3    H1 7837   4.722   3.546   1.463
 2632TIP3    H2 7838   4.596   3.624   1.431
 2633TIP3   OH2 7839   2.156   0.596   0.662
 2633TIP3    H1 7840   2.246   0.579   0.633
 2633TIP3    H2 7841   2.129   0.514   0.704
 2634TIP3   OH2 7842   5.304   2.360   1.746
 2634TIP3    H1 7843   5.380   2.355   1.688
 2634TIP3    H2 7844   5.283   2.453   1.751
 2635TIP3   OH2 7845   4.411   2.468   5.886
 2635TIP3    H1 7846   4.359   2.534   5.932
 2635TIP3    H2 7847   4.498   2.507   5.879
 2636TIP3   OH2 7848   4.258   1.716   5.945
 2636TIP3    H1 7849   4.336   1.765   5.973
 2636TIP3    H2 7850   4.272   1.628   5.981
 2637TIP3   OH2 7851   8.302   4.217   0.684
 2637TIP3    H1 7852   8.261   4.131   0.680
 2637TIP3    H2 7853   8.379   4.205   0.740
 2638TIP3   OH2 7854   4.750   3.452   0.413
 2638TIP3    H1 7855   4.686   3.435   0.482
 2638TIP3    H2 7856   4.822   3.393   0.432
 2639TIP3   OH2 7857   2.853   6.033   3.594
 2639TIP3    H1 7858   2.762   6.003   3.597
 2639TIP3    H2 7859   2.897   5.983   3.662
 2640TIP3   OH2 7860   3.010   1.333   3.122
 2640TIP3    H1 7861   2.964   1.328   3.205
 2640TIP3    H2 7862   3.056   1.417   3.125
 2641TIP3   OH2 7863   6.763   0.525   4.793
 2641TIP3    H1 7864   6.832   0.505   4.730
 2641TIP3    H2 7865   6.724   0.606   4.761
 2642TIP3   OH2 7866   5.815   6.608   5.504
 2642TIP3    H1 7867   5.835   6.681   5.445
 2642TIP3    H2 7868   5.723   6.623   5.529
 2643TIP3   OH2 7869   0.665   1.655   2.321
 2643TIP3    H1 7870   0.595   1.687   2.265
 2643TIP3    H2 7871   0.724   1.608   2.261
 2644TIP3   OH2 7872   2.858   3.458   1.624
 2644TIP3    H1 7873   2.834   3.516   1.552
 2644TIP3    H2 7874   2.826   3.502   1.703
 2645TIP3   OH2 7875   5.835   7.333   3.942
 2645TIP3    H1 7876   5.756   7.367   3.983
 2645TIP3    H2 7877   5.859   7.257   3.996
 2646TIP3   OH2 7878   0.919   5.007   5.781
 2646TIP3    H1 7879   0.984   5.067   5.816
 2646TIP3    H2 7880   0.835   5.048   5.801
 2647TIP3   OH2 7881   3.682   0.387   0.193
 2647TIP3    H1 7882   3.599   0.377   0.239
 2647TIP3    H2 7883   3.692   0.304   0.145
 2648TIP3   OH2 7884   1.923   0.964   4.228
 2648TIP3    H1 7885   1.902   0.883   4.181
 2648TIP3    H2 7886   1.965   1.020   4.161
 2649TIP3   OH2 7887   7.714   6.254   6.205
 2649TIP3    H1 7888   7.706   6.212   6.291
 2649TIP3    H2 7889   7.677   6.191   6.143
 2650TIP3   OH2 7890   7.629   7.807   1.667
 2650TIP3    H1 7891   7.548   7.798   1.717
 2650TIP3    H2 7892   7.629   7.730   1.609
 2651TIP3   OH2 7893   4.858   0.736   1.706
 2651TIP3    H1 7894   4.779   0.774   1.743
 2651TIP3    H2 7895   4.895   0.682   1.776
 2652TIP3   OH2 7896   3.800   6.525   4.442
 2652TIP3    H1 7897   3.888   6.563   4.443
 2652TIP3    H2 7898   3.745   6.593   4.403
 2653TIP3   OH2 7899   7.784   6.144   3.816
 2653TIP3    H1 7900   7.712   6.136   3.878
 2653TIP3    H2 7901   7.841   6.211   3.853
 2654TIP3   OH2 7902   2.586   0.276   3.173
 2654TIP3    H1 7903   2.594   0.188   3.210
 2654TIP3    H2 7904   2.675   0.310   3.174
 2655TIP3   OH2 7905   7.277   4.853   0.752
 2655TIP3    H1 7906   7.350   4.792   0.752
 2655TIP3    H2 7907   7.304   4.923   0.691
 2656TIP3   OH2 7908   6.832   4.835   3.854
 2656TIP3    H1 7909   6.876   4.910   3.894
 2656TIP3    H2 7910   6.767   4.808   3.918
 2657TIP3   OH2 7911   0.010   7.282   2.468
 2657TIP3    H1 7912   0.036   7.203   2.515
 2657TIP3    H2 7913   0.092   7.329   2.452
 2658TIP3   OH2 7914   1.590   1.230   1.120
 2658TIP3    H1 7915   1.677   1.271   1.122
 2658TIP3    H2 7916   1.559   1.245   1.031
 2659TIP3   OH2 7917   1.899   7.635   2.510
 2659TIP3    H1 7918   1.951   7.694   2.565
 2659TIP3    H2 7919   1.951   7.554   2.506
 2660TIP3   OH2 7920   8.325   3.877   4.978
 2660TIP3    H1 7921   8.294   3.893   5.067
 2660TIP3    H2 7922   8.408   3.924   4.973
 2661TIP3   OH2 7923   6.948   4.960   4.620
 2661TIP3    H1 7924   6.949   5.032   4.683
 2661TIP3    H2 7925   6.883   4.899   4.654
 2662TIP3   OH2 7926   7.114   3.479   2.815
 2662TIP3    H1 7927   7.040   3.492   2.755
 2662TIP3    H2 7928   7.075   3.489   2.902
 2663TIP3   OH2 7929   3.925   5.604   3.828
 2663TIP3    H1 7930   3.964   5.578   3.911
 2663TIP3    H2 7931   3.845   5.552   3.821
 2664TIP3   OH2 7932   1.148   7.118   1.160
 2664TIP3    H1 7933   1.063   7.149   1.190
 2664TIP3    H2 7934   1.130   7.030   1.125
 2665TIP3   OH2 7935   6.292   7.266   3.128
 2665TIP3    H1 7936   6.329   7.210   3.060
 2665TIP3    H2 7937   6.252   7.338   3.080
 2666TIP3   OH2 7938   1.416   5.592   1.848
 2666TIP3    H1 7939   1.364   5.598   1.768
 2666TIP3    H2 7940   1.469   5.513   1.836
 2667TIP3   OH2 7941   8.105   6.930   5.080
 2667TIP3    H1 7942   8.011   6.945   5.067
 2667TIP3    H2 7943   8.131   6.877   5.005
 2668TIP3   OH2 7944   7.083   5.962   1.002
 2668TIP3    H1 7945   6.991   5.968   0.977
 2668TIP3    H2 7946   7.091   6.021   1.077
 2669TIP3   OH2 7947   1.004   6.452   6.192
 2669TIP3    H1 7948   1.068   6.385   6.168
 2669TIP3    H2 7949   1.001   6.511   6.116
 2670TIP3   OH2 7950   7.518   5.730   3.135
 2670TIP3    H1 7951   7.604   5.719   3.177
 2670TIP3    H2 7952   7.539   5.743   3.042
 2671TIP3   OH2 7953   6.364   5.367   2.912
 2671TIP3    H1 7954   6.429   5.349   2.843
 2671TIP3    H2 7955   6.305   5.431   2.873
 2672TIP3   OH2 7956   7.608   2.412   4.123
 2672TIP3    H1 7957   7.576   2.430   4.034
 2672TIP3    H2 7958   7.694   2.455   4.126
 2673TIP3   OH2 7959   4.864   1.746   6.023
 2673TIP3    H1 7960   4.858   1.656   6.054
 2673TIP3    H2 7961   4.865   1.799   6.103
 2674TIP3   OH2 7962   1.025   0.582   4.146
 2674TIP3    H1 7963   1.080   0.575   4.068
 2674TIP3    H2 7964   1.077   0.541   4.215
 2675TIP3   OH2 7965   4.729   6.420   1.787
 2675TIP3    H1 7966   4.771   6.400   1.870
 2675TIP3    H2 7967   4.801   6.446   1.729
 2676TIP3   OH2 7968   4.535   0.367   0.266
 2676TIP3    H1 7969   4.549   0.396   0.356
 2676TIP3    H2 7970   4.597   0.419   0.214
 2677TIP3   OH2 7971   7.889   0.172   0.344
 2677TIP3    H1 7972   7.925   0.204   0.261
 2677TIP3    H2 7973   7.905   0.078   0.341
 2678TIP3   OH2 7974   3.078   3.893   5.183
 2678TIP3    H1 7975   3.100   3.898   5.276
 2678TIP3    H2 7976   3.162   3.885   5.139
 2679TIP3   OH2 7977   2.359   6.743   4.116
 2679TIP3    H1 7978   2.374   6.758   4.209
 2679TIP3    H2 7979   2.432   6.786   4.072
 2680TIP3   OH2 7980   8.235   3.776   3.818
 2680TIP3    H1 7981   8.265   3.838   3.751
 2680TIP3    H2 7982   8.163   3.820   3.862
 2681TIP3   OH2 7983   2.750   5.974   2.542
 2681TIP3    H1 7984   2.844   5.994   2.542
 2681TIP3    H2 7985   2.738   5.922   2.462
 2682TIP3   OH2 7986   1.143   7.699   2.890
 2682TIP3    H1 7987   1.093   7.739   2.819
 2682TIP3    H2 7988   1.228   7.677   2.851
 2683TIP3   OH2 7989   4.359   3.935   4.568
 2683TIP3    H1 7990   4.329   4.016   4.608
 2683TIP3    H2 7991   4.291   3.871   4.588
 2684TIP3   OH2 7992   1.820   7.496   0.840
 2684TIP3    H1 7993   1.892   7.503   0.904
 2684TIP3    H2 7994   1.745   7.534   0.885
 2685TIP3   OH2 7995   5.640   5.975   2.322
 2685TIP3    H1 7996   5.695   6.046   2.288
 2685TIP3    H2 7997   5.685   5.895   2.295
 2686TIP3   OH2 7998   7.231   6.344   5.442
 2686TIP3    H1 7999   7.199   6.267   5.490
 2686TIP3    H2 8000   7.310   6.312   5.397
 2687TIP3   OH2 8001   6.365   6.420   3.117
 2687TIP3    H1 8002   6.299   6.396   3.052
 2687TIP3    H2 8003   6.419   6.486   3.074
 2688TIP3   OH2 8004   5.156   5.974   0.963
 2688TIP3    H1 8005   5.179   6.061   0.930
 2688TIP3    H2 8006   5.201   5.967   1.047
 2689TIP3   OH2 8007   7.643   6.214   4.785
 2689TIP3    H1 8008   7.694   6.283   4.829
 2689TIP3    H2 8009   7.692   6.134   4.803
 2690TIP3   OH2 8010   3.632   4.591   6.268
 2690TIP3    H1 8011   3.724   4.614   6.269
 2690TIP3    H2 8012   3.629   4.500   6.297
 2691TIP3   OH2 8013   3.474   7.296   6.141
 2691TIP3    H1 8014   3.557   7.320   6.099
 2691TIP3    H2 8015   3.407   7.326   6.080
 2692TIP3   OH2 8016   0.806   3.567   1.272
 2692TIP3    H1 8017   0.785   3.486   1.319
 2692TIP3    H2 8018   0.901   3.567   1.266
 2693TIP3   OH2 8019   7.829   2.756   1.285
 2693TIP3    H1 8020   7.924   2.751   1.276
 2693TIP3    H2 8021   7.796   2.733   1.198
 2694TIP3   OH2 8022   0.254   5.974   2.614
 2694TIP3    H1 8023   0.316   6.041   2.584
 2694TIP3    H2 8024   0.306   5.918   2.672
 2695TIP3   OH2 8025   5.425   2.533   3.337
 2695TIP3    H1 8026   5.451   2.442   3.350
 2695TIP3    H2 8027   5.445   2.551   3.245
 2696TIP3   OH2 8028   3.279   0.259   5.703
 2696TIP3    H1 8029   3.223   0.328   5.738
 2696TIP3    H2 8030   3.367   0.282   5.734
 2697TIP3   OH2 8031   6.751   1.908   5.150
 2697TIP3    H1 8032   6.824   1.961   5.181
 2697TIP3    H2 8033   6.737   1.937   5.060
 2698TIP3   OH2 8034   3.005   4.326   1.018
 2698TIP3    H1 8035   3.046   4.240   1.027
 2698TIP3    H2 8036   2.999   4.340   0.924
 2699TIP3   OH2 8037   3.815   2.559   1.309
 2699TIP3    H1 8038   3.846   2.629   1.252
 2699TIP3    H2 8039   3.730   2.535   1.274
 2700TIP3   OH2 8040   7.604   1.482   3.541
 2700TIP3    H1 8041   7.576   1.432   3.617
 2700TIP3    H2 8042   7.666   1.424   3.496
 2701TIP3   OH2 8043   0.433   5.943   5.020
 2701TIP3    H1 8044   0.523   5.950   5.053
 2701TIP3    H2 8045   0.440   5.886   4.944
 2702TIP3   OH2 8046   3.605   0.436   3.861
 2702TIP3    H1 8047   3.545   0.376   3.905
 2702TIP3    H2 8048   3.682   0.438   3.918
 2703TIP3   OH2 8049   5.581   3.647   0.330
 2703TIP3    H1 8050   5.636   3.620   0.403
 2703TIP3    H2 8051   5.609   3.593   0.256
 2704TIP3   OH2 8052   6.649   3.011   3.124
 2704TIP3    H1 8053   6.637   3.057   3.208
 2704TIP3    H2 8054   6.580   3.045   3.068
 2705TIP3   OH2 8055   7.722   5.241   3.307
 2705TIP3    H1 8056   7.651   5.276   3.253
 2705TIP3    H2 8057   7.727   5.149   3.283
 2706TIP3   OH2 8058   0.777   7.353   6.642
 2706TIP3    H1 8059   0.780   7.368   6.548
 2706TIP3    H2 8060   0.694   7.392   6.670
 2707TIP3   OH2 8061   0.613   5.020   3.402
 2707TIP3    H1 8062   0.597   4.949   3.340
 2707TIP3    H2 8063   0.590   5.099   3.353
 2708TIP3   OH2 8064   4.645   2.155   2.061
 2708TIP3    H1 8065   4.735   2.157   2.094
 2708TIP3    H2 8066   4.653   2.135   1.968
 2709TIP3   OH2 8067   4.960   3.104   1.427
 2709TIP3    H1 8068   4.981   3.045   1.500
 2709TIP3    H2 8069   5.039   3.106   1.374
 2710TIP3   OH2 8070   1.262   3.177   1.991
 2710TIP3    H1 8071   1.232   3.092   1.959
 2710TIP3    H2 8072   1.320   3.209   1.921
 2711TIP3   OH2 8073   5.773   6.254   1.898
 2711TIP3    H1 8074   5.715   6.257   1.974
 2711TIP3    H2 8075   5.809   6.342   1.892
 2712TIP3   OH2 8076   5.031   2.831   1.313
 2712TIP3    H1 8077   4.944   2.861   1.339
 2712TIP3    H2 8078   5.052   2.762   1.376
 2713TIP3   OH2 8079   7.948   7.816   4.177
 2713TIP3    H1 8080   7.954   7.910   4.195
 2713TIP3    H2 8081   7.916   7.779   4.259
 2714TIP3   OH2 8082   2.827   2.015   4.445
 2714TIP3    H1 8083   2.752   1.980   4.495
 2714TIP3    H2 8084   2.811   2.109   4.441
 2715TIP3   OH2 8085   2.997   3.279   4.867
 2715TIP3    H1 8086   3.037   3.361   4.837
 2715TIP3    H2 8087   3.058   3.211   4.840
 2716TIP3   OH2 8088   8.294   3.236   3.408
 2716TIP3    H1 8089   8.273   3.304   3.473
 2716TIP3    H2 8090   8.233   3.165   3.427
 2717TIP3   OH2 8091   2.784   2.225   0.816
 2717TIP3    H1 8092   2.789   2.146   0.869
 2717TIP3    H2 8093   2.807   2.195   0.728
 2718TIP3   OH2 8094   1.957   5.115   3.159
 2718TIP3    H1 8095   1.987   5.138   3.247
 2718TIP3    H2 8096   1.880   5.059   3.174
 2719TIP3   OH2 8097   1.337   6.988   0.377
 2719TIP3    H1 8098   1.254   6.948   0.354
 2719TIP3    H2 8099   1.375   7.016   0.294
 2720TIP3   OH2 8100   4.550   1.227   0.135
 2720TIP3    H1 8101   4.568   1.239   0.229
 2720TIP3    H2 8102   4.633   1.197   0.098
 2721TIP3   OH2 8103   2.978   7.317   1.851
 2721TIP3    H1 8104   2.912   7.381   1.823
 2721TIP3    H2 8105   3.029   7.363   1.918
 2722TIP3   OH2 8106   7.242   4.352   4.397
 2722TIP3    H1 8107   7.188   4.427   4.424
 2722TIP3    H2 8108   7.241   4.294   4.473
 2723TIP3   OH2 8109   0.845   2.558   0.778
 2723TIP3    H1 8110   0.900   2.621   0.732
 2723TIP3    H2 8111   0.902   2.484   0.795
 2724TIP3   OH2 8112   3.090   7.027   6.821
 2724TIP3    H1 8113   3.153   7.042   6.891
 2724TIP3    H2 8114   3.139   7.042   6.740
 2725TIP3   OH2 8115   3.848   1.424   0.680
 2725TIP3    H1 8116   3.882   1.364   0.613
 2725TIP3    H2 8117   3.883   1.509   0.656
 2726TIP3   OH2 8118   3.927   3.683   3.645
 2726TIP3    H1 8119   3.914   3.603   3.695
 2726TIP3    H2 8120   3.849   3.736   3.663
 2727TIP3   OH2 8121   1.743   5.157   5.648
 2727TIP3    H1 8122   1.825   5.205   5.651
 2727TIP3    H2 8123   1.738   5.123   5.558
 2728TIP3   OH2 8124   3.846   3.667   3.952
 2728TIP3    H1 8125   3.845   3.692   4.045
 2728TIP3    H2 8126   3.903   3.730   3.910
 2729TIP3   OH2 8127   5.813   3.979   1.352
 2729TIP3    H1 8128   5.837   3.971   1.259
 2729TIP3    H2 8129   5.866   3.912   1.396
 2730TIP3   OH2 8130   6.703   0.714   5.878
 2730TIP3    H1 8131   6.675   0.804   5.891
 2730TIP3    H2 8132   6.622   0.663   5.887
 2731TIP3   OH2 8133   4.597   6.015   6.102
 2731TIP3    H1 8134   4.572   5.955   6.032
 2731TIP3    H2 8135   4.595   5.961   6.181
 2732TIP3   OH2 8136   2.796   0.614   4.096
 2732TIP3    H1 8137   2.856   0.632   4.024
 2732TIP3    H2 8138   2.823   0.528   4.129
 2733TIP3   OH2 8139   2.160   5.881   3.909
 2733TIP3    H1 8140   2.102   5.831   3.851
 2733TIP3    H2 8141   2.106   5.954   3.939
 2734TIP3   OH2 8142   4.080   1.467   6.110
 2734TIP3    H1 8143   4.165   1.504   6.132
 2734TIP3    H2 8144   4.019   1.507   6.172
 2735TIP3   OH2 8145   6.529   4.154   3.467
 2735TIP3    H1 8146   6.435   4.142   3.475
 2735TIP3    H2 8147   6.539   4.228   3.407
 2736TIP3   OH2 8148   3.740   6.080   2.180
 2736TIP3    H1 8149   3.661   6.091   2.127
 2736TIP3    H2 8150   3.781   6.000   2.146
 2737TIP3   OH2 8151   2.040   5.605   0.572
 2737TIP3    H1 8152   2.027   5.683   0.625
 2737TIP3    H2 8153   2.018   5.632   0.483
 2738TIP3   OH2 8154   4.250   2.751   4.709
 2738TIP3    H1 8155   4.289   2.749   4.796
 2738TIP3    H2 8156   4.167   2.706   4.719
 2739TIP3   OH2 8157   3.206   4.193   1.987
 2739TIP3    H1 8158   3.204   4.154   1.899
 2739TIP3    H2 8159   3.268   4.265   1.979
 2740TIP3   OH2 8160   5.305   6.001   2.670
 2740TIP3    H1 8161   5.381   5.961   2.628
 2740TIP3    H2 8162   5.287   6.079   2.618
 2741TIP3   OH2 8163   5.942   5.028   4.711
 2741TIP3    H1 8164   5.970   5.052   4.800
 2741TIP3    H2 8165   6.022   4.996   4.669
 2742TIP3   OH2 8166   0.189   7.731   4.905
 2742TIP3    H1 8167   0.178   7.744   5.000
 2742TIP3    H2 8168   0.207   7.818   4.871
 2743TIP3   OH2 8169   4.864   7.779   0.693
 2743TIP3    H1 8170   4.885   7.868   0.667
 2743TIP3    H2 8171   4.948   7.736   0.704
 2744TIP3   OH2 8172   5.393   4.420   0.471
 2744TIP3    H1 8173   5.302   4.413   0.444
 2744TIP3    H2 8174   5.429   4.490   0.416
 2745TIP3   OH2 8175   1.762   3.834   4.840
 2745TIP3    H1 8176   1.747   3.745   4.808
 2745TIP3    H2 8177   1.679   3.880   4.825
 2746TIP3   OH2 8178   1.927   1.703   6.467
 2746TIP3    H1 8179   1.918   1.704   6.563
 2746TIP3    H2 8180   1.885   1.784   6.438
 2747TIP3   OH2 8181   7.930   1.502   4.099
 2747TIP3    H1 8182   7.891   1.429   4.051
 2747TIP3    H2 8183   7.857   1.541   4.146
 2748TIP3   OH2 8184   4.386   1.603   6.710
 2748TIP3    H1 8185   4.328   1.673   6.682
 2748TIP3    H2 8186   4.374   1.598   6.805
 2749TIP3   OH2 8187   3.735   2.242   1.285
 2749TIP3    H1 8188   3.705   2.183   1.216
 2749TIP3    H2 8189   3.712   2.330   1.253
 2750TIP3   OH2 8190   2.824   2.168   2.776
 2750TIP3    H1 8191   2.862   2.254   2.789
 2750TIP3    H2 8192   2.892   2.118   2.731
 2751TIP3   OH2 8193   4.835   1.159   4.019
 2751TIP3    H1 8194   4.890   1.149   4.097
 2751TIP3    H2 8195   4.878   1.227   3.968
 2752TIP3   OH2 8196   7.008   4.870   1.940
 2752TIP3    H1 8197   7.022   4.876   1.845
 2752TIP3    H2 8198   7.020   4.960   1.971
 2753TIP3   OH2 8199   4.726   1.024   4.316
 2753TIP3    H1 8200   4.811   1.057   4.289
 2753TIP3    H2 8201   4.681   1.099   4.354
 2754TIP3   OH2 8202   0.911   1.015   3.789
 2754TIP3    H1 8203   0.865   1.003   3.706
 2754TIP3    H2 8204   0.964   1.094   3.777
 2755TIP3   OH2 8205   5.649   1.001   4.094
 2755TIP3    H1 8206   5.634   0.907   4.094
 2755TIP3    H2 8207   5.601   1.033   4.017
 2756TIP3   OH2 8208   7.263   4.895   2.993
 2756TIP3    H1 8209   7.268   4.916   3.086
 2756TIP3    H2 8210   7.341   4.843   2.975
 2757TIP3   OH2 8211   7.174   6.041   0.243
 2757TIP3    H1 8212   7.204   6.080   0.161
 2757TIP3    H2 8213   7.108   6.102   0.276
 2758TIP3   OH2 8214   0.233   0.770   5.266
 2758TIP3    H1 8215   0.159   0.772   5.205
 2758TIP3    H2 8216   0.286   0.696   5.238
 2759TIP3   OH2 8217   1.425   3.896   4.355
 2759TIP3    H1 8218   1.343   3.882   4.309
 2759TIP3    H2 8219   1.475   3.816   4.340
 2760TIP3   OH2 8220   0.943   1.530   1.552
 2760TIP3    H1 8221   0.940   1.455   1.611
 2760TIP3    H2 8222   0.867   1.521   1.496
 2761TIP3   OH2 8223   7.570   2.994   3.154
 2761TIP3    H1 8224   7.646   3.004   3.211
 2761TIP3    H2 8225   7.564   2.900   3.138
 2762TIP3   OH2 8226   0.186   3.311   2.235
 2762TIP3    H1 8227   0.236   3.361   2.300
 2762TIP3    H2 8228   0.099   3.350   2.237
 2763TIP3   OH2 8229   5.266   4.099   3.932
 2763TIP3    H1 8230   5.293   4.075   4.021
 2763TIP3    H2 8231   5.256   4.016   3.886
 2764TIP3   OH2 8232   1.156   6.640   2.869
 2764TIP3    H1 8233   1.115   6.620   2.953
 2764TIP3    H2 8234   1.187   6.730   2.879
 2765TIP3   OH2 8235   4.340   1.782   4.933
 2765TIP3    H1 8236   4.435   1.769   4.925
 2765TIP3    H2 8237   4.302   1.705   4.889
 2766TIP3   OH2 8238   8.180   6.179   0.828
 2766TIP3    H1 8239   8.085   6.189   0.824
 2766TIP3    H2 8240   8.214   6.248   0.773
 2767TIP3   OH2 8241   5.347   1.840   0.787
 2767TIP3    H1 8242   5.265   1.830   0.739
 2767TIP3    H2 8243   5.324   1.895   0.862
 2768TIP3   OH2 8244   0.994   5.704   1.426
 2768TIP3    H1 8245   1.009   5.611   1.439
 2768TIP3    H2 8246   1.000   5.742   1.513
 2769TIP3   OH2 8247   6.473   6.209   0.066
 2769TIP3    H1 8248   6.521   6.286   0.035
 2769TIP3    H2 8249   6.447   6.231   0.155
 2770TIP3   OH2 8250   6.112   7.462   3.057
 2770TIP3    H1 8251   6.119   7.557   3.048
 2770TIP3    H2 8252   6.019   7.443   3.040
 2771TIP3   OH2 8253   0.409   2.453   3.942
 2771TIP3    H1 8254   0.458   2.418   4.017
 2771TIP3    H2 8255   0.476   2.472   3.876
 2772TIP3   OH2 8256   6.805   0.927   6.232
 2772TIP3    H1 8257   6.829   0.959   6.146
 2772TIP3    H2 8258   6.718   0.889   6.221
 2773TIP3   OH2 8259   0.593   0.593   5.258
 2773TIP3    H1 8260   0.600   0.549   5.173
 2773TIP3    H2 8261   0.680   0.583   5.297
 2774TIP3   OH2 8262   0.432   2.081   0.970
 2774TIP3    H1 8263   0.442   2.065   0.876
 2774TIP3    H2 8264   0.438   1.995   1.010
 2775TIP3   OH2 8265   3.324   0.696   2.660
 2775TIP3    H1 8266   3.397   0.689   2.722
 2775TIP3    H2 8267   3.284   0.609   2.659
 2776TIP3   OH2 8268   5.679   6.052   1.235
 2776TIP3    H1 8269   5.666   5.978   1.176
 2776TIP3    H2 8270   5.674   6.013   1.323
 2777TIP3   OH2 8271   3.809   5.584   6.318
 2777TIP3    H1 8272   3.905   5.587   6.324
 2777TIP3    H2 8273   3.791   5.528   6.243
 2778TIP3   OH2 8274   1.937   0.238   2.151
 2778TIP3    H1 8275   1.916   0.165   2.209
 2778TIP3    H2 8276   1.902   0.212   2.066
 2779TIP3   OH2 8277   2.731   0.229   0.256
 2779TIP3    H1 8278   2.740   0.224   0.161
 2779TIP3    H2 8279   2.756   0.141   0.287
 2780TIP3   OH2 8280   5.172   6.541   0.945
 2780TIP3    H1 8281   5.232   6.575   1.012
 2780TIP3    H2 8282   5.086   6.572   0.973
 2781TIP3   OH2 8283   4.363   2.296   3.073
 2781TIP3    H1 8284   4.428   2.241   3.029
 2781TIP3    H2 8285   4.279   2.267   3.037
 2782TIP3   OH2 8286   1.057   3.011   2.171
 2782TIP3    H1 8287   1.117   2.937   2.159
 2782TIP3    H2 8288   1.044   3.016   2.266
 2783TIP3   OH2 8289   7.981   7.928   3.065
 2783TIP3    H1 8290   8.035   7.918   3.143
 2783TIP3    H2 8291   7.928   8.006   3.082
 2784TIP3   OH2 8292   5.415   2.688   0.180
 2784TIP3    H1 8293   5.399   2.605   0.136
 2784TIP3    H2 8294   5.387   2.674   0.270
 2785TIP3   OH2 8295   1.198   5.083   5.572
 2785TIP3    H1 8296   1.172   5.100   5.481
 2785TIP3    H2 8297   1.223   4.990   5.572
 2786TIP3   OH2 8298   2.666   0.069   3.563
 2786TIP3    H1 8299   2.621  -0.008   3.597
 2786TIP3    H2 8300   2.758   0.054   3.583
 2787TIP3   OH2 8301   8.233   3.328   3.683
 2787TIP3    H1 8302   8.172   3.257   3.705
 2787TIP3    H2 8303   8.179   3.407   3.683
 2788TIP3   OH2 8304   2.738   1.267   0.972
 2788TIP3    H1 8305   2.733   1.363   0.977
 2788TIP3    H2 8306   2.817   1.250   0.920
 2789TIP3   OH2 8307   2.832   4.703   0.776
 2789TIP3    H1 8308   2.918   4.709   0.818
 2789TIP3    H2 8309   2.775   4.757   0.829
 2790TIP3   OH2 8310   3.581   5.991   5.650
 2790TIP3    H1 8311   3.662   5.984   5.600
 2790TIP3    H2 8312   3.529   5.916   5.623
 2791TIP3   OH2 8313   1.737   2.706   5.825
 2791TIP3    H1 8314   1.666   2.770   5.812
 2791TIP3    H2 8315   1.728   2.645   5.752
 2792TIP3   OH2 8316   6.881   1.913   2.717
 2792TIP3    H1 8317   6.808   1.857   2.744
 2792TIP3    H2 8318   6.853   1.949   2.633
 2793TIP3   OH2 8319   5.062   7.014   6.152
 2793TIP3    H1 8320   4.979   7.056   6.129
 2793TIP3    H2 8321   5.090   7.058   6.232
 2794TIP3   OH2 8322   7.196   2.200   3.706
 2794TIP3    H1 8323   7.263   2.198   3.638
 2794TIP3    H2 8324   7.146   2.280   3.689
 2795TIP3   OH2 8325   5.128   4.811   1.517
 2795TIP3    H1 8326   5.192   4.875   1.487
 2795TIP3    H2 8327   5.052   4.824   1.460
 2796TIP3   OH2 8328   6.877   6.616   3.849
 2796TIP3    H1 8329   6.819   6.685   3.882
 2796TIP3    H2 8330   6.898   6.644   3.760
 2797TIP3   OH2 8331   8.242   5.670   4.153
 2797TIP3    H1 8332   8.157   5.711   4.140
 2797TIP3    H2 8333   8.235   5.623   4.236
 2798TIP3   OH2 8334   0.263   2.822   0.073
 2798TIP3    H1 8335   0.330   2.803   0.139
 2798TIP3    H2 8336   0.275   2.915   0.053
 2799TIP3   OH2 8337   4.048   4.938   2.653
 2799TIP3    H1 8338   4.128   4.894   2.623
 2799TIP3    H2 8339   4.071   4.972   2.740
 2800TIP3   OH2 8340   4.976   1.823   1.604
 2800TIP3    H1 8341   5.050   1.763   1.593
 2800TIP3    H2 8342   4.899   1.767   1.601
 2801TIP3   OH2 8343   7.457   5.664   0.190
 2801TIP3    H1 8344   7.451   5.644   0.284
 2801TIP3    H2 8345   7.374   5.706   0.169
 2802TIP3   OH2 8346   0.133   6.681   6.475
 2802TIP3    H1 8347   0.127   6.661   6.569
 2802TIP3    H2 8348   0.173   6.768   6.472
 2803TIP3   OH2 8349   3.413   4.688   0.732
 2803TIP3    H1 8350   3.363   4.663   0.810
 2803TIP3    H2 8351   3.501   4.707   0.765
 2804TIP3   OH2 8352   7.890   6.204   2.766
 2804TIP3    H1 8353   7.849   6.133   2.815
 2804TIP3    H2 8354   7.966   6.228   2.818
 2805TIP3   OH2 8355   6.652   3.439   1.863
 2805TIP3    H1 8356   6.678   3.395   1.944
 2805TIP3    H2 8357   6.720   3.506   1.850
 2806TIP3   OH2 8358   7.481   4.318   2.674
 2806TIP3    H1 8359   7.392   4.292   2.696
 2806TIP3    H2 8360   7.474   4.410   2.649
 2807TIP3   OH2 8361   3.516   3.506   6.065
 2807TIP3    H1 8362   3.439   3.548   6.103
 2807TIP3    H2 8363   3.562   3.469   6.141
 2808TIP3   OH2 8364   6.749   4.652   6.598
 2808TIP3    H1 8365   6.741   4.582   6.663
 2808TIP3    H2 8366   6.832   4.634   6.554
 2809TIP3   OH2 8367   8.405   6.470   1.692
 2809TIP3    H1 8368   8.390   6.554   1.737
 2809TIP3    H2 8369   8.342   6.410   1.732
 2810TIP3   OH2 8370   2.752   5.242   2.875
 2810TIP3    H1 8371   2.751   5.235   2.780
 2810TIP3    H2 8372   2.823   5.303   2.894
 2811TIP3   OH2 8373   3.662   6.031   5.186
 2811TIP3    H1 8374   3.749   6.069   5.199
 2811TIP3    H2 8375   3.609   6.068   5.257
 2812TIP3   OH2 8376   8.139   1.157   0.307
 2812TIP3    H1 8377   8.060   1.121   0.268
 2812TIP3    H2 8378   8.148   1.245   0.269
 2813TIP3   OH2 8379   7.444   2.501   6.096
 2813TIP3    H1 8380   7.356   2.506   6.134
 2813TIP3    H2 8381   7.452   2.410   6.068
 2814TIP3   OH2 8382   0.478   0.845   3.232
 2814TIP3    H1 8383   0.420   0.789   3.179
 2814TIP3    H2 8384   0.428   0.926   3.243
 2815TIP3   OH2 8385   5.417   1.590   0.920
 2815TIP3    H1 8386   5.369   1.600   1.002
 2815TIP3    H2 8387   5.398   1.669   0.871
 2816TIP3   OH2 8388   5.249   5.900   6.139
 2816TIP3    H1 8389   5.155   5.896   6.156
 2816TIP3    H2 8390   5.282   5.966   6.199
 2817TIP3   OH2 8391   8.210   1.027   5.258
 2817TIP3    H1 8392   8.292   1.045   5.212
 2817TIP3    H2 8393   8.188   0.937   5.235
 2818TIP3   OH2 8394   4.113   3.046   6.738
 2818TIP3    H1 8395   4.028   3.016   6.769
 2818TIP3    H2 8396   4.170   2.969   6.746
 2819TIP3   OH2 8397   2.454   1.063   4.640
 2819TIP3    H1 8398   2.501   0.985   4.612
 2819TIP3    H2 8399   2.361   1.041   4.628
 2820TIP3   OH2 8400   6.562   3.903   4.034
 2820TIP3    H1 8401   6.497   3.853   4.083
 2820TIP3    H2 8402   6.583   3.977   4.090
 2821TIP3   OH2 8403   3.949   2.602   4.723
 2821TIP3    H1 8404   3.894   2.624   4.798
 2821TIP3    H2 8405   3.886   2.571   4.657
 2822TIP3   OH2 8406   2.486   1.959   0.371
 2822TIP3    H1 8407   2.524   1.874   0.392
 2822TIP3    H2 8408   2.470   1.999   0.457
 2823TIP3   OH2 8409   3.142   5.871   4.835
 2823TIP3    H1 8410   3.126   5.928   4.910
 2823TIP3    H2 8411   3.151   5.931   4.760
 2824TIP3   OH2 8412   0.208   4.451   1.456
 2824TIP3    H1 8413   0.153   4.373   1.459
 2824TIP3    H2 8414   0.156   4.515   1.407
 2825TIP3   OH2 8415   4.760   2.440   4.446
 2825TIP3    H1 8416   4.834   2.456   4.505
 2825TIP3    H2 8417   4.767   2.346   4.425
 2826TIP3   OH2 8418   0.296   4.283   4.837
 2826TIP3    H1 8419   0.362   4.302   4.904
 2826TIP3    H2 8420   0.328   4.327   4.758
 2827TIP3   OH2 8421   3.490   1.923   2.116
 2827TIP3    H1 8422   3.551   1.975   2.065
 2827TIP3    H2 8423   3.451   1.862   2.053
 2828TIP3   OH2 8424   4.366   3.210   3.817
 2828TIP3    H1 8425   4.392   3.282   3.760
 2828TIP3    H2 8426   4.448   3.176   3.851
 2829TIP3   OH2 8427   0.914   1.106   1.831
 2829TIP3    H1 8428   1.004   1.081   1.806
 2829TIP3    H2 8429   0.866   1.105   1.748
 2830TIP3   OH2 8430   5.598   5.870   4.651
 2830TIP3    H1 8431   5.517   5.823   4.673
 2830TIP3    H2 8432   5.599   5.871   4.555
 2831TIP3   OH2 8433   7.398   7.161   6.256
 2831TIP3    H1 8434   7.357   7.190   6.337
 2831TIP3    H2 8435   7.339   7.094   6.221
 2832TIP3   OH2 8436   1.255   7.620   1.644
 2832TIP3    H1 8437   1.329   7.642   1.588
 2832TIP3    H2 8438   1.178   7.639   1.591
 2833TIP3   OH2 8439   7.193   5.492   1.574
 2833TIP3    H1 8440   7.198   5.587   1.584
 2833TIP3    H2 8441   7.276   5.468   1.533
 2834TIP3   OH2 8442   2.284   2.793   2.371
 2834TIP3    H1 8443   2.194   2.804   2.340
 2834TIP3    H2 8444   2.334   2.776   2.292
 2835TIP3   OH2 8445   4.895   3.707   1.195
 2835TIP3    H1 8446   4.913   3.628   1.246
 2835TIP3    H2 8447   4.981   3.750   1.187
 2836TIP3   OH2 8448   7.342   4.393   1.150
 2836TIP3    H1 8449   7.436   4.391   1.130
 2836TIP3    H2 8450   7.337   4.442   1.232
 2837TIP3   OH2 8451   5.421   5.343   3.803
 2837TIP3    H1 8452   5.327   5.328   3.817
 2837TIP3    H2 8453   5.461   5.325   3.888
 2838TIP3   OH2 8454   2.520   0.548   0.947
 2838TIP3    H1 8455   2.566   0.489   0.888
 2838TIP3    H2 8456   2.511   0.498   1.029
 2839TIP3   OH2 8457   7.007   3.885   3.755
 2839TIP3    H1 8458   6.955   3.919   3.682
 2839TIP3    H2 8459   7.098   3.892   3.725
 2840TIP3   OH2 8460   2.079   5.365   4.123
 2840TIP3    H1 8461   2.088   5.459   4.106
 2840TIP3    H2 8462   1.995   5.357   4.168
 2841TIP3   OH2 8463   2.431   4.599   0.846
 2841TIP3    H1 8464   2.439   4.516   0.894
 2841TIP3    H2 8465   2.456   4.578   0.756
 2842TIP3   OH2 8466   2.236   0.847   2.471
 2842TIP3    H1 8467   2.211   0.755   2.468
 2842TIP3    H2 8468   2.258   0.864   2.562
 2843TIP3   OH2 8469   3.252   4.801   2.075
 2843TIP3    H1 8470   3.209   4.751   2.145
 2843TIP3    H2 8471   3.183   4.855   2.038
 2844TIP3   OH2 8472   4.182   1.758   2.714
 2844TIP3    H1 8473   4.252   1.746   2.778
 2844TIP3    H2 8474   4.102   1.767   2.767
 2845TIP3   OH2 8475   5.706   7.368   5.397
 2845TIP3    H1 8476   5.764   7.372   5.474
 2845TIP3    H2 8477   5.766   7.369   5.322
 2846TIP3   OH2 8478   4.281   6.336   2.380
 2846TIP3    H1 8479   4.256   6.427   2.391
 2846TIP3    H2 8480   4.328   6.314   2.460
 2847TIP3   OH2 8481   5.348   5.513   1.431
 2847TIP3    H1 8482   5.376   5.602   1.408
 2847TIP3    H2 8483   5.275   5.526   1.492
 2848TIP3   OH2 8484   3.743   6.238   6.195
 2848TIP3    H1 8485   3.764   6.219   6.286
 2848TIP3    H2 8486   3.793   6.317   6.174
 2849TIP3   OH2 8487   3.664   1.454   2.772
 2849TIP3    H1 8488   3.600   1.386   2.751
 2849TIP3    H2 8489   3.743   1.429   2.722
 2850TIP3   OH2 8490   7.567   7.020   2.419
 2850TIP3    H1 8491   7.619   7.098   2.401
 2850TIP3    H2 8492   7.549   6.983   2.332
 2851TIP3   OH2 8493   3.723   0.723   1.966
 2851TIP3    H1 8494   3.714   0.767   1.882
 2851TIP3    H2 8495   3.653   0.658   1.966
 2852TIP3   OH2 8496   0.091   3.243   4.037
 2852TIP3    H1 8497   0.182   3.234   4.067
 2852TIP3    H2 8498   0.098   3.254   3.943
 2853TIP3   OH2 8499   5.430   1.034   5.074
 2853TIP3    H1 8500   5.431   1.048   4.979
 2853TIP3    H2 8501   5.509   0.983   5.092
 2854TIP3   OH2 8502   3.645   1.180   0.446
 2854TIP3    H1 8503   3.735   1.166   0.475
 2854TIP3    H2 8504   3.641   1.141   0.359
 2855TIP3   OH2 8505   1.015   7.432   5.484
 2855TIP3    H1 8506   1.096   7.479   5.507
 2855TIP3    H2 8507   1.045   7.346   5.455
 2856TIP3   OH2 8508   0.095   1.206   5.354
 2856TIP3    H1 8509   0.118   1.143   5.423
 2856TIP3    H2 8510   0.158   1.277   5.364
 2857TIP3   OH2 8511   4.728   3.079   0.069
 2857TIP3    H1 8512   4.816   3.058   0.102
 2857TIP3    H2 8513   4.740   3.090  -0.025
 2858TIP3   OH2 8514   7.310   3.331   1.864
 2858TIP3    H1 8515   7.262   3.385   1.800
 2858TIP3    H2 8516   7.346   3.259   1.813
 2859TIP3   OH2 8517   8.086   5.051   1.314
 2859TIP3    H1 8518   8.084   5.084   1.224
 2859TIP3    H2 8519   8.047   4.964   1.308
 2860TIP3   OH2 8520   2.202   0.680   3.621
 2860TIP3    H1 8521   2.140   0.722   3.562
 2860TIP3    H2 8522   2.155   0.604   3.656
 2861TIP3   OH2 8523   5.445   1.947   1.823
 2861TIP3    H1 8524   5.391   1.946   1.745
 2861TIP3    H2 8525   5.397   2.001   1.886
 2862TIP3   OH2 8526   6.984   3.994   5.501
 2862TIP3    H1 8527   6.979   3.941   5.421
 2862TIP3    H2 8528   7.020   3.935   5.567
 2863TIP3   OH2 8529   6.651   5.277   1.914
 2863TIP3    H1 8530   6.652   5.373   1.920
 2863TIP3    H2 8531   6.742   5.254   1.896
 2864TIP3   OH2 8532   2.482   6.112   2.903
 2864TIP3    H1 8533   2.534   6.115   2.984
 2864TIP3    H2 8534   2.506   6.029   2.862
 2865TIP3   OH2 8535   4.080   3.178   5.704
 2865TIP3    H1 8536   4.053   3.251   5.760
 2865TIP3    H2 8537   4.064   3.100   5.758
 2866TIP3   OH2 8538   7.881   3.212   2.163
 2866TIP3    H1 8539   7.967   3.169   2.166
 2866TIP3    H2 8540   7.901   3.305   2.179
 2867TIP3   OH2 8541   0.204   6.555   4.802
 2867TIP3    H1 8542   0.140   6.514   4.744
 2867TIP3    H2 8543   0.156   6.627   4.844
 2868TIP3   OH2 8544   7.551   6.830   3.672
 2868TIP3    H1 8545   7.486   6.893   3.701
 2868TIP3    H2 8546   7.598   6.805   3.751
 2869TIP3   OH2 8547   3.779   7.616   1.136
 2869TIP3    H1 8548   3.830   7.639   1.059
 2869TIP3    H2 8549   3.769   7.521   1.131
 2870TIP3   OH2 8550   8.152   6.919   4.461
 2870TIP3    H1 8551   8.076   6.862   4.461
 2870TIP3    H2 8552   8.217   6.874   4.515
 2871TIP3   OH2 8553   6.506   5.618   2.819
 2871TIP3    H1 8554   6.567   5.574   2.759
 2871TIP3    H2 8555   6.429   5.638   2.765
 2872TIP3   OH2 8556   0.085   0.883   5.770
 2872TIP3    H1 8557   0.065   0.839   5.687
 2872TIP3    H2 8558   0.085   0.812   5.835
 2873TIP3   OH2 8559   5.806   5.395   2.520
 2873TIP3    H1 8560   5.836   5.356   2.602
 2873TIP3    H2 8561   5.843   5.340   2.451
 2874TIP3   OH2 8562   4.960   4.429   3.081
 2874TIP3    H1 8563   4.947   4.351   3.027
 2874TIP3    H2 8564   4.877   4.441   3.126
 2875TIP3   OH2 8565   5.026   1.614   0.742
 2875TIP3    H1 8566   5.074   1.531   0.745
 2875TIP3    H2 8567   5.095   1.681   0.735
 2876TIP3   OH2 8568   2.742   1.080   4.155
 2876TIP3    H1 8569   2.666   1.120   4.113
 2876TIP3    H2 8570   2.785   1.153   4.201
 2877TIP3   OH2 8571   6.677   3.158   0.978
 2877TIP3    H1 8572   6.586   3.137   0.961
 2877TIP3    H2 8573   6.689   3.139   1.071
 2878TIP3   OH2 8574   1.377   4.295   6.149
 2878TIP3    H1 8575   1.310   4.363   6.145
 2878TIP3    H2 8576   1.336   4.224   6.198
 2879TIP3   OH2 8577   5.385   1.064   1.371
 2879TIP3    H1 8578   5.316   1.128   1.386
 2879TIP3    H2 8579   5.344   0.996   1.318
 2880TIP3   OH2 8580   7.315   1.104   4.965
 2880TIP3    H1 8581   7.281   1.192   4.948
 2880TIP3    H2 8582   7.241   1.046   4.946
 2881TIP3   OH2 8583   6.631   1.177   2.970
 2881TIP3    H1 8584   6.595   1.226   3.044
 2881TIP3    H2 8585   6.673   1.101   3.010
 2882TIP3   OH2 8586   4.970   1.132   4.297
 2882TIP3    H1 8587   4.944   1.191   4.367
 2882TIP3    H2 8588   5.063   1.149   4.284
 2883TIP3   OH2 8589   6.004   3.434   5.545
 2883TIP3    H1 8590   5.972   3.349   5.515
 2883TIP3    H2 8591   5.998   3.429   5.641
 2884TIP3   OH2 8592   6.689   3.706   3.930
 2884TIP3    H1 8593   6.629   3.773   3.964
 2884TIP3    H2 8594   6.776   3.737   3.956
 2885TIP3   OH2 8595   3.027   1.767   3.067
 2885TIP3    H1 8596   2.972   1.778   3.145
 2885TIP3    H2 8597   2.971   1.722   3.004
 2886TIP3   OH2 8598   4.001   4.907   5.044
 2886TIP3    H1 8599   4.061   4.930   4.973
 2886TIP3    H2 8600   4.046   4.936   5.124
 2887TIP3   OH2 8601   4.501   3.905   2.361
 2887TIP3    H1 8602   4.538   3.836   2.416
 2887TIP3    H2 8603   4.505   3.984   2.416
 2888TIP3   OH2 8604   5.908   1.557   5.162
 2888TIP3    H1 8605   5.999   1.555   5.191
 2888TIP3    H2 8606   5.881   1.465   5.160
 2889TIP3   OH2 8607   1.295   5.129   0.302
 2889TIP3    H1 8608   1.302   5.057   0.364
 2889TIP3    H2 8609   1.206   5.163   0.315
 2890TIP3   OH2 8610   0.776   5.030   1.798
 2890TIP3    H1 8611   0.816   5.117   1.790
 2890TIP3    H2 8612   0.754   5.023   1.890
 2891TIP3   OH2 8613   5.763   3.967   4.032
 2891TIP3    H1 8614   5.839   3.912   4.050
 2891TIP3    H2 8615   5.784   4.010   3.949
 2892TIP3   OH2 8616   0.244   4.688   4.657
 2892TIP3    H1 8617   0.285   4.745   4.591
 2892TIP3    H2 8618   0.151   4.708   4.652
 2893TIP3   OH2 8619   1.275   6.703   4.574
 2893TIP3    H1 8620   1.344   6.640   4.594
 2893TIP3    H2 8621   1.241   6.676   4.489
 2894TIP3   OH2 8622   4.201   7.128   2.693
 2894TIP3    H1 8623   4.178   7.185   2.766
 2894TIP3    H2 8624   4.166   7.172   2.615
 2895TIP3   OH2 8625   6.244   2.031   3.011
 2895TIP3    H1 8626   6.218   1.944   3.040
 2895TIP3    H2 8627   6.171   2.061   2.957
 2896TIP3   OH2 8628   6.007   6.672   3.429
 2896TIP3    H1 8629   6.050   6.587   3.440
 2896TIP3    H2 8630   6.079   6.735   3.423
 2897TIP3   OH2 8631   3.567   7.741   2.079
 2897TIP3    H1 8632   3.510   7.806   2.120
 2897TIP3    H2 8633   3.652   7.752   2.122
 2898TIP3   OH2 8634   7.292   3.447   1.317
 2898TIP3    H1 8635   7.359   3.447   1.248
 2898TIP3    H2 8636   7.218   3.495   1.278
 2899TIP3   OH2 8637   3.449   1.180   5.319
 2899TIP3    H1 8638   3.368   1.228   5.301
 2899TIP3    H2 8639   3.517   1.229   5.273
 2900TIP3   OH2 8640   8.191   7.312   1.554
 2900TIP3    H1 8641   8.120   7.248   1.551
 2900TIP3    H2 8642   8.271   7.260   1.551
 2901TIP3   OH2 8643   6.961   6.955   0.752
 2901TIP3    H1 8644   7.033   7.018   0.757
 2901TIP3    H2 8645   6.995   6.876   0.793
 2902TIP3   OH2 8646   0.418   7.544   0.012
 2902TIP3    H1 8647   0.433   7.472  -0.049
 2902TIP3    H2 8648   0.502   7.558   0.054
 2903TIP3   OH2 8649   2.447   6.746   1.368
 2903TIP3    H1 8650   2.537   6.716   1.380
 2903TIP3    H2 8651   2.440   6.824   1.423
 2904TIP3   OH2 8652   4.663   0.719   3.184
 2904TIP3    H1 8653   4.593   0.758   3.131
 2904TIP3    H2 8654   4.626   0.713   3.272
 2905TIP3   OH2 8655   4.721   6.905   0.379
 2905TIP3    H1 8656   4.701   6.998   0.368
 2905TIP3    H2 8657   4.658   6.874   0.444
 2906TIP3   OH2 8658   4.835   2.587   6.547
 2906TIP3    H1 8659   4.866   2.578   6.457
 2906TIP3    H2 8660   4.897   2.646   6.588
 2907TIP3   OH2 8661   6.871   7.552   2.586
 2907TIP3    H1 8662   6.938   7.620   2.579
 2907TIP3    H2 8663   6.799   7.594   2.633
 2908TIP3   OH2 8664   0.431   2.298   2.151
 2908TIP3    H1 8665   0.524   2.317   2.134
 2908TIP3    H2 8666   0.397   2.273   2.065
 2909TIP3   OH2 8667   5.988   6.249   5.611
 2909TIP3    H1 8668   5.904   6.236   5.568
 2909TIP3    H2 8669   5.985   6.338   5.646
 2910TIP3   OH2 8670   2.632   2.673   3.655
 2910TIP3    H1 8671   2.658   2.707   3.569
 2910TIP3    H2 8672   2.714   2.651   3.698
 2911TIP3   OH2 8673   3.710   1.465   0.224
 2911TIP3    H1 8674   3.682   1.397   0.164
 2911TIP3    H2 8675   3.805   1.455   0.229
 2912TIP3   OH2 8676   1.867   4.181   1.586
 2912TIP3    H1 8677   1.790   4.126   1.576
 2912TIP3    H2 8678   1.838   4.253   1.642
 2913TIP3   OH2 8679   4.937   1.263   5.778
 2913TIP3    H1 8680   4.847   1.290   5.761
 2913TIP3    H2 8681   4.937   1.237   5.870
 2914TIP3   OH2 8682   7.136   7.893   4.037
 2914TIP3    H1 8683   7.156   7.812   3.990
 2914TIP3    H2 8684   7.043   7.885   4.061
 2915TIP3   OH2 8685   6.835   3.001   0.008
 2915TIP3    H1 8686   6.855   2.911  -0.017
 2915TIP3    H2 8687   6.891   3.018   0.084
 2916TIP3   OH2 8688   5.816   3.344   0.424
 2916TIP3    H1 8689   5.866   3.338   0.505
 2916TIP3    H2 8690   5.870   3.298   0.359
 2917TIP3   OH2 8691   0.049   4.258   4.699
 2917TIP3    H1 8692   0.144   4.262   4.711
 2917TIP3    H2 8693   0.037   4.253   4.604
 2918TIP3   OH2 8694   5.074   2.631   4.776
 2918TIP3    H1 8695   5.133   2.691   4.730
 2918TIP3    H2 8696   5.069   2.667   4.865
 2919TIP3   OH2 8697   6.998   3.950   1.428
 2919TIP3    H1 8698   6.958   4.005   1.360
 2919TIP3    H2 8699   6.998   3.862   1.390
 2920TIP3   OH2 8700   6.560   0.059   6.288
 2920TIP3    H1 8701   6.485   0.105   6.249
 2920TIP3    H2 8702   6.627   0.127   6.298
 2921TIP3   OH2 8703   4.465   7.673   3.355
 2921TIP3    H1 8704   4.440   7.598   3.410
 2921TIP3    H2 8705   4.433   7.749   3.403
 2922TIP3   OH2 8706   3.882   0.169   6.530
 2922TIP3    H1 8707   3.894   0.150   6.623
 2922TIP3    H2 8708   3.967   0.204   6.502
 2923TIP3   OH2 8709   0.835   1.744   2.594
 2923TIP3    H1 8710   0.847   1.661   2.548
 2923TIP3    H2 8711   0.824   1.808   2.524
 2924TIP3   OH2 8712   5.187   3.509   1.865
 2924TIP3    H1 8713   5.114   3.451   1.883
 2924TIP3    H2 8714   5.183   3.575   1.934
 2925TIP3   OH2 8715   8.323   6.256   3.705
 2925TIP3    H1 8716   8.290   6.344   3.690
 2925TIP3    H2 8717   8.377   6.263   3.783
 2926TIP3   OH2 8718   3.168   0.902   2.581
 2926TIP3    H1 8719   3.164   0.961   2.656
 2926TIP3    H2 8720   3.220   0.828   2.611
 2927TIP3   OH2 8721   6.152   4.672   2.705
 2927TIP3    H1 8722   6.218   4.616   2.665
 2927TIP3    H2 8723   6.153   4.752   2.652
 2928TIP3   OH2 8724   1.119   6.269   2.139
 2928TIP3    H1 8725   1.061   6.312   2.202
 2928TIP3    H2 8726   1.136   6.183   2.178
 2929TIP3   OH2 8727   0.632   2.343   6.402
 2929TIP3    H1 8728   0.561   2.404   6.419
 2929TIP3    H2 8729   0.594   2.257   6.419
 2930TIP3   OH2 8730   6.038   3.586   1.619
 2930TIP3    H1 8731   6.072   3.516   1.562
 2930TIP3    H2 8732   5.994   3.539   1.690
 2931TIP3   OH2 8733   3.060   1.570   4.344
 2931TIP3    H1 8734   3.068   1.634   4.414
 2931TIP3    H2 8735   3.014   1.616   4.274
 2932TIP3   OH2 8736   6.680   5.261   0.151
 2932TIP3    H1 8737   6.757   5.242   0.099
 2932TIP3    H2 8738   6.682   5.355   0.165
 2933TIP3   OH2 8739   1.019   2.875   5.559
 2933TIP3    H1 8740   0.961   2.818   5.608
 2933TIP3    H2 8741   1.081   2.909   5.624
 2934TIP3   OH2 8742   0.630   5.003   5.676
 2934TIP3    H1 8743   0.622   4.910   5.657
 2934TIP3    H2 8744   0.619   5.009   5.771
 2935TIP3   OH2 8745   5.084   6.526   0.538
 2935TIP3    H1 8746   5.036   6.604   0.566
 2935TIP3    H2 8747   5.154   6.516   0.603
 2936TIP3   OH2 8748   2.199   0.066   3.491
 2936TIP3    H1 8749   2.253   0.124   3.544
 2936TIP3    H2 8750   2.177   0.117   3.413
 2937TIP3   OH2 8751   0.919   1.970   3.956
 2937TIP3    H1 8752   0.847   1.918   3.991
 2937TIP3    H2 8753   0.907   1.966   3.861
 2938TIP3   OH2 8754   1.164   6.068   1.166
 2938TIP3    H1 8755   1.233   6.075   1.232
 2938TIP3    H2 8756   1.092   6.023   1.210
 2939TIP3   OH2 8757   3.701   5.307   2.146
 2939TIP3    H1 8758   3.615   5.291   2.184
 2939TIP3    H2 8759   3.736   5.381   2.196
 2940TIP3   OH2 8760   3.539   7.862   1.702
 2940TIP3    H1 8761   3.529   7.885   1.609
 2940TIP3    H2 8762   3.613   7.801   1.704
 2941TIP3   OH2 8763   8.266   2.587  -0.025
 2941TIP3    H1 8764   8.227   2.558   0.057
 2941TIP3    H2 8765   8.262   2.683  -0.021
 2942TIP3   OH2 8766   3.212   5.648   6.705
 2942TIP3    H1 8767   3.250   5.733   6.682
 2942TIP3    H2 8768   3.141   5.668   6.765
 2943TIP3   OH2 8769   0.391   4.588   0.643
 2943TIP3    H1 8770   0.342   4.669   0.630
 2943TIP3    H2 8771   0.354   4.549   0.722
 2944TIP3   OH2 8772   5.616   4.518   4.521
 2944TIP3    H1 8773   5.669   4.527   4.442
 2944TIP3    H2 8774   5.611   4.607   4.556
 2945TIP3   OH2 8775   1.535   3.018   3.751
 2945TIP3    H1 8776   1.463   3.070   3.717
 2945TIP3    H2 8777   1.536   2.939   3.698
 2946TIP3   OH2 8778   4.319   4.972   3.301
 2946TIP3    H1 8779   4.276   5.042   3.252
 2946TIP3    H2 8780   4.248   4.932   3.353
 2947TIP3   OH2 8781   1.769   2.195   1.803
 2947TIP3    H1 8782   1.739   2.179   1.714
 2947TIP3    H2 8783   1.863   2.213   1.793
 2948TIP3   OH2 8784   8.448   6.242   1.944
 2948TIP3    H1 8785   8.450   6.153   1.978
 2948TIP3    H2 8786   8.371   6.246   1.888
 2949TIP3   OH2 8787   0.669   7.077   1.267
 2949TIP3    H1 8788   0.633   6.994   1.235
 2949TIP3    H2 8789   0.598   7.140   1.257
 2950TIP3   OH2 8790   1.134   4.149   1.134
 2950TIP3    H1 8791   1.126   4.075   1.194
 2950TIP3    H2 8792   1.208   4.199   1.167
 2951TIP3   OH2 8793   6.242   7.384   0.757
 2951TIP3    H1 8794   6.335   7.405   0.750
 2951TIP3    H2 8795   6.235   7.296   0.719
 2952TIP3   OH2 8796   0.156   6.529   2.635
 2952TIP3    H1 8797   0.134   6.622   2.641
 2952TIP3    H2 8798   0.228   6.526   2.571
 2953TIP3   OH2 8799   5.310   7.835   3.676
 2953TIP3    H1 8800   5.292   7.802   3.588
 2953TIP3    H2 8801   5.225   7.865   3.708
 2954TIP3   OH2 8802   3.333   7.810   5.106
 2954TIP3    H1 8803   3.309   7.899   5.079
 2954TIP3    H2 8804   3.311   7.806   5.199
 2955TIP3   OH2 8805   3.221   5.411   3.209
 2955TIP3    H1 8806   3.180   5.325   3.219
 2955TIP3    H2 8807   3.148   5.473   3.212
 2956TIP3   OH2 8808   3.489   0.136   2.645
 2956TIP3    H1 8809   3.452   0.050   2.665
 2956TIP3    H2 8810   3.537   0.161   2.724
 2957TIP3   OH2 8811   6.803   5.105   2.125
 2957TIP3    H1 8812   6.844   5.120   2.040
 2957TIP3    H2 8813   6.794   5.192   2.164
 2958TIP3   OH2 8814   3.552   0.393   5.755
 2958TIP3    H1 8815   3.631   0.346   5.728
 2958TIP3    H2 8816   3.548   0.468   5.695
 2959TIP3   OH2 8817   8.076   4.191   6.617
 2959TIP3    H1 8818   7.991   4.222   6.649
 2959TIP3    H2 8819   8.085   4.232   6.531
 2960TIP3   OH2 8820   1.610   7.826   3.630
 2960TIP3    H1 8821   1.572   7.810   3.543
 2960TIP3    H2 8822   1.688   7.878   3.613
 2961TIP3   OH2 8823   1.440   4.975   4.301
 2961TIP3    H1 8824   1.365   4.916   4.315
 2961TIP3    H2 8825   1.508   4.941   4.358
 2962TIP3   OH2 8826   5.610   2.373   6.610
 2962TIP3    H1 8827   5.619   2.352   6.517
 2962TIP3    H2 8828   5.669   2.314   6.654
 2963TIP3   OH2 8829   6.325   4.666   4.153
 2963TIP3    H1 8830   6.350   4.618   4.073
 2963TIP3    H2 8831   6.307   4.597   4.217
 2964TIP3   OH2 8832   2.391   6.921   6.369
 2964TIP3    H1 8833   2.422   6.852   6.428
 2964TIP3    H2 8834   2.380   6.877   6.285
 2965TIP3   OH2 8835   6.493   1.809   6.482
 2965TIP3    H1 8836   6.531   1.873   6.542
 2965TIP3    H2 8837   6.461   1.739   6.539
 2966TIP3   OH2 8838   6.826   7.448   6.079
 2966TIP3    H1 8839   6.903   7.496   6.047
 2966TIP3    H2 8840   6.838   7.444   6.174
 2967TIP3   OH2 8841   3.634   3.753   5.455
 2967TIP3    H1 8842   3.685   3.716   5.527
 2967TIP3    H2 8843   3.626   3.846   5.477
 2968TIP3   OH2 8844   2.153   6.381   4.754
 2968TIP3    H1 8845   2.093   6.416   4.820
 2968TIP3    H2 8846   2.224   6.341   4.805
 2969TIP3   OH2 8847   5.203   0.673   2.410
 2969TIP3    H1 8848   5.224   0.729   2.335
 2969TIP3    H2 8849   5.178   0.734   2.479
 2970TIP3   OH2 8850   7.147   7.162   3.990
 2970TIP3    H1 8851   7.119   7.151   4.080
 2970TIP3    H2 8852   7.109   7.088   3.943
 2971TIP3   OH2 8853   6.168   7.820   4.148
 2971TIP3    H1 8854   6.250   7.864   4.169
 2971TIP3    H2 8855   6.192   7.753   4.084
 2972TIP3   OH2 8856   3.432   0.689   4.173
 2972TIP3    H1 8857   3.460   0.747   4.244
 2972TIP3    H2 8858   3.465   0.730   4.093
 2973TIP3   OH2 8859   5.735   2.879   6.095
 2973TIP3    H1 8860   5.705   2.966   6.124
 2973TIP3    H2 8861   5.747   2.830   6.176
 2974TIP3   OH2 8862   6.963   2.370   2.094
 2974TIP3    H1 8863   6.898   2.423   2.049
 2974TIP3    H2 8864   7.002   2.315   2.026
 2975TIP3   OH2 8865   7.529   6.373   2.960
 2975TIP3    H1 8866   7.561   6.287   2.934
 2975TIP3    H2 8867   7.459   6.392   2.898
 2976TIP3   OH2 8868   6.140   4.398   4.030
 2976TIP3    H1 8869   6.189   4.340   4.089
 2976TIP3    H2 8870   6.208   4.447   3.983
 2977TIP3   OH2 8871   6.523   1.560   5.637
 2977TIP3    H1 8872   6.617   1.571   5.620
 2977TIP3    H2 8873   6.509   1.466   5.630
 2978TIP3   OH2 8874   6.431   6.192   5.571
 2978TIP3    H1 8875   6.443   6.254   5.499
 2978TIP3    H2 8876   6.450   6.243   5.650
 2979TIP3   OH2 8877   7.510   0.880   0.416
 2979TIP3    H1 8878   7.510   0.866   0.322
 2979TIP3    H2 8879   7.590   0.929   0.434
 2980TIP3   OH2 8880   2.131   4.893   1.305
 2980TIP3    H1 8881   2.073   4.869   1.377
 2980TIP3    H2 8882   2.202   4.828   1.308
 2981TIP3   OH2 8883   1.640   4.540   4.715
 2981TIP3    H1 8884   1.661   4.459   4.761
 2981TIP3    H2 8885   1.668   4.523   4.625
 2982TIP3   OH2 8886   7.817   1.809   3.780
 2982TIP3    H1 8887   7.765   1.755   3.839
 2982TIP3    H2 8888   7.905   1.808   3.818
 2983TIP3   OH2 8889   2.075   4.083   1.867
 2983TIP3    H1 8890   2.066   4.044   1.954
 2983TIP3    H2 8891   2.072   4.177   1.882
 2984TIP3   OH2 8892   6.951   7.485   2.114
 2984TIP3    H1 8893   6.882   7.460   2.175
 2984TIP3    H2 8894   7.027   7.434   2.141
 2985TIP3   OH2 8895   1.050   0.100   3.566
 2985TIP3    H1 8896   0.995   0.062   3.497
 2985TIP3    H2 8897   1.132   0.121   3.522
 2986TIP3   OH2 8898   4.852   2.990   4.942
 2986TIP3    H1 8899   4.915   3.052   4.907
 2986TIP3    H2 8900   4.802   3.040   5.006
 2987TIP3   OH2 8901   4.668   6.135   4.296
 2987TIP3    H1 8902   4.701   6.224   4.301
 2987TIP3    H2 8903   4.663   6.105   4.387
 2988TIP3   OH2 8904   3.963   4.096   2.868
 2988TIP3    H1 8905   3.984   4.007   2.897
 2988TIP3    H2 8906   3.871   4.107   2.892
 2989TIP3   OH2 8907   1.036   7.363   0.208
 2989TIP3    H1 8908   1.056   7.308   0.132
 2989TIP3    H2 8909   1.091   7.328   0.278
 2990TIP3   OH2 8910   6.323   2.326   0.499
 2990TIP3    H1 8911   6.237   2.356   0.468
 2990TIP3    H2 8912   6.385   2.389   0.464
 2991TIP3   OH2 8913   5.980   6.597   4.584
 2991TIP3    H1 8914   5.935   6.527   4.536
 2991TIP3    H2 8915   6.073   6.575   4.575
 2992TIP3   OH2 8916   0.380   4.813   4.461
 2992TIP3    H1 8917   0.474   4.818   4.443
 2992TIP3    H2 8918   0.342   4.783   4.378
 2993TIP3   OH2 8919   5.356   4.967   4.437
 2993TIP3    H1 8920   5.339   4.959   4.343
 2993TIP3    H2 8921   5.405   5.049   4.446
 2994TIP3   OH2 8922   2.534   2.186   4.910
 2994TIP3    H1 8923   2.516   2.259   4.969
 2994TIP3    H2 8924   2.478   2.203   4.834
 2995TIP3   OH2 8925   1.593   1.786   0.010
 2995TIP3    H1 8926   1.604   1.787   0.105
 2995TIP3    H2 8927   1.503   1.816  -0.004
 2996TIP3   OH2 8928   7.430   0.268   5.248
 2996TIP3    H1 8929   7.422   0.182   5.290
 2996TIP3    H2 8930   7.340   0.298   5.236
 2997TIP3   OH2 8931   5.025   0.818   4.259
 2997TIP3    H1 8932   5.006   0.901   4.216
 2997TIP3    H2 8933   4.962   0.757   4.223
 2998TIP3   OH2 8934   7.847   4.217   2.814
 2998TIP3    H1 8935   7.787   4.170   2.756
 2998TIP3    H2 8936   7.860   4.301   2.770
 2999TIP3   OH2 8937   5.882   1.256   0.753
 2999TIP3    H1 8938   5.875   1.173   0.800
 2999TIP3    H2 8939   5.798   1.299   0.767
 3000TIP3   OH2 8940   4.099   5.116   4.105
 3000TIP3    H1 8941   4.099   5.084   4.195
 3000TIP3    H2 8942   4.007   5.124   4.082
 3001TIP3   OH2 8943   5.145   7.648   5.874
 3001TIP3    H1 8944   5.174   7.561   5.899
 3001TIP3    H2 8945   5.122   7.691   5.957
 3002TIP3   OH2 8946   8.064   6.834   4.094
 3002TIP3    H1 8947   8.037   6.753   4.137
 3002TIP3    H2 8948   7.996   6.850   4.028
 3003TIP3   OH2 8949   8.391   2.989   1.632
 3003TIP3    H1 8950   8.309   3.033   1.654
 3003TIP3    H2 8951   8.432   2.970   1.716
 3004TIP3   OH2 8952   4.563   1.260   5.261
 3004TIP3    H1 8953   4.503   1.186   5.275
 3004TIP3    H2 8954   4.650   1.222   5.267
 3005TIP3   OH2 8955   3.614   2.404   6.591
 3005TIP3    H1 8956   3.705   2.389   6.615
 3005TIP3    H2 8957   3.564   2.340   6.643
 3006TIP3   OH2 8958   2.528   7.138   1.189
 3006TIP3    H1 8959   2.507   7.229   1.168
 3006TIP3    H2 8960   2.469   7.087   1.134
 3007TIP3   OH2 8961   2.840   0.128   5.085
 3007TIP3    H1 8962   2.893   0.064   5.131
 3007TIP3    H2 8963   2.883   0.212   5.103
 3008TIP3   OH2 8964   7.221   3.991   0.776
 3008TIP3    H1 8965   7.132   3.966   0.749
 3008TIP3    H2 8966   7.210   4.078   0.814
 3009TIP3   OH2 8967   6.524   4.631   5.057
 3009TIP3    H1 8968   6.599   4.689   5.045
 3009TIP3    H2 8969   6.529   4.604   5.148
 3010TIP3   OH2 8970   6.847   1.999   6.510
 3010TIP3    H1 8971   6.772   2.013   6.568
 3010TIP3    H2 8972   6.923   2.010   6.566
 3011TIP3   OH2 8973   8.271   1.978   1.231
 3011TIP3    H1 8974   8.225   1.902   1.266
 3011TIP3    H2 8975   8.251   2.048   1.293
 3012TIP3   OH2 8976   0.111   6.527   4.077
 3012TIP3    H1 8977   0.194   6.480   4.091
 3012TIP3    H2 8978   0.074   6.536   4.165
 3013TIP3   OH2 8979   4.182   2.539   4.492
 3013TIP3    H1 8980   4.207   2.590   4.569
 3013TIP3    H2 8981   4.225   2.584   4.419
 3014TIP3   OH2 8982   4.696   1.800   0.573
 3014TIP3    H1 8983   4.746   1.718   0.571
 3014TIP3    H2 8984   4.609   1.775   0.603
 3015TIP3   OH2 8985   4.775   6.971   1.495
 3015TIP3    H1 8986   4.734   7.043   1.446
 3015TIP3    H2 8987   4.865   7.000   1.509
 3016TIP3   OH2 8988   5.954   4.198   1.929
 3016TIP3    H1 8989   6.001   4.174   2.009
 3016TIP3    H2 8990   5.885   4.257   1.959
 3017TIP3   OH2 8991   3.902   0.177   0.107
 3017TIP3    H1 8992   3.918   0.226   0.027
 3017TIP3    H2 8993   3.938   0.090   0.090
 3018TIP3   OH2 8994   4.563   2.542   5.502
 3018TIP3    H1 8995   4.602   2.613   5.553
 3018TIP3    H2 8996   4.636   2.484   5.482
 3019TIP3   OH2 8997   0.671   7.833   3.781
 3019TIP3    H1 8998   0.606   7.902   3.797
 3019TIP3    H2 8999   0.631   7.777   3.714
 3020TIP3   OH2 9000   4.269   4.030   3.118
 3020TIP3    H1 9001   4.198   4.077   3.162
 3020TIP3    H2 9002   4.265   3.942   3.155
 3021TIP3   OH2 9003   1.865   2.334   3.363
 3021TIP3    H1 9004   1.939   2.333   3.423
 3021TIP3    H2 9005   1.789   2.346   3.420
 3022TIP3   OH2 9006   7.000   7.137   5.896
 3022TIP3    H1 9007   7.056   7.215   5.898
 3022TIP3    H2 9008   7.032   7.084   5.969
 3023TIP3   OH2 9009   2.898   1.205   5.199
 3023TIP3    H1 9010   2.926   1.119   5.168
 3023TIP3    H2 9011   2.977   1.243   5.238
 3024TIP3   OH2 9012   1.296   7.229   3.251
 3024TIP3    H1 9013   1.355   7.270   3.315
 3024TIP3    H2 9014   1.230   7.296   3.233
 3025TIP3   OH2 9015   6.985   2.434   6.009
 3025TIP3    H1 9016   7.061   2.437   6.068
 3025TIP3    H2 9017   6.929   2.505   6.039
 3026TIP3   OH2 9018   5.511   6.313   1.533
 3026TIP3    H1 9019   5.516   6.277   1.444
 3026TIP3    H2 9020   5.542   6.403   1.524
 3027TIP3   OH2 9021   8.109   5.938   0.243
 3027TIP3    H1 9022   8.046   5.948   0.171
 3027TIP3    H2 9023   8.092   5.850   0.277
 3028TIP3   OH2 9024   4.982   6.909   5.479
 3028TIP3    H1 9025   4.931   6.885   5.556
 3028TIP3    H2 9026   5.062   6.950   5.514
 3029TIP3   OH2 9027   5.698   4.313   2.963
 3029TIP3    H1 9028   5.698   4.406   2.986
 3029TIP3    H2 9029   5.761   4.274   3.023
 3030TIP3   OH2 9030   7.045   2.776   0.167
 3030TIP3    H1 9031   7.105   2.850   0.166
 3030TIP3    H2 9032   7.081   2.716   0.232
 3031TIP3   OH2 9033   0.677   6.869   3.259
 3031TIP3    H1 9034   0.651   6.921   3.183
 3031TIP3    H2 9035   0.594   6.840   3.297
 3032TIP3   OH2 9036   5.425   5.763   1.416
 3032TIP3    H1 9037   5.498   5.761   1.354
 3032TIP3    H2 9038   5.462   5.801   1.496
 3033TIP3   OH2 9039   5.370   4.281   1.740
 3033TIP3    H1 9040   5.422   4.361   1.726
 3033TIP3    H2 9041   5.280   4.313   1.750
 3034TIP3   OH2 9042   3.429   7.239   5.006
 3034TIP3    H1 9043   3.430   7.189   4.925
 3034TIP3    H2 9044   3.388   7.322   4.983
 3035TIP3   OH2 9045   5.655   0.341   2.873
 3035TIP3    H1 9046   5.579   0.362   2.927
 3035TIP3    H2 9047   5.711   0.419   2.879
 3036TIP3   OH2 9048   5.343   5.331   6.474
 3036TIP3    H1 9049   5.260   5.360   6.514
 3036TIP3    H2 9050   5.320   5.309   6.384
 3037TIP3   OH2 9051   1.791   3.290   2.177
 3037TIP3    H1 9052   1.875   3.294   2.223
 3037TIP3    H2 9053   1.771   3.380   2.155
 3038TIP3   OH2 9054   7.877   6.986   2.885
 3038TIP3    H1 9055   7.892   7.055   2.949
 3038TIP3    H2 9056   7.959   6.978   2.837
 3039TIP3   OH2 9057   1.345   7.873   0.451
 3039TIP3    H1 9058   1.403   7.817   0.503
 3039TIP3    H2 9059   1.367   7.852   0.360
 3040TIP3   OH2 9060   7.797   3.967   6.178
 3040TIP3    H1 9061   7.710   3.949   6.214
 3040TIP3    H2 9062   7.780   4.004   6.092
 3041TIP3   OH2 9063   3.992   3.651   6.129
 3041TIP3    H1 9064   4.038   3.567   6.121
 3041TIP3    H2 9065   3.974   3.661   6.222
 3042TIP3   OH2 9066   1.844   4.202  -0.049
 3042TIP3    H1 9067   1.809   4.125  -0.094
 3042TIP3    H2 9068   1.915   4.168   0.005
 3043TIP3   OH2 9069   7.328   6.900   4.161
 3043TIP3    H1 9070   7.248   6.931   4.117
 3043TIP3    H2 9071   7.295   6.844   4.232
 3044TIP3   OH2 9072   5.372   4.939   1.757
 3044TIP3    H1 9073   5.303   5.002   1.740
 3044TIP3    H2 9074   5.390   4.948   1.851
 3045TIP3   OH2 9075   2.660   6.965   2.430
 3045TIP3    H1 9076   2.698   7.052   2.438
 3045TIP3    H2 9077   2.598   6.959   2.502
 3046TIP3   OH2 9078   0.568   3.308   0.780
 3046TIP3    H1 9079   0.606   3.300   0.868
 3046TIP3    H2 9080   0.553   3.217   0.753
 3047TIP3   OH2 9081   5.420   7.041   2.413
 3047TIP3    H1 9082   5.434   7.041   2.318
 3047TIP3    H2 9083   5.412   6.948   2.435
 3048TIP3   OH2 9084   4.343   6.191   1.231
 3048TIP3    H1 9085   4.323   6.148   1.314
 3048TIP3    H2 9086   4.427   6.154   1.205
 3049TIP3   OH2 9087   6.897   2.754   1.743
 3049TIP3    H1 9088   6.894   2.849   1.732
 3049TIP3    H2 9089   6.989   2.732   1.734
 3050TIP3   OH2 9090   4.208   3.298   6.666
 3050TIP3    H1 9091   4.165   3.223   6.706
 3050TIP3    H2 9092   4.151   3.372   6.685
 3051TIP3   OH2 9093   7.955   6.494   4.115
 3051TIP3    H1 9094   7.870   6.533   4.133
 3051TIP3    H2 9095   7.995   6.482   4.202
 3052TIP3   OH2 9096   3.048   1.498   2.343
 3052TIP3    H1 9097   3.011   1.438   2.409
 3052TIP3    H2 9098   3.133   1.523   2.379
 3053TIP3   OH2 9099   1.795   3.124   6.001
 3053TIP3    H1 9100   1.819   3.137   6.093
 3053TIP3    H2 9101   1.862   3.170   5.951
 3054TIP3   OH2 9102   4.444   1.026   2.658
 3054TIP3    H1 9103   4.402   1.035   2.572
 3054TIP3    H2 9104   4.478   0.936   2.659
 3055TIP3   OH2 9105   3.916   0.563   4.894
 3055TIP3    H1 9106   3.842   0.522   4.850
 3055TIP3    H2 9107   3.991   0.546   4.838
 3056TIP3   OH2 9108   3.179   4.148   5.407
 3056TIP3    H1 9109   3.202   4.061   5.439
 3056TIP3    H2 9110   3.209   4.207   5.477
 3057TIP3   OH2 9111   6.479   6.276   6.419
 3057TIP3    H1 9112   6.489   6.229   6.502
 3057TIP3    H2 9113   6.441   6.211   6.359
 3058TIP3   OH2 9114   1.914   0.894   6.573
 3058TIP3    H1 9115   1.944   0.952   6.643
 3058TIP3    H2 9116   1.819   0.900   6.576
 3059TIP3   OH2 9117   1.758   2.592   0.407
 3059TIP3    H1 9118   1.741   2.682   0.432
 3059TIP3    H2 9119   1.689   2.542   0.451
 3060TIP3   OH2 9120   7.186   1.499   0.999
 3060TIP3    H1 9121   7.106   1.463   0.962
 3060TIP3    H2 9122   7.218   1.560   0.933
 3061TIP3   OH2 9123   6.263   1.668   4.908
 3061TIP3    H1 9124   6.188   1.710   4.864
 3061TIP3    H2 9125   6.225   1.594   4.955
 3062TIP3   OH2 9126   2.135   5.084   3.661
 3062TIP3    H1 9127   2.162   5.056   3.749
 3062TIP3    H2 9128   2.159   5.011   3.604
 3063TIP3   OH2 9129   6.435   0.867   1.610
 3063TIP3    H1 9130   6.469   0.871   1.700
 3063TIP3    H2 9131   6.458   0.779   1.580
 3064TIP3   OH2 9132   5.163   3.264   4.649
 3064TIP3    H1 9133   5.217   3.285   4.574
 3064TIP3    H2 9134   5.133   3.175   4.634
 3065TIP3   OH2 9135   0.417   0.512   0.764
 3065TIP3    H1 9136   0.401   0.606   0.774
 3065TIP3    H2 9137   0.483   0.506   0.694
 3066TIP3   OH2 9138   3.088   7.898   4.017
 3066TIP3    H1 9139   3.083   7.912   4.111
 3066TIP3    H2 9140   3.174   7.932   3.992
 3067TIP3   OH2 9141   0.630   3.254   2.111
 3067TIP3    H1 9142   0.685   3.177   2.126
 3067TIP3    H2 9143   0.541   3.224   2.128
 3068TIP3   OH2 9144   7.412   0.792   0.878
 3068TIP3    H1 9145   7.374   0.875   0.907
 3068TIP3    H2 9146   7.501   0.793   0.913
 3069TIP3   OH2 9147   5.440   6.925   1.055
 3069TIP3    H1 9148   5.449   7.018   1.033
 3069TIP3    H2 9149   5.370   6.894   0.999
 3070TIP3   OH2 9150   1.414   5.966   0.787
 3070TIP3    H1 9151   1.336   5.942   0.837
 3070TIP3    H2 9152   1.396   6.055   0.756
 3071TIP3   OH2 9153   0.674   0.499   5.704
 3071TIP3    H1 9154   0.587   0.528   5.731
 3071TIP3    H2 9155   0.667   0.489   5.609
 3072TIP3   OH2 9156   5.315   0.436   0.958
 3072TIP3    H1 9157   5.266   0.509   0.995
 3072TIP3    H2 9158   5.332   0.378   1.032
 3073TIP3   OH2 9159   7.481   4.191   5.382
 3073TIP3    H1 9160   7.443   4.104   5.378
 3073TIP3    H2 9161   7.543   4.193   5.309
 3074TIP3   OH2 9162   4.861   5.509   0.076
 3074TIP3    H1 9163   4.889   5.428   0.032
 3074TIP3    H2 9164   4.791   5.543   0.021
 3075TIP3   OH2 9165   6.266   6.846   0.466
 3075TIP3    H1 9166   6.322   6.921   0.486
 3075TIP3    H2 9167   6.306   6.805   0.390
 3076TIP3   OH2 9168   1.010   1.921   0.420
 3076TIP3    H1 9169   1.029   2.015   0.423
 3076TIP3    H2 9170   0.954   1.905   0.497
 3077TIP3   OH2 9171   5.545   5.046   1.432
 3077TIP3    H1 9172   5.569   5.138   1.430
 3077TIP3    H2 9173   5.450   5.044   1.418
 3078TIP3   OH2 9174   7.711   4.686   4.583
 3078TIP3    H1 9175   7.620   4.677   4.611
 3078TIP3    H2 9176   7.758   4.620   4.635
 3079TIP3   OH2 9177   6.449   2.941   6.063
 3079TIP3    H1 9178   6.455   3.009   5.996
 3079TIP3    H2 9179   6.448   2.989   6.146
 3080TIP3   OH2 9180   2.820   3.714   2.145
 3080TIP3    H1 9181   2.751   3.780   2.135
 3080TIP3    H2 9182   2.897   3.754   2.104
 3081TIP3   OH2 9183   0.403   6.728   1.707
 3081TIP3    H1 9184   0.392   6.634   1.721
 3081TIP3    H2 9185   0.410   6.765   1.794
 3082TIP3   OH2 9186   1.247   2.539   4.822
 3082TIP3    H1 9187   1.167   2.524   4.771
 3082TIP3    H2 9188   1.239   2.480   4.897
 3083TIP3   OH2 9189   5.953   7.079   1.558
 3083TIP3    H1 9190   5.945   6.996   1.511
 3083TIP3    H2 9191   6.047   7.097   1.559
 3084TIP3   OH2 9192   4.994   3.471   4.968
 3084TIP3    H1 9193   4.993   3.550   5.022
 3084TIP3    H2 9194   5.005   3.504   4.878
 3085TIP3   OH2 9195   4.707   4.756   5.776
 3085TIP3    H1 9196   4.705   4.843   5.736
 3085TIP3    H2 9197   4.624   4.715   5.751
 3086TIP3   OH2 9198   3.952   1.812   2.858
 3086TIP3    H1 9199   3.871   1.863   2.861
 3086TIP3    H2 9200   3.926   1.725   2.888
 3087TIP3   OH2 9201   6.519   1.797   0.313
 3087TIP3    H1 9202   6.433   1.822   0.278
 3087TIP3    H2 9203   6.535   1.709   0.279
 3088TIP3   OH2 9204   7.319   0.396   6.198
 3088TIP3    H1 9205   7.286   0.439   6.119
 3088TIP3    H2 9206   7.365   0.319   6.166
 3089TIP3   OH2 9207   3.206   6.112   2.686
 3089TIP3    H1 9208   3.266   6.186   2.693
 3089TIP3    H2 9209   3.193   6.083   2.776
 3090TIP3   OH2 9210   5.204   6.606   0.074
 3090TIP3    H1 9211   5.155   6.554   0.009
 3090TIP3    H2 9212   5.153   6.598   0.154
 3091TIP3   OH2 9213   8.294   4.545   0.082
 3091TIP3    H1 9214   8.221   4.600   0.112
 3091TIP3    H2 9215   8.296   4.472   0.143
 3092TIP3   OH2 9216   7.449   7.296   1.835
 3092TIP3    H1 9217   7.368   7.279   1.786
 3092TIP3    H2 9218   7.517   7.250   1.785
 3093TIP3   OH2 9219   0.447   1.945   2.284
 3093TIP3    H1 9220   0.514   2.008   2.260
 3093TIP3    H2 9221   0.463   1.869   2.227
 3094TIP3   OH2 9222   4.373   4.700   3.856
 3094TIP3    H1 9223   4.281   4.681   3.835
 3094TIP3    H2 9224   4.369   4.776   3.915
 3095TIP3   OH2 9225   8.192   6.995   3.186
 3095TIP3    H1 9226   8.278   6.964   3.158
 3095TIP3    H2 9227   8.154   6.921   3.235
 3096TIP3   OH2 9228   0.068   3.520   4.368
 3096TIP3    H1 9229   0.052   3.604   4.410
 3096TIP3    H2 9230   0.122   3.472   4.431
 3097TIP3   OH2 9231   5.101   7.787   5.572
 3097TIP3    H1 9232   5.140   7.713   5.525
 3097TIP3    H2 9233   5.158   7.861   5.553
 3098TIP3   OH2 9234   3.508   5.256   6.415
 3098TIP3    H1 9235   3.561   5.241   6.337
 3098TIP3    H2 9236   3.531   5.344   6.443
 3099TIP3   OH2 9237   6.065   6.876   0.662
 3099TIP3    H1 9238   6.069   6.972   0.660
 3099TIP3    H2 9239   6.134   6.848   0.603
 3100TIP3   OH2 9240   3.468   3.327   5.461
 3100TIP3    H1 9241   3.480   3.237   5.429
 3100TIP3    H2 9242   3.404   3.318   5.532
 3101TIP3   OH2 9243   1.937   7.792   1.702
 3101TIP3    H1 9244   1.846   7.761   1.699
 3101TIP3    H2 9245   1.946   7.833   1.788
 3102TIP3   OH2 9246   1.990   3.247   5.777
 3102TIP3    H1 9247   2.043   3.186   5.829
 3102TIP3    H2 9248   2.048   3.322   5.763
 3103TIP3   OH2 9249   3.961   1.257   1.020
 3103TIP3    H1 9250   3.965   1.238   1.114
 3103TIP3    H2 9251   3.958   1.170   0.979
 3104TIP3   OH2 9252   3.641   1.967   3.521
 3104TIP3    H1 9253   3.665   2.007   3.438
 3104TIP3    H2 9254   3.614   2.040   3.576
 3105TIP3   OH2 9255   5.616   1.032   6.408
 3105TIP3    H1 9256   5.650   1.080   6.484
 3105TIP3    H2 9257   5.624   1.094   6.335
 3106TIP3   OH2 9258   6.764   7.915   4.524
 3106TIP3    H1 9259   6.858   7.910   4.542
 3106TIP3    H2 9260   6.738   7.824   4.511
 3107TIP3   OH2 9261   7.191   4.503   4.742
 3107TIP3    H1 9262   7.140   4.424   4.760
 3107TIP3    H2 9263   7.239   4.519   4.824
 3108TIP3   OH2 9264   2.382   7.656   0.320
 3108TIP3    H1 9265   2.356   7.571   0.284
 3108TIP3    H2 9266   2.434   7.696   0.251
 3109TIP3   OH2 9267   5.574   0.805   2.353
 3109TIP3    H1 9268   5.518   0.876   2.384
 3109TIP3    H2 9269   5.556   0.799   2.260
 3110TIP3   OH2 9270   3.076   1.877   4.785
 3110TIP3    H1 9271   2.982   1.887   4.801
 3110TIP3    H2 9272   3.111   1.965   4.797
 3111TIP3   OH2 9273   1.971   0.610   2.486
 3111TIP3    H1 9274   2.010   0.622   2.400
 3111TIP3    H2 9275   1.914   0.686   2.498
 3112TIP3   OH2 9276   8.176   3.239   6.046
 3112TIP3    H1 9277   8.090   3.236   6.006
 3112TIP3    H2 9278   8.170   3.182   6.122
 3113TIP3   OH2 9279   2.366   1.793   6.119
 3113TIP3    H1 9280   2.371   1.878   6.163
 3113TIP3    H2 9281   2.284   1.755   6.152
 3114TIP3   OH2 9282   5.777   1.302   5.238
 3114TIP3    H1 9283   5.682   1.297   5.250
 3114TIP3    H2 9284   5.811   1.234   5.296
 3115TIP3   OH2 9285   1.718   5.729   2.526
 3115TIP3    H1 9286   1.654   5.785   2.481
 3115TIP3    H2 9287   1.796   5.734   2.472
 3116TIP3   OH2 9288  -0.005   7.580   1.071
 3116TIP3    H1 9289   0.020   7.522   1.144
 3116TIP3    H2 9290  -0.048   7.522   1.008
 3117TIP3   OH2 9291   5.283   0.813   1.505
 3117TIP3    H1 9292   5.359   0.756   1.496
 3117TIP3    H2 9293   5.270   0.850   1.418
 3118TIP3   OH2 9294   0.747   0.938   0.686
 3118TIP3    H1 9295   0.681   0.877   0.718
 3118TIP3    H2 9296   0.714   0.967   0.601
 3119TIP3   OH2 9297   4.096   4.155   2.297
 3119TIP3    H1 9298   4.004   4.150   2.269
 3119TIP3    H2 9299   4.092   4.201   2.381
 3120TIP3   OH2 9300   7.824   0.196   4.023
 3120TIP3    H1 9301   7.860   0.141   4.092
 3120TIP3    H2 9302   7.865   0.163   3.942
 3121TIP3   OH2 9303   2.661   6.672   4.945
 3121TIP3    H1 9304   2.668   6.720   5.027
 3121TIP3    H2 9305   2.614   6.732   4.886
 3122TIP3   OH2 9306   4.820   4.578   0.146
 3122TIP3    H1 9307   4.844   4.607   0.234
 3122TIP3    H2 9308   4.807   4.660   0.097
 3123TIP3   OH2 9309   7.816   7.082   2.120
 3123TIP3    H1 9310   7.884   7.020   2.146
 3123TIP3    H2 9311   7.787   7.122   2.203
 3124TIP3   OH2 9312   1.011   6.620   0.567
 3124TIP3    H1 9313   1.010   6.626   0.663
 3124TIP3    H2 9314   0.992   6.528   0.549
 3125TIP3   OH2 9315   1.717   0.353   5.356
 3125TIP3    H1 9316   1.753   0.265   5.364
 3125TIP3    H2 9317   1.781   0.401   5.303
 3126TIP3   OH2 9318   8.196   7.049   1.867
 3126TIP3    H1 9319   8.174   7.139   1.890
 3126TIP3    H2 9320   8.220   7.008   1.950
 3127TIP3   OH2 9321   1.594   7.176   5.912
 3127TIP3    H1 9322   1.643   7.204   5.990
 3127TIP3    H2 9323   1.586   7.081   5.922
 3128TIP3   OH2 9324   7.697   2.021   2.866
 3128TIP3    H1 9325   7.786   1.994   2.890
 3128TIP3    H2 9326   7.703   2.116   2.856
 3129TIP3   OH2 9327   2.579   6.589   4.434
 3129TIP3    H1 9328   2.502   6.628   4.476
 3129TIP3    H2 9329   2.545   6.551   4.353
 3130TIP3   OH2 9330   3.526   5.490   4.954
 3130TIP3    H1 9331   3.587   5.417   4.946
 3130TIP3    H2 9332   3.503   5.492   5.047
 3131TIP3   OH2 9333   3.980   5.148   4.385
 3131TIP3    H1 9334   3.956   5.085   4.453
 3131TIP3    H2 9335   3.898   5.168   4.341
 3132TIP3   OH2 9336   7.480   2.867   6.539
 3132TIP3    H1 9337   7.573   2.887   6.550
 3132TIP3    H2 9338   7.472   2.838   6.448
 3133TIP3   OH2 9339   7.428   2.403   0.461
 3133TIP3    H1 9340   7.396   2.319   0.428
 3133TIP3    H2 9341   7.488   2.434   0.393
 3134TIP3   OH2 9342   0.475   4.865   2.555
 3134TIP3    H1 9343   0.480   4.799   2.624
 3134TIP3    H2 9344   0.548   4.844   2.497
 3135TIP3   OH2 9345   3.635   4.465   4.790
 3135TIP3    H1 9346   3.698   4.427   4.851
 3135TIP3    H2 9347   3.557   4.481   4.842
 3136TIP3   OH2 9348   1.936   2.392   1.566
 3136TIP3    H1 9349   2.002   2.384   1.498
 3136TIP3    H2 9350   1.954   2.320   1.626
 3137TIP3   OH2 9351   6.977   1.498   4.707
 3137TIP3    H1 9352   7.030   1.570   4.741
 3137TIP3    H2 9353   6.947   1.528   4.621
 3138TIP3   OH2 9354   0.938   7.452   5.798
 3138TIP3    H1 9355   0.970   7.521   5.740
 3138TIP3    H2 9356   0.931   7.375   5.742
 3139TIP3   OH2 9357   1.034   2.815   1.788
 3139TIP3    H1 9358   0.979   2.881   1.831
 3139TIP3    H2 9359   1.004   2.732   1.824
 3140TIP3   OH2 9360   8.118   0.510   1.204
 3140TIP3    H1 9361   8.063   0.576   1.247
 3140TIP3    H2 9362   8.070   0.428   1.215
 3141TIP3   OH2 9363   2.856   3.611   5.974
 3141TIP3    H1 9364   2.884   3.647   6.058
 3141TIP3    H2 9365   2.823   3.686   5.925
 3142TIP3   OH2 9366   0.952   7.787   4.534
 3142TIP3    H1 9367   1.036   7.746   4.551
 3142TIP3    H2 9368   0.958   7.873   4.574
 3143TIP3   OH2 9369   3.856   2.550   3.080
 3143TIP3    H1 9370   3.807   2.481   3.124
 3143TIP3    H2 9371   3.839   2.629   3.131
 3144TIP3   OH2 9372   3.185   6.030   5.703
 3144TIP3    H1 9373   3.184   6.045   5.798
 3144TIP3    H2 9374   3.216   5.940   5.693
 3145TIP3   OH2 9375   5.841   2.828   5.860
 3145TIP3    H1 9376   5.855   2.917   5.827
 3145TIP3    H2 9377   5.781   2.838   5.933
 3146TIP3   OH2 9378   0.819   2.408   0.522
 3146TIP3    H1 9379   0.911   2.410   0.549
 3146TIP3    H2 9380   0.775   2.357   0.590
 3147TIP3   OH2 9381   7.807   1.501   6.791
 3147TIP3    H1 9382   7.792   1.585   6.747
 3147TIP3    H2 9383   7.903   1.494   6.797
 3148TIP3   OH2 9384   4.544   1.093   1.783
 3148TIP3    H1 9385   4.616   1.062   1.728
 3148TIP3    H2 9386   4.549   1.189   1.778
 3149TIP3   OH2 9387   5.035   2.988   1.682
 3149TIP3    H1 9388   5.094   3.008   1.755
 3149TIP3    H2 9389   5.002   2.900   1.700
 3150TIP3   OH2 9390   1.422   0.223   5.764
 3150TIP3    H1 9391   1.406   0.152   5.826
 3150TIP3    H2 9392   1.436   0.178   5.680
 3151TIP3   OH2 9393   0.460   3.760   3.077
 3151TIP3    H1 9394   0.505   3.832   3.120
 3151TIP3    H2 9395   0.393   3.732   3.140
 3152TIP3   OH2 9396   0.227   5.963   5.186
 3152TIP3    H1 9397   0.305   5.965   5.131
 3152TIP3    H2 9398   0.181   6.044   5.165
 3153TIP3   OH2 9399   0.804   4.443   4.880
 3153TIP3    H1 9400   0.820   4.534   4.905
 3153TIP3    H2 9401   0.885   4.397   4.902
 3154TIP3   OH2 9402   7.542   7.228   0.161
 3154TIP3    H1 9403   7.531   7.161   0.228
 3154TIP3    H2 9404   7.597   7.294   0.204
 3155TIP3   OH2 9405   7.324   0.821   5.365
 3155TIP3    H1 9406   7.291   0.739   5.328
 3155TIP3    H2 9407   7.381   0.856   5.296
 3156TIP3   OH2 9408   0.606   5.268   5.577
 3156TIP3    H1 9409   0.648   5.191   5.616
 3156TIP3    H2 9410   0.553   5.304   5.648
 3157TIP3   OH2 9411   4.443   4.188   0.982
 3157TIP3    H1 9412   4.359   4.218   1.016
 3157TIP3    H2 9413   4.444   4.094   0.998
 3158TIP3   OH2 9414   0.447   3.774   1.806
 3158TIP3    H1 9415   0.403   3.822   1.875
 3158TIP3    H2 9416   0.538   3.768   1.835
 3159TIP3   OH2 9417   6.572   1.246   0.296
 3159TIP3    H1 9418   6.567   1.291   0.211
 3159TIP3    H2 9419   6.537   1.309   0.359
 3160TIP3   OH2 9420   5.349   3.544   4.321
 3160TIP3    H1 9421   5.327   3.595   4.242
 3160TIP3    H2 9422   5.444   3.546   4.326
 3161TIP3   OH2 9423   5.520   7.502   6.499
 3161TIP3    H1 9424   5.539   7.501   6.405
 3161TIP3    H2 9425   5.449   7.566   6.508
 3162TIP3   OH2 9426   3.900   0.885   1.300
 3162TIP3    H1 9427   3.848   0.864   1.222
 3162TIP3    H2 9428   3.927   0.976   1.287
 3163TIP3   OH2 9429   4.206   7.325   2.933
 3163TIP3    H1 9430   4.162   7.267   2.995
 3163TIP3    H2 9431   4.299   7.303   2.941
 3164TIP3   OH2 9432   0.698   0.221   4.838
 3164TIP3    H1 9433   0.705   0.171   4.919
 3164TIP3    H2 9434   0.709   0.156   4.768
 3165TIP3   OH2 9435   5.655   4.505   4.236
 3165TIP3    H1 9436   5.746   4.519   4.211
 3165TIP3    H2 9437   5.637   4.414   4.212
 3166TIP3   OH2 9438   3.136   2.574   5.696
 3166TIP3    H1 9439   3.081   2.502   5.666
 3166TIP3    H2 9440   3.220   2.534   5.716
 3167TIP3   OH2 9441   1.956   3.162   1.858
 3167TIP3    H1 9442   1.893   3.225   1.893
 3167TIP3    H2 9443   2.017   3.215   1.806
 3168TIP3   OH2 9444   1.283   5.027   0.835
 3168TIP3    H1 9445   1.302   5.097   0.773
 3168TIP3    H2 9446   1.363   4.974   0.838
 3169TIP3   OH2 9447   6.190   1.522   3.647
 3169TIP3    H1 9448   6.156   1.587   3.708
 3169TIP3    H2 9449   6.276   1.498   3.682
 3170TIP3   OH2 9450   4.696   3.600   4.976
 3170TIP3    H1 9451   4.663   3.534   4.915
 3170TIP3    H2 9452   4.749   3.551   5.039
 3171TIP3   OH2 9453   0.033   7.896   0.132
 3171TIP3    H1 9454   0.123   7.864   0.128
 3171TIP3    H2 9455   0.009   7.913   0.041
 3172TIP3   OH2 9456   1.240   4.170   4.232
 3172TIP3    H1 9457   1.273   4.139   4.147
 3172TIP3    H2 9458   1.201   4.092   4.272
 3173TIP3   OH2 9459   5.712   7.208   4.549
 3173TIP3    H1 9460   5.668   7.128   4.576
 3173TIP3    H2 9461   5.664   7.238   4.472
 3174TIP3   OH2 9462   5.862   5.791   3.350
 3174TIP3    H1 9463   5.786   5.808   3.294
 3174TIP3    H2 9464   5.910   5.722   3.305
 3175TIP3   OH2 9465   5.923   2.453   2.580
 3175TIP3    H1 9466   5.978   2.498   2.644
 3175TIP3    H2 9467   5.869   2.394   2.632
 3176TIP3   OH2 9468   7.763   4.314   1.559
 3176TIP3    H1 9469   7.715   4.329   1.477
 3176TIP3    H2 9470   7.836   4.259   1.534
 3177TIP3   OH2 9471   3.021   7.096   0.630
 3177TIP3    H1 9472   2.998   7.105   0.538
 3177TIP3    H2 9473   2.964   7.027   0.663
 3178TIP3   OH2 9474   3.512   3.099   4.874
 3178TIP3    H1 9475   3.435   3.046   4.893
 3178TIP3    H2 9476   3.586   3.039   4.888
 3179TIP3   OH2 9477   4.044   4.021   5.862
 3179TIP3    H1 9478   4.095   3.953   5.906
 3179TIP3    H2 9479   4.055   4.099   5.917
 3180TIP3   OH2 9480   3.472   1.907   4.453
 3180TIP3    H1 9481   3.396   1.892   4.509
 3180TIP3    H2 9482   3.546   1.905   4.514
 3181TIP3   OH2 9483   6.485   7.661   4.921
 3181TIP3    H1 9484   6.399   7.659   4.964
 3181TIP3    H2 9485   6.547   7.648   4.993
 3182TIP3   OH2 9486   1.986   1.387   5.891
 3182TIP3    H1 9487   2.002   1.476   5.923
 3182TIP3    H2 9488   1.895   1.389   5.860
 3183TIP3   OH2 9489   5.754   6.918   4.886
 3183TIP3    H1 9490   5.729   6.954   4.802
 3183TIP3    H2 9491   5.748   6.823   4.875
 3184TIP3   OH2 9492   6.429   1.219   6.597
 3184TIP3    H1 9493   6.349   1.271   6.592
 3184TIP3    H2 9494   6.452   1.202   6.506
 3185TIP3   OH2 9495   3.531   4.018   1.949
 3185TIP3    H1 9496   3.457   3.959   1.943
 3185TIP3    H2 9497   3.556   4.035   1.858
 3186TIP3   OH2 9498   1.582   1.681   1.871
 3186TIP3    H1 9499   1.611   1.725   1.791
 3186TIP3    H2 9500   1.542   1.600   1.841
 3187TIP3   OH2 9501   8.362   0.172   5.745
 3187TIP3    H1 9502   8.301   0.105   5.714
 3187TIP3    H2 9503   8.444   0.154   5.700
 3188TIP3   OH2 9504   0.623   2.131   2.692
 3188TIP3    H1 9505   0.570   2.067   2.644
 3188TIP3    H2 9506   0.709   2.090   2.699
 3189TIP3   OH2 9507   3.851   1.609   1.196
 3189TIP3    H1 9508   3.891   1.616   1.282
 3189TIP3    H2 9509   3.903   1.667   1.140
 3190TIP3   OH2 9510   7.207   6.973   2.808
 3190TIP3    H1 9511   7.126   7.000   2.767
 3190TIP3    H2 9512   7.246   7.053   2.842
 3191TIP3   OH2 9513   3.528   5.672   5.976
 3191TIP3    H1 9514   3.469   5.662   5.901
 3191TIP3    H2 9515   3.565   5.760   5.966
 3192TIP3   OH2 9516   7.265   2.854   5.260
 3192TIP3    H1 9517   7.255   2.945   5.287
 3192TIP3    H2 9518   7.331   2.818   5.320
 3193TIP3   OH2 9519   7.097   1.043   1.349
 3193TIP3    H1 9520   7.097   1.100   1.272
 3193TIP3    H2 9521   7.189   1.031   1.371
 3194TIP3   OH2 9522   7.983   2.440   5.394
 3194TIP3    H1 9523   7.917   2.426   5.462
 3194TIP3    H2 9524   7.932   2.462   5.316
 3195TIP3   OH2 9525   6.650   5.607   6.477
 3195TIP3    H1 9526   6.724   5.625   6.419
 3195TIP3    H2 9527   6.616   5.523   6.448
 3196TIP3   OH2 9528   6.630   5.425   5.598
 3196TIP3    H1 9529   6.644   5.370   5.674
 3196TIP3    H2 9530   6.641   5.515   5.630
 3197TIP3   OH2 9531   0.133   2.347   2.730
 3197TIP3    H1 9532   0.045   2.311   2.746
 3197TIP3    H2 9533   0.161   2.380   2.816
 3198TIP3   OH2 9534   1.380   5.968   0.252
 3198TIP3    H1 9535   1.422   5.892   0.211
 3198TIP3    H2 9536   1.357   6.025   0.178
 3199TIP3   OH2 9537   3.350   7.369   1.548
 3199TIP3    H1 9538   3.362   7.386   1.454
 3199TIP3    H2 9539   3.263   7.406   1.568
 3200TIP3   OH2 9540   2.423   2.570   3.026
 3200TIP3    H1 9541   2.501   2.624   3.014
 3200TIP3    H2 9542   2.384   2.602   3.108
 3201TIP3   OH2 9543   1.203   4.070   3.338
 3201TIP3    H1 9544   1.166   4.107   3.257
 3201TIP3    H2 9545   1.222   4.147   3.392
 3202TIP3   OH2 9546   7.048   3.511   1.188
 3202TIP3    H1 9547   7.090   3.563   1.119
 3202TIP3    H2 9548   6.955   3.536   1.184
 3203TIP3   OH2 9549   1.037   2.054   4.830
 3203TIP3    H1 9550   1.124   2.013   4.828
 3203TIP3    H2 9551   0.995   2.023   4.749
 3204TIP3   OH2 9552   3.685   5.041   0.139
 3204TIP3    H1 9553   3.754   5.069   0.079
 3204TIP3    H2 9554   3.673   5.116   0.198
 3205TIP3   OH2 9555   4.884   0.837   2.288
 3205TIP3    H1 9556   4.979   0.847   2.288
 3205TIP3    H2 9557   4.854   0.888   2.213
 3206TIP3   OH2 9558   7.687   6.526   5.369
 3206TIP3    H1 9559   7.694   6.431   5.369
 3206TIP3    H2 9560   7.728   6.552   5.452
 3207TIP3   OH2 9561   7.642   6.133   2.879
 3207TIP3    H1 9562   7.639   6.168   2.789
 3207TIP3    H2 9563   7.609   6.044   2.871
 3208TIP3   OH2 9564   4.973   1.426   3.620
 3208TIP3    H1 9565   4.894   1.444   3.569
 3208TIP3    H2 9566   5.012   1.513   3.634
 3209TIP3   OH2 9567   5.478   4.230   3.653
 3209TIP3    H1 9568   5.504   4.321   3.667
 3209TIP3    H2 9569   5.388   4.226   3.685
 3210TIP3   OH2 9570   3.121   2.127   3.314
 3210TIP3    H1 9571   3.082   2.141   3.400
 3210TIP3    H2 9572   3.154   2.037   3.317
 3211TIP3   OH2 9573   6.773   3.597   0.057
 3211TIP3    H1 9574   6.688   3.554   0.047
 3211TIP3    H2 9575   6.795   3.627  -0.032
 3212TIP3   OH2 9576   1.590   2.232   6.281
 3212TIP3    H1 9577   1.562   2.310   6.327
 3212TIP3    H2 9578   1.543   2.160   6.323
 3213TIP3   OH2 9579   6.257   3.185   2.629
 3213TIP3    H1 9580   6.318   3.242   2.582
 3213TIP3    H2 9581   6.306   3.156   2.707
 3214TIP3   OH2 9582   3.284   3.817   5.728
 3214TIP3    H1 9583   3.265   3.832   5.636
 3214TIP3    H2 9584   3.206   3.848   5.774
 3215TIP3   OH2 9585   4.541   1.171   4.998
 3215TIP3    H1 9586   4.478   1.106   4.967
 3215TIP3    H2 9587   4.542   1.161   5.093
 3216TIP3   OH2 9588   1.702   5.854   2.764
 3216TIP3    H1 9589   1.693   5.802   2.684
 3216TIP3    H2 9590   1.782   5.906   2.750
 3217TIP3   OH2 9591   0.217   6.898   1.610
 3217TIP3    H1 9592   0.289   6.838   1.629
 3217TIP3    H2 9593   0.204   6.891   1.515
 3218TIP3   OH2 9594   7.461   6.651   4.652
 3218TIP3    H1 9595   7.482   6.702   4.574
 3218TIP3    H2 9596   7.382   6.692   4.687
 3219TIP3   OH2 9597   5.454   7.000   0.308
 3219TIP3    H1 9598   5.546   6.974   0.307
 3219TIP3    H2 9599   5.454   7.090   0.275
 3220TIP3   OH2 9600   2.456   6.671   0.389
 3220TIP3    H1 9601   2.546   6.703   0.398
 3220TIP3    H2 9602   2.451   6.597   0.449
 3221TIP3   OH2 9603   7.017   5.964   5.535
 3221TIP3    H1 9604   6.935   6.013   5.542
 3221TIP3    H2 9605   7.022   5.914   5.617
 3222TIP3   OH2 9606   2.344   0.528   0.406
 3222TIP3    H1 9607   2.366   0.472   0.480
 3222TIP3    H2 9608   2.255   0.502   0.381
 3223TIP3   OH2 9609   2.344   3.327   3.274
 3223TIP3    H1 9610   2.356   3.284   3.358
 3223TIP3    H2 9611   2.333   3.420   3.296
 3224TIP3   OH2 9612   3.938   7.563   1.974
 3224TIP3    H1 9613   4.012   7.509   2.001
 3224TIP3    H2 9614   3.954   7.648   2.015
 3225TIP3   OH2 9615   7.788   4.383   6.596
 3225TIP3    H1 9616   7.805   4.364   6.688
 3225TIP3    H2 9617   7.818   4.305   6.550
 3226TIP3   OH2 9618   4.701   6.035   5.484
 3226TIP3    H1 9619   4.706   5.940   5.474
 3226TIP3    H2 9620   4.609   6.052   5.502
 3227TIP3   OH2 9621   0.961   6.158   5.546
 3227TIP3    H1 9622   1.023   6.135   5.476
 3227TIP3    H2 9623   0.935   6.074   5.583
 3228TIP3   OH2 9624   4.200   2.343   0.728
 3228TIP3    H1 9625   4.135   2.306   0.669
 3228TIP3    H2 9626   4.157   2.345   0.813
 3229TIP3   OH2 9627   6.260   2.217   1.959
 3229TIP3    H1 9628   6.179   2.187   1.916
 3229TIP3    H2 9629   6.256   2.313   1.951
 3230TIP3   OH2 9630   5.428   6.679   1.607
 3230TIP3    H1 9631   5.382   6.596   1.599
 3230TIP3    H2 9632   5.453   6.702   1.517
 3231TIP3   OH2 9633   3.529   5.726   5.526
 3231TIP3    H1 9634   3.587   5.655   5.553
 3231TIP3    H2 9635   3.556   5.747   5.436
 3232TIP3   OH2 9636   5.267   5.276   4.234
 3232TIP3    H1 9637   5.237   5.304   4.147
 3232TIP3    H2 9638   5.222   5.193   4.249
 3233TIP3   OH2 9639   5.904   3.135   6.334
 3233TIP3    H1 9640   5.899   3.056   6.388
 3233TIP3    H2 9641   5.995   3.139   6.305
 3234TIP3   OH2 9642   1.964   4.097   5.817
 3234TIP3    H1 9643   2.057   4.077   5.830
 3234TIP3    H2 9644   1.961   4.142   5.733
 3235TIP3   OH2 9645   3.268   2.510   3.093
 3235TIP3    H1 9646   3.317   2.445   3.143
 3235TIP3    H2 9647   3.252   2.581   3.155
 3236TIP3   OH2 9648   1.989   7.637   5.578
 3236TIP3    H1 9649   2.046   7.561   5.587
 3236TIP3    H2 9650   2.039   7.698   5.524
 3237TIP3   OH2 9651   6.156   7.847   0.575
 3237TIP3    H1 9652   6.078   7.865   0.522
 3237TIP3    H2 9653   6.227   7.895   0.532
 3238TIP3   OH2 9654   2.683   1.238   3.732
 3238TIP3    H1 9655   2.649   1.150   3.742
 3238TIP3    H2 9656   2.656   1.284   3.812
 3239TIP3   OH2 9657   0.321   0.774   4.656
 3239TIP3    H1 9658   0.399   0.807   4.703
 3239TIP3    H2 9659   0.357   0.723   4.584
 3240TIP3   OH2 9660   0.063   6.001   1.757
 3240TIP3    H1 9661   0.017   5.955   1.828
 3240TIP3    H2 9662   0.005   5.993   1.682
 3241TIP3   OH2 9663   3.329   0.165   3.297
 3241TIP3    H1 9664   3.249   0.197   3.340
 3241TIP3    H2 9665   3.391   0.152   3.369
 3242TIP3   OH2 9666   6.254   4.364   0.054
 3242TIP3    H1 9667   6.249   4.347  -0.040
 3242TIP3    H2 9668   6.175   4.414   0.074
 3243TIP3   OH2 9669   4.888   4.856   2.676
 3243TIP3    H1 9670   4.838   4.914   2.734
 3243TIP3    H2 9671   4.851   4.769   2.690
 3244TIP3   OH2 9672   8.290   5.894   2.407
 3244TIP3    H1 9673   8.282   5.826   2.474
 3244TIP3    H2 9674   8.378   5.929   2.418
 3245TIP3   OH2 9675   8.248   7.431   5.195
 3245TIP3    H1 9676   8.286   7.343   5.198
 3245TIP3    H2 9677   8.176   7.428   5.258
 3246TIP3   OH2 9678   1.425   5.119   3.902
 3246TIP3    H1 9679   1.356   5.174   3.864
 3246TIP3    H2 9680   1.506   5.154   3.867
 3247TIP3   OH2 9681   3.488   4.917   4.605
 3247TIP3    H1 9682   3.524   4.850   4.663
 3247TIP3    H2 9683   3.471   4.991   4.662
 3248TIP3   OH2 9684   3.778   6.637   4.713
 3248TIP3    H1 9685   3.857   6.643   4.659
 3248TIP3    H2 9686   3.707   6.663   4.654
 3249TIP3   OH2 9687   1.551   3.031   2.963
 3249TIP3    H1 9688   1.625   3.083   2.931
 3249TIP3    H2 9689   1.574   2.941   2.941
 3250TIP3   OH2 9690   6.246   4.863   3.819
 3250TIP3    H1 9691   6.268   4.934   3.880
 3250TIP3    H2 9692   6.329   4.818   3.803
 3251TIP3   OH2 9693   4.362   0.304   5.718
 3251TIP3    H1 9694   4.410   0.302   5.636
 3251TIP3    H2 9695   4.363   0.397   5.744
 3252TIP3   OH2 9696   0.722   6.982   1.937
 3252TIP3    H1 9697   0.788   7.044   1.905
 3252TIP3    H2 9698   0.648   7.037   1.962
 3253TIP3   OH2 9699   8.192   4.312   5.612
 3253TIP3    H1 9700   8.207   4.401   5.644
 3253TIP3    H2 9701   8.201   4.257   5.689
 3254TIP3   OH2 9702   5.939   4.424   2.633
 3254TIP3    H1 9703   5.914   4.378   2.713
 3254TIP3    H2 9704   5.984   4.358   2.580
 3255TIP3   OH2 9705   5.463   1.975   3.961
 3255TIP3    H1 9706   5.506   1.899   4.000
 3255TIP3    H2 9707   5.415   2.015   4.033
 3256TIP3   OH2 9708   7.189   1.509   3.053
 3256TIP3    H1 9709   7.243   1.432   3.038
 3256TIP3    H2 9710   7.239   1.562   3.114
 3257TIP3   OH2 9711   0.907   1.481   5.974
 3257TIP3    H1 9712   0.940   1.453   5.889
 3257TIP3    H2 9713   0.812   1.476   5.965
 3258TIP3   OH2 9714   5.510   1.183   0.433
 3258TIP3    H1 9715   5.500   1.273   0.401
 3258TIP3    H2 9716   5.459   1.181   0.514
 3259TIP3   OH2 9717   0.093   6.044   0.405
 3259TIP3    H1 9718   0.058   5.960   0.436
 3259TIP3    H2 9719   0.187   6.029   0.396
 3260TIP3   OH2 9720   6.028   5.678   1.073
 3260TIP3    H1 9721   6.114   5.688   1.032
 3260TIP3    H2 9722   6.008   5.764   1.109
 3261TIP3   OH2 9723   2.570   5.454   5.819
 3261TIP3    H1 9724   2.477   5.431   5.811
 3261TIP3    H2 9725   2.572   5.518   5.891
 3262TIP3   OH2 9726   6.979   6.214   0.372
 3262TIP3    H1 9727   7.027   6.170   0.442
 3262TIP3    H2 9728   6.887   6.194   0.389
 3263TIP3   OH2 9729   5.625   1.272   1.866
 3263TIP3    H1 9730   5.586   1.333   1.929
 3263TIP3    H2 9731   5.552   1.219   1.836
 3264TIP3   OH2 9732   1.208   0.717   3.946
 3264TIP3    H1 9733   1.243   0.648   3.890
 3264TIP3    H2 9734   1.282   0.774   3.964
 3265TIP3   OH2 9735   6.857   4.187   6.734
 3265TIP3    H1 9736   6.876   4.100   6.700
 3265TIP3    H2 9737   6.894   4.247   6.669
 3266TIP3   OH2 9738   7.820   0.378   3.760
 3266TIP3    H1 9739   7.907   0.399   3.795
 3266TIP3    H2 9740   7.760   0.435   3.809
 3267TIP3   OH2 9741   2.667   1.957   3.519
 3267TIP3    H1 9742   2.657   2.051   3.533
 3267TIP3    H2 9743   2.616   1.938   3.441
 3268TIP3   OH2 9744   2.127   4.653   0.590
 3268TIP3    H1 9745   2.060   4.589   0.567
 3268TIP3    H2 9746   2.183   4.658   0.512
 3269TIP3   OH2 9747   0.778   0.102   5.074
 3269TIP3    H1 9748   0.854   0.136   5.026
 3269TIP3    H2 9749   0.787   0.139   5.162
 3270TIP3   OH2 9750   2.682   2.524   1.440
 3270TIP3    H1 9751   2.743   2.596   1.459
 3270TIP3    H2 9752   2.739   2.449   1.423
 3271TIP3   OH2 9753   7.003   1.057   3.229
 3271TIP3    H1 9754   6.984   1.095   3.144
 3271TIP3    H2 9755   6.926   1.005   3.251
 3272TIP3   OH2 9756   0.157   0.559   5.738
 3272TIP3    H1 9757   0.202   0.476   5.723
 3272TIP3    H2 9758   0.065   0.535   5.749
 3273TIP3   OH2 9759   4.891   2.022   5.505
 3273TIP3    H1 9760   4.806   2.021   5.549
 3273TIP3    H2 9761   4.949   2.069   5.565
 3274TIP3   OH2 9762   7.329   5.925   2.161
 3274TIP3    H1 9763   7.271   5.996   2.190
 3274TIP3    H2 9764   7.406   5.931   2.218
 3275TIP3   OH2 9765   2.331   3.004   0.329
 3275TIP3    H1 9766   2.288   3.082   0.364
 3275TIP3    H2 9767   2.404   3.037   0.278
 3276TIP3   OH2 9768   3.847   4.325   3.499
 3276TIP3    H1 9769   3.810   4.250   3.547
 3276TIP3    H2 9770   3.902   4.370   3.563
 3277TIP3   OH2 9771   7.805   3.728   2.127
 3277TIP3    H1 9772   7.891   3.759   2.099
 3277TIP3    H2 9773   7.750   3.807   2.127
 3278TIP3   OH2 9774   0.410   6.287   3.561
 3278TIP3    H1 9775   0.331   6.339   3.568
 3278TIP3    H2 9776   0.420   6.246   3.647
 3279TIP3   OH2 9777   5.593   0.525   3.476
 3279TIP3    H1 9778   5.501   0.509   3.457
 3279TIP3    H2 9779   5.640   0.495   3.398
 3280TIP3   OH2 9780   4.634   6.389   5.016
 3280TIP3    H1 9781   4.707   6.447   5.036
 3280TIP3    H2 9782   4.583   6.436   4.950
 3281TIP3   OH2 9783   3.457   0.873   1.271
 3281TIP3    H1 9784   3.400   0.811   1.227
 3281TIP3    H2 9785   3.465   0.840   1.361
 3282TIP3   OH2 9786   3.091   1.736   1.560
 3282TIP3    H1 9787   3.108   1.777   1.475
 3282TIP3    H2 9788   2.996   1.732   1.566
 3283TIP3   OH2 9789   1.296   7.705   6.574
 3283TIP3    H1 9790   1.297   7.610   6.588
 3283TIP3    H2 9791   1.275   7.715   6.481
 3284TIP3   OH2 9792   6.543   5.479   4.090
 3284TIP3    H1 9793   6.483   5.405   4.095
 3284TIP3    H2 9794   6.511   5.540   4.156
 3285TIP3   OH2 9795   4.720   7.197   0.606
 3285TIP3    H1 9796   4.676   7.117   0.637
 3285TIP3    H2 9797   4.707   7.196   0.512
 3286TIP3   OH2 9798   5.087   6.337   5.669
 3286TIP3    H1 9799   5.152   6.317   5.601
 3286TIP3    H2 9800   5.137   6.384   5.736
 3287TIP3   OH2 9801   7.884   1.171   5.444
 3287TIP3    H1 9802   7.861   1.248   5.496
 3287TIP3    H2 9803   7.978   1.179   5.429
 3288TIP3   OH2 9804   2.717   1.369   4.868
 3288TIP3    H1 9805   2.796   1.315   4.866
 3288TIP3    H2 9806   2.646   1.307   4.879
 3289TIP3   OH2 9807   2.427   0.277   0.307
 3289TIP3    H1 9808   2.522   0.287   0.312
 3289TIP3    H2 9809   2.392   0.364   0.325
 3290TIP3   OH2 9810   0.230   0.200   3.159
 3290TIP3    H1 9811   0.225   0.155   3.243
 3290TIP3    H2 9812   0.290   0.273   3.175
 3291TIP3   OH2 9813   6.889   5.547   2.325
 3291TIP3    H1 9814   6.886   5.574   2.234
 3291TIP3    H2 9815   6.830   5.472   2.330
 3292TIP3   OH2 9816   3.276   1.114   2.795
 3292TIP3    H1 9817   3.321   1.184   2.842
 3292TIP3    H2 9818   3.183   1.135   2.805
 3293TIP3   OH2 9819   7.410   5.612   6.023
 3293TIP3    H1 9820   7.392   5.547   6.090
 3293TIP3    H2 9821   7.440   5.561   5.948
 3294TIP3   OH2 9822   0.806   4.592   0.318
 3294TIP3    H1 9823   0.792   4.539   0.240
 3294TIP3    H2 9824   0.757   4.548   0.387
 3295TIP3   OH2 9825   3.889   6.541   4.940
 3295TIP3    H1 9826   3.826   6.470   4.926
 3295TIP3    H2 9827   3.881   6.596   4.862
 3296TIP3   OH2 9828   5.474   4.572   2.381
 3296TIP3    H1 9829   5.476   4.561   2.286
 3296TIP3    H2 9830   5.554   4.528   2.412
 3297TIP3   OH2 9831   2.443   5.751   1.274
 3297TIP3    H1 9832   2.451   5.839   1.237
 3297TIP3    H2 9833   2.353   5.747   1.307
 3298TIP3   OH2 9834   2.963   5.794   3.699
 3298TIP3    H1 9835   2.993   5.774   3.610
 3298TIP3    H2 9836   2.942   5.709   3.737
 3299TIP3   OH2 9837   5.066   4.979   6.811
 3299TIP3    H1 9838   5.109   4.963   6.895
 3299TIP3    H2 9839   4.975   4.999   6.833
 3300TIP3   OH2 9840   4.173   7.279   5.301
 3300TIP3    H1 9841   4.149   7.244   5.387
 3300TIP3    H2 9842   4.212   7.205   5.255
 3301TIP3   OH2 9843   5.647   3.010   0.960
 3301TIP3    H1 9844   5.739   3.038   0.951
 3301TIP3    H2 9845   5.599   3.068   0.901
 3302TIP3   OH2 9846   4.618   2.744   4.730
 3302TIP3    H1 9847   4.701   2.710   4.762
 3302TIP3    H2 9848   4.615   2.834   4.762
 3303TIP3   OH2 9849   3.377   6.900   5.537
 3303TIP3    H1 9850   3.424   6.831   5.584
 3303TIP3    H2 9851   3.285   6.883   5.556
 3304TIP3   OH2 9852   1.262   1.881   6.416
 3304TIP3    H1 9853   1.318   1.804   6.408
 3304TIP3    H2 9854   1.273   1.928   6.333
 3305TIP3   OH2 9855   2.415   3.085   2.886
 3305TIP3    H1 9856   2.472   3.151   2.925
 3305TIP3    H2 9857   2.447   3.075   2.796
 3306TIP3   OH2 9858   1.534   5.490   3.274
 3306TIP3    H1 9859   1.512   5.419   3.213
 3306TIP3    H2 9860   1.629   5.485   3.284
 3307TIP3   OH2 9861   7.363   3.769   1.376
 3307TIP3    H1 9862   7.375   3.770   1.281
 3307TIP3    H2 9863   7.360   3.862   1.401
 3308TIP3   OH2 9864   3.790   7.778   1.837
 3308TIP3    H1 9865   3.853   7.799   1.905
 3308TIP3    H2 9866   3.775   7.684   1.846
 3309TIP3   OH2 9867   2.607   5.211   2.437
 3309TIP3    H1 9868   2.548   5.198   2.363
 3309TIP3    H2 9869   2.550   5.242   2.508
 3310TIP3   OH2 9870   7.450   3.764   1.107
 3310TIP3    H1 9871   7.366   3.727   1.081
 3310TIP3    H2 9872   7.451   3.851   1.067
 3311TIP3   OH2 9873   7.785   2.057   4.840
 3311TIP3    H1 9874   7.730   1.998   4.788
 3311TIP3    H2 9875   7.823   2.002   4.908
 3312TIP3   OH2 9876   6.287   2.561   3.212
 3312TIP3    H1 9877   6.219   2.529   3.272
 3312TIP3    H2 9878   6.243   2.571   3.128
 3313TIP3   OH2 9879   6.235   2.482   1.943
 3313TIP3    H1 9880   6.146   2.511   1.923
 3313TIP3    H2 9881   6.288   2.561   1.933
 3314TIP3   OH2 9882   2.903   5.753   4.832
 3314TIP3    H1 9883   2.992   5.780   4.855
 3314TIP3    H2 9884   2.890   5.671   4.879
 3315TIP3   OH2 9885   1.173   6.878   2.597
 3315TIP3    H1 9886   1.260   6.916   2.608
 3315TIP3    H2 9887   1.113   6.945   2.632
 3316TIP3   OH2 9888   4.661   5.301   0.952
 3316TIP3    H1 9889   4.696   5.327   0.867
 3316TIP3    H2 9890   4.636   5.383   0.994
 3317TIP3   OH2 9891   2.292   3.849   4.654
 3317TIP3    H1 9892   2.303   3.786   4.726
 3317TIP3    H2 9893   2.362   3.913   4.667
 3318TIP3   OH2 9894   2.182   4.348   6.385
 3318TIP3    H1 9895   2.214   4.432   6.353
 3318TIP3    H2 9896   2.194   4.288   6.311
 3319TIP3   OH2 9897   4.712   3.387   3.934
 3319TIP3    H1 9898   4.673   3.322   3.993
 3319TIP3    H2 9899   4.686   3.471   3.971
 3320TIP3   OH2 9900   1.954   1.295   4.798
 3320TIP3    H1 9901   1.933   1.232   4.867
 3320TIP3    H2 9902   1.925   1.380   4.833
 3321TIP3   OH2 9903   8.106   2.614   6.259
 3321TIP3    H1 9904   8.190   2.602   6.302
 3321TIP3    H2 9905   8.069   2.526   6.252
 3322TIP3   OH2 9906   2.164   1.946   1.668
 3322TIP3    H1 9907   2.221   1.869   1.668
 3322TIP3    H2 9908   2.187   1.993   1.589
 3323TIP3   OH2 9909   6.325   5.858   6.531
 3323TIP3    H1 9910   6.382   5.818   6.596
 3323TIP3    H2 9911   6.246   5.803   6.531
 3324TIP3   OH2 9912   6.115   2.838   5.082
 3324TIP3    H1 9913   6.132   2.919   5.130
 3324TIP3    H2 9914   6.202   2.806   5.057
 3325TIP3   OH2 9915   0.257   1.654   3.349
 3325TIP3    H1 9916   0.275   1.608   3.431
 3325TIP3    H2 9917   0.230   1.742   3.376
 3326TIP3   OH2 9918   1.578   5.841   3.282
 3326TIP3    H1 9919   1.540   5.922   3.247
 3326TIP3    H2 9920   1.584   5.783   3.206
 3327TIP3   OH2 9921   7.186   2.554   4.348
 3327TIP3    H1 9922   7.112   2.575   4.291
 3327TIP3    H2 9923   7.224   2.476   4.309
 3328TIP3   OH2 9924   2.613   3.650   5.321
 3328TIP3    H1 9925   2.581   3.560   5.320
 3328TIP3    H2 9926   2.679   3.652   5.252
 3329TIP3   OH2 9927   6.173   4.496   4.340
 3329TIP3    H1 9928   6.214   4.482   4.426
 3329TIP3    H2 9929   6.189   4.414   4.293
 3330TIP3   OH2 9930   8.263   0.328   6.307
 3330TIP3    H1 9931   8.337   0.303   6.252
 3330TIP3    H2 9932   8.278   0.419   6.330
 3331TIP3   OH2 9933   4.012   3.762   6.632
 3331TIP3    H1 9934   3.967   3.793   6.711
 3331TIP3    H2 9935   3.983   3.822   6.563
 3332TIP3   OH2 9936   1.061   1.408   3.368
 3332TIP3    H1 9937   1.016   1.401   3.453
 3332TIP3    H2 9938   1.050   1.499   3.343
 3333TIP3   OH2 9939   4.938   6.113   5.650
 3333TIP3    H1 9940   4.982   6.196   5.668
 3333TIP3    H2 9941   4.847   6.137   5.635
 3334TIP3   OH2 9942   4.029   0.612   2.479
 3334TIP3    H1 9943   4.103   0.584   2.532
 3334TIP3    H2 9944   3.963   0.642   2.542
 3335TIP3   OH2 9945   1.211   2.293   2.879
 3335TIP3    H1 9946   1.290   2.263   2.924
 3335TIP3    H2 9947   1.195   2.380   2.915
 3336TIP3   OH2 9948   0.187   6.664   2.300
 3336TIP3    H1 9949   0.240   6.605   2.247
 3336TIP3    H2 9950   0.100   6.624   2.301
 3337TIP3   OH2 9951   3.663   5.393   4.658
 3337TIP3    H1 9952   3.578   5.362   4.627
 3337TIP3    H2 9953   3.672   5.356   4.746
 3338TIP3   OH2 9954   4.074   2.173   3.344
 3338TIP3    H1 9955   4.039   2.116   3.275
 3338TIP3    H2 9956   4.079   2.259   3.303
 3339TIP3   OH2 9957   0.882   1.344   2.942
 3339TIP3    H1 9958   0.906   1.307   3.027
 3339TIP3    H2 9959   0.803   1.297   2.917
 3340TIP3   OH2 9960   4.870   5.778   3.791
 3340TIP3    H1 9961   4.872   5.788   3.696
 3340TIP3    H2 9962   4.958   5.801   3.819
 3341TIP3   OH2 9963   2.906   4.429   5.778
 3341TIP3    H1 9964   2.873   4.374   5.848
 3341TIP3    H2 9965   2.992   4.391   5.757
 3342TIP3   OH2 9966   5.582   5.216   4.013
 3342TIP3    H1 9967   5.665   5.177   4.039
 3342TIP3    H2 9968   5.519   5.144   4.022
 3343TIP3   OH2 9969   3.513   7.651   5.755
 3343TIP3    H1 9970   3.572   7.685   5.688
 3343TIP3    H2 9971   3.515   7.718   5.824
 3344TIP3   OH2 9972   8.350   4.934   5.100
 3344TIP3    H1 9973   8.432   4.949   5.148
 3344TIP3    H2 9974   8.302   4.871   5.153
 3345TIP3   OH2 9975   8.005   1.458   5.981
 3345TIP3    H1 9976   8.074   1.496   5.928
 3345TIP3    H2 9977   8.023   1.488   6.070
 3346TIP3   OH2 9978   1.908   7.294   3.649
 3346TIP3    H1 9979   1.857   7.227   3.604
 3346TIP3    H2 9980   1.845   7.336   3.708
 3347TIP3   OH2 9981   8.226   5.643   5.177
 3347TIP3    H1 9982   8.185   5.594   5.106
 3347TIP3    H2 9983   8.310   5.670   5.141
 3348TIP3   OH2 9984   6.750   0.203   5.367
 3348TIP3    H1 9985   6.724   0.294   5.384
 3348TIP3    H2 9986   6.836   0.195   5.407
 3349TIP3   OH2 9987   0.713   2.793   0.564
 3349TIP3    H1 9988   0.681   2.704   0.583
 3349TIP3    H2 9989   0.691   2.808   0.472
 3350TIP3   OH2 9990   5.268   0.166   4.800
 3350TIP3    H1 9991   5.185   0.121   4.783
 3350TIP3    H2 9992   5.244   0.254   4.826
 3351TIP3   OH2 9993   2.112   3.206   3.873
 3351TIP3    H1 9994   2.063   3.129   3.842
 3351TIP3    H2 9995   2.203   3.184   3.856
 3352TIP3   OH2 9996   1.321   4.033   0.381
 3352TIP3    H1 9997   1.397   3.974   0.380
 3352TIP3    H2 9998   1.253   3.985   0.334
 3353TIP3   OH2 9999   6.525   6.017   6.027
 3353TIP3    H110000   6.552   6.106   6.001
 3353TIP3    H210001   6.551   6.011   6.119
 3354TIP3   OH210002   8.040   4.320   0.180
 3354TIP3    H110003   8.074   4.313   0.269
 3354TIP3    H210004   8.004   4.409   0.176
 3355TIP3   OH210005   1.821   6.356   4.533
 3355TIP3    H110006   1.856   6.445   4.539
 3355TIP3    H210007   1.831   6.332   4.441
 3356TIP3   OH210008   2.963   5.910   2.009
 3356TIP3    H110009   3.020   5.980   2.038
 3356TIP3    H210010   3.017   5.831   2.014
 3357TIP3   OH210011   6.818   0.314   1.179
 3357TIP3    H110012   6.849   0.300   1.269
 3357TIP3    H210013   6.733   0.357   1.190
 3358TIP3   OH210014   3.544   4.888   0.332
 3358TIP3    H110015   3.598   4.815   0.301
 3358TIP3    H210016   3.556   4.956   0.266
 3359TIP3   OH210017   6.991   1.583   5.805
 3359TIP3    H110018   6.971   1.492   5.783
 3359TIP3    H210019   7.062   1.578   5.868
 3360TIP3   OH210020   5.334   4.333   4.771
 3360TIP3    H110021   5.265   4.346   4.836
 3360TIP3    H210022   5.329   4.411   4.716
 3361TIP3   OH210023   3.725   6.913   1.298
 3361TIP3    H110024   3.720   6.884   1.389
 3361TIP3    H210025   3.807   6.875   1.265
 3362TIP3   OH210026   1.148   6.703   5.607
 3362TIP3    H110027   1.220   6.753   5.568
 3362TIP3    H210028   1.184   6.668   5.689
 3363TIP3   OH210029   2.131   1.445   2.446
 3363TIP3    H110030   2.126   1.445   2.351
 3363TIP3    H210031   2.151   1.536   2.469
 3364TIP3   OH210032   8.322   3.674   0.700
 3364TIP3    H110033   8.396   3.613   0.690
 3364TIP3    H210034   8.317   3.691   0.794
 3365TIP3   OH210035   0.704   0.731   3.753
 3365TIP3    H110036   0.635   0.667   3.734
 3365TIP3    H210037   0.660   0.801   3.801
 3366TIP3   OH210038   6.034   2.001   2.667
 3366TIP3    H110039   6.063   1.915   2.699
 3366TIP3    H210040   6.020   1.988   2.573
 3367TIP3   OH210041   0.398   2.101   1.918
 3367TIP3    H110042   0.339   2.035   1.953
 3367TIP3    H210043   0.464   2.052   1.870
 3368TIP3   OH210044   1.515   6.535   5.375
 3368TIP3    H110045   1.591   6.478   5.368
 3368TIP3    H210046   1.451   6.484   5.425
 3369TIP3   OH210047   4.563   0.483   2.987
 3369TIP3    H110048   4.532   0.572   3.002
 3369TIP3    H210049   4.596   0.455   3.072
 3370TIP3   OH210050   5.452   1.188   0.089
 3370TIP3    H110051   5.423   1.279   0.085
 3370TIP3    H210052   5.384   1.143   0.140
 3371TIP3   OH210053   5.124   6.433   5.119
 3371TIP3    H110054   5.171   6.410   5.039
 3371TIP3    H210055   5.123   6.528   5.120
 3372TIP3   OH210056   1.419   0.320   1.834
 3372TIP3    H110057   1.473   0.295   1.759
 3372TIP3    H210058   1.464   0.284   1.910
 3373TIP3   OH210059   3.473   2.045   5.810
 3373TIP3    H110060   3.480   2.075   5.900
 3373TIP3    H210061   3.509   2.116   5.757
 3374TIP3   OH210062   7.521   4.437   6.624
 3374TIP3    H110063   7.490   4.487   6.548
 3374TIP3    H210064   7.610   4.412   6.602
 3375TIP3   OH210065   5.830   6.034   6.420
 3375TIP3    H110066   5.802   5.962   6.363
 3375TIP3    H210067   5.902   6.075   6.371
 3376TIP3   OH210068   3.643   7.684   5.518
 3376TIP3    H110069   3.663   7.597   5.484
 3376TIP3    H210070   3.660   7.743   5.445
 3377TIP3   OH210071   0.440   3.823   4.777
 3377TIP3    H110072   0.364   3.851   4.828
 3377TIP3    H210073   0.404   3.802   4.690
 3378TIP3   OH210074   7.299   5.740   3.297
 3378TIP3    H110075   7.244   5.674   3.254
 3378TIP3    H210076   7.385   5.730   3.257
 3379TIP3   OH210077   0.144   0.854   1.424
 3379TIP3    H110078   0.152   0.761   1.407
 3379TIP3    H210079   0.086   0.861   1.499
 3380TIP3   OH210080   3.575   0.789   6.792
 3380TIP3    H110081   3.492   0.759   6.828
 3380TIP3    H210082   3.641   0.748   6.847
 3381TIP3   OH210083   1.531   1.622   2.447
 3381TIP3    H110084   1.513   1.670   2.528
 3381TIP3    H210085   1.507   1.683   2.377
 3382TIP3   OH210086   7.928   0.714   4.992
 3382TIP3    H110087   7.849   0.698   4.940
 3382TIP3    H210088   7.982   0.772   4.938
 3383TIP3   OH210089   4.156   3.214   0.590
 3383TIP3    H110090   4.172   3.267   0.513
 3383TIP3    H210091   4.230   3.234   0.648
 3384TIP3   OH210092   8.254   5.441   5.895
 3384TIP3    H110093   8.230   5.531   5.915
 3384TIP3    H210094   8.215   5.390   5.966
 3385TIP3   OH210095   6.236   7.759   3.358
 3385TIP3    H110096   6.198   7.846   3.351
 3385TIP3    H210097   6.214   7.729   3.446
 3386TIP3   OH210098   4.916   1.866   1.307
 3386TIP3    H110099   4.851   1.931   1.335
 3386TIP3    H210100   4.868   1.783   1.308
 3387TIP3   OH210101   6.329   4.232   3.229
 3387TIP3    H110102   6.413   4.276   3.217
 3387TIP3    H210103   6.266   4.289   3.185
 3388TIP3   OH210104   5.782   4.042   1.769
 3388TIP3    H110105   5.783   4.016   1.861
 3388TIP3    H210106   5.706   3.997   1.732
 3389TIP3   OH210107   4.630   3.141   2.035
 3389TIP3    H110108   4.623   3.231   2.066
 3389TIP3    H210109   4.632   3.088   2.115
 3390TIP3   OH210110   7.826   0.023   5.832
 3390TIP3    H110111   7.863   0.100   5.788
 3390TIP3    H210112   7.754   0.058   5.885
 3391TIP3   OH210113   0.778   4.972   6.461
 3391TIP3    H110114   0.763   4.889   6.417
 3391TIP3    H210115   0.692   5.013   6.465
 3392TIP3   OH210116   1.950   4.463   1.676
 3392TIP3    H110117   2.004   4.387   1.696
 3392TIP3    H210118   2.013   4.535   1.670
 3393TIP3   OH210119   7.727   1.823   4.393
 3393TIP3    H110120   7.755   1.822   4.484
 3393TIP3    H210121   7.805   1.852   4.344
 3394TIP3   OH210122   2.630   2.475   3.295
 3394TIP3    H110123   2.599   2.520   3.217
 3394TIP3    H210124   2.550   2.450   3.342
 3395TIP3   OH210125   0.412   4.010   2.749
 3395TIP3    H110126   0.431   3.949   2.677
 3395TIP3    H210127   0.351   3.962   2.805
 3396TIP3   OH210128   1.182   2.195   3.146
 3396TIP3    H110129   1.103   2.192   3.200
 3396TIP3    H210130   1.150   2.213   3.058
 3397TIP3   OH210131   1.732   4.152   4.267
 3397TIP3    H110132   1.763   4.063   4.251
 3397TIP3    H210133   1.717   4.188   4.180
 3398TIP3   OH210134   6.316   7.892   0.772
 3398TIP3    H110135   6.260   7.872   0.697
 3398TIP3    H210136   6.390   7.832   0.764
 3399TIP3   OH210137   4.280   4.777   3.561
 3399TIP3    H110138   4.236   4.740   3.638
 3399TIP3    H210139   4.293   4.869   3.583
 3400TIP3   OH210140   5.830   1.452   2.980
 3400TIP3    H110141   5.789   1.374   2.942
 3400TIP3    H210142   5.922   1.427   2.991
 3401TIP3   OH210143   8.102   0.718   5.983
 3401TIP3    H110144   8.053   0.721   5.901
 3401TIP3    H210145   8.092   0.628   6.014
 3402TIP3   OH210146   2.291   3.352   0.786
 3402TIP3    H110147   2.270   3.445   0.777
 3402TIP3    H210148   2.294   3.338   0.881
 3403TIP3   OH210149   1.307   5.960   2.477
 3403TIP3    H110150   1.271   6.004   2.554
 3403TIP3    H210151   1.239   5.897   2.452
 3404TIP3   OH210152   3.570   0.629   5.599
 3404TIP3    H110153   3.488   0.679   5.605
 3404TIP3    H210154   3.638   0.695   5.609
 3405TIP3   OH210155   7.772   7.252   3.842
 3405TIP3    H110156   7.837   7.225   3.778
 3405TIP3    H210157   7.703   7.295   3.791
 3406TIP3   OH210158   1.701   4.032   0.987
 3406TIP3    H110159   1.634   3.966   0.970
 3406TIP3    H210160   1.724   4.019   1.079
 3407TIP3   OH210161   1.247   2.862   3.336
 3407TIP3    H110162   1.265   2.942   3.286
 3407TIP3    H210163   1.314   2.800   3.308
 3408TIP3   OH210164   7.324   3.209   1.469
 3408TIP3    H110165   7.309   3.152   1.393
 3408TIP3    H210166   7.298   3.296   1.439
 3409TIP3   OH210167   6.160   3.479   4.946
 3409TIP3    H110168   6.123   3.421   5.012
 3409TIP3    H210169   6.176   3.561   4.992
 3410TIP3   OH210170   4.269   4.660   0.795
 3410TIP3    H110171   4.286   4.570   0.767
 3410TIP3    H210172   4.329   4.713   0.743
 3411TIP3   OH210173   5.382   2.798   2.409
 3411TIP3    H110174   5.409   2.889   2.393
 3411TIP3    H210175   5.291   2.795   2.378
 3412TIP3   OH210176   2.149   2.287   5.711
 3412TIP3    H110177   2.069   2.236   5.726
 3412TIP3    H210178   2.145   2.356   5.778
 3413TIP3   OH210179   5.531   2.858   5.159
 3413TIP3    H110180   5.543   2.928   5.222
 3413TIP3    H210181   5.454   2.883   5.109
 3414TIP3   OH210182   4.054   6.535   3.107
 3414TIP3    H110183   4.115   6.462   3.115
 3414TIP3    H210184   4.056   6.558   3.014
 3415TIP3   OH210185   6.693   6.815   6.713
 3415TIP3    H110186   6.660   6.817   6.803
 3415TIP3    H210187   6.667   6.900   6.676
 3416TIP3   OH210188   8.404   2.656   0.376
 3416TIP3    H110189   8.355   2.730   0.410
 3416TIP3    H210190   8.368   2.641   0.288
 3417TIP3   OH210191   4.200   3.709   6.344
 3417TIP3    H110192   4.184   3.673   6.431
 3417TIP3    H210193   4.269   3.773   6.357
 3418TIP3   OH210194   8.282   2.847   1.035
 3418TIP3    H110195   8.318   2.932   1.010
 3418TIP3    H210196   8.335   2.820   1.110
 3419TIP3   OH210197   6.895   6.094   4.617
 3419TIP3    H110198   6.951   6.150   4.563
 3419TIP3    H210199   6.946   6.014   4.629
 3420TIP3   OH210200   7.355   7.756   1.809
 3420TIP3    H110201   7.379   7.812   1.882
 3420TIP3    H210202   7.292   7.693   1.846
 3421TIP3   OH210203   3.661   5.909   2.846
 3421TIP3    H110204   3.644   5.892   2.753
 3421TIP3    H210205   3.576   5.895   2.889
 3422TIP3   OH210206   8.244   7.672   0.207
 3422TIP3    H110207   8.290   7.588   0.212
 3422TIP3    H210208   8.312   7.736   0.186
 3423TIP3   OH210209   7.925   3.701   3.790
 3423TIP3    H110210   7.831   3.717   3.785
 3423TIP3    H210211   7.933   3.615   3.830
 3424TIP3   OH210212   5.454   0.583   0.781
 3424TIP3    H110213   5.423   0.588   0.691
 3424TIP3    H210214   5.396   0.519   0.823
 3425TIP3   OH210215   7.184   3.869   1.963
 3425TIP3    H110216   7.196   3.960   1.988
 3425TIP3    H210217   7.104   3.869   1.910
 3426TIP3   OH210218   1.100   1.240   2.168
 3426TIP3    H110219   1.097   1.335   2.168
 3426TIP3    H210220   1.021   1.213   2.216
 3427TIP3   OH210221   0.542   3.234   2.942
 3427TIP3    H110222   0.596   3.257   3.018
 3427TIP3    H210223   0.589   3.272   2.867
 3428TIP3   OH210224   1.505   5.710   0.864
 3428TIP3    H110225   1.464   5.654   0.798
 3428TIP3    H210226   1.469   5.797   0.848
 3429TIP3   OH210227   6.043   3.463   6.417
 3429TIP3    H110228   5.986   3.519   6.469
 3429TIP3    H210229   5.994   3.448   6.336
 3430TIP3   OH210230   6.848   1.401   0.390
 3430TIP3    H110231   6.853   1.336   0.319
 3430TIP3    H210232   6.793   1.470   0.354
 3431TIP3   OH210233   3.733   3.092   5.672
 3431TIP3    H110234   3.782   3.164   5.632
 3431TIP3    H210235   3.645   3.128   5.684
 3432TIP3   OH210236   5.913   3.061   0.545
 3432TIP3    H110237   5.982   3.127   0.552
 3432TIP3    H210238   5.929   3.002   0.618
 3433TIP3   OH210239   5.754   4.356   3.427
 3433TIP3    H110240   5.757   4.325   3.518
 3433TIP3    H210241   5.844   4.346   3.395
 3434TIP3   OH210242   7.064   6.507   1.107
 3434TIP3    H110243   7.134   6.550   1.058
 3434TIP3    H210244   7.025   6.446   1.045
 3435TIP3   OH210245   6.681   2.806   6.248
 3435TIP3    H110246   6.634   2.882   6.214
 3435TIP3    H210247   6.677   2.816   6.343
 3436TIP3   OH210248   1.559   2.360   0.482
 3436TIP3    H110249   1.481   2.333   0.435
 3436TIP3    H210250   1.540   2.342   0.574
 3437TIP3   OH210251   2.498   6.840   4.804
 3437TIP3    H110252   2.513   6.918   4.857
 3437TIP3    H210253   2.545   6.859   4.722
 3438TIP3   OH210254   5.854   4.136   0.781
 3438TIP3    H110255   5.858   4.222   0.738
 3438TIP3    H210256   5.908   4.146   0.859
 3439TIP3   OH210257   3.016   3.511   4.334
 3439TIP3    H110258   3.053   3.597   4.317
 3439TIP3    H210259   2.960   3.524   4.411
 3440TIP3   OH210260   3.666   6.709   6.243
 3440TIP3    H110261   3.730   6.746   6.303
 3440TIP3    H210262   3.581   6.726   6.285
 3441TIP3   OH210263   6.099   2.840   4.617
 3441TIP3    H110264   6.014   2.800   4.635
 3441TIP3    H210265   6.078   2.928   4.584
 3442TIP3   OH210266   7.663   5.744   0.962
 3442TIP3    H110267   7.685   5.837   0.963
 3442TIP3    H210268   7.599   5.734   1.033
 3443TIP3   OH210269   1.544   0.913   3.560
 3443TIP3    H110270   1.568   0.901   3.652
 3443TIP3    H210271   1.448   0.921   3.562
 3444TIP3   OH210272   7.125   0.159   3.769
 3444TIP3    H110273   7.033   0.163   3.792
 3444TIP3    H210274   7.134   0.075   3.722
 3445TIP3   OH210275   0.099   0.818   6.461
 3445TIP3    H110276   0.145   0.831   6.378
 3445TIP3    H210277   0.031   0.885   6.462
 3446TIP3   OH210278   5.567   4.308   1.166
 3446TIP3    H110279   5.532   4.362   1.237
 3446TIP3    H210280   5.587   4.370   1.096
 3447TIP3   OH210281   5.587   4.951   4.735
 3447TIP3    H110282   5.580   5.040   4.699
 3447TIP3    H210283   5.591   4.895   4.657
 3448TIP3   OH210284   0.916   6.479   1.797
 3448TIP3    H110285   0.919   6.499   1.890
 3448TIP3    H210286   0.999   6.434   1.780
 3449TIP3   OH210287   1.059   1.368   2.737
 3449TIP3    H110288   1.146   1.379   2.776
 3449TIP3    H210289   0.999   1.367   2.811
 3450TIP3   OH210290   6.950   6.871   6.067
 3450TIP3    H110291   6.890   6.906   6.132
 3450TIP3    H210292   6.947   6.776   6.079
 3451TIP3   OH210293   7.365   7.404   6.691
 3451TIP3    H110294   7.421   7.373   6.762
 3451TIP3    H210295   7.426   7.442   6.627
 3452TIP3   OH210296   4.782   1.507   4.735
 3452TIP3    H110297   4.689   1.524   4.725
 3452TIP3    H210298   4.787   1.425   4.785
 3453TIP3   OH210299   2.780   6.421   4.059
 3453TIP3    H110300   2.823   6.374   3.987
 3453TIP3    H210301   2.776   6.512   4.029
 3454TIP3   OH210302   5.816   7.881   3.720
 3454TIP3    H110303   5.858   7.827   3.653
 3454TIP3    H210304   5.810   7.823   3.797
 3455TIP3   OH210305   7.725   3.041   2.711
 3455TIP3    H110306   7.789   3.031   2.781
 3455TIP3    H210307   7.664   3.108   2.744
 3456TIP3   OH210308   0.164   6.331   2.942
 3456TIP3    H110309   0.204   6.336   2.855
 3456TIP3    H210310   0.073   6.358   2.928
 3457TIP3   OH210311   1.710   4.994   3.118
 3457TIP3    H110312   1.651   5.001   3.043
 3457TIP3    H210313   1.699   4.904   3.150
 3458TIP3   OH210314   5.341   2.335   0.738
 3458TIP3    H110315   5.320   2.289   0.657
 3458TIP3    H210316   5.265   2.389   0.756
 3459TIP3   OH210317   6.669   3.852   6.041
 3459TIP3    H110318   6.620   3.934   6.044
 3459TIP3    H210319   6.603   3.785   6.022
 3460TIP3   OH210320   1.532   0.491   2.190
 3460TIP3    H110321   1.442   0.525   2.190
 3460TIP3    H210322   1.585   0.561   2.227
 3461TIP3   OH210323   5.570   4.205   1.933
 3461TIP3    H110324   5.632   4.273   1.958
 3461TIP3    H210325   5.523   4.241   1.858
 3462TIP3   OH210326   0.891   0.962   2.073
 3462TIP3    H110327   0.983   0.977   2.093
 3462TIP3    H210328   0.868   1.030   2.010
 3463TIP3   OH210329   3.468   3.200   3.837
 3463TIP3    H110330   3.552   3.155   3.833
 3463TIP3    H210331   3.484   3.285   3.797
 3464TIP3   OH210332   7.336   6.673   2.946
 3464TIP3    H110333   7.325   6.591   2.898
 3464TIP3    H210334   7.317   6.741   2.881
 3465TIP3   OH210335   5.935   6.813   4.395
 3465TIP3    H110336   6.006   6.776   4.344
 3465TIP3    H210337   5.966   6.811   4.486
 3466TIP3   OH210338   1.559   1.682   1.102
 3466TIP3    H110339   1.556   1.713   1.012
 3466TIP3    H210340   1.550   1.761   1.155
 3467TIP3   OH210341   6.138   3.977   0.889
 3467TIP3    H110342   6.092   3.966   0.807
 3467TIP3    H210343   6.110   4.063   0.922
 3468TIP3   OH210344   5.136   1.645   4.354
 3468TIP3    H110345   5.216   1.694   4.369
 3468TIP3    H210346   5.118   1.602   4.438
 3469TIP3   OH210347   0.237   7.869   3.402
 3469TIP3    H110348   0.191   7.787   3.418
 3469TIP3    H210349   0.321   7.843   3.364
 3470TIP3   OH210350   7.276   7.147   1.682
 3470TIP3    H110351   7.189   7.122   1.712
 3470TIP3    H210352   7.334   7.080   1.719
 3471TIP3   OH210353   1.292   4.643   6.626
 3471TIP3    H110354   1.289   4.565   6.681
 3471TIP3    H210355   1.229   4.703   6.666
 3472TIP3   OH210356   5.344   4.392   5.737
 3472TIP3    H110357   5.434   4.400   5.768
 3472TIP3    H210358   5.346   4.427   5.648
 3473TIP3   OH210359   2.250   0.382   2.169
 3473TIP3    H110360   2.297   0.372   2.086
 3473TIP3    H210361   2.197   0.460   2.158
 3474TIP3   OH210362   5.762   3.115   5.149
 3474TIP3    H110363   5.782   3.023   5.163
 3474TIP3    H210364   5.679   3.115   5.102
 3475TIP3   OH210365   5.704   6.281   6.791
 3475TIP3    H110366   5.723   6.339   6.865
 3475TIP3    H210367   5.609   6.274   6.789
 3476TIP3   OH210368   4.991   3.772   2.399
 3476TIP3    H110369   5.086   3.775   2.393
 3476TIP3    H210370   4.971   3.685   2.435
 3477TIP3   OH210371   6.617   5.065   5.911
 3477TIP3    H110372   6.557   4.991   5.918
 3477TIP3    H210373   6.633   5.092   6.001
 3478TIP3   OH210374   0.106   3.327   3.770
 3478TIP3    H110375   0.019   3.309   3.736
 3478TIP3    H210376   0.107   3.421   3.787
 3479TIP3   OH210377   0.707   7.633   2.114
 3479TIP3    H110378   0.658   7.597   2.188
 3479TIP3    H210379   0.660   7.601   2.037
 3480TIP3   OH210380   8.238   2.562   3.620
 3480TIP3    H110381   8.229   2.546   3.526
 3480TIP3    H210382   8.155   2.532   3.658
 3481TIP3   OH210383   1.648   3.675   0.045
 3481TIP3    H110384   1.580   3.740   0.024
 3481TIP3    H210385   1.709   3.723   0.101
 3482TIP3   OH210386   8.329   7.294   0.403
 3482TIP3    H110387   8.314   7.276   0.496
 3482TIP3    H210388   8.423   7.313   0.397
 3483TIP3   OH210389   5.737   7.211   6.702
 3483TIP3    H110390   5.741   7.115   6.708
 3483TIP3    H210391   5.822   7.237   6.667
 3484TIP3   OH210392   3.525   7.641   1.263
 3484TIP3    H110393   3.516   7.717   1.321
 3484TIP3    H210394   3.590   7.668   1.198
 3485TIP3   OH210395   2.080   2.181   6.450
 3485TIP3    H110396   1.997   2.205   6.492
 3485TIP3    H210397   2.092   2.089   6.472
 3486TIP3   OH210398   7.027   4.690   1.432
 3486TIP3    H110399   7.005   4.712   1.341
 3486TIP3    H210400   6.952   4.640   1.464
 3487TIP3   OH210401   4.770   3.942   2.651
 3487TIP3    H110402   4.727   4.008   2.596
 3487TIP3    H210403   4.861   3.974   2.658
 3488TIP3   OH210404   7.707   2.865   0.267
 3488TIP3    H110405   7.727   2.958   0.259
 3488TIP3    H210406   7.643   2.849   0.198
 3489TIP3   OH210407   7.945   2.972   3.545
 3489TIP3    H110408   8.037   2.980   3.519
 3489TIP3    H210409   7.935   3.032   3.618
 3490TIP3   OH210410   3.522   5.008   4.165
 3490TIP3    H110411   3.446   5.032   4.112
 3490TIP3    H210412   3.531   4.914   4.155
 3491TIP3   OH210413   7.174   0.320   1.997
 3491TIP3    H110414   7.187   0.406   1.958
 3491TIP3    H210415   7.120   0.273   1.934
 3492TIP3   OH210416   7.735   2.141   6.811
 3492TIP3    H110417   7.807   2.182   6.764
 3492TIP3    H210418   7.673   2.213   6.827
 3493TIP3   OH210419   6.784   6.682   3.092
 3493TIP3    H110420   6.835   6.751   3.135
 3493TIP3    H210421   6.720   6.656   3.157
 3494TIP3   OH210422   3.544   0.732   3.900
 3494TIP3    H110423   3.601   0.807   3.882
 3494TIP3    H210424   3.598   0.656   3.878
 3495TIP3   OH210425   4.432   4.461   3.674
 3495TIP3    H110426   4.525   4.478   3.686
 3495TIP3    H210427   4.389   4.537   3.715
 3496TIP3   OH210428   4.964   2.657   2.838
 3496TIP3    H110429   5.034   2.707   2.797
 3496TIP3    H210430   4.978   2.567   2.809
 3497TIP3   OH210431   5.434   3.275   0.045
 3497TIP3    H110432   5.473   3.235   0.123
 3497TIP3    H210433   5.493   3.348   0.023
 3498TIP3   OH210434   2.052   0.809   5.758
 3498TIP3    H110435   2.010   0.895   5.765
 3498TIP3    H210436   1.985   0.753   5.718
 3499TIP3   OH210437   4.804   6.350   5.572
 3499TIP3    H110438   4.867   6.328   5.504
 3499TIP3    H210439   4.724   6.371   5.524
 3500TIP3   OH210440   5.831   7.409   4.896
 3500TIP3    H110441   5.926   7.395   4.894
 3500TIP3    H210442   5.821   7.504   4.901
 3501TIP3   OH210443   1.178   2.156   5.737
 3501TIP3    H110444   1.249   2.141   5.800
 3501TIP3    H210445   1.167   2.072   5.693
 3502TIP3   OH210446   7.548   2.455   3.652
 3502TIP3    H110447   7.476   2.447   3.589
 3502TIP3    H210448   7.596   2.533   3.624
 3503TIP3   OH210449   4.716   6.948   4.380
 3503TIP3    H110450   4.691   7.040   4.381
 3503TIP3    H210451   4.648   6.905   4.328
 3504TIP3   OH210452   4.412   0.325   1.666
 3504TIP3    H110453   4.424   0.418   1.649
 3504TIP3    H210454   4.317   0.314   1.676
 3505TIP3   OH210455   1.140   5.571   4.588
 3505TIP3    H110456   1.209   5.635   4.605
 3505TIP3    H210457   1.064   5.605   4.636
 3506TIP3   OH210458   4.550   4.169   5.849
 3506TIP3    H110459   4.627   4.115   5.868
 3506TIP3    H210460   4.480   4.129   5.901
 3507TIP3   OH210461   1.388   0.162   1.416
 3507TIP3    H110462   1.412   0.089   1.359
 3507TIP3    H210463   1.411   0.133   1.504
 3508TIP3   OH210464   7.814   3.819   1.056
 3508TIP3    H110465   7.754   3.835   1.128
 3508TIP3    H210466   7.841   3.728   1.066
 3509TIP3   OH210467   5.490   5.132   0.889
 3509TIP3    H110468   5.528   5.114   0.975
 3509TIP3    H210469   5.553   5.189   0.846
 3510TIP3   OH210470   6.806   1.652   5.060
 3510TIP3    H110471   6.721   1.615   5.037
 3510TIP3    H210472   6.785   1.728   5.114
 3511TIP3   OH210473   6.021   5.857   5.449
 3511TIP3    H110474   6.071   5.934   5.475
 3511TIP3    H210475   6.067   5.823   5.373
 3512TIP3   OH210476   5.765   1.886   1.596
 3512TIP3    H110477   5.855   1.907   1.572
 3512TIP3    H210478   5.772   1.846   1.683
 3513TIP3   OH210479   7.796   3.927   0.775
 3513TIP3    H110480   7.783   3.918   0.869
 3513TIP3    H210481   7.775   3.841   0.739
 3514TIP3   OH210482   1.032   6.976   0.291
 3514TIP3    H110483   1.002   6.984   0.200
 3514TIP3    H210484   0.975   6.909   0.329
 3515TIP3   OH210485   1.821   2.273   4.266
 3515TIP3    H110486   1.904   2.226   4.271
 3515TIP3    H210487   1.804   2.302   4.355
 3516TIP3   OH210488   6.760   6.646   5.920
 3516TIP3    H110489   6.668   6.621   5.911
 3516TIP3    H210490   6.768   6.727   5.870
 3517TIP3   OH210491   7.330   5.993   0.459
 3517TIP3    H110492   7.341   6.062   0.394
 3517TIP3    H210493   7.260   5.938   0.424
 3518TIP3   OH210494   2.861   5.583   6.771
 3518TIP3    H110495   2.879   5.529   6.694
 3518TIP3    H210496   2.911   5.663   6.756
 3519TIP3   OH210497   5.635   5.812   2.888
 3519TIP3    H110498   5.710   5.774   2.843
 3519TIP3    H210499   5.584   5.854   2.818
 3520TIP3   OH210500   5.622   5.603   0.907
 3520TIP3    H110501   5.601   5.537   0.973
 3520TIP3    H210502   5.708   5.578   0.874
 3521TIP3   OH210503   4.281   6.579   0.206
 3521TIP3    H110504   4.295   6.643   0.276
 3521TIP3    H210505   4.327   6.500   0.235
 3522TIP3   OH210506   6.775   5.989   0.971
 3522TIP3    H110507   6.751   5.967   1.061
 3522TIP3    H210508   6.714   5.938   0.917
 3523TIP3   OH210509   6.425   4.827   1.579
 3523TIP3    H110510   6.426   4.880   1.499
 3523TIP3    H210511   6.424   4.892   1.650
 3524TIP3   OH210512   3.619   1.075   0.157
 3524TIP3    H110513   3.579   1.117   0.080
 3524TIP3    H210514   3.698   1.126   0.173
 3525TIP3   OH210515   2.583   7.098   1.917
 3525TIP3    H110516   2.616   7.068   1.832
 3525TIP3    H210517   2.488   7.086   1.910
 3526TIP3   OH210518   2.746   4.136   6.703
 3526TIP3    H110519   2.730   4.198   6.632
 3526TIP3    H210520   2.753   4.190   6.782
 3527TIP3   OH210521   2.386   5.849   3.727
 3527TIP3    H110522   2.310   5.845   3.785
 3527TIP3    H210523   2.433   5.768   3.744
 3528TIP3   OH210524   1.821   4.951   6.229
 3528TIP3    H110525   1.799   5.044   6.226
 3528TIP3    H210526   1.916   4.950   6.244
 3529TIP3   OH210527   7.093   1.818   0.525
 3529TIP3    H110528   7.167   1.785   0.574
 3529TIP3    H210529   7.022   1.757   0.544
 3530TIP3   OH210530   6.160   6.483   5.092
 3530TIP3    H110531   6.094   6.419   5.120
 3530TIP3    H210532   6.181   6.458   5.002
 3531TIP3   OH210533   3.543   6.546   3.448
 3531TIP3    H110534   3.608   6.477   3.462
 3531TIP3    H210535   3.595   6.625   3.434
 3532TIP3   OH210536   5.940   6.695   6.270
 3532TIP3    H110537   6.002   6.722   6.337
 3532TIP3    H210538   5.995   6.663   6.198
 3533TIP3   OH210539   8.119   4.305   6.364
 3533TIP3    H110540   8.154   4.243   6.301
 3533TIP3    H210541   8.026   4.311   6.344
 3534TIP3   OH210542   5.512   1.275   5.289
 3534TIP3    H110543   5.493   1.208   5.223
 3534TIP3    H210544   5.468   1.354   5.257
 3535TIP3   OH210545   2.681   5.934   0.316
 3535TIP3    H110546   2.593   5.898   0.316
 3535TIP3    H210547   2.669   6.027   0.334
 3536TIP3   OH210548   0.405   7.470   4.924
 3536TIP3    H110549   0.364   7.396   4.970
 3536TIP3    H210550   0.365   7.469   4.837
 3537TIP3   OH210551   4.813   0.612   2.123
 3537TIP3    H110552   4.823   0.695   2.171
 3537TIP3    H210553   4.728   0.578   2.152
 3538TIP3   OH210554   0.994   3.627   4.540
 3538TIP3    H110555   1.008   3.697   4.603
 3538TIP3    H210556   1.028   3.549   4.584
 3539TIP3   OH210557   2.676   7.871   2.905
 3539TIP3    H110558   2.708   7.891   2.816
 3539TIP3    H210559   2.756   7.863   2.957
 3540TIP3   OH210560   2.437   1.314   6.635
 3540TIP3    H110561   2.517   1.262   6.647
 3540TIP3    H210562   2.391   1.272   6.563
 3541TIP3   OH210563   4.980   1.684   0.393
 3541TIP3    H110564   5.023   1.638   0.321
 3541TIP3    H210565   4.935   1.615   0.442
 3542TIP3   OH210566   3.750   7.452   6.180
 3542TIP3    H110567   3.827   7.497   6.215
 3542TIP3    H210568   3.711   7.409   6.255
 3543TIP3   OH210569   8.268   3.701   0.976
 3543TIP3    H110570   8.215   3.628   1.008
 3543TIP3    H210571   8.206   3.772   0.963
 3544TIP3   OH210572   0.197   5.725   5.329
 3544TIP3    H110573   0.213   5.792   5.262
 3544TIP3    H210574   0.260   5.656   5.309
 3545TIP3   OH210575   0.135   5.102   5.489
 3545TIP3    H110576   0.047   5.129   5.515
 3545TIP3    H210577   0.193   5.150   5.548
 3546TIP3   OH210578   1.200   2.550   0.104
 3546TIP3    H110579   1.186   2.568   0.011
 3546TIP3    H210580   1.192   2.455   0.111
 3547TIP3   OH210581   4.503   0.790   5.097
 3547TIP3    H110582   4.467   0.712   5.140
 3547TIP3    H210583   4.596   0.790   5.120
 3548TIP3   OH210584   7.798   5.772   2.408
 3548TIP3    H110585   7.758   5.695   2.366
 3548TIP3    H210586   7.890   5.749   2.417
 3549TIP3   OH210587   2.710   2.774   0.413
 3549TIP3    H110588   2.799   2.774   0.446
 3549TIP3    H210589   2.712   2.837   0.341
 3550TIP3   OH210590   6.251   1.958   2.107
 3550TIP3    H110591   6.300   1.885   2.145
 3550TIP3    H210592   6.300   2.036   2.134
 3551TIP3   OH210593   0.259   7.781  -0.016
 3551TIP3    H110594   0.340   7.825   0.010
 3551TIP3    H210595   0.283   7.688  -0.023
 3552TIP3   OH210596   4.038   6.551   1.254
 3552TIP3    H110597   4.098   6.493   1.207
 3552TIP3    H210598   3.995   6.494   1.318
 3553TIP3   OH210599   5.186   4.164   6.104
 3553TIP3    H110600   5.181   4.196   6.014
 3553TIP3    H210601   5.108   4.200   6.147
 3554TIP3   OH210602   5.801   0.798   4.667
 3554TIP3    H110603   5.792   0.721   4.724
 3554TIP3    H210604   5.895   0.819   4.668
 3555TIP3   OH210605   7.855   4.159   0.390
 3555TIP3    H110606   7.766   4.193   0.396
 3555TIP3    H210607   7.850   4.090   0.324
 3556TIP3   OH210608   5.034   0.047   5.967
 3556TIP3    H110609   4.941   0.065   5.977
 3556TIP3    H210610   5.043   0.019   5.876
 3557TIP3   OH210611   1.238   2.391   0.364
 3557TIP3    H110612   1.199   2.476   0.344
 3557TIP3    H210613   1.284   2.405   0.447
 3558TIP3   OH210614   2.814   0.513   6.359
 3558TIP3    H110615   2.862   0.596   6.355
 3558TIP3    H210616   2.874   0.449   6.322
 3559TIP3   OH210617   6.364   5.200   0.467
 3559TIP3    H110618   6.387   5.231   0.555
 3559TIP3    H210619   6.283   5.247   0.446
 3560TIP3   OH210620   2.855   2.698   5.640
 3560TIP3    H110621   2.939   2.691   5.686
 3560TIP3    H210622   2.864   2.776   5.586
 3561TIP3   OH210623   1.422   2.063   1.023
 3561TIP3    H110624   1.459   2.005   1.090
 3561TIP3    H210625   1.446   2.151   1.052
 3562TIP3   OH210626   5.949   1.455   0.559
 3562TIP3    H110627   6.034   1.497   0.546
 3562TIP3    H210628   5.966   1.386   0.622
 3563TIP3   OH210629   7.681   3.424   0.718
 3563TIP3    H110630   7.660   3.348   0.773
 3563TIP3    H210631   7.596   3.461   0.695
 3564TIP3   OH210632   0.690   5.940   5.125
 3564TIP3    H110633   0.637   5.934   5.204
 3564TIP3    H210634   0.778   5.913   5.153
 3565TIP3   OH210635   0.789   1.197   6.064
 3565TIP3    H110636   0.826   1.111   6.086
 3565TIP3    H210637   0.783   1.197   5.969
 3566TIP3   OH210638   4.652   3.683   2.474
 3566TIP3    H110639   4.697   3.731   2.543
 3566TIP3    H210640   4.678   3.592   2.488
 3567TIP3   OH210641   1.139   5.123   5.884
 3567TIP3    H110642   1.141   5.203   5.936
 3567TIP3    H210643   1.199   5.063   5.929
 3568TIP3   OH210644   5.153   6.684   2.186
 3568TIP3    H110645   5.199   6.714   2.264
 3568TIP3    H210646   5.087   6.752   2.169
 3569TIP3   OH210647  -0.005   7.537   4.850
 3569TIP3    H110648  -0.090   7.559   4.885
 3569TIP3    H210649   0.052   7.610   4.874
 3570TIP3   OH210650   7.207   3.791   3.106
 3570TIP3    H110651   7.267   3.854   3.066
 3570TIP3    H210652   7.239   3.705   3.077
 3571TIP3   OH210653   0.856   6.575   1.535
 3571TIP3    H110654   0.804   6.655   1.525
 3571TIP3    H210655   0.867   6.565   1.629
 3572TIP3   OH210656   1.824   4.923   5.855
 3572TIP3    H110657   1.849   5.011   5.884
 3572TIP3    H210658   1.869   4.864   5.914
 3573TIP3   OH210659   5.136   2.106   4.438
 3573TIP3    H110660   5.137   2.033   4.500
 3573TIP3    H210661   5.180   2.178   4.483
 3574TIP3   OH210662   2.258   3.310   4.893
 3574TIP3    H110663   2.190   3.309   4.959
 3574TIP3    H210664   2.269   3.403   4.871
 3575TIP3   OH210665   8.228   6.960   6.291
 3575TIP3    H110666   8.257   6.995   6.375
 3575TIP3    H210667   8.197   6.871   6.312
 3576TIP3   OH210668   6.250   6.603   3.652
 3576TIP3    H110669   6.274   6.555   3.573
 3576TIP3    H210670   6.211   6.685   3.620
 3577TIP3   OH210671   8.088   2.247   5.898
 3577TIP3    H110672   8.066   2.333   5.933
 3577TIP3    H210673   8.115   2.196   5.974
 3578TIP3   OH210674   2.423   2.726   4.209
 3578TIP3    H110675   2.477   2.683   4.276
 3578TIP3    H210676   2.337   2.735   4.250
 3579TIP3   OH210677   0.185   3.528   0.665
 3579TIP3    H110678   0.210   3.605   0.716
 3579TIP3    H210679   0.268   3.491   0.635
 3580TIP3   OH210680   7.683   3.857   5.285
 3580TIP3    H110681   7.598   3.900   5.298
 3580TIP3    H210682   7.732   3.874   5.365
 3581TIP3   OH210683   5.098   2.570   2.135
 3581TIP3    H110684   5.137   2.533   2.214
 3581TIP3    H210685   5.010   2.533   2.133
 3582TIP3   OH210686   2.451   7.773   1.912
 3582TIP3    H110687   2.460   7.856   1.866
 3582TIP3    H210688   2.454   7.796   2.005
 3583TIP3   OH210689   6.730   3.079   4.941
 3583TIP3    H110690   6.678   3.150   4.902
 3583TIP3    H210691   6.783   3.046   4.868
 3584TIP3   OH210692   0.371   5.334   0.796
 3584TIP3    H110693   0.407   5.296   0.876
 3584TIP3    H210694   0.417   5.418   0.786
 3585TIP3   OH210695   6.311   3.180   0.475
 3585TIP3    H110696   6.395   3.146   0.505
 3585TIP3    H210697   6.313   3.169   0.380
 3586TIP3   OH210698   2.413   6.532   3.947
 3586TIP3    H110699   2.406   6.615   3.994
 3586TIP3    H210700   2.323   6.510   3.923
 3587TIP3   OH210701   2.320   6.848   5.528
 3587TIP3    H110702   2.250   6.809   5.580
 3587TIP3    H210703   2.378   6.775   5.508
 3588TIP3   OH210704   2.990   2.208   6.689
 3588TIP3    H110705   2.997   2.299   6.720
 3588TIP3    H210706   2.927   2.167   6.748
 3589TIP3   OH210707   1.636   1.903   5.841
 3589TIP3    H110708   1.563   1.942   5.887
 3589TIP3    H210709   1.596   1.856   5.767
 3590TIP3   OH210710   4.447   7.082   6.750
 3590TIP3    H110711   4.504   7.044   6.817
 3590TIP3    H210712   4.414   7.006   6.702
 3591TIP3   OH210713   8.322   6.872   6.006
 3591TIP3    H110714   8.266   6.799   6.033
 3591TIP3    H210715   8.324   6.930   6.082
 3592TIP3   OH210716   6.891   4.536   4.658
 3592TIP3    H110717   6.909   4.515   4.749
 3592TIP3    H210718   6.847   4.621   4.661
 3593TIP3   OH210719   6.496   1.953   5.534
 3593TIP3    H110720   6.468   2.031   5.582
 3593TIP3    H210721   6.550   1.905   5.597
 3594TIP3   OH210722   2.472   1.211   1.140
 3594TIP3    H110723   2.416   1.182   1.067
 3594TIP3    H210724   2.557   1.228   1.100
 3595TIP3   OH210725   8.335   3.280   0.681
 3595TIP3    H110726   8.405   3.345   0.687
 3595TIP3    H210727   8.336   3.237   0.767
 3596TIP3   OH210728   7.756   2.608   0.732
 3596TIP3    H110729   7.823   2.573   0.673
 3596TIP3    H210730   7.705   2.532   0.758
 3597TIP3   OH210731   1.327   6.648   0.314
 3597TIP3    H110732   1.400   6.675   0.259
 3597TIP3    H210733   1.344   6.691   0.398
 3598TIP3   OH210734   7.232   6.642   1.536
 3598TIP3    H110735   7.230   6.582   1.610
 3598TIP3    H210736   7.164   6.610   1.477
 3599TIP3   OH210737   5.689   5.729   5.196
 3599TIP3    H110738   5.681   5.803   5.257
 3599TIP3    H210739   5.629   5.751   5.125
 3600TIP3   OH210740   4.516   6.926   5.541
 3600TIP3    H110741   4.594   6.887   5.581
 3600TIP3    H210742   4.443   6.894   5.593
 3601TIP3   OH210743   5.411   4.153   6.530
 3601TIP3    H110744   5.322   4.187   6.543
 3601TIP3    H210745   5.398   4.062   6.504
 3602TIP3   OH210746   0.557   5.867   4.329
 3602TIP3    H110747   0.633   5.921   4.306
 3602TIP3    H210748   0.502   5.868   4.250
 3603TIP3   OH210749   3.495   4.953   5.355
 3603TIP3    H110750   3.587   4.941   5.378
 3603TIP3    H210751   3.495   4.974   5.262
 3604TIP3   OH210752   5.187   7.046   1.907
 3604TIP3    H110753   5.128   7.006   1.971
 3604TIP3    H210754   5.153   7.019   1.822
 3605TIP3   OH210755   0.039   3.969   5.300
 3605TIP3    H110756   0.071   3.893   5.349
 3605TIP3    H210757   0.117   4.005   5.258
 3606TIP3   OH210758   0.732   1.636   6.714
 3606TIP3    H110759   0.775   1.588   6.643
 3606TIP3    H210760   0.709   1.569   6.778
 3607TIP3   OH210761   3.834   5.491   0.173
 3607TIP3    H110762   3.777   5.567   0.158
 3607TIP3    H210763   3.783   5.416   0.143
 3608TIP3   OH210764   4.951   7.213   4.307
 3608TIP3    H110765   4.967   7.191   4.399
 3608TIP3    H210766   5.038   7.228   4.271
 3609TIP3   OH210767   0.473   0.702   1.431
 3609TIP3    H110768   0.546   0.676   1.374
 3609TIP3    H210769   0.488   0.795   1.449
 3610TIP3   OH210770   7.453   2.359   3.898
 3610TIP3    H110771   7.511   2.354   3.821
 3610TIP3    H210772   7.435   2.268   3.920
 3611TIP3   OH210773   1.152   7.606   4.661
 3611TIP3    H110774   1.216   7.568   4.601
 3611TIP3    H210775   1.083   7.539   4.669
 3612TIP3   OH210776   4.685   5.049   4.437
 3612TIP3    H110777   4.614   5.004   4.390
 3612TIP3    H210778   4.764   4.999   4.415
 3613TIP3   OH210779   2.557   3.092   0.199
 3613TIP3    H110780   2.621   3.030   0.163
 3613TIP3    H210781   2.568   3.171   0.145
 3614TIP3   OH210782   0.216   4.144   3.476
 3614TIP3    H110783   0.154   4.213   3.497
 3614TIP3    H210784   0.295   4.166   3.526
 3615TIP3   OH210785   5.667   2.015   4.725
 3615TIP3    H110786   5.643   2.087   4.785
 3615TIP3    H210787   5.716   2.058   4.655
 3616TIP3   OH210788   7.507   7.441   0.834
 3616TIP3    H110789   7.512   7.376   0.904
 3616TIP3    H210790   7.510   7.390   0.753
 3617TIP3   OH210791   6.713   0.215   4.103
 3617TIP3    H110792   6.731   0.138   4.158
 3617TIP3    H210793   6.618   0.214   4.091
 3618TIP3   OH210794   6.845   5.491   2.878
 3618TIP3    H110795   6.891   5.556   2.931
 3618TIP3    H210796   6.780   5.454   2.938
 3619TIP3   OH210797   5.905   4.120   6.102
 3619TIP3    H110798   5.811   4.123   6.119
 3619TIP3    H210799   5.945   4.139   6.186
 3620TIP3   OH210800   2.523   6.395   4.675
 3620TIP3    H110801   2.502   6.478   4.632
 3620TIP3    H210802   2.562   6.341   4.606
 3621TIP3   OH210803   5.056   0.619   5.458
 3621TIP3    H110804   5.063   0.595   5.550
 3621TIP3    H210805   5.104   0.702   5.451
 3622TIP3   OH210806   5.620   3.361   0.647
 3622TIP3    H110807   5.680   3.318   0.709
 3622TIP3    H210808   5.618   3.301   0.572
 3623TIP3   OH210809   0.331   7.403   5.872
 3623TIP3    H110810   0.414   7.357   5.865
 3623TIP3    H210811   0.341   7.481   5.818
 3624TIP3   OH210812   4.351   1.647   6.388
 3624TIP3    H110813   4.315   1.583   6.449
 3624TIP3    H210814   4.445   1.644   6.401
 3625TIP3   OH210815   3.632   4.168   3.647
 3625TIP3    H110816   3.541   4.187   3.671
 3625TIP3    H210817   3.661   4.105   3.712
 3626TIP3   OH210818   1.941   6.434   4.944
 3626TIP3    H110819   1.908   6.378   5.014
 3626TIP3    H210820   2.005   6.491   4.987
 3627TIP3   OH210821   4.657   7.909   1.162
 3627TIP3    H110822   4.719   7.982   1.162
 3627TIP3    H210823   4.671   7.866   1.078
 3628TIP3   OH210824   4.841   0.666   4.095
 3628TIP3    H110825   4.774   0.729   4.068
 3628TIP3    H210826   4.804   0.581   4.071
 3629TIP3   OH210827   7.440   1.156   1.762
 3629TIP3    H110828   7.416   1.226   1.822
 3629TIP3    H210829   7.509   1.194   1.707
 3630TIP3   OH210830   0.744   3.010   2.498
 3630TIP3    H110831   0.744   3.048   2.586
 3630TIP3    H210832   0.652   2.987   2.482
 3631TIP3   OH210833   1.096   4.645   1.886
 3631TIP3    H110834   1.141   4.724   1.916
 3631TIP3    H210835   1.167   4.583   1.868
 3632TIP3   OH210836   7.485   2.383   1.141
 3632TIP3    H110837   7.506   2.313   1.079
 3632TIP3    H210838   7.550   2.373   1.211
 3633TIP3   OH210839   1.623   3.106   3.988
 3633TIP3    H110840   1.531   3.110   4.017
 3633TIP3    H210841   1.618   3.088   3.894
 3634TIP3   OH210842   7.020   1.997   3.659
 3634TIP3    H110843   7.091   2.056   3.685
 3634TIP3    H210844   7.041   1.972   3.569
 3635TIP3   OH210845   7.606   5.936   2.241
 3635TIP3    H110846   7.640   5.889   2.317
 3635TIP3    H210847   7.644   5.889   2.166
 3636TIP3   OH210848   6.867   7.633   4.319
 3636TIP3    H110849   6.821   7.606   4.398
 3636TIP3    H210850   6.934   7.567   4.306
 3637TIP3   OH210851   8.257   4.773   6.707
 3637TIP3    H110852   8.176   4.724   6.692
 3637TIP3    H210853   8.305   4.767   6.625
 3638TIP3   OH210854   1.228   3.626   6.096
 3638TIP3    H110855   1.248   3.652   6.186
 3638TIP3    H210856   1.297   3.564   6.073
 3639TIP3   OH210857   2.830   5.576   1.931
 3639TIP3    H110858   2.888   5.652   1.922
 3639TIP3    H210859   2.813   5.548   1.840
 3640TIP3   OH210860   1.196   3.930   1.532
 3640TIP3    H110861   1.259   3.902   1.598
 3640TIP3    H210862   1.218   4.022   1.515
 3641TIP3   OH210863   0.879   0.315   3.288
 3641TIP3    H110864   0.917   0.230   3.311
 3641TIP3    H210865   0.940   0.379   3.325
 3642TIP3   OH210866   0.383   4.015   1.604
 3642TIP3    H110867   0.381   3.921   1.586
 3642TIP3    H210868   0.476   4.037   1.601
 3643TIP3   OH210869   6.851   5.856   6.510
 3643TIP3    H110870   6.848   5.836   6.604
 3643TIP3    H210871   6.884   5.946   6.507
 3644TIP3   OH210872   1.038   0.638   2.541
 3644TIP3    H110873   1.002   0.614   2.627
 3644TIP3    H210874   0.963   0.672   2.492
 3645TIP3   OH210875   6.192   6.110   0.655
 3645TIP3    H110876   6.270   6.105   0.710
 3645TIP3    H210877   6.120   6.129   0.716
 3646TIP3   OH210878   2.319   4.804   3.752
 3646TIP3    H110879   2.320   4.717   3.794
 3646TIP3    H210880   2.261   4.856   3.808
 3647TIP3   OH210881   5.695   3.304   6.315
 3647TIP3    H110882   5.750   3.226   6.323
 3647TIP3    H210883   5.672   3.307   6.222
 3648TIP3   OH210884   0.663   2.336   5.589
 3648TIP3    H110885   0.587   2.325   5.647
 3648TIP3    H210886   0.684   2.247   5.560
 3649TIP3   OH210887   2.314   7.153   4.899
 3649TIP3    H110888   2.375   7.198   4.842
 3649TIP3    H210889   2.283   7.079   4.848
 3650TIP3   OH210890   8.156   5.008   0.132
 3650TIP3    H110891   8.234   4.964   0.099
 3650TIP3    H210892   8.190   5.081   0.183
 3651TIP3   OH210893   1.640   2.644   6.306
 3651TIP3    H110894   1.547   2.664   6.307
 3651TIP3    H210895   1.659   2.626   6.214
 3652TIP3   OH210896   3.163   3.140   0.094
 3652TIP3    H110897   3.177   3.086   0.016
 3652TIP3    H210898   3.137   3.226   0.060
 3653TIP3   OH210899   3.711   3.609   0.266
 3653TIP3    H110900   3.698   3.620   0.360
 3653TIP3    H210901   3.792   3.558   0.259
 3654TIP3   OH210902   7.784   5.993   0.567
 3654TIP3    H110903   7.774   6.047   0.489
 3654TIP3    H210904   7.705   5.941   0.570
 3655TIP3   OH210905   3.772   4.616   3.322
 3655TIP3    H110906   3.852   4.624   3.270
 3655TIP3    H210907   3.737   4.530   3.300
 3656TIP3   OH210908   8.271   2.282   6.828
 3656TIP3    H110909   8.290   2.311   6.918
 3656TIP3    H210910   8.355   2.252   6.795
 3657TIP3   OH210911   7.633   2.766   4.252
 3657TIP3    H110912   7.596   2.725   4.174
 3657TIP3    H210913   7.593   2.718   4.325
 3658TIP3   OH210914   2.572   5.739   4.857
 3658TIP3    H110915   2.550   5.659   4.810
 3658TIP3    H210916   2.584   5.805   4.789
 3659TIP3   OH210917   6.163   4.597   0.336
 3659TIP3    H110918   6.113   4.570   0.259
 3659TIP3    H210919   6.127   4.683   0.359
 3660TIP3   OH210920   1.362   1.125   2.946
 3660TIP3    H110921   1.410   1.167   2.874
 3660TIP3    H210922   1.376   1.183   3.021
 3661TIP3   OH210923   7.764   0.635   3.119
 3661TIP3    H110924   7.672   0.649   3.143
 3661TIP3    H210925   7.762   0.622   3.024
 3662TIP3   OH210926   6.481   0.945  -0.042
 3662TIP3    H110927   6.463   0.908   0.044
 3662TIP3    H210928   6.398   0.982  -0.071
 3663TIP3   OH210929   1.888   7.737   6.637
 3663TIP3    H110930   1.936   7.817   6.657
 3663TIP3    H210931   1.950   7.684   6.587
 3664TIP3   OH210932   4.795   5.377   4.385
 3664TIP3    H110933   4.834   5.319   4.320
 3664TIP3    H210934   4.758   5.319   4.451
 3665TIP3   OH210935   7.832   7.240   0.804
 3665TIP3    H110936   7.796   7.321   0.768
 3665TIP3    H210937   7.791   7.170   0.754
 3666TIP3   OH210938   5.327   3.348   3.450
 3666TIP3    H110939   5.286   3.366   3.535
 3666TIP3    H210940   5.279   3.402   3.388
 3667TIP3   OH210941   2.485   7.538   0.796
 3667TIP3    H110942   2.465   7.492   0.715
 3667TIP3    H210943   2.532   7.616   0.769
 3668TIP3   OH210944   2.391   0.133   5.922
 3668TIP3    H110945   2.420   0.054   5.877
 3668TIP3    H210946   2.404   0.203   5.858
 3669TIP3   OH210947   5.107   6.878   3.294
 3669TIP3    H110948   5.058   6.798   3.313
 3669TIP3    H210949   5.040   6.944   3.278
 3670TIP3   OH210950   7.621   7.154   1.657
 3670TIP3    H110951   7.625   7.100   1.578
 3670TIP3    H210952   7.667   7.103   1.723
 3671TIP3   OH210953   1.741   6.516   2.094
 3671TIP3    H110954   1.670   6.550   2.149
 3671TIP3    H210955   1.702   6.440   2.051
 3672TIP3   OH210956   3.982   6.931   0.397
 3672TIP3    H110957   3.919   6.973   0.455
 3672TIP3    H210958   4.021   7.002   0.347
 3673TIP3   OH210959   3.352   3.695   2.743
 3673TIP3    H110960   3.284   3.657   2.687
 3673TIP3    H210961   3.389   3.766   2.690
 3674TIP3   OH210962   8.027   1.140   3.974
 3674TIP3    H110963   8.046   1.123   4.066
 3674TIP3    H210964   8.113   1.150   3.933
 3675TIP3   OH210965   3.367   7.411   5.742
 3675TIP3    H110966   3.421   7.488   5.757
 3675TIP3    H210967   3.293   7.442   5.691
 3676TIP3   OH210968   0.306   6.145   3.796
 3676TIP3    H110969   0.234   6.201   3.826
 3676TIP3    H210970   0.274   6.056   3.808
 3677TIP3   OH210971   5.703   6.833   6.172
 3677TIP3    H110972   5.736   6.759   6.223
 3677TIP3    H210973   5.782   6.880   6.146
 3678TIP3   OH210974   2.083   5.820   3.445
 3678TIP3    H110975   2.116   5.731   3.433
 3678TIP3    H210976   1.988   5.812   3.429
 3679TIP3   OH210977   4.442   0.878   3.355
 3679TIP3    H110978   4.480   0.804   3.403
 3679TIP3    H210979   4.502   0.950   3.371
 3680TIP3   OH210980   4.998   6.845   2.469
 3680TIP3    H110981   4.958   6.823   2.385
 3680TIP3    H210982   5.091   6.823   2.457
 3681TIP3   OH210983   8.085   3.669   6.039
 3681TIP3    H110984   8.164   3.618   6.017
 3681TIP3    H210985   8.047   3.691   5.954
 3682TIP3   OH210986   7.169   6.398   0.297
 3682TIP3    H110987   7.106   6.361   0.359
 3682TIP3    H210988   7.207   6.322   0.253
 3683TIP3   OH210989   5.119   3.080   5.162
 3683TIP3    H110990   5.167   3.162   5.174
 3683TIP3    H210991   5.081   3.087   5.075
 3684TIP3   OH210992   0.572   7.867   0.879
 3684TIP3    H110993   0.615   7.799   0.826
 3684TIP3    H210994   0.637   7.891   0.945
 3685TIP3   OH210995   4.590   6.185   5.180
 3685TIP3    H110996   4.683   6.167   5.194
 3685TIP3    H210997   4.588   6.239   5.101
 3686TIP3   OH210998   4.154   3.583   5.260
 3686TIP3    H110999   4.121   3.532   5.185
 3686TIP3    H211000   4.145   3.524   5.335
 3687TIP3   OH211001   5.335   3.926   6.090
 3687TIP3    H111002   5.426   3.943   6.065
 3687TIP3    H211003   5.294   4.013   6.091
 3688TIP3   OH211004   6.373   6.757   0.220
 3688TIP3    H111005   6.332   6.784   0.138
 3688TIP3    H211006   6.466   6.775   0.208
 3689TIP3   OH211007   7.781   3.369   1.259
 3689TIP3    H111008   7.768   3.274   1.253
 3689TIP3    H211009   7.876   3.380   1.258
 3690TIP3   OH211010   1.557   3.063   0.340
 3690TIP3    H111011   1.643   3.103   0.328
 3690TIP3    H211012   1.495   3.135   0.333
 3691TIP3   OH211013   1.796   7.313   3.223
 3691TIP3    H111014   1.879   7.271   3.204
 3691TIP3    H211015   1.736   7.280   3.157
 3692TIP3   OH211016   2.048   4.517   4.894
 3692TIP3    H111017   2.126   4.572   4.890
 3692TIP3    H211018   1.977   4.577   4.915
 3693TIP3   OH211019   5.123   5.191   0.379
 3693TIP3    H111020   5.073   5.132   0.435
 3693TIP3    H211021   5.168   5.250   0.439
 3694TIP3   OH211022   5.100   7.656   0.717
 3694TIP3    H111023   5.184   7.668   0.673
 3694TIP3    H211024   5.096   7.562   0.737
 3695TIP3   OH211025   6.921   7.328   1.525
 3695TIP3    H111026   6.865   7.293   1.594
 3695TIP3    H211027   6.909   7.268   1.451
 3696TIP3   OH211028   1.873   1.124   5.654
 3696TIP3    H111029   1.809   1.084   5.712
 3696TIP3    H211030   1.955   1.121   5.704
 3697TIP3   OH211031   8.068   4.388   3.191
 3697TIP3    H111032   7.994   4.385   3.130
 3697TIP3    H211033   8.028   4.377   3.277
 3698TIP3   OH211034   4.344   4.262   6.301
 3698TIP3    H111035   4.294   4.329   6.347
 3698TIP3    H211036   4.436   4.283   6.320
 3699TIP3   OH211037   7.459   7.943   3.152
 3699TIP3    H111038   7.479   7.954   3.059
 3699TIP3    H211039   7.426   7.854   3.159
 3700TIP3   OH211040   7.475   2.595   4.428
 3700TIP3    H111041   7.415   2.533   4.387
 3700TIP3    H211042   7.501   2.551   4.509
 3701TIP3   OH211043   2.447   1.842   1.162
 3701TIP3    H111044   2.523   1.788   1.186
 3701TIP3    H211045   2.434   1.825   1.069
 3702TIP3   OH211046   1.751   0.193   0.940
 3702TIP3    H111047   1.710   0.267   0.985
 3702TIP3    H211048   1.692   0.120   0.956
 3703TIP3   OH211049   7.508   6.746   4.408
 3703TIP3    H111050   7.483   6.711   4.323
 3703TIP3    H211051   7.559   6.824   4.388
 3704TIP3   OH211052   4.824   5.782   2.707
 3704TIP3    H111053   4.859   5.796   2.619
 3704TIP3    H211054   4.731   5.804   2.700
 3705TIP3   OH211055   8.346   6.493   2.827
 3705TIP3    H111056   8.405   6.540   2.768
 3705TIP3    H211057   8.299   6.562   2.873
 3706TIP3   OH211058   1.739   0.665   0.081
 3706TIP3    H111059   1.651   0.672   0.118
 3706TIP3    H211060   1.757   0.571   0.081
 3707TIP3   OH211061   1.433   2.143   3.690
 3707TIP3    H111062   1.350   2.163   3.646
 3707TIP3    H211063   1.455   2.223   3.737
 3708TIP3   OH211064   4.090   6.845   3.146
 3708TIP3    H111065   4.008   6.832   3.100
 3708TIP3    H211066   4.131   6.758   3.147
 3709TIP3   OH211067   7.806   3.003   0.956
 3709TIP3    H111068   7.899   2.987   0.966
 3709TIP3    H211069   7.765   2.918   0.973
 3710TIP3   OH211070   7.886   5.642   2.818
 3710TIP3    H111071   7.827   5.577   2.781
 3710TIP3    H211072   7.912   5.604   2.902
 3711TIP3   OH211073   0.664   4.419   6.439
 3711TIP3    H111074   0.737   4.418   6.500
 3711TIP3    H211075   0.644   4.326   6.425
 3712TIP3   OH211076   3.101   7.049   2.479
 3712TIP3    H111077   3.103   7.100   2.560
 3712TIP3    H211078   3.133   7.110   2.412
 3713TIP3   OH211079   2.082   5.919   6.146
 3713TIP3    H111080   2.170   5.949   6.170
 3713TIP3    H211081   2.028   5.998   6.150
 3714TIP3   OH211082   6.435   0.602   2.270
 3714TIP3    H111083   6.404   0.678   2.221
 3714TIP3    H211084   6.521   0.584   2.233
 3715TIP3   OH211085   3.660   4.859   1.944
 3715TIP3    H111086   3.692   4.778   1.985
 3715TIP3    H211087   3.566   4.844   1.934
 3716TIP3   OH211088   1.919   3.531   1.077
 3716TIP3    H111089   1.832   3.556   1.046
 3716TIP3    H211090   1.929   3.577   1.160
 3717TIP3   OH211091   3.513   6.519   1.485
 3717TIP3    H111092   3.538   6.585   1.421
 3717TIP3    H211093   3.502   6.568   1.567
 3718TIP3   OH211094   0.480   6.147   4.150
 3718TIP3    H111095   0.393   6.162   4.116
 3718TIP3    H211096   0.485   6.201   4.230
 3719TIP3   OH211097   1.200   0.814   2.742
 3719TIP3    H111098   1.288   0.824   2.706
 3719TIP3    H211099   1.192   0.720   2.758
 3720TIP3   OH211100   2.033   0.393   5.625
 3720TIP3    H111101   2.027   0.325   5.557
 3720TIP3    H211102   2.099   0.360   5.686
 3721TIP3   OH211103   6.017   0.639   5.640
 3721TIP3    H111104   6.042   0.675   5.555
 3721TIP3    H211105   6.011   0.544   5.624
 3722TIP3   OH211106   3.758   7.180   6.349
 3722TIP3    H111107   3.805   7.128   6.414
 3722TIP3    H211108   3.727   7.257   6.397
 3723TIP3   OH211109   7.658   3.594   6.014
 3723TIP3    H111110   7.671   3.687   5.998
 3723TIP3    H211111   7.567   3.578   5.989
 3724TIP3   OH211112   5.546   2.285   1.630
 3724TIP3    H111113   5.632   2.315   1.598
 3724TIP3    H211114   5.562   2.259   1.720
 3725TIP3   OH211115   5.245   2.065   5.627
 3725TIP3    H111116   5.200   2.079   5.545
 3725TIP3    H211117   5.322   2.013   5.604
 3726TIP3   OH211118   4.967   7.702   6.432
 3726TIP3    H111119   4.982   7.684   6.524
 3726TIP3    H211120   4.967   7.798   6.426
 3727TIP3   OH211121   4.838   5.619   4.553
 3727TIP3    H111122   4.818   5.569   4.474
 3727TIP3    H211123   4.820   5.710   4.529
 3728TIP3   OH211124   5.609   1.788   6.070
 3728TIP3    H111125   5.612   1.692   6.065
 3728TIP3    H211126   5.612   1.807   6.164
 3729TIP3   OH211127   3.470   6.125   6.241
 3729TIP3    H111128   3.471   6.034   6.273
 3729TIP3    H211129   3.558   6.139   6.208
 3730TIP3   OH211130   3.622   0.849   3.034
 3730TIP3    H111131   3.672   0.929   3.051
 3730TIP3    H211132   3.580   0.863   2.949
 3731TIP3   OH211133   1.287   5.220   0.034
 3731TIP3    H111134   1.359   5.186  -0.019
 3731TIP3    H211135   1.288   5.165   0.113
 3732TIP3   OH211136   8.097   7.074   4.216
 3732TIP3    H111137   8.079   6.999   4.159
 3732TIP3    H211138   8.111   7.035   4.303
 3733TIP3   OH211139   5.273   6.767   2.402
 3733TIP3    H111140   5.308   6.748   2.489
 3733TIP3    H211141   5.349   6.767   2.345
 3734TIP3   OH211142   4.478   6.526   1.773
 3734TIP3    H111143   4.424   6.454   1.806
 3734TIP3    H211144   4.567   6.493   1.778
 3735TIP3   OH211145   7.535   7.722   5.974
 3735TIP3    H111146   7.543   7.648   5.913
 3735TIP3    H211147   7.621   7.764   5.970
 3736TIP3   OH211148   6.744   7.810   4.881
 3736TIP3    H111149   6.747   7.906   4.873
 3736TIP3    H211150   6.651   7.790   4.887
 3737TIP3   OH211151   6.316   4.013   3.596
 3737TIP3    H111152   6.264   4.019   3.677
 3737TIP3    H211153   6.401   3.981   3.625
 3738TIP3   OH211154   6.320   1.954   1.298
 3738TIP3    H111155   6.301   1.866   1.330
 3738TIP3    H211156   6.413   1.951   1.275
 3739TIP3   OH211157   5.695   7.659   5.804
 3739TIP3    H111158   5.637   7.681   5.731
 3739TIP3    H211159   5.773   7.712   5.789
 3740TIP3   OH211160   6.196   6.176   4.718
 3740TIP3    H111161   6.213   6.101   4.661
 3740TIP3    H211162   6.103   6.167   4.741
 3741TIP3   OH211163   2.210   7.420   0.588
 3741TIP3    H111164   2.191   7.350   0.525
 3741TIP3    H211165   2.301   7.443   0.572
 3742TIP3   OH211166   3.363   0.806   5.605
 3742TIP3    H111167   3.371   0.901   5.612
 3742TIP3    H211168   3.274   0.791   5.572
 3743TIP3   OH211169   3.863   7.267   5.345
 3743TIP3    H111170   3.857   7.253   5.439
 3743TIP3    H211171   3.956   7.257   5.325
 3744TIP3   OH211172   7.336   7.225   2.884
 3744TIP3    H111173   7.417   7.189   2.922
 3744TIP3    H211174   7.283   7.249   2.960
 3745TIP3   OH211175   1.263   5.287   6.072
 3745TIP3    H111176   1.307   5.203   6.058
 3745TIP3    H211177   1.299   5.320   6.155
 3746TIP3   OH211178   4.918   6.009   3.325
 3746TIP3    H111179   4.912   5.948   3.399
 3746TIP3    H211180   5.005   6.049   3.334
 3747TIP3   OH211181   4.730   0.497   5.581
 3747TIP3    H111182   4.736   0.586   5.616
 3747TIP3    H211183   4.750   0.441   5.656
 3748TIP3   OH211184   6.240   5.955   3.698
 3748TIP3    H111185   6.208   5.875   3.656
 3748TIP3    H211186   6.277   5.925   3.781
 3749TIP3   OH211187   8.264   1.385   0.738
 3749TIP3    H111188   8.216   1.327   0.679
 3749TIP3    H211189   8.225   1.370   0.824
 3750TIP3   OH211190   3.173   7.313   1.241
 3750TIP3    H111191   3.085   7.350   1.249
 3750TIP3    H211192   3.225   7.383   1.201
 3751TIP3   OH211193   7.965   3.006   0.050
 3751TIP3    H111194   7.920   3.010  -0.034
 3751TIP3    H211195   7.941   3.087   0.095
 3752TIP3   OH211196   6.524   7.091   4.698
 3752TIP3    H111197   6.585   7.164   4.709
 3752TIP3    H211198   6.479   7.085   4.782
 3753TIP3   OH211199   8.131   0.822   6.356
 3753TIP3    H111200   8.153   0.905   6.313
 3753TIP3    H211201   8.136   0.842   6.449
 3754TIP3   OH211202   5.941   6.981   2.604
 3754TIP3    H111203   6.007   7.032   2.557
 3754TIP3    H211204   5.992   6.931   2.668
 3755TIP3   OH211205   2.478   7.457   0.542
 3755TIP3    H111206   2.475   7.535   0.486
 3755TIP3    H211207   2.519   7.390   0.486
 3756TIP3   OH211208   2.726   3.561   1.856
 3756TIP3    H111209   2.677   3.488   1.893
 3756TIP3    H211210   2.662   3.631   1.847
 3757TIP3   OH211211   0.417   5.736   0.985
 3757TIP3    H111212   0.499   5.686   0.986
 3757TIP3    H211213   0.349   5.670   0.974
 3758TIP3   OH211214   1.036   2.135   4.184
 3758TIP3    H111215   1.007   2.055   4.139
 3758TIP3    H211216   0.956   2.171   4.222
 3759TIP3   OH211217   5.230   7.643   1.815
 3759TIP3    H111218   5.303   7.696   1.848
 3759TIP3    H211219   5.270   7.559   1.792
 3760TIP3   OH211220   4.722   7.186   3.448
 3760TIP3    H111221   4.668   7.204   3.525
 3760TIP3    H211222   4.737   7.092   3.450
 3761TIP3   OH211223   4.400   4.146   1.645
 3761TIP3    H111224   4.324   4.175   1.697
 3761TIP3    H211225   4.467   4.211   1.665
 3762TIP3   OH211226   6.549   0.434   6.181
 3762TIP3    H111227   6.631   0.453   6.136
 3762TIP3    H211228   6.487   0.416   6.111
 3763TIP3   OH211229   8.316   5.782   6.205
 3763TIP3    H111230   8.303   5.769   6.111
 3763TIP3    H211231   8.273   5.865   6.225
 3764TIP3   OH211232   6.571   5.706   1.282
 3764TIP3    H111233   6.552   5.745   1.197
 3764TIP3    H211234   6.520   5.758   1.344
 3765TIP3   OH211235   0.492   1.008   5.868
 3765TIP3    H111236   0.399   1.009   5.893
 3765TIP3    H211237   0.500   1.079   5.804
 3766TIP3   OH211238   3.240   6.659   0.122
 3766TIP3    H111239   3.150   6.626   0.121
 3766TIP3    H211240   3.231   6.753   0.135
 3767TIP3   OH211241   3.715   5.937   1.117
 3767TIP3    H111242   3.710   6.027   1.151
 3767TIP3    H211243   3.772   5.892   1.180
 3768TIP3   OH211244   5.435   1.500   2.354
 3768TIP3    H111245   5.495   1.443   2.403
 3768TIP3    H211246   5.348   1.466   2.374
 3769TIP3   OH211247   0.625   5.888   0.751
 3769TIP3    H111248   0.588   5.800   0.742
 3769TIP3    H211249   0.550   5.946   0.749
 3770TIP3   OH211250   2.682   0.418   5.288
 3770TIP3    H111251   2.727   0.395   5.369
 3770TIP3    H211252   2.752   0.453   5.232
 3771TIP3   OH211253   7.332   2.300   6.499
 3771TIP3    H111254   7.373   2.310   6.412
 3771TIP3    H211255   7.382   2.231   6.541
 3772TIP3   OH211256   1.755   5.204   6.167
 3772TIP3    H111257   1.814   5.280   6.167
 3772TIP3    H211258   1.709   5.210   6.083
 3773TIP3   OH211259   4.507   7.145   6.118
 3773TIP3    H111260   4.488   7.129   6.210
 3773TIP3    H211261   4.481   7.065   6.073
 3774TIP3   OH211262   4.332   1.923   6.263
 3774TIP3    H111263   4.327   1.934   6.357
 3774TIP3    H211264   4.342   1.828   6.251
 3775TIP3   OH211265   5.622   7.332   4.273
 3775TIP3    H111266   5.604   7.383   4.193
 3775TIP3    H211267   5.557   7.262   4.271
 3776TIP3   OH211268   1.653   0.245   3.996
 3776TIP3    H111269   1.715   0.211   3.932
 3776TIP3    H211270   1.605   0.168   4.026
 3777TIP3   OH211271   6.860   3.597   1.765
 3777TIP3    H111272   6.798   3.664   1.736
 3777TIP3    H211273   6.946   3.636   1.748
 3778TIP3   OH211274   7.501   7.679   4.378
 3778TIP3    H111275   7.427   7.661   4.320
 3778TIP3    H211276   7.499   7.774   4.391
 3779TIP3   OH211277   6.677   1.556   0.262
 3779TIP3    H111278   6.653   1.509   0.182
 3779TIP3    H211279   6.708   1.641   0.231
 3780TIP3   OH211280   3.633   4.162   4.544
 3780TIP3    H111281   3.561   4.179   4.605
 3780TIP3    H211282   3.712   4.170   4.597
 3781TIP3   OH211283   5.149   1.715   5.779
 3781TIP3    H111284   5.244   1.729   5.774
 3781TIP3    H211285   5.113   1.799   5.806
 3782TIP3   OH211286   0.762   1.571   1.324
 3782TIP3    H111287   0.833   1.559   1.262
 3782TIP3    H211288   0.728   1.659   1.305
 3783TIP3   OH211289   5.505   5.874   4.374
 3783TIP3    H111290   5.438   5.935   4.405
 3783TIP3    H211291   5.474   5.848   4.287
 3784TIP3   OH211292   2.394   2.576   5.979
 3784TIP3    H111293   2.486   2.580   5.953
 3784TIP3    H211294   2.349   2.630   5.915
 3785TIP3   OH211295   7.901   6.130   0.789
 3785TIP3    H111296   7.834   6.108   0.723
 3785TIP3    H211297   7.913   6.048   0.838
 3786TIP3   OH211298   0.944   4.310   3.494
 3786TIP3    H111299   0.937   4.281   3.585
 3786TIP3    H211300   1.037   4.297   3.472
 3787TIP3   OH211301   0.012   5.392   4.093
 3787TIP3    H111302   0.052   5.372   4.178
 3787TIP3    H211303  -0.074   5.350   4.097
 3788TIP3   OH211304   3.162   7.836   2.354
 3788TIP3    H111305   3.156   7.752   2.400
 3788TIP3    H211306   3.126   7.900   2.415
 3789TIP3   OH211307   4.595   0.257   6.393
 3789TIP3    H111308   4.553   0.215   6.318
 3789TIP3    H211309   4.687   0.231   6.386
 3790TIP3   OH211310   4.104   7.454   0.728
 3790TIP3    H111311   4.191   7.453   0.768
 3790TIP3    H211312   4.071   7.365   0.741
 3791TIP3   OH211313   1.110   4.093   5.524
 3791TIP3    H111314   1.064   4.158   5.472
 3791TIP3    H211315   1.195   4.133   5.543
 3792TIP3   OH211316   7.633   7.887   1.322
 3792TIP3    H111317   7.543   7.919   1.328
 3792TIP3    H211318   7.639   7.820   1.390
 3793TIP3   OH211319   7.551   5.862   4.673
 3793TIP3    H111320   7.590   5.876   4.759
 3793TIP3    H211321   7.479   5.801   4.689
 3794TIP3   OH211322   4.214   0.366   6.239
 3794TIP3    H111323   4.300   0.407   6.244
 3794TIP3    H211324   4.200   0.353   6.145
 3795TIP3   OH211325   0.983   7.607   3.762
 3795TIP3    H111326   0.973   7.575   3.673
 3795TIP3    H211327   0.946   7.537   3.817
 3796TIP3   OH211328   6.868   7.327   0.471
 3796TIP3    H111329   6.864   7.373   0.555
 3796TIP3    H211330   6.915   7.386   0.413
 3797TIP3   OH211331   3.203   7.048   5.264
 3797TIP3    H111332   3.266   6.980   5.288
 3797TIP3    H211333   3.157   7.068   5.346
 3798TIP3   OH211334   6.783   0.738   0.304
 3798TIP3    H111335   6.811   0.653   0.336
 3798TIP3    H211336   6.740   0.778   0.380
 3799TIP3   OH211337   4.916   6.847   4.537
 3799TIP3    H111338   4.872   6.783   4.593
 3799TIP3    H211339   4.846   6.893   4.491
 3800TIP3   OH211340   2.990   4.037   3.707
 3800TIP3    H111341   2.926   3.982   3.752
 3800TIP3    H211342   3.071   3.986   3.710
 3801TIP3   OH211343   4.957   2.543   1.633
 3801TIP3    H111344   4.991   2.593   1.707
 3801TIP3    H211345   4.934   2.458   1.670
 3802TIP3   OH211346   5.945   0.201   0.973
 3802TIP3    H111347   5.994   0.237   1.046
 3802TIP3    H211348   5.860   0.176   1.011
 3803TIP3   OH211349   7.980   6.582   0.349
 3803TIP3    H111350   8.068   6.566   0.316
 3803TIP3    H211351   7.990   6.586   0.444
 3804TIP3   OH211352   1.473   3.804   6.847
 3804TIP3    H111353   1.397   3.854   6.816
 3804TIP3    H211354   1.452   3.713   6.826
 3805TIP3   OH211355   0.982   2.546   4.751
 3805TIP3    H111356   0.934   2.474   4.789
 3805TIP3    H211357   0.915   2.603   4.713
 3806TIP3   OH211358   5.326   3.367   4.846
 3806TIP3    H111359   5.264   3.331   4.783
 3806TIP3    H211360   5.298   3.458   4.860
 3807TIP3   OH211361   1.384   1.518   4.131
 3807TIP3    H111362   1.310   1.535   4.189
 3807TIP3    H211363   1.355   1.444   4.077
 3808TIP3   OH211364   4.862   5.974   0.096
 3808TIP3    H111365   4.932   6.037   0.077
 3808TIP3    H211366   4.874   5.951   0.188
 3809TIP3   OH211367   8.028   5.035   3.352
 3809TIP3    H111368   8.026   5.126   3.321
 3809TIP3    H211369   7.959   4.991   3.303
 3810TIP3   OH211370   5.644   7.154   1.769
 3810TIP3    H111371   5.625   7.201   1.688
 3810TIP3    H211372   5.631   7.062   1.746
 3811TIP3   OH211373   5.929   5.990   3.605
 3811TIP3    H111374   5.877   5.991   3.525
 3811TIP3    H211375   5.945   5.897   3.622
 3812TIP3   OH211376   4.156   6.252   0.064
 3812TIP3    H111377   4.102   6.326   0.093
 3812TIP3    H211378   4.135   6.182   0.126
 3813TIP3   OH211379   4.009   3.919   6.150
 3813TIP3    H111380   4.075   3.958   6.207
 3813TIP3    H211381   4.040   3.830   6.134
 3814TIP3   OH211382   3.702   3.443   6.307
 3814TIP3    H111383   3.673   3.441   6.398
 3814TIP3    H211384   3.795   3.421   6.311
 3815TIP3   OH211385   7.967   0.342   1.371
 3815TIP3    H111386   7.922   0.258   1.374
 3815TIP3    H211387   7.907   0.403   1.414
 3816TIP3   OH211388   8.231   1.951   2.017
 3816TIP3    H111389   8.293   1.879   2.006
 3816TIP3    H211390   8.285   2.024   2.046
 3817TIP3   OH211391   3.053   4.337   3.189
 3817TIP3    H111392   3.000   4.371   3.260
 3817TIP3    H211393   3.068   4.412   3.131
 3818TIP3   OH211394   1.382   6.191   1.665
 3818TIP3    H111395   1.359   6.169   1.756
 3818TIP3    H211396   1.475   6.213   1.668
 3819TIP3   OH211397   6.895   3.986   0.317
 3819TIP3    H111398   6.810   4.030   0.318
 3819TIP3    H211399   6.915   3.975   0.224
 3820TIP3   OH211400   6.147   1.386   6.130
 3820TIP3    H111401   6.202   1.388   6.052
 3820TIP3    H211402   6.058   1.397   6.097
 3821TIP3   OH211403   0.621   0.961   1.398
 3821TIP3    H111404   0.696   0.903   1.380
 3821TIP3    H211405   0.643   1.043   1.355
 3822TIP3   OH211406   0.824   1.983   6.181
 3822TIP3    H111407   0.830   1.987   6.086
 3822TIP3    H211408   0.817   1.890   6.202
 3823TIP3   OH211409   2.676   1.060   5.015
 3823TIP3    H111410   2.657   1.091   5.103
 3823TIP3    H211411   2.756   1.105   4.990
 3824TIP3   OH211412   6.551   5.860   6.261
 3824TIP3    H111413   6.545   5.799   6.335
 3824TIP3    H211414   6.491   5.931   6.283
 3825TIP3   OH211415   7.947   7.591   2.248
 3825TIP3    H111416   7.878   7.608   2.312
 3825TIP3    H211417   7.925   7.504   2.213
 3826TIP3   OH211418   4.040   1.387   6.484
 3826TIP3    H111419   3.947   1.365   6.496
 3826TIP3    H211420   4.059   1.450   6.554
 3827TIP3   OH211421   3.111   7.458   3.528
 3827TIP3    H111422   3.176   7.427   3.465
 3827TIP3    H211423   3.066   7.530   3.483
 3828TIP3   OH211424   0.439   5.121   2.466
 3828TIP3    H111425   0.443   5.032   2.503
 3828TIP3    H211426   0.515   5.165   2.503
 3829TIP3   OH211427   1.707   3.818   3.999
 3829TIP3    H111428   1.704   3.826   4.094
 3829TIP3    H211429   1.795   3.848   3.975
 3830TIP3   OH211430   1.223   2.706   1.154
 3830TIP3    H111431   1.261   2.690   1.068
 3830TIP3    H211432   1.131   2.728   1.136
 3831TIP3   OH211433   8.239   7.823   2.492
 3831TIP3    H111434   8.219   7.863   2.576
 3831TIP3    H211435   8.333   7.838   2.480
 3832TIP3   OH211436   3.492   2.895   5.655
 3832TIP3    H111437   3.549   2.865   5.726
 3832TIP3    H211438   3.457   2.978   5.686
 3833TIP3   OH211439   4.610   7.404   6.007
 3833TIP3    H111440   4.584   7.327   6.059
 3833TIP3    H211441   4.529   7.434   5.967
 3834TIP3   OH211442   5.779   0.550   1.735
 3834TIP3    H111443   5.745   0.638   1.747
 3834TIP3    H211444   5.709   0.493   1.766
 3835TIP3   OH211445   0.683   3.404   0.029
 3835TIP3    H111446   0.624   3.371  -0.038
 3835TIP3    H211447   0.630   3.466   0.079
 3836TIP3   OH211448   0.620   1.218   3.021
 3836TIP3    H111449   0.587   1.130   3.004
 3836TIP3    H211450   0.555   1.276   2.980
 3837TIP3   OH211451   4.934   1.818   4.294
 3837TIP3    H111452   4.927   1.817   4.198
 3837TIP3    H211453   4.993   1.746   4.314
 3838TIP3   OH211454   8.001   5.820   4.158
 3838TIP3    H111455   8.011   5.852   4.069
 3838TIP3    H211456   7.983   5.898   4.211
 3839TIP3   OH211457   7.330   2.108   2.162
 3839TIP3    H111458   7.273   2.144   2.229
 3839TIP3    H211459   7.278   2.038   2.122
 3840TIP3   OH211460   5.458   0.946   4.329
 3840TIP3    H111461   5.547   0.916   4.348
 3840TIP3    H211462   5.444   0.924   4.237
 3841TIP3   OH211463   5.118   0.161   1.062
 3841TIP3    H111464   5.188   0.176   1.125
 3841TIP3    H211465   5.140   0.077   1.022
 3842TIP3   OH211466   4.832   0.372   2.677
 3842TIP3    H111467   4.760   0.406   2.625
 3842TIP3    H211468   4.848   0.440   2.743
 3843TIP3   OH211469   6.283   5.603   0.602
 3843TIP3    H111470   6.348   5.665   0.569
 3843TIP3    H211471   6.200   5.637   0.572
 3844TIP3   OH211472   7.194   3.061   4.465
 3844TIP3    H111473   7.168   3.115   4.390
 3844TIP3    H211474   7.197   2.972   4.431
 3845TIP3   OH211475   4.516   5.577   1.073
 3845TIP3    H111476   4.586   5.605   1.132
 3845TIP3    H211477   4.532   5.627   0.992
 3846TIP3   OH211478   4.703   6.670   6.689
 3846TIP3    H111479   4.672   6.582   6.710
 3846TIP3    H211480   4.798   6.665   6.700
 3847TIP3   OH211481   4.156   0.545   0.867
 3847TIP3    H111482   4.188   0.486   0.935
 3847TIP3    H211483   4.179   0.502   0.785
 3848TIP3   OH211484   3.827   0.158   1.660
 3848TIP3    H111485   3.819   0.136   1.568
 3848TIP3    H211486   3.899   0.104   1.692
 3849TIP3   OH211487   0.323   5.573   4.245
 3849TIP3    H111488   0.253   5.537   4.300
 3849TIP3    H211489   0.349   5.654   4.290
 3850TIP3   OH211490   4.265   6.114   6.072
 3850TIP3    H111491   4.300   6.073   6.151
 3850TIP3    H211492   4.232   6.040   6.020
 3851TIP3   OH211493   6.219   4.617   0.741
 3851TIP3    H111494   6.210   4.568   0.822
 3851TIP3    H211495   6.220   4.550   0.672
 3852TIP3   OH211496   2.964   2.613   4.381
 3852TIP3    H111497   2.925   2.648   4.300
 3852TIP3    H211498   2.911   2.652   4.451
 3853TIP3   OH211499   5.081   3.105   3.387
 3853TIP3    H111500   5.039   3.020   3.394
 3853TIP3    H211501   5.173   3.086   3.371
 3854TIP3   OH211502   1.743   2.717   3.883
 3854TIP3    H111503   1.781   2.790   3.933
 3854TIP3    H211504   1.759   2.640   3.938
 3855TIP3   OH211505   5.091   4.786   6.054
 3855TIP3    H111506   5.138   4.737   6.122
 3855TIP3    H211507   5.121   4.746   5.972
 3856TIP3   OH211508   0.714   0.425   5.034
 3856TIP3    H111509   0.786   0.485   5.013
 3856TIP3    H211510   0.675   0.403   4.950
 3857TIP3   OH211511   7.308   0.080   3.213
 3857TIP3    H111512   7.329   0.141   3.284
 3857TIP3    H211513   7.237   0.027   3.247
 3858TIP3   OH211514   2.766   4.488   3.093
 3858TIP3    H111515   2.763   4.436   3.012
 3858TIP3    H211516   2.732   4.429   3.160
 3859TIP3   OH211517   4.132   0.228   4.877
 3859TIP3    H111518   4.074   0.220   4.952
 3859TIP3    H211519   4.142   0.139   4.844
 3860TIP3   OH211520   3.549   5.800   3.957
 3860TIP3    H111521   3.563   5.706   3.944
 3860TIP3    H211522   3.630   5.841   3.925
 3861TIP3   OH211523   6.662   2.260   1.676
 3861TIP3    H111524   6.674   2.166   1.681
 3861TIP3    H211525   6.603   2.272   1.600
 3862TIP3   OH211526   8.287   2.899   0.464
 3862TIP3    H111527   8.219   2.899   0.397
 3862TIP3    H211528   8.246   2.856   0.540
 3863TIP3   OH211529   0.118   3.904   0.471
 3863TIP3    H111530   0.025   3.904   0.490
 3863TIP3    H211531   0.160   3.928   0.554
 3864TIP3   OH211532   4.325   3.333   4.919
 3864TIP3    H111533   4.340   3.355   5.011
 3864TIP3    H211534   4.335   3.416   4.872
 3865TIP3   OH211535   1.427   6.808   5.103
 3865TIP3    H111536   1.444   6.902   5.105
 3865TIP3    H211537   1.510   6.769   5.132
 3866TIP3   OH211538   3.334   4.749   4.179
 3866TIP3    H111539   3.318   4.816   4.112
 3866TIP3    H211540   3.250   4.702   4.186
 3867TIP3   OH211541   2.525   0.537   2.887
 3867TIP3    H111542   2.599   0.508   2.833
 3867TIP3    H211543   2.479   0.457   2.910
 3868TIP3   OH211544   0.869   3.494   5.725
 3868TIP3    H111545   0.796   3.443   5.760
 3868TIP3    H211546   0.947   3.445   5.752
 3869TIP3   OH211547   5.864   7.367   2.965
 3869TIP3    H111548   5.783   7.385   3.013
 3869TIP3    H211549   5.835   7.350   2.875
 3870TIP3   OH211550   4.177   7.591   1.393
 3870TIP3    H111551   4.133   7.610   1.310
 3870TIP3    H211552   4.108   7.557   1.450
 3871TIP3   OH211553   4.876   1.041   3.777
 3871TIP3    H111554   4.825   1.091   3.712
 3871TIP3    H211555   4.874   1.096   3.855
 3872TIP3   OH211556   0.101   7.649   3.453
 3872TIP3    H111557   0.159   7.575   3.473
 3872TIP3    H211558   0.040   7.653   3.526
 3873TIP3   OH211559   3.801   0.216   2.831
 3873TIP3    H111560   3.881   0.164   2.823
 3873TIP3    H211561   3.806   0.278   2.758
 3874TIP3   OH211562   2.387   3.230   6.070
 3874TIP3    H111563   2.377   3.250   6.163
 3874TIP3    H211564   2.481   3.235   6.053
 3875TIP3   OH211565   1.948   0.502   3.256
 3875TIP3    H111566   2.026   0.554   3.274
 3875TIP3    H211567   1.950   0.488   3.161
 3876TIP3   OH211568   4.410   7.510   5.740
 3876TIP3    H111569   4.438   7.420   5.721
 3876TIP3    H211570   4.356   7.535   5.666
 3877TIP3   OH211571   2.087   1.975   1.948
 3877TIP3    H111572   2.151   1.908   1.926
 3877TIP3    H211573   2.002   1.936   1.927
 3878TIP3   OH211574   5.686   4.601   3.320
 3878TIP3    H111575   5.738   4.523   3.336
 3878TIP3    H211576   5.668   4.637   3.407
 3879TIP3   OH211577   8.234   5.928   1.597
 3879TIP3    H111578   8.169   5.919   1.527
 3879TIP3    H211579   8.185   5.960   1.672
 3880TIP3   OH211580   3.274   0.699   4.646
 3880TIP3    H111581   3.244   0.611   4.671
 3880TIP3    H211582   3.261   0.751   4.725
 3881TIP3   OH211583   4.446   5.251   0.547
 3881TIP3    H111584   4.361   5.291   0.527
 3881TIP3    H211585   4.434   5.213   0.634
 3882TIP3   OH211586   5.861   2.167   5.066
 3882TIP3    H111587   5.915   2.088   5.060
 3882TIP3    H211588   5.836   2.172   5.158
 3883TIP3   OH211589   3.632   5.545   3.931
 3883TIP3    H111590   3.655   5.528   4.022
 3883TIP3    H211591   3.600   5.461   3.898
 3884TIP3   OH211592   6.489   1.786   2.767
 3884TIP3    H111593   6.530   1.840   2.835
 3884TIP3    H211594   6.521   1.698   2.783
 3885TIP3   OH211595   0.741   0.203   6.358
 3885TIP3    H111596   0.817   0.226   6.306
 3885TIP3    H211597   0.666   0.220   6.301
 3886TIP3   OH211598   1.442   1.935   6.827
 3886TIP3    H111599   1.348   1.952   6.813
 3886TIP3    H211600   1.456   1.957   6.919
 3887TIP3   OH211601   7.881   0.919   3.661
 3887TIP3    H111602   7.788   0.898   3.669
 3887TIP3    H211603   7.911   0.870   3.584
 3888TIP3   OH211604   7.243   0.549   3.574
 3888TIP3    H111605   7.312   0.612   3.551
 3888TIP3    H211606   7.171   0.603   3.606
 3889TIP3   OH211607   0.896   6.933   5.968
 3889TIP3    H111608   0.906   6.880   5.889
 3889TIP3    H211609   0.953   6.891   6.032
 3890TIP3   OH211610   4.106   4.246   0.175
 3890TIP3    H111611   4.030   4.215   0.126
 3890TIP3    H211612   4.116   4.337   0.149
 3891TIP3   OH211613   7.937   0.732   5.733
 3891TIP3    H111614   7.901   0.776   5.656
 3891TIP3    H211615   7.910   0.786   5.807
 3892TIP3   OH211616   0.910   1.822   3.496
 3892TIP3    H111617   0.923   1.916   3.480
 3892TIP3    H211618   0.870   1.817   3.583
 3893TIP3   OH211619   7.340   3.401   3.089
 3893TIP3    H111620   7.344   3.329   3.153
 3893TIP3    H211621   7.330   3.357   3.005
 3894TIP3   OH211622   6.326   4.293   5.146
 3894TIP3    H111623   6.267   4.218   5.140
 3894TIP3    H211624   6.304   4.334   5.229
 3895TIP3   OH211625   5.002   1.582   2.325
 3895TIP3    H111626   5.039   1.647   2.266
 3895TIP3    H211627   4.921   1.622   2.358
 3896TIP3   OH211628   2.237   6.184   4.301
 3896TIP3    H111629   2.281   6.102   4.323
 3896TIP3    H211630   2.147   6.158   4.280
 3897TIP3   OH211631   6.602   6.031   3.270
 3897TIP3    H111632   6.661   6.104   3.288
 3897TIP3    H211633   6.627   5.963   3.332
 3898TIP3   OH211634   6.264   3.013   3.815
 3898TIP3    H111635   6.336   2.968   3.859
 3898TIP3    H211636   6.206   2.942   3.786
 3899TIP3   OH211637   1.111   0.812   4.282
 3899TIP3    H111638   1.155   0.726   4.283
 3899TIP3    H211639   1.104   0.834   4.190
 3900TIP3   OH211640   3.301   2.878   0.583
 3900TIP3    H111641   3.340   2.964   0.570
 3900TIP3    H211642   3.327   2.852   0.671
 3901TIP3   OH211643   5.261   6.612   1.376
 3901TIP3    H111644   5.300   6.590   1.291
 3901TIP3    H211645   5.191   6.674   1.354
 3902TIP3   OH211646   1.824   3.012   2.250
 3902TIP3    H111647   1.777   2.934   2.279
 3902TIP3    H211648   1.766   3.053   2.186
 3903TIP3   OH211649   4.285   6.881   2.336
 3903TIP3    H111650   4.299   6.872   2.242
 3903TIP3    H211651   4.368   6.852   2.375
 3904TIP3   OH211652   3.421   4.236   4.693
 3904TIP3    H111653   3.338   4.207   4.656
 3904TIP3    H211654   3.397   4.304   4.755
 3905TIP3   OH211655   7.536   1.196   4.826
 3905TIP3    H111656   7.471   1.142   4.870
 3905TIP3    H211657   7.550   1.270   4.885
 3906TIP3   OH211658   3.730   5.295   4.354
 3906TIP3    H111659   3.713   5.355   4.427
 3906TIP3    H211660   3.669   5.222   4.369
 3907TIP3   OH211661   2.483   6.567   0.136
 3907TIP3    H111662   2.426   6.638   0.108
 3907TIP3    H211663   2.498   6.584   0.229
 3908TIP3   OH211664   7.127   6.757   6.815
 3908TIP3    H111665   7.187   6.686   6.837
 3908TIP3    H211666   7.040   6.719   6.825
 3909TIP3   OH211667   1.111   3.025   5.361
 3909TIP3    H111668   1.109   2.965   5.287
 3909TIP3    H211669   1.053   2.985   5.426
 3910TIP3   OH211670   3.403   0.376   6.056
 3910TIP3    H111671   3.393   0.345   5.966
 3910TIP3    H211672   3.347   0.453   6.061
 3911TIP3   OH211673   0.583   3.182   3.697
 3911TIP3    H111674   0.614   3.198   3.786
 3911TIP3    H211675   0.601   3.263   3.649
 3912TIP3   OH211676   4.436   2.279   5.677
 3912TIP3    H111677   4.407   2.326   5.599
 3912TIP3    H211678   4.420   2.341   5.749
 3913TIP3   OH211679   4.364   3.349   4.613
 3913TIP3    H111680   4.434   3.401   4.573
 3913TIP3    H211681   4.405   3.264   4.632
 3914TIP3   OH211682   3.070   0.081   1.821
 3914TIP3    H111683   3.023   0.090   1.738
 3914TIP3    H211684   3.030   0.004   1.863
 3915TIP3   OH211685   1.149   1.968   1.355
 3915TIP3    H111686   1.182   1.878   1.352
 3915TIP3    H211687   1.227   2.022   1.370
 3916TIP3   OH211688   0.979   6.440   2.325
 3916TIP3    H111689   0.982   6.531   2.354
 3916TIP3    H211690   0.929   6.394   2.393
 3917TIP3   OH211691   1.908   1.960   3.403
 3917TIP3    H111692   1.852   2.001   3.469
 3917TIP3    H211693   1.856   1.886   3.372
 3918TIP3   OH211694   7.836   3.353   2.665
 3918TIP3    H111695   7.917   3.307   2.687
 3918TIP3    H211696   7.769   3.312   2.720
 3919TIP3   OH211697   2.061   7.197   0.472
 3919TIP3    H111698   2.128   7.171   0.535
 3919TIP3    H211699   2.023   7.114   0.442
 3920TIP3   OH211700   2.722   7.037   5.916
 3920TIP3    H111701   2.645   6.999   5.959
 3920TIP3    H211702   2.736   7.120   5.961
 3921TIP3   OH211703   1.866   1.163   5.036
 3921TIP3    H111704   1.833   1.077   5.065
 3921TIP3    H211705   1.937   1.183   5.097
 3922TIP3   OH211706   5.782   1.047   1.784
 3922TIP3    H111707   5.834   1.086   1.714
 3922TIP3    H211708   5.716   1.114   1.804
 3923TIP3   OH211709   3.695   2.828   1.374
 3923TIP3    H111710   3.642   2.748   1.371
 3923TIP3    H211711   3.638   2.896   1.337
 3924TIP3   OH211712   2.883   0.085   0.492
 3924TIP3    H111713   2.866   0.179   0.490
 3924TIP3    H211714   2.796   0.045   0.489
 3925TIP3   OH211715   2.786   6.846   3.052
 3925TIP3    H111716   2.760   6.814   2.966
 3925TIP3    H211717   2.769   6.773   3.112
 3926TIP3   OH211718   6.914   1.270   5.906
 3926TIP3    H111719   6.894   1.177   5.890
 3926TIP3    H211720   6.975   1.269   5.979
 3927TIP3   OH211721   6.694   2.255   2.733
 3927TIP3    H111722   6.631   2.286   2.797
 3927TIP3    H211723   6.644   2.243   2.653
 3928TIP3   OH211724   8.309   0.882   3.488
 3928TIP3    H111725   8.295   0.897   3.581
 3928TIP3    H211726   8.397   0.917   3.472
 3929TIP3   OH211727   1.866   7.376   5.880
 3929TIP3    H111728   1.793   7.380   5.818
 3929TIP3    H211729   1.896   7.467   5.887
 3930TIP3   OH211730   5.986   0.084   1.962
 3930TIP3    H111731   5.994   0.023   1.889
 3930TIP3    H211732   6.050   0.054   2.026
 3931TIP3   OH211733   7.104   7.811   1.359
 3931TIP3    H111734   7.163   7.751   1.404
 3931TIP3    H211735   7.019   7.766   1.357
 3932TIP3   OH211736   0.478   3.064   5.453
 3932TIP3    H111737   0.465   3.082   5.546
 3932TIP3    H211738   0.538   2.989   5.451
 3933TIP3   OH211739   3.352   3.510   0.240
 3933TIP3    H111740   3.410   3.434   0.240
 3933TIP3    H211741   3.361   3.546   0.152
 3934TIP3   OH211742   3.588   4.682   5.325
 3934TIP3    H111743   3.668   4.705   5.278
 3934TIP3    H211744   3.527   4.753   5.305
 3935TIP3   OH211745   3.230   3.392   0.609
 3935TIP3    H111746   3.216   3.302   0.637
 3935TIP3    H211747   3.308   3.389   0.554
 3936TIP3   OH211748   3.424   6.710   2.264
 3936TIP3    H111749   3.403   6.639   2.324
 3936TIP3    H211750   3.396   6.789   2.309
 3937TIP3   OH211751   1.046   3.921   5.727
 3937TIP3    H111752   1.070   3.944   5.637
 3937TIP3    H211753   0.958   3.958   5.738
 3938TIP3   OH211754   7.610   3.202   5.509
 3938TIP3    H111755   7.681   3.146   5.479
 3938TIP3    H211756   7.572   3.238   5.428
 3939TIP3   OH211757   0.395   1.689   5.062
 3939TIP3    H111758   0.308   1.702   5.024
 3939TIP3    H211759   0.408   1.594   5.058
 3940TIP3   OH211760   6.431   4.579   6.023
 3940TIP3    H111761   6.389   4.536   5.949
 3940TIP3    H211762   6.478   4.509   6.068
 3941TIP3   OH211763   1.308   3.607   4.838
 3941TIP3    H111764   1.278   3.517   4.853
 3941TIP3    H211765   1.243   3.644   4.778
 3942TIP3   OH211766   8.167   5.683   5.604
 3942TIP3    H111767   8.227   5.729   5.546
 3942TIP3    H211768   8.096   5.655   5.548
 3943TIP3   OH211769   7.569   6.434   0.862
 3943TIP3    H111770   7.546   6.448   0.954
 3943TIP3    H211771   7.488   6.455   0.815
 3944TIP3   OH211772   6.401   1.141   6.270
 3944TIP3    H111773   6.466   1.097   6.215
 3944TIP3    H211774   6.317   1.108   6.239
 3945TIP3   OH211775   0.675   2.080   2.199
 3945TIP3    H111776   0.688   2.137   2.123
 3945TIP3    H211777   0.702   2.133   2.274
 3946TIP3   OH211778   3.621   4.328   6.377
 3946TIP3    H111779   3.599   4.240   6.347
 3946TIP3    H211780   3.699   4.316   6.431
 3947TIP3   OH211781   6.834   2.211   4.828
 3947TIP3    H111782   6.820   2.302   4.802
 3947TIP3    H211783   6.916   2.213   4.878
 3948TIP3   OH211784   0.124   0.064   6.819
 3948TIP3    H111785   0.037   0.025   6.808
 3948TIP3    H211786   0.106   0.155   6.842
 3949TIP3   OH211787   6.706   7.300   4.630
 3949TIP3    H111788   6.732   7.390   4.649
 3949TIP3    H211789   6.750   7.279   4.548
 3950TIP3   OH211790   4.607   0.448   2.541
 3950TIP3    H111791   4.525   0.416   2.580
 3950TIP3    H211792   4.579   0.491   2.459
 3951TIP3   OH211793   2.958   6.886   0.189
 3951TIP3    H111794   2.932   6.958   0.247
 3951TIP3    H211795   2.882   6.872   0.133
 3952TIP3   OH211796   0.831   5.184   0.561
 3952TIP3    H111797   0.902   5.121   0.571
 3952TIP3    H211798   0.858   5.240   0.489
 3953TIP3   OH211799   6.882   3.010   0.330
 3953TIP3    H111800   6.842   2.928   0.304
 3953TIP3    H211801   6.962   2.985   0.376
 3954TIP3   OH211802   2.373   3.627   3.289
 3954TIP3    H111803   2.425   3.657   3.214
 3954TIP3    H211804   2.438   3.592   3.350
 3955TIP3   OH211805   6.819   3.929   1.799
 3955TIP3    H111806   6.828   3.935   1.894
 3955TIP3    H211807   6.735   3.884   1.786
 3956TIP3   OH211808   5.288   7.302   1.942
 3956TIP3    H111809   5.244   7.221   1.915
 3956TIP3    H211810   5.350   7.320   1.871
 3957TIP3   OH211811   5.264   2.836   1.541
 3957TIP3    H111812   5.313   2.917   1.558
 3957TIP3    H211813   5.173   2.860   1.555
 3958TIP3   OH211814   2.433   1.525   4.354
 3958TIP3    H111815   2.487   1.553   4.280
 3958TIP3    H211816   2.440   1.429   4.352
 3959TIP3   OH211817   2.475   6.747   2.892
 3959TIP3    H111818   2.452   6.710   2.977
 3959TIP3    H211819   2.536   6.818   2.913
 3960TIP3   OH211820   3.395   5.982   0.065
 3960TIP3    H111821   3.480   5.994   0.024
 3960TIP3    H211822   3.409   6.004   0.157
 3961TIP3   OH211823   1.656   5.156   4.611
 3961TIP3    H111824   1.629   5.087   4.671
 3961TIP3    H211825   1.732   5.121   4.566
 3962TIP3   OH211826   3.531   4.264   2.827
 3962TIP3    H111827   3.580   4.182   2.835
 3962TIP3    H211828   3.470   4.247   2.755
 3963TIP3   OH211829   3.662   5.422   5.422
 3963TIP3    H111830   3.592   5.437   5.359
 3963TIP3    H211831   3.733   5.385   5.370
 3964TIP3   OH211832   6.130   1.442   2.738
 3964TIP3    H111833   6.051   1.390   2.722
 3964TIP3    H211834   6.198   1.398   2.686
 3965TIP3   OH211835   6.505   5.740   0.444
 3965TIP3    H111836   6.454   5.806   0.397
 3965TIP3    H211837   6.508   5.665   0.385
 3966TIP3   OH211838   4.710   7.216   1.388
 3966TIP3    H111839   4.741   7.299   1.352
 3966TIP3    H211840   4.662   7.240   1.467
 3967TIP3   OH211841   2.931   7.354   4.147
 3967TIP3    H111842   2.932   7.403   4.065
 3967TIP3    H211843   2.882   7.410   4.207
 3968TIP3   OH211844   2.797   7.453   6.718
 3968TIP3    H111845   2.729   7.488   6.661
 3968TIP3    H211846   2.837   7.382   6.667
 3969TIP3   OH211847   4.303   6.053   4.523
 3969TIP3    H111848   4.310   5.961   4.498
 3969TIP3    H211849   4.393   6.085   4.526
 3970TIP3   OH211850   5.833   0.586   4.205
 3970TIP3    H111851   5.839   0.634   4.123
 3970TIP3    H211852   5.918   0.600   4.247
 3971TIP3   OH211853   6.164   5.331   1.084
 3971TIP3    H111854   6.155   5.261   1.149
 3971TIP3    H211855   6.245   5.309   1.037
 3972TIP3   OH211856   6.696   7.834   5.360
 3972TIP3    H111857   6.631   7.804   5.423
 3972TIP3    H211858   6.683   7.928   5.355
 3973TIP3   OH211859   7.550   6.656   2.428
 3973TIP3    H111860   7.555   6.635   2.521
 3973TIP3    H211861   7.624   6.714   2.412
 3974TIP3   OH211862   2.077   0.705   6.650
 3974TIP3    H111863   2.169   0.713   6.676
 3974TIP3    H211864   2.059   0.786   6.603
 3975TIP3   OH211865   8.200   4.650   3.402
 3975TIP3    H111866   8.267   4.718   3.415
 3975TIP3    H211867   8.211   4.591   3.477
 3976TIP3   OH211868   1.249   4.266   4.723
 3976TIP3    H111869   1.266   4.358   4.704
 3976TIP3    H211870   1.299   4.218   4.657
 3977TIP3   OH211871   3.671   3.325   4.732
 3977TIP3    H111872   3.654   3.232   4.740
 3977TIP3    H211873   3.706   3.351   4.817
 3978TIP3   OH211874   7.749   5.211   0.517
 3978TIP3    H111875   7.685   5.218   0.588
 3978TIP3    H211876   7.723   5.279   0.454
 3979TIP3   OH211877   1.654   2.867   0.176
 3979TIP3    H111878   1.597   2.929   0.223
 3979TIP3    H211879   1.602   2.787   0.169
 3980TIP3   OH211880   5.194   4.122   2.296
 3980TIP3    H111881   5.257   4.189   2.323
 3980TIP3    H211882   5.231   4.085   2.217
 3981TIP3   OH211883   7.165   5.111   5.437
 3981TIP3    H111884   7.074   5.117   5.411
 3981TIP3    H211885   7.215   5.129   5.357
 3982TIP3   OH211886   0.645   6.442   4.137
 3982TIP3    H111887   0.649   6.419   4.230
 3982TIP3    H211888   0.726   6.406   4.100
 3983TIP3   OH211889   1.094   3.820   2.099
 3983TIP3    H111890   1.014   3.782   2.137
 3983TIP3    H211891   1.064   3.864   2.020
 3984TIP3   OH211892   8.001   3.088   0.407
 3984TIP3    H111893   7.962   3.059   0.489
 3984TIP3    H211894   8.055   3.163   0.431
 3985TIP3   OH211895   3.895   4.187   2.589
 3985TIP3    H111896   3.963   4.122   2.571
 3985TIP3    H211897   3.917   4.221   2.676
 3986TIP3   OH211898   5.792   2.665   2.309
 3986TIP3    H111899   5.791   2.601   2.380
 3986TIP3    H211900   5.803   2.749   2.352
 3987TIP3   OH211901   7.381   3.056   4.871
 3987TIP3    H111902   7.452   3.101   4.826
 3987TIP3    H211903   7.307   3.117   4.867
 3988TIP3   OH211904   0.848   2.565   3.951
 3988TIP3    H111905   0.923   2.540   3.897
 3988TIP3    H211906   0.876   2.547   4.041
 3989TIP3   OH211907   7.668   1.859   4.679
 3989TIP3    H111908   7.588   1.909   4.691
 3989TIP3    H211909   7.640   1.767   4.686
 3990TIP3   OH211910   2.452   2.375   5.077
 3990TIP3    H111911   2.367   2.417   5.088
 3990TIP3    H211912   2.514   2.447   5.070
 3991TIP3   OH211913   0.455   0.118   2.513
 3991TIP3    H111914   0.384   0.057   2.533
 3991TIP3    H211915   0.438   0.146   2.423
 3992TIP3   OH211916   7.199   5.844   6.613
 3992TIP3    H111917   7.192   5.750   6.595
 3992TIP3    H211918   7.148   5.857   6.693
 3993TIP3   OH211919   1.636   4.292   0.879
 3993TIP3    H111920   1.700   4.221   0.871
 3993TIP3    H211921   1.562   4.252   0.925
 3994TIP3   OH211922   7.476   4.339   3.947
 3994TIP3    H111923   7.568   4.315   3.933
 3994TIP3    H211924   7.445   4.278   4.013
 3995TIP3   OH211925   3.923   6.456   6.166
 3995TIP3    H111926   4.013   6.423   6.174
 3995TIP3    H211927   3.933   6.549   6.147
 3996TIP3   OH211928   1.943   2.951   6.639
 3996TIP3    H111929   2.019   3.004   6.665
 3996TIP3    H211930   1.868   3.008   6.655
 3997TIP3   OH211931   2.699   4.385   0.404
 3997TIP3    H111932   2.750   4.306   0.386
 3997TIP3    H211933   2.763   4.456   0.399
 3998TIP3   OH211934   5.679   0.373   3.698
 3998TIP3    H111935   5.758   0.346   3.652
 3998TIP3    H211936   5.626   0.417   3.632
 3999TIP3   OH211937   6.476   2.748   6.722
 3999TIP3    H111938   6.409   2.761   6.789
 3999TIP3    H211939   6.552   2.716   6.770
 4000TIP3   OH211940   0.332   6.062   3.050
 4000TIP3    H111941   0.358   6.116   2.975
 4000TIP3    H211942   0.355   6.114   3.126
 4001TIP3   OH211943   6.615   5.395   3.074
 4001TIP3    H111944   6.553   5.445   3.022
 4001TIP3    H211945   6.622   5.311   3.029
 4002TIP3   OH211946   5.780   2.858   2.697
 4002TIP3    H111947   5.729   2.790   2.652
 4002TIP3    H211948   5.773   2.934   2.640
 4003TIP3   OH211949   5.788   0.719   0.576
 4003TIP3    H111950   5.712   0.660   0.575
 4003TIP3    H211951   5.804   0.740   0.484
 4004TIP3   OH211952   1.744   1.666   1.525
 4004TIP3    H111953   1.773   1.581   1.494
 4004TIP3    H211954   1.824   1.719   1.528
 4005TIP3   OH211955   6.392   3.305   0.741
 4005TIP3    H111956   6.407   3.267   0.654
 4005TIP3    H211957   6.402   3.232   0.801
 4006TIP3   OH211958   5.265   2.454   6.388
 4006TIP3    H111959   5.309   2.404   6.456
 4006TIP3    H211960   5.288   2.410   6.306
 4007TIP3   OH211961   4.045   7.583   5.328
 4007TIP3    H111962   3.960   7.582   5.373
 4007TIP3    H211963   4.024   7.571   5.235
 4008TIP3   OH211964   0.650   4.217   3.642
 4008TIP3    H111965   0.708   4.141   3.649
 4008TIP3    H211966   0.562   4.180   3.652
 4009TIP3   OH211967   4.526   3.482   0.590
 4009TIP3    H111968   4.521   3.525   0.675
 4009TIP3    H211969   4.472   3.536   0.532
 4010TIP3   OH211970   4.203   2.708   2.235
 4010TIP3    H111971   4.176   2.717   2.326
 4010TIP3    H211972   4.198   2.614   2.217
 4011TIP3   OH211973   4.557   1.048   0.427
 4011TIP3    H111974   4.496   1.001   0.484
 4011TIP3    H211975   4.564   0.993   0.349
 4012TIP3   OH211976   7.916   5.833   5.530
 4012TIP3    H111977   8.007   5.859   5.545
 4012TIP3    H211978   7.883   5.808   5.617
 4013TIP3   OH211979   4.097   1.493   2.548
 4013TIP3    H111980   4.011   1.452   2.541
 4013TIP3    H211981   4.080   1.586   2.538
 4014TIP3   OH211982   4.223   1.119   4.752
 4014TIP3    H111983   4.283   1.142   4.682
 4014TIP3    H211984   4.275   1.064   4.811
 4015TIP3   OH211985   3.621   4.356   2.202
 4015TIP3    H111986   3.593   4.446   2.220
 4015TIP3    H211987   3.610   4.311   2.286
 4016TIP3   OH211988   4.464   3.215   0.949
 4016TIP3    H111989   4.413   3.141   0.983
 4016TIP3    H211990   4.555   3.191   0.968
 4017TIP3   OH211991   1.624   5.521   6.136
 4017TIP3    H111992   1.598   5.435   6.103
 4017TIP3    H211993   1.698   5.503   6.194
 4018TIP3   OH211994   1.588   3.075   5.383
 4018TIP3    H111995   1.522   3.045   5.446
 4018TIP3    H211996   1.641   2.997   5.365
 4019TIP3   OH211997   4.274   0.875   1.557
 4019TIP3    H111998   4.305   0.864   1.647
 4019TIP3    H211999   4.300   0.794   1.513
 4020TIP3   OH212000   1.152   1.465   4.488
 4020TIP3    H112001   1.134   1.497   4.400
 4020TIP3    H212002   1.175   1.373   4.476
 4021TIP3   OH212003   7.456   2.673   2.922
 4021TIP3    H112004   7.455   2.627   2.838
 4021TIP3    H212005   7.368   2.711   2.929
 4022TIP3   OH212006   2.429   0.965   5.772
 4022TIP3    H112007   2.443   1.039   5.831
 4022TIP3    H212008   2.404   1.005   5.689
 4023TIP3   OH212009   4.421   1.347   3.752
 4023TIP3    H112010   4.363   1.419   3.779
 4023TIP3    H212011   4.411   1.343   3.657
 4024TIP3   OH212012   5.698   2.169   3.051
 4024TIP3    H112013   5.647   2.146   2.973
 4024TIP3    H212014   5.671   2.259   3.072
 4025TIP3   OH212015   7.541   2.718   3.176
 4025TIP3    H112016   7.462   2.728   3.229
 4025TIP3    H212017   7.510   2.683   3.093
 4026TIP3   OH212018   4.258   3.053   2.879
 4026TIP3    H112019   4.320   3.009   2.820
 4026TIP3    H212020   4.291   3.034   2.967
 4027TIP3   OH212021   2.871   7.308   3.686
 4027TIP3    H112022   2.962   7.314   3.657
 4027TIP3    H212023   2.873   7.338   3.777
 4028TIP3   OH212024   3.319   2.296   2.151
 4028TIP3    H112025   3.273   2.285   2.234
 4028TIP3    H212026   3.321   2.391   2.137
 4029TIP3   OH212027   4.652   5.031   5.775
 4029TIP3    H112028   4.703   5.105   5.743
 4029TIP3    H212029   4.686   5.015   5.863
 4030TIP3   OH212030   8.264   0.805   2.715
 4030TIP3    H112031   8.357   0.817   2.695
 4030TIP3    H212032   8.245   0.716   2.687
 4031TIP3   OH212033   2.736   0.508   2.684
 4031TIP3    H112034   2.720   0.492   2.591
 4031TIP3    H212035   2.827   0.482   2.697
 4032TIP3   OH212036   7.478   4.628   4.696
 4032TIP3    H112037   7.427   4.708   4.706
 4032TIP3    H212038   7.442   4.568   4.762
 4033TIP3   OH212039   7.149   5.197   6.433
 4033TIP3    H112040   7.084   5.230   6.494
 4033TIP3    H212041   7.163   5.269   6.371
 4034TIP3   OH212042   0.099   0.201   5.239
 4034TIP3    H112043   0.160   0.237   5.175
 4034TIP3    H212044   0.128   0.236   5.323
 4035TIP3   OH212045   1.913   5.852   2.082
 4035TIP3    H112046   1.997   5.855   2.037
 4035TIP3    H212047   1.889   5.944   2.095
 4036TIP3   OH212048   4.255   3.216   6.291
 4036TIP3    H112049   4.281   3.277   6.359
 4036TIP3    H212050   4.197   3.154   6.335
 4037TIP3   OH212051   6.565   2.352   0.050
 4037TIP3    H112052   6.513   2.301  -0.012
 4037TIP3    H212053   6.591   2.290   0.117
 4038TIP3   OH212054   3.467   0.613   1.936
 4038TIP3    H112055   3.408   0.580   1.868
 4038TIP3    H212056   3.416   0.608   2.017
 4039TIP3   OH212057   2.174   1.757   3.055
 4039TIP3    H112058   2.145   1.746   2.964
 4039TIP3    H212059   2.218   1.842   3.056
 4040TIP3   OH212060   1.118   3.904   1.244
 4040TIP3    H112061   1.026   3.923   1.256
 4040TIP3    H212062   1.155   3.907   1.332
 4041TIP3   OH212063   1.663   7.362   1.840
 4041TIP3    H112064   1.691   7.391   1.926
 4041TIP3    H212065   1.736   7.385   1.782
 4042TIP3   OH212066   5.700   6.083   1.710
 4042TIP3    H112067   5.726   6.147   1.777
 4042TIP3    H212068   5.776   6.076   1.653
 4043TIP3   OH212069   7.243   2.125   1.653
 4043TIP3    H112070   7.199   2.177   1.720
 4043TIP3    H212071   7.335   2.125   1.679
 4044TIP3   OH212072   3.733   4.327   4.311
 4044TIP3    H112073   3.707   4.276   4.388
 4044TIP3    H212074   3.749   4.415   4.345
 4045TIP3   OH212075   1.678   7.013   1.132
 4045TIP3    H112076   1.670   6.928   1.174
 4045TIP3    H212077   1.687   6.992   1.039
 4046TIP3   OH212078   4.825   3.657   0.090
 4046TIP3    H112079   4.797   3.565   0.087
 4046TIP3    H212080   4.916   3.653   0.122
 4047TIP3   OH212081   1.999   3.797   6.285
 4047TIP3    H112082   2.078   3.773   6.235
 4047TIP3    H212083   2.033   3.828   6.369
 4048TIP3   OH212084   1.010   4.801   3.232
 4048TIP3    H112085   1.076   4.817   3.300
 4048TIP3    H212086   1.061   4.775   3.155
 4049TIP3   OH212087   2.155   0.527   4.240
 4049TIP3    H112088   2.068   0.565   4.232
 4049TIP3    H212089   2.212   0.599   4.266
 4050TIP3   OH212090   1.742   2.835   5.341
 4050TIP3    H112091   1.691   2.754   5.337
 4050TIP3    H212092   1.801   2.824   5.415
 4051TIP3   OH212093   2.800   1.749   1.567
 4051TIP3    H112094   2.726   1.689   1.552
 4051TIP3    H212095   2.759   1.835   1.574
 4052TIP3   OH212096   7.107   6.537   0.598
 4052TIP3    H112097   7.037   6.543   0.532
 4052TIP3    H212098   7.084   6.458   0.648
 4053TIP3   OH212099   6.520   6.526   4.937
 4053TIP3    H112100   6.435   6.486   4.918
 4053TIP3    H212101   6.562   6.464   4.997
 4054TIP3   OH212102   4.832   5.014   0.311
 4054TIP3    H112103   4.827   5.094   0.258
 4054TIP3    H212104   4.770   5.029   0.383
 4055TIP3   OH212105   1.069   7.556   2.516
 4055TIP3    H112106   1.040   7.635   2.561
 4055TIP3    H212107   1.165   7.562   2.516
 4056TIP3   OH212108   0.872   1.565   5.652
 4056TIP3    H112109   0.796   1.507   5.655
 4056TIP3    H212110   0.945   1.510   5.680
 4057TIP3   OH212111   0.673   3.109   3.370
 4057TIP3    H112112   0.693   3.173   3.301
 4057TIP3    H212113   0.584   3.130   3.398
 4058TIP3   OH212114   8.272   2.141   3.696
 4058TIP3    H112115   8.325   2.165   3.620
 4058TIP3    H212116   8.184   2.128   3.660
 4059TIP3   OH212117   2.364   6.216   4.827
 4059TIP3    H112118   2.417   6.276   4.775
 4059TIP3    H212119   2.427   6.157   4.868
 4060TIP3   OH212120   1.009   5.348   6.143
 4060TIP3    H112121   0.964   5.268   6.167
 4060TIP3    H212122   1.091   5.319   6.103
 4061TIP3   OH212123   0.950   3.206   1.728
 4061TIP3    H112124   0.925   3.298   1.738
 4061TIP3    H212125   0.926   3.165   1.811
 4062TIP3   OH212126   1.300   3.166   5.180
 4062TIP3    H112127   1.376   3.108   5.173
 4062TIP3    H212128   1.247   3.128   5.250
 4063TIP3   OH212129   7.069   2.795   1.119
 4063TIP3    H112130   7.070   2.700   1.125
 4063TIP3    H212131   6.978   2.820   1.133
 4064TIP3   OH212132   4.488   2.966   1.902
 4064TIP3    H112133   4.448   3.031   1.844
 4064TIP3    H212134   4.544   3.017   1.960
 4065TIP3   OH212135   4.873   1.477   5.208
 4065TIP3    H112136   4.837   1.481   5.120
 4065TIP3    H212137   4.801   1.446   5.262
 4066TIP3   OH212138   0.979   2.431   2.197
 4066TIP3    H112139   1.057   2.383   2.171
 4066TIP3    H212140   1.008   2.490   2.266
 4067TIP3   OH212141   6.395   3.475   5.691
 4067TIP3    H112142   6.347   3.413   5.747
 4067TIP3    H212143   6.327   3.516   5.637
 4068TIP3   OH212144   8.263   7.561   1.657
 4068TIP3    H112145   8.281   7.551   1.751
 4068TIP3    H212146   8.247   7.473   1.626
 4069TIP3   OH212147   0.345   2.008   0.469
 4069TIP3    H112148   0.406   1.947   0.426
 4069TIP3    H212149   0.333   1.972   0.557
 4070TIP3   OH212150   4.198   5.107   0.339
 4070TIP3    H112151   4.174   5.144   0.424
 4070TIP3    H212152   4.220   5.016   0.359
 4071TIP3   OH212153   8.227   1.713   5.603
 4071TIP3    H112154   8.167   1.721   5.677
 4071TIP3    H212155   8.308   1.753   5.634
 4072TIP3   OH212156   4.566   1.037   5.810
 4072TIP3    H112157   4.610   1.095   5.748
 4072TIP3    H212158   4.532   1.095   5.878
 4073TIP3   OH212159   2.346   2.102   1.799
 4073TIP3    H112160   2.356   2.083   1.893
 4073TIP3    H212161   2.289   2.032   1.767
 4074TIP3   OH212162   7.428   0.256   2.059
 4074TIP3    H112163   7.334   0.271   2.067
 4074TIP3    H212164   7.463   0.338   2.024
 4075TIP3   OH212165   1.452   3.548   6.356
 4075TIP3    H112166   1.444   3.455   6.380
 4075TIP3    H212167   1.405   3.595   6.424
 4076TIP3   OH212168   4.990   4.091   2.681
 4076TIP3    H112169   5.017   4.138   2.602
 4076TIP3    H212170   5.067   4.041   2.706
 4077TIP3   OH212171   1.007   2.369   4.982
 4077TIP3    H112172   1.086   2.371   5.036
 4077TIP3    H212173   1.008   2.283   4.942
 4078TIP3   OH212174   1.395   4.384   4.393
 4078TIP3    H112175   1.341   4.347   4.323
 4078TIP3    H212176   1.444   4.309   4.427
 4079TIP3   OH212177   7.149   2.887   0.893
 4079TIP3    H112178   7.244   2.893   0.896
 4079TIP3    H212179   7.123   2.868   0.983
 4080TIP3   OH212180   6.887   0.478   6.109
 4080TIP3    H112181   6.950   0.409   6.091
 4080TIP3    H212182   6.921   0.555   6.065
 4081TIP3   OH212183   3.691   0.427   4.138
 4081TIP3    H112184   3.693   0.516   4.172
 4081TIP3    H212185   3.770   0.421   4.084
 4082TIP3   OH212186   2.007   7.710   1.165
 4082TIP3    H112187   1.980   7.704   1.257
 4082TIP3    H212188   1.929   7.744   1.120
 4083TIP3   OH212189   7.705   7.534   4.281
 4083TIP3    H112190   7.636   7.584   4.324
 4083TIP3    H212191   7.738   7.476   4.350
 4084TIP3   OH212192   7.894   7.542   2.801
 4084TIP3    H112193   7.892   7.578   2.712
 4084TIP3    H212194   7.859   7.454   2.791
 4085TIP3   OH212195   6.632   2.284   0.530
 4085TIP3    H112196   6.719   2.320   0.509
 4085TIP3    H212197   6.650   2.202   0.576
 4086TIP3   OH212198   4.151   6.673   2.831
 4086TIP3    H112199   4.118   6.757   2.800
 4086TIP3    H212200   4.169   6.623   2.750
 4087TIP3   OH212201   4.632   2.902   6.028
 4087TIP3    H112202   4.624   2.822   6.080
 4087TIP3    H212203   4.685   2.960   6.083
 4088TIP3   OH212204   2.871   4.869   2.328
 4088TIP3    H112205   2.946   4.823   2.292
 4088TIP3    H212206   2.795   4.815   2.305
 4089TIP3   OH212207   6.715   6.171   0.408
 4089TIP3    H112208   6.664   6.120   0.471
 4089TIP3    H212209   6.651   6.226   0.363
 4090TIP3   OH212210   6.508   3.032   6.883
 4090TIP3    H112211   6.508   3.046   6.789
 4090TIP3    H212212   6.429   2.981   6.901
 4091TIP3   OH212213   0.693   5.538   5.263
 4091TIP3    H112214   0.748   5.467   5.296
 4091TIP3    H212215   0.753   5.595   5.215
 4092TIP3   OH212216   3.446   0.772   1.547
 4092TIP3    H112217   3.417   0.693   1.501
 4092TIP3    H212218   3.386   0.780   1.622
 4093TIP3   OH212219   1.702   6.762   0.365
 4093TIP3    H112220   1.787   6.718   0.361
 4093TIP3    H212221   1.675   6.751   0.457
 4094TIP3   OH212222   3.585   3.592   4.539
 4094TIP3    H112223   3.603   3.672   4.489
 4094TIP3    H212224   3.641   3.599   4.616
 4095TIP3   OH212225   2.949   4.791   4.645
 4095TIP3    H112226   2.957   4.754   4.733
 4095TIP3    H212227   3.039   4.796   4.613
 4096TIP3   OH212228   4.711   0.750   6.752
 4096TIP3    H112229   4.711   0.844   6.736
 4096TIP3    H212230   4.681   0.712   6.669
 4097TIP3   OH212231   4.583   5.944   5.825
 4097TIP3    H112232   4.634   6.003   5.770
 4097TIP3    H212233   4.641   5.870   5.841
 4098TIP3   OH212234   8.290   6.519   6.578
 4098TIP3    H112235   8.359   6.506   6.643
 4098TIP3    H212236   8.233   6.585   6.616
 4099TIP3   OH212237   4.729   7.109   5.064
 4099TIP3    H112238   4.669   7.169   5.021
 4099TIP3    H212239   4.796   7.165   5.104
 4100TIP3   OH212240   4.086   4.144   4.770
 4100TIP3    H112241   4.181   4.146   4.781
 4100TIP3    H212242   4.051   4.153   4.858
 4101TIP3   OH212243   3.033   2.341   0.596
 4101TIP3    H112244   3.097   2.386   0.651
 4101TIP3    H212245   2.983   2.410   0.554
 4102TIP3   OH212246   0.983   4.843   6.241
 4102TIP3    H112247   1.017   4.830   6.329
 4102TIP3    H212248   0.970   4.938   6.234
 4103TIP3   OH212249   4.265   7.508   3.716
 4103TIP3    H112250   4.170   7.509   3.708
 4103TIP3    H212251   4.284   7.432   3.771
 4104TIP3   OH212252   7.429   1.834   1.090
 4104TIP3    H112253   7.383   1.798   1.014
 4104TIP3    H212254   7.459   1.757   1.139
 4105TIP3   OH212255   1.118   5.925   0.367
 4105TIP3    H112256   1.199   5.950   0.323
 4105TIP3    H212257   1.122   5.829   0.370
 4106TIP3   OH212258   0.050   7.213   6.646
 4106TIP3    H112259  -0.008   7.290   6.645
 4106TIP3    H212260   0.129   7.241   6.601
 4107TIP3   OH212261   0.091   1.263   4.899
 4107TIP3    H112262   0.182   1.279   4.874
 4107TIP3    H212263   0.045   1.344   4.878
 4108TIP3   OH212264   7.949   1.979   4.601
 4108TIP3    H112265   7.974   1.888   4.582
 4108TIP3    H212266   7.891   1.972   4.676
 4109TIP3   OH212267   3.254   4.520   1.306
 4109TIP3    H112268   3.187   4.497   1.242
 4109TIP3    H212269   3.213   4.504   1.391
 4110TIP3   OH212270   4.291   3.633   3.064
 4110TIP3    H112271   4.342   3.574   3.009
 4110TIP3    H212272   4.349   3.707   3.081
 4111TIP3   OH212273   5.024   4.778   5.432
 4111TIP3    H112274   4.998   4.828   5.354
 4111TIP3    H212275   4.983   4.693   5.421
 4112TIP3   OH212276   5.272   2.006   4.828
 4112TIP3    H112277   5.220   2.064   4.884
 4112TIP3    H212278   5.351   1.988   4.879
 4113TIP3   OH212279   4.921   6.364   3.741
 4113TIP3    H112280   4.980   6.346   3.668
 4113TIP3    H212281   4.972   6.418   3.801
 4114TIP3   OH212282   3.788   3.249   3.642
 4114TIP3    H112283   3.788   3.269   3.548
 4114TIP3    H212284   3.818   3.330   3.684
 4115TIP3   OH212285   3.302   0.382   1.126
 4115TIP3    H112286   3.264   0.313   1.072
 4115TIP3    H212287   3.392   0.391   1.094
 4116TIP3   OH212288   4.259   5.941   2.718
 4116TIP3    H112289   4.173   5.979   2.702
 4116TIP3    H212290   4.253   5.905   2.806
 4117TIP3   OH212291   3.605   7.811   6.603
 4117TIP3    H112292   3.607   7.759   6.684
 4117TIP3    H212293   3.560   7.891   6.628
 4118TIP3   OH212294   0.307   6.288   5.638
 4118TIP3    H112295   0.308   6.357   5.704
 4118TIP3    H212296   0.361   6.321   5.567
 4119TIP3   OH212297   8.195   2.064   2.345
 4119TIP3    H112298   8.120   2.005   2.332
 4119TIP3    H212299   8.191   2.086   2.438
 4120TIP3   OH212300   7.895   2.018   6.513
 4120TIP3    H112301   7.985   1.984   6.514
 4120TIP3    H212302   7.896   2.086   6.445
 4121TIP3   OH212303   1.548   6.417   6.550
 4121TIP3    H112304   1.544   6.337   6.497
 4121TIP3    H212305   1.456   6.440   6.565
 4122TIP3   OH212306   5.030   0.922   2.566
 4122TIP3    H112307   4.982   0.914   2.648
 4122TIP3    H212308   5.087   0.998   2.579
 4123TIP3   OH212309   2.261   1.489   5.041
 4123TIP3    H112310   2.245   1.458   5.130
 4123TIP3    H212311   2.177   1.523   5.012
 4124TIP3   OH212312   1.989   1.155   3.783
 4124TIP3    H112313   2.020   1.170   3.694
 4124TIP3    H212314   1.951   1.239   3.809
 4125TIP3   OH212315   2.020   0.701   1.584
 4125TIP3    H112316   2.055   0.727   1.669
 4125TIP3    H212317   1.933   0.665   1.603
 4126TIP3   OH212318   0.418   1.826   1.027
 4126TIP3    H112319   0.463   1.861   1.104
 4126TIP3    H212320   0.425   1.731   1.037
 4127TIP3   OH212321   0.178   1.940   6.172
 4127TIP3    H112322   0.228   1.893   6.238
 4127TIP3    H212323   0.243   1.971   6.109
 4128TIP3   OH212324   3.509   6.446   3.082
 4128TIP3    H112325   3.463   6.525   3.108
 4128TIP3    H212326   3.440   6.381   3.068
 4129TIP3   OH212327   5.033   5.792   0.477
 4129TIP3    H112328   5.109   5.821   0.427
 4129TIP3    H212329   4.957   5.817   0.424
 4130TIP3   OH212330   8.135   4.618   5.373
 4130TIP3    H112331   8.117   4.672   5.296
 4130TIP3    H212332   8.098   4.667   5.446
 4131TIP3   OH212333   1.460   6.587   1.187
 4131TIP3    H112334   1.502   6.577   1.101
 4131TIP3    H212335   1.386   6.527   1.185
 4132TIP3   OH212336   0.143   2.490   6.610
 4132TIP3    H112337   0.235   2.463   6.612
 4132TIP3    H212338   0.111   2.473   6.698
 4133TIP3   OH212339   0.335   3.456   5.717
 4133TIP3    H112340   0.346   3.376   5.770
 4133TIP3    H212341   0.419   3.466   5.672
 4134TIP3   OH212342   0.388   3.657   3.384
 4134TIP3    H112343   0.343   3.706   3.454
 4134TIP3    H212344   0.441   3.592   3.429
 4135TIP3   OH212345   5.293   7.357   6.200
 4135TIP3    H112346   5.270   7.317   6.284
 4135TIP3    H212347   5.210   7.387   6.164
 4136TIP3   OH212348   1.939   2.553   4.302
 4136TIP3    H112349   1.891   2.480   4.263
 4136TIP3    H212350   1.873   2.621   4.316
 4137TIP3   OH212351   3.957   5.455   4.658
 4137TIP3    H112352   3.882   5.399   4.677
 4137TIP3    H212353   3.949   5.474   4.564
 4138TIP3   OH212354   8.007   5.020   1.738
 4138TIP3    H112355   8.044   4.933   1.756
 4138TIP3    H212356   7.918   5.016   1.771
 4139TIP3   OH212357   6.540   3.232   4.803
 4139TIP3    H112358   6.447   3.245   4.819
 4139TIP3    H212359   6.557   3.279   4.721
 4140TIP3   OH212360   2.565   7.789   5.281
 4140TIP3    H112361   2.657   7.787   5.257
 4140TIP3    H212362   2.533   7.872   5.244
 4141TIP3   OH212363   7.051   7.200   0.961
 4141TIP3    H112364   7.136   7.167   0.991
 4141TIP3    H212365   6.999   7.121   0.945
 4142TIP3   OH212366   6.170   2.816   6.261
 4142TIP3    H112367   6.116   2.850   6.189
 4142TIP3    H212368   6.160   2.721   6.256
 4143TIP3   OH212369   2.794   6.915   0.657
 4143TIP3    H112370   2.832   6.832   0.629
 4143TIP3    H212371   2.718   6.927   0.601
 4144TIP3   OH212372   4.851   3.905   1.404
 4144TIP3    H112373   4.886   3.905   1.315
 4144TIP3    H212374   4.877   3.820   1.440
 4145TIP3   OH212375   1.961   5.511   2.911
 4145TIP3    H112376   1.993   5.545   2.828
 4145TIP3    H212377   1.978   5.581   2.974
 4146TIP3   OH212378   8.247   0.699   5.193
 4146TIP3    H112379   8.303   0.738   5.126
 4146TIP3    H212380   8.255   0.605   5.179
 4147TIP3   OH212381   0.561   2.182   3.783
 4147TIP3    H112382   0.508   2.249   3.739
 4147TIP3    H212383   0.498   2.130   3.832
 4148TIP3   OH212384   5.539   5.954   3.869
 4148TIP3    H112385   5.502   5.926   3.952
 4148TIP3    H212386   5.495   6.037   3.850
 4149TIP3   OH212387   3.622   3.374   1.699
 4149TIP3    H112388   3.544   3.384   1.753
 4149TIP3    H212389   3.675   3.309   1.744
 4150TIP3   OH212390   8.149   0.269   0.105
 4150TIP3    H112391   8.177   0.269   0.197
 4150TIP3    H212392   8.228   0.288   0.055
 4151TIP3   OH212393   0.408   7.190   5.009
 4151TIP3    H112394   0.452   7.125   5.064
 4151TIP3    H212395   0.342   7.141   4.961
 4152TIP3   OH212396   0.547   2.900   3.930
 4152TIP3    H112397   0.632   2.904   3.975
 4152TIP3    H212398   0.568   2.865   3.843
 4153TIP3   OH212399   5.202   5.822   6.749
 4153TIP3    H112400   5.284   5.775   6.733
 4153TIP3    H212401   5.172   5.791   6.834
 4154TIP3   OH212402   2.988   4.836   4.348
 4154TIP3    H112403   3.028   4.878   4.424
 4154TIP3    H212404   2.894   4.836   4.366
 4155TIP3   OH212405   1.813   3.875   5.850
 4155TIP3    H112406   1.791   3.884   5.942
 4155TIP3    H212407   1.867   3.952   5.830
 4156TIP3   OH212408   5.654   1.784   1.826
 4156TIP3    H112409   5.660   1.722   1.899
 4156TIP3    H212410   5.569   1.826   1.837
 4157TIP3   OH212411   0.522   5.771   4.803
 4157TIP3    H112412   0.610   5.801   4.825
 4157TIP3    H212413   0.497   5.824   4.728
 4158TIP3   OH212414   1.360   6.771   5.421
 4158TIP3    H112415   1.420   6.700   5.398
 4158TIP3    H212416   1.279   6.750   5.374
 4159TIP3   OH212417   2.365   6.953   2.548
 4159TIP3    H112418   2.370   6.890   2.476
 4159TIP3    H212419   2.370   7.039   2.505
 4160TIP3   OH212420   1.390   7.627   2.196
 4160TIP3    H112421   1.378   7.551   2.253
 4160TIP3    H212422   1.474   7.665   2.224
 4161TIP3   OH212423   2.603   6.432   5.083
 4161TIP3    H112424   2.516   6.458   5.054
 4161TIP3    H212425   2.662   6.462   5.014
 4162TIP3   OH212426   6.914   1.437   1.243
 4162TIP3    H112427   6.914   1.345   1.271
 4162TIP3    H212428   7.007   1.461   1.241
 4163TIP3   OH212429   2.066   7.737   2.693
 4163TIP3    H112430   2.142   7.681   2.678
 4163TIP3    H212431   2.104   7.820   2.722
 4164TIP3   OH212432   0.578   0.914   1.059
 4164TIP3    H112433   0.524   0.895   1.136
 4164TIP3    H212434   0.605   0.828   1.027
 4165TIP3   OH212435   4.639   2.466   6.709
 4165TIP3    H112436   4.693   2.498   6.637
 4165TIP3    H212437   4.701   2.428   6.770
 4166TIP3   OH212438   1.750   6.168   6.526
 4166TIP3    H112439   1.823   6.174   6.465
 4166TIP3    H212440   1.672   6.170   6.470
 4167TIP3   OH212441   4.391   5.859   4.919
 4167TIP3    H112442   4.377   5.898   5.006
 4167TIP3    H212443   4.304   5.855   4.880
 4168TIP3   OH212444   4.769   0.032   6.776
 4168TIP3    H112445   4.690   0.022   6.828
 4168TIP3    H212446   4.822   0.095   6.824
 4169TIP3   OH212447   1.853   3.704   0.409
 4169TIP3    H112448   1.773   3.737   0.451
 4169TIP3    H212449   1.836   3.714   0.315
 4170TIP3   OH212450   2.900   3.796   4.163
 4170TIP3    H112451   2.850   3.725   4.203
 4170TIP3    H212452   2.958   3.827   4.233
 4171TIP3   OH212453   0.124   5.770   2.967
 4171TIP3    H112454   0.105   5.858   3.001
 4171TIP3    H212455   0.188   5.784   2.897
 4172TIP3   OH212456   3.154   6.015   4.572
 4172TIP3    H112457   3.159   5.999   4.478
 4172TIP3    H212458   3.141   6.110   4.579
 4173TIP3   OH212459   8.053   1.855   5.134
 4173TIP3    H112460   8.035   1.773   5.088
 4173TIP3    H212461   8.116   1.832   5.201
 4174TIP3   OH212462   2.027   5.180   2.690
 4174TIP3    H112463   1.966   5.230   2.744
 4174TIP3    H212464   2.112   5.222   2.704
 4175TIP3   OH212465   2.371   0.550   6.482
 4175TIP3    H112466   2.460   0.544   6.446
 4175TIP3    H212467   2.343   0.459   6.491
 4176TIP3   OH212468   7.948   6.500   6.826
 4176TIP3    H112469   8.003   6.440   6.876
 4176TIP3    H212470   7.872   6.447   6.800
 4177TIP3   OH212471   6.436   7.114   2.002
 4177TIP3    H112472   6.412   7.083   1.915
 4177TIP3    H212473   6.487   7.194   1.985
 4178TIP3   OH212474   3.989   1.151   1.321
 4178TIP3    H112475   3.925   1.220   1.344
 4178TIP3    H212476   4.016   1.116   1.406
 4179TIP3   OH212477   0.637   6.725   2.483
 4179TIP3    H112478   0.725   6.726   2.521
 4179TIP3    H212479   0.650   6.750   2.391
 4180TIP3   OH212480   0.402   0.835   2.229
 4180TIP3    H112481   0.394   0.791   2.145
 4180TIP3    H212482   0.478   0.795   2.271
 4181TIP3   OH212483   7.041   6.552   1.366
 4181TIP3    H112484   6.958   6.537   1.412
 4181TIP3    H212485   7.023   6.527   1.275
 4182TIP3   OH212486   7.552   5.065   4.729
 4182TIP3    H112487   7.593   4.989   4.689
 4182TIP3    H212488   7.595   5.140   4.688
 4183TIP3   OH212489   3.135   7.455   5.580
 4183TIP3    H112490   3.124   7.515   5.506
 4183TIP3    H212491   3.052   7.409   5.587
 4184TIP3   OH212492   0.229   3.218   5.374
 4184TIP3    H112493   0.235   3.186   5.464
 4184TIP3    H212494   0.146   3.266   5.371
 4185TIP3   OH212495   6.821   3.564   0.369
 4185TIP3    H112496   6.841   3.518   0.288
 4185TIP3    H212497   6.886   3.530   0.432
 4186TIP3   OH212498   0.644   0.556   1.265
 4186TIP3    H112499   0.685   0.548   1.178
 4186TIP3    H212500   0.704   0.612   1.314
 4187TIP3   OH212501   5.016   0.308   6.117
 4187TIP3    H112502   5.065   0.227   6.128
 4187TIP3    H212503   4.932   0.281   6.080
 4188TIP3   OH212504   1.807   3.396   0.489
 4188TIP3    H112505   1.754   3.476   0.492
 4188TIP3    H212506   1.825   3.382   0.396
 4189TIP3   OH212507   1.573   4.278   5.670
 4189TIP3    H112508   1.609   4.367   5.673
 4189TIP3    H212509   1.586   4.244   5.758
 4190TIP3   OH212510   6.353   3.755   3.220
 4190TIP3    H112511   6.330   3.715   3.135
 4190TIP3    H212512   6.312   3.841   3.218
 4191TIP3   OH212513   6.456   2.611   6.476
 4191TIP3    H112514   6.542   2.598   6.517
 4191TIP3    H212515   6.429   2.699   6.505
 4192TIP3   OH212516   1.137   2.957   0.131
 4192TIP3    H112517   1.058   2.981   0.082
 4192TIP3    H212518   1.199   2.927   0.064
 4193TIP3   OH212519   8.062   5.338   3.193
 4193TIP3    H112520   8.155   5.356   3.184
 4193TIP3    H212521   8.045   5.349   3.287
 4194TIP3   OH212522   6.641   5.953   5.575
 4194TIP3    H112523   6.686   6.035   5.553
 4194TIP3    H212524   6.582   5.938   5.502
 4195TIP3   OH212525   6.952   6.422   5.349
 4195TIP3    H112526   6.999   6.505   5.361
 4195TIP3    H212527   7.021   6.356   5.345
 4196TIP3   OH212528   2.386   2.956   2.048
 4196TIP3    H112529   2.342   2.877   2.079
 4196TIP3    H212530   2.317   3.022   2.044
 4197TIP3   OH212531   1.219   5.203   1.848
 4197TIP3    H112532   1.282   5.190   1.776
 4197TIP3    H212533   1.219   5.119   1.894
 4198TIP3   OH212534   5.021   2.991   0.653
 4198TIP3    H112535   5.031   2.930   0.726
 4198TIP3    H212536   4.930   2.982   0.626
 4199TIP3   OH212537   1.365   0.651   0.283
 4199TIP3    H112538   1.349   0.642   0.188
 4199TIP3    H212539   1.460   0.658   0.290
 4200TIP3   OH212540   2.995   7.244   0.857
 4200TIP3    H112541   2.913   7.228   0.903
 4200TIP3    H212542   2.975   7.227   0.765
 4201TIP3   OH212543   0.427   2.333   1.783
 4201TIP3    H112544   0.488   2.319   1.710
 4201TIP3    H212545   0.417   2.247   1.823
 4202TIP3   OH212546   1.211   5.182   1.543
 4202TIP3    H112547   1.271   5.242   1.497
 4202TIP3    H212548   1.129   5.232   1.549
 4203TIP3   OH212549   3.617   4.761   4.011
 4203TIP3    H112550   3.568   4.687   3.975
 4203TIP3    H212551   3.695   4.722   4.051
 4204TIP3   OH212552   1.132   2.291   1.404
 4204TIP3    H112553   1.045   2.316   1.373
 4204TIP3    H212554   1.190   2.359   1.371
 4205TIP3   OH212555   2.570   7.831   1.179
 4205TIP3    H112556   2.600   7.874   1.259
 4205TIP3    H212557   2.487   7.789   1.204
 4206TIP3   OH212558   2.632   5.176   4.548
 4206TIP3    H112559   2.601   5.091   4.516
 4206TIP3    H212560   2.552   5.230   4.553
 4207TIP3   OH212561   5.203   5.798   2.154
 4207TIP3    H112562   5.295   5.819   2.169
 4207TIP3    H212563   5.191   5.712   2.194
 4208TIP3   OH212564   2.143   5.109   4.139
 4208TIP3    H112565   2.130   5.200   4.114
 4208TIP3    H212566   2.179   5.113   4.227
 4209TIP3   OH212567   5.350   2.526   6.827
 4209TIP3    H112568   5.313   2.453   6.778
 4209TIP3    H212569   5.439   2.498   6.848
 4210TIP3   OH212570   6.377   5.974   5.802
 4210TIP3    H112571   6.422   5.972   5.887
 4210TIP3    H212572   6.429   6.034   5.748
 4211TIP3   OH212573   5.182   7.282   5.393
 4211TIP3    H112574   5.157   7.211   5.333
 4211TIP3    H212575   5.278   7.287   5.384
 4212TIP3   OH212576   5.627   1.860   0.887
 4212TIP3    H112577   5.549   1.831   0.839
 4212TIP3    H212578   5.593   1.920   0.954
 4213TIP3   OH212579   2.640   5.154   0.409
 4213TIP3    H112580   2.596   5.224   0.456
 4213TIP3    H212581   2.731   5.158   0.439
 4214TIP3   OH212582   0.335   2.451   5.380
 4214TIP3    H112583   0.386   2.473   5.302
 4214TIP3    H212584   0.251   2.495   5.368
 4215TIP3   OH212585   8.204   7.324   6.396
 4215TIP3    H112586   8.208   7.366   6.482
 4215TIP3    H212587   8.248   7.385   6.336
 4216TIP3   OH212588   1.337   3.099   3.217
 4216TIP3    H112589   1.392   3.151   3.275
 4216TIP3    H212590   1.399   3.063   3.153
 4217TIP3   OH212591   2.192   6.887   1.748
 4217TIP3    H112592   2.210   6.879   1.654
 4217TIP3    H212593   2.236   6.812   1.788
 4218TIP3   OH212594   6.056   3.180   2.813
 4218TIP3    H112595   6.123   3.189   2.746
 4218TIP3    H212596   6.047   3.085   2.825
 4219TIP3   OH212597   3.657   2.816   6.130
 4219TIP3    H112598   3.583   2.856   6.174
 4219TIP3    H212599   3.734   2.846   6.178
 4220TIP3   OH212600   1.576   1.534   6.282
 4220TIP3    H112601   1.519   1.463   6.252
 4220TIP3    H212602   1.664   1.506   6.257
 4221TIP3   OH212603   4.128   7.693   4.217
 4221TIP3    H112604   4.176   7.774   4.199
 4221TIP3    H212605   4.184   7.645   4.279
 4222TIP3   OH212606   6.701   2.525   6.585
 4222TIP3    H112607   6.733   2.469   6.514
 4222TIP3    H212608   6.765   2.597   6.589
 4223TIP3   OH212609   0.529   1.174   1.749
 4223TIP3    H112610   0.473   1.166   1.672
 4223TIP3    H212611   0.617   1.188   1.713
 4224TIP3   OH212612   5.639   1.026   1.523
 4224TIP3    H112613   5.567   1.023   1.460
 4224TIP3    H212614   5.660   0.935   1.541
 4225TIP3   OH212615   1.923   5.117   4.426
 4225TIP3    H112616   1.880   5.040   4.388
 4225TIP3    H212617   1.912   5.185   4.360
 4226TIP3   OH212618   5.895   5.863   2.532
 4226TIP3    H112619   5.826   5.830   2.475
 4226TIP3    H212620   5.894   5.958   2.520
 4227TIP3   OH212621   7.774   5.294  -0.048
 4227TIP3    H112622   7.705   5.347  -0.009
 4227TIP3    H212623   7.775   5.214   0.005
 4228TIP3   OH212624   2.621   2.130   0.212
 4228TIP3    H112625   2.591   2.061   0.271
 4228TIP3    H212626   2.569   2.207   0.236
 4229TIP3   OH212627   6.623   3.289   2.762
 4229TIP3    H112628   6.550   3.306   2.822
 4229TIP3    H212629   6.696   3.341   2.798
 4230TIP3   OH212630   3.014   0.627   3.404
 4230TIP3    H112631   3.072   0.670   3.340
 4230TIP3    H212632   2.926   0.644   3.371
 4231TIP3   OH212633   3.328   5.524   5.791
 4231TIP3    H112634   3.272   5.464   5.841
 4231TIP3    H212635   3.368   5.469   5.724
 4232TIP3   OH212636   3.638   0.674   0.116
 4232TIP3    H112637   3.699   0.746   0.102
 4232TIP3    H212638   3.692   0.603   0.151
 4233TIP3   OH212639   4.672   2.998   3.245
 4233TIP3    H112640   4.610   2.928   3.266
 4233TIP3    H212641   4.732   3.000   3.320
 4234TIP3   OH212642   0.121   2.049   3.911
 4234TIP3    H112643   0.062   2.062   3.836
 4234TIP3    H212644   0.117   2.131   3.960
 4235TIP3   OH212645   5.595   3.282   2.126
 4235TIP3    H112646   5.542   3.327   2.060
 4235TIP3    H212647   5.579   3.332   2.206
 4236TIP3   OH212648   2.812   6.426   1.660
 4236TIP3    H112649   2.881   6.400   1.600
 4236TIP3    H212650   2.856   6.479   1.726
 4237TIP3   OH212651   5.081   4.824   0.328
 4237TIP3    H112652   5.012   4.885   0.352
 4237TIP3    H212653   5.041   4.738   0.337
 4238TIP3   OH212654   7.480   1.723   3.686
 4238TIP3    H112655   7.519   1.644   3.650
 4238TIP3    H212656   7.497   1.791   3.620
 4239TIP3   OH212657   6.145   3.340   3.611
 4239TIP3    H112658   6.140   3.360   3.518
 4239TIP3    H212659   6.221   3.283   3.620
 4240TIP3   OH212660   3.464   5.368   5.596
 4240TIP3    H112661   3.524   5.425   5.548
 4240TIP3    H212662   3.500   5.280   5.585
 4241TIP3   OH212663   1.643   6.731   5.242
 4241TIP3    H112664   1.653   6.780   5.324
 4241TIP3    H212665   1.590   6.655   5.266
 4242TIP3   OH212666   6.942   6.755   2.693
 4242TIP3    H112667   6.951   6.779   2.601
 4242TIP3    H212668   7.004   6.812   2.739
 4243TIP3   OH212669   2.207   0.826   4.170
 4243TIP3    H112670   2.185   0.856   4.081
 4243TIP3    H212671   2.299   0.849   4.181
 4244TIP3   OH212672   7.361   1.098   0.941
 4244TIP3    H112673   7.376   1.171   1.000
 4244TIP3    H212674   7.293   1.129   0.881
 4245TIP3   OH212675   2.832   6.210   6.575
 4245TIP3    H112676   2.860   6.238   6.662
 4245TIP3    H212677   2.887   6.261   6.514
 4246TIP3   OH212678   3.701   2.986   3.741
 4246TIP3    H112679   3.711   2.996   3.836
 4246TIP3    H212680   3.737   3.067   3.705
 4247TIP3   OH212681   0.940   0.427   0.152
 4247TIP3    H112682   0.925   0.515   0.118
 4247TIP3    H212683   1.007   0.439   0.220
 4248TIP3   OH212684   6.407   3.398   1.077
 4248TIP3    H112685   6.493   3.386   1.036
 4248TIP3    H212686   6.402   3.492   1.096
 4249TIP3   OH212687   0.984   3.326   0.928
 4249TIP3    H112688   1.011   3.334   1.020
 4249TIP3    H212689   0.991   3.416   0.893
 4250TIP3   OH212690   7.280   6.719   2.330
 4250TIP3    H112691   7.332   6.678   2.400
 4250TIP3    H212692   7.339   6.722   2.255
 4251TIP3   OH212693   6.060   1.159   4.884
 4251TIP3    H112694   5.969   1.188   4.891
 4251TIP3    H212695   6.087   1.143   4.974
 4252TIP3   OH212696   6.261   7.383   6.169
 4252TIP3    H112697   6.172   7.379   6.203
 4252TIP3    H212698   6.283   7.476   6.167
 4253TIP3   OH212699   4.616   3.372   4.829
 4253TIP3    H112700   4.646   3.307   4.893
 4253TIP3    H212701   4.522   3.377   4.842
 4254TIP3   OH212702   0.743   4.629   4.088
 4254TIP3    H112703   0.687   4.700   4.058
 4254TIP3    H212704   0.760   4.577   4.010
 4255TIP3   OH212705   6.213   3.270   0.235
 4255TIP3    H112706   6.135   3.237   0.190
 4255TIP3    H212707   6.181   3.295   0.322
 4256TIP3   OH212708   3.063   5.416   6.206
 4256TIP3    H112709   3.039   5.494   6.256
 4256TIP3    H212710   2.985   5.360   6.211
 4257TIP3   OH212711   2.833   5.032   0.615
 4257TIP3    H112712   2.794   4.945   0.626
 4257TIP3    H212713   2.804   5.081   0.692
 4258TIP3   OH212714   0.990   6.570   2.660
 4258TIP3    H112715   1.016   6.491   2.611
 4258TIP3    H212716   1.058   6.580   2.726
 4259TIP3   OH212717   1.874   2.549   5.410
 4259TIP3    H112718   1.952   2.598   5.438
 4259TIP3    H212719   1.818   2.547   5.488
 4260TIP3   OH212720   2.690   3.509   0.373
 4260TIP3    H112721   2.612   3.518   0.428
 4260TIP3    H212722   2.762   3.539   0.428
 4261TIP3   OH212723   1.087   1.690   3.349
 4261TIP3    H112724   1.022   1.723   3.411
 4261TIP3    H212725   1.127   1.769   3.313
 4262TIP3   OH212726   6.781   5.306   1.109
 4262TIP3    H112727   6.694   5.340   1.091
 4262TIP3    H212728   6.822   5.298   1.023
 4263TIP3   OH212729   4.208   6.620   3.408
 4263TIP3    H112730   4.132   6.649   3.356
 4263TIP3    H212731   4.223   6.691   3.470
 4264TIP3   OH212732   3.297   2.878   1.434
 4264TIP3    H112733   3.375   2.826   1.415
 4264TIP3    H212734   3.279   2.924   1.351
 4265TIP3   OH212735   0.682   4.312   0.888
 4265TIP3    H112736   0.677   4.401   0.855
 4265TIP3    H212737   0.773   4.303   0.919
 4266TIP3   OH212738   0.864   1.906   0.653
 4266TIP3    H112739   0.789   1.965   0.652
 4266TIP3    H212740   0.827   1.821   0.677
 4267TIP3   OH212741   7.490   7.572   0.298
 4267TIP3    H112742   7.509   7.520   0.376
 4267TIP3    H212743   7.440   7.647   0.329
 4268TIP3   OH212744   6.718   2.747   0.094
 4268TIP3    H112745   6.749   2.772   0.181
 4268TIP3    H212746   6.645   2.807   0.077
 4269TIP3   OH212747   5.492   6.123   3.627
 4269TIP3    H112748   5.584   6.150   3.634
 4269TIP3    H212749   5.443   6.205   3.634
 4270TIP3   OH212750   3.144   6.467   1.308
 4270TIP3    H112751   3.074   6.402   1.320
 4270TIP3    H212752   3.193   6.463   1.390
 4271TIP3   OH212753   8.332   7.779   4.444
 4271TIP3    H112754   8.416   7.736   4.453
 4271TIP3    H212755   8.352   7.872   4.448
 4272TIP3   OH212756   2.163   2.661   5.498
 4272TIP3    H112757   2.181   2.604   5.424
 4272TIP3    H212758   2.154   2.748   5.461
 4273TIP3   OH212759   7.887   6.638   3.587
 4273TIP3    H112760   7.938   6.659   3.666
 4273TIP3    H212761   7.953   6.610   3.523
 4274TIP3   OH212762   7.914   5.787   0.654
 4274TIP3    H112763   7.855   5.862   0.640
 4274TIP3    H212764   7.930   5.787   0.748
 4275TIP3   OH212765   8.128   6.266   6.522
 4275TIP3    H112766   8.146   6.355   6.492
 4275TIP3    H212767   8.033   6.261   6.527
 4276TIP3   OH212768   2.617   3.238   6.309
 4276TIP3    H112769   2.650   3.200   6.228
 4276TIP3    H212770   2.694   3.245   6.365
 4277TIP3   OH212771   6.013   5.062   4.987
 4277TIP3    H112772   6.055   4.982   5.020
 4277TIP3    H212773   6.086   5.118   4.960
 4278TIP3   OH212774   6.142   0.961   5.613
 4278TIP3    H112775   6.092   0.937   5.691
 4278TIP3    H212776   6.233   0.963   5.643
 4279TIP3   OH212777   6.129   2.969   0.697
 4279TIP3    H112778   6.152   2.975   0.604
 4279TIP3    H212779   6.139   2.876   0.718
 4280TIP3   OH212780   8.280   4.373   1.168
 4280TIP3    H112781   8.201   4.418   1.136
 4280TIP3    H212782   8.337   4.443   1.200
 4281TIP3   OH212783   7.762   7.309   5.925
 4281TIP3    H112784   7.713   7.239   5.882
 4281TIP3    H212785   7.712   7.329   6.004
 4282TIP3   OH212786   3.384   5.427   3.613
 4282TIP3    H112787   3.423   5.503   3.657
 4282TIP3    H212788   3.301   5.414   3.659
 4283TIP3   OH212789   4.458   6.793   2.569
 4283TIP3    H112790   4.545   6.765   2.599
 4283TIP3    H212791   4.436   6.868   2.624
 4284TIP3   OH212792   5.190   6.397   6.404
 4284TIP3    H112793   5.117   6.386   6.343
 4284TIP3    H212794   5.264   6.423   6.349
 4285TIP3   OH212795   5.747   6.138   3.763
 4285TIP3    H112796   5.690   6.061   3.768
 4285TIP3    H212797   5.832   6.107   3.794
 4286TIP3   OH212798   7.555   1.359   1.648
 4286TIP3    H112799   7.607   1.421   1.699
 4286TIP3    H212800   7.586   1.372   1.558
 4287TIP3   OH212801   1.588   1.947   0.287
 4287TIP3    H112802   1.656   2.003   0.252
 4287TIP3    H212803   1.525   2.007   0.328
 4288TIP3   OH212804   1.718   1.456   1.078
 4288TIP3    H112805   1.775   1.485   1.007
 4288TIP3    H212806   1.661   1.531   1.096
 4289TIP3   OH212807   6.251   0.604   4.174
 4289TIP3    H112808   6.308   0.678   4.152
 4289TIP3    H212809   6.181   0.642   4.227
 4290TIP3   OH212810   5.344   1.301   6.607
 4290TIP3    H112811   5.309   1.363   6.671
 4290TIP3    H212812   5.437   1.323   6.601
 4291TIP3   OH212813   4.415   3.079   4.911
 4291TIP3    H112814   4.352   3.033   4.967
 4291TIP3    H212815   4.380   3.167   4.904
 4292TIP3   OH212816   0.781   3.889   6.461
 4292TIP3    H112817   0.841   3.816   6.445
 4292TIP3    H212818   0.829   3.947   6.521
 4293TIP3   OH212819   5.553   3.343   0.300
 4293TIP3    H112820   5.585   3.379   0.217
 4293TIP3    H212821   5.633   3.326   0.351
 4294TIP3   OH212822   5.518   6.295   4.624
 4294TIP3    H112823   5.485   6.216   4.667
 4294TIP3    H212824   5.443   6.354   4.621
 4295TIP3   OH212825   5.468   4.093   1.030
 4295TIP3    H112826   5.510   4.159   1.085
 4295TIP3    H212827   5.428   4.144   0.959
 4296TIP3   OH212828   1.003   4.902   4.972
 4296TIP3    H112829   1.093   4.933   4.976
 4296TIP3    H212830   1.008   4.817   4.929
 4297TIP3   OH212831   2.088   3.663   5.020
 4297TIP3    H112832   2.134   3.582   5.041
 4297TIP3    H212833   2.043   3.687   5.101
 4298TIP3   OH212834   7.077   6.559   0.048
 4298TIP3    H112835   7.037   6.529   0.130
 4298TIP3    H212836   7.021   6.522  -0.020
 4299TIP3   OH212837   1.727   6.486   4.751
 4299TIP3    H112838   1.746   6.453   4.664
 4299TIP3    H212839   1.808   6.471   4.800
 4300TIP3   OH212840   2.584   1.143   3.075
 4300TIP3    H112841   2.601   1.177   3.163
 4300TIP3    H212842   2.518   1.202   3.039
 4301TIP3   OH212843   7.473   0.813   2.695
 4301TIP3    H112844   7.419   0.892   2.704
 4301TIP3    H212845   7.562   0.842   2.716
 4302TIP3   OH212846   6.368   5.713   1.707
 4302TIP3    H112847   6.357   5.618   1.709
 4302TIP3    H212848   6.296   5.747   1.760
 4303TIP3   OH212849   8.103   1.353   0.980
 4303TIP3    H112850   8.020   1.388   1.013
 4303TIP3    H212851   8.130   1.290   1.047
 4304TIP3   OH212852   2.526   6.145   2.480
 4304TIP3    H112853   2.572   6.082   2.535
 4304TIP3    H212854   2.595   6.194   2.436
 4305TIP3   OH212855   4.410   4.520   1.888
 4305TIP3    H112856   4.393   4.520   1.793
 4305TIP3    H212857   4.462   4.442   1.903
 4306TIP3   OH212858   2.380   5.186   1.843
 4306TIP3    H112859   2.371   5.091   1.847
 4306TIP3    H212860   2.409   5.204   1.753
 4307TIP3   OH212861   4.720   2.136   0.887
 4307TIP3    H112862   4.679   2.119   0.803
 4307TIP3    H212863   4.754   2.226   0.880
 4308TIP3   OH212864   6.645   2.139   1.330
 4308TIP3    H112865   6.603   2.219   1.361
 4308TIP3    H212866   6.737   2.163   1.318
 4309TIP3   OH212867   6.209   3.825   1.462
 4309TIP3    H112868   6.157   3.751   1.432
 4309TIP3    H212869   6.181   3.898   1.407
 4310TIP3   OH212870   0.666   6.602   4.616
 4310TIP3    H112871   0.725   6.556   4.675
 4310TIP3    H212872   0.595   6.632   4.671
 4311TIP3   OH212873   5.495   5.498   1.930
 4311TIP3    H112874   5.448   5.435   1.985
 4311TIP3    H212875   5.584   5.500   1.966
 4312TIP3   OH212876   7.343   6.319   5.936
 4312TIP3    H112877   7.348   6.362   6.021
 4312TIP3    H212878   7.270   6.363   5.891
 4313TIP3   OH212879   6.716   5.795   4.404
 4313TIP3    H112880   6.634   5.750   4.385
 4313TIP3    H212881   6.738   5.768   4.494
 4314TIP3   OH212882   2.134   6.066   4.873
 4314TIP3    H112883   2.092   6.072   4.787
 4314TIP3    H212884   2.217   6.112   4.862
 4315TIP3   OH212885   4.332   4.041   1.385
 4315TIP3    H112886   4.405   3.980   1.373
 4315TIP3    H212887   4.359   4.097   1.457
 4316TIP3   OH212888   3.387   1.983   0.275
 4316TIP3    H112889   3.463   1.929   0.296
 4316TIP3    H212890   3.406   2.068   0.314
 4317TIP3   OH212891   3.366   4.750   5.056
 4317TIP3    H112892   3.362   4.655   5.069
 4317TIP3    H212893   3.274   4.776   5.044
 4318TIP3   OH212894   3.171   7.190   2.253
 4318TIP3    H112895   3.132   7.172   2.168
 4318TIP3    H212896   3.235   7.259   2.235
 4319TIP3   OH212897   3.181   6.555   1.033
 4319TIP3    H112898   3.173   6.507   1.115
 4319TIP3    H212899   3.269   6.534   1.002
 4320TIP3   OH212900   7.735   3.106   1.203
 4320TIP3    H112901   7.666   3.040   1.207
 4320TIP3    H212902   7.788   3.081   1.127
 4321TIP3   OH212903   5.868   4.966   0.044
 4321TIP3    H112904   5.817   5.040   0.078
 4321TIP3    H212905   5.942   5.008  -0.001
 4322TIP3   OH212906   2.294   1.783   5.489
 4322TIP3    H112907   2.327   1.861   5.445
 4322TIP3    H212908   2.203   1.775   5.458
 4323TIP3   OH212909   6.126   0.922   0.213
 4323TIP3    H112910   6.136   1.017   0.205
 4323TIP3    H212911   6.211   0.893   0.246
 4324TIP3   OH212912   6.110   7.079   2.359
 4324TIP3    H112913   6.142   7.136   2.288
 4324TIP3    H212914   6.178   7.085   2.426
 4325TIP3   OH212915   4.805   3.021   4.688
 4325TIP3    H112916   4.812   2.990   4.778
 4325TIP3    H212917   4.716   3.056   4.681
 4326TIP3   OH212918   4.384   4.494   4.038
 4326TIP3    H112919   4.346   4.535   4.116
 4326TIP3    H212920   4.394   4.565   3.976
 4327TIP3   OH212921   1.131   4.016   0.591
 4327TIP3    H112922   1.185   4.049   0.518
 4327TIP3    H212923   1.080   4.092   0.619
 4328TIP3   OH212924   5.214   1.818   6.095
 4328TIP3    H112925   5.223   1.726   6.073
 4328TIP3    H212926   5.229   1.864   6.012
 4329TIP3   OH212927   0.248   5.001   1.976
 4329TIP3    H112928   0.187   5.064   1.937
 4329TIP3    H212929   0.331   5.048   1.981
 4330TIP3   OH212930   4.235   5.464   2.728
 4330TIP3    H112931   4.161   5.520   2.705
 4330TIP3    H212932   4.299   5.478   2.658
 4331TIP3   OH212933   2.235   4.042   5.918
 4331TIP3    H112934   2.211   3.993   5.997
 4331TIP3    H212935   2.328   4.061   5.929
 4332TIP3   OH212936   7.033   2.882   6.787
 4332TIP3    H112937   7.056   2.825   6.860
 4332TIP3    H212938   7.107   2.875   6.727
 4333TIP3   OH212939   0.913   0.294   3.957
 4333TIP3    H112940   0.921   0.311   3.863
 4333TIP3    H212941   0.894   0.379   3.995
 4334TIP3   OH212942   3.095   3.882   4.629
 4334TIP3    H112943   3.021   3.880   4.689
 4334TIP3    H212944   3.173   3.873   4.684
 4335TIP3   OH212945   3.504   4.307   5.608
 4335TIP3    H112946   3.518   4.235   5.670
 4335TIP3    H212947   3.515   4.386   5.661
 4336TIP3   OH212948   0.261   2.675   3.887
 4336TIP3    H112949   0.288   2.592   3.926
 4336TIP3    H212950   0.167   2.680   3.905
 4337TIP3   OH212951   6.027   1.088   1.310
 4337TIP3    H112952   5.961   1.029   1.276
 4337TIP3    H212953   6.104   1.074   1.255
 4338TIP3   OH212954   0.847   3.867   1.253
 4338TIP3    H112955   0.812   3.814   1.181
 4338TIP3    H212956   0.776   3.869   1.317
 4339TIP3   OH212957   6.934   7.090   5.630
 4339TIP3    H112958   6.992   7.131   5.566
 4339TIP3    H212959   6.944   7.143   5.709
 4340TIP3   OH212960   2.186   1.332   3.373
 4340TIP3    H112961   2.184   1.258   3.312
 4340TIP3    H212962   2.215   1.406   3.320
 4341TIP3   OH212963   4.927   2.858   3.361
 4341TIP3    H112964   4.890   2.790   3.303
 4341TIP3    H212965   4.854   2.885   3.416
 4342TIP3   OH212966   2.837   2.223   4.865
 4342TIP3    H112967   2.814   2.303   4.819
 4342TIP3    H212968   2.759   2.200   4.915
 4343TIP3   OH212969   7.663   4.928   6.015
 4343TIP3    H112970   7.569   4.930   6.033
 4343TIP3    H212971   7.671   4.952   5.923
 4344TIP3   OH212972   2.866   1.884   6.403
 4344TIP3    H112973   2.837   1.874   6.493
 4344TIP3    H212974   2.807   1.828   6.352
 4345TIP3   OH212975   3.277   3.675   6.122
 4345TIP3    H112976   3.209   3.675   6.054
 4345TIP3    H212977   3.302   3.767   6.130
 4346TIP3   OH212978   6.539   1.201   4.655
 4346TIP3    H112979   6.453   1.225   4.688
 4346TIP3    H212980   6.583   1.285   4.637
 4347TIP3   OH212981   6.027   4.852   6.488
 4347TIP3    H112982   5.984   4.786   6.543
 4347TIP3    H212983   5.965   4.868   6.417
 4348TIP3   OH212984   7.681   6.903   1.021
 4348TIP3    H112985   7.748   6.862   0.966
 4348TIP3    H212986   7.674   6.992   0.988
 4349TIP3   OH212987   4.582   6.458   6.367
 4349TIP3    H112988   4.592   6.459   6.272
 4349TIP3    H212989   4.644   6.392   6.398
 4350TIP3   OH212990   1.273   3.659   6.552
 4350TIP3    H112991   1.196   3.700   6.591
 4350TIP3    H212992   1.246   3.569   6.535
 4351TIP3   OH212993   7.357   7.349   2.423
 4351TIP3    H112994   7.327   7.317   2.508
 4351TIP3    H212995   7.317   7.436   2.414
 4352TIP3   OH212996   3.386   2.416   4.279
 4352TIP3    H112997   3.324   2.443   4.346
 4352TIP3    H212998   3.460   2.477   4.289
 4353TIP3   OH212999   4.568   0.049   3.439
 4353TIP3    H113000   4.616   0.042   3.356
 4353TIP3    H213001   4.476   0.043   3.414
 4354TIP3   OH213002   2.042   3.029   0.844
 4354TIP3    H113003   2.086   2.968   0.785
 4354TIP3    H213004   2.087   3.017   0.928
 4355TIP3   OH213005   2.861   1.851   3.303
 4355TIP3    H113006   2.892   1.901   3.378
 4355TIP3    H213007   2.779   1.812   3.332
 4356TIP3   OH213008   4.560   4.384   4.783
 4356TIP3    H113009   4.653   4.367   4.772
 4356TIP3    H213010   4.539   4.448   4.715
 4357TIP3   OH213011   4.157   7.171   5.568
 4357TIP3    H113012   4.137   7.092   5.618
 4357TIP3    H213013   4.088   7.233   5.592
 4358TIP3   OH213014   1.237   3.612   1.712
 4358TIP3    H113015   1.148   3.648   1.710
 4358TIP3    H213016   1.292   3.687   1.735
 4359TIP3   OH213017   7.404   2.984   2.223
 4359TIP3    H113018   7.357   2.972   2.306
 4359TIP3    H213019   7.467   3.054   2.241
 4360TIP3   OH213020   4.343   0.713   0.025
 4360TIP3    H113021   4.263   0.743  -0.020
 4360TIP3    H213022   4.313   0.643   0.082
 4361TIP3   OH213023   7.893   2.728   4.356
 4361TIP3    H113024   7.854   2.652   4.399
 4361TIP3    H213025   7.971   2.693   4.312
 4362TIP3   OH213026   7.378   3.285   3.556
 4362TIP3    H113027   7.343   3.347   3.492
 4362TIP3    H213028   7.329   3.302   3.636
 4363TIP3   OH213029   1.626   2.807   1.986
 4363TIP3    H113030   1.696   2.761   2.032
 4363TIP3    H213031   1.639   2.899   2.009
 4364TIP3   OH213032   6.633   0.761   5.262
 4364TIP3    H113033   6.575   0.786   5.334
 4364TIP3    H213034   6.720   0.791   5.290
 4365TIP3   OH213035   1.277   2.379   0.925
 4365TIP3    H113036   1.190   2.343   0.909
 4365TIP3    H213037   1.262   2.472   0.938
 4366TIP3   OH213038   3.386   3.345   3.578
 4366TIP3    H113039   3.387   3.274   3.514
 4366TIP3    H213040   3.377   3.424   3.525
 4367TIP3   OH213041   6.177   1.994   5.440
 4367TIP3    H113042   6.092   1.952   5.435
 4367TIP3    H213043   6.237   1.924   5.467
 4368TIP3   OH213044   0.914   6.849   6.830
 4368TIP3    H113045   0.843   6.871   6.890
 4368TIP3    H213046   0.879   6.870   6.743
 4369TIP3   OH213047   6.793   5.105   6.379
 4369TIP3    H113048   6.737   5.109   6.456
 4369TIP3    H213049   6.875   5.067   6.411
 4370TIP3   OH213050   3.067   5.084   2.993
 4370TIP3    H113051   3.141   5.114   3.046
 4370TIP3    H213052   3.006   5.157   2.992
 4371TIP3   OH213053   3.713   7.477   0.200
 4371TIP3    H113054   3.766   7.398   0.206
 4371TIP3    H213055   3.686   7.482   0.109
 4372TIP3   OH213056   4.150   5.148   1.059
 4372TIP3    H113057   4.055   5.162   1.061
 4372TIP3    H213058   4.161   5.053   1.054
 4373TIP3   OH213059   4.027   2.994   1.051
 4373TIP3    H113060   4.009   3.078   1.009
 4373TIP3    H213061   3.979   2.998   1.134
 4374TIP3   OH213062   1.554   4.515   0.583
 4374TIP3    H113063   1.617   4.574   0.540
 4374TIP3    H213064   1.547   4.548   0.672
 4375TIP3   OH213065   2.988   6.048   2.466
 4375TIP3    H113066   3.043   5.992   2.412
 4375TIP3    H213067   3.048   6.086   2.530
 4376TIP3   OH213068   4.181   3.573   5.589
 4376TIP3    H113069   4.250   3.617   5.540
 4376TIP3    H213070   4.121   3.644   5.614
 4377TIP3   OH213071   4.041   7.415   6.343
 4377TIP3    H113072   4.012   7.461   6.422
 4377TIP3    H213073   4.069   7.485   6.284
 4378TIP3   OH213074   3.609   4.610   3.543
 4378TIP3    H113075   3.527   4.569   3.514
 4378TIP3    H213076   3.667   4.604   3.468
 4379TIP3   OH213077   7.471   6.757   1.505
 4379TIP3    H113078   7.448   6.828   1.565
 4379TIP3    H213079   7.390   6.706   1.496
 4380TIP3   OH213080   2.843   5.907   1.067
 4380TIP3    H113081   2.900   5.982   1.080
 4380TIP3    H213082   2.755   5.942   1.080
 4381TIP3   OH213083   5.200   2.173   5.190
 4381TIP3    H113084   5.280   2.129   5.219
 4381TIP3    H213085   5.231   2.252   5.146
 4382TIP3   OH213086   4.358   5.319   1.010
 4382TIP3    H113087   4.285   5.262   1.033
 4382TIP3    H213088   4.318   5.394   0.967
 4383TIP3   OH213089   1.184   1.135   0.475
 4383TIP3    H113090   1.096   1.113   0.505
 4383TIP3    H213091   1.224   1.181   0.548
 4384TIP3   OH213092   4.785   2.074   5.249
 4384TIP3    H113093   4.803   2.000   5.190
 4384TIP3    H213094   4.838   2.055   5.327
 4385TIP3   OH213095   0.814   6.952   4.357
 4385TIP3    H113096   0.734   6.949   4.304
 4385TIP3    H213097   0.792   6.901   4.436
 4386TIP3   OH213098   4.117   6.563   5.527
 4386TIP3    H113099   4.109   6.467   5.532
 4386TIP3    H213100   4.047   6.596   5.583
 4387TIP3   OH213101   0.203   5.688   6.736
 4387TIP3    H113102   0.252   5.607   6.746
 4387TIP3    H213103   0.262   5.756   6.769
 4388TIP3   OH213104   4.042   1.760   1.068
 4388TIP3    H113105   4.062   1.678   1.023
 4388TIP3    H213106   4.107   1.822   1.037
 4389TIP3   OH213107   3.062   4.047   0.681
 4389TIP3    H113108   3.121   4.092   0.741
 4389TIP3    H213109   3.071   4.094   0.598
 4390TIP3   OH213110   7.957   3.231   5.845
 4390TIP3    H113111   7.932   3.324   5.849
 4390TIP3    H213112   7.975   3.216   5.752
 4391TIP3   OH213113   0.281   7.299   6.470
 4391TIP3    H113114   0.324   7.223   6.509
 4391TIP3    H213115   0.350   7.346   6.425
 4392TIP3   OH213116   7.061   2.068   4.289
 4392TIP3    H113117   7.108   1.985   4.277
 4392TIP3    H213118   7.023   2.063   4.377
 4393TIP3   OH213119   1.966   3.169   6.243
 4393TIP3    H113120   2.029   3.160   6.315
 4393TIP3    H213121   1.880   3.159   6.284
 4394TIP3   OH213122   1.120   1.518   0.299
 4394TIP3    H113123   1.104   1.606   0.266
 4394TIP3    H213124   1.142   1.531   0.392
 4395TIP3   OH213125   5.205   1.994   1.376
 4395TIP3    H113126   5.200   2.085   1.346
 4395TIP3    H213127   5.118   1.959   1.360
 4396TIP3   OH213128   3.413   6.264   5.328
 4396TIP3    H113129   3.391   6.308   5.411
 4396TIP3    H213130   3.437   6.175   5.353
 4397TIP3   OH213131   5.272   1.720   0.147
 4397TIP3    H113132   5.220   1.775   0.089
 4397TIP3    H213133   5.361   1.752   0.137
 4398TIP3   OH213134   6.742   6.057   5.803
 4398TIP3    H113135   6.692   6.003   5.742
 4398TIP3    H213136   6.690   6.137   5.813
 4399TIP3   OH213137   7.420   3.874   4.032
 4399TIP3    H113138   7.379   3.942   3.978
 4399TIP3    H213139   7.435   3.917   4.116
 4400TIP3   OH213140   5.292   2.655   4.430
 4400TIP3    H113141   5.305   2.631   4.338
 4400TIP3    H213142   5.201   2.685   4.435
 4401TIP3   OH213143   2.166   4.174   1.609
 4401TIP3    H113144   2.100   4.166   1.678
 4401TIP3    H213145   2.245   4.202   1.654
 4402TIP3   OH213146   4.682   7.154   1.103
 4402TIP3    H113147   4.718   7.205   1.175
 4402TIP3    H213148   4.588   7.149   1.122
 4403TIP3   OH213149   4.669   0.441   6.720
 4403TIP3    H113150   4.604   0.373   6.700
 4403TIP3    H213151   4.752   0.404   6.691
 4404TIP3   OH213152   5.975   5.031   3.048
 4404TIP3    H113153   5.912   5.092   3.088
 4404TIP3    H213154   5.970   4.953   3.104
 4405TIP3   OH213155   2.902   7.020   2.696
 4405TIP3    H113156   2.842   7.067   2.638
 4405TIP3    H213157   2.864   6.932   2.704
 4406TIP3   OH213158   7.820  -0.029   3.141
 4406TIP3    H113159   7.849   0.052   3.184
 4406TIP3    H213160   7.728  -0.013   3.121
 4407TIP3   OH213161   7.185   2.081   1.392
 4407TIP3    H113162   7.259   2.021   1.385
 4407TIP3    H213163   7.173   2.095   1.486
 4408TIP3   OH213164   3.175   4.215   2.769
 4408TIP3    H113165   3.129   4.188   2.848
 4408TIP3    H213166   3.219   4.296   2.793
 4409TIP3   OH213167   1.821   3.012   4.819
 4409TIP3    H113168   1.899   2.959   4.806
 4409TIP3    H213169   1.754   2.951   4.849
 4410TIP3   OH213170   6.340   2.932   2.320
 4410TIP3    H113171   6.373   2.921   2.409
 4410TIP3    H213172   6.385   2.864   2.269
 4411TIP3   OH213173   3.768   3.627   2.459
 4411TIP3    H113174   3.863   3.624   2.454
 4411TIP3    H213175   3.738   3.548   2.414
 4412TIP3   OH213176   0.632   3.382   2.366
 4412TIP3    H113177   0.663   3.322   2.434
 4412TIP3    H213178   0.636   3.332   2.285
 4413TIP3   OH213179   1.046   7.526   0.642
 4413TIP3    H113180   0.992   7.602   0.664
 4413TIP3    H213181   1.080   7.545   0.555
 4414TIP3   OH213182   3.725   7.924   5.378
 4414TIP3    H113183   3.731   7.901   5.285
 4414TIP3    H213184   3.799   7.984   5.392
 4415TIP3   OH213185   7.813   3.721   4.334
 4415TIP3    H113186   7.796   3.780   4.260
 4415TIP3    H213187   7.753   3.751   4.403
 4416TIP3   OH213188   2.487   1.997   6.379
 4416TIP3    H113189   2.515   1.905   6.376
 4416TIP3    H213190   2.519   2.029   6.463
 4417TIP3   OH213191   5.728   5.304   3.223
 4417TIP3    H113192   5.738   5.216   3.260
 4417TIP3    H213193   5.720   5.361   3.299
 4418TIP3   OH213194   7.290   6.503   6.826
 4418TIP3    H113195   7.270   6.444   6.899
 4418TIP3    H213196   7.246   6.464   6.751
 4419TIP3   OH213197   6.482   6.047   0.762
 4419TIP3    H113198   6.514   6.100   0.835
 4419TIP3    H213199   6.470   5.959   0.800
 4420TIP3   OH213200   5.093   2.484   6.627
 4420TIP3    H113201   5.178   2.448   6.604
 4420TIP3    H213202   5.093   2.573   6.591
 4421TIP3   OH213203   2.192   2.655   6.755
 4421TIP3    H113204   2.215   2.743   6.725
 4421TIP3    H213205   2.103   2.663   6.790
 4422TIP3   OH213206   6.199   1.552   0.425
 4422TIP3    H113207   6.227   1.641   0.402
 4422TIP3    H213208   6.119   1.539   0.376
 4423TIP3   OH213209   5.179   3.303   6.051
 4423TIP3    H113210   5.092   3.326   6.020
 4423TIP3    H213211   5.216   3.247   5.982
 4424TIP3   OH213212   0.588   7.680   4.873
 4424TIP3    H113213   0.510   7.625   4.877
 4424TIP3    H213214   0.642   7.640   4.805
 4425TIP3   OH213215   8.134   4.924   3.551
 4425TIP3    H113216   8.082   4.982   3.607
 4425TIP3    H213217   8.101   4.939   3.463
 4426TIP3   OH213218   7.963   0.225   5.718
 4426TIP3    H113219   8.021   0.297   5.741
 4426TIP3    H213220   7.980   0.208   5.626
 4427TIP3   OH213221   1.601   5.478   6.507
 4427TIP3    H113222   1.590   5.418   6.580
 4427TIP3    H213223   1.516   5.521   6.499
 4428TIP3   OH213224   2.528   2.984   3.639
 4428TIP3    H113225   2.565   3.072   3.640
 4428TIP3    H213226   2.589   2.933   3.585
 4429TIP3   OH213227   8.357   2.080   5.591
 4429TIP3    H113228   8.277   2.119   5.556
 4429TIP3    H213229   8.360   2.109   5.683
 4430TIP3   OH213230   1.972   3.673   4.119
 4430TIP3    H113231   2.059   3.649   4.152
 4430TIP3    H213232   1.952   3.606   4.053
 4431TIP3   OH213233   4.000   5.996   2.636
 4431TIP3    H113234   3.977   5.923   2.579
 4431TIP3    H213235   3.917   6.038   2.658
 4432TIP3   OH213236   1.664   1.739   3.549
 4432TIP3    H113237   1.593   1.687   3.586
 4432TIP3    H213238   1.695   1.688   3.474
 4433TIP3   OH213239   0.944   5.636   2.576
 4433TIP3    H113240   0.862   5.686   2.564
 4433TIP3    H213241   0.982   5.673   2.656
 4434TIP3   OH213242   8.086   4.766   3.180
 4434TIP3    H113243   8.134   4.711   3.118
 4434TIP3    H213244   8.121   4.743   3.266
 4435TIP3   OH213245   3.320   3.504   5.856
 4435TIP3    H113246   3.361   3.535   5.776
 4435TIP3    H213247   3.380   3.530   5.926
 4436TIP3   OH213248   2.162   5.180   4.846
 4436TIP3    H113249   2.082   5.165   4.796
 4436TIP3    H213250   2.216   5.234   4.787
 4437TIP3   OH213251   4.232   2.964   5.063
 4437TIP3    H113252   4.168   2.893   5.058
 4437TIP3    H213253   4.207   3.014   5.140
 4438TIP3   OH213254   7.717   6.558   1.789
 4438TIP3    H113255   7.712   6.615   1.712
 4438TIP3    H213256   7.781   6.491   1.765
 4439TIP3   OH213257   0.988   1.764   4.762
 4439TIP3    H113258   0.915   1.724   4.810
 4439TIP3    H213259   0.953   1.778   4.674
 4440TIP3   OH213260   4.935   1.158   1.544
 4440TIP3    H113261   4.891   1.073   1.536
 4440TIP3    H213262   4.981   1.168   1.461
 4441TIP3   OH213263   6.124   0.999   3.730
 4441TIP3    H113264   6.100   1.091   3.732
 4441TIP3    H213265   6.070   0.958   3.797
 4442TIP3   OH213266   5.068   2.813   4.986
 4442TIP3    H113267   5.069   2.775   5.074
 4442TIP3    H213268   4.987   2.864   4.983
 4443TIP3   OH213269   2.899   6.455   4.329
 4443TIP3    H113270   2.870   6.465   4.238
 4443TIP3    H213271   2.928   6.542   4.355
 4444TIP3   OH213272   7.763   5.145   1.192
 4444TIP3    H113273   7.742   5.052   1.202
 4444TIP3    H213274   7.718   5.187   1.266
 4445TIP3   OH213275   4.072   2.874   2.760
 4445TIP3    H113276   4.120   2.952   2.787
 4445TIP3    H213277   3.982   2.905   2.747
 4446TIP3   OH213278   6.787   3.207   5.593
 4446TIP3    H113279   6.727   3.200   5.667
 4446TIP3    H213280   6.847   3.133   5.604
 4447TIP3   OH213281   2.020   6.870   2.103
 4447TIP3    H113282   2.012   6.923   2.024
 4447TIP3    H213283   2.113   6.872   2.124
 4448TIP3   OH213284   1.378   4.113   4.528
 4448TIP3    H113285   1.456   4.124   4.582
 4448TIP3    H213286   1.407   4.059   4.455
 4449TIP3   OH213287   2.258   0.381   4.473
 4449TIP3    H113288   2.254   0.433   4.392
 4449TIP3    H213289   2.189   0.417   4.528
 4450TIP3   OH213290   1.514   4.304   1.527
 4450TIP3    H113291   1.552   4.375   1.578
 4450TIP3    H213292   1.548   4.318   1.438
 4451TIP3   OH213293   7.210   6.620   6.487
 4451TIP3    H113294   7.123   6.654   6.507
 4451TIP3    H213295   7.204   6.526   6.507
 4452TIP3   OH213296   4.570   7.213   3.778
 4452TIP3    H113297   4.664   7.192   3.778
 4452TIP3    H213298   4.535   7.164   3.704
 4453TIP3   OH213299   4.606   0.717   3.740
 4453TIP3    H113300   4.688   0.671   3.754
 4453TIP3    H213301   4.609   0.745   3.649
 4454TIP3   OH213302   2.571   3.885   3.803
 4454TIP3    H113303   2.665   3.868   3.810
 4454TIP3    H213304   2.566   3.975   3.770
 4455TIP3   OH213305   3.139   3.371   2.557
 4455TIP3    H113306   3.178   3.317   2.626
 4455TIP3    H213307   3.053   3.331   2.542
 4456TIP3   OH213308   1.945   7.232   4.538
 4456TIP3    H113309   1.938   7.257   4.630
 4456TIP3    H213310   1.858   7.202   4.514
 4457TIP3   OH213311   4.744   3.407   5.164
 4457TIP3    H113312   4.822   3.379   5.210
 4457TIP3    H213313   4.695   3.327   5.148
 4458TIP3   OH213314   0.141   2.209   6.788
 4458TIP3    H113315   0.201   2.273   6.827
 4458TIP3    H213316   0.144   2.135   6.848
 4459TIP3   OH213317   2.155   6.919   2.703
 4459TIP3    H113318   2.152   6.823   2.700
 4459TIP3    H213319   2.236   6.942   2.658
 4460TIP3   OH213320   6.727   0.494   4.448
 4460TIP3    H113321   6.635   0.514   4.431
 4460TIP3    H213322   6.725   0.413   4.498
 4461TIP3   OH213323   5.197   3.100   4.260
 4461TIP3    H113324   5.169   3.012   4.283
 4461TIP3    H213325   5.273   3.116   4.315
 4462TIP3   OH213326   1.790   3.528   4.964
 4462TIP3    H113327   1.776   3.465   5.035
 4462TIP3    H213328   1.751   3.609   4.995
 4463TIP3   OH213329   0.340   5.591   6.432
 4463TIP3    H113330   0.258   5.640   6.430
 4463TIP3    H213331   0.324   5.521   6.496
 4464TIP3   OH213332   6.823   7.369   5.701
 4464TIP3    H113333   6.750   7.346   5.758
 4464TIP3    H213334   6.812   7.463   5.684
 4465TIP3   OH213335   0.179   7.566   6.717
 4465TIP3    H113336   0.199   7.658   6.698
 4465TIP3    H213337   0.160   7.527   6.632
 4466TIP3   OH213338   1.530   1.650   6.021
 4466TIP3    H113339   1.544   1.646   6.115
 4466TIP3    H213340   1.452   1.704   6.010
 4467TIP3   OH213341   0.102   2.812   6.723
 4467TIP3    H113342   0.107   2.739   6.785
 4467TIP3    H213343   0.012   2.808   6.690
 4468TIP3   OH213344   2.645   1.408   1.902
 4468TIP3    H113345   2.566   1.367   1.867
 4468TIP3    H213346   2.706   1.409   1.829
 4469TIP3   OH213347   7.423   7.066   3.144
 4469TIP3    H113348   7.467   7.011   3.209
 4469TIP3    H213349   7.493   7.093   3.085
 4470TIP3   OH213350   5.597   6.892   3.350
 4470TIP3    H113351   5.567   6.937   3.271
 4470TIP3    H213352   5.649   6.818   3.318
 4471TIP3   OH213353   6.655   4.237   6.396
 4471TIP3    H113354   6.678   4.147   6.375
 4471TIP3    H213355   6.737   4.276   6.427
 4472TIP3   OH213356   7.248   4.264   6.549
 4472TIP3    H113357   7.269   4.305   6.465
 4472TIP3    H213358   7.282   4.175   6.542
 4473TIP3   OH213359   1.878   7.578   4.207
 4473TIP3    H113360   1.954   7.526   4.231
 4473TIP3    H213361   1.852   7.623   4.288
 4474TIP3   OH213362   4.972   0.443   2.421
 4474TIP3    H113363   4.897   0.500   2.438
 4474TIP3    H213364   5.040   0.474   2.480
 4475TIP3   OH213365   4.107   6.954   5.782
 4475TIP3    H113366   4.136   6.980   5.870
 4475TIP3    H213367   4.011   6.963   5.785
 4476TIP3   OH213368   3.200   1.377   5.879
 4476TIP3    H113369   3.292   1.356   5.863
 4476TIP3    H213370   3.160   1.294   5.903
 4477TIP3   OH213371   5.724   5.365   5.027
 4477TIP3    H113372   5.727   5.438   5.089
 4477TIP3    H213373   5.764   5.292   5.073
 4478TIP3   OH213374   6.815   5.323   4.657
 4478TIP3    H113375   6.738   5.266   4.660
 4478TIP3    H213376   6.824   5.347   4.565
 4479TIP3   OH213377   3.016   5.874   0.332
 4479TIP3    H113378   2.935   5.853   0.378
 4479TIP3    H213379   3.084   5.825   0.378
 4480TIP3   OH213380   5.975   1.775   4.461
 4480TIP3    H113381   6.036   1.715   4.417
 4480TIP3    H213382   6.026   1.855   4.474
 4481TIP3   OH213383   4.238   4.926   1.985
 4481TIP3    H113384   4.327   4.957   1.972
 4481TIP3    H213385   4.229   4.913   2.079
 4482TIP3   OH213386   6.012   6.492   6.027
 4482TIP3    H113387   5.963   6.564   5.987
 4482TIP3    H213388   6.009   6.422   5.962
 4483TIP3   OH213389   4.275   5.181   2.598
 4483TIP3    H113390   4.320   5.179   2.682
 4483TIP3    H213391   4.191   5.222   2.616
 4484TIP3   OH213392   3.391   3.115   3.408
 4484TIP3    H113393   3.436   3.031   3.408
 4484TIP3    H213394   3.384   3.139   3.316
 4485TIP3   OH213395   4.782   5.496   1.834
 4485TIP3    H113396   4.810   5.435   1.767
 4485TIP3    H213397   4.840   5.480   1.908
 4486TIP3   OH213398   1.904   2.261   6.766
 4486TIP3    H113399   1.981   2.308   6.734
 4486TIP3    H213400   1.938   2.207   6.837
 4487TIP3   OH213401   3.083   5.207   3.399
 4487TIP3    H113402   3.068   5.113   3.408
 4487TIP3    H213403   2.996   5.244   3.383
 4488TIP3   OH213404   5.849   1.909   4.909
 4488TIP3    H113405   5.768   1.937   4.866
 4488TIP3    H213406   5.873   1.827   4.864
 4489TIP3   OH213407   8.010   5.242   0.576
 4489TIP3    H113408   8.026   5.231   0.670
 4489TIP3    H213409   7.930   5.192   0.560
 4490TIP3   OH213410   4.902   3.784   2.910
 4490TIP3    H113411   4.849   3.728   2.852
 4490TIP3    H213412   4.880   3.754   2.998
 4491TIP3   OH213413   5.280   0.828   0.867
 4491TIP3    H113414   5.221   0.773   0.816
 4491TIP3    H213415   5.368   0.798   0.844
 4492TIP3   OH213416   7.680   2.681   6.718
 4492TIP3    H113417   7.670   2.594   6.680
 4492TIP3    H213418   7.627   2.738   6.662
 4493TIP3   OH213419   8.117   0.465   0.935
 4493TIP3    H113420   8.146   0.470   1.026
 4493TIP3    H213421   8.040   0.408   0.937
 4494TIP3   OH213422   1.046   2.782   0.338
 4494TIP3    H113423   1.090   2.817   0.261
 4494TIP3    H213424   1.063   2.846   0.407
 4495TIP3   OH213425   6.328   1.837   6.799
 4495TIP3    H113426   6.271   1.885   6.740
 4495TIP3    H213427   6.396   1.899   6.823
 4496TIP3   OH213428   6.403   1.112   1.487
 4496TIP3    H113429   6.369   1.101   1.398
 4496TIP3    H213430   6.398   1.025   1.526
 4497TIP3   OH213431   3.177   0.930   1.385
 4497TIP3    H113432   3.098   0.982   1.403
 4497TIP3    H213433   3.146   0.857   1.332
 4498TIP3   OH213434   7.238   4.087   6.161
 4498TIP3    H113435   7.189   4.059   6.238
 4498TIP3    H213436   7.173   4.090   6.091
 4499TIP3   OH213437   2.803   7.265   1.492
 4499TIP3    H113438   2.777   7.325   1.561
 4499TIP3    H213439   2.833   7.322   1.421
 4500TIP3   OH213440   2.525   4.384   0.976
 4500TIP3    H113441   2.513   4.298   0.936
 4500TIP3    H213442   2.602   4.373   1.032
 4501TIP3   OH213443   5.053   0.714   4.857
 4501TIP3    H113444   5.063   0.809   4.851
 4501TIP3    H213445   4.991   0.692   4.787
 4502TIP3   OH213446   2.153   7.850   0.193
 4502TIP3    H113447   2.081   7.797   0.158
 4502TIP3    H213448   2.200   7.791   0.252
 4503TIP3   OH213449   2.585   7.504   4.704
 4503TIP3    H113450   2.670   7.527   4.667
 4503TIP3    H213451   2.579   7.556   4.785
 4504TIP3   OH213452   0.169   5.622   3.517
 4504TIP3    H113453   0.164   5.714   3.544
 4504TIP3    H213454   0.122   5.620   3.433
 4505TIP3   OH213455   2.119   7.544   1.449
 4505TIP3    H113456   2.048   7.490   1.483
 4505TIP3    H213457   2.090   7.634   1.463
 4506TIP3   OH213458   8.189   6.208   4.529
 4506TIP3    H113459   8.251   6.279   4.543
 4506TIP3    H213460   8.142   6.200   4.612
 4507TIP3   OH213461   4.514   1.481   4.727
 4507TIP3    H113462   4.494   1.456   4.818
 4507TIP3    H213463   4.470   1.414   4.675
 4508TIP3   OH213464   4.501   0.172   1.059
 4508TIP3    H113465   4.565   0.123   1.007
 4508TIP3    H213466   4.551   0.202   1.135
 4509TIP3   OH213467   8.128   0.054   4.715
 4509TIP3    H113468   8.032   0.059   4.711
 4509TIP3    H213469   8.150   0.100   4.797
 4510TIP3   OH213470   8.182   4.093   2.108
 4510TIP3    H113471   8.113   4.093   2.042
 4510TIP3    H213472   8.260   4.126   2.062
 4511TIP3   OH213473   0.532   4.275   2.711
 4511TIP3    H113474   0.475   4.204   2.739
 4511TIP3    H213475   0.485   4.316   2.638
 4512TIP3   OH213476   1.078   4.555   0.415
 4512TIP3    H113477   1.129   4.525   0.339
 4512TIP3    H213478   0.987   4.552   0.386
 4513TIP3   OH213479   3.324   3.804   6.495
 4513TIP3    H113480   3.263   3.814   6.568
 4513TIP3    H213481   3.404   3.769   6.535
 4514TIP3   OH213482   0.307   0.834   2.976
 4514TIP3    H113483   0.393   0.816   2.938
 4514TIP3    H213484   0.253   0.759   2.950
 4515TIP3   OH213485   3.010   0.114   5.409
 4515TIP3    H113486   2.994   0.034   5.360
 4515TIP3    H213487   3.102   0.135   5.392
 4516TIP3   OH213488   0.132   7.011   2.021
 4516TIP3    H113489   0.046   6.986   2.055
 4516TIP3    H213490   0.171   7.065   2.090
 4517TIP3   OH213491   2.374   5.241   4.403
 4517TIP3    H113492   2.312   5.172   4.427
 4517TIP3    H213493   2.320   5.314   4.374
 4518TIP3   OH213494   1.883   6.055   3.189
 4518TIP3    H113495   1.963   6.072   3.239
 4518TIP3    H213496   1.907   6.073   3.098
 4519TIP3   OH213497   6.224   4.874   2.491
 4519TIP3    H113498   6.180   4.810   2.436
 4519TIP3    H213499   6.315   4.873   2.462
 4520TIP3   OH213500   4.719   7.777   3.939
 4520TIP3    H113501   4.663   7.751   3.866
 4520TIP3    H213502   4.806   7.789   3.899
 4521TIP3   OH213503   4.599   4.474   0.019
 4521TIP3    H113504   4.691   4.485   0.044
 4521TIP3    H213505   4.551   4.529   0.082
 4522TIP3   OH213506   1.993   2.521   2.643
 4522TIP3    H113507   2.065   2.463   2.668
 4522TIP3    H213508   1.945   2.472   2.576
 4523TIP3   OH213509   2.264   1.295   3.867
 4523TIP3    H113510   2.249   1.318   3.775
 4523TIP3    H213511   2.245   1.201   3.871
 4524TIP3   OH213512   5.955   2.601   4.364
 4524TIP3    H113513   5.939   2.596   4.459
 4524TIP3    H213514   5.924   2.517   4.331
 4525TIP3   OH213515   1.174   2.613   6.751
 4525TIP3    H113516   1.143   2.558   6.822
 4525TIP3    H213517   1.250   2.659   6.788
 4526TIP3   OH213518   1.290   7.384   5.543
 4526TIP3    H113519   1.347   7.315   5.507
 4526TIP3    H213520   1.301   7.378   5.638
 4527TIP3   OH213521   2.966   4.911   1.332
 4527TIP3    H113522   2.954   4.972   1.259
 4527TIP3    H213523   2.916   4.834   1.307
 4528TIP3   OH213524  -0.026   3.925   1.299
 4528TIP3    H113525  -0.038   3.830   1.291
 4528TIP3    H213526   0.068   3.936   1.306
 4529TIP3   OH213527   2.504   1.669   0.340
 4529TIP3    H113528   2.598   1.665   0.359
 4529TIP3    H213529   2.479   1.578   0.325
 4530TIP3   OH213530   6.968   3.056   5.090
 4530TIP3    H113531   6.939   3.107   5.166
 4530TIP3    H213532   6.899   3.068   5.025
 4531TIP3   OH213533   2.710   4.389   6.196
 4531TIP3    H113534   2.784   4.347   6.240
 4531TIP3    H213535   2.664   4.435   6.265
 4532TIP3   OH213536   7.777   4.573   0.807
 4532TIP3    H113537   7.849   4.594   0.747
 4532TIP3    H213538   7.705   4.629   0.779
 4533TIP3   OH213539   5.163   2.491   0.925
 4533TIP3    H113540   5.215   2.541   0.989
 4533TIP3    H213541   5.153   2.405   0.966
 4534TIP3   OH213542   8.173   6.014   6.232
 4534TIP3    H113543   8.239   6.079   6.205
 4534TIP3    H213544   8.149   6.040   6.321
 4535TIP3   OH213545   5.340   2.312   6.641
 4535TIP3    H113546   5.351   2.226   6.681
 4535TIP3    H213547   5.429   2.347   6.634
 4536TIP3   OH213548   4.971   4.888   1.325
 4536TIP3    H113549   5.038   4.903   1.258
 4536TIP3    H213550   4.914   4.965   1.319
 4537TIP3   OH213551   5.164   2.796   3.081
 4537TIP3    H113552   5.210   2.805   3.165
 4537TIP3    H213553   5.130   2.706   3.082
 4538TIP3   OH213554   6.264   0.187   5.214
 4538TIP3    H113555   6.223   0.137   5.285
 4538TIP3    H213556   6.190   0.216   5.160
 4539TIP3   OH213557   2.584   0.558   0.611
 4539TIP3    H113558   2.588   0.478   0.664
 4539TIP3    H213559   2.654   0.546   0.546
 4540TIP3   OH213560   4.683   5.333   1.331
 4540TIP3    H113561   4.739   5.261   1.361
 4540TIP3    H213562   4.739   5.383   1.271
 4541TIP3   OH213563   5.737   5.726   2.323
 4541TIP3    H113564   5.734   5.656   2.389
 4541TIP3    H213565   5.747   5.680   2.240
 4542TIP3   OH213566   7.927   5.908   2.824
 4542TIP3    H113567   8.021   5.922   2.812
 4542TIP3    H213568   7.916   5.813   2.821
 4543TIP3   OH213569   0.998   7.864   5.451
 4543TIP3    H113570   0.939   7.803   5.407
 4543TIP3    H213571   0.949   7.946   5.455
 4544TIP3   OH213572   7.244   6.128   2.780
 4544TIP3    H113573   7.230   6.203   2.837
 4544TIP3    H213574   7.266   6.056   2.840
 4545TIP3   OH213575   2.415   7.782   6.141
 4545TIP3    H113576   2.360   7.779   6.220
 4545TIP3    H213577   2.372   7.847   6.085
 4546TIP3   OH213578   7.705   1.190   4.590
 4546TIP3    H113579   7.635   1.198   4.655
 4546TIP3    H213580   7.688   1.106   4.548
 4547TIP3   OH213581   4.710   4.553   0.788
 4547TIP3    H113582   4.753   4.480   0.833
 4547TIP3    H213583   4.646   4.586   0.851
 4548TIP3   OH213584   4.813   1.195   6.261
 4548TIP3    H113585   4.869   1.208   6.337
 4548TIP3    H213586   4.873   1.183   6.188
 4549TIP3   OH213587   2.152   3.024   5.863
 4549TIP3    H113588   2.097   2.953   5.830
 4549TIP3    H213589   2.154   3.011   5.958
 4550TIP3   OH213590   4.815   5.296   3.901
 4550TIP3    H113591   4.877   5.309   3.829
 4550TIP3    H213592   4.756   5.371   3.895
 4551TIP3   OH213593   6.582   0.983   5.809
 4551TIP3    H113594   6.494   0.958   5.839
 4551TIP3    H213595   6.566   1.040   5.734
 4552TIP3   OH213596   3.095   0.249   3.409
 4552TIP3    H113597   3.039   0.175   3.386
 4552TIP3    H213598   3.062   0.279   3.493
 4553TIP3   OH213599   8.103   2.627   4.196
 4553TIP3    H113600   8.156   2.703   4.172
 4553TIP3    H213601   8.156   2.552   4.173
 4554TIP3   OH213602   6.885   0.987   4.132
 4554TIP3    H113603   6.807   0.948   4.094
 4554TIP3    H213604   6.865   1.081   4.137
 4555TIP3   OH213605   3.060   3.034   6.357
 4555TIP3    H113606   3.064   3.080   6.441
 4555TIP3    H213607   3.127   2.966   6.363
 4556TIP3   OH213608   7.824   1.127   1.779
 4556TIP3    H113609   7.785   1.204   1.822
 4556TIP3    H213610   7.794   1.053   1.832
 4557TIP3   OH213611   5.485   3.277   3.910
 4557TIP3    H113612   5.538   3.351   3.882
 4557TIP3    H213613   5.464   3.230   3.829
 4558TIP3   OH213614   2.774   7.755   2.252
 4558TIP3    H113615   2.790   7.780   2.343
 4558TIP3    H213616   2.856   7.776   2.206
 4559TIP3   OH213617   4.616   4.292   2.880
 4559TIP3    H113618   4.613   4.388   2.890
 4559TIP3    H213619   4.528   4.268   2.851
 4560TIP3   OH213620   6.347   6.866   2.059
 4560TIP3    H113621   6.329   6.955   2.091
 4560TIP3    H213622   6.425   6.839   2.107
 4561TIP3   OH213623   4.434   2.929   4.081
 4561TIP3    H113624   4.468   2.952   4.167
 4561TIP3    H213625   4.345   2.900   4.097
 4562TIP3   OH213626   2.586   0.605   6.813
 4562TIP3    H113627   2.516   0.665   6.787
 4562TIP3    H213628   2.618   0.569   6.730
 4563TIP3   OH213629   0.368   4.139   5.725
 4563TIP3    H113630   0.289   4.109   5.770
 4563TIP3    H213631   0.408   4.201   5.786
 4564TIP3   OH213632   4.565   4.523   5.237
 4564TIP3    H113633   4.612   4.601   5.209
 4564TIP3    H213634   4.473   4.544   5.221
 4565TIP3   OH213635   0.421   3.229   5.881
 4565TIP3    H113636   0.435   3.202   5.972
 4565TIP3    H213637   0.399   3.148   5.835
 4566TIP3   OH213638   6.192   7.190   2.128
 4566TIP3    H113639   6.279   7.190   2.089
 4566TIP3    H213640   6.132   7.181   2.053
 4567TIP3   OH213641   6.475   0.623   1.484
 4567TIP3    H113642   6.487   0.673   1.403
 4567TIP3    H213643   6.395   0.572   1.468
 4568TIP3   OH213644   5.094   5.524   5.010
 4568TIP3    H113645   5.092   5.483   4.923
 4568TIP3    H213646   5.171   5.582   5.007
 4569TIP3   OH213647   7.020   0.906   3.898
 4569TIP3    H113648   7.100   0.913   3.949
 4569TIP3    H213649   6.949   0.909   3.962
 4570TIP3   OH213650   1.044   3.172   4.811
 4570TIP3    H113651   1.109   3.105   4.791
 4570TIP3    H213652   1.007   3.146   4.895
 4571TIP3   OH213653   4.375   3.953   5.526
 4571TIP3    H113654   4.359   3.910   5.443
 4571TIP3    H213655   4.313   3.912   5.587
 4572TIP3   OH213656   7.031   5.455   1.094
 4572TIP3    H113657   6.983   5.533   1.067
 4572TIP3    H213658   6.966   5.401   1.139
 4573TIP3   OH213659   6.267   0.258   4.027
 4573TIP3    H113660   6.350   0.305   4.022
 4573TIP3    H213661   6.205   0.314   3.979
 4574TIP3   OH213662   2.320   2.720   6.188
 4574TIP3    H113663   2.278   2.672   6.260
 4574TIP3    H213664   2.318   2.659   6.114
 4575TIP3   OH213665   7.483   3.570   6.523
 4575TIP3    H113666   7.545   3.643   6.511
 4575TIP3    H213667   7.497   3.515   6.446
 4576TIP3   OH213668   6.438   1.879   4.524
 4576TIP3    H113669   6.431   1.850   4.433
 4576TIP3    H213670   6.510   1.941   4.524
 4577TIP3   OH213671   0.705   5.343   0.778
 4577TIP3    H113672   0.705   5.312   0.868
 4577TIP3    H213673   0.763   5.282   0.731
 4578TIP3   OH213674   5.160   0.938   5.734
 4578TIP3    H113675   5.188   1.012   5.788
 4578TIP3    H213676   5.119   0.877   5.795
 4579TIP3   OH213677   2.584   1.458   1.277
 4579TIP3    H113678   2.498   1.462   1.235
 4579TIP3    H213679   2.567   1.481   1.369
 4580TIP3   OH213680   3.102   0.907   0.138
 4580TIP3    H113681   3.018   0.900   0.091
 4580TIP3    H213682   3.164   0.938   0.072
 4581TIP3   OH213683   1.383   0.078   6.621
 4581TIP3    H113684   1.345   0.002   6.666
 4581TIP3    H213685   1.389   0.051   6.530
 4582TIP3   OH213686   2.171   5.615   6.498
 4582TIP3    H113687   2.099   5.642   6.441
 4582TIP3    H213688   2.155   5.522   6.515
 4583TIP3   OH213689   2.295   0.988   2.236
 4583TIP3    H113690   2.371   1.043   2.217
 4583TIP3    H213691   2.314   0.948   2.321
 4584TIP3   OH213692   3.344   6.347   5.955
 4584TIP3    H113693   3.356   6.390   5.870
 4584TIP3    H213694   3.426   6.300   5.970
 4585TIP3   OH213695   8.236   2.280   2.166
 4585TIP3    H113696   8.241   2.211   2.232
 4585TIP3    H213697   8.253   2.361   2.215
 4586TIP3   OH213698   0.769   4.249   3.088
 4586TIP3    H113699   0.865   4.258   3.085
 4586TIP3    H213700   0.750   4.241   3.182
 4587TIP3   OH213701   2.356   0.743   6.680
 4587TIP3    H113702   2.379   0.831   6.650
 4587TIP3    H213703   2.367   0.687   6.604
 4588TIP3   OH213704   7.762   5.321   1.690
 4588TIP3    H113705   7.815   5.400   1.698
 4588TIP3    H213706   7.804   5.271   1.619
 4589TIP3   OH213707   3.253   5.482   6.487
 4589TIP3    H113708   3.261   5.547   6.556
 4589TIP3    H213709   3.339   5.482   6.443
 4590TIP3   OH213710   7.755   1.717   6.589
 4590TIP3    H113711   7.745   1.669   6.507
 4590TIP3    H213712   7.765   1.808   6.562
 4591TIP3   OH213713   6.059   0.894   3.238
 4591TIP3    H113714   5.985   0.918   3.292
 4591TIP3    H213715   6.049   0.947   3.158
 4592TIP3   OH213716   8.171   7.765   2.222
 4592TIP3    H113717   8.179   7.816   2.302
 4592TIP3    H213718   8.098   7.705   2.238
 4593TIP3   OH213719   4.333   1.735   1.233
 4593TIP3    H113720   4.242   1.764   1.234
 4593TIP3    H213721   4.369   1.770   1.152
 4594TIP3   OH213722   0.475   0.761   6.309
 4594TIP3    H113723   0.399   0.731   6.259
 4594TIP3    H213724   0.508   0.835   6.258
 4595TIP3   OH213725   8.112   0.685   3.608
 4595TIP3    H113726   8.179   0.617   3.599
 4595TIP3    H213727   8.145   0.758   3.557
 4596TIP3   OH213728   0.750   6.022   4.199
 4596TIP3    H113729   0.675   6.070   4.165
 4596TIP3    H213730   0.824   6.052   4.146
 4597TIP3   OH213731   3.888   2.088   1.461
 4597TIP3    H113732   3.834   2.106   1.384
 4597TIP3    H213733   3.865   2.156   1.524
 4598TIP3   OH213734   5.488   3.713   3.257
 4598TIP3    H113735   5.564   3.771   3.264
 4598TIP3    H213736   5.459   3.724   3.166
 4599TIP3   OH213737   5.862   4.410   4.642
 4599TIP3    H113738   5.926   4.481   4.644
 4599TIP3    H213739   5.777   4.454   4.637
 4600TIP3   OH213740   4.100   4.342   5.500
 4600TIP3    H113741   4.193   4.321   5.508
 4600TIP3    H213742   4.092   4.431   5.536
 4601TIP3   OH213743   6.203   4.637   6.415
 4601TIP3    H113744   6.118   4.597   6.432
 4601TIP3    H213745   6.191   4.730   6.435
 4602TIP3   OH213746   2.255   7.650   4.256
 4602TIP3    H113747   2.329   7.605   4.297
 4602TIP3    H213748   2.248   7.732   4.305
 4603TIP3   OH213749   6.487   5.096   1.824
 4603TIP3    H113750   6.553   5.160   1.851
 4603TIP3    H213751   6.446   5.135   1.747
 4604TIP3   OH213752   4.386   1.250   4.549
 4604TIP3    H113753   4.381   1.215   4.460
 4604TIP3    H213754   4.316   1.315   4.553
 4605TIP3   OH213755   1.137   1.185   4.981
 4605TIP3    H113756   1.186   1.204   4.901
 4605TIP3    H213757   1.049   1.218   4.964
 4606TIP3   OH213758   5.629   5.141   1.150
 4606TIP3    H113759   5.703   5.096   1.109
 4606TIP3    H213760   5.614   5.093   1.232
 4607TIP3   OH213761   8.172   5.267   4.163
 4607TIP3    H113762   8.180   5.263   4.259
 4607TIP3    H213763   8.080   5.251   4.146
 4608TIP3   OH213764   2.538   4.701   3.127
 4608TIP3    H113765   2.568   4.769   3.065
 4608TIP3    H213766   2.614   4.644   3.138
 4609TIP3   OH213767   0.876   4.693   5.517
 4609TIP3    H113768   0.882   4.778   5.474
 4609TIP3    H213769   0.942   4.697   5.587
 4610TIP3   OH213770   2.445   5.499   6.664
 4610TIP3    H113771   2.503   5.532   6.732
 4610TIP3    H213772   2.386   5.438   6.710
 4611TIP3   OH213773   4.624   7.109   5.394
 4611TIP3    H113774   4.593   7.044   5.457
 4611TIP3    H213775   4.648   7.059   5.317
 4612TIP3   OH213776   1.896   0.438   1.239
 4612TIP3    H113777   1.821   0.451   1.297
 4612TIP3    H213778   1.962   0.394   1.293
 4613TIP3   OH213779   4.170   3.639   0.190
 4613TIP3    H113780   4.119   3.646   0.109
 4613TIP3    H213781   4.246   3.696   0.177
 4614TIP3   OH213782   6.926   2.020   0.483
 4614TIP3    H113783   6.940   2.083   0.554
 4614TIP3    H213784   6.990   1.951   0.500
 4615TIP3   OH213785   4.436   4.075   0.687
 4615TIP3    H113786   4.502   4.144   0.681
 4615TIP3    H213787   4.369   4.111   0.745
 4616TIP3   OH213788   3.668   7.155   3.802
 4616TIP3    H113789   3.640   7.082   3.857
 4616TIP3    H213790   3.706   7.114   3.725
 4617TIP3   OH213791   5.060   3.098   6.196
 4617TIP3    H113792   5.088   3.174   6.145
 4617TIP3    H213793   5.087   3.119   6.285
 4618TIP3   OH213794   1.436   2.541   4.158
 4618TIP3    H113795   1.386   2.597   4.098
 4618TIP3    H213796   1.379   2.466   4.174
 4619TIP3   OH213797   8.025   6.146   0.450
 4619TIP3    H113798   8.051   6.082   0.515
 4619TIP3    H213799   8.050   6.107   0.366
 4620TIP3   OH213800   8.238   1.875   2.966
 4620TIP3    H113801   8.261   1.884   2.874
 4620TIP3    H213802   8.322   1.865   3.011
 4621TIP3   OH213803   8.030   0.590   0.046
 4621TIP3    H113804   8.111   0.588   0.097
 4621TIP3    H213805   7.991   0.675   0.066
 4622TIP3   OH213806   3.704   7.815   4.136
 4622TIP3    H113807   3.734   7.807   4.227
 4622TIP3    H213808   3.621   7.766   4.134
 4623TIP3   OH213809   3.122   3.364   3.370
 4623TIP3    H113810   3.090   3.387   3.283
 4623TIP3    H213811   3.213   3.338   3.356
 4624TIP3   OH213812   4.480   7.248   4.675
 4624TIP3    H113813   4.387   7.243   4.697
 4624TIP3    H213814   4.520   7.288   4.752
 4625TIP3   OH213815   6.546   5.971   5.326
 4625TIP3    H113816   6.470   5.923   5.293
 4625TIP3    H213817   6.557   6.043   5.265
 4626TIP3   OH213818   6.724   4.217   2.083
 4626TIP3    H113819   6.651   4.197   2.142
 4626TIP3    H213820   6.716   4.311   2.067
 4627TIP3   OH213821   3.548   1.981   3.866
 4627TIP3    H113822   3.602   2.043   3.815
 4627TIP3    H213823   3.468   1.971   3.814
 4628TIP3   OH213824   2.609   1.005   3.536
 4628TIP3    H113825   2.628   0.912   3.549
 4628TIP3    H213826   2.514   1.009   3.527
 4629TIP3   OH213827   1.554   3.628   4.290
 4629TIP3    H113828   1.624   3.591   4.237
 4629TIP3    H213829   1.474   3.609   4.240
 4630TIP3   OH213830   5.630   3.509   4.353
 4630TIP3    H113831   5.636   3.593   4.308
 4630TIP3    H213832   5.681   3.520   4.433
 4631TIP3   OH213833   2.826   6.715   4.457
 4631TIP3    H113834   2.819   6.769   4.378
 4631TIP3    H213835   2.741   6.673   4.465
 4632TIP3   OH213836   6.748   4.322   5.484
 4632TIP3    H113837   6.787   4.407   5.463
 4632TIP3    H213838   6.672   4.343   5.538
 4633TIP3   OH213839   1.332   7.163   2.984
 4633TIP3    H113840   1.259   7.119   2.941
 4633TIP3    H213841   1.301   7.181   3.073
 4634TIP3   OH213842   5.392   3.045   0.331
 4634TIP3    H113843   5.373   2.961   0.373
 4634TIP3    H213844   5.467   3.079   0.380
 4635TIP3   OH213845   0.727   5.584   5.796
 4635TIP3    H113846   0.763   5.594   5.708
 4635TIP3    H213847   0.650   5.529   5.785
 4636TIP3   OH213848   4.894   4.738   0.697
 4636TIP3    H113849   4.931   4.782   0.774
 4636TIP3    H213850   4.832   4.675   0.734
 4637TIP3   OH213851   1.050   1.015   5.422
 4637TIP3    H113852   1.105   1.020   5.343
 4637TIP3    H213853   1.110   0.985   5.490
 4638TIP3   OH213854   8.248   1.742   4.810
 4638TIP3    H113855   8.239   1.690   4.730
 4638TIP3    H213856   8.342   1.741   4.828
 4639TIP3   OH213857   6.668   4.757   4.394
 4639TIP3    H113858   6.643   4.678   4.347
 4639TIP3    H213859   6.639   4.742   4.484
 4640TIP3   OH213860   7.289   7.775   4.675
 4640TIP3    H113861   7.287   7.775   4.771
 4640TIP3    H213862   7.325   7.861   4.652
 4641TIP3   OH213863   5.982   3.615   0.051
 4641TIP3    H113864   5.957   3.656   0.134
 4641TIP3    H213865   5.902   3.616  -0.001
 4642TIP3   OH213866   4.197   5.733   5.247
 4642TIP3    H113867   4.167   5.772   5.329
 4642TIP3    H213868   4.275   5.783   5.224
 4643TIP3   OH213869   7.275   4.581   3.574
 4643TIP3    H113870   7.295   4.558   3.483
 4643TIP3    H213871   7.360   4.603   3.612
 4644TIP3   OH213872   6.317   2.716   5.827
 4644TIP3    H113873   6.383   2.648   5.840
 4644TIP3    H213874   6.368   2.797   5.818
 4645TIP3   OH213875   5.301   6.452   0.688
 4645TIP3    H113876   5.385   6.419   0.719
 4645TIP3    H213877   5.251   6.471   0.768
 4646TIP3   OH213878   5.894   6.133   2.483
 4646TIP3    H113879   5.983   6.169   2.477
 4646TIP3    H213880   5.854   6.157   2.400
 4647TIP3   OH213881   7.242   0.911   6.795
 4647TIP3    H113882   7.335   0.895   6.810
 4647TIP3    H213883   7.198   0.842   6.844
 4648TIP3   OH213884   4.843   1.474   4.096
 4648TIP3    H113885   4.768   1.473   4.037
 4648TIP3    H213886   4.806   1.462   4.183
 4649TIP3   OH213887   4.873   2.305   2.390
 4649TIP3    H113888   4.780   2.292   2.410
 4649TIP3    H213889   4.890   2.397   2.414
 4650TIP3   OH213890   5.847   6.435   4.418
 4650TIP3    H113891   5.779   6.476   4.365
 4650TIP3    H213892   5.899   6.384   4.355
 4651TIP3   OH213893   5.404   6.799   4.453
 4651TIP3    H113894   5.499   6.795   4.443
 4651TIP3    H213895   5.371   6.738   4.387
 4652TIP3   OH213896   2.648   0.803   6.596
 4652TIP3    H113897   2.652   0.879   6.539
 4652TIP3    H213898   2.696   0.830   6.675
 4653TIP3   OH213899   0.669   2.486   4.353
 4653TIP3    H113900   0.655   2.512   4.444
 4653TIP3    H213901   0.697   2.567   4.310
 4654TIP3   OH213902   3.510   1.884   1.385
 4654TIP3    H113903   3.473   1.923   1.305
 4654TIP3    H213904   3.473   1.936   1.456
 4655TIP3   OH213905   4.294   5.439   0.390
 4655TIP3    H113906   4.286   5.517   0.445
 4655TIP3    H213907   4.222   5.382   0.419
 4656TIP3   OH213908   6.241   7.267   5.478
 4656TIP3    H113909   6.290   7.243   5.399
 4656TIP3    H213910   6.299   7.241   5.550
 4657TIP3   OH213911   5.571   6.259   2.093
 4657TIP3    H113912   5.538   6.343   2.124
 4657TIP3    H213913   5.494   6.212   2.064
 4658TIP3   OH213914   0.608   1.852   5.988
 4658TIP3    H113915   0.695   1.840   5.950
 4658TIP3    H213916   0.566   1.766   5.981
 4659TIP3   OH213917   2.079   2.613   3.915
 4659TIP3    H113918   2.117   2.690   3.959
 4659TIP3    H213919   2.082   2.544   3.980
 4660TIP3   OH213920   4.844   7.463   6.787
 4660TIP3    H113921   4.771   7.513   6.825
 4660TIP3    H213922   4.801   7.394   6.737
 4661TIP3   OH213923   7.935   1.874   0.590
 4661TIP3    H113924   7.978   1.877   0.505
 4661TIP3    H213925   7.910   1.782   0.601
 4662TIP3   OH213926   5.172   0.470   4.360
 4662TIP3    H113927   5.181   0.375   4.358
 4662TIP3    H213928   5.108   0.487   4.429
 4663TIP3   OH213929   1.152   7.156   2.178
 4663TIP3    H113930   1.152   7.235   2.233
 4663TIP3    H213931   1.114   7.185   2.095
 4664TIP3   OH213932   6.226   0.677   0.495
 4664TIP3    H113933   6.291   0.744   0.476
 4664TIP3    H213934   6.266   0.595   0.465
 4665TIP3   OH213935   4.339   3.664   6.111
 4665TIP3    H113936   4.431   3.654   6.133
 4665TIP3    H213937   4.296   3.685   6.194
 4666TIP3   OH213938   0.229   2.699   2.076
 4666TIP3    H113939   0.169   2.729   2.007
 4666TIP3    H213940   0.199   2.745   2.154
 4667TIP3   OH213941   3.781   6.580   2.623
 4667TIP3    H113942   3.780   6.646   2.554
 4667TIP3    H213943   3.843   6.514   2.592
 4668TIP3   OH213944   7.054   2.810   2.731
 4668TIP3    H113945   7.015   2.893   2.704
 4668TIP3    H213946   6.988   2.744   2.711
 4669TIP3   OH213947   3.914   0.575   6.090
 4669TIP3    H113948   3.863   0.541   6.017
 4669TIP3    H213949   3.928   0.667   6.069
 4670TIP3   OH213950   0.878   6.532   2.078
 4670TIP3    H113951   0.906   6.510   2.167
 4670TIP3    H213952   0.870   6.628   2.079
 4671TIP3   OH213953   7.189   5.694   0.448
 4671TIP3    H113954   7.151   5.765   0.500
 4671TIP3    H213955   7.166   5.716   0.358
 4672TIP3   OH213956   4.906   6.837   2.181
 4672TIP3    H113957   4.912   6.868   2.091
 4672TIP3    H213958   4.832   6.777   2.181
 4673TIP3   OH213959   2.465   2.228   3.097
 4673TIP3    H113960   2.438   2.284   3.169
 4673TIP3    H213961   2.553   2.200   3.121
 4674TIP3   OH213962   6.513   6.922   0.792
 4674TIP3    H113963   6.489   6.830   0.781
 4674TIP3    H213964   6.464   6.949   0.870
 4675TIP3   OH213965   7.048   0.484   0.669
 4675TIP3    H113966   6.985   0.414   0.684
 4675TIP3    H213967   7.061   0.524   0.755
 4676TIP3   OH213968   4.346   4.688   2.865
 4676TIP3    H113969   4.292   4.610   2.859
 4676TIP3    H213970   4.327   4.723   2.952
 4677TIP3   OH213971   0.573   2.587   0.663
 4677TIP3    H113972   0.534   2.505   0.630
 4677TIP3    H213973   0.628   2.559   0.737
 4678TIP3   OH213974   1.153   3.395  -0.019
 4678TIP3    H113975   1.226   3.344   0.015
 4678TIP3    H213976   1.148   3.471   0.038
 4679TIP3   OH213977   7.709   4.841   4.023
 4679TIP3    H113978   7.719   4.889   4.105
 4679TIP3    H213979   7.793   4.795   4.011
 4680TIP3   OH213980   6.525   2.609   4.013
 4680TIP3    H113981   6.577   2.680   4.051
 4680TIP3    H213982   6.482   2.568   4.088
 4681TIP3   OH213983   0.620   7.369   5.765
 4681TIP3    H113984   0.687   7.417   5.813
 4681TIP3    H213985   0.645   7.380   5.673
 4682TIP3   OH213986   6.266   7.482   4.409
 4682TIP3    H113987   6.326   7.468   4.336
 4682TIP3    H213988   6.322   7.508   4.482
 4683TIP3   OH213989   7.319   4.852   4.657
 4683TIP3    H113990   7.282   4.911   4.592
 4683TIP3    H213991   7.261   4.859   4.732
 4684TIP3   OH213992   5.893   0.561   2.653
 4684TIP3    H113993   5.939   0.636   2.613
 4684TIP3    H213994   5.822   0.541   2.592
 4685TIP3   OH213995   1.407   2.630   6.112
 4685TIP3    H113996   1.405   2.719   6.149
 4685TIP3    H213997   1.496   2.621   6.078
 4686TIP3   OH213998   6.229   4.701   1.093
 4686TIP3    H113999   6.200   4.696   1.184
 4686TIP3    H214000   6.324   4.709   1.098
 4687TIP3   OH214001   2.708   4.418   0.717
 4687TIP3    H114002   2.744   4.504   0.738
 4687TIP3    H214003   2.628   4.437   0.667
 4688TIP3   OH214004   3.411   6.942   5.125
 4688TIP3    H114005   3.478   6.945   5.057
 4688TIP3    H214006   3.370   7.028   5.123
 4689TIP3   OH214007   0.983   0.585   1.252
 4689TIP3    H114008   0.948   0.543   1.330
 4689TIP3    H214009   0.930   0.551   1.180
 4690TIP3   OH214010   1.586   2.339   4.658
 4690TIP3    H114011   1.510   2.287   4.684
 4690TIP3    H214012   1.583   2.339   4.562
 4691TIP3   OH214013   8.279   0.472   4.022
 4691TIP3    H114014   8.336   0.537   4.064
 4691TIP3    H214015   8.302   0.390   4.066
 4692TIP3   OH214016   1.555   7.559   5.497
 4692TIP3    H114017   1.587   7.566   5.587
 4692TIP3    H214018   1.462   7.582   5.503
 4693TIP3   OH214019   7.377   3.094   6.653
 4693TIP3    H114020   7.401   3.012   6.610
 4693TIP3    H214021   7.284   3.106   6.633
 4694TIP3   OH214022   2.055   4.368   3.565
 4694TIP3    H114023   2.096   4.400   3.485
 4694TIP3    H214024   2.113   4.396   3.635
 4695TIP3   OH214025   0.984   0.337   5.487
 4695TIP3    H114026   1.056   0.277   5.469
 4695TIP3    H214027   0.987   0.348   5.582
 4696TIP3   OH214028   1.843   5.540   6.684
 4696TIP3    H114029   1.830   5.625   6.642
 4696TIP3    H214030   1.762   5.492   6.665
 4697TIP3   OH214031   6.203   1.636   4.273
 4697TIP3    H114032   6.255   1.583   4.333
 4697TIP3    H214033   6.246   1.722   4.273
 4698TIP3   OH214034   0.695   6.713   4.096
 4698TIP3    H114035   0.687   6.622   4.066
 4698TIP3    H214036   0.657   6.713   4.184
 4699TIP3   OH214037   8.102   4.787   0.932
 4699TIP3    H114038   8.061   4.869   0.962
 4699TIP3    H214039   8.147   4.754   1.009
 4700TIP3   OH214040   6.958   6.857   5.763
 4700TIP3    H114041   6.950   6.884   5.855
 4700TIP3    H214042   6.943   6.937   5.713
 4701TIP3   OH214043   4.193   6.297   5.638
 4701TIP3    H114044   4.267   6.341   5.679
 4701TIP3    H214045   4.127   6.291   5.708
 4702TIP3   OH214046   2.312   0.324   3.891
 4702TIP3    H114047   2.396   0.281   3.873
 4702TIP3    H214048   2.286   0.362   3.807
 4703TIP3   OH214049   5.568   3.681   6.339
 4703TIP3    H114050   5.559   3.607   6.278
 4703TIP3    H214051   5.567   3.641   6.426
 4704TIP3   OH214052   1.540   2.912   5.085
 4704TIP3    H114053   1.600   2.864   5.142
 4704TIP3    H214054   1.567   2.888   4.996
 4705TIP3   OH214055   7.151   4.898   1.290
 4705TIP3    H114056   7.109   4.877   1.373
 4705TIP3    H214057   7.096   4.857   1.223
 4706TIP3   OH214058   0.741   3.491   4.768
 4706TIP3    H114059   0.836   3.502   4.760
 4706TIP3    H214060   0.723   3.406   4.728
 4707TIP3   OH214061   5.355   6.931   1.327
 4707TIP3    H114062   5.261   6.949   1.325
 4707TIP3    H214063   5.379   6.920   1.235
 4708TIP3   OH214064   7.545   1.066   2.527
 4708TIP3    H114065   7.608   0.996   2.538
 4708TIP3    H214066   7.465   1.033   2.567
 4709TIP3   OH214067   0.044   7.399   4.611
 4709TIP3    H114068  -0.012   7.323   4.620
 4709TIP3    H214069   0.040   7.442   4.697
 4710TIP3   OH214070   7.839   1.812   0.296
 4710TIP3    H114071   7.870   1.902   0.288
 4710TIP3    H214072   7.873   1.768   0.218
 4711TIP3   OH214073   2.486   7.393   1.049
 4711TIP3    H114074   2.505   7.460   1.114
 4711TIP3    H214075   2.484   7.441   0.966
 4712TIP3   OH214076   7.288   2.186   5.095
 4712TIP3    H114077   7.212   2.144   5.055
 4712TIP3    H214078   7.254   2.222   5.178
 4713TIP3   OH214079   4.393   3.765   0.833
 4713TIP3    H114080   4.375   3.798   0.922
 4713TIP3    H214081   4.422   3.675   0.847
 4714TIP3   OH214082   4.735   3.352   3.674
 4714TIP3    H114083   4.740   3.373   3.767
 4714TIP3    H214084   4.807   3.290   3.659
 4715TIP3   OH214085   5.362   0.771   3.159
 4715TIP3    H114086   5.316   0.687   3.154
 4715TIP3    H214087   5.425   0.760   3.230
 4716TIP3   OH214088   4.819   6.657   6.231
 4716TIP3    H114089   4.724   6.659   6.224
 4716TIP3    H214090   4.850   6.711   6.159
 4717TIP3   OH214091   4.025   6.347   6.470
 4717TIP3    H114092   3.943   6.315   6.506
 4717TIP3    H214093   4.085   6.349   6.544
 4718TIP3   OH214094   2.197   4.293   5.096
 4718TIP3    H114095   2.232   4.221   5.044
 4718TIP3    H214096   2.103   4.290   5.082
 4719TIP3   OH214097   2.316   5.299   6.866
 4719TIP3    H114098   2.241   5.250   6.833
 4719TIP3    H214099   2.349   5.247   6.939
 4720TIP3   OH214100   1.296   3.445   1.092
 4720TIP3    H114101   1.386   3.465   1.118
 4720TIP3    H214102   1.305   3.399   1.008
 4721TIP3   OH214103   3.315   1.098   5.560
 4721TIP3    H114104   3.227   1.114   5.526
 4721TIP3    H214105   3.372   1.104   5.483
 4722TIP3   OH214106   3.721   4.430   0.373
 4722TIP3    H114107   3.642   4.395   0.414
 4722TIP3    H214108   3.691   4.508   0.326
 4723TIP3   OH214109   4.206   7.163   6.878
 4723TIP3    H114110   4.168   7.098   6.819
 4723TIP3    H214111   4.297   7.171   6.850
 4724TIP3   OH214112   2.833   1.137   5.875
 4724TIP3    H114113   2.823   1.066   5.811
 4724TIP3    H214114   2.919   1.175   5.856
 4725TIP3   OH214115   2.638   0.445   0.030
 4725TIP3    H114116   2.561   0.387   0.034
 4725TIP3    H214117   2.713   0.385   0.029
 4726TIP3   OH214118   3.197   5.780   0.558
 4726TIP3    H114119   3.150   5.703   0.527
 4726TIP3    H214120   3.289   5.761   0.540
 4727TIP3   OH214121   4.497   4.762   6.032
 4727TIP3    H114122   4.584   4.783   6.065
 4727TIP3    H214123   4.462   4.846   6.001
 4728TIP3   OH214124   3.914   7.204   2.133
 4728TIP3    H114125   3.890   7.247   2.215
 4728TIP3    H214126   3.837   7.216   2.077
 4729TIP3   OH214127   7.054   0.622   1.222
 4729TIP3    H114128   7.129   0.681   1.236
 4729TIP3    H214129   6.993   0.644   1.292
 4730TIP3   OH214130   4.549   4.909   2.954
 4730TIP3    H114131   4.597   4.865   3.025
 4730TIP3    H214132   4.483   4.845   2.927
 4731TIP3   OH214133   1.049   6.898   3.177
 4731TIP3    H114134   0.979   6.946   3.134
 4731TIP3    H214135   1.083   6.959   3.243
 4732TIP3   OH214136   5.475   5.585   0.424
 4732TIP3    H114137   5.569   5.598   0.412
 4732TIP3    H214138   5.467   5.534   0.504
 4733TIP3   OH214139   1.714   0.697   4.232
 4733TIP3    H114140   1.692   0.682   4.140
 4733TIP3    H214141   1.708   0.610   4.272
 4734TIP3   OH214142   3.049   3.026   1.778
 4734TIP3    H114143   2.990   3.069   1.839
 4734TIP3    H214144   3.000   2.951   1.745
 4735TIP3   OH214145   0.382   4.502   1.209
 4735TIP3    H114146   0.326   4.562   1.160
 4735TIP3    H214147   0.335   4.488   1.291
 4736TIP3   OH214148   3.490   1.566   0.775
 4736TIP3    H114149   3.416   1.529   0.823
 4736TIP3    H214150   3.551   1.596   0.844
 4737TIP3   OH214151   3.926   1.196   0.509
 4737TIP3    H114152   3.914   1.132   0.579
 4737TIP3    H214153   4.017   1.185   0.481
 4738TIP3   OH214154   3.357   4.494   3.451
 4738TIP3    H114155   3.273   4.530   3.423
 4738TIP3    H214156   3.396   4.458   3.371
 4739TIP3   OH214157   0.840   4.598   1.812
 4739TIP3    H114158   0.931   4.626   1.817
 4739TIP3    H214159   0.809   4.633   1.728
 4740TIP3   OH214160   2.060   3.583   1.665
 4740TIP3    H114161   2.016   3.667   1.679
 4740TIP3    H214162   2.102   3.564   1.749
 4741TIP3   OH214163   2.112   5.595   5.056
 4741TIP3    H114164   2.179   5.597   4.987
 4741TIP3    H214165   2.091   5.503   5.066
 4742TIP3   OH214166   3.857   6.180   4.896
 4742TIP3    H114167   3.940   6.183   4.850
 4742TIP3    H214168   3.812   6.103   4.861
 4743TIP3   OH214169   2.150   2.247   4.766
 4743TIP3    H114170   2.187   2.159   4.766
 4743TIP3    H214171   2.205   2.296   4.705
 4744TIP3   OH214172   1.826   1.931   1.908
 4744TIP3    H114173   1.797   1.872   1.839
 4744TIP3    H214174   1.805   2.019   1.875
 4745TIP3   OH214175   4.914   6.192   4.530
 4745TIP3    H114176   4.927   6.170   4.622
 4745TIP3    H214177   4.840   6.253   4.530
 4746TIP3   OH214178   6.186   6.023   1.669
 4746TIP3    H114179   6.219   6.089   1.731
 4746TIP3    H214180   6.186   5.942   1.719
 4747TIP3   OH214181   0.119   0.257   0.570
 4747TIP3    H114182   0.075   0.288   0.490
 4747TIP3    H214183   0.095   0.165   0.576
 4748TIP3   OH214184   2.895   5.413   0.783
 4748TIP3    H114185   2.938   5.493   0.813
 4748TIP3    H214186   2.814   5.409   0.833
 4749TIP3   OH214187   6.917   2.108   5.201
 4749TIP3    H114188   6.843   2.141   5.251
 4749TIP3    H214189   6.954   2.185   5.158
 4750TIP3   OH214190   6.775   3.320   2.101
 4750TIP3    H114191   6.769   3.362   2.187
 4750TIP3    H214192   6.842   3.371   2.055
 4751TIP3   OH214193   6.234   0.677   1.096
 4751TIP3    H114194   6.193   0.681   1.010
 4751TIP3    H214195   6.161   0.669   1.158
 4752TIP3   OH214196   3.822   2.783   5.137
 4752TIP3    H114197   3.771   2.730   5.075
 4752TIP3    H214198   3.853   2.856   5.084
 4753TIP3   OH214199   5.131   5.934   1.627
 4753TIP3    H114200   5.123   5.977   1.712
 4753TIP3    H214201   5.070   5.861   1.630
 4754TIP3   OH214202   0.371   7.689   5.898
 4754TIP3    H114203   0.363   7.640   5.980
 4754TIP3    H214204   0.407   7.774   5.924
 4755TIP3   OH214205   5.022   7.639   6.705
 4755TIP3    H114206   4.985   7.552   6.694
 4755TIP3    H214207   4.988   7.669   6.790
 4756TIP3   OH214208   2.821   3.861   0.420
 4756TIP3    H114209   2.839   3.794   0.355
 4756TIP3    H214210   2.904   3.909   0.429
 4757TIP3   OH214211   5.507   3.086   5.294
 4757TIP3    H114212   5.513   3.127   5.207
 4757TIP3    H214213   5.466   3.153   5.349
 4758TIP3   OH214214   0.134   5.295   5.027
 4758TIP3    H114215   0.076   5.286   5.102
 4758TIP3    H214216   0.156   5.205   5.002
 4759TIP3   OH214217   5.729   6.624   5.921
 4759TIP3    H114218   5.695   6.714   5.916
 4759TIP3    H214219   5.650   6.569   5.920
 4760TIP3   OH214220   5.071   0.410  -0.004
 4760TIP3    H114221   5.114   0.361   0.065
 4760TIP3    H214222   5.070   0.501   0.027
 4761TIP3   OH214223   1.209   5.547   1.220
 4761TIP3    H114224   1.253   5.631   1.232
 4761TIP3    H214225   1.233   5.520   1.131
 4762TIP3   OH214226   2.121   7.333   3.463
 4762TIP3    H114227   2.163   7.261   3.510
 4762TIP3    H214228   2.066   7.376   3.528
 4763TIP3   OH214229   7.872   6.902   5.398
 4763TIP3    H114230   7.916   6.827   5.438
 4763TIP3    H214231   7.800   6.863   5.348
 4764TIP3   OH214232   4.337   6.957   3.098
 4764TIP3    H114233   4.382   6.873   3.091
 4764TIP3    H214234   4.244   6.934   3.093
 4765TIP3   OH214235   5.321   1.072   3.648
 4765TIP3    H114236   5.374   0.994   3.666
 4765TIP3    H214237   5.269   1.084   3.728
 4766TIP3   OH214238   3.036   6.169   2.036
 4766TIP3    H114239   3.123   6.199   2.061
 4766TIP3    H214240   3.030   6.186   1.942
 4767TIP3   OH214241   1.819   3.854   0.191
 4767TIP3    H114242   1.807   3.940   0.231
 4767TIP3    H214243   1.868   3.872   0.110
 4768TIP3   OH214244   6.657   0.501   1.631
 4768TIP3    H114245   6.662   0.407   1.616
 4768TIP3    H214246   6.595   0.533   1.566
 4769TIP3   OH214247   2.954   4.496   6.400
 4769TIP3    H114248   3.039   4.509   6.443
 4769TIP3    H214249   2.911   4.581   6.407
 4770TIP3   OH214250   4.017   3.847   2.973
 4770TIP3    H114251   4.044   3.866   3.063
 4770TIP3    H214252   3.938   3.794   2.982
 4771TIP3   OH214253   0.591   4.430   1.786
 4771TIP3    H114254   0.669   4.486   1.782
 4771TIP3    H214255   0.595   4.379   1.705
 4772TIP3   OH214256   4.852   1.784   4.701
 4772TIP3    H114257   4.815   1.701   4.731
 4772TIP3    H214258   4.839   1.844   4.774
 4773TIP3   OH214259   8.301   4.842   1.210
 4773TIP3    H114260   8.206   4.853   1.213
 4773TIP3    H214261   8.318   4.806   1.122
 4774TIP3   OH214262   7.111   7.236   3.517
 4774TIP3    H114263   7.089   7.322   3.482
 4774TIP3    H214264   7.146   7.188   3.442
 4775TIP3   OH214265   0.170   5.225   2.833
 4775TIP3    H114266   0.169   5.317   2.859
 4775TIP3    H214267   0.090   5.188   2.870
 4776TIP3   OH214268   3.996   1.034   0.904
 4776TIP3    H114269   4.042   0.951   0.916
 4776TIP3    H214270   3.909   1.009   0.872
 4777TIP3   OH214271   7.489   2.049   4.730
 4777TIP3    H114272   7.497   2.128   4.783
 4777TIP3    H214273   7.399   2.051   4.697
 4778TIP3   OH214274   1.474   3.235   3.395
 4778TIP3    H114275   1.469   3.194   3.481
 4778TIP3    H214276   1.527   3.314   3.409
 4779TIP3   OH214277   1.685   2.780   6.593
 4779TIP3    H114278   1.709   2.737   6.511
 4779TIP3    H214279   1.612   2.837   6.570
 4780TIP3   OH214280   6.839   3.686   3.262
 4780TIP3    H114281   6.837   3.607   3.316
 4780TIP3    H214282   6.760   3.734   3.289
 4781TIP3   OH214283   5.796   1.124   5.444
 4781TIP3    H114284   5.812   1.190   5.512
 4781TIP3    H214285   5.718   1.077   5.474
 4782TIP3   OH214286   3.319   2.622   2.028
 4782TIP3    H114287   3.239   2.661   2.062
 4782TIP3    H214288   3.389   2.679   2.060
 4783TIP3   OH214289   6.235   5.970   2.818
 4783TIP3    H114290   6.321   5.994   2.853
 4783TIP3    H214291   6.175   5.980   2.892
 4784TIP3   OH214292   3.017   1.802   2.007
 4784TIP3    H114293   3.058   1.722   2.041
 4784TIP3    H214294   3.020   1.790   1.912
 4785TIP3   OH214295   5.843   1.295   4.986
 4785TIP3    H114296   5.762   1.284   4.937
 4785TIP3    H214297   5.818   1.286   5.078
 4786TIP3   OH214298   1.524   6.537   0.939
 4786TIP3    H114299   1.563   6.471   0.881
 4786TIP3    H214300   1.463   6.585   0.884
 4787TIP3   OH214301   4.180   4.376   0.772
 4787TIP3    H114302   4.271   4.382   0.799
 4787TIP3    H214303   4.133   4.347   0.851
 4788TIP3   OH214304   2.470   6.426   5.989
 4788TIP3    H114305   2.415   6.502   5.969
 4788TIP3    H214306   2.504   6.443   6.077
 4789TIP3   OH214307   1.799   3.225   6.731
 4789TIP3    H114308   1.703   3.223   6.732
 4789TIP3    H214309   1.824   3.165   6.801
 4790TIP3   OH214310   3.999   3.267   0.937
 4790TIP3    H114311   3.990   3.324   0.861
 4790TIP3    H214312   4.073   3.302   0.986
 4791TIP3   OH214313   5.781   6.691   3.308
 4791TIP3    H114314   5.877   6.690   3.314
 4791TIP3    H214315   5.752   6.656   3.393
 4792TIP3   OH214316   8.001   5.693   6.293
 4792TIP3    H114317   8.053   5.751   6.348
 4792TIP3    H214318   7.990   5.741   6.211
 4793TIP3   OH214319   4.805   1.798   5.730
 4793TIP3    H114320   4.826   1.826   5.819
 4793TIP3    H214321   4.860   1.721   5.716
 4794TIP3   OH214322   6.224   6.138   6.834
 4794TIP3    H114323   6.140   6.149   6.790
 4794TIP3    H214324   6.244   6.045   6.825
 4795TIP3   OH214325   1.472   1.465   2.141
 4795TIP3    H114326   1.439   1.554   2.146
 4795TIP3    H214327   1.419   1.424   2.072
 4796TIP3   OH214328   5.217   7.865   2.120
 4796TIP3    H114329   5.300   7.904   2.149
 4796TIP3    H214330   5.207   7.894   2.030
 4797TIP3   OH214331   3.028   7.320   6.137
 4797TIP3    H114332   3.120   7.330   6.115
 4797TIP3    H214333   2.983   7.385   6.083
 4798TIP3   OH214334   6.137   4.661   2.312
 4798TIP3    H114335   6.173   4.577   2.283
 4798TIP3    H214336   6.046   4.660   2.282
 4799TIP3   OH214337   2.812   5.644   1.154
 4799TIP3    H114338   2.829   5.738   1.162
 4799TIP3    H214339   2.880   5.603   1.207
 4800TIP3   OH214340   4.370   0.571   3.753
 4800TIP3    H114341   4.297   0.629   3.771
 4800TIP3    H214342   4.444   0.629   3.738
 4801TIP3   OH214343   4.571   6.141   4.558
 4801TIP3    H114344   4.540   6.230   4.567
 4801TIP3    H214345   4.563   6.103   4.646
 4802TIP3   OH214346   2.722   5.115   3.172
 4802TIP3    H114347   2.751   5.108   3.081
 4802TIP3    H214348   2.627   5.103   3.169
 4803TIP3   OH214349   2.097   1.909   6.503
 4803TIP3    H114350   2.132   1.902   6.591
 4803TIP3    H214351   2.100   1.819   6.469
 4804TIP3   OH214352   0.537   5.848   0.250
 4804TIP3    H114353   0.590   5.771   0.268
 4804TIP3    H214354   0.600   5.921   0.248
 4805TIP3   OH214355   1.580   5.843   6.387
 4805TIP3    H114356   1.641   5.825   6.316
 4805TIP3    H214357   1.494   5.825   6.350
 4806TIP3   OH214358   0.697   1.232   2.486
 4806TIP3    H114359   0.664   1.308   2.534
 4806TIP3    H214360   0.651   1.158   2.525
 4807TIP3   OH214361   7.045   1.304   2.401
 4807TIP3    H114362   7.011   1.345   2.480
 4807TIP3    H214363   7.093   1.228   2.433
 4808TIP3   OH214364   4.729   0.471   4.566
 4808TIP3    H114365   4.645   0.467   4.610
 4808TIP3    H214366   4.712   0.522   4.486
 4809TIP3   OH214367   6.686   6.748   3.527
 4809TIP3    H114368   6.682   6.681   3.459
 4809TIP3    H214369   6.749   6.812   3.495
 4810TIP3   OH214370   7.691   3.213   3.873
 4810TIP3    H114371   7.611   3.264   3.858
 4810TIP3    H214372   7.730   3.252   3.952
 4811TIP3   OH214373   5.185   3.566   6.166
 4811TIP3    H114374   5.206   3.611   6.084
 4811TIP3    H214375   5.215   3.476   6.153
 4812TIP3   OH214376   7.170   0.597   1.891
 4812TIP3    H114377   7.103   0.617   1.826
 4812TIP3    H214378   7.239   0.661   1.875
 4813TIP3   OH214379   2.409   2.879   3.058
 4813TIP3    H114380   2.318   2.852   3.060
 4813TIP3    H214381   2.410   2.957   3.003
 4814TIP3   OH214382   7.921   5.652   1.052
 4814TIP3    H114383   7.827   5.661   1.034
 4814TIP3    H214384   7.935   5.558   1.059
 4815TIP3   OH214385   6.905   5.103   5.306
 4815TIP3    H114386   6.840   5.036   5.327
 4815TIP3    H214387   6.858   5.186   5.313
 4816TIP3   OH214388   1.520   7.139   2.254
 4816TIP3    H114389   1.463   7.179   2.320
 4816TIP3    H214390   1.594   7.104   2.303
 4817TIP3   OH214391   0.765   2.018   3.731
 4817TIP3    H114392   0.783   2.055   3.645
 4817TIP3    H214393   0.682   2.057   3.757
 4818TIP3   OH214394   0.213   2.818   2.331
 4818TIP3    H114395   0.245   2.881   2.395
 4818TIP3    H214396   0.122   2.801   2.358
 4819TIP3   OH214397   6.901   7.870   2.858
 4819TIP3    H114398   6.944   7.829   2.783
 4819TIP3    H214399   6.948   7.952   2.871
 4820TIP3   OH214400   4.054   7.813   5.938
 4820TIP3    H114401   4.040   7.763   6.019
 4820TIP3    H214402   4.007   7.765   5.871
 4821TIP3   OH214403   4.533   2.967   5.261
 4821TIP3    H114404   4.601   2.948   5.327
 4821TIP3    H214405   4.452   2.972   5.311
 4822TIP3   OH214406   0.383   3.164   6.149
 4822TIP3    H114407   0.385   3.174   6.244
 4822TIP3    H214408   0.333   3.084   6.134
 4823TIP3   OH214409   8.263   7.219   2.911
 4823TIP3    H114410   8.296   7.246   2.996
 4823TIP3    H214411   8.339   7.179   2.868
 4824TIP3   OH214412   7.862   2.005   3.233
 4824TIP3    H114413   7.804   2.078   3.252
 4824TIP3    H214414   7.896   2.023   3.145
 4825TIP3   OH214415   5.037   4.276   2.474
 4825TIP3    H114416   4.968   4.333   2.439
 4825TIP3    H214417   5.075   4.235   2.396
 4826TIP3   OH214418   6.599   0.613   3.613
 4826TIP3    H114419   6.528   0.665   3.575
 4826TIP3    H214420   6.665   0.610   3.544
 4827TIP3   OH214421   2.161   7.678   1.896
 4827TIP3    H114422   2.165   7.670   1.801
 4827TIP3    H214423   2.252   7.690   1.923
 4828TIP3   OH214424   1.223   7.806   4.843
 4828TIP3    H114425   1.315   7.828   4.828
 4828TIP3    H214426   1.206   7.733   4.784
 4829TIP3   OH214427   7.417   3.543   1.530
 4829TIP3    H114428   7.395   3.634   1.510
 4829TIP3    H214429   7.396   3.496   1.449
 4830TIP3   OH214430   5.959   1.834   5.368
 4830TIP3    H114431   5.875   1.871   5.395
 4830TIP3    H214432   5.937   1.770   5.301
 4831TIP3   OH214433   8.087   2.273   3.108
 4831TIP3    H114434   8.170   2.308   3.141
 4831TIP3    H214435   8.026   2.288   3.180
 4832TIP3   OH214436   6.956   3.766   0.160
 4832TIP3    H114437   6.940   3.773   0.254
 4832TIP3    H214438   6.876   3.728   0.125
 4833TIP3   OH214439   2.020   3.925   6.537
 4833TIP3    H114440   2.084   3.996   6.548
 4833TIP3    H214441   2.001   3.897   6.627
 4834TIP3   OH214442   2.323   1.799   5.143
 4834TIP3    H114443   2.284   1.842   5.067
 4834TIP3    H214444   2.265   1.725   5.162
 4835TIP3   OH214445   2.831   4.275   6.475
 4835TIP3    H114446   2.882   4.338   6.424
 4835TIP3    H214447   2.865   4.284   6.564
 4836TIP3   OH214448   2.136   3.331   6.055
 4836TIP3    H114449   2.215   3.292   6.091
 4836TIP3    H214450   2.064   3.285   6.099
 4837TIP3   OH214451   4.562   5.687   6.476
 4837TIP3    H114452   4.553   5.743   6.553
 4837TIP3    H214453   4.589   5.747   6.406
 4838TIP3   OH214454   4.718   4.680   4.530
 4838TIP3    H114455   4.785   4.725   4.581
 4838TIP3    H214456   4.766   4.622   4.472
 4839TIP3   OH214457   6.912   0.518   5.663
 4839TIP3    H114458   6.934   0.492   5.573
 4839TIP3    H214459   6.832   0.469   5.683
 4840TIP3   OH214460   7.644   3.491   2.192
 4840TIP3    H114461   7.700   3.553   2.146
 4840TIP3    H214462   7.608   3.435   2.122
 4841TIP3   OH214463   2.321   0.019   5.537
 4841TIP3    H114464   2.253   0.082   5.513
 4841TIP3    H214465   2.399   0.074   5.553
 4842TIP3   OH214466   6.469   7.123   0.123
 4842TIP3    H114467   6.386   7.077   0.107
 4842TIP3    H214468   6.467   7.144   0.216
 4843TIP3   OH214469   0.917   3.929   5.128
 4843TIP3    H114470   0.831   3.962   5.103
 4843TIP3    H214471   0.950   3.885   5.049
 4844TIP3   OH214472   3.813   0.026   4.300
 4844TIP3    H114473   3.874   0.089   4.262
 4844TIP3    H214474   3.739   0.079   4.328
 4845TIP3   OH214475   3.888   4.946   4.563
 4845TIP3    H114476   3.865   4.871   4.619
 4845TIP3    H214477   3.875   4.913   4.474
 4846TIP3   OH214478   4.054   0.712   6.719
 4846TIP3    H114479   3.996   0.636   6.730
 4846TIP3    H214480   4.011   0.782   6.767
 4847TIP3   OH214481   1.240   5.518   0.130
 4847TIP3    H114482   1.216   5.528   0.038
 4847TIP3    H214483   1.258   5.424   0.140
 4848TIP3   OH214484   3.620   7.139   1.157
 4848TIP3    H114485   3.656   7.066   1.207
 4848TIP3    H214486   3.528   7.116   1.144
 4849TIP3   OH214487   8.056   6.154   6.789
 4849TIP3    H114488   8.117   6.171   6.861
 4849TIP3    H214489   8.092   6.202   6.714
 4850TIP3   OH214490   5.777   7.132   1.168
 4850TIP3    H114491   5.759   7.040   1.149
 4850TIP3    H214492   5.743   7.145   1.257
 4851TIP3   OH214493   1.587   7.550   0.317
 4851TIP3    H114494   1.550   7.569   0.403
 4851TIP3    H214495   1.659   7.613   0.307
 4852TIP3   OH214496   4.471   3.810   3.121
 4852TIP3    H114497   4.538   3.775   3.179
 4852TIP3    H214498   4.515   3.881   3.074
 4853TIP3   OH214499   7.630   2.139   4.148
 4853TIP3    H114500   7.539   2.132   4.176
 4853TIP3    H214501   7.644   2.233   4.136
 4854TIP3   OH214502   8.371   1.404   5.612
 4854TIP3    H114503   8.401   1.484   5.568
 4854TIP3    H214504   8.449   1.372   5.659
 4855TIP3   OH214505   6.437   3.196   3.515
 4855TIP3    H114506   6.425   3.119   3.459
 4855TIP3    H214507   6.468   3.160   3.598
 4856TIP3   OH214508   5.540   0.731   4.094
 4856TIP3    H114509   5.473   0.662   4.093
 4856TIP3    H214510   5.623   0.683   4.094
 4857TIP3   OH214511   1.881   7.833   0.591
 4857TIP3    H114512   1.938   7.907   0.569
 4857TIP3    H214513   1.939   7.757   0.593
 4858TIP3   OH214514   8.271   6.568   3.954
 4858TIP3    H114515   8.227   6.611   4.027
 4858TIP3    H214516   8.348   6.526   3.993
 4859TIP3   OH214517   3.896   2.875   6.486
 4859TIP3    H114518   3.807   2.879   6.450
 4859TIP3    H214519   3.894   2.931   6.563
 4860TIP3   OH214520   2.062   0.161   2.942
 4860TIP3    H114521   2.155   0.147   2.926
 4860TIP3    H214522   2.051   0.256   2.945
 4861TIP3   OH214523   5.258   3.659   6.549
 4861TIP3    H114524   5.211   3.742   6.560
 4861TIP3    H214525   5.324   3.660   6.618
 4862TIP3   OH214526   7.150   2.054   1.108
 4862TIP3    H114527   7.102   1.975   1.132
 4862TIP3    H214528   7.201   2.076   1.186
 4863TIP3   OH214529   2.462   5.128   2.850
 4863TIP3    H114530   2.443   5.210   2.803
 4863TIP3    H214531   2.486   5.066   2.781
 4864TIP3   OH214532   8.081   7.522   5.659
 4864TIP3    H114533   8.045   7.581   5.726
 4864TIP3    H214534   8.153   7.477   5.703
 4865TIP3   OH214535   0.613   2.855   5.155
 4865TIP3    H114536   0.527   2.819   5.177
 4865TIP3    H214537   0.620   2.845   5.060
 4866TIP3   OH214538   6.107   5.457   2.019
 4866TIP3    H114539   6.063   5.518   1.960
 4866TIP3    H214540   6.195   5.447   1.982
 4867TIP3   OH214541   1.448   5.266   0.965
 4867TIP3    H114542   1.499   5.346   0.954
 4867TIP3    H214543   1.382   5.288   1.032
 4868TIP3   OH214544   3.306   0.131   3.808
 4868TIP3    H114545   3.228   0.146   3.860
 4868TIP3    H214546   3.293   0.184   3.729
 4869TIP3   OH214547   3.350   3.808   4.424
 4869TIP3    H114548   3.393   3.787   4.507
 4869TIP3    H214549   3.376   3.898   4.405
 4870TIP3   OH214550   4.806   5.895   4.599
 4870TIP3    H114551   4.748   5.969   4.577
 4870TIP3    H214552   4.791   5.880   4.692
 4871TIP3   OH214553   2.870   4.443   3.406
 4871TIP3    H114554   2.909   4.389   3.475
 4871TIP3    H214555   2.866   4.531   3.443
 4872TIP3   OH214556   1.805   2.556   0.924
 4872TIP3    H114557   1.765   2.481   0.880
 4872TIP3    H214558   1.825   2.525   1.012
 4873TIP3   OH214559   1.424   5.283   6.311
 4873TIP3    H114560   1.519   5.273   6.313
 4873TIP3    H214561   1.395   5.256   6.398
 4874TIP3   OH214562   5.776   2.597   1.241
 4874TIP3    H114563   5.822   2.533   1.295
 4874TIP3    H214564   5.684   2.588   1.266
 4875TIP3   OH214565   3.241   0.260   5.014
 4875TIP3    H114566   3.320   0.251   4.961
 4875TIP3    H214567   3.198   0.175   5.005
 4876TIP3   OH214568   3.824   2.713   3.555
 4876TIP3    H114569   3.773   2.633   3.569
 4876TIP3    H214570   3.797   2.771   3.626
 4877TIP3   OH214571   2.540   5.601   3.749
 4877TIP3    H114572   2.575   5.531   3.805
 4877TIP3    H214573   2.612   5.623   3.690
 4878TIP3   OH214574   2.438   2.342   0.305
 4878TIP3    H114575   2.440   2.382   0.218
 4878TIP3    H214576   2.365   2.280   0.301
 4879TIP3   OH214577   7.726   3.927   1.841
 4879TIP3    H114578   7.631   3.933   1.831
 4879TIP3    H214579   7.748   3.838   1.813
 4880TIP3   OH214580   2.291   2.145   3.479
 4880TIP3    H114581   2.292   2.092   3.400
 4880TIP3    H214582   2.221   2.209   3.465
 4881TIP3   OH214583   6.763   1.856   3.608
 4881TIP3    H114584   6.676   1.885   3.638
 4881TIP3    H214585   6.789   1.923   3.545
 4882TIP3   OH214586   3.789   2.271   5.170
 4882TIP3    H114587   3.724   2.291   5.238
 4882TIP3    H214588   3.836   2.354   5.157
 4883TIP3   OH214589   4.446   3.508   5.415
 4883TIP3    H114590   4.400   3.435   5.456
 4883TIP3    H214591   4.527   3.516   5.466
 4884TIP3   OH214592   2.907   0.965   5.678
 4884TIP3    H114593   2.842   0.894   5.681
 4884TIP3    H214594   2.923   0.977   5.584
 4885TIP3   OH214595   0.603   3.241   0.354
 4885TIP3    H114596   0.633   3.196   0.433
 4885TIP3    H214597   0.587   3.331   0.383
 4886TIP3   OH214598   5.314   1.897   1.603
 4886TIP3    H114599   5.288   1.812   1.567
 4886TIP3    H214600   5.282   1.961   1.539
 4887TIP3   OH214601   3.836   6.136   3.360
 4887TIP3    H114602   3.807   6.047   3.338
 4887TIP3    H214603   3.889   6.164   3.286
 4888TIP3   OH214604   1.838   0.276   0.700
 4888TIP3    H114605   1.850   0.238   0.787
 4888TIP3    H214606   1.825   0.370   0.716
 4889TIP3   OH214607   4.133   1.927   1.301
 4889TIP3    H114608   4.164   2.015   1.280
 4889TIP3    H214609   4.039   1.929   1.284
 4890TIP3   OH214610   5.495   2.167   1.241
 4890TIP3    H114611   5.441   2.220   1.300
 4890TIP3    H214612   5.535   2.101   1.298
 4891TIP3   OH214613   8.341   0.480   2.974
 4891TIP3    H114614   8.341   0.418   3.047
 4891TIP3    H214615   8.250   0.481   2.944
 4892TIP3   OH214616   1.001   3.319   6.582
 4892TIP3    H114617   1.021   3.384   6.514
 4892TIP3    H214618   1.046   3.352   6.660
 4893TIP3   OH214619   1.494   1.004   4.566
 4893TIP3    H114620   1.570   1.058   4.589
 4893TIP3    H214621   1.531   0.921   4.537
 4894TIP3   OH214622   5.461   1.116   5.844
 4894TIP3    H114623   5.488   1.165   5.767
 4894TIP3    H214624   5.527   1.048   5.854
 4895TIP3   OH214625   2.033   2.821   2.286
 4895TIP3    H114626   2.006   2.767   2.211
 4895TIP3    H214627   1.988   2.905   2.272
 4896TIP3   OH214628   6.047   6.925   6.740
 4896TIP3    H114629   6.001   6.868   6.678
 4896TIP3    H214630   6.122   6.874   6.769
 4897TIP3   OH214631   2.357   5.858   3.349
 4897TIP3    H114632   2.313   5.913   3.413
 4897TIP3    H214633   2.295   5.786   3.332
 4898TIP3   OH214634   2.525   5.285   4.193
 4898TIP3    H114635   2.597   5.231   4.225
 4898TIP3    H214636   2.455   5.273   4.257
 4899TIP3   OH214637   7.852   0.047   4.706
 4899TIP3    H114638   7.771  -0.002   4.695
 4899TIP3    H214639   7.832   0.134   4.671
 4900TIP3   OH214640   8.250   1.550   5.845
 4900TIP3    H114641   8.268   1.461   5.874
 4900TIP3    H214642   8.253   1.546   5.749
 4901TIP3   OH214643   6.542   5.710   5.965
 4901TIP3    H114644   6.529   5.629   6.015
 4901TIP3    H214645   6.585   5.770   6.026
 4902TIP3   OH214646   0.395   7.500   5.503
 4902TIP3    H114647   0.335   7.430   5.530
 4902TIP3    H214648   0.470   7.454   5.466
 4903TIP3   OH214649   1.694   6.318   0.103
 4903TIP3    H114650   1.728   6.251   0.163
 4903TIP3    H214651   1.623   6.360   0.152
 4904TIP3   OH214652   3.053   2.312   4.731
 4904TIP3    H114653   3.027   2.380   4.793
 4904TIP3    H214654   3.003   2.235   4.757
 4905TIP3   OH214655   1.535   1.989   6.400
 4905TIP3    H114656   1.570   1.948   6.480
 4905TIP3    H214657   1.445   2.011   6.422
 4906TIP3   OH214658   7.126   4.385   3.058
 4906TIP3    H114659   7.053   4.363   3.000
 4906TIP3    H214660   7.184   4.309   3.053
 4907TIP3   OH214661   4.047   2.351   0.954
 4907TIP3    H114662   4.105   2.424   0.976
 4907TIP3    H214663   4.052   2.293   1.030
 4908TIP3   OH214664   5.251   2.450   3.694
 4908TIP3    H114665   5.238   2.487   3.607
 4908TIP3    H214666   5.234   2.356   3.682
 4909TIP3   OH214667   2.229   6.225   6.013
 4909TIP3    H114668   2.298   6.271   5.964
 4909TIP3    H214669   2.148   6.267   5.984
 4910TIP3   OH214670   3.716   7.700   3.278
 4910TIP3    H114671   3.782   7.686   3.210
 4910TIP3    H214672   3.690   7.792   3.267
 4911TIP3   OH214673   4.496   4.194   6.734
 4911TIP3    H114674   4.433   4.137   6.779
 4911TIP3    H214675   4.443   4.251   6.680
 4912TIP3   OH214676   7.879   1.516   1.047
 4912TIP3    H114677   7.919   1.571   1.115
 4912TIP3    H214678   7.842   1.579   0.985
 4913TIP3   OH214679   4.037   6.865   1.726
 4913TIP3    H114680   4.124   6.842   1.695
 4913TIP3    H214681   4.051   6.941   1.782
 4914TIP3   OH214682   1.445   0.376   1.254
 4914TIP3    H114683   1.360   0.406   1.222
 4914TIP3    H214684   1.424   0.308   1.318
 4915TIP3   OH214685   6.290   3.675   6.253
 4915TIP3    H114686   6.312   3.767   6.241
 4915TIP3    H214687   6.322   3.654   6.341
 4916TIP3   OH214688   4.916   4.739   3.680
 4916TIP3    H114689   4.948   4.657   3.642
 4916TIP3    H214690   4.881   4.714   3.765
 4917TIP3   OH214691   7.500   5.868   4.072
 4917TIP3    H114692   7.560   5.895   4.141
 4917TIP3    H214693   7.557   5.840   4.000
 4918TIP3   OH214694   7.002   2.108   6.717
 4918TIP3    H114695   7.087   2.091   6.757
 4918TIP3    H214696   7.009   2.195   6.679
 4919TIP3   OH214697   0.948   7.481   5.211
 4919TIP3    H114698   0.955   7.467   5.305
 4919TIP3    H214699   0.854   7.489   5.194
 4920TIP3   OH214700   2.586   5.371   5.386
 4920TIP3    H114701   2.586   5.285   5.429
 4920TIP3    H214702   2.587   5.351   5.293
 4921TIP3   OH214703   5.013   3.782   6.798
 4921TIP3    H114704   5.010   3.870   6.761
 4921TIP3    H214705   4.971   3.727   6.733
 4922TIP3   OH214706   3.365   2.160   2.586
 4922TIP3    H114707   3.411   2.124   2.510
 4922TIP3    H214708   3.293   2.210   2.549
 4923TIP3   OH214709   5.977   7.715   2.625
 4923TIP3    H114710   5.909   7.647   2.621
 4923TIP3    H214711   6.017   7.714   2.538
 4924TIP3   OH214712   3.102   0.974   1.838
 4924TIP3    H114713   3.110   1.049   1.897
 4924TIP3    H214714   3.007   0.963   1.825
 4925TIP3   OH214715   7.881   5.313   0.855
 4925TIP3    H114716   7.839   5.347   0.776
 4925TIP3    H214717   7.970   5.346   0.850
 4926TIP3   OH214718   4.559   0.630   4.388
 4926TIP3    H114719   4.545   0.695   4.319
 4926TIP3    H214720   4.536   0.546   4.348
 4927TIP3   OH214721   2.498   3.575   6.745
 4927TIP3    H114722   2.412   3.593   6.708
 4927TIP3    H214723   2.518   3.485   6.719
 4928TIP3   OH214724   2.479   5.630   2.770
 4928TIP3    H114725   2.475   5.534   2.767
 4928TIP3    H214726   2.491   5.650   2.863
 4929TIP3   OH214727   1.503   4.832   0.334
 4929TIP3    H114728   1.437   4.841   0.403
 4929TIP3    H214729   1.540   4.920   0.324
 4930TIP3   OH214730   1.247   4.615   4.972
 4930TIP3    H114731   1.176   4.570   5.018
 4930TIP3    H214732   1.202   4.670   4.908
 4931TIP3   OH214733   7.305   7.131   1.035
 4931TIP3    H114734   7.349   7.048   1.016
 4931TIP3    H214735   7.356   7.169   1.107
 4932TIP3   OH214736   1.900   0.620   5.575
 4932TIP3    H114737   1.974   0.662   5.531
 4932TIP3    H214738   1.919   0.526   5.570
 4933TIP3   OH214739   6.977   2.620   0.441
 4933TIP3    H114740   7.042   2.597   0.508
 4933TIP3    H214741   6.936   2.536   0.418
 4934TIP3   OH214742   4.452   4.665   3.395
 4934TIP3    H114743   4.416   4.576   3.403
 4934TIP3    H214744   4.392   4.720   3.445
 4935TIP3   OH214745   8.370   0.193   1.115
 4935TIP3    H114746   8.411   0.195   1.029
 4935TIP3    H214747   8.405   0.268   1.161
 4936TIP3   OH214748   0.420   2.796   5.541
 4936TIP3    H114749   0.440   2.702   5.542
 4936TIP3    H214750   0.329   2.801   5.512
 4937TIP3   OH214751   5.549   3.874   2.372
 4937TIP3    H114752   5.539   3.928   2.294
 4937TIP3    H214753   5.593   3.931   2.435
 4938TIP3   OH214754   0.036   3.922   6.241
 4938TIP3    H114755   0.038   3.834   6.279
 4938TIP3    H214756   0.075   3.978   6.308
 4939TIP3   OH214757   2.300   3.166   5.172
 4939TIP3    H114758   2.223   3.124   5.134
 4939TIP3    H214759   2.345   3.095   5.218
 4940TIP3   OH214760   4.400   2.591   3.842
 4940TIP3    H114761   4.415   2.572   3.935
 4940TIP3    H214762   4.396   2.686   3.837
 4941TIP3   OH214763   7.039   0.698   3.687
 4941TIP3    H114764   7.007   0.757   3.755
 4941TIP3    H214765   6.960   0.654   3.654
 4942TIP3   OH214766   6.124   6.606   2.185
 4942TIP3    H114767   6.202   6.556   2.161
 4942TIP3    H214768   6.114   6.670   2.113
 4943TIP3   OH214769   4.827   7.364   0.043
 4943TIP3    H114770   4.815   7.376  -0.051
 4943TIP3    H214771   4.882   7.287   0.051
 4944TIP3   OH214772   7.666   5.473   2.588
 4944TIP3    H114773   7.630   5.499   2.504
 4944TIP3    H214774   7.702   5.385   2.573
 4945TIP3   OH214775   0.148   0.767   0.682
 4945TIP3    H114776   0.214   0.749   0.749
 4945TIP3    H214777   0.134   0.683   0.639
 4946TIP3   OH214778   0.281   5.373   1.984
 4946TIP3    H114779   0.199   5.364   2.034
 4946TIP3    H214780   0.346   5.326   2.036
 4947TIP3   OH214781   7.442   6.208   1.688
 4947TIP3    H114782   7.410   6.292   1.721
 4947TIP3    H214783   7.479   6.165   1.765
 4948TIP3   OH214784   7.577   3.734   5.595
 4948TIP3    H114785   7.634   3.798   5.638
 4948TIP3    H214786   7.543   3.681   5.667
 4949TIP3   OH214787   3.508   3.261   0.148
 4949TIP3    H114788   3.543   3.175   0.125
 4949TIP3    H214789   3.440   3.277   0.083
 4950TIP3   OH214790   8.083   2.828   2.290
 4950TIP3    H114791   8.073   2.822   2.385
 4950TIP3    H214792   8.014   2.771   2.255
 4951TIP3   OH214793   6.987   3.418   1.930
 4951TIP3    H114794   6.947   3.471   1.861
 4951TIP3    H214795   7.062   3.469   1.960
 4952TIP3   OH214796   1.808   3.593   2.161
 4952TIP3    H114797   1.790   3.634   2.245
 4952TIP3    H214798   1.754   3.642   2.098
 4953TIP3   OH214799   1.929   7.451   1.649
 4953TIP3    H114800   1.940   7.537   1.691
 4953TIP3    H214801   1.846   7.457   1.602
 4954TIP3   OH214802   4.736   3.450   2.222
 4954TIP3    H114803   4.678   3.456   2.146
 4954TIP3    H214804   4.787   3.531   2.220
 4955TIP3   OH214805   3.344   4.069   6.376
 4955TIP3    H114806   3.312   3.986   6.413
 4955TIP3    H214807   3.391   4.111   6.449
 4956TIP3   OH214808   0.252   7.216   2.217
 4956TIP3    H114809   0.221   7.166   2.292
 4956TIP3    H214810   0.346   7.201   2.215
 4957TIP3   OH214811   7.283   5.738   1.619
 4957TIP3    H114812   7.249   5.798   1.553
 4957TIP3    H214813   7.258   5.777   1.703
 4958TIP3   OH214814   5.063   0.431   3.365
 4958TIP3    H114815   5.051   0.345   3.324
 4958TIP3    H214816   5.025   0.493   3.303
 4959TIP3   OH214817   6.225   0.743   2.137
 4959TIP3    H114818   6.178   0.660   2.141
 4959TIP3    H214819   6.207   0.777   2.050
 4960TIP3   OH214820   5.758   4.904   4.973
 4960TIP3    H114821   5.676   4.952   4.984
 4960TIP3    H214822   5.825   4.972   4.962
 4961TIP3   OH214823   0.189   3.289   3.515
 4961TIP3    H114824   0.176   3.289   3.610
 4961TIP3    H214825   0.109   3.249   3.480
 4962TIP3   OH214826   7.705   7.350   3.022
 4962TIP3    H114827   7.741   7.326   2.937
 4962TIP3    H214828   7.775   7.328   3.084
 4963TIP3   OH214829   5.888   3.201   6.034
 4963TIP3    H114830   5.885   3.220   6.128
 4963TIP3    H214831   5.966   3.147   6.024
 4964TIP3   OH214832   0.115   3.460   3.062
 4964TIP3    H114833   0.161   3.503   3.134
 4964TIP3    H214834   0.071   3.531   3.016
 4965TIP3   OH214835   1.979   6.326   6.363
 4965TIP3    H114836   1.997   6.403   6.309
 4965TIP3    H214837   2.035   6.335   6.439
 4966TIP3   OH214838   5.188   1.403   2.403
 4966TIP3    H114839   5.143   1.321   2.382
 4966TIP3    H214840   5.122   1.471   2.387
 4967TIP3   OH214841   3.343   2.351   1.674
 4967TIP3    H114842   3.255   2.362   1.709
 4967TIP3    H214843   3.330   2.332   1.581
 4968TIP3   OH214844   3.153   2.266   6.003
 4968TIP3    H114845   3.138   2.173   5.986
 4968TIP3    H214846   3.202   2.297   5.927
 4969TIP3   OH214847   0.196   0.154   4.701
 4969TIP3    H114848   0.280   0.108   4.709
 4969TIP3    H214849   0.219   0.240   4.667
 4970TIP3   OH214850   5.955   7.372   2.339
 4970TIP3    H114851   5.947   7.453   2.288
 4970TIP3    H214852   6.019   7.320   2.291
 4971TIP3   OH214853   5.493   2.639   3.606
 4971TIP3    H114854   5.440   2.587   3.545
 4971TIP3    H214855   5.580   2.640   3.567
 4972TIP3   OH214856   7.999   4.593   2.573
 4972TIP3    H114857   7.916   4.551   2.594
 4972TIP3    H214858   7.976   4.656   2.504
 4973TIP3   OH214859   4.794   2.671   3.908
 4973TIP3    H114860   4.725   2.738   3.903
 4973TIP3    H214861   4.755   2.594   3.866
 4974TIP3   OH214862   4.353   5.638   3.406
 4974TIP3    H114863   4.359   5.601   3.318
 4974TIP3    H214864   4.281   5.589   3.447
 4975TIP3   OH214865   6.005   0.864   3.934
 4975TIP3    H114866   5.983   0.861   4.027
 4975TIP3    H214867   5.945   0.802   3.893
 4976TIP3   OH214868   4.510   7.810   2.656
 4976TIP3    H114869   4.477   7.850   2.575
 4976TIP3    H214870   4.552   7.729   2.627
 4977TIP3   OH214871   3.700   3.842   4.397
 4977TIP3    H114872   3.759   3.909   4.432
 4977TIP3    H214873   3.757   3.772   4.366
 4978TIP3   OH214874   7.980   4.299   6.096
 4978TIP3    H114875   7.987   4.218   6.045
 4978TIP3    H214876   7.890   4.299   6.128
 4979TIP3   OH214877   5.463   6.777   2.607
 4979TIP3    H114878   5.546   6.826   2.602
 4979TIP3    H214879   5.490   6.687   2.628
 4980TIP3   OH214880   6.081   0.464   0.973
 4980TIP3    H114881   6.125   0.423   0.898
 4980TIP3    H214882   6.058   0.552   0.942
 4981TIP3   OH214883   2.973   7.640   2.854
 4981TIP3    H114884   2.890   7.593   2.865
 4981TIP3    H214885   2.986   7.684   2.938
 4982TIP3   OH214886   5.709   0.572   0.898
 4982TIP3    H114887   5.762   0.512   0.845
 4982TIP3    H214888   5.628   0.583   0.848
 4983TIP3   OH214889   3.328   1.068   0.911
 4983TIP3    H114890   3.290   1.066   0.999
 4983TIP3    H214891   3.315   0.979   0.878
 4984TIP3   OH214892   1.679   4.047   0.358
 4984TIP3    H114893   1.624   4.098   0.418
 4984TIP3    H214894   1.639   3.960   0.356
 4985TIP3   OH214895   8.213   4.551   1.536
 4985TIP3    H114896   8.178   4.616   1.597
 4985TIP3    H214897   8.208   4.468   1.582
 4986TIP3   OH214898   5.510   7.119   4.036
 4986TIP3    H114899   5.516   7.027   4.009
 4986TIP3    H214900   5.567   7.126   4.112
 4987TIP3   OH214901   1.119   0.996   2.918
 4987TIP3    H114902   1.151   0.938   2.848
 4987TIP3    H214903   1.186   1.065   2.923
 4988TIP3   OH214904   2.220   7.487   5.544
 4988TIP3    H114905   2.287   7.449   5.601
 4988TIP3    H214906   2.268   7.548   5.488
 4989TIP3   OH214907   6.579  -0.019   2.257
 4989TIP3    H114908   6.609   0.021   2.338
 4989TIP3    H214909   6.540   0.053   2.207
 4990TIP3   OH214910   1.919   6.632   2.653
 4990TIP3    H114911   1.908   6.721   2.620
 4990TIP3    H214912   1.830   6.599   2.664
 4991TIP3   OH214913   4.074   7.487   4.029
 4991TIP3    H114914   4.033   7.415   4.076
 4991TIP3    H214915   4.092   7.553   4.096
 4992TIP3   OH214916   2.842   5.578   6.137
 4992TIP3    H114917   2.903   5.652   6.142
 4992TIP3    H214918   2.784   5.589   6.212
 4993TIP3   OH214919   4.764   3.888   4.963
 4993TIP3    H114920   4.751   3.794   4.968
 4993TIP3    H214921   4.855   3.898   4.934
 4994TIP3   OH214922   5.842   6.858   1.122
 4994TIP3    H114923   5.849   6.789   1.056
 4994TIP3    H214924   5.932   6.874   1.149
 4995TIP3   OH214925   5.650   2.394   3.814
 4995TIP3    H114926   5.626   2.458   3.880
 4995TIP3    H214927   5.588   2.322   3.826
 4996TIP3   OH214928   3.400   2.431   4.727
 4996TIP3    H114929   3.345   2.508   4.712
 4996TIP3    H214930   3.372   2.368   4.661
 4997TIP3   OH214931   6.398   3.376   1.832
 4997TIP3    H114932   6.488   3.407   1.835
 4997TIP3    H214933   6.401   3.300   1.774
 4998TIP3   OH214934   2.838   4.204   5.276
 4998TIP3    H114935   2.879   4.123   5.307
 4998TIP3    H214936   2.841   4.263   5.351
 4999TIP3   OH214937   2.089   1.766   5.835
 4999TIP3    H114938   2.069   1.754   5.742
 4999TIP3    H214939   2.031   1.837   5.863
 5000TIP3   OH214940   0.292   7.071   3.233
 5000TIP3    H114941   0.273   7.151   3.183
 5000TIP3    H214942   0.310   7.005   3.166
 5001TIP3   OH214943   5.923   4.594   4.410
 5001TIP3    H114944   5.881   4.565   4.328
 5001TIP3    H214945   6.003   4.541   4.415
 5002TIP3   OH214946   4.805   5.200   4.619
 5002TIP3    H114947   4.744   5.139   4.578
 5002TIP3    H214948   4.891   5.163   4.603
 5003TIP3   OH214949   0.390   5.992   2.248
 5003TIP3    H114950   0.343   6.075   2.253
 5003TIP3    H214951   0.474   6.010   2.290
 5004TIP3   OH214952   3.254   6.231   4.041
 5004TIP3    H114953   3.164   6.241   4.070
 5004TIP3    H214954   3.249   6.225   3.946
 5005TIP3   OH214955   3.478   3.303   6.768
 5005TIP3    H114956   3.491   3.384   6.817
 5005TIP3    H214957   3.517   3.235   6.823
 5006TIP3   OH214958   6.174   1.352   1.424
 5006TIP3    H114959   6.211   1.263   1.425
 5006TIP3    H214960   6.088   1.341   1.382
 5007TIP3   OH214961   6.655   0.457   5.431
 5007TIP3    H114962   6.595   0.460   5.357
 5007TIP3    H214963   6.666   0.548   5.457
 5008TIP3   OH214964   2.702   2.929   5.093
 5008TIP3    H114965   2.743   3.003   5.138
 5008TIP3    H214966   2.632   2.969   5.042
 5009TIP3   OH214967   4.624   2.769   6.411
 5009TIP3    H114968   4.665   2.853   6.427
 5009TIP3    H214969   4.690   2.704   6.437
 5010TIP3   OH214970   6.269   3.593   4.508
 5010TIP3    H114971   6.179   3.608   4.480
 5010TIP3    H214972   6.321   3.607   4.429
 5011TIP3   OH214973   5.587   7.369   2.989
 5011TIP3    H114974   5.566   7.417   2.909
 5011TIP3    H214975   5.510   7.381   3.044
 5012TIP3   OH214976   7.191   0.734   0.699
 5012TIP3    H114977   7.264   0.757   0.757
 5012TIP3    H214978   7.113   0.754   0.749
 5013TIP3   OH214979   1.521   4.841   5.504
 5013TIP3    H114980   1.509   4.775   5.572
 5013TIP3    H214981   1.446   4.830   5.447
 5014TIP3   OH214982   6.725   5.881   0.655
 5014TIP3    H114983   6.670   5.896   0.732
 5014TIP3    H214984   6.675   5.917   0.582
 5015TIP3   OH214985   0.542   5.228   3.263
 5015TIP3    H114986   0.568   5.316   3.291
 5015TIP3    H214987   0.566   5.224   3.171
 5016TIP3   OH214988   0.530   1.689   5.502
 5016TIP3    H114989   0.449   1.719   5.462
 5016TIP3    H214990   0.502   1.641   5.580
 5017TIP3   OH214991   7.764   4.194   1.804
 5017TIP3    H114992   7.751   4.099   1.805
 5017TIP3    H214993   7.780   4.216   1.713
 5018TIP3   OH214994   5.628   3.469   3.760
 5018TIP3    H114995   5.717   3.432   3.763
 5018TIP3    H214996   5.611   3.479   3.666
 5019TIP3   OH214997   4.690   0.421   1.015
 5019TIP3    H114998   4.689   0.419   1.111
 5019TIP3    H214999   4.780   0.394   0.992
 5020TIP3   OH215000   4.147   2.721   2.496
 5020TIP3    H115001   4.070   2.764   2.460
 5020TIP3    H215002   4.135   2.727   2.591
 5021TIP3   OH215003   8.259   3.660   3.299
 5021TIP3    H115004   8.277   3.743   3.343
 5021TIP3    H215005   8.346   3.620   3.288
 5022TIP3   OH215006   7.667   4.598   6.435
 5022TIP3    H115007   7.732   4.661   6.405
 5022TIP3    H215008   7.711   4.550   6.505
 5023TIP3   OH215009   3.288   0.980   2.118
 5023TIP3    H115010   3.267   0.989   2.025
 5023TIP3    H215011   3.382   0.998   2.123
 5024TIP3   OH215012   4.019   1.141   5.063
 5024TIP3    H115013   3.979   1.075   5.006
 5024TIP3    H215014   4.025   1.219   5.008
 5025TIP3   OH215015   5.019   7.809   1.367
 5025TIP3    H115016   5.070   7.753   1.309
 5025TIP3    H215017   4.928   7.779   1.356
 5026TIP3   OH215018   3.757   0.864   2.334
 5026TIP3    H115019   3.845   0.855   2.296
 5026TIP3    H215020   3.718   0.938   2.288
 5027TIP3   OH215021   5.787   6.841   1.478
 5027TIP3    H115022   5.722   6.823   1.411
 5027TIP3    H215023   5.738   6.846   1.560
 5028TIP3   OH215024   4.982   5.419   3.694
 5028TIP3    H115025   5.021   5.506   3.680
 5028TIP3    H215026   5.056   5.361   3.707
 5029TIP3   OH215027   4.662   7.069   2.428
 5029TIP3    H115028   4.651   6.974   2.423
 5029TIP3    H215029   4.730   7.088   2.364
 5030TIP3   OH215030   2.786   3.284   0.821
 5030TIP3    H115031   2.738   3.277   0.903
 5030TIP3    H215032   2.721   3.318   0.758
 5031TIP3   OH215033   4.446   5.054   4.992
 5031TIP3    H115034   4.410   5.142   5.001
 5031TIP3    H215035   4.530   5.058   5.037
 5032TIP3   OH215036   4.386   5.325   4.920
 5032TIP3    H115037   4.301   5.360   4.893
 5032TIP3    H215038   4.426   5.293   4.839
 5033TIP3   OH215039   4.726   2.955   3.503
 5033TIP3    H115040   4.745   2.960   3.596
 5033TIP3    H215041   4.632   2.972   3.496
 5034TIP3   OH215042   0.856   6.358   0.539
 5034TIP3    H115043   0.901   6.343   0.456
 5034TIP3    H215044   0.857   6.273   0.582
 5035TIP3   OH215045   1.587   2.730   0.815
 5035TIP3    H115046   1.681   2.719   0.799
 5035TIP3    H215047   1.579   2.728   0.911
 5036TIP3   OH215048   7.805   4.916   2.897
 5036TIP3    H115049   7.879   4.856   2.912
 5036TIP3    H215050   7.810   4.938   2.804
 5037TIP3   OH215051   4.345   2.397   4.866
 5037TIP3    H115052   4.303   2.451   4.933
 5037TIP3    H215053   4.401   2.337   4.916
 5038TIP3   OH215054   8.372   2.407   1.042
 5038TIP3    H115055   8.391   2.335   0.982
 5038TIP3    H215056   8.454   2.422   1.088
 5039TIP3   OH215057   0.855   2.688   3.358
 5039TIP3    H115058   0.818   2.706   3.271
 5039TIP3    H215059   0.840   2.769   3.408
 5040TIP3   OH215060   0.293   4.719   5.210
 5040TIP3    H115061   0.265   4.748   5.297
 5040TIP3    H215062   0.364   4.778   5.186
 5041TIP3   OH215063   2.094   0.647   0.221
 5041TIP3    H115064   2.054   0.566   0.253
 5041TIP3    H215065   2.081   0.710   0.292
 5042TIP3   OH215066   3.719   1.454   1.656
 5042TIP3    H115067   3.688   1.505   1.581
 5042TIP3    H215068   3.732   1.366   1.621
 5043TIP3   OH215069   7.254   4.202   4.179
 5043TIP3    H115070   7.229   4.262   4.249
 5043TIP3    H215071   7.334   4.160   4.210
 5044TIP3   OH215072   2.643   4.205   1.559
 5044TIP3    H115073   2.712   4.271   1.575
 5044TIP3    H215074   2.692   4.126   1.534
 5045TIP3   OH215075   8.204   2.555   6.751
 5045TIP3    H115076   8.239   2.467   6.770
 5045TIP3    H215077   8.186   2.593   6.836
 5046TIP3   OH215078   5.444   5.092   2.874
 5046TIP3    H115079   5.469   5.178   2.906
 5046TIP3    H215080   5.360   5.106   2.830
 5047TIP3   OH215081   2.941   1.103   3.297
 5047TIP3    H115082   2.921   1.135   3.385
 5047TIP3    H215083   2.994   1.024   3.311
 5048TIP3   OH215084   6.322   5.547   3.789
 5048TIP3    H115085   6.398   5.491   3.803
 5048TIP3    H215086   6.276   5.546   3.873
 5049TIP3   OH215087   2.936   2.686   4.960
 5049TIP3    H115088   2.930   2.649   5.048
 5049TIP3    H215089   2.892   2.621   4.904
 5050TIP3   OH215090   6.151   7.653   2.286
 5050TIP3    H115091   6.149   7.596   2.209
 5050TIP3    H215092   6.109   7.734   2.257
 5051TIP3   OH215093   8.150   2.643   1.826
 5051TIP3    H115094   8.229   2.592   1.809
 5051TIP3    H215095   8.140   2.697   1.748
 5052TIP3   OH215096   4.663   0.092   5.237
 5052TIP3    H115097   4.686   0.056   5.151
 5052TIP3    H215098   4.648   0.015   5.292
 5053TIP3   OH215099   4.422   7.148   0.535
 5053TIP3    H115100   4.381   7.146   0.621
 5053TIP3    H215101   4.422   7.057   0.506
 5054TIP3   OH215102   3.019   4.580   4.910
 5054TIP3    H115103   3.061   4.518   4.851
 5054TIP3    H215104   2.960   4.526   4.964
 5055TIP3   OH215105   2.550   1.786   5.594
 5055TIP3    H115106   2.457   1.805   5.607
 5055TIP3    H215107   2.577   1.739   5.673
 5056TIP3   OH215108   0.599   6.519   3.695
 5056TIP3    H115109   0.549   6.472   3.628
 5056TIP3    H215110   0.553   6.499   3.777
 5057TIP3   OH215111   1.915   1.598   0.268
 5057TIP3    H115112   1.832   1.559   0.297
 5057TIP3    H215113   1.908   1.599   0.173
 5058TIP3   OH215114   7.042   0.775   4.242
 5058TIP3    H115115   7.128   0.811   4.267
 5058TIP3    H215116   6.997   0.848   4.200
 5059TIP3   OH215117   6.168   6.956   4.608
 5059TIP3    H115118   6.172   7.051   4.614
 5059TIP3    H215119   6.126   6.928   4.689
 5060TIP3   OH215120   1.081   1.756   0.172
 5060TIP3    H115121   1.062   1.827   0.110
 5060TIP3    H215122   1.040   1.785   0.254
 5061TIP3   OH215123   7.109   0.948   5.515
 5061TIP3    H115124   7.025   0.936   5.560
 5061TIP3    H215125   7.096   1.027   5.461
 5062TIP3   OH215126   2.194   5.792   6.696
 5062TIP3    H115127   2.236   5.752   6.772
 5062TIP3    H215128   2.195   5.722   6.630
 5063TIP3   OH215129   5.612   4.784   4.489
 5063TIP3    H115130   5.688   4.834   4.459
 5063TIP3    H215131   5.537   4.824   4.444
 5064TIP3   OH215132   2.239   6.188   1.669
 5064TIP3    H115133   2.222   6.127   1.597
 5064TIP3    H215134   2.255   6.272   1.626
 5065TIP3   OH215135   7.701   1.568   1.790
 5065TIP3    H115136   7.714   1.619   1.869
 5065TIP3    H215137   7.787   1.564   1.749
 5066TIP3   OH215138   0.755   2.005   4.903
 5066TIP3    H115139   0.752   1.932   4.965
 5066TIP3    H215140   0.849   2.020   4.888
 5067TIP3   OH215141   1.814   6.314   0.529
 5067TIP3    H115142   1.808   6.229   0.573
 5067TIP3    H215143   1.907   6.323   0.508
 5068TIP3   OH215144   6.977   3.336   1.559
 5068TIP3    H115145   6.977   3.258   1.503
 5068TIP3    H215146   6.890   3.338   1.598
 5069TIP3   OH215147   3.883   2.122   0.011
 5069TIP3    H115148   3.935   2.201   0.023
 5069TIP3    H215149   3.824   2.120   0.087
 5070TIP3   OH215150   3.344   5.192   2.589
 5070TIP3    H115151   3.344   5.272   2.537
 5070TIP3    H215152   3.291   5.131   2.538
 5071TIP3   OH215153   6.167   0.004   2.189
 5071TIP3    H115154   6.194   0.073   2.250
 5071TIP3    H215155   6.101  -0.046   2.238
 5072TIP3   OH215156   3.969   1.413   0.305
 5072TIP3    H115157   3.959   1.356   0.382
 5072TIP3    H215158   4.063   1.426   0.297
 5073TIP3   OH215159   5.368   0.089   1.404
 5073TIP3    H115160   5.423   0.052   1.472
 5073TIP3    H215161   5.329   0.167   1.443
 5074TIP3   OH215162   4.725   5.046   6.532
 5074TIP3    H115163   4.808   5.055   6.486
 5074TIP3    H215164   4.680   5.129   6.518
 5075TIP3   OH215165   3.569   2.527   2.514
 5075TIP3    H115166   3.578   2.472   2.592
 5075TIP3    H215167   3.482   2.566   2.522
 5076TIP3   OH215168   1.721   0.965   1.136
 5076TIP3    H115169   1.658   1.034   1.154
 5076TIP3    H215170   1.806   1.009   1.135
 5077TIP3   OH215171   2.789   4.125   0.278
 5077TIP3    H115172   2.698   4.130   0.250
 5077TIP3    H215173   2.799   4.035   0.311
 5078TIP3   OH215174   2.019   3.063   5.105
 5078TIP3    H115175   1.964   3.094   5.177
 5078TIP3    H215176   2.016   3.134   5.041
 5079TIP3   OH215177   5.408   4.736   1.579
 5079TIP3    H115178   5.432   4.796   1.650
 5079TIP3    H215179   5.314   4.723   1.590
 5080TIP3   OH215180   5.862   0.586   1.218
 5080TIP3    H115181   5.767   0.580   1.227
 5080TIP3    H215182   5.876   0.608   1.126
 5081TIP3   OH215183   4.621   4.261   5.170
 5081TIP3    H115184   4.655   4.258   5.260
 5081TIP3    H215185   4.587   4.351   5.160
 5082TIP3   OH215186   2.084   1.772   0.866
 5082TIP3    H115187   2.099   1.828   0.943
 5082TIP3    H215188   2.041   1.829   0.802
 5083TIP3   OH215189   2.457   6.048   1.783
 5083TIP3    H115190   2.378   6.093   1.753
 5083TIP3    H215191   2.499   6.110   1.842
 5084TIP3   OH215192   1.491   1.291   0.886
 5084TIP3    H115193   1.464   1.229   0.817
 5084TIP3    H215194   1.510   1.372   0.839
 5085TIP3   OH215195   2.250   1.774   4.866
 5085TIP3    H115196   2.174   1.832   4.865
 5085TIP3    H215197   2.218   1.692   4.826
 5086TIP3   OH215198   4.736   3.604   2.755
 5086TIP3    H115199   4.647   3.583   2.729
 5086TIP3    H215200   4.775   3.519   2.777
 5087TIP3   OH215201   6.385   7.475   0.083
 5087TIP3    H115202   6.453   7.466   0.150
 5087TIP3    H215203   6.327   7.542   0.118
 5088TIP3   OH215204   1.268   4.064   2.375
 5088TIP3    H115205   1.174   4.048   2.384
 5088TIP3    H215206   1.303   4.047   2.462
 5089TIP3   OH215207   2.799   7.617   0.806
 5089TIP3    H115208   2.887   7.581   0.814
 5089TIP3    H215209   2.742   7.541   0.803
 5090TIP3   OH215210   1.285   2.403   4.562
 5090TIP3    H115211   1.351   2.459   4.520
 5090TIP3    H215212   1.322   2.383   4.647
 5091TIP3   OH215213   4.871   2.086   6.640
 5091TIP3    H115214   4.940   2.119   6.583
 5091TIP3    H215215   4.868   1.992   6.622
 5092TIP3   OH215216   2.735   4.879   0.949
 5092TIP3    H115217   2.675   4.854   1.020
 5092TIP3    H215218   2.681   4.933   0.891
 5093TIP3   OH215219   1.019   5.023   0.187
 5093TIP3    H115220   0.990   4.948   0.239
 5093TIP3    H215221   0.957   5.027   0.115
 5094TIP3   OH215222   2.757   0.664   3.277
 5094TIP3    H115223   2.789   0.687   3.190
 5094TIP3    H215224   2.661   0.672   3.269
 5095TIP3   OH215225   3.404   1.392   4.775
 5095TIP3    H115226   3.476   1.331   4.793
 5095TIP3    H215227   3.449   1.475   4.756
 5096TIP3   OH215228   6.163   6.363   2.916
 5096TIP3    H115229   6.233   6.362   2.851
 5096TIP3    H215230   6.093   6.311   2.876
 5097TIP3   OH215231   0.597   1.426   2.645
 5097TIP3    H115232   0.505   1.402   2.646
 5097TIP3    H215233   0.600   1.516   2.677
 5098TIP3   OH215234   4.528   3.906   1.639
 5098TIP3    H115235   4.493   3.896   1.728
 5098TIP3    H215236   4.494   3.990   1.609
 5099TIP3   OH215237   0.605   7.515   0.295
 5099TIP3    H115238   0.637   7.559   0.373
 5099TIP3    H215239   0.680   7.463   0.265
 5100TIP3   OH215240   1.886   4.883   0.308
 5100TIP3    H115241   1.848   4.795   0.307
 5100TIP3    H215242   1.810   4.941   0.309
 5101TIP3   OH215243   0.806   2.870   4.019
 5101TIP3    H115244   0.853   2.797   3.978
 5101TIP3    H215245   0.867   2.904   4.084
 5102TIP3   OH215246   5.926   1.962  -0.009
 5102TIP3    H115247   5.940   1.898   0.061
 5102TIP3    H215248   5.872   2.031   0.031
 5103TIP3   OH215249   2.853   1.508   0.233
 5103TIP3    H115250   2.894   1.436   0.281
 5103TIP3    H215251   2.839   1.473   0.145
 5104TIP3   OH215252   0.492   2.180   4.451
 5104TIP3    H115253   0.401   2.152   4.448
 5104TIP3    H215254   0.539   2.116   4.399
 5105TIP3   OH215255   4.457   1.113   3.891
 5105TIP3    H115256   4.480   1.199   3.857
 5105TIP3    H215257   4.440   1.060   3.814
 5106TIP3   OH215258   7.370   1.950   5.574
 5106TIP3    H115259   7.333   1.887   5.511
 5106TIP3    H215260   7.308   2.023   5.574
 5107TIP3   OH215261   5.228   1.185   2.166
 5107TIP3    H115262   5.149   1.198   2.220
 5107TIP3    H215263   5.215   1.100   2.125
 5108TIP3   OH215264   2.302   4.523   5.754
 5108TIP3    H115265   2.319   4.501   5.663
 5108TIP3    H215266   2.342   4.609   5.766
 5109TIP3   OH215267   3.443   2.185   6.130
 5109TIP3    H115268   3.532   2.220   6.129
 5109TIP3    H215269   3.389   2.258   6.162
 5110TIP3   OH215270   6.531   3.896   3.774
 5110TIP3    H115271   6.515   3.939   3.859
 5110TIP3    H215272   6.507   3.805   3.788
 5111TIP3   OH215273   2.693   7.847   2.598
 5111TIP3    H115274   2.626   7.914   2.610
 5111TIP3    H215275   2.776   7.895   2.602
 5112TIP3   OH215276   4.750   3.198   0.887
 5112TIP3    H115277   4.760   3.245   0.804
 5112TIP3    H215278   4.824   3.227   0.940
 5113TIP3   OH215279   6.106   6.750   5.666
 5113TIP3    H115280   6.133   6.691   5.596
 5113TIP3    H215281   6.059   6.693   5.728
 5114TIP3   OH215282   1.625   5.127   1.536
 5114TIP3    H115283   1.554   5.132   1.600
 5114TIP3    H215284   1.693   5.076   1.579
 5115TIP3   OH215285   0.878   3.880   1.604
 5115TIP3    H115286   0.874   3.786   1.622
 5115TIP3    H215287   0.962   3.893   1.559
 5116TIP3   OH215288   6.461   2.697   2.231
 5116TIP3    H115289   6.459   2.602   2.234
 5116TIP3    H215290   6.529   2.722   2.294
 5117TIP3   OH215291   5.766   0.106   0.689
 5117TIP3    H115292   5.854   0.115   0.651
 5117TIP3    H215293   5.717   0.180   0.654
 5118TIP3   OH215294   0.551   5.313   0.113
 5118TIP3    H115295   0.614   5.303   0.043
 5118TIP3    H215296   0.522   5.224   0.134
 5119TIP3   OH215297   1.886   6.498   3.315
 5119TIP3    H115298   1.875   6.544   3.398
 5119TIP3    H215299   1.832   6.419   3.324
 5120TIP3   OH215300   4.318   7.309   5.972
 5120TIP3    H115301   4.300   7.250   5.899
 5120TIP3    H215302   4.363   7.255   6.037
 5121TIP3   OH215303   5.670   6.591   5.028
 5121TIP3    H115304   5.707   6.663   5.080
 5121TIP3    H215305   5.745   6.536   5.006
 5122TIP3   OH215306   5.640   5.366   0.267
 5122TIP3    H115307   5.717   5.420   0.282
 5122TIP3    H215308   5.631   5.314   0.346
 5123TIP3   OH215309   0.800   2.111   5.516
 5123TIP3    H115310   0.864   2.171   5.479
 5123TIP3    H215311   0.814   2.029   5.469
 5124TIP3   OH215312   0.681   0.264   6.619
 5124TIP3    H115313   0.695   0.212   6.540
 5124TIP3    H215314   0.746   0.334   6.612
 5125TIP3   OH215315   3.680   5.226   0.628
 5125TIP3    H115316   3.638   5.144   0.653
 5125TIP3    H215317   3.612   5.293   0.640
 5126TIP3   OH215318   7.350   3.185   3.280
 5126TIP3    H115319   7.431   3.150   3.242
 5126TIP3    H215320   7.340   3.138   3.362
 5127TIP3   OH215321   8.194   1.629   0.029
 5127TIP3    H115322   8.165   1.719   0.043
 5127TIP3    H215323   8.289   1.637   0.017
 5128TIP3   OH215324   7.637   5.027   1.589
 5128TIP3    H115325   7.598   5.101   1.542
 5128TIP3    H215326   7.570   4.959   1.587
 5129TIP3   OH215327   5.767   6.606   3.895
 5129TIP3    H115328   5.686   6.611   3.946
 5129TIP3    H215329   5.821   6.676   3.930
 5130TIP3   OH215330   4.177   3.018   3.762
 5130TIP3    H115331   4.206   3.108   3.778
 5130TIP3    H215332   4.126   3.024   3.681
 5131TIP3   OH215333   7.186   0.238   0.534
 5131TIP3    H115334   7.206   0.240   0.440
 5131TIP3    H215335   7.135   0.318   0.549
 5132TIP3   OH215336   2.139   1.092   1.318
 5132TIP3    H115337   2.132   1.099   1.414
 5132TIP3    H215338   2.181   1.007   1.303
 5133TIP3   OH215339   2.678   7.038   6.546
 5133TIP3    H115340   2.600   7.069   6.591
 5133TIP3    H215341   2.713   6.969   6.603
 5134TIP3   OH215342   2.782   3.822   5.820
 5134TIP3    H115343   2.717   3.852   5.884
 5134TIP3    H215344   2.748   3.849   5.735
 5135TIP3   OH215345   2.182   1.861   6.752
 5135TIP3    H115346   2.142   1.775   6.764
 5135TIP3    H215347   2.139   1.916   6.818
 5136TIP3   OH215348   5.145   7.652   1.169
 5136TIP3    H115349   5.178   7.685   1.086
 5136TIP3    H215350   5.154   7.557   1.162
 5137TIP3   OH215351   4.211   3.901   2.337
 5137TIP3    H115352   4.186   3.993   2.336
 5137TIP3    H215353   4.305   3.901   2.356
 5138TIP3   OH215354   1.289   6.241   0.964
 5138TIP3    H115355   1.217   6.182   0.986
 5138TIP3    H215356   1.290   6.243   0.868
 5139TIP3   OH215357   8.024   1.139   3.687
 5139TIP3    H115358   8.016   1.155   3.781
 5139TIP3    H215359   7.964   1.066   3.670
 5140TIP3   OH215360   3.525   6.940   6.721
 5140TIP3    H115361   3.600   6.981   6.763
 5140TIP3    H215362   3.486   7.009   6.668
 5141TIP3   OH215363   7.524   7.374   3.234
 5141TIP3    H115364   7.494   7.286   3.255
 5141TIP3    H215365   7.578   7.363   3.155
 5142TIP3   OH215366   8.244   3.577   6.310
 5142TIP3    H115367   8.238   3.575   6.215
 5142TIP3    H215368   8.166   3.531   6.340
 5143TIP3   OH215369   1.682   2.411   2.859
 5143TIP3    H115370   1.720   2.375   2.778
 5143TIP3    H215371   1.748   2.395   2.926
 5144TIP3   OH215372   2.015   7.101   0.803
 5144TIP3    H115373   1.935   7.146   0.832
 5144TIP3    H215374   2.085   7.163   0.820
 5145TIP3   OH215375   5.117   1.088   0.153
 5145TIP3    H115376   5.186   1.051   0.208
 5145TIP3    H215377   5.105   1.177   0.187
 5146TIP3   OH215378   0.215   7.705   2.619
 5146TIP3    H115379   0.178   7.689   2.532
 5146TIP3    H215380   0.233   7.618   2.654
 5147TIP3   OH215381   7.720   2.550   3.337
 5147TIP3    H115382   7.675   2.594   3.409
 5147TIP3    H215383   7.659   2.556   3.263
 5148TIP3   OH215384   6.295   7.041   2.577
 5148TIP3    H115385   6.331   6.977   2.638
 5148TIP3    H215386   6.288   7.122   2.628
 5149TIP3   OH215387   0.705   2.348   2.063
 5149TIP3    H115388   0.720   2.335   1.970
 5149TIP3    H215389   0.788   2.383   2.096
 5150TIP3   OH215390   6.389   3.580   0.096
 5150TIP3    H115391   6.295   3.571   0.084
 5150TIP3    H215392   6.400   3.596   0.190
 5151TIP3   OH215393   2.699   6.741   5.206
 5151TIP3    H115394   2.782   6.786   5.188
 5151TIP3    H215395   2.725   6.650   5.224
 5152TIP3   OH215396   1.258   7.512   5.189
 5152TIP3    H115397   1.168   7.529   5.215
 5152TIP3    H215398   1.298   7.598   5.182
 5153TIP3   OH215399   4.508   3.761   2.146
 5153TIP3    H115400   4.524   3.837   2.202
 5153TIP3    H215401   4.592   3.714   2.144
 5154TIP3   OH215402   0.620   6.417   5.684
 5154TIP3    H115403   0.585   6.499   5.718
 5154TIP3    H215404   0.577   6.406   5.600
 5155TIP3   OH215405   3.086   0.608   4.475
 5155TIP3    H115406   3.084   0.648   4.387
 5155TIP3    H215407   3.159   0.651   4.518
 5156TIP3   OH215408   4.010   6.079   2.955
 5156TIP3    H115409   3.947   6.052   2.888
 5156TIP3    H215410   3.957   6.091   3.034
 5157TIP3   OH215411   3.790   3.660   6.821
 5157TIP3    H115412   3.720   3.624   6.875
 5157TIP3    H215413   3.798   3.751   6.849
 5158TIP3   OH215414   8.301   5.422   3.239
 5158TIP3    H115415   8.273   5.433   3.329
 5158TIP3    H215416   8.367   5.490   3.226
 5159TIP3   OH215417   3.058   1.609   5.177
 5159TIP3    H115418   2.985   1.555   5.149
 5159TIP3    H215419   3.127   1.546   5.200
 5160TIP3   OH215420   4.560   0.560   2.233
 5160TIP3    H115421   4.531   0.637   2.282
 5160TIP3    H215422   4.481   0.531   2.185
 5161TIP3   OH215423   8.311   0.919   4.396
 5161TIP3    H115424   8.299   0.926   4.491
 5161TIP3    H215425   8.310   0.825   4.378
 5162TIP3   OH215426   0.991   7.125   6.136
 5162TIP3    H115427   0.991   7.097   6.227
 5162TIP3    H215428   0.948   7.053   6.089
 5163TIP3   OH215429   1.763   5.919   3.886
 5163TIP3    H115430   1.772   5.918   3.791
 5163TIP3    H215431   1.771   5.828   3.912
 5164TIP3   OH215432   0.169   4.171   3.782
 5164TIP3    H115433   0.154   4.225   3.704
 5164TIP3    H215434   0.081   4.144   3.809
 5165TIP3   OH215435   0.263   0.258   4.300
 5165TIP3    H115436   0.197   0.191   4.283
 5165TIP3    H215437   0.307   0.270   4.216
 5166TIP3   OH215438   0.028   7.142   1.549
 5166TIP3    H115439   0.020   7.086   1.472
 5166TIP3    H215440   0.121   7.161   1.556
 5167TIP3   OH215441   2.493   3.590   0.553
 5167TIP3    H115442   2.528   3.668   0.597
 5167TIP3    H215443   2.435   3.625   0.486
 5168TIP3   OH215444   6.035   3.445   4.716
 5168TIP3    H115445   6.080   3.483   4.792
 5168TIP3    H215446   6.045   3.350   4.727
 5169TIP3   OH215447   4.732   0.127   0.235
 5169TIP3    H115448   4.787   0.049   0.222
 5169TIP3    H215449   4.648   0.104   0.195
 5170TIP3   OH215450   7.094   3.622   5.791
 5170TIP3    H115451   7.109   3.652   5.702
 5170TIP3    H215452   7.182   3.605   5.826
 5171TIP3   OH215453   6.529   3.117   1.583
 5171TIP3    H115454   6.528   3.039   1.638
 5171TIP3    H215455   6.526   3.083   1.494
 5172TIP3   OH215456   5.719   6.352   6.163
 5172TIP3    H115457   5.732   6.401   6.244
 5172TIP3    H215458   5.807   6.332   6.132
 5173TIP3   OH215459   0.148   6.308   3.319
 5173TIP3    H115460   0.165   6.309   3.413
 5173TIP3    H215461   0.206   6.241   3.284
 5174TIP3   OH215462   4.325   4.443   5.769
 5174TIP3    H115463   4.375   4.454   5.849
 5174TIP3    H215464   4.334   4.350   5.747
 5175TIP3   OH215465   0.760   1.590   5.388
 5175TIP3    H115466   0.674   1.618   5.420
 5175TIP3    H215467   0.811   1.572   5.467
 5176TIP3   OH215468   8.280   2.498   4.609
 5176TIP3    H115469   8.288   2.424   4.549
 5176TIP3    H215470   8.187   2.500   4.632
 5177TIP3   OH215471   1.265   6.923   0.653
 5177TIP3    H115472   1.169   6.918   0.657
 5177TIP3    H215473   1.284   6.942   0.562
 5178TIP3   OH215474   2.734   1.843   2.150
 5178TIP3    H115475   2.795   1.821   2.079
 5178TIP3    H215476   2.680   1.765   2.160
 5179TIP3   OH215477   6.279   2.173   1.523
 5179TIP3    H115478   6.299   2.103   1.585
 5179TIP3    H215479   6.275   2.130   1.438
 5180TIP3   OH215480   7.214   4.739   4.262
 5180TIP3    H115481   7.123   4.752   4.237
 5180TIP3    H215482   7.211   4.729   4.358
 5181TIP3   OH215483   7.821   6.983   5.868
 5181TIP3    H115484   7.866   7.067   5.871
 5181TIP3    H215485   7.747   6.993   5.928
 5182TIP3   OH215486   2.517   1.683   1.878
 5182TIP3    H115487   2.589   1.634   1.918
 5182TIP3    H215488   2.537   1.681   1.784
 5183TIP3   OH215489   1.498   3.342   5.358
 5183TIP3    H115490   1.476   3.369   5.447
 5183TIP3    H215491   1.523   3.250   5.366
 5184TIP3   OH215492   4.563   1.510   2.934
 5184TIP3    H115493   4.640   1.477   2.980
 5184TIP3    H215494   4.524   1.433   2.893
 5185TIP3   OH215495   6.346   4.209   2.034
 5185TIP3    H115496   6.414   4.264   2.072
 5185TIP3    H215497   6.378   4.187   1.947
 5186TIP3   OH215498   1.010   5.770   1.696
 5186TIP3    H115499   1.045   5.714   1.766
 5186TIP3    H215500   0.919   5.785   1.722
 5187TIP3   OH215501   5.347   6.064   3.028
 5187TIP3    H115502   5.280   6.129   3.008
 5187TIP3    H215503   5.407   6.109   3.087
 5188TIP3   OH215504   5.271   1.065   5.308
 5188TIP3    H115505   5.265   1.161   5.306
 5188TIP3    H215506   5.347   1.044   5.254
 5189TIP3   OH215507   5.077   5.038   2.921
 5189TIP3    H115508   5.135   5.080   2.858
 5189TIP3    H215509   5.011   5.104   2.942
 5190TIP3   OH215510   1.729   5.797   6.614
 5190TIP3    H115511   1.668   5.805   6.541
 5190TIP3    H215512   1.803   5.854   6.590
 5191TIP3   OH215513   1.383   1.712   3.683
 5191TIP3    H115514   1.310   1.654   3.704
 5191TIP3    H215515   1.355   1.798   3.715
 5192TIP3   OH215516   3.547   3.839   5.835
 5192TIP3    H115517   3.556   3.744   5.833
 5192TIP3    H215518   3.455   3.856   5.817
 5193TIP3   OH215519   7.213   5.609   5.766
 5193TIP3    H115520   7.282   5.596   5.831
 5193TIP3    H215521   7.246   5.565   5.688
 5194TIP3   OH215522   0.841   1.012   1.051
 5194TIP3    H115523   0.829   1.057   0.967
 5194TIP3    H215524   0.754   0.976   1.071
 5195TIP3   OH215525   6.028   1.777   6.608
 5195TIP3    H115526   6.084   1.852   6.587
 5195TIP3    H215527   6.086   1.701   6.601
 5196TIP3   OH215528   1.194   2.067   2.549
 5196TIP3    H115529   1.270   2.085   2.494
 5196TIP3    H215530   1.119   2.096   2.497
 5197TIP3   OH215531   4.650   6.432   6.062
 5197TIP3    H115532   4.608   6.352   6.030
 5197TIP3    H215533   4.715   6.452   5.996
 5198TIP3   OH215534   5.006   4.864   1.779
 5198TIP3    H115535   4.936   4.809   1.746
 5198TIP3    H215536   5.080   4.846   1.721
 5199TIP3   OH215537   0.615   0.480   0.565
 5199TIP3    H115538   0.623   0.476   0.470
 5199TIP3    H215539   0.694   0.436   0.597
 5200TIP3   OH215540   3.993   5.036   1.465
 5200TIP3    H115541   4.062   5.101   1.449
 5200TIP3    H215542   4.001   5.016   1.558
 5201TIP3   OH215543   8.267   2.768   4.494
 5201TIP3    H115544   8.322   2.768   4.416
 5201TIP3    H215545   8.288   2.685   4.538
 5202TIP3   OH215546   6.131   1.948   4.898
 5202TIP3    H115547   6.052   1.928   4.847
 5202TIP3    H215548   6.102   1.942   4.989
 5203TIP3   OH215549   2.125   7.026   4.689
 5203TIP3    H115550   2.078   6.944   4.703
 5203TIP3    H215551   2.072   7.092   4.732
 5204TIP3   OH215552   0.593   3.064   1.227
 5204TIP3    H115553   0.529   2.998   1.204
 5204TIP3    H215554   0.677   3.028   1.196
 5205TIP3   OH215555   6.774   2.650   0.935
 5205TIP3    H115556   6.708   2.606   0.881
 5205TIP3    H215557   6.802   2.583   0.997
 5206TIP3   OH215558   0.771   5.288   6.683
 5206TIP3    H115559   0.722   5.206   6.677
 5206TIP3    H215560   0.747   5.337   6.604
 5207TIP3   OH215561   4.051   4.648   4.764
 5207TIP3    H115562   4.116   4.708   4.728
 5207TIP3    H215563   4.084   4.627   4.851
 5208TIP3   OH215564   7.516   4.180   3.074
 5208TIP3    H115565   7.519   4.097   3.122
 5208TIP3    H215566   7.607   4.195   3.047
 5209TIP3   OH215567   6.425   2.514   0.323
 5209TIP3    H115568   6.384   2.541   0.241
 5209TIP3    H215569   6.506   2.471   0.296
 5210TIP3   OH215570   2.395   0.158   1.925
 5210TIP3    H115571   2.480   0.175   1.964
 5210TIP3    H215572   2.415   0.116   1.841
 5211TIP3   OH215573   0.212   5.040   4.946
 5211TIP3    H115574   0.216   5.019   5.039
 5211TIP3    H215575   0.294   5.006   4.910
 5212TIP3   OH215576   5.201   0.348   5.096
 5212TIP3    H115577   5.228   0.256   5.090
 5212TIP3    H215578   5.232   0.388   5.015
 5213TIP3   OH215579   6.926   0.820   5.664
 5213TIP3    H115580   6.859   0.815   5.596
 5213TIP3    H215581   6.940   0.729   5.691
 5214TIP3   OH215582   0.648   0.335   3.984
 5214TIP3    H115583   0.683   0.287   3.909
 5214TIP3    H215584   0.717   0.397   4.008
 5215TIP3   OH215585   8.046   3.366   6.419
 5215TIP3    H115586   8.067   3.291   6.363
 5215TIP3    H215587   7.968   3.339   6.467
 5216TIP3   OH215588   4.894   0.998   3.455
 5216TIP3    H115589   4.935   0.957   3.379
 5216TIP3    H215590   4.961   1.057   3.490
 5217TIP3   OH215591   5.724   5.223   6.489
 5217TIP3    H115592   5.670   5.302   6.490
 5217TIP3    H215593   5.661   5.151   6.490
 5218TIP3   OH215594   5.907   4.684   2.891
 5218TIP3    H115595   5.983   4.733   2.922
 5218TIP3    H215596   5.942   4.625   2.825
 5219TIP3   OH215597   4.038   2.100   4.097
 5219TIP3    H115598   4.102   2.166   4.126
 5219TIP3    H215599   3.961   2.151   4.071
 5220TIP3   OH215600   5.173   7.541   3.621
 5220TIP3    H115601   5.094   7.588   3.594
 5220TIP3    H215602   5.141   7.465   3.670
 5221TIP3   OH215603   0.992   7.715   5.983
 5221TIP3    H115604   0.994   7.808   5.958
 5221TIP3    H215605   0.979   7.668   5.901
 5222TIP3   OH215606   2.193   6.736   0.509
 5222TIP3    H115607   2.271   6.708   0.461
 5222TIP3    H215608   2.219   6.818   0.551
 5223TIP3   OH215609   6.625   1.543   2.657
 5223TIP3    H115610   6.714   1.566   2.687
 5223TIP3    H215611   6.599   1.471   2.714
 5224TIP3   OH215612   7.900   2.142   6.259
 5224TIP3    H115613   7.905   2.226   6.214
 5224TIP3    H215614   7.950   2.082   6.204
 5225TIP3   OH215615   6.998   5.802   3.514
 5225TIP3    H115616   6.968   5.733   3.454
 5225TIP3    H215617   6.974   5.883   3.470
 5226TIP3   OH215618   5.889   2.855   1.331
 5226TIP3    H115619   5.817   2.918   1.323
 5226TIP3    H215620   5.865   2.783   1.273
 5227TIP3   OH215621   3.887   5.861   2.404
 5227TIP3    H115622   3.911   5.873   2.312
 5227TIP3    H215623   3.830   5.934   2.423
 5228TIP3   OH215624   4.025   6.670   5.765
 5228TIP3    H115625   4.048   6.762   5.780
 5228TIP3    H215626   4.104   6.622   5.791
 5229TIP3   OH215627   6.159   2.227   4.642
 5229TIP3    H115628   6.226   2.245   4.708
 5229TIP3    H215629   6.078   2.260   4.681
 5230TIP3   OH215630   6.507   1.271   3.187
 5230TIP3    H115631   6.451   1.216   3.243
 5230TIP3    H215632   6.559   1.322   3.249
 5231TIP3   OH215633   0.124   7.080   0.789
 5231TIP3    H115634   0.047   7.111   0.742
 5231TIP3    H215635   0.139   6.992   0.756
 5232TIP3   OH215636   3.920   5.815   1.303
 5232TIP3    H115637   3.929   5.724   1.329
 5232TIP3    H215638   4.011   5.847   1.297
 5233TIP3   OH215639   4.844   0.178   4.762
 5233TIP3    H115640   4.894   0.114   4.812
 5233TIP3    H215641   4.878   0.263   4.792
 5234TIP3   OH215642   2.516   3.265   3.065
 5234TIP3    H115643   2.455   3.278   3.138
 5234TIP3    H215644   2.602   3.289   3.102
 5235TIP3   OH215645   3.900   2.029   6.252
 5235TIP3    H115646   3.988   2.052   6.223
 5235TIP3    H215647   3.842   2.066   6.185
 5236TIP3   OH215648   4.502   1.955   1.047
 5236TIP3    H115649   4.520   2.044   1.077
 5236TIP3    H215650   4.416   1.960   1.005
 5237TIP3   OH215651   4.517   7.885   0.020
 5237TIP3    H115652   4.439   7.844  -0.018
 5237TIP3    H215653   4.500   7.886   0.114
 5238TIP3   OH215654   2.140   0.728   1.842
 5238TIP3    H115655   2.148   0.639   1.874
 5238TIP3    H215656   2.137   0.782   1.921
 5239TIP3   OH215657   7.148   3.488   1.702
 5239TIP3    H115658   7.068   3.449   1.666
 5239TIP3    H215659   7.207   3.494   1.627
 5240TIP3   OH215660   2.771   4.573   4.691
 5240TIP3    H115661   2.799   4.494   4.737
 5240TIP3    H215662   2.689   4.547   4.648
 5241TIP3   OH215663   4.506   1.978   2.222
 5241TIP3    H115664   4.566   2.040   2.180
 5241TIP3    H215665   4.499   1.905   2.161
 5242TIP3   OH215666   3.241   2.579   4.437
 5242TIP3    H115667   3.146   2.596   4.434
 5242TIP3    H215668   3.274   2.641   4.501
 5243TIP3   OH215669   3.385   2.078   1.537
 5243TIP3    H115670   3.347   2.032   1.612
 5243TIP3    H215671   3.368   2.171   1.555
 5244TIP3   OH215672   1.273   7.433   4.461
 5244TIP3    H115673   1.303   7.451   4.372
 5244TIP3    H215674   1.198   7.375   4.451
 5245TIP3   OH215675   8.215   6.393   0.275
 5245TIP3    H115676   8.289   6.361   0.327
 5245TIP3    H215677   8.197   6.322   0.213
 5246TIP3   OH215678   5.253   3.639   3.400
 5246TIP3    H115679   5.295   3.662   3.483
 5246TIP3    H215680   5.309   3.680   3.333
 5247TIP3   OH215681   8.267   0.015   1.657
 5247TIP3    H115682   8.192  -0.035   1.624
 5247TIP3    H215683   8.330   0.014   1.585
 5248TIP3   OH215684   1.572   6.130   3.727
 5248TIP3    H115685   1.573   6.225   3.732
 5248TIP3    H215686   1.558   6.101   3.818
 5249TIP3   OH215687   1.601   7.513   6.707
 5249TIP3    H115688   1.508   7.531   6.692
 5249TIP3    H215689   1.647   7.583   6.659
 5250TIP3   OH215690   5.778   0.189   1.501
 5250TIP3    H115691   5.725   0.128   1.552
 5250TIP3    H215692   5.745   0.180   1.411
 5251TIP3   OH215693   4.339   7.760   2.863
 5251TIP3    H115694   4.389   7.722   2.935
 5251TIP3    H215695   4.405   7.802   2.807
 5252TIP3   OH215696   4.308   7.631   3.150
 5252TIP3    H115697   4.376   7.664   3.209
 5252TIP3    H215698   4.313   7.536   3.159
 5253TIP3   OH215699   0.369   2.091   6.055
 5253TIP3    H115700   0.320   2.165   6.019
 5253TIP3    H215701   0.459   2.106   6.026
 5254TIP3   OH215702   5.622   3.658   5.918
 5254TIP3    H115703   5.598   3.731   5.861
 5254TIP3    H215704   5.710   3.634   5.890
 5255TIP3   OH215705   7.236   4.615   4.510
 5255TIP3    H115706   7.323   4.651   4.524
 5255TIP3    H215707   7.209   4.582   4.596
 5256TIP3   OH215708   6.216   7.769   6.517
 5256TIP3    H115709   6.159   7.794   6.590
 5256TIP3    H215710   6.231   7.850   6.469
 5257TIP3   OH215711   0.752   0.093   0.458
 5257TIP3    H115712   0.840   0.130   0.446
 5257TIP3    H215713   0.702   0.128   0.384
 5258TIP3   OH215714   4.375   7.068   5.169
 5258TIP3    H115715   4.456   7.057   5.219
 5258TIP3    H215716   4.403   7.062   5.078
 5259TIP3   OH215717   6.808   2.455   1.507
 5259TIP3    H115718   6.902   2.469   1.523
 5259TIP3    H215719   6.785   2.381   1.563
 5260TIP3   OH215720   2.929   5.034   6.128
 5260TIP3    H115721   2.886   4.971   6.186
 5260TIP3    H215722   2.891   5.118   6.152
 5261TIP3   OH215723   8.225   0.872   1.248
 5261TIP3    H115724   8.171   0.859   1.326
 5261TIP3    H215725   8.290   0.802   1.251
 5262TIP3   OH215726   5.580   5.444   6.455
 5262TIP3    H115727   5.501   5.389   6.464
 5262TIP3    H215728   5.546   5.531   6.437
 5263TIP3   OH215729   5.806   2.306   1.525
 5263TIP3    H115730   5.868   2.374   1.550
 5263TIP3    H215731   5.852   2.254   1.458
 5264TIP3   OH215732   0.862   0.934   2.712
 5264TIP3    H115733   0.933   0.996   2.696
 5264TIP3    H215734   0.844   0.943   2.806
 5265TIP3   OH215735   6.035   7.413   4.207
 5265TIP3    H115736   5.952   7.425   4.161
 5265TIP3    H215737   6.092   7.371   4.143
 5266TIP3   OH215738   4.174   1.180   0.411
 5266TIP3    H115739   4.232   1.251   0.385
 5266TIP3    H215740   4.219   1.100   0.383
 5267TIP3   OH215741   7.541   2.319   6.316
 5267TIP3    H115742   7.583   2.237   6.289
 5267TIP3    H215743   7.574   2.384   6.253
 5268TIP3   OH215744   0.987   3.983   2.345
 5268TIP3    H115745   0.932   4.052   2.380
 5268TIP3    H215746   0.931   3.905   2.345
 5269TIP3   OH215747   7.102   7.793   6.383
 5269TIP3    H115748   7.138   7.785   6.294
 5269TIP3    H215749   7.020   7.840   6.371
 5270TIP3   OH215750   7.171   5.454   4.528
 5270TIP3    H115751   7.198   5.367   4.558
 5270TIP3    H215752   7.149   5.501   4.609
 5271TIP3   OH215753   2.092   6.495   2.848
 5271TIP3    H115754   2.036   6.566   2.815
 5271TIP3    H215755   2.041   6.455   2.918
 5272TIP3   OH215756   0.070   5.883   1.437
 5272TIP3    H115757   0.000   5.896   1.501
 5272TIP3    H215758   0.057   5.794   1.404
 5273TIP3   OH215759   7.432   4.340   3.396
 5273TIP3    H115760   7.442   4.357   3.490
 5273TIP3    H215761   7.404   4.248   3.391
 5274TIP3   OH215762   2.272   4.897   2.816
 5274TIP3    H115763   2.336   4.921   2.749
 5274TIP3    H215764   2.282   4.802   2.825
 5275TIP3   OH215765   7.851   6.815   0.813
 5275TIP3    H115766   7.831   6.732   0.771
 5275TIP3    H215767   7.891   6.868   0.745
 5276TIP3   OH215768   1.745   5.070   5.364
 5276TIP3    H115769   1.685   5.003   5.330
 5276TIP3    H215770   1.829   5.051   5.321
 5277TIP3   OH215771   4.898   2.777   5.307
 5277TIP3    H115772   4.950   2.848   5.345
 5277TIP3    H215773   4.809   2.796   5.335
 5278TIP3   OH215774   6.968   2.302   2.770
 5278TIP3    H115775   7.013   2.218   2.759
 5278TIP3    H215776   6.875   2.278   2.772
 5279TIP3   OH215777   5.969   2.673   0.415
 5279TIP3    H115778   6.022   2.751   0.400
 5279TIP3    H215779   5.980   2.622   0.334
 5280TIP3   OH215780   3.064   0.419   6.553
 5280TIP3    H115781   3.036   0.388   6.466
 5280TIP3    H215782   3.109   0.502   6.536
 5281TIP3   OH215783   0.173   6.952   6.405
 5281TIP3    H115784   0.154   6.998   6.323
 5281TIP3    H215785   0.102   6.977   6.463
 5282TIP3   OH215786   5.233   5.129   3.566
 5282TIP3    H115787   5.246   5.176   3.649
 5282TIP3    H215788   5.152   5.080   3.579
 5283TIP3   OH215789   2.306   0.206   6.866
 5283TIP3    H115790   2.329   0.288   6.823
 5283TIP3    H215791   2.234   0.229   6.924
 5284TIP3   OH215792   6.996   2.512   6.805
 5284TIP3    H115793   6.964   2.577   6.743
 5284TIP3    H215794   7.037   2.444   6.751
 5285TIP3   OH215795   5.703   0.735   3.686
 5285TIP3    H115796   5.762   0.780   3.626
 5285TIP3    H215797   5.668   0.662   3.636
 5286TIP3   OH215798   1.334   1.976   4.342
 5286TIP3    H115799   1.252   1.947   4.303
 5286TIP3    H215800   1.365   1.901   4.393
 5287TIP3   OH215801   5.480   3.895   5.415
 5287TIP3    H115802   5.450   3.967   5.470
 5287TIP3    H215803   5.551   3.932   5.363
 5288TIP3   OH215804   7.283   6.140   6.702
 5288TIP3    H115805   7.289   6.120   6.796
 5288TIP3    H215806   7.263   6.056   6.661
 5289TIP3   OH215807   5.523   3.270   5.011
 5289TIP3    H115808   5.461   3.306   4.948
 5289TIP3    H215809   5.519   3.330   5.086
 5290TIP3   OH215810   4.066   1.566   6.707
 5290TIP3    H115811   4.099   1.654   6.688
 5290TIP3    H215812   3.972   1.579   6.721
 5291TIP3   OH215813   0.655   4.475   3.566
 5291TIP3    H115814   0.647   4.380   3.570
 5291TIP3    H215815   0.724   4.491   3.501
 5292TIP3   OH215816   6.856   5.660   1.354
 5292TIP3    H115817   6.763   5.664   1.332
 5292TIP3    H215818   6.880   5.569   1.341
 5293TIP3   OH215819   6.311   3.651   2.967
 5293TIP3    H115820   6.240   3.593   2.940
 5293TIP3    H215821   6.316   3.716   2.897
 5294TIP3   OH215822   0.561   7.909   4.727
 5294TIP3    H115823   0.529   7.837   4.782
 5294TIP3    H215824   0.621   7.867   4.665
 5295TIP3   OH215825   0.495   1.234   5.701
 5295TIP3    H115826   0.410   1.265   5.731
 5295TIP3    H215827   0.497   1.254   5.607
 5296TIP3   OH215828   7.871   3.339   0.542
 5296TIP3    H115829   7.791   3.373   0.583
 5296TIP3    H215830   7.882   3.252   0.580
 5297TIP3   OH215831   5.817   0.940   6.077
 5297TIP3    H115832   5.803   0.854   6.037
 5297TIP3    H215833   5.859   0.921   6.161
 5298TIP3   OH215834   4.205   0.808   5.001
 5298TIP3    H115835   4.127   0.862   4.987
 5298TIP3    H215836   4.276   0.858   4.961
 5299TIP3   OH215837   4.732   4.652   5.492
 5299TIP3    H115838   4.700   4.642   5.582
 5299TIP3    H215839   4.652   4.650   5.438
 5300TIP3   OH215840   5.168   6.261   0.937
 5300TIP3    H115841   5.143   6.222   1.021
 5300TIP3    H215842   5.186   6.352   0.956
 5301TIP3   OH215843   2.559   6.861   6.105
 5301TIP3    H115844   2.605   6.805   6.042
 5301TIP3    H215845   2.600   6.839   6.190
 5302TIP3   OH215846   5.102   2.220   1.873
 5302TIP3    H115847   5.115   2.133   1.836
 5302TIP3    H215848   5.169   2.275   1.832
 5303TIP3   OH215849   0.771   5.276   3.576
 5303TIP3    H115850   0.699   5.254   3.635
 5303TIP3    H215851   0.735   5.344   3.520
 5304TIP3   OH215852   4.011   6.209   5.821
 5304TIP3    H115853   3.955   6.148   5.869
 5304TIP3    H215854   3.977   6.296   5.843
 5305TIP3   OH215855   6.343   5.802   5.568
 5305TIP3    H115856   6.359   5.863   5.640
 5305TIP3    H215857   6.420   5.745   5.568
 5306TIP3   OH215858   4.121   5.687   3.657
 5306TIP3    H115859   4.049   5.695   3.719
 5306TIP3    H215860   4.174   5.615   3.689
 5307TIP3   OH215861   2.725   7.307   0.776
 5307TIP3    H115862   2.668   7.234   0.749
 5307TIP3    H215863   2.761   7.340   0.694
 5308TIP3   OH215864   5.254   5.730   0.299
 5308TIP3    H115865   5.235   5.712   0.207
 5308TIP3    H215866   5.325   5.670   0.322
 5309TIP3   OH215867   3.771   0.874   0.871
 5309TIP3    H115868   3.805   0.787   0.890
 5309TIP3    H215869   3.703   0.888   0.936
 5310TIP3   OH215870   7.207   2.194   6.152
 5310TIP3    H115871   7.240   2.155   6.233
 5310TIP3    H215872   7.285   2.207   6.098
 5311TIP3   OH215873   7.443   5.485   5.337
 5311TIP3    H115874   7.461   5.579   5.336
 5311TIP3    H215875   7.518   5.447   5.382
 5312TIP3   OH215876   3.763   5.548   1.083
 5312TIP3    H115877   3.836   5.609   1.088
 5312TIP3    H215878   3.770   5.507   0.996
 5313TIP3   OH215879   1.444   4.652   5.178
 5313TIP3    H115880   1.441   4.581   5.242
 5313TIP3    H215881   1.387   4.623   5.107
 5314TIP3   OH215882   4.385   4.414   5.466
 5314TIP3    H115883   4.418   4.502   5.486
 5314TIP3    H215884   4.389   4.368   5.550
 5315TIP3   OH215885   7.307   1.100   0.253
 5315TIP3    H115886   7.369   1.049   0.202
 5315TIP3    H215887   7.266   1.035   0.311
 5316TIP3   OH215888   3.290   2.230   4.564
 5316TIP3    H115889   3.202   2.244   4.600
 5316TIP3    H215890   3.276   2.170   4.490
 5317TIP3   OH215891   6.020   4.229   0.975
 5317TIP3    H115892   6.059   4.311   0.947
 5317TIP3    H215893   6.017   4.236   1.071
 5318TIP3   OH215894   7.463   6.643   5.091
 5318TIP3    H115895   7.530   6.635   5.023
 5318TIP3    H215896   7.430   6.554   5.103
 5319TIP3   OH215897   0.620   6.532   1.194
 5319TIP3    H115898   0.597   6.524   1.286
 5319TIP3    H215899   0.539   6.514   1.147
 5320TIP3   OH215900   4.859   0.791   0.242
 5320TIP3    H115901   4.808   0.829   0.170
 5320TIP3    H215902   4.940   0.762   0.202
 5321TIP3   OH215903   8.009   0.965   6.041
 5321TIP3    H115904   8.040   1.013   5.964
 5321TIP3    H215905   8.059   0.884   6.040
 5322TIP3   OH215906   7.287   2.157   2.933
 5322TIP3    H115907   7.370   2.137   2.977
 5322TIP3    H215908   7.288   2.253   2.925
 5323TIP3   OH215909   0.069   3.364   0.402
 5323TIP3    H115910   0.078   3.379   0.307
 5323TIP3    H215911   0.133   3.423   0.441
 5324TIP3   OH215912   5.746   5.952   5.409
 5324TIP3    H115913   5.732   6.028   5.465
 5324TIP3    H215914   5.840   5.940   5.407
 5325TIP3   OH215915   4.026   0.152   4.221
 5325TIP3    H115916   4.024   0.169   4.127
 5325TIP3    H215917   4.087   0.216   4.256
 5326TIP3   OH215918   4.597   4.566   0.532
 5326TIP3    H115919   4.644   4.582   0.614
 5326TIP3    H215920   4.601   4.650   0.485
 5327TIP3   OH215921   1.350   5.765   6.256
 5327TIP3    H115922   1.280   5.822   6.287
 5327TIP3    H215923   1.324   5.677   6.285
 5328TIP3   OH215924   1.358   1.890   4.803
 5328TIP3    H115925   1.426   1.877   4.869
 5328TIP3    H215926   1.306   1.809   4.805
 5329TIP3   OH215927   1.907   1.801   1.241
 5329TIP3    H115928   1.894   1.769   1.330
 5329TIP3    H215929   1.999   1.826   1.237
 5330TIP3   OH215930   0.380   2.297   0.622
 5330TIP3    H115931   0.327   2.377   0.627
 5330TIP3    H215932   0.328   2.231   0.667
 5331TIP3   OH215933   7.465   3.698   0.380
 5331TIP3    H115934   7.518   3.623   0.353
 5331TIP3    H215935   7.389   3.696   0.321
 5332TIP3   OH215936   1.430   6.501   5.848
 5332TIP3    H115937   1.464   6.414   5.868
 5332TIP3    H215938   1.506   6.549   5.815
 5333TIP3   OH215939   1.860   0.828   6.038
 5333TIP3    H115940   1.887   0.800   5.951
 5333TIP3    H215941   1.934   0.806   6.094
 5334TIP3   OH215942   1.328   2.082   0.280
 5334TIP3    H115943   1.261   2.041   0.226
 5334TIP3    H215944   1.388   2.123   0.218
 5335TIP3   OH215945   0.216   2.794   1.461
 5335TIP3    H115946   0.159   2.849   1.514
 5335TIP3    H215947   0.235   2.718   1.516
 5336TIP3   OH215948   3.412   7.778   3.206
 5336TIP3    H115949   3.340   7.753   3.264
 5336TIP3    H215950   3.449   7.694   3.178
 5337TIP3   OH215951   5.993   5.920   4.458
 5337TIP3    H115952   6.049   5.979   4.509
 5337TIP3    H215953   5.918   5.973   4.434
 5338TIP3   OH215954   3.307   1.424   3.326
 5338TIP3    H115955   3.245   1.379   3.384
 5338TIP3    H215956   3.294   1.517   3.345
 5339TIP3   OH215957   2.323   1.314   4.492
 5339TIP3    H115958   2.289   1.315   4.581
 5339TIP3    H215959   2.290   1.232   4.455
 5340TIP3   OH215960   3.663   3.408   3.372
 5340TIP3    H115961   3.753   3.409   3.404
 5340TIP3    H215962   3.623   3.487   3.410
 5341TIP3   OH215963   6.152   3.199   6.178
 5341TIP3    H115964   6.130   3.283   6.138
 5341TIP3    H215965   6.191   3.148   6.107
 5342TIP3   OH215966   6.512   4.756   3.813
 5342TIP3    H115967   6.558   4.717   3.739
 5342TIP3    H215968   6.558   4.725   3.890
 5343TIP3   OH215969   3.902   1.368   4.116
 5343TIP3    H115970   3.986   1.410   4.133
 5343TIP3    H215971   3.839   1.440   4.116
 5344TIP3   OH215972   6.461   6.601   2.932
 5344TIP3    H115973   6.545   6.616   2.889
 5344TIP3    H215974   6.395   6.630   2.869
 5345TIP3   OH215975   1.114   1.808   2.351
 5345TIP3    H115976   1.022   1.827   2.336
 5345TIP3    H215977   1.146   1.881   2.404
 5346TIP3   OH215978   5.806   6.424   0.567
 5346TIP3    H115979   5.852   6.504   0.541
 5346TIP3    H215980   5.816   6.365   0.492
 5347TIP3   OH215981   8.004   4.933   4.373
 5347TIP3    H115982   8.062   4.904   4.303
 5347TIP3    H215983   8.042   4.896   4.452
 5348TIP3   OH215984   3.094   3.920   1.831
 5348TIP3    H115985   3.136   3.986   1.776
 5348TIP3    H215986   3.046   3.864   1.770
 5349TIP3   OH215987   6.314   4.529   1.309
 5349TIP3    H115988   6.392   4.558   1.358
 5349TIP3    H215989   6.244   4.584   1.343
 5350TIP3   OH215990   4.721   2.924   5.455
 5350TIP3    H115991   4.799   2.976   5.475
 5350TIP3    H215992   4.706   2.871   5.533
 5351TIP3   OH215993   3.881   3.413   3.848
 5351TIP3    H115994   3.850   3.491   3.896
 5351TIP3    H215995   3.972   3.402   3.876
 5352TIP3   OH215996   0.162   6.972   2.377
 5352TIP3    H115997   0.164   6.877   2.365
 5352TIP3    H215998   0.176   6.984   2.471
 5353TIP3   OH215999   2.467   2.439   3.573
 5353TIP3    H116000   2.397   2.442   3.638
 5353TIP3    H216001   2.531   2.503   3.602
 5354TIP3   OH216002   6.930   3.259   2.871
 5354TIP3    H116003   6.867   3.299   2.931
 5354TIP3    H216004   6.945   3.325   2.804
 5355TIP3   OH216005   5.533   3.682   4.728
 5355TIP3    H116006   5.455   3.654   4.679
 5355TIP3    H216007   5.555   3.767   4.690
 5356TIP3   OH216008   3.499   4.980   1.065
 5356TIP3    H116009   3.407   4.955   1.053
 5356TIP3    H216010   3.496   5.058   1.119
 5357TIP3   OH216011   0.821   0.767   4.717
 5357TIP3    H116012   0.844   0.818   4.795
 5357TIP3    H216013   0.884   0.795   4.651
 5358TIP3   OH216014   3.569   3.096   2.285
 5358TIP3    H116015   3.525   3.146   2.216
 5358TIP3    H216016   3.504   3.031   2.313
 5359TIP3   OH216017   7.237   0.019   6.630
 5359TIP3    H116018   7.204   0.108   6.618
 5359TIP3    H216019   7.178  -0.021   6.693
 5360TIP3   OH216020   6.244   7.482   6.470
 5360TIP3    H116021   6.154   7.452   6.459
 5360TIP3    H216022   6.237   7.577   6.482
 5361TIP3   OH216023   4.108   2.059   2.402
 5361TIP3    H116024   4.106   2.153   2.381
 5361TIP3    H216025   4.078   2.016   2.323
 5362TIP3   OH216026   3.922   4.185   3.259
 5362TIP3    H116027   3.904   4.234   3.340
 5362TIP3    H216028   3.896   4.095   3.280
 5363TIP3   OH216029   7.281   7.323   3.817
 5363TIP3    H116030   7.249   7.325   3.726
 5363TIP3    H216031   7.222   7.261   3.861
 5364TIP3   OH216032   2.157   0.895   3.886
 5364TIP3    H116033   2.159   0.800   3.895
 5364TIP3    H216034   2.151   0.910   3.791
 5365TIP3   OH216035   3.578   4.508   5.786
 5365TIP3    H116036   3.649   4.449   5.810
 5365TIP3    H216037   3.557   4.555   5.867
 5366TIP3   OH216038   6.171   7.594   6.859
 5366TIP3    H116039   6.178   7.689   6.856
 5366TIP3    H216040   6.253   7.563   6.820
 5367TIP3   OH216041   5.698   7.935   4.247
 5367TIP3    H116042   5.736   7.899   4.326
 5367TIP3    H216043   5.760   7.913   4.178
 5368TIP3   OH216044   5.981   3.615   3.176
 5368TIP3    H116045   5.988   3.563   3.096
 5368TIP3    H216046   6.016   3.701   3.152
 5369TIP3   OH216047   1.643   6.441   5.022
 5369TIP3    H116048   1.678   6.479   4.941
 5369TIP3    H216049   1.636   6.347   5.003
 5370TIP3   OH216050   3.665   6.784   3.454
 5370TIP3    H116051   3.615   6.851   3.409
 5370TIP3    H216052   3.753   6.790   3.417
 5371TIP3   OH216053   6.146   4.019   1.238
 5371TIP3    H116054   6.150   3.984   1.149
 5371TIP3    H216055   6.090   4.096   1.232
 5372TIP3   OH216056   5.296   3.658   4.071
 5372TIP3    H116057   5.371   3.654   4.011
 5372TIP3    H216058   5.225   3.693   4.017
 5373TIP3   OH216059   2.130   3.599   2.190
 5373TIP3    H116060   2.164   3.630   2.274
 5373TIP3    H216061   2.044   3.563   2.211
 5374TIP3   OH216062   8.034   2.050   6.806
 5374TIP3    H116063   8.125   2.063   6.778
 5374TIP3    H216064   7.986   2.034   6.725
 5375TIP3   OH216065   4.515   0.889   0.191
 5375TIP3    H116066   4.569   0.930   0.123
 5375TIP3    H216067   4.487   0.806   0.153
 5376TIP3   OH216068   5.664   5.145   0.097
 5376TIP3    H116069   5.650   5.232   0.135
 5376TIP3    H216070   5.615   5.086   0.154
 5377TIP3   OH216071   3.109   3.443   0.359
 5377TIP3    H116072   3.181   3.465   0.300
 5377TIP3    H216073   3.148   3.446   0.447
 5378TIP3   OH216074   1.821   7.341   5.300
 5378TIP3    H116075   1.882   7.414   5.306
 5378TIP3    H216076   1.734   7.382   5.304
 5379TIP3   OH216077   3.577   2.679   3.333
 5379TIP3    H116078   3.672   2.680   3.325
 5379TIP3    H216079   3.545   2.715   3.250
 5380TIP3   OH216080   5.480   1.909   5.580
 5380TIP3    H116081   5.576   1.917   5.573
 5380TIP3    H216082   5.457   1.846   5.512
 5381TIP3   OH216083   2.126   3.770   0.351
 5381TIP3    H116084   2.040   3.731   0.367
 5381TIP3    H216085   2.132   3.842   0.414
 5382TIP3   OH216086   3.589   1.212   3.527
 5382TIP3    H116087   3.671   1.173   3.495
 5382TIP3    H216088   3.613   1.303   3.547
 5383TIP3   OH216089   7.148   2.353   5.779
 5383TIP3    H116090   7.138   2.437   5.735
 5383TIP3    H216091   7.117   2.368   5.868
 5384TIP3   OH216092   5.281   4.022   0.550
 5384TIP3    H116093   5.347   4.016   0.619
 5384TIP3    H216094   5.330   4.011   0.469
 5385TIP3   OH216095   2.612   6.395   3.509
 5385TIP3    H116096   2.537   6.359   3.462
 5385TIP3    H216097   2.632   6.329   3.576
 5386TIP3   OH216098   4.891   0.223   1.712
 5386TIP3    H116099   4.836   0.197   1.638
 5386TIP3    H216100   4.874   0.157   1.779
 5387TIP3   OH216101   1.696   5.744   1.066
 5387TIP3    H116102   1.626   5.754   1.002
 5387TIP3    H216103   1.660   5.685   1.132
 5388TIP3   OH216104   4.805   7.131   5.623
 5388TIP3    H116105   4.818   7.218   5.662
 5388TIP3    H216106   4.770   7.150   5.536
 5389TIP3   OH216107   0.919   4.103   6.143
 5389TIP3    H116108   0.990   4.066   6.091
 5389TIP3    H216109   0.843   4.102   6.084
 5390TIP3   OH216110   8.125   5.076   6.251
 5390TIP3    H116111   8.144   4.995   6.204
 5390TIP3    H216112   8.099   5.048   6.339
 5391TIP3   OH216113   2.904   5.526   5.866
 5391TIP3    H116114   2.941   5.608   5.835
 5391TIP3    H216115   2.873   5.545   5.954
 5392TIP3   OH216116   5.157   5.718   3.586
 5392TIP3    H116117   5.241   5.752   3.615
 5392TIP3    H216118   5.099   5.794   3.585
 5393TIP3   OH216119   7.549   4.950   0.088
 5393TIP3    H116120   7.581   5.021   0.033
 5393TIP3    H216121   7.627   4.920   0.136
 5394TIP3   OH216122   4.322   2.970   4.559
 5394TIP3    H116123   4.232   3.001   4.549
 5394TIP3    H216124   4.314   2.884   4.600
 5395TIP3   OH216125   1.254   4.689   2.178
 5395TIP3    H116126   1.172   4.669   2.132
 5395TIP3    H216127   1.277   4.777   2.148
 5396TIP3   OH216128   5.119   6.498   6.641
 5396TIP3    H116129   5.128   6.464   6.552
 5396TIP3    H216130   5.201   6.544   6.658
 5397TIP3   OH216131   5.176   5.477   5.641
 5397TIP3    H116132   5.272   5.476   5.639
 5397TIP3    H216133   5.153   5.569   5.658
 5398TIP3   OH216134   0.234   4.041   0.222
 5398TIP3    H116135   0.179   4.079   0.153
 5398TIP3    H216136   0.173   4.019   0.292
 5399TIP3   OH216137   5.684   5.636   2.574
 5399TIP3    H116138   5.596   5.609   2.600
 5399TIP3    H216139   5.733   5.555   2.568
 5400TIP3   OH216140   1.291   3.990   2.620
 5400TIP3    H116141   1.358   3.978   2.687
 5400TIP3    H216142   1.256   3.902   2.605
 5401TIP3   OH216143   6.334   5.302   5.819
 5401TIP3    H116144   6.416   5.351   5.821
 5401TIP3    H216145   6.276   5.355   5.764
 5402TIP3   OH216146   8.148   4.057   1.408
 5402TIP3    H116147   8.094   4.055   1.330
 5402TIP3    H216148   8.233   4.021   1.381
 5403TIP3   OH216149   3.632   4.346   1.926
 5403TIP3    H116150   3.621   4.350   2.022
 5403TIP3    H216151   3.681   4.265   1.912
 5404TIP3   OH216152   4.596   2.584   1.651
 5404TIP3    H116153   4.626   2.635   1.726
 5404TIP3    H216154   4.655   2.608   1.580
 5405TIP3   OH216155   3.938   5.162   0.710
 5405TIP3    H116156   3.846   5.182   0.694
 5405TIP3    H216157   3.943   5.066   0.709
 5406TIP3   OH216158   6.017   7.663   4.367
 5406TIP3    H116159   6.094   7.706   4.328
 5406TIP3    H216160   5.963   7.736   4.397
 5407TIP3   OH216161   3.759   2.625   3.880
 5407TIP3    H116162   3.726   2.637   3.969
 5407TIP3    H216163   3.852   2.650   3.886
 5408TIP3   OH216164   3.600   0.278   1.091
 5408TIP3    H116165   3.583   0.304   1.182
 5408TIP3    H216166   3.670   0.336   1.062
 5409TIP3   OH216167   1.116   5.868   6.406
 5409TIP3    H116168   1.164   5.833   6.482
 5409TIP3    H216169   1.059   5.797   6.378
 5410TIP3   OH216170   4.051   6.218   3.224
 5410TIP3    H116171   4.110   6.283   3.186
 5410TIP3    H216172   4.105   6.172   3.289
 5411TIP3   OH216173   2.779   3.426   4.245
 5411TIP3    H116174   2.863   3.463   4.273
 5411TIP3    H216175   2.799   3.382   4.162
 5412TIP3   OH216176   4.394   6.803   6.639
 5412TIP3    H116177   4.367   6.726   6.689
 5412TIP3    H216178   4.483   6.782   6.611
 5413TIP3   OH216179   5.380   6.501   5.631
 5413TIP3    H116180   5.414   6.566   5.693
 5413TIP3    H216181   5.358   6.552   5.553
 5414TIP3   OH216182   3.764   3.652   5.678
 5414TIP3    H116183   3.848   3.648   5.723
 5414TIP3    H216184   3.716   3.576   5.710
 5415TIP3   OH216185   1.245   2.829   2.179
 5415TIP3    H116186   1.252   2.762   2.111
 5415TIP3    H216187   1.290   2.791   2.255
 5416TIP3   OH216188   0.063   3.689   5.398
 5416TIP3    H116189   0.036   3.597   5.400
 5416TIP3    H216190   0.061   3.717   5.489
 5417TIP3   OH216191   2.863   1.773   5.327
 5417TIP3    H116192   2.781   1.742   5.366
 5417TIP3    H216193   2.903   1.695   5.289
 5418TIP3   OH216194   2.274   7.796   4.008
 5418TIP3    H116195   2.299   7.773   4.098
 5418TIP3    H216196   2.195   7.745   3.992
 5419TIP3   OH216197   0.725   0.919   2.294
 5419TIP3    H116198   0.804   0.945   2.247
 5419TIP3    H216199   0.659   0.983   2.267
 5420TIP3   OH216200   6.579   3.658   3.531
 5420TIP3    H116201   6.640   3.587   3.548
 5420TIP3    H216202   6.510   3.646   3.596
 5421TIP3   OH216203   0.495   4.607   6.419
 5421TIP3    H116204   0.573   4.661   6.404
 5421TIP3    H216205   0.526   4.517   6.414
 5422TIP3   OH216206   4.892   6.012   6.378
 5422TIP3    H116207   4.932   5.963   6.306
 5422TIP3    H216208   4.964   6.062   6.417
 5423TIP3   OH216209   0.581   1.194   0.340
 5423TIP3    H116210   0.522   1.121   0.358
 5423TIP3    H216211   0.595   1.191   0.245
 5424TIP3   OH216212   7.045   7.765   2.590
 5424TIP3    H116213   7.109   7.791   2.656
 5424TIP3    H216214   7.088   7.781   2.506
 5425TIP3   OH216215   2.757   5.658   3.140
 5425TIP3    H116216   2.709   5.614   3.070
 5425TIP3    H216217   2.801   5.731   3.097
 5426TIP3   OH216218   1.455   3.220   6.332
 5426TIP3    H116219   1.400   3.147   6.361
 5426TIP3    H216220   1.438   3.227   6.238
 5427TIP3   OH216221   3.631   0.817   5.925
 5427TIP3    H116222   3.708   0.874   5.928
 5427TIP3    H216223   3.666   0.729   5.939
 5428TIP3   OH216224   1.081   4.681   3.629
 5428TIP3    H116225   1.128   4.753   3.587
 5428TIP3    H216226   1.026   4.645   3.559
 5429TIP3   OH216227   4.992   7.578   3.312
 5429TIP3    H116228   4.984   7.528   3.393
 5429TIP3    H216229   4.914   7.633   3.311
 5430TIP3   OH216230   6.572   4.773   2.674
 5430TIP3    H116231   6.660   4.775   2.638
 5430TIP3    H216232   6.544   4.865   2.676
 5431TIP3   OH216233   0.158   5.354   6.374
 5431TIP3    H116234   0.103   5.427   6.346
 5431TIP3    H216235   0.156   5.293   6.301
 5432TIP3   OH216236   4.179   2.691   1.939
 5432TIP3    H116237   4.169   2.712   2.032
 5432TIP3    H216238   4.106   2.736   1.896
 5433TIP3   OH216239   4.445   7.815   0.279
 5433TIP3    H116240   4.486   7.830   0.363
 5433TIP3    H216241   4.352   7.836   0.293
 5434TIP3   OH216242   0.877   7.671   0.196
 5434TIP3    H116243   0.912   7.599   0.143
 5434TIP3    H216244   0.884   7.640   0.286
 5435TIP3   OH216245   3.041   4.738   5.982
 5435TIP3    H116246   3.070   4.789   5.906
 5435TIP3    H216247   3.079   4.784   6.057
 5436TIP3   OH216248   0.702   2.429   4.895
 5436TIP3    H116249   0.740   2.383   4.969
 5436TIP3    H216250   0.676   2.360   4.834
 5437TIP3   OH216251   8.201   7.473   5.947
 5437TIP3    H116252   8.147   7.394   5.944
 5437TIP3    H216253   8.139   7.544   5.964
 5438TIP3   OH216254   7.341   7.634   4.167
 5438TIP3    H116255   7.391   7.561   4.132
 5438TIP3    H216256   7.279   7.656   4.097
 5439TIP3   OH216257   4.674   4.590   6.548
 5439TIP3    H116258   4.690   4.671   6.500
 5439TIP3    H216259   4.590   4.605   6.592
 5440TIP3   OH216260   7.711   0.830   6.405
 5440TIP3    H116261   7.688   0.794   6.490
 5440TIP3    H216262   7.760   0.760   6.362
 5441TIP3   OH216263   3.884   6.451   5.839
 5441TIP3    H116264   3.811   6.473   5.897
 5441TIP3    H216265   3.926   6.535   5.820
 5442TIP3   OH216266   1.137   4.520   3.167
 5442TIP3    H116267   1.050   4.496   3.135
 5442TIP3    H216268   1.193   4.515   3.089
 5443TIP3   OH216269   5.321   4.752   0.531
 5443TIP3    H116270   5.296   4.840   0.558
 5443TIP3    H216271   5.406   4.763   0.489
 5444TIP3   OH216272   5.708   7.365   1.550
 5444TIP3    H116273   5.754   7.420   1.486
 5444TIP3    H216274   5.641   7.423   1.587
 5445TIP3   OH216275   7.269   0.711   4.530
 5445TIP3    H116276   7.192   0.659   4.504
 5445TIP3    H216277   7.268   0.708   4.626
 5446TIP3   OH216278   5.226   0.649   4.153
 5446TIP3    H116279   5.177   0.718   4.198
 5446TIP3    H216280   5.215   0.572   4.210
 5447TIP3   OH216281   0.679   4.828   3.641
 5447TIP3    H116282   0.753   4.816   3.582
 5447TIP3    H216283   0.706   4.900   3.699
 5448TIP3   OH216284   3.928   7.569   0.544
 5448TIP3    H116285   3.994   7.603   0.484
 5448TIP3    H216286   3.978   7.531   0.616
 5449TIP3   OH216287   6.703   2.705   1.493
 5449TIP3    H116288   6.745   2.742   1.571
 5449TIP3    H216289   6.729   2.613   1.493
 5450TIP3   OH216290   1.955   7.226   1.965
 5450TIP3    H116291   1.882   7.271   2.008
 5450TIP3    H216292   2.025   7.291   1.963
 5451TIP3   OH216293   5.944   0.410   1.561
 5451TIP3    H116294   5.879   0.467   1.603
 5451TIP3    H216295   5.901   0.325   1.553
 5452TIP3   OH216296   5.211   0.087   2.298
 5452TIP3    H116297   5.142   0.150   2.273
 5452TIP3    H216298   5.178   0.047   2.379
 5453TIP3   OH216299   5.124   4.898   2.542
 5453TIP3    H116300   5.103   4.984   2.508
 5453TIP3    H216301   5.057   4.882   2.610
 5454TIP3   OH216302   5.034   4.159   0.601
 5454TIP3    H116303   5.123   4.130   0.621
 5454TIP3    H216304   4.999   4.090   0.545
 5455TIP3   OH216305   3.850   1.557   2.253
 5455TIP3    H116306   3.897   1.482   2.216
 5455TIP3    H216307   3.909   1.592   2.320
 5456TIP3   OH216308   0.907   0.026   1.079
 5456TIP3    H116309   0.821   0.007   1.116
 5456TIP3    H216310   0.966  -0.034   1.125
 5457TIP3   OH216311   5.666   5.781   0.165
 5457TIP3    H116312   5.696   5.829   0.241
 5457TIP3    H216313   5.627   5.701   0.201
 5458TIP3   OH216314   2.513   7.803   2.174
 5458TIP3    H116315   2.480   7.861   2.243
 5458TIP3    H216316   2.607   7.799   2.190
 5459TIP3   OH216317   3.522   6.246   1.878
 5459TIP3    H116318   3.558   6.196   1.805
 5459TIP3    H216319   3.487   6.180   1.938
 5460TIP3   OH216320   4.344   0.688   4.584
 5460TIP3    H116321   4.334   0.630   4.660
 5460TIP3    H216322   4.400   0.639   4.524
 5461TIP3   OH216323   6.170   7.278   4.685
 5461TIP3    H116324   6.137   7.281   4.775
 5461TIP3    H216325   6.252   7.327   4.688
 5462TIP3   OH216326   3.685   0.992   4.659
 5462TIP3    H116327   3.659   0.907   4.622
 5462TIP3    H216328   3.780   0.985   4.668
 5463TIP3   OH216329   1.051   5.389   2.507
 5463TIP3    H116330   1.021   5.475   2.537
 5463TIP3    H216331   1.034   5.389   2.413
 5464TIP3   OH216332   1.142   5.930   4.157
 5464TIP3    H116333   1.221   5.908   4.107
 5464TIP3    H216334   1.100   5.846   4.175
 5465TIP3   OH216335   1.631   4.203   4.511
 5465TIP3    H116336   1.667   4.198   4.423
 5465TIP3    H216337   1.706   4.223   4.567
 5466TIP3   OH216338   6.256   7.872   5.669
 5466TIP3    H116339   6.331   7.929   5.684
 5466TIP3    H216340   6.281   7.788   5.709
 5467TIP3   OH216341   2.021   1.513   0.802
 5467TIP3    H116342   1.973   1.525   0.721
 5467TIP3    H216343   2.038   1.602   0.833
 5468TIP3   OH216344   6.766   3.916   3.630
 5468TIP3    H116345   6.726   3.903   3.544
 5468TIP3    H216346   6.697   3.890   3.692
 5469TIP3   OH216347   3.570   0.886   3.563
 5469TIP3    H116348   3.654   0.849   3.591
 5469TIP3    H216349   3.534   0.927   3.642
 5470TIP3   OH216350   5.657   0.109   1.277
 5470TIP3    H116351   5.666   0.107   1.182
 5470TIP3    H216352   5.668   0.018   1.304
 5471TIP3   OH216353   2.409   6.706   5.142
 5471TIP3    H116354   2.388   6.644   5.212
 5471TIP3    H216355   2.501   6.727   5.155
 5472TIP3   OH216356   2.493   2.428   4.643
 5472TIP3    H116357   2.460   2.518   4.642
 5472TIP3    H216358   2.572   2.432   4.696
 5473TIP3   OH216359   4.163   0.470   2.722
 5473TIP3    H116360   4.244   0.420   2.737
 5473TIP3    H216361   4.166   0.540   2.788
 5474TIP3   OH216362   6.586   2.485   0.760
 5474TIP3    H116363   6.627   2.433   0.691
 5474TIP3    H216364   6.492   2.475   0.745
 5475TIP3   OH216365   2.469   5.547   3.399
 5475TIP3    H116366   2.413   5.572   3.472
 5475TIP3    H216367   2.553   5.589   3.418
 5476TIP3   OH216368   6.649   2.088   4.516
 5476TIP3    H116369   6.743   2.069   4.517
 5476TIP3    H216370   6.634   2.132   4.432
 5477TIP3   OH216371   1.181   0.753   6.342
 5477TIP3    H116372   1.125   0.777   6.268
 5477TIP3    H216373   1.177   0.657   6.344
 5478TIP3   OH216374   2.320   4.632   2.788
 5478TIP3    H116375   2.366   4.557   2.825
 5478TIP3    H216376   2.303   4.608   2.697
 5479TIP3   OH216377   2.535   6.952   4.519
 5479TIP3    H116378   2.480   7.029   4.532
 5479TIP3    H216379   2.597   6.978   4.451
 5480TIP3   OH216380   4.607   1.737   2.681
 5480TIP3    H116381   4.626   1.656   2.730
 5480TIP3    H216382   4.519   1.762   2.711
 5481TIP3   OH216383   8.367   2.151   5.859
 5481TIP3    H116384   8.374   2.066   5.902
 5481TIP3    H216385   8.366   2.214   5.931
 5482TIP3   OH216386   1.090   3.798   5.449
 5482TIP3    H116387   1.008   3.762   5.415
 5482TIP3    H216388   1.072   3.891   5.463
 5483TIP3   OH216389   7.501   0.064   6.562
 5483TIP3    H116390   7.471   0.147   6.526
 5483TIP3    H216391   7.423   0.008   6.562
 5484TIP3   OH216392   2.841   6.768   2.717
 5484TIP3    H116393   2.895   6.707   2.767
 5484TIP3    H216394   2.837   6.731   2.629
 5485TIP3   OH216395   5.289   3.470   2.257
 5485TIP3    H116396   5.246   3.530   2.196
 5485TIP3    H216397   5.229   3.396   2.266
 5486TIP3   OH216398   3.057   1.379   1.126
 5486TIP3    H116399   2.989   1.424   1.177
 5486TIP3    H216400   3.030   1.287   1.126
 5487TIP3   OH216401   0.555   7.487   4.190
 5487TIP3    H116402   0.612   7.433   4.136
 5487TIP3    H216403   0.467   7.472   4.154
 5488TIP3   OH216404   8.108   3.147   1.210
 5488TIP3    H116405   8.175   3.127   1.144
 5488TIP3    H216406   8.096   3.242   1.205
 5489TIP3   OH216407   1.381   7.876   2.375
 5489TIP3    H116408   1.336   7.799   2.409
 5489TIP3    H216409   1.310   7.935   2.350
 5490TIP3   OH216410   5.912   4.653   0.756
 5490TIP3    H116411   5.870   4.698   0.682
 5490TIP3    H216412   6.005   4.655   0.735
 5491TIP3   OH216413   0.650   1.675   2.790
 5491TIP3    H116414   0.713   1.712   2.728
 5491TIP3    H216415   0.702   1.655   2.868
 5492TIP3   OH216416   7.771   6.409   5.881
 5492TIP3    H116417   7.816   6.376   5.958
 5492TIP3    H216418   7.711   6.475   5.914
 5493TIP3   OH216419   4.967   2.751   1.846
 5493TIP3    H116420   4.872   2.737   1.852
 5493TIP3    H216421   5.003   2.703   1.921
 5494TIP3   OH216422   4.463   0.874   0.639
 5494TIP3    H116423   4.399   0.945   0.642
 5494TIP3    H216424   4.416   0.801   0.599
 5495TIP3   OH216425   0.377   4.634   0.046
 5495TIP3    H116426   0.363   4.653  -0.047
 5495TIP3    H216427   0.460   4.676   0.067
 5496TIP3   OH216428   1.460   0.478   5.289
 5496TIP3    H116429   1.468   0.454   5.197
 5496TIP3    H216430   1.520   0.420   5.335
 5497TIP3   OH216431   4.781   4.342   6.577
 5497TIP3    H116432   4.757   4.293   6.499
 5497TIP3    H216433   4.755   4.432   6.558
 5498TIP3   OH216434   4.551   1.114   6.244
 5498TIP3    H116435   4.644   1.136   6.244
 5498TIP3    H216436   4.544   1.036   6.299
 5499TIP3   OH216437   6.042   4.524   0.097
 5499TIP3    H116438   5.950   4.507   0.120
 5499TIP3    H216439   6.038   4.603   0.043
 5500TIP3   OH216440   5.107   3.666   0.079
 5500TIP3    H116441   5.180   3.668   0.140
 5500TIP3    H216442   5.116   3.747   0.029
 5501TIP3   OH216443   6.542   2.901   3.608
 5501TIP3    H116444   6.596   2.823   3.604
 5501TIP3    H216445   6.465   2.875   3.659
 5502TIP3   OH216446   7.566   0.608   1.753
 5502TIP3    H116447   7.639   0.668   1.739
 5502TIP3    H216448   7.488   0.664   1.752
 5503TIP3   OH216449   7.987   5.921   3.901
 5503TIP3    H116450   8.057   5.960   3.850
 5503TIP3    H216451   7.926   5.993   3.918
 5504TIP3   OH216452   5.789   7.776   1.563
 5504TIP3    H116453   5.859   7.734   1.514
 5504TIP3    H216454   5.735   7.818   1.496
 5505TIP3   OH216455   5.065   3.298   2.303
 5505TIP3    H116456   4.979   3.275   2.269
 5505TIP3    H216457   5.077   3.240   2.378
 5506TIP3   OH216458   5.851   3.649   0.831
 5506TIP3    H116459   5.900   3.572   0.862
 5506TIP3    H216460   5.782   3.661   0.897
 5507TIP3   OH216461   0.518   0.023   1.520
 5507TIP3    H116462   0.520   0.118   1.529
 5507TIP3    H216463   0.498  -0.009   1.608
 5508TIP3   OH216464   7.716   2.264   5.906
 5508TIP3    H116465   7.763   2.343   5.934
 5508TIP3    H216466   7.704   2.277   5.811
 5509TIP3   OH216467   0.199   5.022   3.686
 5509TIP3    H116468   0.125   4.973   3.651
 5509TIP3    H216469   0.243   5.057   3.608
 5510TIP3   OH216470   2.738   3.934   1.513
 5510TIP3    H116471   2.818   3.891   1.484
 5510TIP3    H216472   2.674   3.913   1.446
 5511TIP3   OH216473   6.420   4.703   2.893
 5511TIP3    H116474   6.471   4.716   2.814
 5511TIP3    H216475   6.329   4.706   2.863
 5512TIP3   OH216476   0.848   7.642   1.741
 5512TIP3    H116477   0.837   7.737   1.746
 5512TIP3    H216478   0.775   7.607   1.793
 5513TIP3   OH216479   4.690   4.342   6.037
 5513TIP3    H116480   4.635   4.414   6.008
 5513TIP3    H216481   4.673   4.271   5.974
 5514TIP3   OH216482   6.068   6.260   3.641
 5514TIP3    H116483   6.025   6.181   3.609
 5514TIP3    H216484   5.999   6.307   3.688
 5515TIP3   OH216485   6.782   5.839   0.345
 5515TIP3    H116486   6.767   5.901   0.273
 5515TIP3    H216487   6.698   5.797   0.359
 5516TIP3   OH216488   3.665   5.308   6.764
 5516TIP3    H116489   3.708   5.222   6.769
 5516TIP3    H216490   3.736   5.370   6.780
 5517TIP3   OH216491   7.204   7.039   0.175
 5517TIP3    H116492   7.221   7.117   0.123
 5517TIP3    H216493   7.191   7.071   0.264
 5518TIP3   OH216494   0.548   5.058   1.470
 5518TIP3    H116495   0.540   4.963   1.479
 5518TIP3    H216496   0.523   5.092   1.556
 5519TIP3   OH216497   0.200   4.999   5.246
 5519TIP3    H116498   0.294   5.009   5.231
 5519TIP3    H216499   0.188   5.019   5.339
 5520TIP3   OH216500   6.196   5.057   2.890
 5520TIP3    H116501   6.169   5.141   2.854
 5520TIP3    H216502   6.115   5.017   2.922
 5521TIP3   OH216503   7.037   7.658   0.095
 5521TIP3    H116504   7.043   7.736   0.040
 5521TIP3    H216505   7.118   7.610   0.078
 5522TIP3   OH216506   2.369   0.243   3.603
 5522TIP3    H116507   2.418   0.296   3.540
 5522TIP3    H216508   2.432   0.224   3.672
 5523TIP3   OH216509   6.428   7.889   4.735
 5523TIP3    H116510   6.400   7.799   4.750
 5523TIP3    H216511   6.414   7.904   4.641
 5524TIP3   OH216512   8.041   7.358   4.237
 5524TIP3    H116513   8.029   7.264   4.224
 5524TIP3    H216514   8.023   7.396   4.150
 5525TIP3   OH216515   6.618   1.103   0.827
 5525TIP3    H116516   6.670   1.157   0.887
 5525TIP3    H216517   6.527   1.123   0.849
 5526TIP3   OH216518   3.097   1.904   5.174
 5526TIP3    H116519   3.051   1.821   5.189
 5526TIP3    H216520   3.136   1.926   5.258
 5527TIP3   OH216521   4.759   0.890   5.670
 5527TIP3    H116522   4.724   0.832   5.602
 5527TIP3    H216523   4.689   0.895   5.735
 5528TIP3   OH216524   2.809   3.202   5.064
 5528TIP3    H116525   2.860   3.225   4.986
 5528TIP3    H216526   2.720   3.233   5.044
 5529TIP3   OH216527   6.276   7.090   6.552
 5529TIP3    H116528   6.346   7.155   6.548
 5529TIP3    H216529   6.240   7.099   6.640
 5530TIP3   OH216530   0.423   0.422   3.494
 5530TIP3    H116531   0.430   0.505   3.541
 5530TIP3    H216532   0.388   0.361   3.559
 5531TIP3   OH216533   2.544   1.596   4.127
 5531TIP3    H116534   2.477   1.581   4.059
 5531TIP3    H216535   2.617   1.635   4.080
 5532TIP3   OH216536   5.705   3.613   0.579
 5532TIP3    H116537   5.722   3.650   0.666
 5532TIP3    H216538   5.667   3.527   0.597
 5533TIP3   OH216539   3.770   7.882   6.852
 5533TIP3    H116540   3.692   7.826   6.850
 5533TIP3    H216541   3.736   7.970   6.867
 5534TIP3   OH216542   3.473   2.821   2.331
 5534TIP3    H116543   3.506   2.783   2.249
 5534TIP3    H216544   3.547   2.815   2.392
 5535TIP3   OH216545   7.009   4.942   2.349
 5535TIP3    H116546   7.033   4.877   2.415
 5535TIP3    H216547   7.085   4.999   2.343
 5536TIP3   OH216548   0.050   6.296   2.543
 5536TIP3    H116549  -0.044   6.300   2.529
 5536TIP3    H216550   0.068   6.369   2.602
 5537TIP3   OH216551   3.581   0.193   2.059
 5537TIP3    H116552   3.637   0.226   1.988
 5537TIP3    H216553   3.591   0.257   2.129
 5538TIP3   OH216554   7.868   0.303   6.618
 5538TIP3    H116555   7.877   0.239   6.688
 5538TIP3    H216556   7.804   0.366   6.651
 5539TIP3   OH216557   5.481   0.226   2.645
 5539TIP3    H116558   5.549   0.249   2.708
 5539TIP3    H216559   5.420   0.299   2.646
 5540TIP3   OH216560   7.258   7.591   0.889
 5540TIP3    H116561   7.284   7.527   0.955
 5540TIP3    H216562   7.339   7.611   0.842
 5541TIP3   OH216563   4.234   6.575   4.886
 5541TIP3    H116564   4.322   6.567   4.923
 5541TIP3    H216565   4.200   6.658   4.922
 5542TIP3   OH216566   7.986   2.528   0.568
 5542TIP3    H116567   8.012   2.452   0.515
 5542TIP3    H216568   8.067   2.578   0.578
 5543TIP3   OH216569   4.853   2.326   0.291
 5543TIP3    H116570   4.888   2.414   0.305
 5543TIP3    H216571   4.900   2.293   0.214
 5544TIP3   OH216572   6.468   1.077   3.930
 5544TIP3    H116573   6.460   1.162   3.973
 5544TIP3    H216574   6.453   1.095   3.837
 5545TIP3   OH216575   0.717   3.846   4.707
 5545TIP3    H116576   0.622   3.843   4.722
 5545TIP3    H216577   0.750   3.909   4.771
 5546TIP3   OH216578   6.938   3.906   0.721
 5546TIP3    H116579   6.900   3.973   0.665
 5546TIP3    H216580   6.896   3.824   0.692
 5547TIP3   OH216581   3.942   6.937   3.704
 5547TIP3    H116582   3.939   6.891   3.787
 5547TIP3    H216583   3.979   6.874   3.642
 5548TIP3   OH216584   1.961   5.984   1.340
 5548TIP3    H116585   1.949   5.956   1.250
 5548TIP3    H216586   1.885   6.039   1.358
 5549TIP3   OH216587   2.570   1.486   6.190
 5549TIP3    H116588   2.505   1.464   6.123
 5549TIP3    H216589   2.654   1.458   6.153
 5550TIP3   OH216590   4.592   3.790   4.663
 5550TIP3    H116591   4.645   3.823   4.736
 5550TIP3    H216592   4.524   3.856   4.651
 5551TIP3   OH216593   0.372   5.967   0.668
 5551TIP3    H116594   0.331   5.881   0.656
 5551TIP3    H216595   0.367   6.009   0.583
 5552TIP3   OH216596   6.124   5.380   6.625
 5552TIP3    H116597   6.162   5.398   6.539
 5552TIP3    H216598   6.152   5.453   6.679
 5553TIP3   OH216599   3.820   6.925   4.499
 5553TIP3    H116600   3.825   6.853   4.562
 5553TIP3    H216601   3.737   6.969   4.519
 5554TIP3   OH216602   6.439   3.181   1.267
 5554TIP3    H116603   6.422   3.252   1.204
 5554TIP3    H216604   6.531   3.158   1.252
 5555TIP3   OH216605   2.878   3.394   3.678
 5555TIP3    H116606   2.969   3.388   3.705
 5555TIP3    H216607   2.869   3.327   3.610
 5556TIP3   OH216608   3.783   2.882   2.771
 5556TIP3    H116609   3.742   2.862   2.687
 5556TIP3    H216610   3.764   2.806   2.826
 5557TIP3   OH216611   0.495   1.764   3.678
 5557TIP3    H116612   0.473   1.685   3.728
 5557TIP3    H216613   0.412   1.808   3.665
 5558TIP3   OH216614   7.076   3.267   6.193
 5558TIP3    H116615   7.018   3.252   6.118
 5558TIP3    H216616   7.159   3.294   6.154
 5559TIP3   OH216617   2.804   7.844   4.224
 5559TIP3    H116618   2.825   7.933   4.196
 5559TIP3    H216619   2.853   7.833   4.306
 5560TIP3   OH216620   3.109   2.300   0.975
 5560TIP3    H116621   3.119   2.363   0.904
 5560TIP3    H216622   3.042   2.338   1.032
 5561TIP3   OH216623   7.476   5.332   4.032
 5561TIP3    H116624   7.560   5.360   4.068
 5561TIP3    H216625   7.497   5.303   3.943
 5562TIP3   OH216626   4.722   2.731   4.189
 5562TIP3    H116627   4.739   2.649   4.143
 5562TIP3    H216628   4.757   2.798   4.132
 5563TIP3   OH216629   7.754   6.595   0.690
 5563TIP3    H116630   7.822   6.530   0.673
 5563TIP3    H216631   7.685   6.547   0.737
 5564TIP3   OH216632   4.468   1.827   1.501
 5564TIP3    H116633   4.461   1.763   1.572
 5564TIP3    H216634   4.425   1.785   1.426
 5565TIP3   OH216635   7.820   3.104   5.371
 5565TIP3    H116636   7.804   3.095   5.277
 5565TIP3    H216637   7.877   3.181   5.378
 5566TIP3   OH216638   6.242   3.941   6.203
 5566TIP3    H116639   6.274   4.029   6.222
 5566TIP3    H216640   6.198   3.949   6.118
 5567TIP3   OH216641   3.196   1.853   0.118
 5567TIP3    H116642   3.231   1.770   0.152
 5567TIP3    H216643   3.259   1.918   0.148
 5568TIP3   OH216644   7.131   3.703   5.053
 5568TIP3    H116645   7.040   3.709   5.023
 5568TIP3    H216646   7.183   3.703   4.973
 5569TIP3   OH216647   1.750   1.388   3.158
 5569TIP3    H116648   1.796   1.324   3.103
 5569TIP3    H216649   1.748   1.348   3.245
 5570TIP3   OH216650   0.059   0.268   6.577
 5570TIP3    H116651   0.117   0.308   6.512
 5570TIP3    H216652   0.024   0.191   6.533
 5571TIP3   OH216653   1.057   5.383   2.989
 5571TIP3    H116654   1.133   5.326   2.980
 5571TIP3    H216655   1.066   5.422   3.076
 5572TIP3   OH216656   3.298   4.974   0.655
 5572TIP3    H116657   3.282   4.945   0.565
 5572TIP3    H216658   3.323   4.895   0.702
 5573TIP3   OH216659   4.438   4.905   6.766
 5573TIP3    H116660   4.433   4.975   6.701
 5573TIP3    H216661   4.435   4.949   6.850
 5574TIP3   OH216662   1.329   0.053   6.001
 5574TIP3    H116663   1.257   0.110   6.028
 5574TIP3    H216664   1.404   0.084   6.052
 5575TIP3   OH216665   5.877   4.939   3.620
 5575TIP3    H116666   5.783   4.927   3.623
 5575TIP3    H216667   5.908   4.912   3.706
 5576TIP3   OH216668   2.293   7.589   2.184
 5576TIP3    H116669   2.217   7.609   2.238
 5576TIP3    H216670   2.334   7.675   2.168
 5577TIP3   OH216671   4.034   0.173   1.017
 5577TIP3    H116672   4.118   0.148   0.980
 5577TIP3    H216673   4.049   0.177   1.112
 5578TIP3   OH216674   0.586   2.637   6.654
 5578TIP3    H116675   0.640   2.714   6.668
 5578TIP3    H216676   0.497   2.664   6.676
 5579TIP3   OH216677   7.871   7.532   3.648
 5579TIP3    H116678   7.890   7.596   3.717
 5579TIP3    H216679   7.919   7.453   3.675
 5580TIP3   OH216680   8.355   7.443   5.518
 5580TIP3    H116681   8.419   7.376   5.544
 5580TIP3    H216682   8.283   7.392   5.479
 5581TIP3   OH216683   0.562   6.050   5.589
 5581TIP3    H116684   0.529   6.119   5.647
 5581TIP3    H216685   0.565   5.972   5.644
 5582TIP3   OH216686   7.254   1.025   1.618
 5582TIP3    H116687   7.187   1.085   1.586
 5582TIP3    H216688   7.322   1.082   1.656
 5583TIP3   OH216689   5.836   0.093   2.542
 5583TIP3    H116690   5.791   0.092   2.626
 5583TIP3    H216691   5.896   0.167   2.547
 5584TIP3   OH216692   1.774   7.799   1.264
 5584TIP3    H116693   1.680   7.778   1.258
 5584TIP3    H216694   1.777   7.894   1.260
 5585TIP3   OH216695   2.325   2.767   5.795
 5585TIP3    H116696   2.395   2.775   5.730
 5585TIP3    H216697   2.328   2.849   5.844
 5586TIP3   OH216698   2.146   3.201   6.435
 5586TIP3    H116699   2.146   3.188   6.530
 5586TIP3    H216700   2.229   3.165   6.405
 5587TIP3   OH216701   3.053   5.634   2.783
 5587TIP3    H116702   3.076   5.667   2.870
 5587TIP3    H216703   3.126   5.662   2.727
 5588TIP3   OH216704   1.787   4.679   0.670
 5588TIP3    H116705   1.811   4.771   0.657
 5588TIP3    H216706   1.848   4.630   0.615
 5589TIP3   OH216707   3.383   5.176   3.511
 5589TIP3    H116708   3.293   5.180   3.480
 5589TIP3    H216709   3.405   5.267   3.532
 5590TIP3   OH216710   0.422   4.319   3.258
 5590TIP3    H116711   0.510   4.338   3.223
 5590TIP3    H216712   0.424   4.355   3.347
 5591TIP3   OH216713   7.786   3.422   0.302
 5591TIP3    H116714   7.864   3.473   0.281
 5591TIP3    H216715   7.803   3.387   0.389
 5592TIP3   OH216716   2.937   7.807   6.555
 5592TIP3    H116717   2.867   7.826   6.618
 5592TIP3    H216718   3.011   7.860   6.586
 5593TIP3   OH216719   2.232   5.479   4.364
 5593TIP3    H116720   2.188   5.531   4.430
 5593TIP3    H216721   2.197   5.510   4.280
 5594TIP3   OH216722   6.667   0.812   2.395
 5594TIP3    H116723   6.669   0.897   2.438
 5594TIP3    H216724   6.670   0.833   2.301
 5595TIP3   OH216725   4.886   2.903   2.273
 5595TIP3    H116726   4.879   2.864   2.360
 5595TIP3    H216727   4.916   2.831   2.218
 5596TIP3   OH216728   2.575   0.178   5.105
 5596TIP3    H116729   2.653   0.122   5.099
 5596TIP3    H216730   2.610   0.267   5.112
 5597TIP3   OH216731   3.484   7.683   2.761
 5597TIP3    H116732   3.472   7.650   2.850
 5597TIP3    H216733   3.397   7.713   2.735
 5598TIP3   OH216734   2.503   4.663   5.648
 5598TIP3    H116735   2.588   4.664   5.693
 5598TIP3    H216736   2.522   4.625   5.562
 5599TIP3   OH216737   6.916   3.768   4.372
 5599TIP3    H116738   6.846   3.807   4.424
 5599TIP3    H216739   6.906   3.673   4.386
 5600TIP3   OH216740   5.035   6.064   2.487
 5600TIP3    H116741   4.994   6.097   2.567
 5600TIP3    H216742   5.031   5.969   2.496
 5601TIP3   OH216743   7.183   2.952   1.344
 5601TIP3    H116744   7.207   3.010   1.272
 5601TIP3    H216745   7.236   2.873   1.330
 5602TIP3   OH216746   2.287   4.628   4.761
 5602TIP3    H116747   2.270   4.659   4.672
 5602TIP3    H216748   2.265   4.702   4.817
 5603TIP3   OH216749   2.564   7.398   3.486
 5603TIP3    H116750   2.629   7.464   3.509
 5603TIP3    H216751   2.615   7.328   3.444
 5604TIP3   OH216752   6.196   0.297   1.564
 5604TIP3    H116753   6.238   0.346   1.636
 5604TIP3    H216754   6.109   0.335   1.558
 5605TIP3   OH216755   1.449   6.503   4.664
 5605TIP3    H116756   1.529   6.508   4.716
 5605TIP3    H216757   1.465   6.431   4.602
 5606TIP3   OH216758   1.263   7.528   0.103
 5606TIP3    H116759   1.295   7.440   0.122
 5606TIP3    H216760   1.312   7.586   0.161
 5607TIP3   OH216761   4.645   3.787   1.060
 5607TIP3    H116762   4.698   3.710   1.039
 5607TIP3    H216763   4.707   3.860   1.057
 5608TIP3   OH216764   2.707   5.180   0.803
 5608TIP3    H116765   2.623   5.133   0.804
 5608TIP3    H216766   2.694   5.254   0.862
 5609TIP3   OH216767   7.552   0.517   2.021
 5609TIP3    H116768   7.575   0.546   1.932
 5609TIP3    H216769   7.466   0.556   2.037
 5610TIP3   OH216770   7.557   3.236   0.424
 5610TIP3    H116771   7.484   3.233   0.362
 5610TIP3    H216772   7.543   3.317   0.474
 5611TIP3   OH216773   6.008   5.133   0.322
 5611TIP3    H116774   5.981   5.213   0.277
 5611TIP3    H216775   5.979   5.145   0.412
 5612TIP3   OH216776   4.119   1.645   1.922
 5612TIP3    H116777   4.086   1.586   1.854
 5612TIP3    H216778   4.055   1.716   1.925
 5613TIP3   OH216779   1.613   1.315   4.093
 5613TIP3    H116780   1.519   1.300   4.079
 5613TIP3    H216781   1.638   1.250   4.158
 5614TIP3   OH216782   0.785   0.916   5.399
 5614TIP3    H116783   0.778   0.838   5.454
 5614TIP3    H216784   0.877   0.943   5.408
 5615TIP3   OH216785   6.229   3.670   3.457
 5615TIP3    H116786   6.145   3.712   3.439
 5615TIP3    H216787   6.293   3.723   3.411
 5616TIP3   OH216788   1.030   4.367   5.062
 5616TIP3    H116789   1.111   4.322   5.039
 5616TIP3    H216790   0.981   4.305   5.115
 5617TIP3   OH216791   6.268   5.727   5.869
 5617TIP3    H116792   6.262   5.804   5.813
 5617TIP3    H216793   6.362   5.707   5.872
 5618TIP3   OH216794   1.042   7.834   3.223
 5618TIP3    H116795   0.956   7.877   3.215
 5618TIP3    H216796   1.041   7.766   3.155
 5619TIP3   OH216797   1.280   0.590   2.167
 5619TIP3    H116798   1.203   0.617   2.118
 5619TIP3    H216799   1.295   0.661   2.229
 5620TIP3   OH216800   2.491   1.391   0.025
 5620TIP3    H116801   2.482   1.404   0.119
 5620TIP3    H216802   2.537   1.308   0.016
 5621TIP3   OH216803   4.802   2.348   5.489
 5621TIP3    H116804   4.845   2.344   5.404
 5621TIP3    H216805   4.771   2.258   5.504
 5622TIP3   OH216806   5.920   1.680   2.751
 5622TIP3    H116807   6.012   1.702   2.763
 5622TIP3    H216808   5.912   1.591   2.784
 5623TIP3   OH216809   7.989   6.317   1.380
 5623TIP3    H116810   8.002   6.382   1.450
 5623TIP3    H216811   7.991   6.368   1.299
 5624TIP3   OH216812   1.242   3.326   1.388
 5624TIP3    H116813   1.272   3.297   1.475
 5624TIP3    H216814   1.322   3.327   1.335
 5625TIP3   OH216815   1.596   1.904   4.621
 5625TIP3    H116816   1.575   1.822   4.578
 5625TIP3    H216817   1.528   1.914   4.688
 5626TIP3   OH216818   5.729   3.758   1.918
 5626TIP3    H116819   5.643   3.718   1.930
 5626TIP3    H216820   5.748   3.747   1.824
 5627TIP3   OH216821   1.316   3.696   5.288
 5627TIP3    H116822   1.283   3.607   5.270
 5627TIP3    H216823   1.260   3.728   5.359
 5628TIP3   OH216824  -0.016   2.938   3.693
 5628TIP3    H116825  -0.100   2.921   3.737
 5628TIP3    H216826   0.049   2.930   3.763
 5629TIP3   OH216827   3.125   0.924   6.497
 5629TIP3    H116828   3.186   0.854   6.475
 5629TIP3    H216829   3.166   1.003   6.460
 5630TIP3   OH216830   2.586   3.430   3.451
 5630TIP3    H116831   2.613   3.484   3.525
 5630TIP3    H216832   2.532   3.360   3.490
 5631TIP3   OH216833   1.538   1.864   2.298
 5631TIP3    H116834   1.590   1.823   2.229
 5631TIP3    H216835   1.603   1.899   2.360
 5632TIP3   OH216836   7.615   7.846   5.442
 5632TIP3    H116837   7.632   7.767   5.390
 5632TIP3    H216838   7.548   7.820   5.505
 5633TIP3   OH216839   6.015   6.273   4.058
 5633TIP3    H116840   5.974   6.204   4.005
 5633TIP3    H216841   6.106   6.244   4.069
 5634TIP3   OH216842   4.520   7.592   0.029
 5634TIP3    H116843   4.483   7.661   0.085
 5634TIP3    H216844   4.450   7.526   0.024
 5635TIP3   OH216845   6.163   3.887   4.904
 5635TIP3    H116846   6.082   3.836   4.905
 5635TIP3    H216847   6.157   3.939   4.825
 5636TIP3   OH216848   7.777   6.099   0.150
 5636TIP3    H116849   7.737   6.029   0.202
 5636TIP3    H216850   7.858   6.061   0.116
 5637TIP3   OH216851   0.054   7.451   3.857
 5637TIP3    H116852  -0.011   7.425   3.791
 5637TIP3    H216853   0.043   7.386   3.927
 5638TIP3   OH216854   6.923   2.813   3.408
 5638TIP3    H116855   6.831   2.805   3.435
 5638TIP3    H216856   6.970   2.758   3.471
 5639TIP3   OH216857   5.636   6.880   5.807
 5639TIP3    H116858   5.542   6.863   5.810
 5639TIP3    H216859   5.645   6.970   5.837
 5640TIP3   OH216860   5.282   3.807   1.492
 5640TIP3    H116861   5.322   3.891   1.512
 5640TIP3    H216862   5.348   3.742   1.515
 5641TIP3   OH216863   2.237   6.133   5.658
 5641TIP3    H116864   2.232   6.227   5.677
 5641TIP3    H216865   2.203   6.090   5.736
 5642TIP3   OH216866   0.762   4.880   2.652
 5642TIP3    H116867   0.751   4.845   2.563
 5642TIP3    H216868   0.816   4.815   2.697
 5643TIP3   OH216869   1.801   4.885   4.286
 5643TIP3    H116870   1.736   4.863   4.353
 5643TIP3    H216871   1.752   4.886   4.204
 5644TIP3   OH216872   2.956   4.728   1.787
 5644TIP3    H116873   3.022   4.666   1.818
 5644TIP3    H216874   2.880   4.714   1.844
 5645TIP3   OH216875   3.023   3.179   0.719
 5645TIP3    H116876   2.946   3.232   0.736
 5645TIP3    H216877   2.993   3.110   0.661
 5646TIP3   OH216878   6.736   3.261   1.665
 5646TIP3    H116879   6.702   3.327   1.726
 5646TIP3    H216880   6.660   3.209   1.640
 5647TIP3   OH216881   8.161   1.983   0.712
 5647TIP3    H116882   8.203   1.897   0.701
 5647TIP3    H216883   8.068   1.963   0.713
 5648TIP3   OH216884   4.632   0.823   1.858
 5648TIP3    H116885   4.570   0.770   1.808
 5648TIP3    H216886   4.587   0.907   1.870
 5649TIP3   OH216887   0.991   0.554   3.079
 5649TIP3    H116888   1.034   0.471   3.059
 5649TIP3    H216889   0.897   0.533   3.080
 5650TIP3   OH216890   7.366   0.393   4.186
 5650TIP3    H116891   7.304   0.410   4.257
 5650TIP3    H216892   7.315   0.349   4.119
 5651TIP3   OH216893   6.358   1.395   6.316
 5651TIP3    H116894   6.352   1.299   6.318
 5651TIP3    H216895   6.304   1.420   6.240
 5652TIP3   OH216896   1.117   2.804   1.523
 5652TIP3    H116897   1.115   2.800   1.618
 5652TIP3    H216898   1.198   2.759   1.499
 5653TIP3   OH216899   3.958   7.358   1.786
 5653TIP3    H116900   3.884   7.296   1.790
 5653TIP3    H216901   3.939   7.421   1.855
 5654TIP3   OH216902   3.020   0.135   1.145
 5654TIP3    H116903   3.105   0.148   1.188
 5654TIP3    H216904   3.009   0.040   1.144
 5655TIP3   OH216905   8.403   4.846   3.607
 5655TIP3    H116906   8.397   4.841   3.702
 5655TIP3    H216907   8.314   4.865   3.578
 5656TIP3   OH216908   7.735   7.035   0.631
 5656TIP3    H116909   7.756   7.009   0.541
 5656TIP3    H216910   7.673   6.970   0.662
 5657TIP3   OH216911   1.481   7.351   0.577
 5657TIP3    H116912   1.576   7.346   0.587
 5657TIP3    H216913   1.466   7.340   0.483
 5658TIP3   OH216914   4.835   1.922   0.363
 5658TIP3    H116915   4.901   1.855   0.350
 5658TIP3    H216916   4.775   1.886   0.429
 5659TIP3   OH216917   7.912   2.849   2.027
 5659TIP3    H116918   7.964   2.906   2.084
 5659TIP3    H216919   7.977   2.808   1.970
 5660TIP3   OH216920   4.317   0.676   0.516
 5660TIP3    H116921   4.300   0.585   0.491
 5660TIP3    H216922   4.231   0.716   0.523
 5661TIP3   OH216923   2.321   3.447   3.827
 5661TIP3    H116924   2.375   3.517   3.865
 5661TIP3    H216925   2.253   3.430   3.892
 5662TIP3   OH216926   5.250   1.102   0.875
 5662TIP3    H116927   5.260   1.114   0.781
 5662TIP3    H216928   5.274   1.011   0.890
 5663TIP3   OH216929   5.630   2.738   6.893
 5663TIP3    H116930   5.668   2.683   6.826
 5663TIP3    H216931   5.541   2.756   6.862
 5664TIP3   OH216932   2.440   5.288   6.210
 5664TIP3    H116933   2.433   5.309   6.303
 5664TIP3    H216934   2.496   5.357   6.174
 5665TIP3   OH216935   3.929   0.362   5.567
 5665TIP3    H116936   3.913   0.442   5.617
 5665TIP3    H216937   3.958   0.392   5.481
 5666TIP3   OH216938   7.884   6.165   5.527
 5666TIP3    H116939   7.823   6.213   5.471
 5666TIP3    H216940   7.828   6.123   5.593
 5667TIP3   OH216941   1.659   0.418   4.249
 5667TIP3    H116942   1.648   0.394   4.157
 5667TIP3    H216943   1.730   0.363   4.280
 5668TIP3   OH216944   3.274   2.929   1.151
 5668TIP3    H116945   3.247   2.840   1.127
 5668TIP3    H216946   3.230   2.985   1.087
 5669TIP3   OH216947   3.401   6.010   3.682
 5669TIP3    H116948   3.363   5.967   3.759
 5669TIP3    H216949   3.495   5.997   3.691
 5670TIP3   OH216950   2.957   1.240   2.199
 5670TIP3    H116951   3.012   1.162   2.198
 5670TIP3    H216952   3.008   1.307   2.153
 5671TIP3   OH216953   6.654   0.039   4.601
 5671TIP3    H116954   6.575   0.091   4.615
 5671TIP3    H216955   6.687   0.023   4.689
 5672TIP3   OH216956   4.107   0.571   1.504
 5672TIP3    H116957   4.069   0.588   1.417
 5672TIP3    H216958   4.199   0.593   1.494
 5673TIP3   OH216959   2.463   3.810   5.754
 5673TIP3    H116960   2.500   3.722   5.752
 5673TIP3    H216961   2.410   3.813   5.833
 5674TIP3   OH216962   8.254   0.674   3.208
 5674TIP3    H116963   8.160   0.671   3.194
 5674TIP3    H216964   8.292   0.637   3.128
 5675TIP3   OH216965   1.968   0.424   0.293
 5675TIP3    H116966   1.928   0.427   0.206
 5675TIP3    H216967   1.898   0.390   0.350
 5676TIP3   OH216968   5.296   2.285   4.623
 5676TIP3    H116969   5.336   2.200   4.602
 5676TIP3    H216970   5.363   2.349   4.601
 5677TIP3   OH216971   1.833   0.911   1.459
 5677TIP3    H116972   1.901   0.862   1.504
 5677TIP3    H216973   1.812   0.859   1.382
 5678TIP3   OH216974   0.889   0.163   6.109
 5678TIP3    H116975   0.863   0.212   6.031
 5678TIP3    H216976   0.857   0.074   6.095
 5679TIP3   OH216977   0.223   0.822   3.440
 5679TIP3    H116978   0.208   0.744   3.494
 5679TIP3    H216979   0.286   0.793   3.374
 5680TIP3   OH216980   5.850   3.297   1.105
 5680TIP3    H116981   5.886   3.360   1.167
 5680TIP3    H216982   5.891   3.214   1.127
 5681TIP3   OH216983   3.540   3.766   1.319
 5681TIP3    H116984   3.486   3.691   1.345
 5681TIP3    H216985   3.603   3.729   1.257
 5682TIP3   OH216986   4.402   0.597   5.326
 5682TIP3    H116987   4.441   0.511   5.311
 5682TIP3    H216988   4.358   0.590   5.410
 5683TIP3   OH216989   5.644   1.142   6.067
 5683TIP3    H116990   5.708   1.072   6.057
 5683TIP3    H216991   5.663   1.203   5.996
 5684TIP3   OH216992   5.938   5.694   4.955
 5684TIP3    H116993   5.902   5.773   4.995
 5684TIP3    H216994   6.011   5.726   4.902
 5685TIP3   OH216995   4.642   7.704   4.938
 5685TIP3    H116996   4.712   7.769   4.936
 5685TIP3    H216997   4.652   7.656   4.856
 5686TIP3   OH216998   5.676   7.830   3.223
 5686TIP3    H116999   5.701   7.886   3.296
 5686TIP3    H217000   5.693   7.883   3.145
 5687TIP3   OH217001   0.320   4.183   6.858
 5687TIP3    H117002   0.267   4.240   6.802
 5687TIP3    H217003   0.342   4.109   6.801
 5688TIP3   OH217004   3.084   7.308   4.369
 5688TIP3    H117005   3.063   7.223   4.407
 5688TIP3    H217006   3.044   7.306   4.282
 5689TIP3   OH217007   8.377   5.582   2.769
 5689TIP3    H117008   8.451   5.532   2.803
 5689TIP3    H217009   8.334   5.524   2.707
 5690TIP3   OH217010   2.684   6.035   3.065
 5690TIP3    H117011   2.690   5.970   2.995
 5690TIP3    H217012   2.751   6.009   3.128
 5691TIP3   OH217013   3.387   7.131   2.473
 5691TIP3    H117014   3.382   7.150   2.566
 5691TIP3    H217015   3.368   7.215   2.430
 5692TIP3   OH217016   3.081   1.862   6.680
 5692TIP3    H117017   3.002   1.870   6.733
 5692TIP3    H217018   3.078   1.939   6.622
 5693TIP3   OH217019   3.782   4.169   0.364
 5693TIP3    H117020   3.863   4.147   0.411
 5693TIP3    H217021   3.771   4.263   0.379
 5694TIP3   OH217022   4.428   4.620   6.637
 5694TIP3    H117023   4.402   4.711   6.620
 5694TIP3    H217024   4.464   4.622   6.726
 5695TIP3   OH217025   5.426   2.052   3.496
 5695TIP3    H117026   5.508   2.004   3.490
 5695TIP3    H217027   5.358   1.985   3.485
 5696TIP3   OH217028   0.029   5.287   1.018
 5696TIP3    H117029   0.066   5.200   1.025
 5696TIP3    H217030  -0.034   5.292   1.090
 5697TIP3   OH217031   4.671   4.099   4.538
 5697TIP3    H117032   4.626   4.107   4.622
 5697TIP3    H217033   4.615   4.041   4.486
 5698TIP3   OH217034   1.916   5.907   1.015
 5698TIP3    H117035   1.870   5.989   0.997
 5698TIP3    H217036   1.846   5.841   1.016
 5699TIP3   OH217037   0.159   0.081   2.401
 5699TIP3    H117038   0.153   0.176   2.400
 5699TIP3    H217039   0.069   0.051   2.415
 5700TIP3   OH217040   5.822   0.570   4.810
 5700TIP3    H117041   5.777   0.576   4.894
 5700TIP3    H217042   5.789   0.489   4.771
 5701TIP3   OH217043   6.291   0.735   6.301
 5701TIP3    H117044   6.296   0.668   6.369
 5701TIP3    H217045   6.299   0.818   6.348
 5702TIP3   OH217046   3.898   4.567   0.647
 5702TIP3    H117047   3.896   4.475   0.621
 5702TIP3    H217048   3.982   4.600   0.617
 5703TIP3   OH217049   0.983   5.185   6.556
 5703TIP3    H117050   0.949   5.096   6.539
 5703TIP3    H217051   0.912   5.228   6.605
 5704TIP3   OH217052   7.493   7.400   5.146
 5704TIP3    H117053   7.569   7.433   5.098
 5704TIP3    H217054   7.508   7.429   5.236
 5705TIP3   OH217055   2.616   5.162   5.868
 5705TIP3    H117056   2.624   5.257   5.863
 5705TIP3    H217057   2.570   5.146   5.950
 5706TIP3   OH217058   1.200   0.828   6.853
 5706TIP3    H117059   1.106   0.846   6.854
 5706TIP3    H217060   1.221   0.809   6.762
 5707TIP3   OH217061   4.579   7.056   4.048
 5707TIP3    H117062   4.529   6.982   4.083
 5707TIP3    H217063   4.535   7.080   3.967
 5708TIP3   OH217064   6.896   5.187   1.809
 5708TIP3    H117065   6.940   5.153   1.732
 5708TIP3    H217066   6.920   5.280   1.811
 5709TIP3   OH217067   2.006   1.275   0.900
 5709TIP3    H117068   2.005   1.264   0.805
 5709TIP3    H217069   1.995   1.369   0.913
 5710TIP3   OH217070   0.587   6.176   2.918
 5710TIP3    H117071   0.602   6.224   2.999
 5710TIP3    H217072   0.563   6.243   2.853
 5711TIP3   OH217073   8.362   2.429   5.096
 5711TIP3    H117074   8.399   2.471   5.173
 5711TIP3    H217075   8.279   2.392   5.127
 5712TIP3   OH217076   1.231   6.416   4.876
 5712TIP3    H117077   1.278   6.462   4.806
 5712TIP3    H217078   1.267   6.452   4.957
 5713TIP3   OH217079   3.386   3.176   2.083
 5713TIP3    H117080   3.367   3.226   2.003
 5713TIP3    H217081   3.362   3.086   2.061
 5714TIP3   OH217082   5.731   1.689   5.712
 5714TIP3    H117083   5.780   1.671   5.632
 5714TIP3    H217084   5.698   1.603   5.739
 5715TIP3   OH217085   6.207   3.601   5.498
 5715TIP3    H117086   6.129   3.565   5.542
 5715TIP3    H217087   6.191   3.585   5.405
 5716TIP3   OH217088   5.591   1.517   6.015
 5716TIP3    H117089   5.602   1.491   5.924
 5716TIP3    H217090   5.497   1.518   6.029
 5717TIP3   OH217091   2.476   4.530   0.592
 5717TIP3    H117092   2.449   4.468   0.524
 5717TIP3    H217093   2.536   4.590   0.547
 5718TIP3   OH217094   2.833   1.634   4.904
 5718TIP3    H117095   2.820   1.544   4.934
 5718TIP3    H217096   2.808   1.632   4.812
 5719TIP3   OH217097   3.776   2.907   2.038
 5719TIP3    H117098   3.835   2.839   2.005
 5719TIP3    H217099   3.822   2.989   2.021
 5720TIP3   OH217100   7.443   3.241   2.453
 5720TIP3    H117101   7.488   3.205   2.376
 5720TIP3    H217102   7.492   3.321   2.474
 5721TIP3   OH217103   1.828   7.635   6.073
 5721TIP3    H117104   1.826   7.727   6.101
 5721TIP3    H217105   1.905   7.629   6.017
 5722TIP3   OH217106   7.582   0.499   2.767
 5722TIP3    H117107   7.569   0.407   2.743
 5722TIP3    H217108   7.523   0.548   2.709
 5723TIP3   OH217109   2.114   4.526   5.367
 5723TIP3    H117110   2.177   4.463   5.401
 5723TIP3    H217111   2.031   4.477   5.364
 5724TIP3   OH217112   4.330   2.576   3.033
 5724TIP3    H117113   4.247   2.600   2.992
 5724TIP3    H217114   4.320   2.483   3.055
 5725TIP3   OH217115   5.237   7.726   6.301
 5725TIP3    H117116   5.276   7.674   6.232
 5725TIP3    H217117   5.145   7.738   6.274
 5726TIP3   OH217118   0.045   7.085  -0.050
 5726TIP3    H117119   0.100   7.163  -0.055
 5726TIP3    H217120   0.010   7.086   0.040
 5727TIP3   OH217121   2.189   5.565   3.479
 5727TIP3    H117122   2.152   5.553   3.567
 5727TIP3    H217123   2.204   5.476   3.448
 5728TIP3   OH217124   1.637   0.191   3.149
 5728TIP3    H117125   1.725   0.158   3.168
 5728TIP3    H217126   1.610   0.235   3.230
 5729TIP3   OH217127   2.460   7.438   6.329
 5729TIP3    H117128   2.509   7.357   6.340
 5729TIP3    H217129   2.375   7.411   6.297
 5730TIP3   OH217130   0.470   4.929   5.179
 5730TIP3    H117131   0.522   4.851   5.163
 5730TIP3    H217132   0.534   4.997   5.201
 5731TIP3   OH217133   3.913   2.418   5.677
 5731TIP3    H117134   3.864   2.500   5.669
 5731TIP3    H217135   3.855   2.359   5.725
 5732TIP3   OH217136   1.040   0.930   0.206
 5732TIP3    H117137   0.973   0.968   0.263
 5732TIP3    H217138   1.122   0.949   0.250
 5733TIP3   OH217139   2.280   4.226   2.243
 5733TIP3    H117140   2.240   4.145   2.274
 5733TIP3    H217141   2.228   4.296   2.284
 5734TIP3   OH217142   2.349   7.524   3.349
 5734TIP3    H117143   2.419   7.464   3.375
 5734TIP3    H217144   2.288   7.469   3.299
 5735TIP3   OH217145   4.578   6.780   4.226
 5735TIP3    H117146   4.488   6.748   4.231
 5735TIP3    H217147   4.624   6.717   4.170
 5736TIP3   OH217148   2.845   0.949   3.883
 5736TIP3    H117149   2.896   0.994   3.950
 5736TIP3    H217150   2.754   0.955   3.914
 5737TIP3   OH217151   4.574   6.641   1.252
 5737TIP3    H117152   4.562   6.557   1.209
 5737TIP3    H217153   4.486   6.679   1.257
 5738TIP3   OH217154   2.983   1.989   3.665
 5738TIP3    H117155   2.962   2.082   3.653
 5738TIP3    H217156   2.900   1.944   3.652
 5739TIP3   OH217157   4.391   6.571   3.216
 5739TIP3    H117158   4.361   6.517   3.289
 5739TIP3    H217159   4.421   6.652   3.257
 5740TIP3   OH217160   7.015   2.818   3.139
 5740TIP3    H117161   7.039   2.825   3.231
 5740TIP3    H217162   6.932   2.867   3.133
 5741TIP3   OH217163   8.351   0.988   4.064
 5741TIP3    H117164   8.412   0.997   4.137
 5741TIP3    H217165   8.335   0.894   4.056
 5742TIP3   OH217166   4.756   3.400   6.758
 5742TIP3    H117167   4.724   3.464   6.821
 5742TIP3    H217168   4.699   3.324   6.770
 5743TIP3   OH217169   7.718   3.326   4.942
 5743TIP3    H117170   7.630   3.365   4.942
 5743TIP3    H217171   7.777   3.401   4.936
 5744TIP3   OH217172   1.686   2.099   3.536
 5744TIP3    H117173   1.608   2.074   3.586
 5744TIP3    H217174   1.687   2.195   3.541
 5745TIP3   OH217175   2.105   4.557   6.161
 5745TIP3    H117176   2.193   4.586   6.183
 5745TIP3    H217177   2.118   4.481   6.105
 5746TIP3   OH217178   3.519   2.221   0.876
 5746TIP3    H117179   3.444   2.162   0.866
 5746TIP3    H217180   3.485   2.295   0.926
 5747TIP3   OH217181   7.644   3.672   3.862
 5747TIP3    H117182   7.570   3.630   3.907
 5747TIP3    H217183   7.611   3.691   3.774
 5748TIP3   OH217184   7.928   0.264   0.966
 5748TIP3    H117185   7.854   0.272   0.905
 5748TIP3    H217186   7.951   0.171   0.965
 5749TIP3   OH217187   7.688   5.205   2.900
 5749TIP3    H117188   7.618   5.146   2.929
 5749TIP3    H217189   7.642   5.285   2.875
 5750TIP3   OH217190   0.633   4.853   4.603
 5750TIP3    H117191   0.685   4.776   4.581
 5750TIP3    H217192   0.685   4.927   4.571
 5751TIP3   OH217193   0.055   5.999   3.105
 5751TIP3    H117194   0.150   6.006   3.111
 5751TIP3    H217195   0.025   6.006   3.196
 5752TIP3   OH217196   7.973   1.282   3.050
 5752TIP3    H117197   8.020   1.358   3.082
 5752TIP3    H217198   7.997   1.211   3.110
 5753TIP3   OH217199   6.164   1.827   1.878
 5753TIP3    H117200   6.074   1.793   1.886
 5753TIP3    H217201   6.174   1.885   1.953
 5754TIP3   OH217202   5.032   0.363   3.010
 5754TIP3    H117203   4.976   0.295   3.047
 5754TIP3    H217204   5.045   0.336   2.919
 5755TIP3   OH217205   4.516   3.080   0.562
 5755TIP3    H117206   4.448   3.034   0.512
 5755TIP3    H217207   4.467   3.138   0.621
 5756TIP3   OH217208   1.208   0.471   1.162
 5756TIP3    H117209   1.196   0.469   1.067
 5756TIP3    H217210   1.137   0.527   1.194
 5757TIP3   OH217211   6.513   7.427   1.347
 5757TIP3    H117212   6.522   7.334   1.368
 5757TIP3    H217213   6.554   7.436   1.261
 5758TIP3   OH217214   7.297   2.033   6.354
 5758TIP3    H117215   7.259   2.007   6.438
 5758TIP3    H217216   7.321   1.950   6.313
 5759TIP3   OH217217   3.035   1.252   2.841
 5759TIP3    H117218   2.953   1.206   2.858
 5759TIP3    H217219   3.070   1.273   2.927
 5760TIP3   OH217220   5.397   4.930   6.029
 5760TIP3    H117221   5.368   4.887   5.948
 5760TIP3    H217222   5.459   4.868   6.068
 5761TIP3   OH217223   6.082   0.098   3.163
 5761TIP3    H117224   6.134   0.022   3.188
 5761TIP3    H217225   6.007   0.096   3.223
 5762TIP3   OH217226   3.843   7.249   4.108
 5762TIP3    H117227   3.752   7.276   4.103
 5762TIP3    H217228   3.870   7.273   4.197
 5763TIP3   OH217229   1.000   7.784   1.511
 5763TIP3    H117230   0.968   7.729   1.582
 5763TIP3    H217231   0.926   7.839   1.488
 5764TIP3   OH217232   2.110   7.221   1.659
 5764TIP3    H117233   2.062   7.286   1.711
 5764TIP3    H217234   2.060   7.213   1.578
 5765TIP3   OH217235   1.062   3.400   4.652
 5765TIP3    H117236   1.147   3.370   4.619
 5765TIP3    H217237   1.032   3.328   4.707
 5766TIP3   OH217238   5.991   3.768   4.601
 5766TIP3    H117239   5.997   3.675   4.577
 5766TIP3    H217240   5.964   3.812   4.521
 5767TIP3   OH217241   1.648   7.715   4.630
 5767TIP3    H117242   1.653   7.626   4.666
 5767TIP3    H217243   1.723   7.720   4.570
 5768TIP3   OH217244   0.893   5.830   3.642
 5768TIP3    H117245   0.836   5.773   3.694
 5768TIP3    H217246   0.857   5.918   3.655
 5769TIP3   OH217247   0.032   3.594   3.845
 5769TIP3    H117248  -0.059   3.616   3.828
 5769TIP3    H217249   0.081   3.643   3.778
 5770TIP3   OH217250   0.643   4.722   0.028
 5770TIP3    H117251   0.648   4.634  -0.011
 5770TIP3    H217252   0.688   4.778  -0.034
 5771TIP3   OH217253   7.772   6.763   2.004
 5771TIP3    H117254   7.851   6.768   2.057
 5771TIP3    H217255   7.785   6.688   1.947
 5772TIP3   OH217256   0.495   7.296   5.308
 5772TIP3    H117257   0.421   7.235   5.314
 5772TIP3    H217258   0.536   7.274   5.224
 5773TIP3   OH217259   2.844   3.296   0.369
 5773TIP3    H117260   2.925   3.348   0.370
 5773TIP3    H217261   2.777   3.356   0.336
 5774TIP3   OH217262   5.447   3.622   5.056
 5774TIP3    H117263   5.410   3.635   4.969
 5774TIP3    H217264   5.386   3.665   5.115
 5775TIP3   OH217265   2.163   0.095   2.047
 5775TIP3    H117266   2.126   0.181   2.067
 5775TIP3    H217267   2.255   0.113   2.026
 5776TIP3   OH217268   4.770   2.039   2.692
 5776TIP3    H117269   4.723   2.101   2.637
 5776TIP3    H217270   4.704   1.977   2.721
 5777TIP3   OH217271   5.961   7.428   0.559
 5777TIP3    H117272   6.053   7.450   0.545
 5777TIP3    H217273   5.930   7.400   0.472
 5778TIP3   OH217274   3.954   1.751   3.348
 5778TIP3    H117275   3.881   1.763   3.288
 5778TIP3    H217276   3.924   1.684   3.409
 5779TIP3   OH217277   8.249   1.000   3.754
 5779TIP3    H117278   8.314   1.069   3.768
 5779TIP3    H217279   8.171   1.047   3.724
 5780TIP3   OH217280   4.008   7.248   0.491
 5780TIP3    H117281   3.927   7.198   0.500
 5780TIP3    H217282   4.064   7.217   0.561
 5781TIP3   OH217283   1.338   2.463   2.380
 5781TIP3    H117284   1.364   2.551   2.409
 5781TIP3    H217285   1.367   2.406   2.450
 5782TIP3   OH217286   4.377   4.189   5.642
 5782TIP3    H117287   4.450   4.181   5.703
 5782TIP3    H217288   4.379   4.108   5.590
 5783TIP3   OH217289   4.759   5.051   6.805
 5783TIP3    H117290   4.756   4.956   6.811
 5783TIP3    H217291   4.762   5.069   6.711
 5784TIP3   OH217292   5.970   7.640   1.414
 5784TIP3    H117293   5.933   7.630   1.326
 5784TIP3    H217294   6.044   7.579   1.416
 5785TIP3   OH217295   1.263   6.568   0.658
 5785TIP3    H117296   1.295   6.618   0.733
 5785TIP3    H217297   1.183   6.612   0.632
 5786TIP3   OH217298   1.250   5.179   6.512
 5786TIP3    H117299   1.155   5.187   6.515
 5786TIP3    H217300   1.265   5.090   6.479
 5787TIP3   OH217301   7.232   1.062   2.437
 5787TIP3    H117302   7.282   1.023   2.365
 5787TIP3    H217303   7.239   0.998   2.508
 5788TIP3   OH217304   6.829   4.180   2.713
 5788TIP3    H117305   6.902   4.118   2.701
 5788TIP3    H217306   6.872   4.264   2.730
 5789TIP3   OH217307   5.200   2.837   0.452
 5789TIP3    H117308   5.117   2.809   0.414
 5789TIP3    H217309   5.204   2.792   0.536
 5790TIP3   OH217310   2.173   6.370   3.878
 5790TIP3    H117311   2.099   6.334   3.927
 5790TIP3    H217312   2.232   6.295   3.865
 5791TIP3   OH217313   6.280   2.506   4.208
 5791TIP3    H117314   6.291   2.433   4.269
 5791TIP3    H217315   6.278   2.584   4.263
 5792TIP3   OH217316   5.928   0.860   2.514
 5792TIP3    H117317   5.956   0.885   2.425
 5792TIP3    H217318   6.010   0.842   2.560
 5793TIP3   OH217319   6.618   4.747   5.917
 5793TIP3    H117320   6.532   4.708   5.905
 5793TIP3    H217321   6.634   4.743   6.011
 5794TIP3   OH217322   1.874   7.679   4.458
 5794TIP3    H117323   1.960   7.637   4.456
 5794TIP3    H217324   1.889   7.766   4.421
 5795TIP3   OH217325   0.440   1.529   0.611
 5795TIP3    H117326   0.396   1.553   0.692
 5795TIP3    H217327   0.395   1.581   0.544
 5796TIP3   OH217328   5.709   3.806   6.618
 5796TIP3    H117329   5.764   3.825   6.694
 5796TIP3    H217330   5.703   3.889   6.571
 5797TIP3   OH217331   3.334   7.190   0.229
 5797TIP3    H117332   3.378   7.270   0.256
 5797TIP3    H217333   3.242   7.214   0.219
 5798TIP3   OH217334   2.079   2.315   3.544
 5798TIP3    H117335   2.000   2.327   3.597
 5798TIP3    H217336   2.148   2.360   3.593
 5799TIP3   OH217337   6.148   4.868   3.562
 5799TIP3    H117338   6.184   4.873   3.651
 5799TIP3    H217339   6.054   4.861   3.575
 5800TIP3   OH217340   5.635   4.030   5.251
 5800TIP3    H117341   5.640   4.050   5.157
 5800TIP3    H217342   5.695   4.091   5.292
 5801TIP3   OH217343   3.674   5.988   6.677
 5801TIP3    H117344   3.670   5.911   6.621
 5801TIP3    H217345   3.585   6.022   6.678
 5802TIP3   OH217346   2.421   1.487   2.350
 5802TIP3    H117347   2.458   1.481   2.438
 5802TIP3    H217348   2.495   1.513   2.295
 5803TIP3   OH217349   7.096   5.437   3.947
 5803TIP3    H117350   7.049   5.518   3.966
 5803TIP3    H217351   7.163   5.431   4.015
 5804TIP3   OH217352   5.699   7.860   1.848
 5804TIP3    H117353   5.711   7.916   1.772
 5804TIP3    H217354   5.611   7.882   1.879
 5805TIP3   OH217355   2.634   1.636   5.818
 5805TIP3    H117356   2.697   1.680   5.875
 5805TIP3    H217357   2.549   1.666   5.850
 5806TIP3   OH217358   6.675   0.036   5.704
 5806TIP3    H117359   6.642   0.119   5.671
 5806TIP3    H217360   6.629   0.023   5.786
 5807TIP3   OH217361   7.653   3.927   6.728
 5807TIP3    H117362   7.642   3.878   6.810
 5807TIP3    H217363   7.629   4.017   6.751
 5808TIP3   OH217364   0.565   7.613   6.274
 5808TIP3    H117365   0.475   7.636   6.251
 5808TIP3    H217366   0.616   7.638   6.197
 5809TIP3   OH217367   7.155   4.824   2.569
 5809TIP3    H117368   7.125   4.861   2.651
 5809TIP3    H217369   7.236   4.871   2.549
 5810TIP3   OH217370   7.066   4.974   2.803
 5810TIP3    H117371   7.115   4.951   2.881
 5810TIP3    H217372   7.076   5.069   2.796
 5811TIP3   OH217373   3.114   4.280   2.511
 5811TIP3    H117374   3.195   4.331   2.522
 5811TIP3    H217375   3.104   4.234   2.594
 5812TIP3   OH217376   7.154   7.814   3.039
 5812TIP3    H117377   7.100   7.750   3.085
 5812TIP3    H217378   7.169   7.884   3.103
 5813TIP3   OH217379   7.861   5.531   5.074
 5813TIP3    H117380   7.844   5.443   5.040
 5813TIP3    H217381   7.949   5.526   5.110
 5814TIP3   OH217382   1.536   0.977   2.377
 5814TIP3    H117383   1.548   1.072   2.371
 5814TIP3    H217384   1.624   0.943   2.396
 5815TIP3   OH217385   8.264   7.521   2.364
 5815TIP3    H117386   8.210   7.588   2.321
 5815TIP3    H217387   8.339   7.570   2.399
 5816TIP3   OH217388   3.368   2.483   6.812
 5816TIP3    H117389   3.384   2.392   6.785
 5816TIP3    H217390   3.440   2.504   6.870
 5817TIP3   OH217391   3.980   7.184   3.859
 5817TIP3    H117392   3.926   7.118   3.817
 5817TIP3    H217393   3.937   7.201   3.943
 5818TIP3   OH217394   6.160   4.315   3.587
 5818TIP3    H117395   6.208   4.398   3.597
 5818TIP3    H217396   6.224   4.249   3.614
 5819TIP3   OH217397   6.881   2.431   3.932
 5819TIP3    H117398   6.858   2.349   3.888
 5819TIP3    H217399   6.977   2.427   3.942
 5820TIP3   OH217400   2.640   6.036   1.216
 5820TIP3    H117401   2.562   6.037   1.161
 5820TIP3    H217402   2.644   6.124   1.254
 5821TIP3   OH217403   3.358   3.191   3.134
 5821TIP3    H117404   3.447   3.217   3.110
 5821TIP3    H217405   3.301   3.254   3.090
 5822TIP3   OH217406   2.454   0.952   4.221
 5822TIP3    H117407   2.514   0.901   4.168
 5822TIP3    H217408   2.463   1.042   4.189
 5823TIP3   OH217409   5.451   4.981   3.973
 5823TIP3    H117410   5.426   4.956   3.884
 5823TIP3    H217411   5.517   4.917   3.999
 5824TIP3   OH217412   5.911   7.080   6.143
 5824TIP3    H117413   5.967   7.124   6.079
 5824TIP3    H217414   5.972   7.037   6.203
 5825TIP3   OH217415   6.824   2.726   4.383
 5825TIP3    H117416   6.771   2.790   4.431
 5825TIP3    H217417   6.885   2.691   4.448
 5826TIP3   OH217418   7.948   1.822   6.080
 5826TIP3    H117419   7.906   1.891   6.028
 5826TIP3    H217420   7.916   1.740   6.043
 5827TIP3   OH217421   0.492   5.029   6.449
 5827TIP3    H117422   0.446   4.945   6.453
 5827TIP3    H217423   0.523   5.044   6.538
 5828TIP3   OH217424   6.827   3.047   2.705
 5828TIP3    H117425   6.873   3.102   2.768
 5828TIP3    H217426   6.799   3.107   2.637
 5829TIP3   OH217427   1.364   6.670   2.458
 5829TIP3    H117428   1.284   6.650   2.408
 5829TIP3    H217429   1.332   6.715   2.536
 5830TIP3   OH217430   4.684   1.289   3.300
 5830TIP3    H117431   4.749   1.300   3.231
 5830TIP3    H217432   4.629   1.367   3.292
 5831TIP3   OH217433   7.681   3.425   1.792
 5831TIP3    H117434   7.677   3.360   1.862
 5831TIP3    H217435   7.668   3.375   1.711
 5832TIP3   OH217436   3.256   1.132   1.171
 5832TIP3    H117437   3.162   1.144   1.162
 5832TIP3    H217438   3.266   1.057   1.230
 5833TIP3   OH217439   1.004   7.396   2.292
 5833TIP3    H117440   1.017   7.469   2.352
 5833TIP3    H217441   0.918   7.361   2.315
 5834TIP3   OH217442   4.039   1.338   4.859
 5834TIP3    H117443   3.965   1.368   4.806
 5834TIP3    H217444   4.094   1.290   4.797
 5835TIP3   OH217445   4.960   5.079   6.394
 5835TIP3    H117446   4.985   5.077   6.301
 5835TIP3    H217447   5.026   5.133   6.436
 5836TIP3   OH217448   5.918   1.674   1.925
 5836TIP3    H117449   5.830   1.659   1.890
 5836TIP3    H217450   5.909   1.659   2.019
 5837TIP3   OH217451   1.116   4.029   4.471
 5837TIP3    H117452   1.207   4.057   4.480
 5837TIP3    H217453   1.121   3.935   4.451
 5838TIP3   OH217454   4.495   3.209   0.009
 5838TIP3    H117455   4.565   3.151   0.039
 5838TIP3    H217456   4.540   3.288  -0.021
 5839TIP3   OH217457   0.111   3.752   0.009
 5839TIP3    H117458   0.123   3.667  -0.033
 5839TIP3    H217459   0.035   3.790  -0.035
 5840TIP3   OH217460   7.555   2.533   0.212
 5840TIP3    H117461   7.636   2.560   0.256
 5840TIP3    H217462   7.582   2.467   0.149
 5841TIP3   OH217463   6.583   4.379   1.757
 5841TIP3    H117464   6.656   4.360   1.698
 5841TIP3    H217465   6.534   4.297   1.763
 5842TIP3   OH217466   4.798   2.367   6.018
 5842TIP3    H117467   4.719   2.325   6.051
 5842TIP3    H217468   4.870   2.323   6.064
 5843TIP3   OH217469   7.091   4.741   2.177
 5843TIP3    H117470   7.068   4.766   2.087
 5843TIP3    H217471   7.040   4.800   2.232
 5844TIP3   OH217472   0.661   4.033   1.663
 5844TIP3    H117473   0.657   4.050   1.758
 5844TIP3    H217474   0.728   3.966   1.653
 5845TIP3   OH217475   7.330   5.892   2.625
 5845TIP3    H117476   7.274   5.949   2.677
 5845TIP3    H217477   7.273   5.819   2.600
 5846TIP3   OH217478   4.152   2.857   5.659
 5846TIP3    H117479   4.237   2.819   5.678
 5846TIP3    H217480   4.118   2.883   5.744
 5847TIP3   OH217481   7.475   0.371   6.419
 5847TIP3    H117482   7.541   0.328   6.366
 5847TIP3    H217483   7.404   0.391   6.357
 5848TIP3   OH217484   4.012   4.031   4.391
 5848TIP3    H117485   3.988   3.954   4.443
 5848TIP3    H217486   3.988   4.106   4.446
 5849TIP3   OH217487   7.814   4.726   3.195
 5849TIP3    H117488   7.910   4.723   3.186
 5849TIP3    H217489   7.799   4.720   3.289
 5850TIP3   OH217490   5.795   4.712   4.766
 5850TIP3    H117491   5.769   4.723   4.675
 5850TIP3    H217492   5.772   4.794   4.808
 5851TIP3   OH217493   1.636   2.532   6.018
 5851TIP3    H117494   1.690   2.453   6.020
 5851TIP3    H217495   1.674   2.587   5.950
 5852TIP3   OH217496   0.449   0.509   5.555
 5852TIP3    H117497   0.457   0.466   5.471
 5852TIP3    H217498   0.425   0.600   5.534
 5853TIP3   OH217499   3.264   1.675   4.006
 5853TIP3    H117500   3.171   1.674   3.983
 5853TIP3    H217501   3.302   1.601   3.959
 5854TIP3   OH217502   3.668   0.307   6.432
 5854TIP3    H117503   3.750   0.270   6.464
 5854TIP3    H217504   3.612   0.231   6.415
 5855TIP3   OH217505   5.969   7.131   5.190
 5855TIP3    H117506   5.886   7.133   5.141
 5855TIP3    H217507   5.975   7.217   5.231
 5856TIP3   OH217508   7.026   4.618   5.982
 5856TIP3    H117509   6.995   4.691   5.927
 5856TIP3    H217510   7.042   4.547   5.920
 5857TIP3   OH217511   1.618   5.276   5.947
 5857TIP3    H117512   1.558   5.339   5.906
 5857TIP3    H217513   1.604   5.194   5.899
 5858TIP3   OH217514   4.602   6.246   2.375
 5858TIP3    H117515   4.637   6.232   2.462
 5858TIP3    H217516   4.556   6.330   2.381
 5859TIP3   OH217517   2.250   3.864   6.129
 5859TIP3    H117518   2.217   3.779   6.102
 5859TIP3    H217519   2.320   3.844   6.191
 5860TIP3   OH217520   1.889   0.646   3.718
 5860TIP3    H117521   1.801   0.609   3.723
 5860TIP3    H217522   1.875   0.740   3.711
 5861TIP3   OH217523   3.939   5.685   5.932
 5861TIP3    H117524   3.945   5.739   6.011
 5861TIP3    H217525   3.865   5.627   5.948
 5862TIP3   OH217526   5.463   0.058   1.684
 5862TIP3    H117527   5.459   0.106   1.766
 5862TIP3    H217528   5.513  -0.021   1.704
 5863TIP3   OH217529   8.027   1.287   5.135
 5863TIP3    H117530   8.020   1.227   5.061
 5863TIP3    H217531   8.082   1.241   5.198
 5864TIP3   OH217532   7.641   6.019   0.956
 5864TIP3    H117533   7.620   6.048   0.867
 5864TIP3    H217534   7.565   6.044   1.008
 5865TIP3   OH217535   2.989   2.847   0.465
 5865TIP3    H117536   3.006   2.933   0.425
 5865TIP3    H217537   3.025   2.854   0.553
 5866TIP3   OH217538   0.874   2.909   4.632
 5866TIP3    H117539   0.903   2.870   4.550
 5866TIP3    H217540   0.927   2.865   4.699
 5867TIP3   OH217541   0.413   7.257   2.999
 5867TIP3    H117542   0.323   7.275   2.972
 5867TIP3    H217543   0.423   7.303   3.082
 5868TIP3   OH217544   0.207   5.808   4.787
 5868TIP3    H117545   0.268   5.787   4.716
 5868TIP3    H217546   0.209   5.903   4.793
 5869TIP3   OH217547   1.762   7.404   2.105
 5869TIP3    H117548   1.723   7.360   2.181
 5869TIP3    H217549   1.791   7.489   2.138
 5870TIP3   OH217550   6.358   0.689   4.681
 5870TIP3    H117551   6.353   0.785   4.685
 5870TIP3    H217552   6.268   0.661   4.668
 5871TIP3   OH217553   3.328   1.333   4.104
 5871TIP3    H117554   3.305   1.364   4.192
 5871TIP3    H217555   3.420   1.307   4.111
 5872TIP3   OH217556   7.057   4.204   0.876
 5872TIP3    H117557   7.107   4.286   0.871
 5872TIP3    H217558   6.993   4.211   0.806
 5873TIP3   OH217559   5.156   0.027   1.666
 5873TIP3    H117560   5.122   0.103   1.618
 5873TIP3    H217561   5.251   0.037   1.660
 5874TIP3   OH217562   0.583   2.305   6.854
 5874TIP3    H117563   0.584   2.210   6.842
 5874TIP3    H217564   0.658   2.336   6.802
 5875TIP3   OH217565   8.099   5.448   6.320
 5875TIP3    H117566   8.051   5.402   6.389
 5875TIP3    H217567   8.061   5.536   6.319
 5876TIP3   OH217568   0.347   6.477   5.856
 5876TIP3    H117569   0.376   6.433   5.936
 5876TIP3    H217570   0.399   6.558   5.853
 5877TIP3   OH217571   0.406   4.198   0.833
 5877TIP3    H117572   0.394   4.107   0.806
 5877TIP3    H217573   0.500   4.213   0.826
 5878TIP3   OH217574   6.291   3.349   5.906
 5878TIP3    H117575   6.346   3.324   5.981
 5878TIP3    H217576   6.276   3.443   5.917
 5879TIP3   OH217577   0.382   7.449   1.959
 5879TIP3    H117578   0.291   7.476   1.966
 5879TIP3    H217579   0.389   7.374   2.017
 5880TIP3   OH217580   4.648   4.777   0.330
 5880TIP3    H117581   4.688   4.818   0.406
 5880TIP3    H217582   4.706   4.798   0.257
 5881TIP3   OH217583   1.827   7.532   1.332
 5881TIP3    H117584   1.749   7.503   1.380
 5881TIP3    H217585   1.817   7.627   1.325
 5882TIP3   OH217586   7.714   2.278   5.067
 5882TIP3    H117587   7.801   2.241   5.052
 5882TIP3    H217588   7.666   2.261   4.985
 5883TIP3   OH217589   7.736   3.463   4.538
 5883TIP3    H117590   7.711   3.529   4.602
 5883TIP3    H217591   7.827   3.442   4.559
 5884TIP3   OH217592   4.017   5.794   4.269
 5884TIP3    H117593   3.987   5.793   4.360
 5884TIP3    H217594   3.954   5.851   4.224
 5885TIP3   OH217595   2.556   1.291   5.625
 5885TIP3    H117596   2.600   1.358   5.573
 5885TIP3    H217597   2.464   1.299   5.601
 5886TIP3   OH217598   6.129   2.841   5.629
 5886TIP3    H117599   6.154   2.788   5.705
 5886TIP3    H217600   6.212   2.876   5.596
 5887TIP3   OH217601   7.654   3.127   2.311
 5887TIP3    H117602   7.651   3.035   2.339
 5887TIP3    H217603   7.746   3.144   2.293
 5888TIP3   OH217604   7.550   6.431   2.018
 5888TIP3    H117605   7.579   6.346   1.987
 5888TIP3    H217606   7.613   6.493   1.981
 5889TIP3   OH217607   8.154   6.853   5.752
 5889TIP3    H117608   8.081   6.796   5.774
 5889TIP3    H217609   8.198   6.870   5.835
 5890TIP3   OH217610   5.240   1.635   1.588
 5890TIP3    H117611   5.312   1.599   1.638
 5890TIP3    H217612   5.227   1.573   1.516
 5891TIP3   OH217613   0.304   6.859   3.054
 5891TIP3    H117614   0.280   6.838   2.963
 5891TIP3    H217615   0.371   6.794   3.076
 5892TIP3   OH217616   3.337   5.932   1.681
 5892TIP3    H117617   3.270   5.965   1.622
 5892TIP3    H217618   3.408   5.996   1.675
 5893TIP3   OH217619   1.318   3.689   2.203
 5893TIP3    H117620   1.239   3.740   2.183
 5893TIP3    H217621   1.324   3.626   2.131
 5894TIP3   OH217622   4.134   6.136   4.722
 5894TIP3    H117623   4.189   6.118   4.646
 5894TIP3    H217624   4.114   6.050   4.759
 5895TIP3   OH217625   0.530   0.896   3.907
 5895TIP3    H117626   0.515   0.952   3.831
 5895TIP3    H217627   0.442   0.870   3.936
 5896TIP3   OH217628   4.891   4.214   2.888
 5896TIP3    H117629   4.798   4.234   2.885
 5896TIP3    H217630   4.910   4.174   2.802
 5897TIP3   OH217631   0.408   5.623   1.929
 5897TIP3    H117632   0.372   5.537   1.950
 5897TIP3    H217633   0.496   5.622   1.966
 5898TIP3   OH217634   1.599   3.582   3.170
 5898TIP3    H117635   1.557   3.634   3.101
 5898TIP3    H217636   1.635   3.506   3.124
 5899TIP3   OH217637   1.576   1.255   0.614
 5899TIP3    H117638   1.643   1.224   0.674
 5899TIP3    H217639   1.554   1.343   0.646
 5900TIP3   OH217640   7.238   1.843   6.568
 5900TIP3    H117641   7.302   1.772   6.575
 5900TIP3    H217642   7.267   1.908   6.632
 5901TIP3   OH217643   0.435   2.984   2.393
 5901TIP3    H117644   0.386   3.007   2.314
 5901TIP3    H217645   0.459   2.893   2.381
 5902TIP3   OH217646   0.803   7.608   3.486
 5902TIP3    H117647   0.787   7.618   3.392
 5902TIP3    H217648   0.846   7.690   3.512
 5903TIP3   OH217649   6.091   5.214   3.952
 5903TIP3    H117650   6.137   5.240   3.872
 5903TIP3    H217651   6.017   5.162   3.921
 5904TIP3   OH217652   5.789   3.306   0.855
 5904TIP3    H117653   5.771   3.322   0.948
 5904TIP3    H217654   5.871   3.255   0.856
 5905TIP3   OH217655   8.038   0.538   3.062
 5905TIP3    H117656   7.995   0.468   3.013
 5905TIP3    H217657   8.016   0.618   3.014
 5906TIP3   OH217658   6.526   2.292   4.667
 5906TIP3    H117659   6.480   2.236   4.730
 5906TIP3    H217660   6.591   2.234   4.627
 5907TIP3   OH217661   5.375   0.865   4.611
 5907TIP3    H117662   5.414   0.896   4.530
 5907TIP3    H217663   5.303   0.808   4.583
 5908TIP3   OH217664   0.450   2.923   6.396
 5908TIP3    H117665   0.441   2.851   6.458
 5908TIP3    H217666   0.363   2.930   6.355
 5909TIP3   OH217667   8.133   7.013   2.756
 5909TIP3    H117668   8.206   6.986   2.701
 5909TIP3    H217669   8.174   7.065   2.826
 5910TIP3   OH217670   6.607   1.885   0.777
 5910TIP3    H117671   6.561   1.828   0.715
 5910TIP3    H217672   6.620   1.966   0.727
 5911TIP3   OH217673   5.841   4.237   4.139
 5911TIP3    H117674   5.747   4.218   4.143
 5911TIP3    H217675   5.882   4.151   4.127
 5912TIP3   OH217676   4.691   4.550   3.698
 5912TIP3    H117677   4.642   4.630   3.679
 5912TIP3    H217678   4.723   4.563   3.788
 5913TIP3   OH217679   3.124   6.801   6.473
 5913TIP3    H117680   3.159   6.747   6.544
 5913TIP3    H217681   3.151   6.755   6.393
 5914TIP3   OH217682   4.894   2.992   0.991
 5914TIP3    H117683   4.844   3.049   0.933
 5914TIP3    H217684   4.834   2.970   1.062
 5915TIP3   OH217685   4.703   7.861   3.078
 5915TIP3    H117686   4.703   7.910   2.996
 5915TIP3    H217687   4.616   7.875   3.114
 5916TIP3   OH217688   0.772   1.738   1.726
 5916TIP3    H117689   0.806   1.650   1.742
 5916TIP3    H217690   0.846   1.796   1.746
 5917TIP3   OH217691   7.599   4.072   1.440
 5917TIP3    H117692   7.615   4.158   1.401
 5917TIP3    H217693   7.506   4.072   1.461
 5918TIP3   OH217694   8.366   1.406   3.290
 5918TIP3    H117695   8.383   1.495   3.259
 5918TIP3    H217696   8.347   1.416   3.383
 5919TIP3   OH217697   1.047   5.654   3.276
 5919TIP3    H117698   1.125   5.600   3.262
 5919TIP3    H217699   1.078   5.727   3.331
 5920TIP3   OH217700   8.103   2.796   4.938
 5920TIP3    H117701   8.035   2.856   4.966
 5920TIP3    H217702   8.090   2.787   4.843
 5921TIP3   OH217703   0.945   2.181   6.318
 5921TIP3    H117704   0.895   2.107   6.285
 5921TIP3    H217705   0.934   2.178   6.413
 5922TIP3   OH217706   2.392   0.442   5.488
 5922TIP3    H117707   2.339   0.518   5.512
 5922TIP3    H217708   2.340   0.397   5.422
 5923TIP3   OH217709   2.171   3.322   0.401
 5923TIP3    H117710   2.264   3.304   0.396
 5923TIP3    H217711   2.146   3.295   0.490
 5924TIP3   OH217712   5.856   4.632   1.032
 5924TIP3    H117713   5.881   4.642   0.940
 5924TIP3    H217714   5.763   4.609   1.029
 5925TIP3   OH217715   1.355   2.062   2.295
 5925TIP3    H117716   1.424   1.997   2.288
 5925TIP3    H217717   1.278   2.021   2.255
 5926TIP3   OH217718   0.475   2.078   5.235
 5926TIP3    H117719   0.397   2.045   5.190
 5926TIP3    H217720   0.441   2.121   5.314
 5927TIP3   OH217721   5.925   7.914   1.235
 5927TIP3    H117722   5.955   7.899   1.325
 5927TIP3    H217723   5.902   7.827   1.203
 5928TIP3   OH217724   6.175   3.683   0.887
 5928TIP3    H117725   6.187   3.653   0.797
 5928TIP3    H217726   6.117   3.759   0.879
 5929TIP3   OH217727   1.388   0.743   5.366
 5929TIP3    H117728   1.399   0.656   5.328
 5929TIP3    H217729   1.388   0.729   5.460
 5930TIP3   OH217730   3.668   1.973   6.791
 5930TIP3    H117731   3.673   1.904   6.858
 5930TIP3    H217732   3.692   2.053   6.838
 5931TIP3   OH217733   6.530   2.401   1.933
 5931TIP3    H117734   6.449   2.432   1.894
 5931TIP3    H217735   6.575   2.355   1.862
 5932TIP3   OH217736   6.096   4.009   1.756
 5932TIP3    H117737   6.128   4.016   1.846
 5932TIP3    H217738   6.157   3.950   1.713
 5933TIP3   OH217739   6.860   6.574   1.649
 5933TIP3    H117740   6.800   6.529   1.708
 5933TIP3    H217741   6.919   6.621   1.707
 5934TIP3   OH217742   6.162   1.050   2.640
 5934TIP3    H117743   6.159   0.955   2.626
 5934TIP3    H217744   6.186   1.086   2.554
 5935TIP3   OH217745   0.427   4.212   6.232
 5935TIP3    H117746   0.414   4.118   6.223
 5935TIP3    H217747   0.517   4.220   6.266
 5936TIP3   OH217748   5.719   2.476   3.051
 5936TIP3    H117749   5.793   2.449   3.106
 5936TIP3    H217750   5.759   2.530   2.982
 5937TIP3   OH217751   3.503   6.090   1.346
 5937TIP3    H117752   3.563   6.164   1.343
 5937TIP3    H217753   3.557   6.016   1.376
 5938TIP3   OH217754   4.375   3.140   6.020
 5938TIP3    H117755   4.334   3.214   5.974
 5938TIP3    H217756   4.346   3.149   6.111
 5939TIP3   OH217757   7.946   3.826   5.481
 5939TIP3    H117758   7.977   3.914   5.460
 5939TIP3    H217759   7.997   3.768   5.424
 5940TIP3   OH217760   3.087   4.011   0.331
 5940TIP3    H117761   3.097   3.919   0.308
 5940TIP3    H217762   3.146   4.057   0.272
 5941TIP3   OH217763   5.760   1.459   1.638
 5941TIP3    H117764   5.855   1.469   1.631
 5941TIP3    H217765   5.747   1.405   1.716
 5942TIP3   OH217766   7.419   5.646   6.415
 5942TIP3    H117767   7.433   5.601   6.498
 5942TIP3    H217768   7.332   5.618   6.387
 5943TIP3   OH217769   2.192   2.472   5.306
 5943TIP3    H117770   2.176   2.443   5.216
 5943TIP3    H217771   2.193   2.391   5.357
 5944TIP3   OH217772   1.644   2.356   1.965
 5944TIP3    H117773   1.707   2.314   1.906
 5944TIP3    H217774   1.577   2.290   1.980
 5945TIP3   OH217775   4.449   1.193   1.020
 5945TIP3    H117776   4.405   1.170   1.102
 5945TIP3    H217777   4.416   1.281   1.000
 5946TIP3   OH217778   4.072   0.963   6.592
 5946TIP3    H117779   4.048   1.045   6.549
 5946TIP3    H217780   3.998   0.943   6.648
 5947TIP3   OH217781   7.073   2.254   4.956
 5947TIP3    H117782   7.096   2.328   5.013
 5947TIP3    H217783   7.089   2.287   4.868
 5948TIP3   OH217784   4.418   3.755   0.301
 5948TIP3    H117785   4.393   3.846   0.285
 5948TIP3    H217786   4.509   3.750   0.272
 5949TIP3   OH217787   5.042   3.916   4.936
 5949TIP3    H117788   5.124   3.960   4.960
 5949TIP3    H217789   5.027   3.940   4.845
 5950TIP3   OH217790   0.916   6.623   5.409
 5950TIP3    H117791   0.874   6.599   5.326
 5950TIP3    H217792   0.903   6.547   5.465
 5951TIP3   OH217793   2.780   7.792   0.526
 5951TIP3    H117794   2.791   7.853   0.453
 5951TIP3    H217795   2.857   7.806   0.580
 5952TIP3   OH217796   8.136   6.049   5.488
 5952TIP3    H117797   8.049   6.085   5.505
 5952TIP3    H217798   8.174   6.107   5.422
 5953TIP3   OH217799   3.248   2.967   1.974
 5953TIP3    H117800   3.188   3.006   1.910
 5953TIP3    H217801   3.200   2.891   2.009
 5954TIP3   OH217802   3.776   0.155   4.633
 5954TIP3    H117803   3.863   0.175   4.597
 5954TIP3    H217804   3.716   0.207   4.580
 5955TIP3   OH217805   7.111   1.988   4.718
 5955TIP3    H117806   7.031   1.947   4.686
 5955TIP3    H217807   7.180   1.924   4.701
 5956TIP3   OH217808   7.487   2.912   5.078
 5956TIP3    H117809   7.414   2.864   5.118
 5956TIP3    H217810   7.445   2.977   5.022
 5957TIP3   OH217811   1.677   1.538   0.356
 5957TIP3    H117812   1.629   1.459   0.382
 5957TIP3    H217813   1.610   1.606   0.351
 5958TIP3   OH217814   4.421   3.857   1.881
 5958TIP3    H117815   4.326   3.847   1.886
 5958TIP3    H217816   4.455   3.812   1.958
 5959TIP3   OH217817   0.645   0.991   6.787
 5959TIP3    H117818   0.559   1.022   6.817
 5959TIP3    H217819   0.644   0.897   6.804
 5960TIP3   OH217820   5.629   4.557   3.033
 5960TIP3    H117821   5.536   4.571   3.020
 5960TIP3    H217822   5.646   4.591   3.121
 5961TIP3   OH217823   1.091   5.628   2.824
 5961TIP3    H117824   1.176   5.640   2.781
 5961TIP3    H217825   1.100   5.547   2.874
 5962TIP3   OH217826   7.465   3.290   5.261
 5962TIP3    H117827   7.378   3.250   5.267
 5962TIP3    H217828   7.449   3.380   5.233
 5963TIP3   OH217829   3.076   0.967   2.271
 5963TIP3    H117830   3.075   0.974   2.366
 5963TIP3    H217831   3.168   0.980   2.247
 5964TIP3   OH217832   0.764   6.273   2.062
 5964TIP3    H117833   0.756   6.251   2.155
 5964TIP3    H217834   0.811   6.356   2.061
 5965TIP3   OH217835   1.891   2.005   4.771
 5965TIP3    H117836   1.852   1.931   4.817
 5965TIP3    H217837   1.951   1.964   4.709
 5966TIP3   OH217838   0.080   4.757   0.768
 5966TIP3    H117839   0.001   4.809   0.748
 5966TIP3    H217840   0.133   4.765   0.689
 5967TIP3   OH217841   7.985   3.960   2.941
 5967TIP3    H117842   7.941   3.936   2.860
 5967TIP3    H217843   7.921   4.013   2.989
 5968TIP3   OH217844   3.865   6.243   1.893
 5968TIP3    H117845   3.867   6.332   1.859
 5968TIP3    H217846   3.778   6.210   1.868
 5969TIP3   OH217847   5.713   6.262   5.504
 5969TIP3    H117848   5.710   6.310   5.421
 5969TIP3    H217849   5.621   6.242   5.523
 5970TIP3   OH217850   2.378   6.297   0.114
 5970TIP3    H117851   2.413   6.266   0.030
 5970TIP3    H217852   2.404   6.390   0.118
 5971TIP3   OH217853   4.066   0.143   1.319
 5971TIP3    H117854   4.069   0.125   1.413
 5971TIP3    H217855   4.053   0.238   1.314
 5972TIP3   OH217856   3.736   5.692   4.642
 5972TIP3    H117857   3.716   5.680   4.734
 5972TIP3    H217858   3.723   5.606   4.602
 5973TIP3   OH217859   3.029   5.721   4.492
 5973TIP3    H117860   3.059   5.751   4.578
 5973TIP3    H217861   3.041   5.797   4.435
 5974TIP3   OH217862   3.692   5.927   1.430
 5974TIP3    H117863   3.678   5.871   1.507
 5974TIP3    H217864   3.780   5.903   1.399
 5975TIP3   OH217865   5.844   7.129   4.127
 5975TIP3    H117866   5.811   7.152   4.214
 5975TIP3    H217867   5.938   7.117   4.139
 5976TIP3   OH217868   3.033   6.516   3.181
 5976TIP3    H117869   2.967   6.551   3.241
 5976TIP3    H217870   3.113   6.562   3.204
 5977TIP3   OH217871   7.406   7.502   1.412
 5977TIP3    H117872   7.371   7.418   1.442
 5977TIP3    H217873   7.361   7.567   1.467
 5978TIP3   OH217874   6.714   6.858   3.848
 5978TIP3    H117875   6.636   6.819   3.808
 5978TIP3    H217876   6.689   6.948   3.867
 5979TIP3   OH217877   1.239   7.841   3.459
 5979TIP3    H117878   1.207   7.925   3.492
 5979TIP3    H217879   1.181   7.821   3.385
 5980TIP3   OH217880   5.171   6.518   5.932
 5980TIP3    H117881   5.266   6.530   5.932
 5980TIP3    H217882   5.139   6.582   5.868
 5981TIP3   OH217883   8.071   7.152   6.208
 5981TIP3    H117884   8.127   7.080   6.236
 5981TIP3    H217885   8.094   7.225   6.266
 5982TIP3   OH217886   3.112   7.224   6.407
 5982TIP3    H117887   3.191   7.277   6.406
 5982TIP3    H217888   3.081   7.225   6.316
 5983TIP3   OH217889   4.128   6.819   4.976
 5983TIP3    H117890   4.033   6.813   4.963
 5983TIP3    H217891   4.137   6.857   5.064
 5984TIP3   OH217892   7.694   5.358   5.334
 5984TIP3    H117893   7.683   5.325   5.244
 5984TIP3    H217894   7.693   5.280   5.389
 5985TIP3   OH217895   6.685   4.432   6.819
 5985TIP3    H117896   6.740   4.354   6.830
 5985TIP3    H217897   6.636   4.438   6.901
 5986TIP3   OH217898   3.895   5.248   1.639
 5986TIP3    H117899   3.930   5.191   1.706
 5986TIP3    H217900   3.896   5.336   1.678
 5987TIP3   OH217901   6.222   5.849   1.871
 5987TIP3    H117902   6.290   5.902   1.912
 5987TIP3    H217903   6.142   5.872   1.917
 5988TIP3   OH217904   0.641   2.785   5.755
 5988TIP3    H117905   0.734   2.804   5.750
 5988TIP3    H217906   0.620   2.741   5.673
 5989TIP3   OH217907   1.537   2.881   5.689
 5989TIP3    H117908   1.488   2.836   5.620
 5989TIP3    H217909   1.534   2.973   5.664
 5990TIP3   OH217910   1.862   7.552   3.338
 5990TIP3    H117911   1.871   7.577   3.246
 5990TIP3    H217912   1.902   7.465   3.343
 5991TIP3   OH217913   6.820   0.571   3.471
 5991TIP3    H117914   6.839   0.508   3.540
 5991TIP3    H217915   6.905   0.589   3.431
 5992TIP3   OH217916   7.887   2.308   6.655
 5992TIP3    H117917   7.810   2.358   6.626
 5992TIP3    H217918   7.956   2.331   6.593
 5993TIP3   OH217919   6.107   6.418   0.813
 5993TIP3    H117920   6.140   6.461   0.734
 5993TIP3    H217921   6.180   6.363   0.842
 5994TIP3   OH217922   6.198   0.702   3.796
 5994TIP3    H117923   6.262   0.750   3.744
 5994TIP3    H217924   6.161   0.769   3.854
 5995TIP3   OH217925   7.714   5.851   3.870
 5995TIP3    H117926   7.714   5.776   3.809
 5995TIP3    H217927   7.791   5.902   3.845
 5996TIP3   OH217928   5.805   0.237   4.995
 5996TIP3    H117929   5.760   0.319   4.977
 5996TIP3    H217930   5.734   0.174   5.012
 5997TIP3   OH217931   5.713   5.275   0.567
 5997TIP3    H117932   5.660   5.212   0.517
 5997TIP3    H217933   5.733   5.229   0.649
 5998TIP3   OH217934   1.415   1.718   3.126
 5998TIP3    H117935   1.409   1.787   3.193
 5998TIP3    H217936   1.387   1.638   3.170
 5999TIP3   OH217937   6.326   7.526   2.083
 5999TIP3    H117938   6.330   7.551   1.991
 5999TIP3    H217939   6.242   7.480   2.092
 6000TIP3   OH217940   7.211   2.988   3.454
 6000TIP3    H117941   7.126   3.022   3.424
 6000TIP3    H217942   7.206   2.992   3.549
 6001TIP3   OH217943   2.540   4.688   3.469
 6001TIP3    H117944   2.569   4.752   3.533
 6001TIP3    H217945   2.497   4.740   3.401
 6002TIP3   OH217946   1.695   2.321   4.935
 6002TIP3    H117947   1.748   2.393   4.968
 6002TIP3    H217948   1.685   2.339   4.842
 6003TIP3   OH217949   3.298   6.327   3.577
 6003TIP3    H117950   3.249   6.334   3.495
 6003TIP3    H217951   3.289   6.413   3.618
 6004TIP3   OH217952  -0.011   6.029   0.752
 6004TIP3    H117953  -0.054   5.957   0.706
 6004TIP3    H217954  -0.083   6.076   0.794
 6005TIP3   OH217955   0.998   3.059   3.238
 6005TIP3    H117956   1.056   3.049   3.162
 6005TIP3    H217957   1.011   3.150   3.266
 6006TIP3   OH217958   5.839   5.629   1.481
 6006TIP3    H117959   5.869   5.576   1.407
 6006TIP3    H217960   5.915   5.633   1.540
 6007TIP3   OH217961   2.635   1.166   0.057
 6007TIP3    H117962   2.680   1.087   0.028
 6007TIP3    H217963   2.554   1.135   0.098
 6008TIP3   OH217964   6.034   3.234   2.470
 6008TIP3    H117965   6.053   3.216   2.378
 6008TIP3    H217966   6.116   3.215   2.516
 6009TIP3   OH217967   2.569   5.226   1.368
 6009TIP3    H117968   2.618   5.280   1.306
 6009TIP3    H217969   2.531   5.156   1.315
 6010TIP3   OH217970   8.036   6.504   1.592
 6010TIP3    H117971   7.998   6.577   1.544
 6010TIP3    H217972   8.060   6.540   1.677
 6011TIP3   OH217973   5.302   5.898   1.219
 6011TIP3    H117974   5.371   5.842   1.254
 6011TIP3    H217975   5.285   5.962   1.289
 6012TIP3   OH217976   7.103   7.046   5.143
 6012TIP3    H117977   7.165   6.986   5.102
 6012TIP3    H217978   7.017   7.005   5.130
 6013TIP3   OH217979   6.068   7.876   1.781
 6013TIP3    H117980   5.979   7.842   1.769
 6013TIP3    H217981   6.070   7.903   1.873
 6014TIP3   OH217982   2.845   5.998   2.793
 6014TIP3    H117983   2.873   6.089   2.785
 6014TIP3    H217984   2.786   5.984   2.719
 6015TIP3   OH217985   1.733   1.979   1.417
 6015TIP3    H117986   1.802   1.991   1.352
 6015TIP3    H217987   1.746   2.049   1.480
 6016TIP3   OH217988   4.452   7.247   5.638
 6016TIP3    H117989   4.491   7.175   5.589
 6016TIP3    H217990   4.359   7.224   5.644
 6017TIP3   OH217991   5.646   1.650   2.072
 6017TIP3    H117992   5.655   1.711   2.146
 6017TIP3    H217993   5.622   1.567   2.113
 6018TIP3   OH217994   3.287   3.684   0.985
 6018TIP3    H117995   3.380   3.664   0.973
 6018TIP3    H217996   3.243   3.634   0.916
 6019TIP3   OH217997   4.748   4.251   3.511
 6019TIP3    H117998   4.789   4.169   3.542
 6019TIP3    H217999   4.664   4.254   3.555
 6020TIP3   OH218000   2.739   4.288   1.118
 6020TIP3    H118001   2.832   4.302   1.099
 6020TIP3    H218002   2.732   4.193   1.132
 6021TIP3   OH218003   6.430   4.592   0.195
 6021TIP3    H118004   6.340   4.572   0.222
 6021TIP3    H218005   6.470   4.506   0.181
 6022TIP3   OH218006   0.882   3.684   2.855
 6022TIP3    H118007   0.798   3.654   2.820
 6022TIP3    H218008   0.865   3.703   2.947
 6023TIP3   OH218009   0.539   5.655   2.982
 6023TIP3    H118010   0.608   5.603   2.941
 6023TIP3    H218011   0.585   5.726   3.026
 6024TIP3   OH218012   0.374   6.571   0.596
 6024TIP3    H118013   0.380   6.646   0.537
 6024TIP3    H218014   0.460   6.529   0.589
 6025TIP3   OH218015   1.626   6.874   4.307
 6025TIP3    H118016   1.655   6.814   4.376
 6025TIP3    H218017   1.708   6.908   4.270
 6026TIP3   OH218018   3.306   2.629   0.461
 6026TIP3    H118019   3.339   2.592   0.543
 6026TIP3    H218020   3.303   2.723   0.476
 6027TIP3   OH218021   1.411   2.969   0.938
 6027TIP3    H118022   1.327   2.926   0.921
 6027TIP3    H218023   1.472   2.930   0.876
 6028TIP3   OH218024   7.084   3.999   5.946
 6028TIP3    H118025   7.053   3.951   6.023
 6028TIP3    H218026   7.035   3.961   5.873
 6029TIP3   OH218027   6.951   1.708   3.229
 6029TIP3    H118028   6.876   1.733   3.174
 6029TIP3    H218029   6.955   1.612   3.221
 6030TIP3   OH218030   1.565   0.177   0.676
 6030TIP3    H118031   1.657   0.197   0.660
 6030TIP3    H218032   1.553   0.192   0.770
 6031TIP3   OH218033   5.160   4.987   4.806
 6031TIP3    H118034   5.175   4.931   4.883
 6031TIP3    H218035   5.109   5.061   4.840
 6032TIP3   OH218036   7.145   0.822   2.502
 6032TIP3    H118037   7.066   0.867   2.529
 6032TIP3    H218038   7.137   0.735   2.541
 6033TIP3   OH218039   2.103   7.364   2.960
 6033TIP3    H118040   2.074   7.454   2.973
 6033TIP3    H218041   2.084   7.320   3.043
 6034TIP3   OH218042   0.358   4.222   1.143
 6034TIP3    H118043   0.418   4.204   1.070
 6034TIP3    H218044   0.375   4.313   1.166
 6035TIP3   OH218045   5.745   4.912   0.676
 6035TIP3    H118046   5.720   4.879   0.762
 6035TIP3    H218047   5.696   4.857   0.615
 6036TIP3   OH218048   6.201   2.742   3.713
 6036TIP3    H118049   6.164   2.664   3.756
 6036TIP3    H218050   6.139   2.761   3.643
 6037TIP3   OH218051   1.546   3.868   3.510
 6037TIP3    H118052   1.630   3.879   3.467
 6037TIP3    H218053   1.484   3.852   3.439
 6038TIP3   OH218054   6.052   3.909   2.742
 6038TIP3    H118055   6.087   3.973   2.679
 6038TIP3    H218056   6.058   3.953   2.827
 6039TIP3   OH218057   5.333   0.585   0.133
 6039TIP3    H118058   5.359   0.522   0.200
 6039TIP3    H218059   5.413   0.605   0.086
 6040TIP3   OH218060   1.567   3.796   5.612
 6040TIP3    H118061   1.655   3.827   5.633
 6040TIP3    H218062   1.508   3.852   5.662
 6041TIP3   OH218063   4.633   2.160   2.440
 6041TIP3    H118064   4.544   2.141   2.410
 6041TIP3    H218065   4.673   2.073   2.448
 6042TIP3   OH218066   1.549   6.755   1.561
 6042TIP3    H118067   1.615   6.820   1.583
 6042TIP3    H218068   1.475   6.777   1.618
 6043TIP3   OH218069   3.704   5.941   0.655
 6043TIP3    H118070   3.760   5.868   0.682
 6043TIP3    H218071   3.744   5.973   0.575
 6044TIP3   OH218072   1.016   6.271   0.347
 6044TIP3    H118073   1.038   6.179   0.334
 6044TIP3    H218074   1.082   6.319   0.296
 6045TIP3   OH218075   3.973   0.424   2.231
 6045TIP3    H118076   3.998   0.484   2.301
 6045TIP3    H218077   3.878   0.430   2.228
 6046TIP3   OH218078   2.702   2.397   5.695
 6046TIP3    H118079   2.706   2.475   5.751
 6046TIP3    H218080   2.682   2.432   5.608
 6047TIP3   OH218081   5.868   0.993   2.805
 6047TIP3    H118082   5.941   0.983   2.743
 6047TIP3    H218083   5.790   0.971   2.755
 6048TIP3   OH218084   0.374   0.357   6.211
 6048TIP3    H118085   0.322   0.355   6.130
 6048TIP3    H218086   0.412   0.445   6.213
 6049TIP3   OH218087   7.718   7.188   5.022
 6049TIP3    H118088   7.755   7.100   5.024
 6049TIP3    H218089   7.777   7.240   5.076
 6050TIP3   OH218090   0.540   7.430   2.211
 6050TIP3    H118091   0.574   7.413   2.299
 6050TIP3    H218092   0.610   7.401   2.152
 6051TIP3   OH218093   7.429   6.397   2.413
 6051TIP3    H118094   7.508   6.344   2.422
 6051TIP3    H218095   7.462   6.487   2.404
 6052TIP3   OH218096   1.855   4.686   4.913
 6052TIP3    H118097   1.841   4.766   4.964
 6052TIP3    H218098   1.793   4.623   4.950
 6053TIP3   OH218099   0.585   3.147   4.910
 6053TIP3    H118100   0.490   3.159   4.908
 6053TIP3    H218101   0.599   3.062   4.868
 6054TIP3   OH218102   6.382   7.211   3.503
 6054TIP3    H118103   6.339   7.201   3.418
 6054TIP3    H218104   6.364   7.129   3.549
 6055TIP3   OH218105   5.629   4.380   0.895
 6055TIP3    H118106   5.709   4.327   0.884
 6055TIP3    H218107   5.598   4.394   0.805
 6056TIP3   OH218108   4.341   7.470   1.172
 6056TIP3    H118109   4.250   7.499   1.166
 6056TIP3    H218110   4.349   7.432   1.260
 6057TIP3   OH218111   0.790   2.373   6.135
 6057TIP3    H118112   0.797   2.321   6.215
 6057TIP3    H218113   0.715   2.431   6.150
 6058TIP3   OH218114   5.276   4.583   1.142
 6058TIP3    H118115   5.256   4.539   1.224
 6058TIP3    H218116   5.191   4.594   1.099
 6059TIP3   OH218117   2.569   0.889   2.981
 6059TIP3    H118118   2.547   0.904   2.889
 6059TIP3    H218119   2.568   0.976   3.021
 6060TIP3   OH218120   4.864   2.545   0.694
 6060TIP3    H118121   4.860   2.480   0.764
 6060TIP3    H218122   4.924   2.508   0.630
 6061TIP3   OH218123   7.643   4.114   2.667
 6061TIP3    H118124   7.611   4.052   2.600
 6061TIP3    H218125   7.574   4.179   2.674
 6062TIP3   OH218126   7.452   4.395   1.709
 6062TIP3    H118127   7.387   4.464   1.723
 6062TIP3    H218128   7.442   4.371   1.617
 6063TIP3   OH218129   6.578   4.027   1.566
 6063TIP3    H118130   6.554   3.991   1.481
 6063TIP3    H218131   6.645   3.968   1.599
 6064TIP3   OH218132   2.360   5.252   2.551
 6064TIP3    H118133   2.329   5.291   2.633
 6064TIP3    H218134   2.280   5.234   2.502
 6065TIP3   OH218135   7.643   6.579   3.493
 6065TIP3    H118136   7.735   6.601   3.501
 6065TIP3    H218137   7.601   6.621   3.568
 6066TIP3   OH218138   1.647   4.201   6.203
 6066TIP3    H118139   1.706   4.203   6.278
 6066TIP3    H218140   1.589   4.276   6.217
 6067TIP3   OH218141   4.202   3.182   2.236
 6067TIP3    H118142   4.237   3.096   2.210
 6067TIP3    H218143   4.119   3.189   2.188
 6068TIP3   OH218144   6.882   4.399   4.214
 6068TIP3    H118145   6.954   4.395   4.277
 6068TIP3    H218146   6.821   4.331   4.242
 6069TIP3   OH218147   3.310   3.589   4.985
 6069TIP3    H118148   3.329   3.507   4.939
 6069TIP3    H218149   3.343   3.574   5.074
 6070TIP3   OH218150   5.938   4.615   6.620
 6070TIP3    H118151   5.912   4.579   6.535
 6070TIP3    H218152   5.997   4.549   6.657
 6071TIP3   OH218153   5.022   7.354   1.418
 6071TIP3    H118154   5.026   7.269   1.461
 6071TIP3    H218155   5.094   7.352   1.354
 6072TIP3   OH218156   7.026   5.252   4.818
 6072TIP3    H118157   6.975   5.176   4.848
 6072TIP3    H218158   6.969   5.297   4.756
 6073TIP3   OH218159   2.972   1.527   3.355
 6073TIP3    H118160   3.042   1.590   3.341
 6073TIP3    H218161   2.996   1.482   3.436
 6074TIP3   OH218162   7.408   2.981   0.902
 6074TIP3    H118163   7.461   3.004   0.826
 6074TIP3    H218164   7.413   3.057   0.960
 6075TIP3   OH218165   7.630   4.510   0.468
 6075TIP3    H118166   7.544   4.473   0.447
 6075TIP3    H218167   7.681   4.436   0.499
 6076TIP3   OH218168   7.995   2.237   5.027
 6076TIP3    H118169   8.046   2.261   5.105
 6076TIP3    H218170   7.999   2.142   5.023
 6077TIP3   OH218171   1.563   4.653   1.090
 6077TIP3    H118172   1.608   4.738   1.088
 6077TIP3    H218173   1.472   4.674   1.110
 6078TIP3   OH218174   1.900   4.180   6.315
 6078TIP3    H118175   1.993   4.195   6.332
 6078TIP3    H218176   1.895   4.166   6.220
 6079TIP3   OH218177   6.497   0.707   1.219
 6079TIP3    H118178   6.412   0.682   1.183
 6079TIP3    H218179   6.511   0.796   1.189
 6080TIP3   OH218180   7.815   6.441   4.750
 6080TIP3    H118181   7.792   6.381   4.679
 6080TIP3    H218182   7.900   6.477   4.725
 6081TIP3   OH218183   5.920   7.086   4.684
 6081TIP3    H118184   5.834   7.076   4.643
 6081TIP3    H218185   5.975   7.122   4.614
 6082TIP3   OH218186   8.222   2.668   0.626
 6082TIP3    H118187   8.213   2.624   0.711
 6082TIP3    H218188   8.296   2.625   0.584
 6083TIP3   OH218189   4.680   4.885   1.699
 6083TIP3    H118190   4.727   4.802   1.691
 6083TIP3    H218191   4.594   4.868   1.662
 6084TIP3   OH218192   8.240   6.067   2.953
 6084TIP3    H118193   8.297   6.057   3.030
 6084TIP3    H218194   8.298   6.056   2.878
 6085TIP3   OH218195   1.865   2.592   1.738
 6085TIP3    H118196   1.867   2.543   1.820
 6085TIP3    H218197   1.912   2.536   1.676
 6086TIP3   OH218198   8.266   4.319   6.068
 6086TIP3    H118199   8.318   4.243   6.093
 6086TIP3    H218200   8.183   4.307   6.114
 6087TIP3   OH218201   3.568   3.482   2.029
 6087TIP3    H118202   3.518   3.445   1.956
 6087TIP3    H218203   3.501   3.510   2.092
 6088TIP3   OH218204   4.342   6.894   4.081
 6088TIP3    H118205   4.262   6.940   4.105
 6088TIP3    H218206   4.356   6.832   4.153
 6089TIP3   OH218207   1.729   3.667   0.908
 6089TIP3    H118208   1.806   3.721   0.887
 6089TIP3    H218209   1.657   3.710   0.862
 6090TIP3   OH218210   7.903   2.172   0.622
 6090TIP3    H118211   7.874   2.227   0.549
 6090TIP3    H218212   7.914   2.085   0.583
 6091TIP3   OH218213   4.591   0.827   4.722
 6091TIP3    H118214   4.551   0.758   4.669
 6091TIP3    H218215   4.658   0.865   4.666
 6092TIP3   OH218216   6.602   3.593   6.815
 6092TIP3    H118217   6.567   3.514   6.773
 6092TIP3    H218218   6.647   3.559   6.893
 6093TIP3   OH218219   4.090   1.911   0.321
 6093TIP3    H118220   4.111   1.904   0.414
 6093TIP3    H218221   4.148   1.979   0.288
 6094TIP3   OH218222   2.094   0.424   3.721
 6094TIP3    H118223   2.076   0.339   3.682
 6094TIP3    H218224   2.019   0.479   3.694
 6095TIP3   OH218225   1.020   1.521   1.026
 6095TIP3    H118226   0.955   1.591   1.022
 6095TIP3    H218227   1.033   1.505   1.119
 6096TIP3   OH218228   7.226   3.215   2.292
 6096TIP3    H118229   7.270   3.260   2.364
 6096TIP3    H218230   7.295   3.199   2.228
 6097TIP3   OH218231   2.064   0.856   4.856
 6097TIP3    H118232   2.147   0.854   4.903
 6097TIP3    H218233   2.076   0.922   4.788
 6098TIP3   OH218234   1.182   7.200   4.110
 6098TIP3    H118235   1.113   7.257   4.145
 6098TIP3    H218236   1.250   7.200   4.177
 6099TIP3   OH218237   7.892   0.050   5.287
 6099TIP3    H118238   7.841  -0.031   5.293
 6099TIP3    H218239   7.874   0.084   5.199
 6100TIP3   OH218240   5.480   1.052   2.419
 6100TIP3    H118241   5.404   1.108   2.437
 6100TIP3    H218242   5.524   1.096   2.346
 6101TIP3   OH218243   4.765   4.460   4.374
 6101TIP3    H118244   4.701   4.416   4.319
 6101TIP3    H218245   4.769   4.407   4.453
 6102TIP3   OH218246   6.381   5.113   3.533
 6102TIP3    H118247   6.447   5.135   3.467
 6102TIP3    H218248   6.431   5.073   3.605
 6103TIP3   OH218249   4.396   1.574   2.328
 6103TIP3    H118250   4.327   1.628   2.367
 6103TIP3    H218251   4.356   1.537   2.249
 6104TIP3   OH218252   0.999   6.116   2.491
 6104TIP3    H118253   0.995   6.031   2.535
 6104TIP3    H218254   0.919   6.119   2.438
 6105TIP3   OH218255   4.705   5.075   5.155
 6105TIP3    H118256   4.737   5.158   5.121
 6105TIP3    H218257   4.784   5.024   5.172
 6106TIP3   OH218258   1.986   7.637   6.864
 6106TIP3    H118259   1.938   7.686   6.798
 6106TIP3    H218260   1.974   7.545   6.839
 6107TIP3   OH218261  -0.010   0.439   1.579
 6107TIP3    H118262  -0.004   0.384   1.501
 6107TIP3    H218263   0.081   0.455   1.604
 6108TIP3   OH218264   4.517   1.740   6.099
 6108TIP3    H118265   4.566   1.747   6.017
 6108TIP3    H218266   4.574   1.779   6.165
 6109TIP3   OH218267   4.586   5.930   0.108
 6109TIP3    H118268   4.681   5.940   0.102
 6109TIP3    H218269   4.574   5.862   0.174
 6110TIP3   OH218270   3.867   4.555   6.645
 6110TIP3    H118271   3.896   4.619   6.581
 6110TIP3    H218272   3.912   4.579   6.726
 6111TIP3   OH218273   1.105   5.226   3.532
 6111TIP3    H118274   1.128   5.317   3.511
 6111TIP3    H218275   1.010   5.225   3.536
 6112TIP3   OH218276   4.407   2.864   3.820
 6112TIP3    H118277   4.423   2.887   3.912
 6112TIP3    H218278   4.317   2.892   3.804
 6113TIP3   OH218279   4.359   1.520   6.107
 6113TIP3    H118280   4.368   1.497   6.200
 6113TIP3    H218281   4.430   1.582   6.090
 6114TIP3   OH218282   5.989   6.727   0.921
 6114TIP3    H118283   6.062   6.682   0.962
 6114TIP3    H218284   6.029   6.786   0.857
 6115TIP3   OH218285   2.542   4.091   6.227
 6115TIP3    H118286   2.531   4.096   6.322
 6115TIP3    H218287   2.598   4.165   6.205
 6116TIP3   OH218288   5.430   2.258   3.879
 6116TIP3    H118289   5.367   2.187   3.866
 6116TIP3    H218290   5.377   2.335   3.896
 6117TIP3   OH218291   3.062   2.009   0.918
 6117TIP3    H118292   3.056   2.105   0.916
 6117TIP3    H218293   3.038   1.981   0.830
 6118TIP3   OH218294   0.943   3.640   1.718
 6118TIP3    H118295   0.920   3.586   1.642
 6118TIP3    H218296   0.918   3.586   1.793
 6119TIP3   OH218297   2.474   2.804   6.613
 6119TIP3    H118298   2.502   2.834   6.527
 6119TIP3    H218299   2.502   2.712   6.617
 6120TIP3   OH218300   3.773   6.801   1.856
 6120TIP3    H118301   3.762   6.857   1.932
 6120TIP3    H218302   3.848   6.837   1.810
 6121TIP3   OH218303   7.841   0.837   0.232
 6121TIP3    H118304   7.805   0.767   0.286
 6121TIP3    H218305   7.933   0.842   0.258
 6122TIP3   OH218306   8.280   2.402   4.129
 6122TIP3    H118307   8.293   2.356   4.212
 6122TIP3    H218308   8.365   2.398   4.085
 6123TIP3   OH218309   7.962   5.118   3.705
 6123TIP3    H118310   7.898   5.048   3.717
 6123TIP3    H218311   7.915   5.198   3.727
 6124TIP3   OH218312   6.022   6.689   1.457
 6124TIP3    H118313   5.931   6.714   1.441
 6124TIP3    H218314   6.035   6.705   1.550
 6125TIP3   OH218315   5.748   4.995   5.881
 6125TIP3    H118316   5.794   4.977   5.800
 6125TIP3    H218317   5.797   5.067   5.921
 6126TIP3   OH218318   2.320   4.443   1.780
 6126TIP3    H118319   2.260   4.498   1.730
 6126TIP3    H218320   2.407   4.464   1.745
 6127TIP3   OH218321   1.070   1.519   1.308
 6127TIP3    H118322   1.038   1.519   1.398
 6127TIP3    H218323   1.154   1.564   1.312
 6128TIP3   OH218324   7.756   4.755   2.105
 6128TIP3    H118325   7.712   4.824   2.055
 6128TIP3    H218326   7.689   4.722   2.164
 6129TIP3   OH218327   1.111   7.037   1.747
 6129TIP3    H118328   1.069   7.020   1.662
 6129TIP3    H218329   1.153   6.954   1.770
 6130TIP3   OH218330   1.679   5.073   0.269
 6130TIP3    H118331   1.627   5.147   0.303
 6130TIP3    H218332   1.740   5.113   0.207
 6131TIP3   OH218333   7.735   4.968   3.745
 6131TIP3    H118334   7.720   4.943   3.837
 6131TIP3    H218335   7.720   4.887   3.696
 6132TIP3   OH218336   5.598   2.352   6.319
 6132TIP3    H118337   5.625   2.311   6.237
 6132TIP3    H218338   5.615   2.445   6.306
 6133TIP3   OH218339   2.132   5.920   1.950
 6133TIP3    H118340   2.144   6.015   1.959
 6133TIP3    H218341   2.113   5.908   1.857
 6134TIP3   OH218342   0.911   6.053   5.956
 6134TIP3    H118343   0.913   6.013   5.869
 6134TIP3    H218344   0.874   6.140   5.942
 6135TIP3   OH218345   8.271   0.200   2.757
 6135TIP3    H118346   8.300   0.211   2.847
 6135TIP3    H218347   8.181   0.169   2.763
 6136TIP3   OH218348   4.864   4.448   6.815
 6136TIP3    H118349   4.897   4.424   6.729
 6136TIP3    H218350   4.828   4.536   6.803
 6137TIP3   OH218351   4.230   6.439   0.986
 6137TIP3    H118352   4.193   6.355   1.013
 6137TIP3    H218353   4.187   6.459   0.903
 6138TIP3   OH218354   3.729   4.629   2.055
 6138TIP3    H118355   3.818   4.614   2.086
 6138TIP3    H218356   3.701   4.545   2.020
 6139TIP3   OH218357   3.671   6.987   5.493
 6139TIP3    H118358   3.576   6.980   5.500
 6139TIP3    H218359   3.693   7.065   5.544
 6140TIP3   OH218360   5.897   3.635   6.563
 6140TIP3    H118361   5.820   3.690   6.548
 6140TIP3    H218362   5.961   3.694   6.602
 6141TIP3   OH218363   1.705   7.935   3.160
 6141TIP3    H118364   1.773   7.925   3.093
 6141TIP3    H218365   1.721   7.864   3.222
 6142TIP3   OH218366   1.758   1.511   2.199
 6142TIP3    H118367   1.779   1.593   2.155
 6142TIP3    H218368   1.673   1.485   2.161
 6143TIP3   OH218369   5.728   6.260   0.344
 6143TIP3    H118370   5.656   6.212   0.386
 6143TIP3    H218371   5.685   6.318   0.281
 6144TIP3   OH218372   0.485   5.415   1.487
 6144TIP3    H118373   0.555   5.364   1.529
 6144TIP3    H218374   0.409   5.404   1.545
 6145TIP3   OH218375   6.271   6.906   1.763
 6145TIP3    H118376   6.328   6.915   1.687
 6145TIP3    H218377   6.324   6.858   1.827
 6146TIP3   OH218378   6.636   2.720   1.966
 6146TIP3    H118379   6.659   2.811   1.986
 6146TIP3    H218380   6.583   2.692   2.040
 6147TIP3   OH218381   1.260   2.514   6.347
 6147TIP3    H118382   1.197   2.545   6.412
 6147TIP3    H218383   1.311   2.448   6.392
 6148TIP3   OH218384   7.775   0.660   6.753
 6148TIP3    H118385   7.693   0.617   6.729
 6148TIP3    H218386   7.828   0.591   6.794
 6149TIP3   OH218387   7.661   4.664   1.425
 6149TIP3    H118388   7.601   4.689   1.495
 6149TIP3    H218389   7.743   4.642   1.470
 6150TIP3   OH218390   5.599   6.160   5.009
 6150TIP3    H118391   5.655   6.119   4.943
 6150TIP3    H218392   5.589   6.093   5.077
 6151TIP3   OH218393   4.416   1.252   3.251
 6151TIP3    H118394   4.509   1.230   3.246
 6151TIP3    H218395   4.376   1.205   3.179
 6152TIP3   OH218396   3.909   2.843   4.574
 6152TIP3    H118397   3.939   2.824   4.485
 6152TIP3    H218398   3.930   2.764   4.624
 6153TIP3   OH218399   4.061   7.781   3.572
 6153TIP3    H118400   4.038   7.808   3.661
 6153TIP3    H218401   4.005   7.833   3.516
 6154TIP3   OH218402   0.587   0.884   5.195
 6154TIP3    H118403   0.554   0.795   5.210
 6154TIP3    H218404   0.635   0.905   5.276
 6155TIP3   OH218405   0.449   5.464   6.075
 6155TIP3    H118406   0.473   5.525   6.145
 6155TIP3    H218407   0.353   5.466   6.073
 6156TIP3   OH218408   2.268   2.768   0.426
 6156TIP3    H118409   2.228   2.735   0.346
 6156TIP3    H218410   2.305   2.853   0.401
 6157TIP3   OH218411   0.003   3.349   4.641
 6157TIP3    H118412  -0.070   3.365   4.580
 6157TIP3    H218413   0.081   3.352   4.585
 6158TIP3   OH218414   3.468   1.894   3.214
 6158TIP3    H118415   3.393   1.913   3.157
 6158TIP3    H218416   3.489   1.978   3.254
 6159TIP3   OH218417   4.566   5.706   2.143
 6159TIP3    H118418   4.490   5.656   2.115
 6159TIP3    H218419   4.587   5.761   2.067
 6160TIP3   OH218420   1.201   5.447   6.777
 6160TIP3    H118421   1.110   5.471   6.796
 6160TIP3    H218422   1.241   5.529   6.748
 6161TIP3   OH218423   4.268   1.056   5.499
 6161TIP3    H118424   4.229   1.104   5.425
 6161TIP3    H218425   4.317   1.123   5.547
 6162TIP3   OH218426   5.067   6.653   2.850
 6162TIP3    H118427   5.112   6.733   2.824
 6162TIP3    H218428   5.076   6.650   2.945
 6163TIP3   OH218429   4.813   6.807   0.876
 6163TIP3    H118430   4.837   6.830   0.787
 6163TIP3    H218431   4.897   6.792   0.920
 6164TIP3   OH218432   0.687   4.153   1.373
 6164TIP3    H118433   0.649   4.102   1.445
 6164TIP3    H218434   0.741   4.219   1.417
 6165TIP3   OH218435   3.808   1.366   1.351
 6165TIP3    H118436   3.724   1.335   1.386
 6165TIP3    H218437   3.785   1.442   1.297
 6166TIP3   OH218438   6.795   0.976   3.403
 6166TIP3    H118439   6.756   0.900   3.444
 6166TIP3    H218440   6.802   1.041   3.473
 6167TIP3   OH218441   7.684   4.386   4.182
 6167TIP3    H118442   7.589   4.396   4.182
 6167TIP3    H218443   7.714   4.441   4.254
 6168TIP3   OH218444   7.925   5.336   6.590
 6168TIP3    H118445   7.948   5.268   6.654
 6168TIP3    H218446   7.843   5.306   6.552
 6169TIP3   OH218447   4.160   3.852   4.758
 6169TIP3    H118448   4.154   3.835   4.852
 6169TIP3    H218449   4.083   3.906   4.738
 6170TIP3   OH218450   7.925   2.631   2.219
 6170TIP3    H118451   7.836   2.668   2.223
 6170TIP3    H218452   7.927   2.583   2.136
 6171TIP3   OH218453   5.331   2.795   3.299
 6171TIP3    H118454   5.398   2.861   3.315
 6171TIP3    H218455   5.368   2.714   3.332
 6172TIP3   OH218456   0.342   3.756   1.554
 6172TIP3    H118457   0.431   3.769   1.520
 6172TIP3    H218458   0.355   3.727   1.644
 6173TIP3   OH218459   5.909   0.309   3.970
 6173TIP3    H118460   5.966   0.370   4.016
 6173TIP3    H218461   5.968   0.262   3.910
 6174TIP3   OH218462   4.932   6.089   1.782
 6174TIP3    H118463   4.912   6.021   1.847
 6174TIP3    H218464   4.959   6.165   1.833
 6175TIP3   OH218465   3.848   0.628   0.894
 6175TIP3    H118466   3.830   0.564   0.962
 6175TIP3    H218467   3.936   0.607   0.863
 6176TIP3   OH218468   2.425   5.720   1.831
 6176TIP3    H118469   2.332   5.706   1.850
 6176TIP3    H218470   2.463   5.632   1.829
 6177TIP3   OH218471   5.842   1.261   5.670
 6177TIP3    H118472   5.867   1.188   5.726
 6177TIP3    H218473   5.911   1.326   5.682
 6178TIP3   OH218474   2.801   2.006   4.158
 6178TIP3    H118475   2.804   2.023   4.252
 6178TIP3    H218476   2.763   2.086   4.121
 6179TIP3   OH218477   3.202   3.293   5.600
 6179TIP3    H118478   3.110   3.297   5.575
 6179TIP3    H218479   3.218   3.374   5.649
 6180TIP3   OH218480   7.667   5.924   1.525
 6180TIP3    H118481   7.593   5.969   1.485
 6180TIP3    H218482   7.668   5.953   1.616
 6181TIP3   OH218483   1.231   4.014   5.225
 6181TIP3    H118484   1.161   4.078   5.239
 6181TIP3    H218485   1.213   3.946   5.290
 6182TIP3   OH218486   5.939   7.220   3.237
 6182TIP3    H118487   5.921   7.294   3.179
 6182TIP3    H218488   5.887   7.148   3.201
 6183TIP3   OH218489   6.877   6.437   0.241
 6183TIP3    H118490   6.880   6.474   0.329
 6183TIP3    H218491   6.920   6.352   0.250
 6184TIP3   OH218492   0.916   4.790   2.241
 6184TIP3    H118493   0.857   4.737   2.187
 6184TIP3    H218494   0.879   4.878   2.238
 6185TIP3   OH218495   6.649   2.008   5.999
 6185TIP3    H118496   6.694   1.928   6.027
 6185TIP3    H218497   6.718   2.062   5.961
 6186TIP3   OH218498   4.161   3.230   3.438
 6186TIP3    H118499   4.155   3.307   3.382
 6186TIP3    H218500   4.195   3.161   3.380
 6187TIP3   OH218501   7.669   6.788   6.757
 6187TIP3    H118502   7.600   6.722   6.769
 6187TIP3    H218503   7.725   6.778   6.834
 6188TIP3   OH218504   6.855   0.354   0.900
 6188TIP3    H118505   6.789   0.421   0.883
 6188TIP3    H218506   6.867   0.355   0.995
 6189TIP3   OH218507   0.960   5.552   5.382
 6189TIP3    H118508   0.924   5.476   5.428
 6189TIP3    H218509   1.043   5.521   5.345
 6190TIP3   OH218510   7.069   2.609   5.735
 6190TIP3    H118511   7.002   2.641   5.675
 6190TIP3    H218512   7.053   2.656   5.817
 6191TIP3   OH218513   7.844   1.007   6.589
 6191TIP3    H118514   7.805   0.980   6.506
 6191TIP3    H218515   7.906   1.075   6.565
 6192TIP3   OH218516   8.031   6.662   0.970
 6192TIP3    H118517   8.119   6.681   0.938
 6192TIP3    H218518   7.978   6.736   0.939
 6193TIP3   OH218519   0.525   1.855   0.341
 6193TIP3    H118520   0.467   1.784   0.368
 6193TIP3    H218521   0.532   1.845   0.246
 6194TIP3   OH218522   8.102   0.502   5.061
 6194TIP3    H118523   8.062   0.589   5.066
 6194TIP3    H218524   8.110   0.484   4.967
 6195TIP3   OH218525   3.274   2.661   4.166
 6195TIP3    H118526   3.265   2.635   4.258
 6195TIP3    H218527   3.338   2.732   4.168
 6196TIP3   OH218528   1.903   1.087   4.606
 6196TIP3    H118529   1.914   1.175   4.641
 6196TIP3    H218530   1.941   1.090   4.519
 6197TIP3   OH218531   2.197   5.387   6.085
 6197TIP3    H118532   2.178   5.479   6.107
 6197TIP3    H218533   2.259   5.359   6.153
 6198TIP3   OH218534   2.517   4.503   4.525
 6198TIP3    H118535   2.541   4.596   4.529
 6198TIP3    H218536   2.430   4.501   4.486
 6199TIP3   OH218537   6.883   6.620   6.814
 6199TIP3    H118538   6.837   6.693   6.773
 6199TIP3    H218539   6.814   6.563   6.847
 6200TIP3   OH218540   1.375   3.927   5.746
 6200TIP3    H118541   1.357   3.961   5.833
 6200TIP3    H218542   1.295   3.944   5.696
 6201TIP3   OH218543   0.299   3.451   6.362
 6201TIP3    H118544   0.346   3.372   6.389
 6201TIP3    H218545   0.369   3.514   6.342
 6202TIP3   OH218546   7.455   7.061   5.016
 6202TIP3    H118547   7.429   7.062   5.108
 6202TIP3    H218548   7.514   7.136   5.008
 6203TIP3   OH218549   2.509   6.155   6.822
 6203TIP3    H118550   2.571   6.158   6.895
 6203TIP3    H218551   2.424   6.173   6.861
 6204TIP3   OH218552   5.435   3.733   2.999
 6204TIP3    H118553   5.351   3.690   2.989
 6204TIP3    H218554   5.419   3.824   2.975
 6205TIP3   OH218555   0.391   2.276   3.124
 6205TIP3    H118556   0.396   2.203   3.061
 6205TIP3    H218557   0.336   2.341   3.080
 6206TIP3   OH218558   4.934   6.331   3.101
 6206TIP3    H118559   4.974   6.271   3.039
 6206TIP3    H218560   5.005   6.357   3.160
 6207TIP3   OH218561   7.428   6.726   3.193
 6207TIP3    H118562   7.470   6.640   3.189
 6207TIP3    H218563   7.394   6.740   3.104
 6208TIP3   OH218564   1.973   1.797   4.376
 6208TIP3    H118565   1.969   1.837   4.289
 6208TIP3    H218566   2.046   1.735   4.371
 6209TIP3   OH218567   8.079   4.688   1.760
 6209TIP3    H118568   8.164   4.701   1.801
 6209TIP3    H218569   8.016   4.701   1.831
 6210TIP3   OH218570   3.305   2.345   5.765
 6210TIP3    H118571   3.395   2.325   5.741
 6210TIP3    H218572   3.253   2.282   5.716
 6211TIP3   OH218573   7.855   5.453   3.053
 6211TIP3    H118574   7.875   5.406   2.972
 6211TIP3    H218575   7.911   5.412   3.119
 6212TIP3   OH218576   6.431   2.201   2.210
 6212TIP3    H118577   6.445   2.295   2.210
 6212TIP3    H218578   6.429   2.177   2.117
 6213TIP3   OH218579   1.276   0.472   4.775
 6213TIP3    H118580   1.245   0.382   4.779
 6213TIP3    H218581   1.216   0.516   4.716
 6214TIP3   OH218582   6.269   4.170   0.509
 6214TIP3    H118583   6.200   4.104   0.523
 6214TIP3    H218584   6.301   4.152   0.421
 6215TIP3   OH218585   3.513   1.398   3.138
 6215TIP3    H118586   3.442   1.403   3.202
 6215TIP3    H218587   3.585   1.357   3.186
 6216TIP3   OH218588   2.944   4.780   0.021
 6216TIP3    H118589   2.901   4.696   0.040
 6216TIP3    H218590   2.893   4.844   0.070
 6217TIP3   OH218591   0.764   1.930   1.081
 6217TIP3    H118592   0.676   1.944   1.115
 6217TIP3    H218593   0.821   1.978   1.141
 6218TIP3   OH218594   3.890   5.351   1.373
 6218TIP3    H118595   3.888   5.278   1.435
 6218TIP3    H218596   3.834   5.418   1.413
 6219TIP3   OH218597   3.786   4.704   5.092
 6219TIP3    H118598   3.870   4.746   5.076
 6219TIP3    H218599   3.801   4.611   5.075
 6220TIP3   OH218600   1.810   5.222   2.164
 6220TIP3    H118601   1.725   5.191   2.197
 6220TIP3    H218602   1.790   5.261   2.079
 6221TIP3   OH218603   1.961   1.929   4.124
 6221TIP3    H118604   2.022   1.900   4.057
 6221TIP3    H218605   1.999   2.011   4.156
 6222TIP3   OH218606   1.244   2.019   6.179
 6222TIP3    H118607   1.274   2.107   6.203
 6222TIP3    H218608   1.257   2.014   6.085
 6223TIP3   OH218609   4.423   0.562   5.841
 6223TIP3    H118610   4.517   0.582   5.848
 6223TIP3    H218611   4.381   0.626   5.898
 6224TIP3   OH218612   2.805   5.332   3.331
 6224TIP3    H118613   2.763   5.258   3.287
 6224TIP3    H218614   2.781   5.323   3.423
 6225TIP3   OH218615   3.905   0.733   1.625
 6225TIP3    H118616   3.837   0.715   1.559
 6225TIP3    H218617   3.987   0.729   1.576
 6226TIP3   OH218618   5.575   6.223   2.636
 6226TIP3    H118619   5.617   6.137   2.631
 6226TIP3    H218620   5.483   6.206   2.615
 6227TIP3   OH218621   6.789   6.512   2.613
 6227TIP3    H118622   6.749   6.492   2.529
 6227TIP3    H218623   6.838   6.593   2.598
 6228TIP3   OH218624   0.117   3.068   2.698
 6228TIP3    H118625   0.074   3.022   2.626
 6228TIP3    H218626   0.052   3.130   2.729
 6229TIP3   OH218627   5.377   4.283   4.319
 6229TIP3    H118628   5.372   4.365   4.369
 6229TIP3    H218629   5.287   4.251   4.317
 6230TIP3   OH218630   7.152   1.581   2.777
 6230TIP3    H118631   7.151   1.676   2.771
 6230TIP3    H218632   7.178   1.562   2.867
 6231TIP3   OH218633   0.042   3.217   6.800
 6231TIP3    H118634  -0.045   3.178   6.788
 6231TIP3    H218635   0.041   3.296   6.746
 6232TIP3   OH218636   5.153   7.805   3.409
 6232TIP3    H118637   5.087   7.872   3.427
 6232TIP3    H218638   5.109   7.742   3.351
 6233TIP3   OH218639   0.360   4.320   6.532
 6233TIP3    H118640   0.338   4.262   6.460
 6233TIP3    H218641   0.278   4.336   6.578
 6234TIP3   OH218642   1.261   1.727   1.306
 6234TIP3    H118643   1.281   1.750   1.215
 6234TIP3    H218644   1.347   1.710   1.346
 6235TIP3   OH218645   4.286   7.917   3.404
 6235TIP3    H118646   4.280   8.007   3.371
 6235TIP3    H218647   4.217   7.911   3.470
 6236TIP3   OH218648   7.026   4.739   3.103
 6236TIP3    H118649   7.103   4.792   3.126
 6236TIP3    H218650   7.063   4.654   3.080
 6237TIP3   OH218651   2.936   1.362   0.472
 6237TIP3    H118652   2.994   1.358   0.547
 6237TIP3    H218653   2.852   1.328   0.505
 6238TIP3   OH218654   3.084   5.672   2.125
 6238TIP3    H118655   3.056   5.612   2.195
 6238TIP3    H218656   3.124   5.615   2.059
 6239TIP3   OH218657   6.409   2.314   6.461
 6239TIP3    H118658   6.435   2.406   6.469
 6239TIP3    H218659   6.314   2.317   6.451
 6240TIP3   OH218660   8.244   1.716   1.337
 6240TIP3    H118661   8.322   1.758   1.371
 6240TIP3    H218662   8.270   1.626   1.319
 6241TIP3   OH218663   5.802   4.192   6.628
 6241TIP3    H118664   5.819   4.158   6.539
 6241TIP3    H218665   5.849   4.275   6.631
 6242TIP3   OH218666   0.915   0.729   0.615
 6242TIP3    H118667   0.898   0.647   0.663
 6242TIP3    H218668   0.858   0.794   0.657
 6243TIP3   OH218669   2.210   0.500   1.494
 6243TIP3    H118670   2.157   0.574   1.524
 6243TIP3    H218671   2.148   0.427   1.490
 6244TIP3   OH218672   5.859   4.876   4.375
 6244TIP3    H118673   5.938   4.930   4.377
 6244TIP3    H218674   5.891   4.786   4.374
 6245TIP3   OH218675   2.435   5.077   3.440
 6245TIP3    H118676   2.411   5.055   3.349
 6245TIP3    H218677   2.397   5.164   3.454
 6246TIP3   OH218678   4.121   3.589   1.998
 6246TIP3    H118679   4.034   3.585   2.038
 6246TIP3    H218680   4.182   3.589   2.071
 6247TIP3   OH218681   0.479   4.573   5.409
 6247TIP3    H118682   0.402   4.626   5.394
 6247TIP3    H218683   0.516   4.558   5.322
 6248TIP3   OH218684   4.423   7.369   1.423
 6248TIP3    H118685   4.479   7.438   1.458
 6248TIP3    H218686   4.363   7.348   1.494
 6249TIP3   OH218687   3.154   5.018   6.640
 6249TIP3    H118688   3.194   5.001   6.555
 6249TIP3    H218689   3.061   4.995   6.629
 6250TIP3   OH218690   7.471   3.673   0.652
 6250TIP3    H118691   7.477   3.686   0.558
 6250TIP3    H218692   7.382   3.642   0.667
 6251TIP3   OH218693   6.821   5.151   5.687
 6251TIP3    H118694   6.762   5.155   5.612
 6251TIP3    H218695   6.782   5.085   5.745
 6252TIP3   OH218696   0.477   7.405   2.611
 6252TIP3    H118697   0.461   7.458   2.689
 6252TIP3    H218698   0.434   7.321   2.630
 6253TIP3   OH218699   3.188   3.034   0.921
 6253TIP3    H118700   3.136   3.070   0.849
 6253TIP3    H218701   3.212   2.946   0.891
 6254TIP3   OH218702   0.545   4.812   3.198
 6254TIP3    H118703   0.621   4.769   3.159
 6254TIP3    H218704   0.500   4.853   3.125
 6255TIP3   OH218705   1.948   5.355   0.414
 6255TIP3    H118706   1.992   5.373   0.331
 6255TIP3    H218707   1.867   5.406   0.410
 6256TIP3   OH218708   2.827   7.287   3.153
 6256TIP3    H118709   2.832   7.243   3.069
 6256TIP3    H218710   2.847   7.379   3.133
 6257TIP3   OH218711   2.423   4.559   1.529
 6257TIP3    H118712   2.423   4.638   1.475
 6257TIP3    H218713   2.511   4.553   1.565
 6258TIP3   OH218714   6.127   7.258   2.649
 6258TIP3    H118715   6.037   7.225   2.653
 6258TIP3    H218716   6.122   7.347   2.684
 6259TIP3   OH218717   7.330   2.473   3.480
 6259TIP3    H118718   7.254   2.425   3.448
 6259TIP3    H218719   7.323   2.559   3.440
 6260TIP3   OH218720   4.760   1.653   1.597
 6260TIP3    H118721   4.669   1.651   1.568
 6260TIP3    H218722   4.783   1.561   1.610
 6261TIP3   OH218723   4.527   5.897   4.251
 6261TIP3    H118724   4.581   5.977   4.250
 6261TIP3    H218725   4.440   5.926   4.227
 6262TIP3   OH218726   4.090   5.652   6.343
 6262TIP3    H118727   4.139   5.700   6.410
 6262TIP3    H218728   4.138   5.569   6.333
 6263TIP3   OH218729   3.249   3.021   5.300
 6263TIP3    H118730   3.222   2.942   5.254
 6263TIP3    H218731   3.211   3.092   5.248
 6264TIP3   OH218732   5.056   6.416   4.750
 6264TIP3    H118733   5.029   6.334   4.792
 6264TIP3    H218734   4.977   6.449   4.709
 6265TIP3   OH218735   5.923   2.729   5.453
 6265TIP3    H118736   5.932   2.635   5.466
 6265TIP3    H218737   5.987   2.768   5.512
 6266TIP3   OH218738   3.432   0.823   4.436
 6266TIP3    H118739   3.513   0.789   4.472
 6266TIP3    H218740   3.365   0.801   4.501
 6267TIP3   OH218741   2.881   6.176   5.833
 6267TIP3    H118742   2.853   6.085   5.825
 6267TIP3    H218743   2.957   6.172   5.891
 6268TIP3   OH218744   5.910   5.170   5.566
 6268TIP3    H118745   5.941   5.171   5.656
 6268TIP3    H218746   5.891   5.261   5.546
 6269TIP3   OH218747   6.907   7.398   6.332
 6269TIP3    H118748   6.936   7.321   6.381
 6269TIP3    H218749   6.884   7.462   6.399
 6270TIP3   OH218750   8.156   7.662   1.938
 6270TIP3    H118751   8.067   7.680   1.906
 6270TIP3    H218752   8.159   7.704   2.024
 6271TIP3   OH218753   5.916   5.619   2.885
 6271TIP3    H118754   5.869   5.536   2.879
 6271TIP3    H218755   5.960   5.628   2.801
 6272TIP3   OH218756   5.520   1.999   0.489
 6272TIP3    H118757   5.589   1.941   0.457
 6272TIP3    H218758   5.445   1.980   0.433
 6273TIP3   OH218759   5.957   6.526   4.145
 6273TIP3    H118760   5.966   6.432   4.127
 6273TIP3    H218761   5.990   6.569   4.066
 6274TIP3   OH218762   0.784   2.109   5.791
 6274TIP3    H118763   0.773   2.015   5.797
 6274TIP3    H218764   0.804   2.126   5.699
 6275TIP3   OH218765   4.636   6.946   0.664
 6275TIP3    H118766   4.631   6.851   0.675
 6275TIP3    H218767   4.550   6.978   0.691
 6276TIP3   OH218768   4.658   7.659   5.612
 6276TIP3    H118769   4.565   7.639   5.605
 6276TIP3    H218770   4.681   7.695   5.526
 6277TIP3   OH218771   5.703   4.868   6.099
 6277TIP3    H118772   5.648   4.792   6.080
 6277TIP3    H218773   5.724   4.904   6.012
 6278TIP3   OH218774   8.067   6.845   1.728
 6278TIP3    H118775   8.159   6.849   1.701
 6278TIP3    H218776   8.047   6.933   1.760
 6279TIP3   OH218777   7.204   2.472   5.115
 6279TIP3    H118778   7.253   2.440   5.191
 6279TIP3    H218779   7.261   2.537   5.075
 6280TIP3   OH218780   2.028   3.650   4.464
 6280TIP3    H118781   2.123   3.650   4.449
 6280TIP3    H218782   2.004   3.557   4.469
 6281TIP3   OH218783   8.238   5.506   2.550
 6281TIP3    H118784   8.309   5.555   2.510
 6281TIP3    H218785   8.158   5.545   2.514
 6282TIP3   OH218786   7.014   0.847   6.416
 6282TIP3    H118787   6.953   0.862   6.344
 6282TIP3    H218788   6.975   0.894   6.490
 6283TIP3   OH218789   4.065   6.773   6.775
 6283TIP3    H118790   4.116   6.693   6.786
 6283TIP3    H218791   4.089   6.805   6.688
 6284TIP3   OH218792   7.361   6.205   1.186
 6284TIP3    H118793   7.337   6.188   1.278
 6284TIP3    H218794   7.286   6.253   1.151
 6285TIP3   OH218795   0.138   7.231   5.559
 6285TIP3    H118796   0.077   7.197   5.624
 6285TIP3    H218797   0.223   7.194   5.584
 6286TIP3   OH218798   7.614   2.374   2.198
 6286TIP3    H118799   7.687   2.372   2.260
 6286TIP3    H218800   7.582   2.464   2.202
 6287TIP3   OH218801   5.267   6.652   1.924
 6287TIP3    H118802   5.220   6.666   2.006
 6287TIP3    H218803   5.219   6.581   1.880
 6288TIP3   OH218804   5.070   3.940   5.951
 6288TIP3    H118805   5.093   3.886   5.876
 6288TIP3    H218806   5.097   4.029   5.926
 6289TIP3   OH218807   3.217   4.196   4.059
 6289TIP3    H118808   3.171   4.204   4.143
 6289TIP3    H218809   3.233   4.286   4.032
 6290TIP3   OH218810   3.468   5.388   0.668
 6290TIP3    H118811   3.464   5.390   0.764
 6290TIP3    H218812   3.466   5.480   0.642
 6291TIP3   OH218813   1.071   6.030   0.621
 6291TIP3    H118814   1.067   5.992   0.534
 6291TIP3    H218815   0.987   6.073   0.633
 6292TIP3   OH218816   4.484   5.308   3.217
 6292TIP3    H118817   4.556   5.362   3.248
 6292TIP3    H218818   4.481   5.323   3.123
 6293TIP3   OH218819   5.951   3.748   4.063
 6293TIP3    H118820   5.911   3.667   4.095
 6293TIP3    H218821   5.956   3.736   3.968
 6294TIP3   OH218822   4.587   6.470   2.515
 6294TIP3    H118823   4.681   6.469   2.493
 6294TIP3    H218824   4.585   6.494   2.608
 6295TIP3   OH218825   1.802   7.416   6.270
 6295TIP3    H118826   1.820   7.489   6.210
 6295TIP3    H218827   1.765   7.457   6.348
 6296TIP3   OH218828   7.187   4.556   1.665
 6296TIP3    H118829   7.122   4.485   1.665
 6296TIP3    H218830   7.145   4.626   1.615
 6297TIP3   OH218831   6.744   3.983   0.960
 6297TIP3    H118832   6.679   4.047   0.932
 6297TIP3    H218833   6.749   3.920   0.888
 6298TIP3   OH218834   6.348   3.883   5.624
 6298TIP3    H118835   6.358   3.948   5.554
 6298TIP3    H218836   6.266   3.838   5.604
 6299TIP3   OH218837   0.247   1.870   3.643
 6299TIP3    H118838   0.225   1.960   3.620
 6299TIP3    H218839   0.162   1.826   3.652
 6300TIP3   OH218840   2.450   7.170   6.598
 6300TIP3    H118841   2.361   7.139   6.581
 6300TIP3    H218842   2.440   7.234   6.669
 6301TIP3   OH218843   2.337   4.804   3.297
 6301TIP3    H118844   2.306   4.853   3.222
 6301TIP3    H218845   2.392   4.735   3.260
 6302TIP3   OH218846   0.384   4.571   3.934
 6302TIP3    H118847   0.350   4.635   3.872
 6302TIP3    H218848   0.477   4.565   3.914
 6303TIP3   OH218849   5.898   4.992   1.776
 6303TIP3    H118850   5.956   4.958   1.845
 6303TIP3    H218851   5.876   4.916   1.724
 6304TIP3   OH218852   6.443   1.484   3.756
 6304TIP3    H118853   6.472   1.413   3.698
 6304TIP3    H218854   6.503   1.480   3.831
 6305TIP3   OH218855   0.166   1.736   6.783
 6305TIP3    H118856   0.200   1.822   6.806
 6305TIP3    H218857   0.238   1.693   6.736
 6306TIP3   OH218858   3.511   5.549   2.945
 6306TIP3    H118859   3.507   5.586   3.033
 6306TIP3    H218860   3.455   5.471   2.949
 6307TIP3   OH218861   7.538   7.298   4.213
 6307TIP3    H118862   7.498   7.366   4.159
 6307TIP3    H218863   7.600   7.346   4.269
 6308TIP3   OH218864   4.895   1.070   6.680
 6308TIP3    H118865   4.973   1.019   6.699
 6308TIP3    H218866   4.921   1.129   6.609
 6309TIP3   OH218867   0.872   4.506   3.086
 6309TIP3    H118868   0.840   4.595   3.073
 6309TIP3    H218869   0.806   4.451   3.043
 6310TIP3   OH218870   1.254   2.396   3.871
 6310TIP3    H118871   1.169   2.419   3.835
 6310TIP3    H218872   1.245   2.306   3.902
 6311TIP3   OH218873   8.261   3.916   0.595
 6311TIP3    H118874   8.174   3.944   0.624
 6311TIP3    H218875   8.275   3.832   0.638
 6312TIP3   OH218876   3.191   6.196   3.772
 6312TIP3    H118877   3.214   6.210   3.680
 6312TIP3    H218878   3.180   6.101   3.780
 6313TIP3   OH218879   0.987   7.751   2.680
 6313TIP3    H118880   0.989   7.814   2.608
 6313TIP3    H218881   0.894   7.729   2.690
 6314TIP3   OH218882   2.519   1.851   3.313
 6314TIP3    H118883   2.510   1.755   3.319
 6314TIP3    H218884   2.429   1.882   3.299
 6315TIP3   OH218885   2.134   5.920   0.179
 6315TIP3    H118886   2.137   5.955   0.090
 6315TIP3    H218887   2.223   5.933   0.212
 6316TIP3   OH218888   1.099   5.761   2.386
 6316TIP3    H118889   1.037   5.801   2.324
 6316TIP3    H218890   1.044   5.707   2.443
 6317TIP3   OH218891   5.471   2.774   0.793
 6317TIP3    H118892   5.523   2.823   0.857
 6317TIP3    H218893   5.472   2.684   0.825
 6318TIP3   OH218894   7.807   1.178   4.275
 6318TIP3    H118895   7.749   1.194   4.200
 6318TIP3    H218896   7.774   1.236   4.344
 6319TIP3   OH218897   2.258   3.514   6.627
 6319TIP3    H118898   2.165   3.503   6.610
 6319TIP3    H218899   2.283   3.437   6.679
 6320TIP3   OH218900   1.665   5.397   4.417
 6320TIP3    H118901   1.579   5.439   4.407
 6320TIP3    H218902   1.663   5.358   4.504
 6321TIP3   OH218903   5.997   4.332   5.956
 6321TIP3    H118904   5.952   4.267   6.010
 6321TIP3    H218905   6.063   4.281   5.909
 6322TIP3   OH218906   7.319   5.946   2.981
 6322TIP3    H118907   7.269   5.980   3.055
 6322TIP3    H218908   7.355   5.863   3.012
 6323TIP3   OH218909   5.215   6.257   3.895
 6323TIP3    H118910   5.182   6.346   3.906
 6323TIP3    H218911   5.187   6.210   3.974
 6324TIP3   OH218912   2.993   0.153   2.259
 6324TIP3    H118913   2.921   0.097   2.231
 6324TIP3    H218914   3.071   0.114   2.221
 6325TIP3   OH218915   6.324   1.241   4.801
 6325TIP3    H118916   6.281   1.200   4.876
 6325TIP3    H218917   6.257   1.244   4.733
 6326TIP3   OH218918   1.648   0.326   2.038
 6326TIP3    H118919   1.634   0.261   2.107
 6326TIP3    H218920   1.616   0.408   2.076
 6327TIP3   OH218921   5.854   1.692   3.452
 6327TIP3    H118922   5.914   1.663   3.384
 6327TIP3    H218923   5.910   1.706   3.529
 6328TIP3   OH218924   5.201   1.224   1.599
 6328TIP3    H118925   5.242   1.151   1.645
 6328TIP3    H218926   5.107   1.205   1.605
 6329TIP3   OH218927   0.215   7.571   2.934
 6329TIP3    H118928   0.137   7.622   2.914
 6329TIP3    H218929   0.200   7.486   2.892
 6330TIP3   OH218930   1.352   3.582   2.458
 6330TIP3    H118931   1.275   3.525   2.455
 6330TIP3    H218932   1.356   3.621   2.370
 6331TIP3   OH218933   5.741   2.297   1.245
 6331TIP3    H118934   5.764   2.251   1.165
 6331TIP3    H218935   5.647   2.283   1.256
 6332TIP3   OH218936   0.811   0.357   2.666
 6332TIP3    H118937   0.872   0.284   2.668
 6332TIP3    H218938   0.733   0.324   2.710
 6333TIP3   OH218939   7.081   0.731   0.154
 6333TIP3    H118940   7.147   0.672   0.118
 6333TIP3    H218941   7.083   0.715   0.249
 6334TIP3   OH218942   7.998   1.274   3.436
 6334TIP3    H118943   8.025   1.214   3.505
 6334TIP3    H218944   8.027   1.232   3.355
 6335TIP3   OH218945   6.448   1.900   3.683
 6335TIP3    H118946   6.358   1.926   3.665
 6335TIP3    H218947   6.496   1.982   3.688
 6336TIP3   OH218948   7.980   0.730   3.865
 6336TIP3    H118949   7.926   0.803   3.837
 6336TIP3    H218950   8.037   0.712   3.789
 6337TIP3   OH218951   1.172   0.461   6.044
 6337TIP3    H118952   1.248   0.475   5.986
 6337TIP3    H218953   1.107   0.525   6.013
 6338TIP3   OH218954   6.419   6.214   4.379
 6338TIP3    H118955   6.502   6.179   4.348
 6338TIP3    H218956   6.411   6.299   4.335
 6339TIP3   OH218957   6.969   2.003   5.570
 6339TIP3    H118958   6.896   2.058   5.599
 6339TIP3    H218959   6.974   1.933   5.634
 6340TIP3   OH218960   1.550   0.969   0.831
 6340TIP3    H118961   1.553   0.883   0.873
 6340TIP3    H218962   1.639   1.003   0.839
 6341TIP3   OH218963   1.438   6.028   5.142
 6341TIP3    H118964   1.424   5.980   5.224
 6341TIP3    H218965   1.367   6.092   5.140
 6342TIP3   OH218966   8.168   6.342   2.138
 6342TIP3    H118967   8.181   6.269   2.198
 6342TIP3    H218968   8.155   6.301   2.052
 6343TIP3   OH218969   7.514   2.829   6.252
 6343TIP3    H118970   7.531   2.923   6.241
 6343TIP3    H218971   7.534   2.791   6.167
 6344TIP3   OH218972   6.231   7.853   1.103
 6344TIP3    H118973   6.211   7.936   1.059
 6344TIP3    H218974   6.174   7.789   1.059
 6345TIP3   OH218975   1.752   2.848   2.880
 6345TIP3    H118976   1.694   2.774   2.863
 6345TIP3    H218977   1.826   2.835   2.819
 6346TIP3   OH218978   6.023   7.710   2.880
 6346TIP3    H118979   6.000   7.795   2.918
 6346TIP3    H218980   6.016   7.724   2.786
 6347TIP3   OH218981   7.516   5.155   2.333
 6347TIP3    H118982   7.579   5.132   2.401
 6347TIP3    H218983   7.436   5.108   2.356
 6348TIP3   OH218984   4.722   1.235   2.287
 6348TIP3    H118985   4.660   1.286   2.339
 6348TIP3    H218986   4.667   1.184   2.228
 6349TIP3   OH218987   6.797   1.345   4.838
 6349TIP3    H118988   6.720   1.382   4.794
 6349TIP3    H218989   6.871   1.379   4.787
 6350TIP3   OH218990   4.304   0.392   1.062
 6350TIP3    H118991   4.341   0.407   1.148
 6350TIP3    H218992   4.368   0.336   1.017
 6351TIP3   OH218993   3.129   5.140   5.210
 6351TIP3    H118994   3.144   5.147   5.304
 6351TIP3    H218995   3.196   5.196   5.171
 6352TIP3   OH218996   8.304   3.488   5.997
 6352TIP3    H118997   8.397   3.475   5.982
 6352TIP3    H218998   8.274   3.406   6.036
 6353TIP3   OH218999   7.575   6.374   0.535
 6353TIP3    H119000   7.568   6.338   0.623
 6353TIP3    H219001   7.644   6.324   0.493
 6354TIP3   OH219002   6.431   5.089  -0.008
 6354TIP3    H119003   6.388   5.059   0.072
 6354TIP3    H219004   6.518   5.118   0.020
 6355TIP3   OH219005   0.730   7.405   1.337
 6355TIP3    H119006   0.734   7.472   1.270
 6355TIP3    H219007   0.655   7.350   1.312
 6356TIP3   OH219008   1.000   7.079   2.646
 6356TIP3    H119009   0.922   7.086   2.590
 6356TIP3    H219010   1.041   7.165   2.641
 6357TIP3   OH219011   5.998   4.240   6.354
 6357TIP3    H119012   6.054   4.203   6.422
 6357TIP3    H219013   6.053   4.305   6.310
 6358TIP3   OH219014   4.936   3.262   0.498
 6358TIP3    H119015   4.898   3.174   0.499
 6358TIP3    H219016   5.010   3.256   0.438
 6359TIP3   OH219017   6.154   2.396   5.950
 6359TIP3    H119018   6.227   2.376   6.009
 6359TIP3    H219019   6.169   2.340   5.874
 6360TIP3   OH219020   3.439   7.704   0.462
 6360TIP3    H119021   3.525   7.664   0.446
 6360TIP3    H219022   3.454   7.765   0.535
 6361TIP3   OH219023   6.225   7.020   0.062
 6361TIP3    H119024   6.240   6.953  -0.005
 6361TIP3    H219025   6.139   6.998   0.098
 6362TIP3   OH219026   3.343   3.808   1.934
 6362TIP3    H119027   3.271   3.866   1.912
 6362TIP3    H219028   3.306   3.720   1.928
 6363TIP3   OH219029   0.430   5.838   6.592
 6363TIP3    H119030   0.401   5.900   6.658
 6363TIP3    H219031   0.354   5.826   6.534
 6364TIP3   OH219032   5.255   7.367   5.657
 6364TIP3    H119033   5.219   7.355   5.744
 6364TIP3    H219034   5.190   7.328   5.598
 6365TIP3   OH219035   4.872   7.606   3.582
 6365TIP3    H119036   4.826   7.674   3.533
 6365TIP3    H219037   4.813   7.531   3.582
 6366TIP3   OH219038   7.023   2.431   5.486
 6366TIP3    H119039   7.104   2.425   5.434
 6366TIP3    H219040   6.989   2.518   5.467
 6367TIP3   OH219041   2.264   5.311   1.059
 6367TIP3    H119042   2.213   5.283   1.135
 6367TIP3    H219043   2.293   5.400   1.081
 6368TIP3   OH219044   3.684   0.209   4.886
 6368TIP3    H119045   3.604   0.230   4.838
 6368TIP3    H219046   3.753   0.209   4.819
 6369TIP3   OH219047   1.002   7.314   3.702
 6369TIP3    H119048   0.994   7.220   3.684
 6369TIP3    H219049   1.080   7.321   3.757
 6370TIP3   OH219050   3.082   7.916   3.291
 6370TIP3    H119051   3.044   7.833   3.320
 6370TIP3    H219052   3.039   7.982   3.346
 6371TIP3   OH219053   6.315   4.917   0.440
 6371TIP3    H119054   6.391   4.877   0.398
 6371TIP3    H219055   6.340   5.008   0.455
 6372TIP3   OH219056   3.339   3.086   5.821
 6372TIP3    H119057   3.288   3.149   5.872
 6372TIP3    H219058   3.285   3.066   5.745
 6373TIP3   OH219059   4.985   7.166   0.217
 6373TIP3    H119060   5.012   7.128   0.301
 6373TIP3    H219061   5.066   7.195   0.177
 6374TIP3   OH219062   2.585   7.388   4.381
 6374TIP3    H119063   2.575   7.318   4.317
 6374TIP3    H219064   2.591   7.343   4.465
 6375TIP3   OH219065   0.289   2.776   4.775
 6375TIP3    H119066   0.205   2.740   4.805
 6375TIP3    H219067   0.351   2.750   4.843
 6376TIP3   OH219068   2.576   2.749   2.755
 6376TIP3    H119069   2.536   2.809   2.692
 6376TIP3    H219070   2.608   2.676   2.702
 6377TIP3   OH219071   0.723   1.290   3.802
 6377TIP3    H119072   0.671   1.329   3.731
 6377TIP3    H219073   0.752   1.206   3.767
 6378TIP3   OH219074   6.934   5.047   0.992
 6378TIP3    H119075   6.941   4.954   0.970
 6378TIP3    H219076   6.857   5.078   0.944
 6379TIP3   OH219077   7.344   0.274   0.104
 6379TIP3    H119078   7.255   0.302   0.086
 6379TIP3    H219079   7.353   0.191   0.057
 6380TIP3   OH219080   1.022   1.309   3.891
 6380TIP3    H119081   1.062   1.243   3.947
 6380TIP3    H219082   0.928   1.306   3.913
 6381TIP3   OH219083   5.470   1.933   0.097
 6381TIP3    H119084   5.543   1.882   0.062
 6381TIP3    H219085   5.405   1.933   0.026
 6382TIP3   OH219086   6.255   0.124   5.927
 6382TIP3    H119087   6.331   0.180   5.912
 6382TIP3    H219088   6.193   0.148   5.858
 6383TIP3   OH219089   2.137   2.053   5.980
 6383TIP3    H119090   2.100   2.104   6.051
 6383TIP3    H219091   2.088   1.970   5.981
 6384TIP3   OH219092   0.706   5.382   2.212
 6384TIP3    H119093   0.800   5.365   2.226
 6384TIP3    H219094   0.675   5.414   2.297
 6385TIP3   OH219095   3.991   1.332   3.723
 6385TIP3    H119096   3.903   1.351   3.691
 6385TIP3    H219097   4.039   1.414   3.713
 6386TIP3   OH219098   0.301   2.129   3.619
 6386TIP3    H119099   0.344   2.205   3.661
 6386TIP3    H219100   0.372   2.085   3.572
 6387TIP3   OH219101   0.340   4.820   6.542
 6387TIP3    H119102   0.301   4.776   6.617
 6387TIP3    H219103   0.398   4.754   6.503
 6388TIP3   OH219104   1.459   7.393   4.666
 6388TIP3    H119105   1.395   7.424   4.731
 6388TIP3    H219106   1.410   7.387   4.584
 6389TIP3   OH219107   5.822   7.882   0.810
 6389TIP3    H119108   5.733   7.917   0.817
 6389TIP3    H219109   5.877   7.958   0.793
 6390TIP3   OH219110   0.717   7.887   0.132
 6390TIP3    H119111   0.741   7.916   0.043
 6390TIP3    H219112   0.769   7.808   0.145
 6391TIP3   OH219113   7.040   3.801   1.704
 6391TIP3    H119114   6.966   3.863   1.707
 6391TIP3    H219115   7.043   3.771   1.614
 6392TIP3   OH219116   4.673   2.019   1.431
 6392TIP3    H119117   4.609   1.958   1.468
 6392TIP3    H219118   4.622   2.072   1.370
 6393TIP3   OH219119   5.501   0.472   3.940
 6393TIP3    H119120   5.493   0.399   4.002
 6393TIP3    H219121   5.568   0.442   3.878
 6394TIP3   OH219122   6.949   5.041   4.023
 6394TIP3    H119123   7.034   5.043   3.977
 6394TIP3    H219124   6.972   5.030   4.115
 6395TIP3   OH219125   0.911   3.116   5.081
 6395TIP3    H119126   0.823   3.113   5.045
 6395TIP3    H219127   0.917   3.203   5.122
 6396TIP3   OH219128   7.242   2.815   4.358
 6396TIP3    H119129   7.275   2.798   4.270
 6396TIP3    H219130   7.236   2.729   4.399
 6397TIP3   OH219131   4.032   0.311   0.314
 6397TIP3    H119132   3.985   0.393   0.323
 6397TIP3    H219133   3.979   0.259   0.254
 6398TIP3   OH219134   4.919   4.580   4.940
 6398TIP3    H119135   4.974   4.625   5.004
 6398TIP3    H219136   4.977   4.564   4.866
 6399TIP3   OH219137   1.501   1.307   4.436
 6399TIP3    H119138   1.558   1.249   4.386
 6399TIP3    H219139   1.417   1.261   4.439
 6400TIP3   OH219140   7.861   1.685   5.524
 6400TIP3    H119141   7.905   1.612   5.480
 6400TIP3    H219142   7.931   1.746   5.546
 6401TIP3   OH219143   2.803   5.837   6.347
 6401TIP3    H119144   2.721   5.791   6.328
 6401TIP3    H219145   2.863   5.768   6.377
 6402TIP3   OH219146   2.552   6.030   0.652
 6402TIP3    H119147   2.485   6.015   0.585
 6402TIP3    H219148   2.558   5.947   0.699
 6403TIP3   OH219149   4.599   4.338   6.331
 6403TIP3    H119150   4.611   4.349   6.237
 6403TIP3    H219151   4.619   4.425   6.367
 6404TIP3   OH219152   7.951   4.736   3.666
 6404TIP3    H119153   8.026   4.694   3.626
 6404TIP3    H219154   7.955   4.710   3.758
 6405TIP3   OH219155   1.936   2.670   5.998
 6405TIP3    H119156   1.860   2.711   5.957
 6405TIP3    H219157   1.984   2.742   6.038
 6406TIP3   OH219158   7.144   0.575   4.779
 6406TIP3    H119159   7.159   0.480   4.777
 6406TIP3    H219160   7.080   0.587   4.850
 6407TIP3   OH219161   4.511   6.234   5.972
 6407TIP3    H119162   4.426   6.211   6.008
 6407TIP3    H219163   4.567   6.159   5.993
 6408TIP3   OH219164   6.561   7.849   1.334
 6408TIP3    H119165   6.469   7.824   1.344
 6408TIP3    H219166   6.597   7.847   1.423
 6409TIP3   OH219167   1.023   4.985   3.861
 6409TIP3    H119168   1.092   4.998   3.926
 6409TIP3    H219169   1.068   4.952   3.783
 6410TIP3   OH219170   3.247   7.660   6.714
 6410TIP3    H119171   3.301   7.719   6.766
 6410TIP3    H219172   3.159   7.699   6.717
 6411TIP3   OH219173   8.236   4.208   2.640
 6411TIP3    H119174   8.296   4.148   2.596
 6411TIP3    H219175   8.150   4.166   2.633
 6412TIP3   OH219176   2.773   7.549   4.248
 6412TIP3    H119177   2.696   7.506   4.285
 6412TIP3    H219178   2.742   7.638   4.227
 6413TIP3   OH219179   1.337   2.965   2.754
 6413TIP3    H119180   1.402   2.964   2.684
 6413TIP3    H219181   1.345   3.053   2.793
 6414TIP3   OH219182   1.416   4.137   1.009
 6414TIP3    H119183   1.398   4.056   0.962
 6414TIP3    H219184   1.363   4.203   0.964
 6415TIP3   OH219185   2.291   0.736   5.867
 6415TIP3    H119186   2.345   0.809   5.839
 6415TIP3    H219187   2.206   0.751   5.826
 6416TIP3   OH219188   3.532   0.540   2.846
 6416TIP3    H119189   3.617   0.497   2.849
 6416TIP3    H219190   3.529   0.593   2.926
 6417TIP3   OH219191   4.876   2.537   2.543
 6417TIP3    H119192   4.875   2.632   2.538
 6417TIP3    H219193   4.787   2.513   2.571
 6418TIP3   OH219194   4.155   5.068   2.935
 6418TIP3    H119195   4.226   5.128   2.912
 6418TIP3    H219196   4.144   5.079   3.030
 6419TIP3   OH219197   4.440   2.939   5.792
 6419TIP3    H119198   4.489   3.015   5.759
 6419TIP3    H219199   4.416   2.963   5.881
 6420TIP3   OH219200   6.581   4.782   0.391
 6420TIP3    H119201   6.571   4.853   0.328
 6420TIP3    H219202   6.654   4.730   0.357
 6421TIP3   OH219203   3.804   3.607   1.968
 6421TIP3    H119204   3.720   3.567   1.992
 6421TIP3    H219205   3.803   3.692   2.013
 6422TIP3   OH219206   7.199   3.972   2.298
 6422TIP3    H119207   7.257   3.985   2.373
 6422TIP3    H219208   7.234   4.028   2.229
 6423TIP3   OH219209   5.603   1.423   6.629
 6423TIP3    H119210   5.570   1.467   6.707
 6423TIP3    H219211   5.635   1.493   6.573
 6424TIP3   OH219212   6.359   7.504   5.543
 6424TIP3    H119213   6.409   7.467   5.615
 6424TIP3    H219214   6.309   7.430   5.507
 6425TIP3   OH219215   6.561   4.657   3.339
 6425TIP3    H119216   6.635   4.689   3.391
 6425TIP3    H219217   6.489   4.717   3.360
 6426TIP3   OH219218   0.089   3.642   6.403
 6426TIP3    H119219   0.023   3.575   6.387
 6426TIP3    H219220   0.172   3.600   6.381
 6427TIP3   OH219221   5.806   4.913   6.351
 6427TIP3    H119222   5.721   4.918   6.395
 6427TIP3    H219223   5.784   4.906   6.258
 6428TIP3   OH219224   0.022   6.890   5.264
 6428TIP3    H119225   0.029   6.894   5.359
 6428TIP3    H219226  -0.032   6.812   5.247
 6429TIP3   OH219227   0.334   5.407   1.705
 6429TIP3    H119228   0.280   5.485   1.721
 6429TIP3    H219229   0.303   5.344   1.770
 6430TIP3   OH219230   7.523   2.942   1.154
 6430TIP3    H119231   7.428   2.946   1.141
 6430TIP3    H219232   7.552   2.871   1.098
 6431TIP3   OH219233   2.999   3.725   1.655
 6431TIP3    H119234   3.029   3.742   1.566
 6431TIP3    H219235   3.065   3.665   1.691
 6432TIP3   OH219236   5.536   7.878   0.805
 6432TIP3    H119237   5.530   7.783   0.811
 6432TIP3    H219238   5.448   7.906   0.779
 6433TIP3   OH219239   4.663   6.232   2.685
 6433TIP3    H119240   4.577   6.198   2.660
 6433TIP3    H219241   4.645   6.319   2.720
 6434TIP3   OH219242   7.158   1.054   0.003
 6434TIP3    H119243   7.066   1.078   0.003
 6434TIP3    H219244   7.191   1.083   0.088
 6435TIP3   OH219245   1.399   0.532   3.788
 6435TIP3    H119246   1.334   0.463   3.774
 6435TIP3    H219247   1.483   0.487   3.785
 6436TIP3   OH219248   7.754   0.514   5.765
 6436TIP3    H119249   7.831   0.566   5.742
 6436TIP3    H219250   7.762   0.501   5.860
 6437TIP3   OH219251   1.218   1.785   1.026
 6437TIP3    H119252   1.205   1.742   0.941
 6437TIP3    H219253   1.183   1.873   1.014
 6438TIP3   OH219254   7.574   4.177   0.352
 6438TIP3    H119255   7.522   4.199   0.274
 6438TIP3    H219256   7.537   4.095   0.383
 6439TIP3   OH219257   6.514   3.480   2.507
 6439TIP3    H119258   6.523   3.418   2.579
 6439TIP3    H219259   6.441   3.446   2.455
 6440TIP3   OH219260   0.425   6.717   4.811
 6440TIP3    H119261   0.403   6.809   4.797
 6440TIP3    H219262   0.345   6.669   4.787
 6441TIP3   OH219263   6.195   3.635   3.980
 6441TIP3    H119264   6.137   3.711   3.986
 6441TIP3    H219265   6.178   3.599   3.893
 6442TIP3   OH219266   5.635   2.381   2.664
 6442TIP3    H119267   5.633   2.314   2.732
 6442TIP3    H219268   5.642   2.331   2.582
 6443TIP3   OH219269   1.569   2.292   6.729
 6443TIP3    H119270   1.616   2.363   6.772
 6443TIP3    H219271   1.493   2.276   6.785
 6444TIP3   OH219272   1.944   5.513   4.468
 6444TIP3    H119273   1.897   5.438   4.432
 6444TIP3    H219274   1.892   5.589   4.440
 6445TIP3   OH219275   8.134   1.655   4.173
 6445TIP3    H119276   8.068   1.606   4.125
 6445TIP3    H219277   8.217   1.625   4.138
 6446TIP3   OH219278   2.755   5.813   2.310
 6446TIP3    H119279   2.830   5.753   2.310
 6446TIP3    H219280   2.745   5.839   2.219
 6447TIP3   OH219281   4.838   4.386   0.981
 6447TIP3    H119282   4.889   4.451   1.030
 6447TIP3    H219283   4.778   4.349   1.045
 6448TIP3   OH219284   2.804   2.488   0.919
 6448TIP3    H119285   2.856   2.522   0.846
 6448TIP3    H219286   2.782   2.398   0.892
 6449TIP3   OH219287   5.403   6.476   6.247
 6449TIP3    H119288   5.487   6.511   6.278
 6449TIP3    H219289   5.345   6.552   6.244
 6450TIP3   OH219290   3.821   3.064   2.427
 6450TIP3    H119291   3.742   3.082   2.375
 6450TIP3    H219292   3.814   3.124   2.502
 6451TIP3   OH219293   8.143   1.339   4.729
 6451TIP3    H119294   8.154   1.379   4.816
 6451TIP3    H219295   8.183   1.401   4.668
 6452TIP3   OH219296   0.236   6.278   2.199
 6452TIP3    H119297   0.182   6.351   2.230
 6452TIP3    H219298   0.183   6.234   2.133
 6453TIP3   OH219299   5.229   2.554   5.810
 6453TIP3    H119300   5.320   2.524   5.807
 6453TIP3    H219301   5.177   2.473   5.803
 6454TIP3   OH219302   0.881   2.638   1.567
 6454TIP3    H119303   0.962   2.682   1.541
 6454TIP3    H219304   0.847   2.690   1.640
 6455TIP3   OH219305   5.152   6.028   3.464
 6455TIP3    H119306   5.235   6.026   3.417
 6455TIP3    H219307   5.174   6.004   3.554
 6456TIP3   OH219308   7.990   1.696   3.287
 6456TIP3    H119309   7.955   1.778   3.252
 6456TIP3    H219310   7.955   1.691   3.376
 6457TIP3   OH219311   3.102   4.808   3.654
 6457TIP3    H119312   3.136   4.761   3.730
 6457TIP3    H219313   3.178   4.850   3.615
 6458TIP3   OH219314   2.041   3.527   1.393
 6458TIP3    H119315   2.059   3.542   1.486
 6458TIP3    H219316   1.966   3.467   1.392
 6459TIP3   OH219317   4.824   4.919   5.554
 6459TIP3    H119318   4.904   4.882   5.517
 6459TIP3    H219319   4.756   4.856   5.532
 6460TIP3   OH219320   3.603   7.452   2.225
 6460TIP3    H119321   3.651   7.513   2.282
 6460TIP3    H219322   3.591   7.500   2.143
 6461TIP3   OH219323   6.444   0.270   0.878
 6461TIP3    H119324   6.446   0.327   0.955
 6461TIP3    H219325   6.354   0.278   0.845
 6462TIP3   OH219326   6.923   0.037   2.826
 6462TIP3    H119327   6.988  -0.019   2.868
 6462TIP3    H219328   6.842   0.020   2.874
 6463TIP3   OH219329   2.014   6.033   5.389
 6463TIP3    H119330   1.976   6.045   5.302
 6463TIP3    H219331   2.088   5.974   5.376
 6464TIP3   OH219332   7.256   3.682   4.799
 6464TIP3    H119333   7.309   3.756   4.768
 6464TIP3    H219334   7.267   3.616   4.731
 6465TIP3   OH219335   3.090   4.556   2.510
 6465TIP3    H119336   3.068   4.594   2.595
 6465TIP3    H219337   3.059   4.466   2.515
 6466TIP3   OH219338   7.315   0.100   5.446
 6466TIP3    H119339   7.359   0.085   5.529
 6466TIP3    H219340   7.282   0.013   5.420
 6467TIP3   OH219341   6.331   1.657   0.909
 6467TIP3    H119342   6.384   1.705   0.973
 6467TIP3    H219343   6.324   1.716   0.834
 6468TIP3   OH219344   4.783   5.050   3.560
 6468TIP3    H119345   4.735   5.005   3.491
 6468TIP3    H219346   4.787   5.141   3.532
 6469TIP3   OH219347   7.934   5.208   2.032
 6469TIP3    H119348   8.001   5.140   2.043
 6469TIP3    H219349   7.852   5.159   2.024
 6470TIP3   OH219350   0.072   2.783   4.268
 6470TIP3    H119351   0.118   2.700   4.254
 6470TIP3    H219352   0.141   2.849   4.265
 6471TIP3   OH219353   1.358   5.640   2.765
 6471TIP3    H119354   1.439   5.596   2.792
 6471TIP3    H219355   1.373   5.732   2.785
 6472TIP3   OH219356   3.299   5.040   6.406
 6472TIP3    H119357   3.343   4.967   6.363
 6472TIP3    H219358   3.364   5.111   6.405
 6473TIP3   OH219359   5.877   3.309   5.335
 6473TIP3    H119360   5.938   3.374   5.302
 6473TIP3    H219361   5.855   3.255   5.258
 6474TIP3   OH219362   6.455   3.814   4.475
 6474TIP3    H119363   6.478   3.777   4.390
 6474TIP3    H219364   6.419   3.741   4.525
 6475TIP3   OH219365   2.013   1.764   1.522
 6475TIP3    H119366   2.066   1.693   1.559
 6475TIP3    H219367   2.044   1.843   1.566
 6476TIP3   OH219368   4.122   3.849   5.626
 6476TIP3    H119369   4.084   3.880   5.544
 6476TIP3    H219370   4.102   3.918   5.689
 6477TIP3   OH219371   3.768   7.272   2.378
 6477TIP3    H119372   3.728   7.201   2.428
 6477TIP3    H219373   3.694   7.313   2.331
 6478TIP3   OH219374   0.037   4.767   3.861
 6478TIP3    H119375   0.065   4.806   3.944
 6478TIP3    H219376  -0.012   4.689   3.886
 6479TIP3   OH219377   1.019   0.379   2.411
 6479TIP3    H119378   1.011   0.307   2.474
 6479TIP3    H219379   1.018   0.458   2.466
 6480TIP3   OH219380   3.168   2.207   0.375
 6480TIP3    H119381   3.101   2.185   0.311
 6480TIP3    H219382   3.125   2.268   0.435
 6481TIP3   OH219383   8.100   2.703   1.228
 6481TIP3    H119384   8.137   2.693   1.140
 6481TIP3    H219385   8.150   2.775   1.266
 6482TIP3   OH219386   4.858   6.631   5.600
 6482TIP3    H119387   4.834   6.544   5.633
 6482TIP3    H219388   4.933   6.657   5.654
 6483TIP3   OH219389   7.746   5.541   2.294
 6483TIP3    H119390   7.682   5.475   2.268
 6483TIP3    H219391   7.831   5.505   2.267
 6484TIP3   OH219392   2.912   7.051   4.074
 6484TIP3    H119393   2.961   7.013   4.002
 6484TIP3    H219394   2.931   7.145   4.070
 6485TIP3   OH219395   4.981   5.925   1.372
 6485TIP3    H119396   4.969   5.946   1.279
 6485TIP3    H219397   4.997   6.010   1.413
 6486TIP3   OH219398   4.912   3.596   6.611
 6486TIP3    H119399   4.983   3.548   6.568
 6486TIP3    H219400   4.863   3.529   6.658
 6487TIP3   OH219401   2.922   6.116   0.378
 6487TIP3    H119402   2.955   6.032   0.346
 6487TIP3    H219403   2.940   6.114   0.472
 6488TIP3   OH219404   3.278   7.267   6.701
 6488TIP3    H119405   3.349   7.261   6.637
 6488TIP3    H219406   3.215   7.201   6.673
 6489TIP3   OH219407   4.126   2.156   1.566
 6489TIP3    H119408   4.068   2.121   1.498
 6489TIP3    H219409   4.068   2.181   1.637
 6490TIP3   OH219410   5.653   0.441   4.370
 6490TIP3    H119411   5.704   0.516   4.339
 6490TIP3    H219412   5.599   0.476   4.441
 6491TIP3   OH219413   3.077   7.466   0.489
 6491TIP3    H119414   3.151   7.425   0.533
 6491TIP3    H219415   3.104   7.556   0.474
 6492TIP3   OH219416   0.770   4.195   0.264
 6492TIP3    H119417   0.742   4.235   0.347
 6492TIP3    H219418   0.809   4.111   0.289
 6493TIP3   OH219419   8.361   4.501   2.568
 6493TIP3    H119420   8.374   4.594   2.587
 6493TIP3    H219421   8.317   4.500   2.483
 6494TIP3   OH219422   3.885   3.869   0.504
 6494TIP3    H119423   3.887   3.944   0.563
 6494TIP3    H219424   3.971   3.870   0.461
 6495TIP3   OH219425   0.270   0.545   0.427
 6495TIP3    H119426   0.323   0.467   0.443
 6495TIP3    H219427   0.196   0.537   0.487
 6496TIP3   OH219428   3.977   5.460   4.386
 6496TIP3    H119429   4.030   5.514   4.328
 6496TIP3    H219430   3.996   5.370   4.359
 6497TIP3   OH219431   5.609   3.713   0.986
 6497TIP3    H119432   5.577   3.646   1.047
 6497TIP3    H219433   5.530   3.763   0.963
 6498TIP3   OH219434   4.659   5.671   5.780
 6498TIP3    H119435   4.721   5.710   5.719
 6498TIP3    H219436   4.614   5.603   5.729
 6499TIP3   OH219437   1.337   7.209   0.749
 6499TIP3    H119438   1.357   7.281   0.688
 6499TIP3    H219439   1.303   7.140   0.693
 6500TIP3   OH219440   0.783   4.306   5.688
 6500TIP3    H119441   0.767   4.381   5.745
 6500TIP3    H219442   0.697   4.286   5.650
 6501TIP3   OH219443   5.763   5.481   1.937
 6501TIP3    H119444   5.850   5.517   1.921
 6501TIP3    H219445   5.778   5.387   1.946
 6502TIP3   OH219446   2.248   7.358   6.171
 6502TIP3    H119447   2.198   7.438   6.155
 6502TIP3    H219448   2.267   7.324   6.083
 6503TIP3   OH219449   7.923   3.527   4.904
 6503TIP3    H119450   7.970   3.516   4.986
 6503TIP3    H219451   7.899   3.620   4.902
 6504TIP3   OH219452   6.016   6.010   2.985
 6504TIP3    H119453   5.929   5.976   3.004
 6504TIP3    H219454   6.071   5.977   3.056
 6505TIP3   OH219455   8.361   6.846   4.278
 6505TIP3    H119456   8.316   6.901   4.342
 6505TIP3    H219457   8.314   6.763   4.279
 6506TIP3   OH219458   2.921   3.658   6.235
 6506TIP3    H119459   2.998   3.638   6.289
 6506TIP3    H219460   2.851   3.607   6.274
 6507TIP3   OH219461   4.777   4.148   4.256
 6507TIP3    H119462   4.734   4.218   4.208
 6507TIP3    H219463   4.705   4.101   4.299
 6508TIP3   OH219464   6.617   0.100   1.268
 6508TIP3    H119465   6.648   0.076   1.180
 6508TIP3    H219466   6.578   0.186   1.256
 6509TIP3   OH219467   8.192   0.367   5.834
 6509TIP3    H119468   8.253   0.300   5.802
 6509TIP3    H219469   8.219   0.448   5.790
 6510TIP3   OH219470   5.970   6.078   3.288
 6510TIP3    H119471   6.052   6.034   3.313
 6510TIP3    H219472   5.922   6.013   3.237
 6511TIP3   OH219473   0.747   0.800   6.438
 6511TIP3    H119474   0.689   0.761   6.373
 6511TIP3    H219475   0.822   0.741   6.442
 6512TIP3   OH219476   0.116   3.528   2.729
 6512TIP3    H119477   0.077   3.508   2.644
 6512TIP3    H219478   0.173   3.454   2.748
 6513TIP3   OH219479   3.669   2.868   5.867
 6513TIP3    H119480   3.736   2.928   5.834
 6513TIP3    H219481   3.675   2.875   5.962
 6514TIP3   OH219482   7.274   0.920   4.028
 6514TIP3    H119483   7.278   1.015   4.035
 6514TIP3    H219484   7.326   0.888   4.101
 6515TIP3   OH219485   8.257   1.576   4.596
 6515TIP3    H119486   8.347   1.606   4.580
 6515TIP3    H219487   8.228   1.540   4.512
 6516TIP3   OH219488   6.876   3.020   1.693
 6516TIP3    H119489   6.918   3.044   1.775
 6516TIP3    H219490   6.828   3.099   1.667
 6517TIP3   OH219491   1.392   7.050   0.097
 6517TIP3    H119492   1.418   7.135   0.060
 6517TIP3    H219493   1.435   6.986   0.041
 6518TIP3   OH219494   5.309   1.688   1.980
 6518TIP3    H119495   5.324   1.716   2.071
 6518TIP3    H219496   5.331   1.766   1.928
 6519TIP3   OH219497   1.913   3.987   3.880
 6519TIP3    H119498   1.996   4.016   3.918
 6519TIP3    H219499   1.908   4.032   3.796
 6520TIP3   OH219500   3.538   5.291   2.385
 6520TIP3    H119501   3.536   5.206   2.429
 6520TIP3    H219502   3.450   5.302   2.349
 6521TIP3   OH219503   5.146   0.136   0.255
 6521TIP3    H119504   5.088   0.064   0.229
 6521TIP3    H219505   5.180   0.169   0.172
 6522TIP3   OH219506   4.492   7.941   5.059
 6522TIP3    H119507   4.418   7.897   5.017
 6522TIP3    H219508   4.529   7.876   5.118
 6523TIP3   OH219509   7.619   5.905   2.609
 6523TIP3    H119510   7.664   5.834   2.563
 6523TIP3    H219511   7.527   5.877   2.612
 6524TIP3   OH219512   8.079   5.823   1.283
 6524TIP3    H119513   8.123   5.878   1.219
 6524TIP3    H219514   8.007   5.782   1.235
 6525TIP3   OH219515   6.197   6.112   0.380
 6525TIP3    H119516   6.111   6.101   0.338
 6525TIP3    H219517   6.176   6.128   0.472
 6526TIP3   OH219518   2.851   3.842   2.557
 6526TIP3    H119519   2.893   3.907   2.613
 6526TIP3    H219520   2.910   3.832   2.482
 6527TIP3   OH219521   5.032   3.901   2.041
 6527TIP3    H119522   5.056   3.974   1.983
 6527TIP3    H219523   5.003   3.943   2.122
 6528TIP3   OH219524   4.328   2.309   6.110
 6528TIP3    H119525   4.348   2.224   6.070
 6528TIP3    H219526   4.362   2.373   6.047
 6529TIP3   OH219527   5.867   5.212   5.968
 6529TIP3    H119528   5.947   5.223   5.917
 6529TIP3    H219529   5.847   5.300   6.000
 6530TIP3   OH219530   8.203   6.620   4.274
 6530TIP3    H119531   8.128   6.649   4.325
 6530TIP3    H219532   8.202   6.525   4.282
 6531TIP3   OH219533   0.784   7.120   2.483
 6531TIP3    H119534   0.817   7.119   2.393
 6531TIP3    H219535   0.763   7.213   2.499
 6532TIP3   OH219536   3.370   7.727   3.920
 6532TIP3    H119537   3.439   7.709   3.856
 6532TIP3    H219538   3.351   7.820   3.908
 6533TIP3   OH219539   3.828   7.711   1.375
 6533TIP3    H119540   3.873   7.795   1.368
 6533TIP3    H219541   3.825   7.678   1.285
 6534TIP3   OH219542   5.355   1.021   6.564
 6534TIP3    H119543   5.430   0.993   6.512
 6534TIP3    H219544   5.368   1.115   6.577
 6535TIP3   OH219545   4.418   0.275   3.214
 6535TIP3    H119546   4.497   0.328   3.205
 6535TIP3    H219547   4.447   0.186   3.196
 6536TIP3   OH219548   0.121   7.796   1.919
 6536TIP3    H119549   0.155   7.723   1.867
 6536TIP3    H219550   0.040   7.821   1.875
 6537TIP3   OH219551   5.882   1.296   0.058
 6537TIP3    H119552   5.833   1.266   0.134
 6537TIP3    H219553   5.914   1.216   0.016
 6538TIP3   OH219554   6.462   0.350   3.685
 6538TIP3    H119555   6.460   0.335   3.590
 6538TIP3    H219556   6.511   0.432   3.696
 6539TIP3   OH219557   3.494   7.362   1.308
 6539TIP3    H119558   3.510   7.453   1.283
 6539TIP3    H219559   3.550   7.311   1.248
 6540TIP3   OH219560   4.769   5.796   5.196
 6540TIP3    H119561   4.703   5.772   5.261
 6540TIP3    H219562   4.778   5.891   5.205
 6541TIP3   OH219563   3.673   0.831   6.520
 6541TIP3    H119564   3.667   0.754   6.464
 6541TIP3    H219565   3.632   0.805   6.602
 6542TIP3   OH219566   6.381   7.176   2.879
 6542TIP3    H119567   6.429   7.249   2.842
 6542TIP3    H219568   6.412   7.099   2.831
 6543TIP3   OH219569   0.760   6.302   1.459
 6543TIP3    H119570   0.801   6.272   1.377
 6543TIP3    H219571   0.800   6.387   1.476
 6544TIP3   OH219572   6.759   3.951   4.511
 6544TIP3    H119573   6.678   3.922   4.553
 6544TIP3    H219574   6.730   4.012   4.443
 6545TIP3   OH219575   3.541   1.620   6.781
 6545TIP3    H119576   3.453   1.655   6.773
 6545TIP3    H219577   3.530   1.525   6.778
 6546TIP3   OH219578   0.370   5.104   5.631
 6546TIP3    H119579   0.383   5.134   5.541
 6546TIP3    H219580   0.453   5.064   5.655
 6547TIP3   OH219581   2.367   0.935   1.376
 6547TIP3    H119582   2.382   0.935   1.470
 6547TIP3    H219583   2.371   0.842   1.351
 6548TIP3   OH219584   0.563   7.546   3.846
 6548TIP3    H119585   0.475   7.512   3.829
 6548TIP3    H219586   0.621   7.492   3.792
 6549TIP3   OH219587   4.296   2.709   2.748
 6549TIP3    H119588   4.226   2.747   2.802
 6549TIP3    H219589   4.370   2.767   2.760
 6550TIP3   OH219590   4.890   4.904   3.299
 6550TIP3    H119591   4.847   4.988   3.281
 6550TIP3    H219592   4.824   4.838   3.278
 6551TIP3   OH219593   3.395   5.834   2.210
 6551TIP3    H119594   3.466   5.808   2.151
 6551TIP3    H219595   3.396   5.768   2.279
 6552TIP3   OH219596   4.702   5.431   2.776
 6552TIP3    H119597   4.667   5.420   2.687
 6552TIP3    H219598   4.763   5.505   2.769
 6553TIP3   OH219599   0.757   7.432   6.371
 6553TIP3    H119600   0.690   7.490   6.335
 6553TIP3    H219601   0.840   7.473   6.346
 6554TIP3   OH219602   7.862   3.006   6.847
 6554TIP3    H119603   7.906   2.986   6.764
 6554TIP3    H219604   7.787   3.060   6.823
 6555TIP3   OH219605   5.453   6.230   5.620
 6555TIP3    H119606   5.460   6.202   5.711
 6555TIP3    H219607   5.428   6.323   5.625
 6556TIP3   OH219608   7.115   7.517   0.624
 6556TIP3    H119609   7.175   7.564   0.681
 6556TIP3    H219610   7.082   7.583   0.564
 6557TIP3   OH219611   5.391   7.629   5.241
 6557TIP3    H119612   5.322   7.603   5.181
 6557TIP3    H219613   5.423   7.712   5.207
 6558TIP3   OH219614   8.041   1.060   4.229
 6558TIP3    H119615   7.961   1.110   4.244
 6558TIP3    H219616   8.089   1.064   4.312
 6559TIP3   OH219617   1.796   1.134   2.086
 6559TIP3    H119618   1.710   1.170   2.062
 6559TIP3    H219619   1.820   1.181   2.166
 6560TIP3   OH219620   5.640   6.955   4.617
 6560TIP3    H119621   5.655   6.898   4.542
 6560TIP3    H219622   5.564   6.917   4.661
 6561TIP3   OH219623   8.229   5.999   1.096
 6561TIP3    H119624   8.315   5.959   1.092
 6561TIP3    H219625   8.246   6.093   1.102
 6562TIP3   OH219626   6.806   7.441   0.706
 6562TIP3    H119627   6.795   7.416   0.798
 6562TIP3    H219628   6.871   7.511   0.707
 6563TIP3   OH219629   0.727   4.106   1.925
 6563TIP3    H119630   0.770   4.072   2.003
 6563TIP3    H219631   0.775   4.186   1.904
 6564TIP3   OH219632   1.506   7.433   4.116
 6564TIP3    H119633   1.558   7.436   4.035
 6564TIP3    H219634   1.463   7.519   4.119
 6565TIP3   OH219635   2.936   0.426   6.798
 6565TIP3    H119636   2.966   0.439   6.708
 6565TIP3    H219637   2.916   0.333   6.804
 6566TIP3   OH219638   1.932   5.685   2.320
 6566TIP3    H119639   1.931   5.721   2.232
 6566TIP3    H219640   1.947   5.591   2.308
 6567TIP3   OH219641   2.700   2.891   3.435
 6567TIP3    H119642   2.618   2.908   3.389
 6567TIP3    H219643   2.768   2.917   3.373
 6568TIP3   OH219644   1.465   5.681   1.436
 6568TIP3    H119645   1.420   5.746   1.383
 6568TIP3    H219646   1.485   5.610   1.375
 6569TIP3   OH219647   1.373   7.438   4.926
 6569TIP3    H119648   1.326   7.484   4.996
 6569TIP3    H219649   1.465   7.441   4.952
 6570TIP3   OH219650   1.256   0.419   4.052
 6570TIP3    H119651   1.276   0.374   3.970
 6570TIP3    H219652   1.328   0.397   4.110
 6571TIP3   OH219653   2.432   3.775   2.701
 6571TIP3    H119654   2.447   3.864   2.669
 6571TIP3    H219655   2.518   3.734   2.700
 6572TIP3   OH219656   5.792   1.656   0.619
 6572TIP3    H119657   5.841   1.574   0.617
 6572TIP3    H219658   5.824   1.701   0.696
 6573TIP3   OH219659   4.377   3.321   1.488
 6573TIP3    H119660   4.436   3.359   1.423
 6573TIP3    H219661   4.303   3.382   1.492
 6574TIP3   OH219662   3.586   4.039   1.673
 6574TIP3    H119663   3.529   4.055   1.597
 6574TIP3    H219664   3.631   3.958   1.651
 6575TIP3   OH219665   4.367   7.866   1.681
 6575TIP3    H119666   4.349   7.910   1.598
 6575TIP3    H219667   4.350   7.933   1.748
 6576TIP3   OH219668   3.333   3.884   2.485
 6576TIP3    H119669   3.389   3.880   2.408
 6576TIP3    H219670   3.280   3.805   2.480
 6577TIP3   OH219671   2.066   0.109   0.973
 6577TIP3    H119672   2.053   0.017   0.951
 6577TIP3    H219673   1.982   0.138   1.009
 6578TIP3   OH219674   4.886   4.568   5.863
 6578TIP3    H119675   4.959   4.608   5.911
 6578TIP3    H219676   4.822   4.639   5.855
 6579TIP3   OH219677   5.783   3.380   6.677
 6579TIP3    H119678   5.793   3.465   6.635
 6579TIP3    H219679   5.871   3.357   6.707
 6580TIP3   OH219680   0.033   6.759   2.632
 6580TIP3    H119681  -0.057   6.755   2.600
 6580TIP3    H219682   0.048   6.851   2.652
 6581TIP3   OH219683   1.627   7.834   2.203
 6581TIP3    H119684   1.647   7.878   2.120
 6581TIP3    H219685   1.547   7.876   2.234
 6582TIP3   OH219686   2.887   5.591   4.257
 6582TIP3    H119687   2.924   5.650   4.322
 6582TIP3    H219688   2.792   5.605   4.263
 6583TIP3   OH219689   5.132   0.619   5.100
 6583TIP3    H119690   5.092   0.651   5.020
 6583TIP3    H219691   5.112   0.525   5.102
 6584TIP3   OH219692   6.433   4.553   1.617
 6584TIP3    H119693   6.440   4.646   1.597
 6584TIP3    H219694   6.521   4.527   1.645
 6585TIP3   OH219695   4.448   5.923   3.825
 6585TIP3    H119696   4.460   6.004   3.775
 6585TIP3    H219697   4.358   5.927   3.856
 6586TIP3   OH219698   8.063   6.227   4.799
 6586TIP3    H119699   7.987   6.284   4.815
 6586TIP3    H219700   8.034   6.140   4.827
 6587TIP3   OH219701   5.537   2.812   4.415
 6587TIP3    H119702   5.554   2.762   4.336
 6587TIP3    H219703   5.448   2.788   4.441
 6588TIP3   OH219704   4.759   1.617   3.497
 6588TIP3    H119705   4.831   1.669   3.460
 6588TIP3    H219706   4.707   1.680   3.547
 6589TIP3   OH219707   3.169   2.950   3.147
 6589TIP3    H119708   3.208   2.882   3.202
 6589TIP3    H219709   3.236   3.017   3.141
 6590TIP3   OH219710   6.995   4.475   2.194
 6590TIP3    H119711   7.051   4.553   2.194
 6590TIP3    H219712   6.935   4.489   2.120
 6591TIP3   OH219713   5.383   5.280   2.069
 6591TIP3    H119714   5.458   5.268   2.127
 6591TIP3    H219715   5.322   5.210   2.093
 6592TIP3   OH219716   6.820   4.543   6.137
 6592TIP3    H119717   6.823   4.617   6.198
 6592TIP3    H219718   6.901   4.551   6.086
 6593TIP3   OH219719   5.511   3.628   1.545
 6593TIP3    H119720   5.453   3.569   1.497
 6593TIP3    H219721   5.558   3.571   1.606
 6594TIP3   OH219722   5.334   7.687   6.549
 6594TIP3    H119723   5.276   7.684   6.625
 6594TIP3    H219724   5.277   7.708   6.475
 6595TIP3   OH219725   6.867   2.467   6.361
 6595TIP3    H119726   6.808   2.393   6.350
 6595TIP3    H219727   6.874   2.506   6.274
 6596TIP3   OH219728   0.979   5.933   2.690
 6596TIP3    H119729   1.052   5.908   2.747
 6596TIP3    H219730   0.906   5.944   2.751
 6597TIP3   OH219731   5.901   2.368   3.982
 6597TIP3    H119732   5.985   2.413   3.986
 6597TIP3    H219733   5.849   2.421   3.922
 6598TIP3   OH219734  -0.004   7.187   6.051
 6598TIP3    H119735   0.083   7.150   6.068
 6598TIP3    H219736  -0.001   7.275   6.088
 6599TIP3   OH219737   4.608   6.102   1.191
 6599TIP3    H119738   4.634   6.072   1.104
 6599TIP3    H219739   4.646   6.189   1.199
 6600TIP3   OH219740   2.187   7.144   4.102
 6600TIP3    H119741   2.176   7.150   4.197
 6600TIP3    H219742   2.209   7.233   4.075
 6601TIP3   OH219743   4.121   4.652   0.533
 6601TIP3    H119744   4.209   4.615   0.534
 6601TIP3    H219745   4.077   4.605   0.462
 6602TIP3   OH219746   0.571   0.880   0.197
 6602TIP3    H119747   0.625   0.868   0.275
 6602TIP3    H219748   0.489   0.833   0.216
 6603TIP3   OH219749   0.101   0.762   4.808
 6603TIP3    H119750   0.087   0.669   4.828
 6603TIP3    H219751   0.173   0.762   4.745
 6604TIP3   OH219752   1.990   5.495   5.355
 6604TIP3    H119753   2.069   5.444   5.372
 6604TIP3    H219754   1.925   5.430   5.327
 6605TIP3   OH219755   5.760   2.616   0.839
 6605TIP3    H119756   5.672   2.589   0.866
 6605TIP3    H219757   5.814   2.539   0.857
 6606TIP3   OH219758   2.120   5.144   6.749
 6606TIP3    H119759   2.147   5.053   6.758
 6606TIP3    H219760   2.027   5.140   6.731
 6607TIP3   OH219761   6.438   7.794   0.261
 6607TIP3    H119762   6.499   7.770   0.331
 6607TIP3    H219763   6.373   7.724   0.260
 6608TIP3   OH219764   0.564   2.042   6.292
 6608TIP3    H119765   0.659   2.030   6.287
 6608TIP3    H219766   0.529   1.983   6.225
 6609TIP3   OH219767   2.156   4.093   3.990
 6609TIP3    H119768   2.251   4.103   4.002
 6609TIP3    H219769   2.120   4.095   4.078
 6610TIP3   OH219770   5.932   2.420   0.309
 6610TIP3    H119771   5.922   2.337   0.356
 6610TIP3    H219772   5.985   2.397   0.232
 6611TIP3   OH219773   3.804   1.155   3.343
 6611TIP3    H119774   3.899   1.141   3.350
 6611TIP3    H219775   3.796   1.245   3.312
 6612TIP3   OH219776   4.066   5.497   2.294
 6612TIP3    H119777   4.075   5.592   2.296
 6612TIP3    H219778   4.021   5.475   2.376
 6613TIP3   OH219779   5.869   2.090   4.265
 6613TIP3    H119780   5.840   2.119   4.352
 6613TIP3    H219781   5.965   2.089   4.272
 6614TIP3   OH219782   4.437   3.192   1.739
 6614TIP3    H119783   4.384   3.252   1.791
 6614TIP3    H219784   4.420   3.217   1.648
 6615TIP3   OH219785   8.293   4.014   6.634
 6615TIP3    H119786   8.212   4.063   6.619
 6615TIP3    H219787   8.289   3.941   6.574
 6616TIP3   OH219788   1.798   1.350   4.415
 6616TIP3    H119789   1.728   1.395   4.462
 6616TIP3    H219790   1.877   1.370   4.465
 6617TIP3   OH219791   5.669   6.740   4.425
 6617TIP3    H119792   5.758   6.776   4.423
 6617TIP3    H219793   5.667   6.675   4.355
 6618TIP3   OH219794   0.784   5.661   5.542
 6618TIP3    H119795   0.696   5.669   5.504
 6618TIP3    H219796   0.842   5.659   5.466
 6619TIP3   OH219797   6.392   4.139   1.157
 6619TIP3    H119798   6.316   4.118   1.212
 6619TIP3    H219799   6.412   4.058   1.111
 6620TIP3   OH219800   0.076   2.010   2.214
 6620TIP3    H119801   0.024   1.940   2.254
 6620TIP3    H219802   0.045   2.090   2.256
 6621TIP3   OH219803   5.452   7.124   6.172
 6621TIP3    H119804   5.491   7.103   6.257
 6621TIP3    H219805   5.385   7.189   6.191
 6622TIP3   OH219806   0.411   0.194   6.598
 6622TIP3    H119807   0.489   0.232   6.639
 6622TIP3    H219808   0.353   0.269   6.584
 6623TIP3   OH219809   7.523   2.110   6.628
 6623TIP3    H119810   7.605   2.128   6.675
 6623TIP3    H219811   7.541   2.030   6.578
 6624TIP3   OH219812   1.655   0.649   5.100
 6624TIP3    H119813   1.748   0.643   5.123
 6624TIP3    H219814   1.646   0.593   5.023
 6625TIP3   OH219815   2.537   2.760   5.237
 6625TIP3    H119816   2.554   2.678   5.191
 6625TIP3    H219817   2.594   2.824   5.194
 6626TIP3   OH219818   1.306   1.019   0.033
 6626TIP3    H119819   1.350   1.095   0.071
 6626TIP3    H219820   1.214   1.031   0.056
 6627TIP3   OH219821   2.458   5.209   4.799
 6627TIP3    H119822   2.456   5.130   4.745
 6627TIP3    H219823   2.541   5.204   4.846
 6628TIP3   OH219824   1.239   1.148   2.639
 6628TIP3    H119825   1.153   1.166   2.678
 6628TIP3    H219826   1.219   1.119   2.550
 6629TIP3   OH219827   5.629   1.678   6.500
 6629TIP3    H119828   5.659   1.723   6.579
 6629TIP3    H219829   5.606   1.748   6.439
 6630TIP3   OH219830   3.406   1.957   6.772
 6630TIP3    H119831   3.501   1.962   6.765
 6630TIP3    H219832   3.381   1.889   6.710
 6631TIP3   OH219833   0.130   6.078   2.366
 6631TIP3    H119834   0.160   6.073   2.457
 6631TIP3    H219835   0.124   6.171   2.348
 6632TIP3   OH219836   7.309   4.080   5.832
 6632TIP3    H119837   7.229   4.071   5.885
 6632TIP3    H219838   7.305   4.006   5.771
 6633TIP3   OH219839   1.959   7.695   0.093
 6633TIP3    H119840   1.877   7.722   0.051
 6633TIP3    H219841   1.931   7.629   0.158
 6634TIP3   OH219842   6.071   1.795   1.062
 6634TIP3    H119843   6.003   1.780   0.996
 6634TIP3    H219844   6.029   1.770   1.145
 6635TIP3   OH219845   0.297   5.162   3.131
 6635TIP3    H119846   0.370   5.211   3.170
 6635TIP3    H219847   0.222   5.182   3.186
 6636TIP3   OH219848   5.152   3.192   0.329
 6636TIP3    H119849   5.095   3.147   0.266
 6636TIP3    H219850   5.223   3.130   0.345
 6637TIP3   OH219851   0.572   3.142   5.204
 6637TIP3    H119852   0.602   3.194   5.129
 6637TIP3    H219853   0.602   3.053   5.185
 6638TIP3   OH219854   0.388   2.020   3.938
 6638TIP3    H119855   0.349   2.075   4.006
 6638TIP3    H219856   0.314   1.988   3.887
 6639TIP3   OH219857   0.476   5.065   6.148
 6639TIP3    H119858   0.395   5.113   6.131
 6639TIP3    H219859   0.487   5.069   6.243
 6640TIP3   OH219860   6.905   0.558   3.949
 6640TIP3    H119861   6.889   0.514   4.032
 6640TIP3    H219862   6.997   0.584   3.953
 6641TIP3   OH219863   2.470   2.495   0.080
 6641TIP3    H119864   2.479   2.588   0.099
 6641TIP3    H219865   2.537   2.478   0.013
 6642TIP3   OH219866   0.229   3.893   5.517
 6642TIP3    H119867   0.289   3.836   5.469
 6642TIP3    H219868   0.206   3.843   5.596
 6643TIP3   OH219869   4.957   3.409   1.142
 6643TIP3    H119870   5.026   3.401   1.076
 6643TIP3    H219871   4.944   3.320   1.174
 6644TIP3   OH219872   7.654   7.147   3.424
 6644TIP3    H119873   7.571   7.102   3.409
 6644TIP3    H219874   7.719   7.097   3.373
 6645TIP3   OH219875   0.559   5.963   3.921
 6645TIP3    H119876   0.503   6.006   3.986
 6645TIP3    H219877   0.584   5.880   3.963
 6646TIP3   OH219878   3.936   2.728   4.328
 6646TIP3    H119879   4.010   2.669   4.311
 6646TIP3    H219880   3.886   2.730   4.247
 6647TIP3   OH219881   3.935   0.131   0.537
 6647TIP3    H119882   4.024   0.107   0.511
 6647TIP3    H219883   3.926   0.222   0.509
 6648TIP3   OH219884   2.689   5.879   1.683
 6648TIP3    H119885   2.750   5.932   1.736
 6648TIP3    H219886   2.734   5.869   1.599
 6649TIP3   OH219887   5.823   6.394   4.929
 6649TIP3    H119888   5.846   6.329   4.995
 6649TIP3    H219889   5.784   6.343   4.858
 6650TIP3   OH219890   8.105   0.878   6.628
 6650TIP3    H119891   8.128   0.867   6.720
 6650TIP3    H219892   8.015   0.911   6.630
 6651TIP3   OH219893   6.162   6.198   2.479
 6651TIP3    H119894   6.140   6.289   2.497
 6651TIP3    H219895   6.231   6.177   2.542
 6652TIP3   OH219896   1.164   4.321   1.798
 6652TIP3    H119897   1.168   4.225   1.792
 6652TIP3    H219898   1.203   4.353   1.717
 6653TIP3   OH219899   4.419   4.873   1.540
 6653TIP3    H119900   4.343   4.926   1.564
 6653TIP3    H219901   4.431   4.888   1.446
 6654TIP3   OH219902   0.656   5.833   3.440
 6654TIP3    H119903   0.698   5.899   3.385
 6654TIP3    H219904   0.729   5.790   3.485
 6655TIP3   OH219905   0.913   4.392   0.173
 6655TIP3    H119906   0.857   4.338   0.228
 6655TIP3    H219907   1.002   4.363   0.191
 6656TIP3   OH219908   4.113   7.801   4.729
 6656TIP3    H119909   4.070   7.715   4.739
 6656TIP3    H219910   4.204   7.780   4.708
 6657TIP3   OH219911   5.186   1.399   1.098
 6657TIP3    H119912   5.205   1.411   1.005
 6657TIP3    H219913   5.166   1.306   1.106
 6658TIP3   OH219914   0.073   1.925   0.181
 6658TIP3    H119915   0.092   1.831   0.177
 6658TIP3    H219916   0.008   1.939   0.112
 6659TIP3   OH219917   6.025   0.269   0.263
 6659TIP3    H119918   5.991   0.356   0.241
 6659TIP3    H219919   6.016   0.219   0.181
 6660TIP3   OH219920   3.040   6.925   3.161
 6660TIP3    H119921   3.031   7.016   3.190
 6660TIP3    H219922   2.965   6.911   3.103
 6661TIP3   OH219923   4.806   6.292   6.374
 6661TIP3    H119924   4.887   6.306   6.325
 6661TIP3    H219925   4.785   6.200   6.360
 6662TIP3   OH219926   5.933   1.470   6.473
 6662TIP3    H119927   5.865   1.493   6.410
 6662TIP3    H219928   6.014   1.498   6.432
 6663TIP3   OH219929  -0.008   3.394   2.515
 6663TIP3    H119930   0.085   3.387   2.497
 6663TIP3    H219931  -0.049   3.403   2.429
 6664TIP3   OH219932   5.072   2.012   3.902
 6664TIP3    H119933   5.108   2.088   3.947
 6664TIP3    H219934   5.080   2.034   3.809
 6665TIP3   OH219935   2.345   2.791   3.621
 6665TIP3    H119936   2.328   2.880   3.593
 6665TIP3    H219937   2.441   2.783   3.618
 6666TIP3   OH219938   5.438   7.344   5.318
 6666TIP3    H119939   5.527   7.341   5.352
 6666TIP3    H219940   5.442   7.408   5.246
 6667TIP3   OH219941   1.670   6.738   3.867
 6667TIP3    H119942   1.636   6.815   3.913
 6667TIP3    H219943   1.622   6.664   3.905
 6668TIP3   OH219944   8.316   5.960   4.446
 6668TIP3    H119945   8.267   5.932   4.369
 6668TIP3    H219946   8.263   6.030   4.484
 6669TIP3   OH219947   1.458   5.082   2.975
 6669TIP3    H119948   1.495   5.122   2.896
 6669TIP3    H219949   1.366   5.068   2.954
 6670TIP3   OH219950   5.302   5.360   1.194
 6670TIP3    H119951   5.213   5.322   1.195
 6670TIP3    H219952   5.297   5.433   1.256
 6671TIP3   OH219953   1.716   5.784   6.163
 6671TIP3    H119954   1.676   5.697   6.163
 6671TIP3    H219955   1.733   5.802   6.070
 6672TIP3   OH219956   0.416   4.986   0.775
 6672TIP3    H119957   0.419   5.049   0.847
 6672TIP3    H219958   0.503   4.990   0.736
 6673TIP3   OH219959   4.997   7.754   6.105
 6673TIP3    H119960   5.016   7.848   6.114
 6673TIP3    H219961   4.906   7.751   6.076
 6674TIP3   OH219962   0.224   2.682   3.170
 6674TIP3    H119963   0.212   2.775   3.152
 6674TIP3    H219964   0.317   2.666   3.155
 6675TIP3   OH219965   7.773   0.444   2.172
 6675TIP3    H119966   7.701   0.471   2.115
 6675TIP3    H219967   7.745   0.360   2.207
 6676TIP3   OH219968   2.560   0.758   4.017
 6676TIP3    H119969   2.612   0.680   4.037
 6676TIP3    H219970   2.505   0.732   3.944
 6677TIP3   OH219971   4.712   6.084   0.949
 6677TIP3    H119972   4.696   6.161   0.896
 6677TIP3    H219973   4.729   6.014   0.885
 6678TIP3   OH219974   1.511   5.406   1.634
 6678TIP3    H119975   1.488   5.409   1.541
 6678TIP3    H219976   1.584   5.344   1.638
 6679TIP3   OH219977   1.352   0.186   4.184
 6679TIP3    H119978   1.366   0.108   4.237
 6679TIP3    H219979   1.264   0.174   4.146
 6680TIP3   OH219980   0.934   2.603   1.963
 6680TIP3    H119981   0.902   2.584   2.051
 6680TIP3    H219982   0.994   2.530   1.944
 6681TIP3   OH219983   3.322   2.483   3.965
 6681TIP3    H119984   3.356   2.550   3.907
 6681TIP3    H219985   3.315   2.526   4.050
 6682TIP3   OH219986   5.052   5.345   0.906
 6682TIP3    H119987   4.978   5.372   0.853
 6682TIP3    H219988   5.107   5.424   0.912
 6683TIP3   OH219989   1.976   0.832   0.042
 6683TIP3    H119990   1.882   0.821   0.032
 6683TIP3    H219991   2.001   0.770   0.110
 6684TIP3   OH219992   7.806   4.932   6.256
 6684TIP3    H119993   7.745   4.931   6.182
 6684TIP3    H219994   7.790   5.016   6.299
 6685TIP3   OH219995   7.401   3.179   4.220
 6685TIP3    H119996   7.325   3.219   4.263
 6685TIP3    H219997   7.467   3.248   4.220
 6686TIP3   OH219998   2.684   1.246   0.559
 6686TIP3    H119999   2.615   1.239   0.626
 6686TIP3    H220000   2.701   1.155   0.533
 6687TIP3   OH220001   0.802   1.654   1.045
 6687TIP3    H120002   0.722   1.631   0.998
 6687TIP3    H220003   0.797   1.749   1.055
 6688TIP3   OH220004   5.563   1.234   0.853
 6688TIP3    H120005   5.560   1.330   0.845
 6688TIP3    H220006   5.515   1.202   0.777
 6689TIP3   OH220007   7.627   7.768   2.588
 6689TIP3    H120008   7.715   7.804   2.599
 6689TIP3    H220009   7.590   7.768   2.677
 6690TIP3   OH220010   3.795   6.900   2.113
 6690TIP3    H120011   3.701   6.920   2.122
 6690TIP3    H220012   3.838   6.986   2.115
 6691TIP3   OH220013   6.059   5.266   5.779
 6691TIP3    H120014   6.155   5.265   5.784
 6691TIP3    H220015   6.038   5.358   5.763
 6692TIP3   OH220016   3.366   6.999   3.778
 6692TIP3    H120017   3.428   6.984   3.849
 6692TIP3    H220018   3.388   6.933   3.712
 6693TIP3   OH220019   5.658   0.356   6.520
 6693TIP3    H120020   5.674   0.412   6.444
 6693TIP3    H220021   5.705   0.398   6.592
 6694TIP3   OH220022   5.521   4.569   6.576
 6694TIP3    H120023   5.457   4.609   6.635
 6694TIP3    H220024   5.594   4.545   6.633
 6695TIP3   OH220025   4.119   3.291   3.953
 6695TIP3    H120026   4.211   3.291   3.925
 6695TIP3    H220027   4.095   3.198   3.952
 6696TIP3   OH220028   3.728   0.296   5.166
 6696TIP3    H120029   3.780   0.375   5.156
 6696TIP3    H220030   3.754   0.240   5.093
 6697TIP3   OH220031   5.141   7.250   2.257
 6697TIP3    H120032   5.072   7.296   2.210
 6697TIP3    H220033   5.095   7.192   2.319
 6698TIP3   OH220034   0.382   7.088   0.222
 6698TIP3    H120035   0.337   7.009   0.191
 6698TIP3    H220036   0.331   7.160   0.186
 6699TIP3   OH220037   0.213   0.923   1.737
 6699TIP3    H120038   0.210   0.992   1.803
 6699TIP3    H220039   0.216   0.842   1.788
 6700TIP3   OH220040   2.563   1.768   4.613
 6700TIP3    H120041   2.601   1.837   4.668
 6700TIP3    H220042   2.555   1.692   4.671
 6701TIP3   OH220043   2.727   5.502   4.549
 6701TIP3    H120044   2.798   5.552   4.511
 6701TIP3    H220045   2.738   5.413   4.514
 6702TIP3   OH220046   3.702   1.580   1.914
 6702TIP3    H120047   3.626   1.626   1.881
 6702TIP3    H220048   3.750   1.551   1.836
 6703TIP3   OH220049   3.934   5.232   6.429
 6703TIP3    H120050   3.954   5.309   6.482
 6703TIP3    H220051   3.975   5.159   6.476
 6704TIP3   OH220052   7.824   7.127   4.688
 6704TIP3    H120053   7.802   7.215   4.719
 6704TIP3    H220054   7.910   7.109   4.726
 6705TIP3   OH220055   7.717   2.744   0.981
 6705TIP3    H120056   7.736   2.712   0.892
 6705TIP3    H220057   7.637   2.699   1.006
 6706TIP3   OH220058   6.077   1.964   5.163
 6706TIP3    H120059   6.173   1.974   5.167
 6706TIP3    H220060   6.056   1.905   5.235
 6707TIP3   OH220061   6.464   1.712   5.883
 6707TIP3    H120062   6.487   1.657   5.808
 6707TIP3    H220063   6.539   1.771   5.894
 6708TIP3   OH220064   2.634   0.584   5.527
 6708TIP3    H120065   2.641   0.575   5.432
 6708TIP3    H220066   2.554   0.538   5.550
 6709TIP3   OH220067   4.286   4.214   3.578
 6709TIP3    H120068   4.328   4.296   3.603
 6709TIP3    H220069   4.330   4.189   3.496
 6710TIP3   OH220070   6.473   3.915   1.051
 6710TIP3    H120071   6.566   3.935   1.040
 6710TIP3    H220072   6.443   3.889   0.964
 6711TIP3   OH220073   4.798   4.000   1.116
 6711TIP3    H120074   4.865   4.008   1.048
 6711TIP3    H220075   4.785   4.089   1.148
 6712TIP3   OH220076   4.587   6.336   3.285
 6712TIP3    H120077   4.509   6.317   3.337
 6712TIP3    H220078   4.661   6.317   3.343
 6713TIP3   OH220079   7.598   3.085   6.245
 6713TIP3    H120080   7.689   3.112   6.227
 6713TIP3    H220081   7.559   3.076   6.159
 6714TIP3   OH220082   3.286   5.443   3.966
 6714TIP3    H120083   3.191   5.453   3.967
 6714TIP3    H220084   3.313   5.457   4.057
 6715TIP3   OH220085   1.713   7.485   3.752
 6715TIP3    H120086   1.720   7.406   3.805
 6715TIP3    H220087   1.724   7.557   3.814
 6716TIP3   OH220088   3.534   4.742   4.831
 6716TIP3    H120089   3.616   4.730   4.879
 6716TIP3    H220090   3.466   4.715   4.893
 6717TIP3   OH220091   3.850   3.617   4.341
 6717TIP3    H120092   3.854   3.531   4.299
 6717TIP3    H220093   3.877   3.600   4.431
 6718TIP3   OH220094   6.594   6.210   1.494
 6718TIP3    H120095   6.597   6.167   1.580
 6718TIP3    H220096   6.503   6.200   1.466
 6719TIP3   OH220097   3.310   1.372   3.834
 6719TIP3    H120098   3.327   1.359   3.927
 6719TIP3    H220099   3.214   1.379   3.828
 6720TIP3   OH220100   4.935   2.997   2.748
 6720TIP3    H120101   5.016   2.945   2.748
 6720TIP3    H220102   4.904   2.993   2.839
 6721TIP3   OH220103   2.878   4.608   2.050
 6721TIP3    H120104   2.834   4.689   2.023
 6721TIP3    H220105   2.820   4.538   2.020
 6722TIP3   OH220106   2.348   5.941   2.494
 6722TIP3    H120107   2.318   5.950   2.403
 6722TIP3    H220108   2.375   6.029   2.519
 6723TIP3   OH220109   6.232   1.589   6.735
 6723TIP3    H120110   6.299   1.565   6.671
 6723TIP3    H220111   6.278   1.645   6.798
 6724TIP3   OH220112   0.156   2.508   1.224
 6724TIP3    H120113   0.191   2.462   1.301
 6724TIP3    H220114   0.232   2.552   1.186
 6725TIP3   OH220115   0.581   6.636   2.176
 6725TIP3    H120116   0.500   6.686   2.166
 6725TIP3    H220117   0.554   6.555   2.219
 6726TIP3   OH220118   8.350   7.748   3.664
 6726TIP3    H120119   8.425   7.760   3.721
 6726TIP3    H220120   8.284   7.707   3.720
 6727TIP3   OH220121   5.239   2.842   4.735
 6727TIP3    H120122   5.206   2.927   4.705
 6727TIP3    H220123   5.251   2.853   4.829
 6728TIP3   OH220124   1.385   0.284   3.073
 6728TIP3    H120125   1.473   0.247   3.071
 6728TIP3    H220126   1.379   0.325   3.159
 6729TIP3   OH220127   7.550   5.416   0.983
 6729TIP3    H120128   7.470   5.427   0.931
 6729TIP3    H220129   7.621   5.427   0.919
 6730TIP3   OH220130   0.843   5.686   1.185
 6730TIP3    H120131   0.781   5.622   1.220
 6730TIP3    H220132   0.921   5.677   1.240
 6731TIP3   OH220133   4.697   1.796   6.304
 6731TIP3    H120134   4.740   1.878   6.329
 6731TIP3    H220135   4.634   1.779   6.375
 6732TIP3   OH220136   1.057   1.134   5.776
 6732TIP3    H120137   0.965   1.108   5.775
 6732TIP3    H220138   1.079   1.142   5.869
 6733TIP3   OH220139   6.682   4.537   2.784
 6733TIP3    H120140   6.647   4.619   2.751
 6733TIP3    H220141   6.623   4.511   2.855
 6734TIP3   OH220142   5.725   1.006   5.162
 6734TIP3    H120143   5.758   1.022   5.251
 6734TIP3    H220144   5.788   0.946   5.124
 6735TIP3   OH220145   1.432   0.395   0.852
 6735TIP3    H120146   1.472   0.462   0.796
 6735TIP3    H220147   1.485   0.394   0.932
 6736TIP3   OH220148   1.787   0.063   3.440
 6736TIP3    H120149   1.801   0.059   3.346
 6736TIP3    H220150   1.859   0.012   3.477
 6737TIP3   OH220151   3.655   6.272   4.033
 6737TIP3    H120152   3.608   6.347   3.995
 6737TIP3    H220153   3.596   6.198   4.019
 6738TIP3   OH220154   6.062   2.549   5.143
 6738TIP3    H120155   6.143   2.599   5.157
 6738TIP3    H220156   6.021   2.544   5.229
 6739TIP3   OH220157   4.343   0.821   1.156
 6739TIP3    H120158   4.367   0.782   1.240
 6739TIP3    H220159   4.426   0.826   1.108
 6740TIP3   OH220160   5.804   7.696   0.601
 6740TIP3    H120161   5.834   7.605   0.591
 6740TIP3    H220162   5.838   7.723   0.687
 6741TIP3   OH220163   1.515   5.561   4.087
 6741TIP3    H120164   1.603   5.589   4.060
 6741TIP3    H220165   1.466   5.554   4.005
 6742TIP3   OH220166   1.002   2.790   4.422
 6742TIP3    H120167   0.964   2.702   4.420
 6742TIP3    H220168   1.088   2.780   4.380
 6743TIP3   OH220169   2.743   2.073   0.586
 6743TIP3    H120170   2.710   2.158   0.557
 6743TIP3    H220171   2.666   2.017   0.590
 6744TIP3   OH220172   4.420   2.739   0.854
 6744TIP3    H120173   4.503   2.720   0.810
 6744TIP3    H220174   4.354   2.732   0.785
 6745TIP3   OH220175   7.720   0.451   4.013
 6745TIP3    H120176   7.636   0.448   3.967
 6745TIP3    H220177   7.748   0.360   4.017
 6746TIP3   OH220178   2.765   5.918   5.949
 6746TIP3    H120179   2.677   5.902   5.983
 6746TIP3    H220180   2.776   5.855   5.878
 6747TIP3   OH220181   4.964   0.023   2.831
 6747TIP3    H120182   5.015   0.006   2.910
 6747TIP3    H220183   5.011   0.095   2.788
 6748TIP3   OH220184   6.074   3.356   1.241
 6748TIP3    H120185   6.101   3.344   1.332
 6748TIP3    H220186   6.130   3.427   1.208
 6749TIP3   OH220187   6.102   4.148   2.148
 6749TIP3    H120188   6.184   4.160   2.101
 6749TIP3    H220189   6.108   4.061   2.186
 6750TIP3   OH220190   5.431   2.253   4.163
 6750TIP3    H120191   5.522   2.281   4.177
 6750TIP3    H220192   5.427   2.228   4.070
 6751TIP3   OH220193   0.248   1.992   5.107
 6751TIP3    H120194   0.201   2.056   5.053
 6751TIP3    H220195   0.188   1.919   5.116
 6752TIP3   OH220196   3.519   6.448   6.451
 6752TIP3    H120197   3.517   6.535   6.489
 6752TIP3    H220198   3.443   6.445   6.393
 6753TIP3   OH220199   7.232   0.517   3.103
 6753TIP3    H120200   7.268   0.561   3.026
 6753TIP3    H220201   7.263   0.427   3.096
 6754TIP3   OH220202   5.136   5.444   4.045
 6754TIP3    H120203   5.199   5.505   4.005
 6754TIP3    H220204   5.073   5.501   4.089
 6755TIP3   OH220205   7.278   0.999   2.718
 6755TIP3    H120206   7.271   1.047   2.800
 6755TIP3    H220207   7.192   1.010   2.676
 6756TIP3   OH220208   4.726   1.229   1.018
 6756TIP3    H120209   4.747   1.301   1.078
 6756TIP3    H220210   4.636   1.206   1.040
 6757TIP3   OH220211   8.132   7.199   4.494
 6757TIP3    H120212   8.121   7.104   4.490
 6757TIP3    H220213   8.065   7.233   4.436
 6758TIP3   OH220214   3.357   7.072   1.093
 6758TIP3    H120215   3.331   7.030   1.175
 6758TIP3    H220216   3.307   7.153   1.091
 6759TIP3   OH220217   6.175   7.338   0.358
 6759TIP3    H120218   6.220   7.256   0.377
 6759TIP3    H220219   6.243   7.406   0.365
 6760TIP3   OH220220   4.677   3.635   6.489
 6760TIP3    H120221   4.767   3.645   6.519
 6760TIP3    H220222   4.640   3.723   6.496
 6761TIP3   OH220223   2.687   4.835   4.794
 6761TIP3    H120224   2.620   4.839   4.863
 6761TIP3    H220225   2.765   4.871   4.836
 6762TIP3   OH220226   7.020   5.856   4.604
 6762TIP3    H120227   7.102   5.809   4.623
 6762TIP3    H220228   6.964   5.789   4.563
 6763TIP3   OH220229   6.420   6.556   5.724
 6763TIP3    H120230   6.382   6.577   5.639
 6763TIP3    H220231   6.473   6.633   5.746
 6764TIP3   OH220232   5.088   5.623   3.340
 6764TIP3    H120233   5.005   5.665   3.318
 6764TIP3    H220234   5.106   5.651   3.429
 6765TIP3   OH220235   7.917   5.175   1.516
 6765TIP3    H120236   7.954   5.137   1.596
 6765TIP3    H220237   7.958   5.125   1.445
 6766TIP3   OH220238   2.508   6.145   6.556
 6766TIP3    H120239   2.540   6.106   6.637
 6766TIP3    H220240   2.515   6.239   6.570
 6767TIP3   OH220241   7.684   5.504   0.421
 6767TIP3    H120242   7.607   5.551   0.452
 6767TIP3    H220243   7.720   5.561   0.353
 6768TIP3   OH220244   5.955   0.704   0.946
 6768TIP3    H120245   5.967   0.776   0.883
 6768TIP3    H220246   5.874   0.661   0.918
 6769TIP3   OH220247   4.667   5.048   3.812
 6769TIP3    H120248   4.725   5.112   3.854
 6769TIP3    H220249   4.698   5.044   3.722
 6770TIP3   OH220250   1.194   3.712   0.347
 6770TIP3    H120251   1.237   3.693   0.263
 6770TIP3    H220252   1.135   3.785   0.328
 6771TIP3   OH220253   4.558   6.732   0.879
 6771TIP3    H120254   4.646   6.754   0.909
 6771TIP3    H220255   4.571   6.678   0.801
 6772TIP3   OH220256   4.797   1.416   3.085
 6772TIP3    H120257   4.812   1.510   3.072
 6772TIP3    H220258   4.835   1.398   3.171
 6773TIP3   OH220259   1.447   2.637   4.486
 6773TIP3    H120260   1.527   2.623   4.536
 6773TIP3    H220261   1.475   2.684   4.408
 6774TIP3   OH220262   5.887   5.182   6.256
 6774TIP3    H120263   5.824   5.172   6.184
 6774TIP3    H220264   5.833   5.184   6.335
 6775TIP3   OH220265   1.295   4.400   2.016
 6775TIP3    H120266   1.321   4.489   1.991
 6775TIP3    H220267   1.278   4.356   1.932
 6776TIP3   OH220268   0.372   2.749   5.209
 6776TIP3    H120269   0.361   2.668   5.159
 6776TIP3    H220270   0.285   2.790   5.208
 6777TIP3   OH220271   1.080   3.968   0.246
 6777TIP3    H120272   1.063   3.968   0.152
 6777TIP3    H220273   0.995   3.986   0.286
 6778TIP3   OH220274   7.092   3.977   4.880
 6778TIP3    H120275   7.159   3.908   4.872
 6778TIP3    H220276   7.064   3.993   4.790
 6779TIP3   OH220277   0.204   3.147   5.659
 6779TIP3    H120278   0.208   3.060   5.699
 6779TIP3    H220279   0.151   3.199   5.719
 6780TIP3   OH220280   3.764   0.322   1.867
 6780TIP3    H120281   3.794   0.272   1.790
 6780TIP3    H220282   3.821   0.398   1.870
 6781TIP3   OH220283   5.437   6.822   4.751
 6781TIP3    H120284   5.434   6.750   4.815
 6781TIP3    H220285   5.404   6.783   4.670
 6782TIP3   OH220286   5.682   7.719   1.130
 6782TIP3    H120287   5.707   7.679   1.047
 6782TIP3    H220288   5.600   7.765   1.111
 6783TIP3   OH220289   3.382   3.352   4.844
 6783TIP3    H120290   3.380   3.389   4.756
 6783TIP3    H220291   3.420   3.265   4.832
 6784TIP3   OH220292   4.069   5.081   6.596
 6784TIP3    H120293   4.153   5.126   6.586
 6784TIP3    H220294   4.067   5.053   6.687
 6785TIP3   OH220295   1.715   1.771   2.094
 6785TIP3    H120296   1.773   1.827   2.043
 6785TIP3    H220297   1.643   1.749   2.035
 6786TIP3   OH220298   5.890   3.145   3.271
 6786TIP3    H120299   5.945   3.216   3.239
 6786TIP3    H220300   5.811   3.150   3.217
 6787TIP3   OH220301   7.511   0.543   3.292
 6787TIP3    H120302   7.563   0.464   3.306
 6787TIP3    H220303   7.433   0.512   3.246
 6788TIP3   OH220304   2.854   2.324   1.474
 6788TIP3    H120305   2.926   2.261   1.477
 6788TIP3    H220306   2.834   2.342   1.566
 6789TIP3   OH220307   4.739   7.029   6.394
 6789TIP3    H120308   4.708   6.942   6.417
 6789TIP3    H220309   4.723   7.082   6.472
 6790TIP3   OH220310   2.184   2.618   0.157
 6790TIP3    H120311   2.163   2.544   0.099
 6790TIP3    H220312   2.099   2.657   0.178
 6791TIP3   OH220313   6.916   6.160   1.804
 6791TIP3    H120314   6.944   6.193   1.719
 6791TIP3    H220315   6.949   6.224   1.867
 6792TIP3   OH220316   0.357   4.271   5.341
 6792TIP3    H120317   0.369   4.361   5.310
 6792TIP3    H220318   0.273   4.274   5.387
 6793TIP3   OH220319   7.837   7.370   1.061
 6793TIP3    H120320   7.877   7.303   1.006
 6793TIP3    H220321   7.855   7.341   1.151
 6794TIP3   OH220322   2.205   2.347   2.169
 6794TIP3    H120323   2.179   2.426   2.217
 6794TIP3    H220324   2.128   2.291   2.172
 6795TIP3   OH220325   6.722   1.287   6.155
 6795TIP3    H120326   6.793   1.346   6.131
 6795TIP3    H220327   6.727   1.281   6.250
 6796TIP3   OH220328   7.136   0.099   4.128
 6796TIP3    H120329   7.172   0.161   4.064
 6796TIP3    H220330   7.094   0.154   4.194
 6797TIP3   OH220331   4.931   6.214   2.689
 6797TIP3    H120332   4.838   6.216   2.709
 6797TIP3    H220333   4.958   6.306   2.691
 6798TIP3   OH220334   4.025   7.135   3.091
 6798TIP3    H120335   3.982   7.060   3.049
 6798TIP3    H220336   3.977   7.147   3.174
 6799TIP3   OH220337   2.640   0.774   2.709
 6799TIP3    H120338   2.660   0.682   2.689
 6799TIP3    H220339   2.546   0.776   2.722
 6800TIP3   OH220340   1.968   2.361   3.835
 6800TIP3    H120341   1.906   2.336   3.904
 6800TIP3    H220342   1.972   2.457   3.839
 6801TIP3   OH220343   3.354   1.345   1.626
 6801TIP3    H120344   3.259   1.339   1.632
 6801TIP3    H220345   3.382   1.256   1.604
 6802TIP3   OH220346   2.925   5.751   5.202
 6802TIP3    H120347   2.836   5.716   5.200
 6802TIP3    H220348   2.920   5.832   5.151
 6803TIP3   OH220349   7.049   6.888   1.543
 6803TIP3    H120350   7.085   6.802   1.562
 6803TIP3    H220351   7.082   6.909   1.456
 6804TIP3   OH220352   8.069   1.632   6.643
 6804TIP3    H120353   8.045   1.716   6.603
 6804TIP3    H220354   8.144   1.653   6.698
 6805TIP3   OH220355   7.209   7.408   0.364
 6805TIP3    H120356   7.270   7.429   0.435
 6805TIP3    H220357   7.129   7.455   0.386
 6806TIP3   OH220358   6.390   1.350   5.180
 6806TIP3    H120359   6.434   1.348   5.095
 6806TIP3    H220360   6.406   1.438   5.213
 6807TIP3   OH220361   3.622   6.321   5.959
 6807TIP3    H120362   3.612   6.415   5.978
 6807TIP3    H220363   3.669   6.286   6.034
 6808TIP3   OH220364   6.856   4.791   5.790
 6808TIP3    H120365   6.791   4.782   5.859
 6808TIP3    H220366   6.884   4.883   5.796
 6809TIP3   OH220367   2.077   1.841   4.638
 6809TIP3    H120368   2.048   1.838   4.547
 6809TIP3    H220369   2.156   1.788   4.641
 6810TIP3   OH220370   7.544   4.716   3.638
 6810TIP3    H120371   7.515   4.732   3.728
 6810TIP3    H220372   7.498   4.783   3.586
 6811TIP3   OH220373   6.648   2.523   4.483
 6811TIP3    H120374   6.641   2.470   4.403
 6811TIP3    H220375   6.710   2.592   4.460
 6812TIP3   OH220376   2.941   3.983   6.548
 6812TIP3    H120377   2.871   4.019   6.602
 6812TIP3    H220378   3.020   4.029   6.577
 6813TIP3   OH220379   5.601   6.217   4.366
 6813TIP3    H120380   5.606   6.262   4.451
 6813TIP3    H220381   5.515   6.241   4.331
 6814TIP3   OH220382   7.938   3.851   6.798
 6814TIP3    H120383   7.855   3.896   6.791
 6814TIP3    H220384   7.962   3.829   6.708
 6815TIP3   OH220385   6.029   3.503   2.912
 6815TIP3    H120386   6.023   3.407   2.915
 6815TIP3    H220387   6.020   3.525   2.820
 6816TIP3   OH220388   5.734   3.553   4.878
 6816TIP3    H120389   5.672   3.576   4.809
 6816TIP3    H220390   5.747   3.458   4.867
 6817TIP3   OH220391   5.891   0.309   3.351
 6817TIP3    H120392   5.808   0.352   3.330
 6817TIP3    H220393   5.955   0.351   3.293
 6818TIP3   OH220394   0.348   1.296   0.221
 6818TIP3    H120395   0.363   1.204   0.198
 6818TIP3    H220396   0.340   1.295   0.317
 6819TIP3   OH220397   3.539   0.465   5.064
 6819TIP3    H120398   3.546   0.520   5.142
 6819TIP3    H220399   3.587   0.385   5.087
 6820TIP3   OH220400   7.915   7.741   0.433
 6820TIP3    H120401   7.929   7.830   0.401
 6820TIP3    H220402   7.919   7.687   0.355
 6821TIP3   OH220403   1.011   1.870   5.978
 6821TIP3    H120404   1.092   1.836   5.939
 6821TIP3    H220405   1.040   1.925   6.051
 6822TIP3   OH220406   7.063   1.899   1.771
 6822TIP3    H120407   7.135   1.872   1.829
 6822TIP3    H220408   7.106   1.944   1.698
 6823TIP3   OH220409   4.523   2.052   4.102
 6823TIP3    H120410   4.440   2.082   4.064
 6823TIP3    H220411   4.509   2.056   4.197
 6824TIP3   OH220412   0.234   2.803   0.443
 6824TIP3    H120413   0.219   2.894   0.418
 6824TIP3    H220414   0.160   2.755   0.405
 6825TIP3   OH220415   3.311   0.631   2.163
 6825TIP3    H120416   3.323   0.604   2.254
 6825TIP3    H220417   3.234   0.688   2.165
 6826TIP3   OH220418   5.588   4.328   6.424
 6826TIP3    H120419   5.573   4.423   6.430
 6826TIP3    H220420   5.521   4.290   6.480
 6827TIP3   OH220421   0.445   7.456   0.821
 6827TIP3    H120422   0.450   7.361   0.810
 6827TIP3    H220423   0.407   7.488   0.739
 6828TIP3   OH220424   1.765   6.670   6.109
 6828TIP3    H120425   1.694   6.734   6.115
 6828TIP3    H220426   1.754   6.630   6.022
 6829TIP3   OH220427   3.206   5.848   2.601
 6829TIP3    H120428   3.200   5.941   2.627
 6829TIP3    H220429   3.203   5.849   2.506
 6830TIP3   OH220430   6.580   7.669   1.962
 6830TIP3    H120431   6.519   7.627   1.901
 6830TIP3    H220432   6.524   7.708   2.029
 6831TIP3   OH220433   5.919   5.224   5.186
 6831TIP3    H120434   5.973   5.301   5.173
 6831TIP3    H220435   5.958   5.157   5.129
 6832TIP3   OH220436   1.325   1.610   0.038
 6832TIP3    H120437   1.367   1.620   0.123
 6832TIP3    H220438   1.318   1.700   0.004
 6833TIP3   OH220439   0.290   4.836   0.598
 6833TIP3    H120440   0.285   4.896   0.523
 6833TIP3    H220441   0.326   4.889   0.669
 6834TIP3   OH220442   7.280   2.472   1.336
 6834TIP3    H120443   7.355   2.425   1.299
 6834TIP3    H220444   7.307   2.563   1.335
 6835TIP3   OH220445   6.398   0.284   4.803
 6835TIP3    H120446   6.445   0.345   4.860
 6835TIP3    H220447   6.430   0.198   4.828
 6836TIP3   OH220448   6.180   0.007   0.124
 6836TIP3    H120449   6.175  -0.089   0.126
 6836TIP3    H220450   6.124   0.032   0.050
 6837TIP3   OH220451   0.281   1.094   3.255
 6837TIP3    H120452   0.257   1.091   3.162
 6837TIP3    H220453   0.230   1.166   3.291
 6838TIP3   OH220454   7.854   5.211   6.259
 6838TIP3    H120455   7.933   5.169   6.226
 6838TIP3    H220456   7.808   5.242   6.181
 6839TIP3   OH220457   2.380   6.992   5.770
 6839TIP3    H120458   2.374   6.959   5.680
 6839TIP3    H220459   2.393   7.086   5.760
 6840TIP3   OH220460   0.305   5.447   3.216
 6840TIP3    H120461   0.294   5.403   3.300
 6840TIP3    H220462   0.381   5.503   3.229
 6841TIP3   OH220463   8.201   3.667   2.671
 6841TIP3    H120464   8.154   3.749   2.653
 6841TIP3    H220465   8.293   3.692   2.676
 6842TIP3   OH220466   0.818   6.698   3.387
 6842TIP3    H120467   0.778   6.730   3.306
 6842TIP3    H220468   0.804   6.769   3.450
 6843TIP3   OH220469   0.092   6.088   4.798
 6843TIP3    H120470   0.117   6.145   4.725
 6843TIP3    H220471   0.151   6.113   4.869
 6844TIP3   OH220472   1.037   5.318   1.196
 6844TIP3    H120473   0.977   5.373   1.146
 6844TIP3    H220474   1.091   5.380   1.245
 6845TIP3   OH220475   4.391   1.700   2.879
 6845TIP3    H120476   4.404   1.778   2.934
 6845TIP3    H220477   4.447   1.634   2.918
 6846TIP3   OH220478   3.303   4.291   0.047
 6846TIP3    H120479   3.389   4.331   0.056
 6846TIP3    H220480   3.258   4.344  -0.018
 6847TIP3   OH220481   7.044   1.594   3.632
 6847TIP3    H120482   6.996   1.651   3.693
 6847TIP3    H220483   7.104   1.653   3.586
 6848TIP3   OH220484   3.261   5.655   3.497
 6848TIP3    H120485   3.274   5.685   3.587
 6848TIP3    H220486   3.303   5.568   3.495
 6849TIP3   OH220487   2.393   7.049   3.329
 6849TIP3    H120488   2.310   7.001   3.328
 6849TIP3    H220489   2.388   7.102   3.408
 6850TIP3   OH220490   2.688   0.516   1.571
 6850TIP3    H120491   2.729   0.464   1.640
 6850TIP3    H220492   2.608   0.469   1.549
 6851TIP3   OH220493   6.158   2.128   0.059
 6851TIP3    H120494   6.185   2.140  -0.032
 6851TIP3    H220495   6.108   2.046   0.059
 6852TIP3   OH220496   7.497   5.874   6.699
 6852TIP3    H120497   7.482   5.805   6.634
 6852TIP3    H220498   7.456   5.841   6.779
 6853TIP3   OH220499   6.722   6.239   6.088
 6853TIP3    H120500   6.754   6.294   6.016
 6853TIP3    H220501   6.744   6.287   6.167
 6854TIP3   OH220502   7.561   5.206   3.789
 6854TIP3    H120503   7.635   5.148   3.806
 6854TIP3    H220504   7.593   5.266   3.722
 6855TIP3   OH220505   3.212   1.789   2.613
 6855TIP3    H120506   3.302   1.759   2.605
 6855TIP3    H220507   3.161   1.725   2.562
 6856TIP3   OH220508   3.208   5.171   5.822
 6856TIP3    H120509   3.150   5.244   5.841
 6856TIP3    H220510   3.283   5.182   5.881
 6857TIP3   OH220511   8.107   0.297   1.997
 6857TIP3    H120512   8.113   0.213   1.952
 6857TIP3    H220513   8.106   0.275   2.090
 6858TIP3   OH220514   4.084   7.650   1.129
 6858TIP3    H120515   4.102   7.744   1.119
 6858TIP3    H220516   4.043   7.624   1.047
 6859TIP3   OH220517   4.144   5.817   2.938
 6859TIP3    H120518   4.100   5.900   2.953
 6859TIP3    H220519   4.075   5.759   2.905
 6860TIP3   OH220520   6.143   2.029   0.573
 6860TIP3    H120521   6.238   2.034   0.564
 6860TIP3    H220522   6.124   2.081   0.651
 6861TIP3   OH220523   0.122   7.660   2.375
 6861TIP3    H120524   0.105   7.740   2.326
 6861TIP3    H220525   0.192   7.616   2.326
 6862TIP3   OH220526   2.160   5.936   0.906
 6862TIP3    H120527   2.132   5.913   0.817
 6862TIP3    H220528   2.081   5.927   0.959
 6863TIP3   OH220529   5.901   4.490   1.275
 6863TIP3    H120530   5.818   4.480   1.322
 6863TIP3    H220531   5.877   4.531   1.192
 6864TIP3   OH220532   8.331   3.069   4.193
 6864TIP3    H120533   8.407   3.114   4.155
 6864TIP3    H220534   8.344   2.977   4.168
 6865TIP3   OH220535   7.551   4.981   2.988
 6865TIP3    H120536   7.627   4.956   2.936
 6865TIP3    H220537   7.561   4.933   3.070
 6866TIP3   OH220538   3.764   6.057   0.399
 6866TIP3    H120539   3.789   6.110   0.324
 6866TIP3    H220540   3.678   6.090   0.424
 6867TIP3   OH220541   5.777   6.185   2.230
 6867TIP3    H120542   5.698   6.198   2.177
 6867TIP3    H220543   5.842   6.244   2.190
 6868TIP3   OH220544   7.478   6.103   4.553
 6868TIP3    H120545   7.481   6.011   4.579
 6868TIP3    H220546   7.469   6.101   4.457
 6869TIP3   OH220547   5.814   3.532   4.129
 6869TIP3    H120548   5.806   3.495   4.217
 6869TIP3    H220549   5.828   3.456   4.072
 6870TIP3   OH220550   7.192   2.004   0.834
 6870TIP3    H120551   7.173   2.018   0.927
 6870TIP3    H220552   7.210   1.910   0.826
 6871TIP3   OH220553   0.296   2.169   2.372
 6871TIP3    H120554   0.321   2.214   2.292
 6871TIP3    H220555   0.321   2.078   2.357
 6872TIP3   OH220556   3.519   7.822   4.883
 6872TIP3    H120557   3.475   7.835   4.800
 6872TIP3    H220558   3.448   7.817   4.947
 6873TIP3   OH220559   7.286   5.416   5.580
 6873TIP3    H120560   7.328   5.413   5.494
 6873TIP3    H220561   7.193   5.404   5.562
 6874TIP3   OH220562   0.471   4.214   2.015
 6874TIP3    H120563   0.557   4.176   1.996
 6874TIP3    H220564   0.484   4.308   2.004
 6875TIP3   OH220565   7.536   4.255   4.408
 6875TIP3    H120566   7.608   4.304   4.447
 6875TIP3    H220567   7.494   4.317   4.348
 6876TIP3   OH220568   1.657   1.632   5.767
 6876TIP3    H120569   1.650   1.636   5.863
 6876TIP3    H220570   1.677   1.540   5.748
 6877TIP3   OH220571   4.196   4.190   6.657
 6877TIP3    H120572   4.153   4.239   6.587
 6877TIP3    H220573   4.126   4.173   6.721
 6878TIP3   OH220574   4.689   7.549   4.146
 6878TIP3    H120575   4.699   7.527   4.053
 6878TIP3    H220576   4.690   7.645   4.148
 6879TIP3   OH220577   1.428   1.069   3.298
 6879TIP3    H120578   1.495   1.005   3.321
 6879TIP3    H220579   1.405   1.110   3.382
 6880TIP3   OH220580   7.745   0.894   4.581
 6880TIP3    H120581   7.809   0.863   4.516
 6880TIP3    H220582   7.662   0.855   4.554
 6881TIP3   OH220583   3.029   3.911   2.089
 6881TIP3    H120584   2.984   3.995   2.096
 6881TIP3    H220585   3.053   3.904   1.997
 6882TIP3   OH220586   5.768   4.550   4.985
 6882TIP3    H120587   5.753   4.605   4.908
 6882TIP3    H220588   5.691   4.494   4.991
 6883TIP3   OH220589   6.623   5.976   2.750
 6883TIP3    H120590   6.594   6.035   2.819
 6883TIP3    H220591   6.690   6.025   2.703
 6884TIP3   OH220592   1.748   4.443   6.012
 6884TIP3    H120593   1.789   4.357   6.018
 6884TIP3    H220594   1.707   4.456   6.098
 6885TIP3   OH220595   4.921   7.157   1.786
 6885TIP3    H120596   4.936   7.184   1.695
 6885TIP3    H220597   4.958   7.228   1.838
 6886TIP3   OH220598   2.296   1.118   0.963
 6886TIP3    H120599   2.213   1.161   0.942
 6886TIP3    H220600   2.273   1.026   0.976
 6887TIP3   OH220601   0.054   3.311   1.692
 6887TIP3    H120602  -0.024   3.364   1.708
 6887TIP3    H220603   0.041   3.232   1.744
 6888TIP3   OH220604   5.885   7.861   6.595
 6888TIP3    H120605   5.803   7.885   6.638
 6888TIP3    H220606   5.940   7.939   6.604
 6889TIP3   OH220607   2.539   4.655   5.960
 6889TIP3    H120608   2.489   4.734   5.940
 6889TIP3    H220609   2.627   4.673   5.927
 6890TIP3   OH220610   1.990   4.895   1.045
 6890TIP3    H120611   2.062   4.852   0.999
 6890TIP3    H220612   2.018   4.897   1.137
 6891TIP3   OH220613   0.724   6.466   0.876
 6891TIP3    H120614   0.738   6.505   0.790
 6891TIP3    H220615   0.776   6.519   0.936
 6892TIP3   OH220616   4.556   0.028   1.984
 6892TIP3    H120617   4.504   0.057   1.908
 6892TIP3    H220618   4.597   0.107   2.017
 6893TIP3   OH220619   1.556   7.116   1.561
 6893TIP3    H120620   1.491   7.070   1.615
 6893TIP3    H220621   1.630   7.056   1.558
 6894TIP3   OH220622   1.156   6.787   5.169
 6894TIP3    H120623   1.250   6.794   5.155
 6894TIP3    H220624   1.122   6.874   5.148
 6895TIP3   OH220625   0.074   3.498   5.770
 6895TIP3    H120626   0.167   3.488   5.751
 6895TIP3    H220627   0.045   3.410   5.795
 6896TIP3   OH220628   5.353   1.680   2.899
 6896TIP3    H120629   5.402   1.607   2.936
 6896TIP3    H220630   5.418   1.732   2.852
 6897TIP3   OH220631   7.463   1.516   3.866
 6897TIP3    H120632   7.465   1.604   3.829
 6897TIP3    H220633   7.394   1.471   3.817
 6898TIP3   OH220634   3.206   2.144   5.598
 6898TIP3    H120635   3.293   2.121   5.564
 6898TIP3    H220636   3.163   2.188   5.525
 6899TIP3   OH220637   8.374   2.895   6.229
 6899TIP3    H120638   8.331   2.811   6.243
 6899TIP3    H220639   8.305   2.960   6.242
 6900TIP3   OH220640   4.006   7.369   3.668
 6900TIP3    H120641   3.923   7.415   3.678
 6900TIP3    H220642   4.014   7.315   3.747
 6901TIP3   OH220643   6.224   3.507   2.700
 6901TIP3    H120644   6.252   3.599   2.707
 6901TIP3    H220645   6.228   3.488   2.606
 6902TIP3   OH220646   6.145   3.341   1.568
 6902TIP3    H120647   6.153   3.274   1.500
 6902TIP3    H220648   6.106   3.295   1.642
 6903TIP3   OH220649   4.901   3.411   0.742
 6903TIP3    H120650   4.894   3.507   0.740
 6903TIP3    H220651   4.918   3.386   0.652
 6904TIP3   OH220652   4.917   2.201   2.117
 6904TIP3    H120653   4.992   2.224   2.063
 6904TIP3    H220654   4.943   2.227   2.206
 6905TIP3   OH220655   2.884   6.449   6.166
 6905TIP3    H120656   2.873   6.401   6.084
 6905TIP3    H220657   2.820   6.410   6.226
 6906TIP3   OH220658   6.299   1.055   1.211
 6906TIP3    H120659   6.317   1.134   1.160
 6906TIP3    H220660   6.351   0.987   1.168
 6907TIP3   OH220661   6.113   6.982   6.355
 6907TIP3    H120662   6.169   6.992   6.278
 6907TIP3    H220663   6.172   6.990   6.429
 6908TIP3   OH220664   3.995   0.307   5.308
 6908TIP3    H120665   3.980   0.249   5.234
 6908TIP3    H220666   3.987   0.395   5.271
 6909TIP3   OH220667   2.825   5.834   0.522
 6909TIP3    H120668   2.773   5.803   0.596
 6909TIP3    H220669   2.760   5.857   0.455
 6910TIP3   OH220670   7.553   3.610   2.665
 6910TIP3    H120671   7.556   3.532   2.610
 6910TIP3    H220672   7.601   3.586   2.744
 6911TIP3   OH220673   4.134   6.307   2.900
 6911TIP3    H120674   4.096   6.220   2.914
 6911TIP3    H220675   4.208   6.310   2.962
 6912TIP3   OH220676   6.761   5.950   2.993
 6912TIP3    H120677   6.733   5.884   3.056
 6912TIP3    H220678   6.714   5.927   2.912
 6913TIP3   OH220679   1.502   7.829   3.377
 6913TIP3    H120680   1.480   7.760   3.314
 6913TIP3    H220681   1.419   7.849   3.420
 6914TIP3   OH220682   2.537   1.730   5.303
 6914TIP3    H120683   2.521   1.742   5.396
 6914TIP3    H220684   2.451   1.740   5.262
 6915TIP3   OH220685   6.607   3.141   3.708
 6915TIP3    H120686   6.698   3.144   3.737
 6915TIP3    H220687   6.593   3.051   3.680
 6916TIP3   OH220688   5.923   6.219   1.272
 6916TIP3    H120689   5.877   6.137   1.256
 6916TIP3    H220690   5.983   6.228   1.198
 6917TIP3   OH220691   6.421   7.835   5.986
 6917TIP3    H120692   6.344   7.824   5.931
 6917TIP3    H220693   6.470   7.753   5.976
 6918TIP3   OH220694   3.487   3.486   3.928
 6918TIP3    H120695   3.480   3.415   3.992
 6918TIP3    H220696   3.492   3.566   3.981
 6919TIP3   OH220697   1.977   1.624   5.619
 6919TIP3    H120698   1.965   1.612   5.525
 6919TIP3    H220699   1.888   1.632   5.655
 6920TIP3   OH220700   7.705   0.847   1.487
 6920TIP3    H120701   7.747   0.853   1.401
 6920TIP3    H220702   7.761   0.788   1.537
 6921TIP3   OH220703   6.302   2.490   0.796
 6921TIP3    H120704   6.227   2.531   0.840
 6921TIP3    H220705   6.294   2.517   0.704
 6922TIP3   OH220706   6.258   1.712   1.449
 6922TIP3    H120707   6.204   1.635   1.466
 6922TIP3    H220708   6.347   1.685   1.474
 6923TIP3   OH220709   1.256   6.495   3.187
 6923TIP3    H120710   1.225   6.440   3.259
 6923TIP3    H220711   1.179   6.547   3.163
 6924TIP3   OH220712   5.498   7.287   0.836
 6924TIP3    H120713   5.533   7.357   0.780
 6924TIP3    H220714   5.518   7.316   0.925
 6925TIP3   OH220715   1.445   1.436   1.782
 6925TIP3    H120716   1.368   1.387   1.811
 6925TIP3    H220717   1.445   1.426   1.686
 6926TIP3   OH220718   4.847   6.696   3.866
 6926TIP3    H120719   4.915   6.632   3.887
 6926TIP3    H220720   4.856   6.763   3.934
 6927TIP3   OH220721   1.201   4.426   6.852
 6927TIP3    H120722   1.158   4.504   6.888
 6927TIP3    H220723   1.135   4.357   6.858
 6928TIP3   OH220724   5.051   5.398   1.899
 6928TIP3    H120725   5.009   5.381   1.814
 6928TIP3    H220726   5.073   5.311   1.932
 6929TIP3   OH220727   8.031   2.745   4.658
 6929TIP3    H120728   8.034   2.650   4.647
 6929TIP3    H220729   8.099   2.779   4.600
 6930TIP3   OH220730   1.094   7.211   0.417
 6930TIP3    H120731   1.073   7.120   0.394
 6930TIP3    H220732   1.086   7.214   0.512
 6931TIP3   OH220733   8.095   0.913   4.916
 6931TIP3    H120734   8.182   0.950   4.903
 6931TIP3    H220735   8.039   0.988   4.936
 6932TIP3   OH220736   8.073   1.828   3.935
 6932TIP3    H120737   8.100   1.833   4.026
 6932TIP3    H220738   8.095   1.914   3.899
 6933TIP3   OH220739   5.462   5.005   0.205
 6933TIP3    H120740   5.382   5.050   0.179
 6933TIP3    H220741   5.440   4.912   0.197
 6934TIP3   OH220742   5.248   5.062   2.187
 6934TIP3    H120743   5.157   5.058   2.216
 6934TIP3    H220744   5.293   4.998   2.241
 6935TIP3   OH220745   3.441   2.952   6.227
 6935TIP3    H120746   3.357   2.932   6.185
 6935TIP3    H220747   3.442   3.047   6.236
 6936TIP3   OH220748   2.509   0.670   3.158
 6936TIP3    H120749   2.514   0.750   3.105
 6936TIP3    H220750   2.534   0.600   3.098
 6937TIP3   OH220751   8.205   2.954   1.396
 6937TIP3    H120752   8.283   3.005   1.418
 6937TIP3    H220753   8.160   3.005   1.330
 6938TIP3   OH220754   0.567   0.604   4.205
 6938TIP3    H120755   0.657   0.629   4.182
 6938TIP3    H220756   0.574   0.512   4.229
 6939TIP3   OH220757   3.278   2.647   6.599
 6939TIP3    H120758   3.328   2.606   6.529
 6939TIP3    H220759   3.314   2.609   6.680
 6940TIP3   OH220760   1.204   5.113   4.056
 6940TIP3    H120761   1.216   5.199   4.097
 6940TIP3    H220762   1.292   5.086   4.031
 6941TIP3   OH220763   2.867   1.406   4.536
 6941TIP3    H120764   2.776   1.383   4.518
 6941TIP3    H220765   2.865   1.500   4.556
 6942TIP3   OH220766   5.514   4.671   6.060
 6942TIP3    H120767   5.477   4.602   6.116
 6942TIP3    H220768   5.452   4.678   5.987
 6943TIP3   OH220769   1.076   4.303   0.596
 6943TIP3    H120770   1.045   4.368   0.659
 6943TIP3    H220771   1.123   4.353   0.530
 6944TIP3   OH220772   6.703   5.062   2.504
 6944TIP3    H120773   6.733   5.088   2.591
 6944TIP3    H220774   6.646   4.987   2.520
 6945TIP3   OH220775   3.851   6.616   1.516
 6945TIP3    H120776   3.933   6.657   1.545
 6945TIP3    H220777   3.787   6.687   1.519
 6946TIP3   OH220778   0.280   0.732   6.654
 6946TIP3    H120779   0.251   0.762   6.741
 6946TIP3    H220780   0.203   0.742   6.599
 6947TIP3   OH220781   2.781   1.822   3.744
 6947TIP3    H120782   2.723   1.848   3.672
 6947TIP3    H220783   2.733   1.849   3.823
 6948TIP3   OH220784   6.931   4.168   1.606
 6948TIP3    H120785   6.916   4.116   1.685
 6948TIP3    H220786   6.961   4.104   1.541
 6949TIP3   OH220787   6.291   0.324   6.363
 6949TIP3    H120788   6.376   0.352   6.330
 6949TIP3    H220789   6.269   0.247   6.310
 6950TIP3   OH220790   3.718   2.584   5.374
 6950TIP3    H120791   3.730   2.639   5.297
 6950TIP3    H220792   3.807   2.559   5.399
 6951TIP3   OH220793   0.468   1.200   6.182
 6951TIP3    H120794   0.492   1.113   6.151
 6951TIP3    H220795   0.529   1.217   6.255
 6952TIP3   OH220796   0.821   2.134   1.576
 6952TIP3    H120797   0.912   2.110   1.559
 6952TIP3    H220798   0.802   2.202   1.512
 6953TIP3   OH220799   2.144   2.755   3.027
 6953TIP3    H120800   2.064   2.768   2.975
 6953TIP3    H220801   2.135   2.668   3.065
 6954TIP3   OH220802   6.695   6.759   2.834
 6954TIP3    H120803   6.774   6.728   2.789
 6954TIP3    H220804   6.713   6.744   2.927
 6955TIP3   OH220805   2.740   6.354   2.305
 6955TIP3    H120806   2.768   6.265   2.283
 6955TIP3    H220807   2.751   6.404   2.224
 6956TIP3   OH220808   3.947   0.347   1.475
 6956TIP3    H120809   4.019   0.396   1.514
 6956TIP3    H220810   3.882   0.339   1.544
 6957TIP3   OH220811   2.270   5.487   2.258
 6957TIP3    H120812   2.361   5.516   2.247
 6957TIP3    H220813   2.258   5.479   2.352
 6958TIP3   OH220814   5.493   6.772   2.267
 6958TIP3    H120815   5.552   6.700   2.291
 6958TIP3    H220816   5.484   6.766   2.172
 6959TIP3   OH220817   6.464   1.525   0.642
 6959TIP3    H120818   6.392   1.588   0.641
 6959TIP3    H220819   6.538   1.573   0.604
 6960TIP3   OH220820   7.451   4.761   3.889
 6960TIP3    H120821   7.517   4.763   3.959
 6960TIP3    H220822   7.420   4.851   3.884
 6961TIP3   OH220823   7.128   5.439   0.236
 6961TIP3    H120824   7.186   5.432   0.311
 6961TIP3    H220825   7.084   5.354   0.232
 6962TIP3   OH220826   1.133   1.706   1.629
 6962TIP3    H120827   1.046   1.738   1.605
 6962TIP3    H220828   1.171   1.674   1.547
 6963TIP3   OH220829   5.633   3.903   6.072
 6963TIP3    H120830   5.669   3.909   6.160
 6963TIP3    H220831   5.664   3.820   6.038
 6964TIP3   OH220832   8.350   6.003   3.370
 6964TIP3    H120833   8.423   5.983   3.429
 6964TIP3    H220834   8.285   5.936   3.389
 6965TIP3   OH220835   6.999   1.323   0.594
 6965TIP3    H120836   7.008   1.229   0.578
 6965TIP3    H220837   6.933   1.352   0.531
 6966TIP3   OH220838   1.487   3.293   1.262
 6966TIP3    H120839   1.471   3.202   1.235
 6966TIP3    H220840   1.580   3.306   1.249
 6967TIP3   OH220841   7.706   3.647   4.711
 6967TIP3    H120842   7.797   3.676   4.702
 6967TIP3    H220843   7.666   3.713   4.769
 6968TIP3   OH220844   5.154   6.416   3.261
 6968TIP3    H120845   5.182   6.505   3.281
 6968TIP3    H220846   5.212   6.387   3.192
 6969TIP3   OH220847   6.769   5.250   5.036
 6969TIP3    H120848   6.746   5.158   5.042
 6969TIP3    H220849   6.724   5.281   4.957
 6970TIP3   OH220850   6.265   7.756   1.350
 6970TIP3    H120851   6.255   7.767   1.255
 6970TIP3    H220852   6.220   7.832   1.387
 6971TIP3   OH220853   3.871   6.056   6.013
 6971TIP3    H120854   3.844   6.114   6.084
 6971TIP3    H220855   3.945   6.007   6.050
 6972TIP3   OH220856   4.788   4.717   5.190
 6972TIP3    H120857   4.782   4.668   5.108
 6972TIP3    H220858   4.828   4.800   5.166
 6973TIP3   OH220859   7.694   5.058   0.869
 6973TIP3    H120860   7.629   5.107   0.819
 6973TIP3    H220861   7.739   5.123   0.923
 6974TIP3   OH220862   6.943   3.220   0.504
 6974TIP3    H120863   6.902   3.168   0.435
 6974TIP3    H220864   6.908   3.183   0.586
 6975TIP3   OH220865   2.992   3.717   6.614
 6975TIP3    H120866   2.988   3.812   6.604
 6975TIP3    H220867   2.911   3.694   6.660
 6976TIP3   OH220868   1.834   0.494   1.713
 6976TIP3    H120869   1.784   0.531   1.786
 6976TIP3    H220870   1.780   0.422   1.681
 6977TIP3   OH220871   7.090   7.466   4.346
 6977TIP3    H120872   7.160   7.417   4.302
 6977TIP3    H220873   7.135   7.521   4.410
 6978TIP3   OH220874   3.027   0.070   4.559
 6978TIP3    H120875   3.076   0.017   4.496
 6978TIP3    H220876   3.066   0.157   4.553
 6979TIP3   OH220877   5.773   7.674   4.883
 6979TIP3    H120878   5.844   7.738   4.887
 6979TIP3    H220879   5.729   7.693   4.800
 6980TIP3   OH220880   5.934   7.011   1.880
 6980TIP3    H120881   5.895   7.042   1.798
 6980TIP3    H220882   5.859   6.980   1.931
 6981TIP3   OH220883   0.574   0.831   2.914
 6981TIP3    H120884   0.581   0.781   2.833
 6981TIP3    H220885   0.663   0.833   2.948
 6982TIP3   OH220886   6.786   5.385   6.626
 6982TIP3    H120887   6.787   5.420   6.715
 6982TIP3    H220888   6.731   5.445   6.577
 6983TIP3   OH220889   5.029   4.773   2.941
 6983TIP3    H120890   5.028   4.699   2.881
 6983TIP3    H220891   5.043   4.849   2.885
 6984TIP3   OH220892   2.659   0.153   4.436
 6984TIP3    H120893   2.582   0.148   4.494
 6984TIP3    H220894   2.705   0.231   4.466
 6985TIP3   OH220895   3.285   5.668   3.767
 6985TIP3    H120896   3.256   5.741   3.821
 6985TIP3    H220897   3.318   5.604   3.830
 6986TIP3   OH220898   1.881   2.242   3.043
 6986TIP3    H120899   1.864   2.148   3.039
 6986TIP3    H220900   1.962   2.254   2.993
 6987TIP3   OH220901   0.867   6.766   0.376
 6987TIP3    H120902   0.906   6.730   0.456
 6987TIP3    H220903   0.809   6.836   0.407
 6988TIP3   OH220904   4.400   1.463   0.980
 6988TIP3    H120905   4.377   1.453   1.073
 6988TIP3    H220906   4.453   1.543   0.977
 6989TIP3   OH220907   1.731   3.191   6.385
 6989TIP3    H120908   1.636   3.179   6.395
 6989TIP3    H220909   1.745   3.284   6.403
 6990TIP3   OH220910   3.824   1.744   5.081
 6990TIP3    H120911   3.850   1.768   4.993
 6990TIP3    H220912   3.778   1.821   5.115
 6991TIP3   OH220913   3.083   4.332   2.242
 6991TIP3    H120914   3.158   4.281   2.210
 6991TIP3    H220915   3.085   4.319   2.337
 6992TIP3   OH220916   0.863   5.480   1.783
 6992TIP3    H120917   0.771   5.456   1.774
 6992TIP3    H220918   0.873   5.501   1.876
 6993TIP3   OH220919   6.137   5.090   3.355
 6993TIP3    H120920   6.171   5.035   3.285
 6993TIP3    H220921   6.165   5.047   3.436
 6994TIP3   OH220922   0.419   5.001   1.232
 6994TIP3    H120923   0.364   5.012   1.310
 6994TIP3    H220924   0.498   4.956   1.264
 6995TIP3   OH220925   7.540   3.499   0.223
 6995TIP3    H120926   7.621   3.465   0.260
 6995TIP3    H220927   7.567   3.577   0.174
 6996TIP3   OH220928   8.076   2.703   5.328
 6996TIP3    H120929   8.121   2.698   5.413
 6996TIP3    H220930   8.042   2.615   5.313
 6997TIP3   OH220931   0.267   2.956   1.252
 6997TIP3    H120932   0.250   2.882   1.310
 6997TIP3    H220933   0.330   2.923   1.189
 6998TIP3   OH220934   0.757   3.227   4.673
 6998TIP3    H120935   0.718   3.148   4.711
 6998TIP3    H220936   0.839   3.196   4.633
 6999TIP3   OH220937   2.192   4.868   6.170
 6999TIP3    H120938   2.143   4.926   6.228
 6999TIP3    H220939   2.236   4.807   6.229
 7000TIP3   OH220940   6.723   4.958   5.090
 7000TIP3    H120941   6.633   4.944   5.062
 7000TIP3    H220942   6.723   4.937   5.183
 7001TIP3   OH220943   2.293   7.882   2.524
 7001TIP3    H120944   2.286   7.910   2.615
 7001TIP3    H220945   2.295   7.786   2.528
 7002TIP3   OH220946   5.705   2.292   4.170
 7002TIP3    H120947   5.726   2.200   4.159
 7002TIP3    H220948   5.764   2.338   4.111
 7003TIP3   OH220949   0.639   4.098   1.088
 7003TIP3    H120950   0.679   4.173   1.044
 7003TIP3    H220951   0.664   4.108   1.180
 7004TIP3   OH220952   1.575   1.716   6.749
 7004TIP3    H120953   1.544   1.654   6.815
 7004TIP3    H220954   1.523   1.795   6.765
 7005TIP3   OH220955   2.990   5.823   1.705
 7005TIP3    H120956   3.053   5.860   1.768
 7005TIP3    H220957   2.944   5.900   1.670
 7006TIP3   OH220958   6.629   2.110   3.732
 7006TIP3    H120959   6.592   2.183   3.683
 7006TIP3    H220960   6.718   2.139   3.755
 7007TIP3   OH220961   7.080   1.211   6.131
 7007TIP3    H120962   7.137   1.214   6.207
 7007TIP3    H220963   7.049   1.121   6.127
 7008TIP3   OH220964   6.435   3.894   4.880
 7008TIP3    H120965   6.456   3.975   4.832
 7008TIP3    H220966   6.347   3.872   4.851
 7009TIP3   OH220967   7.103   6.985   1.855
 7009TIP3    H120968   7.101   6.985   1.951
 7009TIP3    H220969   7.103   6.892   1.831
 7010TIP3   OH220970   2.639   0.118   6.088
 7010TIP3    H120971   2.693   0.113   6.009
 7010TIP3    H220972   2.550   0.102   6.057
 7011TIP3   OH220973   5.340   0.985   0.264
 7011TIP3    H120974   5.348   1.008   0.356
 7011TIP3    H220975   5.423   0.943   0.242
 7012TIP3   OH220976   2.937   6.272   1.454
 7012TIP3    H120977   2.877   6.313   1.392
 7012TIP3    H220978   2.926   6.178   1.440
 7013TIP3   OH220979   1.862   0.929   3.697
 7013TIP3    H120980   1.918   0.921   3.620
 7013TIP3    H220981   1.886   1.013   3.736
 7014TIP3   OH220982   2.347   6.891   0.703
 7014TIP3    H120983   2.283   6.842   0.755
 7014TIP3    H220984   2.424   6.834   0.700
 7015TIP3   OH220985   0.049   1.173   4.495
 7015TIP3    H120986  -0.036   1.214   4.514
 7015TIP3    H220987   0.039   1.135   4.408
 7016TIP3   OH220988  -0.014   4.761   2.349
 7016TIP3    H120989   0.079   4.739   2.344
 7016TIP3    H220990  -0.054   4.715   2.275
 7017TIP3   OH220991   5.277   5.502   1.720
 7017TIP3    H120992   5.216   5.467   1.785
 7017TIP3    H220993   5.230   5.574   1.678
 7018TIP3   OH220994   1.853   4.382   2.889
 7018TIP3    H120995   1.808   4.307   2.852
 7018TIP3    H220996   1.946   4.357   2.889
 7019TIP3   OH220997   3.930   6.921   4.228
 7019TIP3    H120998   3.916   6.892   4.318
 7019TIP3    H220999   4.025   6.932   4.220
 7020TIP3   OH221000   2.767   3.011   2.706
 7020TIP3    H121001   2.737   2.955   2.778
 7020TIP3    H221002   2.853   2.977   2.683
 7021TIP3   OH221003   2.451   2.375   1.177
 7021TIP3    H121004   2.460   2.349   1.085
 7021TIP3    H221005   2.406   2.302   1.219
 7022TIP3   OH221006   3.645   1.903   4.699
 7022TIP3    H121007   3.733   1.936   4.711
 7022TIP3    H221008   3.588   1.975   4.727
 7023TIP3   OH221009   5.990   1.535   0.268
 7023TIP3    H121010   5.929   1.480   0.316
 7023TIP3    H221011   5.996   1.495   0.181
 7024TIP3   OH221012   4.775   3.577   0.965
 7024TIP3    H121013   4.838   3.579   1.037
 7024TIP3    H221014   4.827   3.557   0.887
 7025TIP3   OH221015   7.267   1.809   1.591
 7025TIP3    H121016   7.338   1.800   1.654
 7025TIP3    H221017   7.311   1.819   1.507
 7026TIP3   OH221018   2.288   4.343   0.063
 7026TIP3    H121019   2.352   4.274   0.050
 7026TIP3    H221020   2.340   4.421   0.085
 7027TIP3   OH221021   3.874   0.528   0.332
 7027TIP3    H121022   3.794   0.485   0.301
 7027TIP3    H221023   3.843   0.605   0.379
 7028TIP3   OH221024   6.888   4.779   0.634
 7028TIP3    H121025   6.902   4.851   0.573
 7028TIP3    H221026   6.887   4.700   0.579
 7029TIP3   OH221027   5.485   6.816   4.168
 7029TIP3    H121028   5.515   6.725   4.176
 7029TIP3    H221029   5.401   6.810   4.122
 7030TIP3   OH221030   3.428   4.555   2.214
 7030TIP3    H121031   3.484   4.584   2.286
 7030TIP3    H221032   3.376   4.632   2.190
 7031TIP3   OH221033   7.206   2.520   2.252
 7031TIP3    H121034   7.179   2.494   2.163
 7031TIP3    H221035   7.173   2.609   2.262
 7032TIP3   OH221036   7.919   7.891   5.209
 7032TIP3    H121037   7.975   7.891   5.131
 7032TIP3    H221038   7.978   7.871   5.281
 7033TIP3   OH221039   0.097   4.370   6.357
 7033TIP3    H121040   0.075   4.285   6.395
 7033TIP3    H221041   0.136   4.349   6.273
 7034TIP3   OH221042   7.765   5.919   3.067
 7034TIP3    H121043   7.853   5.945   3.038
 7034TIP3    H221044   7.781   5.859   3.140
 7035TIP3   OH221045   5.721   1.228   2.857
 7035TIP3    H121046   5.785   1.209   2.789
 7035TIP3    H221047   5.643   1.256   2.810
 7036TIP3   OH221048   2.620   3.213   1.009
 7036TIP3    H121049   2.537   3.182   0.972
 7036TIP3    H221050   2.606   3.213   1.103
 7037TIP3   OH221051   7.705   1.596   4.252
 7037TIP3    H121052   7.691   1.661   4.321
 7037TIP3    H221053   7.661   1.517   4.283
 7038TIP3   OH221054   8.165   3.432   0.978
 7038TIP3    H121055   8.256   3.452   0.957
 7038TIP3    H221056   8.126   3.407   0.894
 7039TIP3   OH221057   5.027   0.800   3.761
 7039TIP3    H121058   4.998   0.732   3.822
 7039TIP3    H221059   4.958   0.867   3.765
 7040TIP3   OH221060   2.278   6.299   0.502
 7040TIP3    H121061   2.243   6.236   0.565
 7040TIP3    H221062   2.201   6.351   0.475
 7041TIP3   OH221063   3.076   4.165   1.477
 7041TIP3    H121064   3.007   4.153   1.412
 7041TIP3    H221065   3.145   4.104   1.449
 7042TIP3   OH221066   1.337   2.197   5.327
 7042TIP3    H121067   1.382   2.197   5.242
 7042TIP3    H221068   1.383   2.131   5.379
 7043TIP3   OH221069   1.465   2.295   0.748
 7043TIP3    H121070   1.403   2.341   0.804
 7043TIP3    H221071   1.412   2.260   0.677
 7044TIP3   OH221072   5.238   3.061   2.348
 7044TIP3    H121073   5.158   3.091   2.392
 7044TIP3    H221074   5.309   3.099   2.400
 7045TIP3   OH221075   4.813   7.091   3.759
 7045TIP3    H121076   4.845   7.110   3.847
 7045TIP3    H221077   4.891   7.094   3.704
 7046TIP3   OH221078   1.223   7.172   1.428
 7046TIP3    H121079   1.204   7.094   1.479
 7046TIP3    H221080   1.190   7.152   1.340
 7047TIP3   OH221081   7.777   5.133   0.197
 7047TIP3    H121082   7.776   5.162   0.288
 7047TIP3    H221083   7.793   5.039   0.201
 7048TIP3   OH221084   6.825   2.464   4.746
 7048TIP3    H121085   6.844   2.535   4.806
 7048TIP3    H221086   6.849   2.498   4.660
 7049TIP3   OH221087   1.320   2.427   3.245
 7049TIP3    H121088   1.261   2.361   3.209
 7049TIP3    H221089   1.359   2.386   3.322
 7050TIP3   OH221090   0.051   7.514   4.200
 7050TIP3    H121091   0.023   7.430   4.238
 7050TIP3    H221092  -0.018   7.575   4.226
 7051TIP3   OH221093   1.630   4.730   3.197
 7051TIP3    H121094   1.698   4.666   3.221
 7051TIP3    H221095   1.608   4.708   3.107
 7052TIP3   OH221096   2.509   0.445   2.269
 7052TIP3    H121097   2.494   0.395   2.188
 7052TIP3    H221098   2.556   0.384   2.326
 7053TIP3   OH221099   7.239   5.874   4.984
 7053TIP3    H121100   7.158   5.824   4.991
 7053TIP3    H221101   7.308   5.808   4.977
 7054TIP3   OH221102   3.850   5.436   5.756
 7054TIP3    H121103   3.823   5.490   5.682
 7054TIP3    H221104   3.920   5.381   5.722
 7055TIP3   OH221105   0.203   5.797   2.289
 7055TIP3    H121106   0.254   5.878   2.291
 7055TIP3    H221107   0.267   5.728   2.272
 7056TIP3   OH221108   3.309   7.502   4.307
 7056TIP3    H121109   3.333   7.459   4.389
 7056TIP3    H221110   3.220   7.473   4.289
 7057TIP3   OH221111   2.529   5.931   6.362
 7057TIP3    H121112   2.478   5.852   6.377
 7057TIP3    H221113   2.518   5.983   6.442
 7058TIP3   OH221114   7.579   1.743   0.354
 7058TIP3    H121115   7.672   1.763   0.339
 7058TIP3    H221116   7.547   1.718   0.267
 7059TIP3   OH221117   3.554   4.012   4.070
 7059TIP3    H121118   3.514   4.017   4.157
 7059TIP3    H221119   3.512   3.937   4.029
 7060TIP3   OH221120   5.349   4.019   0.062
 7060TIP3    H121121   5.253   4.013   0.063
 7060TIP3    H221122   5.367   4.113   0.066
 7061TIP3   OH221123   4.060   4.208   3.920
 7061TIP3    H121124   4.141   4.200   3.971
 7061TIP3    H221125   3.990   4.193   3.984
 7062TIP3   OH221126   3.506   1.216   6.039
 7062TIP3    H121127   3.466   1.165   5.968
 7062TIP3    H221128   3.549   1.151   6.094
 7063TIP3   OH221129   2.235   3.984   2.363
 7063TIP3    H121130   2.291   3.914   2.328
 7063TIP3    H221131   2.176   3.939   2.424
 7064TIP3   OH221132   0.731   1.434   4.148
 7064TIP3    H121133   0.741   1.366   4.081
 7064TIP3    H221134   0.820   1.462   4.168
 7065TIP3   OH221135   3.948   4.417   5.264
 7065TIP3    H121136   4.021   4.381   5.315
 7065TIP3    H221137   3.979   4.502   5.233
 7066TIP3   OH221138   0.325   7.454   3.804
 7066TIP3    H121139   0.230   7.454   3.793
 7066TIP3    H221140   0.359   7.422   3.721
 7067TIP3   OH221141   1.882   1.641   3.901
 7067TIP3    H121142   1.898   1.681   3.816
 7067TIP3    H221143   1.821   1.700   3.945
 7068TIP3   OH221144   1.520   7.667   1.940
 7068TIP3    H121145   1.495   7.641   2.029
 7068TIP3    H221146   1.553   7.587   1.900
 7069TIP3   OH221147   2.602   0.965   2.411
 7069TIP3    H121148   2.614   0.955   2.317
 7069TIP3    H221149   2.596   0.876   2.445
 7070TIP3   OH221150   8.144   3.127   1.669
 7070TIP3    H121151   8.062   3.109   1.716
 7070TIP3    H221152   8.116   3.179   1.594
 7071TIP3   OH221153   1.137   1.245   1.332
 7071TIP3    H121154   1.191   1.200   1.268
 7071TIP3    H221155   1.114   1.328   1.290
 7072TIP3   OH221156   7.845   2.817   5.433
 7072TIP3    H121157   7.911   2.788   5.370
 7072TIP3    H221158   7.827   2.908   5.408
 7073TIP3   OH221159   8.243   5.950   5.729
 7073TIP3    H121160   8.184   5.977   5.659
 7073TIP3    H221161   8.282   5.869   5.697
 7074TIP3   OH221162   5.432   6.028   6.806
 7074TIP3    H121163   5.452   6.013   6.899
 7074TIP3    H221164   5.340   6.054   6.806
 7075TIP3   OH221165   2.490   2.874   2.547
 7075TIP3    H121166   2.462   2.958   2.511
 7075TIP3    H221167   2.455   2.809   2.487
 7076TIP3   OH221168   3.659   0.934   4.166
 7076TIP3    H121169   3.658   1.010   4.224
 7076TIP3    H221170   3.576   0.939   4.119
 7077TIP3   OH221171   5.552   5.589   1.628
 7077TIP3    H121172   5.617   5.597   1.558
 7077TIP3    H221173   5.565   5.667   1.682
 7078TIP3   OH221174   5.384   2.897   3.654
 7078TIP3    H121175   5.431   2.819   3.628
 7078TIP3    H221176   5.307   2.900   3.597
 7079TIP3   OH221177   0.119   2.111   0.661
 7079TIP3    H121178   0.145   2.020   0.672
 7079TIP3    H221179   0.087   2.116   0.571
 7080TIP3   OH221180   1.488   1.266   5.520
 7080TIP3    H121181   1.397   1.236   5.518
 7080TIP3    H221182   1.530   1.223   5.446
 7081TIP3   OH221183   3.653   6.606   0.625
 7081TIP3    H121184   3.603   6.688   0.629
 7081TIP3    H221185   3.739   6.631   0.591
 7082TIP3   OH221186   2.362   1.802   0.138
 7082TIP3    H121187   2.394   1.765   0.221
 7082TIP3    H221188   2.330   1.889   0.162
 7083TIP3   OH221189   6.608   6.307   4.085
 7083TIP3    H121190   6.697   6.303   4.121
 7083TIP3    H221191   6.621   6.317   3.990
 7084TIP3   OH221192   1.658   2.802   6.883
 7084TIP3    H121193   1.661   2.775   6.791
 7084TIP3    H221194   1.633   2.723   6.930
 7085TIP3   OH221195   0.873   6.228   6.548
 7085TIP3    H121196   0.897   6.317   6.523
 7085TIP3    H221197   0.900   6.175   6.473
 7086TIP3   OH221198   0.666   5.145   5.198
 7086TIP3    H121199   0.714   5.102   5.127
 7086TIP3    H221200   0.732   5.194   5.247
 7087TIP3   OH221201   6.777   5.450   4.403
 7087TIP3    H121202   6.841   5.491   4.344
 7087TIP3    H221203   6.748   5.521   4.460
 7088TIP3   OH221204   1.800   6.885   2.278
 7088TIP3    H121205   1.726   6.884   2.216
 7088TIP3    H221206   1.877   6.888   2.222
 7089TIP3   OH221207   6.936   4.485   2.482
 7089TIP3    H121208   6.912   4.500   2.390
 7089TIP3    H221209   7.028   4.460   2.479
 7090TIP3   OH221210   6.680   0.992   1.587
 7090TIP3    H121211   6.596   0.947   1.601
 7090TIP3    H221212   6.663   1.082   1.614
 7091TIP3   OH221213   5.953   7.432   6.818
 7091TIP3    H121214   5.924   7.456   6.730
 7091TIP3    H221215   6.021   7.497   6.839
 7092TIP3   OH221216   5.168   3.649   2.983
 7092TIP3    H121217   5.135   3.662   3.072
 7092TIP3    H221218   5.108   3.699   2.928
 7093TIP3   OH221219   3.035   5.748   5.761
 7093TIP3    H121220   3.015   5.737   5.668
 7093TIP3    H221221   3.127   5.773   5.763
 7094TIP3   OH221222   2.316   0.577   2.411
 7094TIP3    H121223   2.378   0.523   2.362
 7094TIP3    H221224   2.255   0.609   2.344
 7095TIP3   OH221225   0.652   4.162   4.411
 7095TIP3    H121226   0.670   4.212   4.490
 7095TIP3    H221227   0.620   4.227   4.348
 7096TIP3   OH221228   5.807   0.272   5.704
 7096TIP3    H121229   5.856   0.341   5.658
 7096TIP3    H221230   5.856   0.257   5.785
 7097TIP3   OH221231   3.626   6.421   5.220
 7097TIP3    H121232   3.554   6.366   5.252
 7097TIP3    H221233   3.648   6.384   5.135
 7098TIP3   OH221234   7.844   1.606   0.529
 7098TIP3    H121235   7.843   1.639   0.439
 7098TIP3    H221236   7.860   1.512   0.521
 7099TIP3   OH221237   4.421   0.150   0.381
 7099TIP3    H121238   4.395   0.171   0.471
 7099TIP3    H221239   4.451   0.234   0.345
 7100TIP3   OH221240   1.058   5.121   4.725
 7100TIP3    H121241   1.022   5.033   4.710
 7100TIP3    H221242   1.152   5.106   4.740
 7101TIP3   OH221243   7.361   0.287   3.053
 7101TIP3    H121244   7.341   0.206   3.099
 7101TIP3    H221245   7.456   0.287   3.044
 7102TIP3   OH221246   0.965   0.162   2.026
 7102TIP3    H121247   0.952   0.086   2.083
 7102TIP3    H221248   1.025   0.218   2.076
 7103TIP3   OH221249   0.540   5.323   0.492
 7103TIP3    H121250   0.577   5.262   0.556
 7103TIP3    H221251   0.518   5.267   0.417
 7104TIP3   OH221252   6.064   5.365   4.680
 7104TIP3    H121253   5.988   5.424   4.688
 7104TIP3    H221254   6.124   5.412   4.622
 7105TIP3   OH221255   7.360   4.539   4.946
 7105TIP3    H121256   7.309   4.497   5.015
 7105TIP3    H221257   7.439   4.570   4.990
 7106TIP3   OH221258   2.617   4.533   5.428
 7106TIP3    H121259   2.610   4.524   5.333
 7106TIP3    H221260   2.710   4.526   5.446
 7107TIP3   OH221261   6.982   1.058   3.688
 7107TIP3    H121262   7.020   1.004   3.757
 7107TIP3    H221263   7.054   1.072   3.626
 7108TIP3   OH221264   2.828   0.676   3.028
 7108TIP3    H121265   2.874   0.621   2.964
 7108TIP3    H221266   2.749   0.704   2.982
 7109TIP3   OH221267   6.618   5.751   2.579
 7109TIP3    H121268   6.674   5.790   2.511
 7109TIP3    H221269   6.599   5.823   2.638
 7110TIP3   OH221270   2.401   5.148   3.963
 7110TIP3    H121271   2.454   5.158   4.042
 7110TIP3    H221272   2.322   5.104   3.994
 7111TIP3   OH221273   3.426   6.776   6.326
 7111TIP3    H121274   3.406   6.864   6.294
 7111TIP3    H221275   3.417   6.720   6.248
 7112TIP3   OH221276   6.683   0.560   0.923
 7112TIP3    H121277   6.618   0.571   0.992
 7112TIP3    H221278   6.698   0.649   0.890
 7113TIP3   OH221279   3.262   1.699   3.348
 7113TIP3    H121280   3.233   1.767   3.410
 7113TIP3    H221281   3.330   1.741   3.296
 7114TIP3   OH221282   4.014   7.243   1.494
 7114TIP3    H121283   4.085   7.262   1.556
 7114TIP3    H221284   3.978   7.329   1.472
 7115TIP3   OH221285   4.928   0.892   2.816
 7115TIP3    H121286   4.911   0.975   2.860
 7115TIP3    H221287   4.873   0.829   2.863
 7116TIP3   OH221288   6.301   0.559   6.516
 7116TIP3    H121289   6.372   0.553   6.580
 7116TIP3    H221290   6.280   0.468   6.496
 7117TIP3   OH221291   7.796   7.416   5.511
 7117TIP3    H121292   7.806   7.323   5.531
 7117TIP3    H221293   7.864   7.459   5.562
 7118TIP3   OH221294   3.518   2.273   4.050
 7118TIP3    H121295   3.469   2.331   4.107
 7118TIP3    H221296   3.504   2.186   4.087
 7119TIP3   OH221297   3.206   3.328   1.430
 7119TIP3    H121298   3.151   3.375   1.368
 7119TIP3    H221299   3.288   3.313   1.382
 7120TIP3   OH221300   2.656   0.314   0.723
 7120TIP3    H121301   2.622   0.293   0.810
 7120TIP3    H221302   2.704   0.236   0.696
 7121TIP3   OH221303   7.470   5.368   4.388
 7121TIP3    H121304   7.436   5.348   4.476
 7121TIP3    H221305   7.564   5.381   4.401
 7122TIP3   OH221306   3.257   6.314   3.063
 7122TIP3    H121307   3.246   6.328   3.158
 7122TIP3    H221308   3.302   6.230   3.057
 7123TIP3   OH221309   4.235   2.562   0.993
 7123TIP3    H121310   4.218   2.614   1.071
 7123TIP3    H221311   4.288   2.618   0.937
 7124TIP3   OH221312   5.681   7.015   6.389
 7124TIP3    H121313   5.669   6.931   6.434
 7124TIP3    H221314   5.716   6.991   6.303
 7125TIP3   OH221315   1.764   0.533   0.770
 7125TIP3    H121316   1.774   0.619   0.728
 7125TIP3    H221317   1.703   0.548   0.842
 7126TIP3   OH221318   4.347   3.056   6.542
 7126TIP3    H121319   4.394   3.067   6.459
 7126TIP3    H221320   4.284   3.128   6.544
 7127TIP3   OH221321   0.530   3.735   0.803
 7127TIP3    H121322   0.590   3.664   0.781
 7127TIP3    H221323   0.516   3.780   0.719
 7128TIP3   OH221324   1.616   3.899   2.577
 7128TIP3    H121325   1.699   3.933   2.544
 7128TIP3    H221326   1.567   3.873   2.499
 7129TIP3   OH221327   7.864   1.446   6.509
 7129TIP3    H121328   7.918   1.513   6.552
 7129TIP3    H221329   7.882   1.366   6.558
 7130TIP3   OH221330   0.547   0.867   4.773
 7130TIP3    H121331   0.539   0.962   4.781
 7130TIP3    H221332   0.637   0.853   4.745
 7131TIP3   OH221333   1.269   1.485   4.968
 7131TIP3    H121334   1.232   1.554   5.024
 7131TIP3    H221335   1.205   1.475   4.898
 7132TIP3   OH221336   1.541   7.850   3.899
 7132TIP3    H121337   1.536   7.770   3.953
 7132TIP3    H221338   1.584   7.822   3.818
 7133TIP3   OH221339   1.929   4.519   1.202
 7133TIP3    H121340   1.916   4.551   1.113
 7133TIP3    H221341   1.880   4.436   1.204
 7134TIP3   OH221342   1.010   3.174   0.651
 7134TIP3    H121343   0.955   3.248   0.624
 7134TIP3    H221344   1.007   3.175   0.746
 7135TIP3   OH221345   1.847   5.247   1.120
 7135TIP3    H121346   1.857   5.222   1.028
 7135TIP3    H221347   1.756   5.226   1.141
 7136TIP3   OH221348   4.645   5.971   3.266
 7136TIP3    H121349   4.619   5.958   3.357
 7136TIP3    H221350   4.741   5.975   3.268
 7137TIP3   OH221351   1.936   4.290   0.897
 7137TIP3    H121352   1.889   4.373   0.900
 7137TIP3    H221353   1.931   4.262   0.806
 7138TIP3   OH221354   3.577   6.269   2.569
 7138TIP3    H121355   3.561   6.361   2.549
 7138TIP3    H221356   3.603   6.269   2.662
 7139TIP3   OH221357   3.997   3.784   4.527
 7139TIP3    H121358   4.077   3.737   4.503
 7139TIP3    H221359   3.978   3.754   4.616
 7140TIP3   OH221360   0.455   2.384   3.638
 7140TIP3    H121361   0.408   2.467   3.643
 7140TIP3    H221362   0.510   2.391   3.560
 7141TIP3   OH221363   2.532   5.833   6.095
 7141TIP3    H121364   2.553   5.888   6.171
 7141TIP3    H221365   2.451   5.870   6.060
 7142TIP3   OH221366   3.102   0.343   4.508
 7142TIP3    H121367   3.154   0.326   4.429
 7142TIP3    H221368   3.094   0.438   4.512
 7143TIP3   OH221369   6.857   4.705   3.331
 7143TIP3    H121370   6.909   4.711   3.251
 7143TIP3    H221371   6.820   4.617   3.329
 7144TIP3   OH221372   4.107   0.140   6.763
 7144TIP3    H121373   4.152   0.220   6.734
 7144TIP3    H221374   4.034   0.172   6.816
 7145TIP3   OH221375   2.655   4.577   6.707
 7145TIP3    H121376   2.707   4.514   6.757
 7145TIP3    H221377   2.567   4.540   6.707
 7146TIP3   OH221378   5.015   7.400   0.710
 7146TIP3    H121379   4.955   7.419   0.638
 7146TIP3    H221380   4.962   7.352   0.773
 7147TIP3   OH221381   0.242   1.573   0.831
 7147TIP3    H121382   0.220   1.490   0.874
 7147TIP3    H221383   0.198   1.640   0.883
 7148TIP3   OH221384   6.457   7.645   3.777
 7148TIP3    H121385   6.503   7.621   3.858
 7148TIP3    H221386   6.364   7.645   3.802
 7149TIP3   OH221387   3.152   7.247   5.795
 7149TIP3    H121388   3.077   7.299   5.824
 7149TIP3    H221389   3.228   7.291   5.833
 7150TIP3   OH221390   6.810   0.252   4.515
 7150TIP3    H121391   6.791   0.159   4.526
 7150TIP3    H221392   6.867   0.274   4.588
 7151TIP3   OH221393   5.983   5.997   1.938
 7151TIP3    H121394   5.976   6.054   1.861
 7151TIP3    H221395   6.016   6.055   2.007
 7152TIP3   OH221396   0.947   5.046   2.837
 7152TIP3    H121397   0.917   5.062   2.926
 7152TIP3    H221398   0.925   4.955   2.820
 7153TIP3   OH221399   2.709   1.977   4.714
 7153TIP3    H121400   2.651   2.054   4.717
 7153TIP3    H221401   2.745   1.972   4.802
 7154TIP3   OH221402   1.400   1.503   4.628
 7154TIP3    H121403   1.307   1.505   4.602
 7154TIP3    H221404   1.439   1.439   4.569
 7155TIP3   OH221405   1.826   3.040   4.517
 7155TIP3    H121406   1.815   3.010   4.607
 7155TIP3    H221407   1.903   3.097   4.520
 7156TIP3   OH221408   7.298   1.801   3.911
 7156TIP3    H121409   7.334   1.761   3.831
 7156TIP3    H221410   7.375   1.819   3.965
 7157TIP3   OH221411   0.233   4.964   1.468
 7157TIP3    H121412   0.139   4.982   1.457
 7157TIP3    H221413   0.237   4.875   1.503
 7158TIP3   OH221414   4.259   4.980   3.899
 7158TIP3    H121415   4.242   4.979   3.804
 7158TIP3    H221416   4.173   4.992   3.939
 7159TIP3   OH221417   7.588   4.596   2.767
 7159TIP3    H121418   7.669   4.598   2.819
 7159TIP3    H221419   7.616   4.565   2.681
 7160TIP3   OH221420   1.366   5.438   5.861
 7160TIP3    H121421   1.304   5.390   5.916
 7160TIP3    H221422   1.358   5.399   5.774
 7161TIP3   OH221423   0.954   4.743   2.836
 7161TIP3    H121424   0.959   4.656   2.796
 7161TIP3    H221425   1.046   4.766   2.852
 7162TIP3   OH221426   3.479   1.354   6.690
 7162TIP3    H121427   3.553   1.310   6.650
 7162TIP3    H221428   3.433   1.396   6.617
 7163TIP3   OH221429   4.579   5.316   4.110
 7163TIP3    H121430   4.565   5.337   4.018
 7163TIP3    H221431   4.670   5.340   4.127
 7164TIP3   OH221432   8.200   4.860   0.637
 7164TIP3    H121433   8.251   4.818   0.568
 7164TIP3    H221434   8.136   4.915   0.590
 7165TIP3   OH221435   0.996   6.961   0.721
 7165TIP3    H121436   0.991   7.055   0.739
 7165TIP3    H221437   0.948   6.920   0.793
 7166TIP3   OH221438   2.709   3.027   0.778
 7166TIP3    H121439   2.708   3.049   0.685
 7166TIP3    H221440   2.694   3.110   0.823
 7167TIP3   OH221441   5.356   6.440   3.013
 7167TIP3    H121442   5.442   6.428   2.974
 7167TIP3    H221443   5.341   6.535   3.011
 7168TIP3   OH221444   8.341   7.829   6.834
 7168TIP3    H121445   8.375   7.822   6.923
 7168TIP3    H221446   8.259   7.878   6.844
 7169TIP3   OH221447   3.977   6.113   1.374
 7169TIP3    H121448   3.982   6.183   1.439
 7169TIP3    H221449   3.963   6.033   1.425
 7170TIP3   OH221450   5.348   0.419   3.347
 7170TIP3    H121451   5.272   0.448   3.296
 7170TIP3    H221452   5.321   0.335   3.384
 7171TIP3   OH221453   0.590   6.309   4.360
 7171TIP3    H121454   0.680   6.285   4.383
 7171TIP3    H221455   0.545   6.319   4.444
 7172TIP3   OH221456   3.144   6.050   5.297
 7172TIP3    H121457   3.120   6.134   5.336
 7172TIP3    H221458   3.236   6.038   5.322
 7173TIP3   OH221459   6.058   2.926   3.286
 7173TIP3    H121460   5.998   3.000   3.278
 7173TIP3    H221461   6.007   2.851   3.255
 7174TIP3   OH221462   5.421   3.457   2.879
 7174TIP3    H121463   5.455   3.514   2.948
 7174TIP3    H221464   5.499   3.418   2.840
 7175TIP3   OH221465   7.208   1.294   4.632
 7175TIP3    H121466   7.133   1.348   4.604
 7175TIP3    H221467   7.211   1.306   4.727
 7176TIP3   OH221468   2.159   4.572   1.330
 7176TIP3    H121469   2.081   4.552   1.278
 7176TIP3    H221470   2.220   4.502   1.310
 7177TIP3   OH221471   7.335   5.036   1.478
 7177TIP3    H121472   7.306   5.008   1.391
 7177TIP3    H221473   7.316   5.130   1.480
 7178TIP3   OH221474   0.421   6.386   2.780
 7178TIP3    H121475   0.450   6.472   2.813
 7178TIP3    H221476   0.426   6.394   2.685
 7179TIP3   OH221477   0.223   7.217   1.315
 7179TIP3    H121478   0.266   7.137   1.346
 7179TIP3    H221479   0.246   7.222   1.222
 7180TIP3   OH221480   2.769   2.903   0.154
 7180TIP3    H121481   2.844   2.955   0.183
 7180TIP3    H221482   2.808   2.828   0.109
 7181TIP3   OH221483   4.450   7.735   5.424
 7181TIP3    H121484   4.372   7.681   5.421
 7181TIP3    H221485   4.508   7.697   5.358
 7182TIP3   OH221486   1.844   2.309   6.491
 7182TIP3    H121487   1.797   2.280   6.569
 7182TIP3    H221488   1.797   2.270   6.418
 7183TIP3   OH221489   4.920   4.238   6.172
 7183TIP3    H121490   4.925   4.314   6.229
 7183TIP3    H221491   4.834   4.244   6.131
 7184TIP3   OH221492   3.666   3.335   4.445
 7184TIP3    H121493   3.694   3.328   4.537
 7184TIP3    H221494   3.633   3.424   4.437
 7185TIP3   OH221495   0.455   1.843   3.118
 7185TIP3    H121496   0.438   1.817   3.208
 7185TIP3    H221497   0.550   1.835   3.108
 7186TIP3   OH221498   8.278   3.161   0.140
 7186TIP3    H121499   8.217   3.109   0.087
 7186TIP3    H221500   8.240   3.162   0.227
 7187TIP3   OH221501   1.463   5.589   0.606
 7187TIP3    H121502   1.537   5.619   0.553
 7187TIP3    H221503   1.459   5.494   0.590
 7188TIP3   OH221504   7.368   1.422   1.851
 7188TIP3    H121505   7.408   1.411   1.765
 7188TIP3    H221506   7.383   1.515   1.873
 7189TIP3   OH221507   6.139   4.000   0.093
 7189TIP3    H121508   6.126   4.017  -0.001
 7189TIP3    H221509   6.095   4.073   0.137
 7190TIP3   OH221510   1.715   0.344   0.402
 7190TIP3    H121511   1.750   0.328   0.490
 7190TIP3    H221512   1.688   0.258   0.371
 7191TIP3   OH221513   8.186   2.304   5.246
 7191TIP3    H121514   8.135   2.318   5.326
 7191TIP3    H221515   8.207   2.210   5.248
 7192TIP3   OH221516   1.612   7.116   3.001
 7192TIP3    H121517   1.636   7.204   2.973
 7192TIP3    H221518   1.520   7.107   2.977
 7193TIP3   OH221519   6.558   3.893   5.116
 7193TIP3    H121520   6.506   3.880   5.037
 7193TIP3    H221521   6.612   3.970   5.097
 7194TIP3   OH221522   7.816   4.790   5.326
 7194TIP3    H121523   7.731   4.767   5.362
 7194TIP3    H221524   7.874   4.795   5.402
 7195TIP3   OH221525   0.543   1.415   1.359
 7195TIP3    H121526   0.482   1.487   1.373
 7195TIP3    H221527   0.627   1.457   1.340
 7196TIP3   OH221528   1.265   1.689   2.151
 7196TIP3    H121529   1.201   1.640   2.099
 7196TIP3    H221530   1.212   1.740   2.213
 7197TIP3   OH221531   6.992   2.291   0.968
 7197TIP3    H121532   7.011   2.207   1.011
 7197TIP3    H221533   7.073   2.341   0.978
 7198TIP3   OH221534   5.310   2.229   3.105
 7198TIP3    H121535   5.391   2.251   3.152
 7198TIP3    H221536   5.292   2.138   3.131
 7199TIP3   OH221537   2.503   6.755   1.093
 7199TIP3    H121538   2.594   6.778   1.114
 7199TIP3    H221539   2.451   6.794   1.163
 7200TIP3   OH221540   8.019   4.798   1.224
 7200TIP3    H121541   7.987   4.751   1.301
 7200TIP3    H221542   7.945   4.798   1.163
 7201TIP3   OH221543   0.427   6.572   3.967
 7201TIP3    H121544   0.473   6.653   3.989
 7201TIP3    H221545   0.475   6.504   4.014
 7202TIP3   OH221546   7.632   2.748   1.505
 7202TIP3    H121547   7.699   2.753   1.438
 7202TIP3    H221548   7.659   2.675   1.561
 7203TIP3   OH221549   6.113   2.504   0.989
 7203TIP3    H121550   6.095   2.598   0.992
 7203TIP3    H221551   6.068   2.468   1.066
 7204TIP3   OH221552   1.287   6.175   1.932
 7204TIP3    H121553   1.371   6.191   1.975
 7204TIP3    H221554   1.221   6.193   2.000
 7205TIP3   OH221555   2.300   6.030   6.252
 7205TIP3    H121556   2.321   6.114   6.211
 7205TIP3    H221557   2.383   6.000   6.287
 7206TIP3   OH221558   4.728   5.247   2.117
 7206TIP3    H121559   4.730   5.217   2.026
 7206TIP3    H221560   4.750   5.169   2.169
 7207TIP3   OH221561   0.178   2.458   4.670
 7207TIP3    H121562   0.199   2.425   4.757
 7207TIP3    H221563   0.083   2.469   4.671
 7208TIP3   OH221564   1.002   0.986   5.103
 7208TIP3    H121565   0.952   1.031   5.171
 7208TIP3    H221566   1.053   1.055   5.061
 7209TIP3   OH221567   2.771   2.695   4.532
 7209TIP3    H121568   2.800   2.667   4.619
 7209TIP3    H221569   2.706   2.763   4.549
 7210TIP3   OH221570   2.751   4.650   5.760
 7210TIP3    H121571   2.823   4.703   5.795
 7210TIP3    H221572   2.787   4.561   5.754
 7211TIP3   OH221573   2.583   1.031   1.941
 7211TIP3    H121574   2.564   1.064   2.029
 7211TIP3    H221575   2.529   1.084   1.883
 7212TIP3   OH221576   1.803   0.848   2.424
 7212TIP3    H121577   1.789   0.843   2.519
 7212TIP3    H221578   1.877   0.909   2.414
 7213TIP3   OH221579   5.401   0.839   1.809
 7213TIP3    H121580   5.376   0.763   1.861
 7213TIP3    H221581   5.355   0.826   1.726
 7214TIP3   OH221582   0.942   3.431   3.483
 7214TIP3    H121583   0.900   3.347   3.503
 7214TIP3    H221584   1.014   3.409   3.424
 7215TIP3   OH221585   1.793   2.540   2.435
 7215TIP3    H121586   1.754   2.530   2.348
 7215TIP3    H221587   1.746   2.477   2.490
 7216TIP3   OH221588   2.589   2.036   5.120
 7216TIP3    H121589   2.555   2.094   5.052
 7216TIP3    H221590   2.560   1.949   5.095
 7217TIP3   OH221591   4.524   3.984   4.343
 7217TIP3    H121592   4.483   4.010   4.261
 7217TIP3    H221593   4.450   3.970   4.403
 7218TIP3   OH221594   3.309   6.334   6.291
 7218TIP3    H121595   3.224   6.303   6.259
 7218TIP3    H221596   3.372   6.269   6.260
 7219TIP3   OH221597   3.507   7.044   0.869
 7219TIP3    H121598   3.445   7.032   0.798
 7219TIP3    H221599   3.453   7.048   0.948
 7220TIP3   OH221600   4.451   1.753   0.718
 7220TIP3    H121601   4.494   1.731   0.801
 7220TIP3    H221602   4.358   1.733   0.733
 7221TIP3   OH221603   1.059   1.096   4.252
 7221TIP3    H121604   0.968   1.097   4.223
 7221TIP3    H221605   1.081   1.003   4.258
 7222TIP3   OH221606   4.034   0.144   4.534
 7222TIP3    H121607   4.123   0.143   4.570
 7222TIP3    H221608   4.042   0.104   4.448
 7223TIP3   OH221609   7.659   0.848   5.749
 7223TIP3    H121610   7.600   0.923   5.740
 7223TIP3    H221611   7.667   0.813   5.660
 7224TIP3   OH221612   0.225   7.856   6.733
 7224TIP3    H121613   0.134   7.853   6.763
 7224TIP3    H221614   0.260   7.936   6.770
 7225TIP3   OH221615   7.200   4.164   4.602
 7225TIP3    H121616   7.109   4.134   4.605
 7225TIP3    H221617   7.237   4.133   4.685
 7226TIP3   OH221618   6.813   6.207   2.110
 7226TIP3    H121619   6.863   6.197   2.191
 7226TIP3    H221620   6.801   6.117   2.079
 7227TIP3   OH221621   4.206   1.938   0.935
 7227TIP3    H121622   4.245   2.025   0.925
 7227TIP3    H221623   4.220   1.897   0.850
 7228TIP3   OH221624   4.954   1.697   3.243
 7228TIP3    H121625   4.864   1.707   3.214
 7228TIP3    H221626   4.995   1.641   3.176
 7229TIP3   OH221627   6.997   7.454   1.213
 7229TIP3    H121628   6.975   7.364   1.239
 7229TIP3    H221629   7.092   7.452   1.201
 7230TIP3   OH221630   8.090   6.552   1.856
 7230TIP3    H121631   8.145   6.576   1.931
 7230TIP3    H221632   8.003   6.587   1.877
 7231TIP3   OH221633   2.379   7.362   2.889
 7231TIP3    H121634   2.417   7.369   2.977
 7231TIP3    H221635   2.285   7.363   2.903
 7232TIP3   OH221636   1.099   1.680   2.971
 7232TIP3    H121637   1.121   1.672   2.878
 7232TIP3    H221638   1.155   1.616   3.015
 7233TIP3   OH221639   2.078   4.310   2.385
 7233TIP3    H121640   2.004   4.316   2.324
 7233TIP3    H221641   2.066   4.226   2.429
 7234TIP3   OH221642   0.011   2.895   0.127
 7234TIP3    H121643   0.101   2.864   0.122
 7234TIP3    H221644   0.019   2.990   0.134
 7235TIP3   OH221645   5.377   4.854   2.601
 7235TIP3    H121646   5.285   4.879   2.597
 7235TIP3    H221647   5.376   4.765   2.636
 7236TIP3   OH221648   0.143   3.791   4.424
 7236TIP3    H121649   0.101   3.828   4.502
 7236TIP3    H221650   0.094   3.827   4.350
 7237TIP3   OH221651   5.213   3.707   2.134
 7237TIP3    H121652   5.253   3.745   2.213
 7237TIP3    H221653   5.151   3.774   2.105
 7238TIP3   OH221654   7.695   5.512   1.362
 7238TIP3    H121655   7.646   5.557   1.430
 7238TIP3    H221656   7.742   5.581   1.316
 7239TIP3   OH221657   2.586   3.858   2.027
 7239TIP3    H121658   2.517   3.802   1.991
 7239TIP3    H221659   2.623   3.902   1.951
 7240TIP3   OH221660   7.748   6.644   4.246
 7240TIP3    H121661   7.824   6.658   4.302
 7240TIP3    H221662   7.673   6.654   4.304
 7241TIP3   OH221663   2.690   5.948   4.755
 7241TIP3    H121664   2.748   5.875   4.778
 7241TIP3    H221665   2.648   5.972   4.837
 7242TIP3   OH221666   6.741   0.497   6.360
 7242TIP3    H121667   6.798   0.476   6.287
 7242TIP3    H221668   6.654   0.469   6.332
 7243TIP3   OH221669   5.175   7.312   5.898
 7243TIP3    H121670   5.084   7.326   5.925
 7243TIP3    H221671   5.198   7.227   5.934
 7244TIP3   OH221672   4.282   7.424   0.041
 7244TIP3    H121673   4.318   7.356   0.098
 7244TIP3    H221674   4.194   7.392   0.020
 7245TIP3   OH221675   8.113   0.866   0.094
 7245TIP3    H121676   8.199   0.855   0.053
 7245TIP3    H221677   8.126   0.840   0.185
 7246TIP3   OH221678   6.196   6.868   3.980
 7246TIP3    H121679   6.170   6.931   3.913
 7246TIP3    H221680   6.236   6.796   3.932
 7247TIP3   OH221681   6.641   1.213   1.900
 7247TIP3    H121682   6.658   1.298   1.942
 7247TIP3    H221683   6.602   1.236   1.815
 7248TIP3   OH221684   7.910   3.572   0.971
 7248TIP3    H121685   7.996   3.534   0.954
 7248TIP3    H221686   7.854   3.496   0.987
 7249TIP3   OH221687   7.657   3.173   5.977
 7249TIP3    H121688   7.647   3.243   5.912
 7249TIP3    H221689   7.729   3.202   6.033
 7250TIP3   OH221690   6.474   2.471   1.181
 7250TIP3    H121691   6.397   2.418   1.159
 7250TIP3    H221692   6.476   2.539   1.114
 7251TIP3   OH221693   6.899   3.360   0.159
 7251TIP3    H121694   6.844   3.282   0.149
 7251TIP3    H221695   6.851   3.429   0.113
 7252TIP3   OH221696   3.473   4.671   1.652
 7252TIP3    H121697   3.396   4.708   1.609
 7252TIP3    H221698   3.461   4.692   1.745
 7253TIP3   OH221699   3.861   4.119   4.136
 7253TIP3    H121700   3.911   4.129   4.217
 7253TIP3    H221701   3.782   4.171   4.151
 7254TIP3   OH221702   5.571   2.051   1.492
 7254TIP3    H121703   5.579   2.131   1.544
 7254TIP3    H221704   5.644   1.997   1.521
 7255TIP3   OH221705   6.205   2.035   5.978
 7255TIP3    H121706   6.195   2.102   6.046
 7255TIP3    H221707   6.213   1.953   6.027
 7256TIP3   OH221708   4.460   6.169   3.677
 7256TIP3    H121709   4.379   6.212   3.705
 7256TIP3    H221710   4.521   6.240   3.659
 7257TIP3   OH221711   5.495   1.788   2.570
 7257TIP3    H121712   5.432   1.744   2.513
 7257TIP3    H221713   5.487   1.880   2.549
 7258TIP3   OH221714   7.714   0.530   1.440
 7258TIP3    H121715   7.647   0.484   1.390
 7258TIP3    H221716   7.749   0.594   1.378
 7259TIP3   OH221717   1.990   0.824   3.457
 7259TIP3    H121718   1.985   0.877   3.377
 7259TIP3    H221719   1.910   0.772   3.456
 7260TIP3   OH221720   6.306   1.573   0.168
 7260TIP3    H121721   6.246   1.619   0.110
 7260TIP3    H221722   6.260   1.567   0.251
 7261TIP3   OH221723   6.181   7.083   5.042
 7261TIP3    H121724   6.097   7.092   5.087
 7261TIP3    H221725   6.188   6.990   5.021
 7262TIP3   OH221726   8.161   4.494   2.346
 7262TIP3    H121727   8.079   4.519   2.389
 7262TIP3    H221728   8.155   4.533   2.259
 7263TIP3   OH221729   1.440   1.909   1.984
 7263TIP3    H121730   1.455   1.875   1.896
 7263TIP3    H221731   1.366   1.858   2.017
 7264TIP3   OH221732   2.001   5.936   6.540
 7264TIP3    H121733   2.068   5.879   6.576
 7264TIP3    H221734   2.045   6.020   6.527
 7265TIP3   OH221735   3.683   3.138   1.849
 7265TIP3    H121736   3.625   3.065   1.828
 7265TIP3    H221737   3.698   3.131   1.943
 7266TIP3   OH221738   3.586   0.660   2.391
 7266TIP3    H121739   3.512   0.721   2.398
 7266TIP3    H221740   3.663   0.717   2.385
 7267TIP3   OH221741   8.116   7.380   3.857
 7267TIP3    H121742   8.066   7.328   3.795
 7267TIP3    H221743   8.163   7.315   3.910
 7268TIP3   OH221744   5.261   7.606   3.999
 7268TIP3    H121745   5.340   7.632   4.047
 7268TIP3    H221746   5.201   7.681   4.008
 7269TIP3   OH221747   5.491   7.509   1.057
 7269TIP3    H121748   5.409   7.494   1.104
 7269TIP3    H221749   5.549   7.548   1.123
 7270TIP3   OH221750   4.166   2.399   5.566
 7270TIP3    H121751   4.178   2.312   5.527
 7270TIP3    H221752   4.103   2.385   5.637
 7271TIP3   OH221753   4.432   2.071   6.049
 7271TIP3    H121754   4.394   2.021   6.121
 7271TIP3    H221755   4.418   2.017   5.971
 7272TIP3   OH221756   5.448   7.768   1.955
 7272TIP3    H121757   5.475   7.815   2.034
 7272TIP3    H221758   5.421   7.682   1.987
 7273TIP3   OH221759   0.991   7.880   3.853
 7273TIP3    H121760   0.904   7.905   3.883
 7273TIP3    H221761   0.979   7.793   3.815
 7274TIP3   OH221762   1.944   4.444   6.498
 7274TIP3    H121763   1.945   4.526   6.447
 7274TIP3    H221764   2.026   4.401   6.474
 7275TIP3   OH221765   1.045   0.142   4.715
 7275TIP3    H121766   1.095   0.100   4.646
 7275TIP3    H221767   0.983   0.076   4.745
 7276TIP3   OH221768   1.814   7.209   2.418
 7276TIP3    H121769   1.782   7.162   2.495
 7276TIP3    H221770   1.894   7.252   2.448
 7277TIP3   OH221771   7.826   6.257   4.981
 7277TIP3    H121772   7.845   6.351   4.986
 7277TIP3    H221773   7.875   6.219   5.054
 7278TIP3   OH221774   2.270   7.063   5.340
 7278TIP3    H121775   2.243   7.138   5.392
 7278TIP3    H221776   2.270   6.990   5.401
 7279TIP3   OH221777   2.870   4.696   3.505
 7279TIP3    H121778   2.803   4.754   3.468
 7279TIP3    H221779   2.887   4.733   3.592
 7280TIP3   OH221780   6.317   0.349   1.310
 7280TIP3    H121781   6.242   0.344   1.250
 7280TIP3    H221782   6.281   0.324   1.395
 7281TIP3   OH221783   1.590   1.650   4.242
 7281TIP3    H121784   1.528   1.604   4.185
 7281TIP3    H221785   1.633   1.713   4.185
 7282TIP3   OH221786   4.811   1.170   0.050
 7282TIP3    H121787   4.861   1.178   0.131
 7282TIP3    H221788   4.856   1.228  -0.012
 7283TIP3   OH221789   1.983   6.346   5.242
 7283TIP3    H121790   2.003   6.345   5.335
 7283TIP3    H221791   2.017   6.429   5.210
 7284TIP3   OH221792   4.608   4.616   1.263
 7284TIP3    H121793   4.563   4.549   1.315
 7284TIP3    H221794   4.551   4.693   1.270
 7285TIP3   OH221795   0.283   3.111   4.457
 7285TIP3    H121796   0.364   3.059   4.457
 7285TIP3    H221797   0.242   3.092   4.541
 7286TIP3   OH221798   7.852   2.995   3.818
 7286TIP3    H121799   7.786   3.063   3.833
 7286TIP3    H221800   7.817   2.918   3.862
 7287TIP3   OH221801   2.631   4.046   4.341
 7287TIP3    H121802   2.701   4.085   4.289
 7287TIP3    H221803   2.577   4.120   4.368
 7288TIP3   OH221804   1.022   0.210   2.629
 7288TIP3    H121805   1.083   0.219   2.702
 7288TIP3    H221806   1.029   0.118   2.603
 7289TIP3   OH221807   4.432   5.704   2.894
 7289TIP3    H121808   4.446   5.719   2.801
 7289TIP3    H221809   4.509   5.742   2.936
 7290TIP3   OH221810   3.887   0.683   3.830
 7290TIP3    H121811   3.850   0.644   3.750
 7290TIP3    H221812   3.845   0.770   3.835
 7291TIP3   OH221813   4.863   1.822   6.541
 7291TIP3    H121814   4.838   1.794   6.629
 7291TIP3    H221815   4.811   1.768   6.482
 7292TIP3   OH221816   4.215   5.407   6.269
 7292TIP3    H121817   4.213   5.436   6.178
 7292TIP3    H221818   4.218   5.311   6.264
 7293TIP3   OH221819   5.939   3.118   2.165
 7293TIP3    H121820   6.027   3.094   2.193
 7293TIP3    H221821   5.934   3.212   2.179
 7294TIP3   OH221822   7.212   4.165   3.359
 7294TIP3    H121823   7.119   4.140   3.356
 7294TIP3    H221824   7.210   4.261   3.364
 7295TIP3   OH221825   7.689   6.021   5.707
 7295TIP3    H121826   7.630   6.096   5.713
 7295TIP3    H221827   7.633   5.944   5.722
 7296TIP3   OH221828   6.052   3.931   3.751
 7296TIP3    H121829   6.024   3.841   3.772
 7296TIP3    H221830   6.034   3.940   3.658
 7297TIP3   OH221831   1.511   1.913   3.376
 7297TIP3    H121832   1.586   1.968   3.394
 7297TIP3    H221833   1.526   1.834   3.427
 7298TIP3   OH221834   6.359   4.094   4.434
 7298TIP3    H121835   6.368   4.001   4.413
 7298TIP3    H221836   6.447   4.130   4.424
 7299TIP3   OH221837   0.870   3.652   0.328
 7299TIP3    H121838   0.801   3.587   0.343
 7299TIP3    H221839   0.937   3.605   0.278
 7300TIP3   OH221840   2.115   3.317   1.699
 7300TIP3    H121841   2.182   3.301   1.633
 7300TIP3    H221842   2.072   3.398   1.671
 7301TIP3   OH221843   4.325   0.650   6.638
 7301TIP3    H121844   4.374   0.652   6.720
 7301TIP3    H221845   4.234   0.669   6.665
 7302TIP3   OH221846   1.376   4.519   4.752
 7302TIP3    H121847   1.471   4.518   4.741
 7302TIP3    H221848   1.362   4.569   4.833
 7303TIP3   OH221849   4.584   6.802   2.307
 7303TIP3    H121850   4.619   6.720   2.273
 7303TIP3    H221851   4.588   6.793   2.402
 7304TIP3   OH221852   1.375   6.784   3.976
 7304TIP3    H121853   1.375   6.710   4.037
 7304TIP3    H221854   1.326   6.752   3.900
 7305TIP3   OH221855   5.327   1.992   4.236
 7305TIP3    H121856   5.248   2.031   4.274
 7305TIP3    H221857   5.395   2.006   4.302
 7306TIP3   OH221858   4.313   5.975   1.972
 7306TIP3    H121859   4.369   6.045   2.005
 7306TIP3    H221860   4.231   6.018   1.949
 7307TIP3   OH221861   6.437   3.625   3.781
 7307TIP3    H121862   6.470   3.542   3.816
 7307TIP3    H221863   6.342   3.618   3.788
 7308TIP3   OH221864   7.404   4.625   6.396
 7308TIP3    H121865   7.395   4.632   6.301
 7308TIP3    H221866   7.497   4.605   6.410
 7309TIP3   OH221867   1.202   5.489   2.006
 7309TIP3    H121868   1.207   5.395   1.990
 7309TIP3    H221869   1.287   5.523   1.977
 7310TIP3   OH221870   6.241   2.722   4.411
 7310TIP3    H121871   6.203   2.757   4.492
 7310TIP3    H221872   6.217   2.785   4.344
 7311TIP3   OH221873   1.612   3.530   0.316
 7311TIP3    H121874   1.630   3.545   0.223
 7311TIP3    H221875   1.536   3.471   0.317
 7312TIP3   OH221876   1.667   2.506   2.195
 7312TIP3    H121877   1.713   2.590   2.191
 7312TIP3    H221878   1.664   2.476   2.105
 7313TIP3   OH221879   3.664   1.903   5.666
 7313TIP3    H121880   3.576   1.906   5.703
 7313TIP3    H221881   3.717   1.955   5.726
 7314TIP3   OH221882   0.419   3.939   6.762
 7314TIP3    H121883   0.345   3.881   6.779
 7314TIP3    H221884   0.473   3.890   6.699
 7315TIP3   OH221885   8.203   7.947   3.289
 7315TIP3    H121886   8.190   7.961   3.383
 7315TIP3    H221887   8.262   7.872   3.284
 7316TIP3   OH221888   4.765   5.433   6.721
 7316TIP3    H121889   4.698   5.475   6.775
 7316TIP3    H221890   4.762   5.341   6.747
 7317TIP3   OH221891   1.398   5.391   4.866
 7317TIP3    H121892   1.410   5.334   4.942
 7317TIP3    H221893   1.414   5.479   4.899
 7318TIP3   OH221894   8.276   4.559   3.975
 7318TIP3    H121895   8.195   4.513   3.953
 7318TIP3    H221896   8.308   4.515   4.054
 7319TIP3   OH221897   0.596   4.602   5.152
 7319TIP3    H121898   0.676   4.573   5.195
 7319TIP3    H221899   0.622   4.621   5.062
 7320TIP3   OH221900   4.911   4.624   0.446
 7320TIP3    H121901   4.914   4.655   0.536
 7320TIP3    H221902   4.959   4.542   0.446
 7321TIP3   OH221903   6.515   7.320   2.369
 7321TIP3    H121904   6.467   7.359   2.443
 7321TIP3    H221905   6.463   7.343   2.292
 7322TIP3   OH221906   1.650   3.533   3.985
 7322TIP3    H121907   1.688   3.468   3.926
 7322TIP3    H221908   1.660   3.495   4.072
 7323TIP3   OH221909   3.343   6.455   6.772
 7323TIP3    H121910   3.423   6.418   6.811
 7323TIP3    H221911   3.338   6.414   6.686
 7324TIP3   OH221912   7.429   3.995   3.380
 7324TIP3    H121913   7.370   4.064   3.350
 7324TIP3    H221914   7.451   3.947   3.300
 7325TIP3   OH221915   6.543   1.710   1.566
 7325TIP3    H121916   6.532   1.657   1.646
 7325TIP3    H221917   6.631   1.689   1.535
 7326TIP3   OH221918   5.995   7.163   6.612
 7326TIP3    H121919   6.064   7.159   6.546
 7326TIP3    H221920   5.989   7.074   6.646
 7327TIP3   OH221921   2.516   3.863   6.621
 7327TIP3    H121922   2.437   3.842   6.670
 7327TIP3    H221923   2.564   3.780   6.617
 7328TIP3   OH221924   3.446   2.600   1.676
 7328TIP3    H121925   3.454   2.634   1.765
 7328TIP3    H221926   3.424   2.507   1.689
 7329TIP3   OH221927   8.208   4.082   6.226
 7329TIP3    H121928   8.136   4.022   6.244
 7329TIP3    H221929   8.286   4.026   6.221
 7330TIP3   OH221930   7.534   0.931   6.762
 7330TIP3    H121931   7.613   0.917   6.814
 7330TIP3    H221932   7.509   1.022   6.780
 7331TIP3   OH221933   6.454   6.030   0.468
 7331TIP3    H121934   6.369   6.036   0.425
 7331TIP3    H221935   6.436   6.052   0.560
 7332TIP3   OH221936   6.601   1.879   1.296
 7332TIP3    H121937   6.627   1.843   1.381
 7332TIP3    H221938   6.641   1.966   1.293
 7333TIP3   OH221939   8.382   5.340   2.066
 7333TIP3    H121940   8.325   5.401   2.112
 7333TIP3    H221941   8.343   5.254   2.082
 7334TIP3   OH221942   0.342   3.679   6.047
 7334TIP3    H121943   0.408   3.673   5.977
 7334TIP3    H221944   0.274   3.736   6.011
 7335TIP3   OH221945   1.918   6.686   5.407
 7335TIP3    H121946   1.990   6.656   5.351
 7335TIP3    H221947   1.905   6.777   5.381
 7336TIP3   OH221948   4.057   3.814   2.123
 7336TIP3    H121949   4.084   3.829   2.033
 7336TIP3    H221950   4.128   3.850   2.176
 7337TIP3   OH221951   8.105   4.970   3.971
 7337TIP3    H121952   8.189   4.961   4.016
 7337TIP3    H221953   8.123   5.025   3.895
 7338TIP3   OH221954   2.157   7.689   4.577
 7338TIP3    H121955   2.164   7.755   4.508
 7338TIP3    H221956   2.190   7.733   4.656
 7339TIP3   OH221957   4.897   7.130   6.714
 7339TIP3    H121958   4.852   7.179   6.645
 7339TIP3    H221959   4.827   7.089   6.764
 7340TIP3   OH221960   3.691   7.565   2.639
 7340TIP3    H121961   3.693   7.600   2.549
 7340TIP3    H221962   3.625   7.618   2.683
 7341TIP3   OH221963   3.097   0.740   4.240
 7341TIP3    H121964   3.125   0.831   4.239
 7341TIP3    H221965   3.132   0.703   4.159
 7342TIP3   OH221966   4.854   7.526   5.381
 7342TIP3    H121967   4.927   7.495   5.327
 7342TIP3    H221968   4.783   7.465   5.362
 7343TIP3   OH221969   1.145   3.393   2.096
 7343TIP3    H121970   1.179   3.306   2.075
 7343TIP3    H221971   1.205   3.453   2.052
 7344TIP3   OH221972   8.198   0.146   3.546
 7344TIP3    H121973   8.180   0.066   3.595
 7344TIP3    H221974   8.120   0.200   3.559
 7345TIP3   OH221975   0.076   2.081   4.683
 7345TIP3    H121976   0.007   2.020   4.658
 7345TIP3    H221977   0.039   2.131   4.756
 7346TIP3   OH221978   4.780   4.735   3.931
 7346TIP3    H121979   4.720   4.751   4.003
 7346TIP3    H221980   4.760   4.803   3.867
 7347TIP3   OH221981   2.376   3.282   6.698
 7347TIP3    H121982   2.450   3.274   6.758
 7347TIP3    H221983   2.342   3.192   6.689
 7348TIP3   OH221984   6.896   7.201   1.292
 7348TIP3    H121985   6.808   7.174   1.268
 7348TIP3    H221986   6.953   7.134   1.255
 7349TIP3   OH221987   5.408   7.094   2.129
 7349TIP3    H121988   5.491   7.128   2.095
 7349TIP3    H221989   5.343   7.162   2.107
 7350TIP3   OH221990   0.757   2.422   6.655
 7350TIP3    H121991   0.715   2.502   6.689
 7350TIP3    H221992   0.729   2.417   6.564
 7351TIP3   OH221993   5.868   2.607   3.738
 7351TIP3    H121994   5.878   2.697   3.704
 7351TIP3    H221995   5.793   2.613   3.798
 7352TIP3   OH221996   1.162   0.412   1.674
 7352TIP3    H121997   1.241   0.384   1.720
 7352TIP3    H221998   1.104   0.335   1.678
 7353TIP3   OH221999   7.936   2.058   3.758
 7353TIP3    H122000   7.969   2.094   3.675
 7353TIP3    H222001   7.886   1.981   3.733
 7354TIP3   OH222002   3.858   5.266   1.098
 7354TIP3    H122003   3.858   5.331   1.027
 7354TIP3    H222004   3.879   5.316   1.176
 7355TIP3   OH222005   5.770   5.398   3.863
 7355TIP3    H122006   5.829   5.324   3.851
 7355TIP3    H222007   5.693   5.360   3.906
 7356TIP3   OH222008   6.048   1.118   4.574
 7356TIP3    H122009   6.005   1.188   4.623
 7356TIP3    H222010   6.128   1.158   4.541
 7357TIP3   OH222011   4.350   4.507   0.406
 7357TIP3    H122012   4.356   4.548   0.319
 7357TIP3    H222013   4.434   4.524   0.447
 7358TIP3   OH222014   5.188   4.589   0.743
 7358TIP3    H122015   5.098   4.622   0.748
 7358TIP3    H222016   5.226   4.633   0.668
 7359TIP3   OH222017   0.343   1.383   1.593
 7359TIP3    H122018   0.372   1.297   1.562
 7359TIP3    H222019   0.370   1.385   1.685
 7360TIP3   OH222020   7.478   7.590   0.036
 7360TIP3    H122021   7.479   7.573   0.130
 7360TIP3    H222022   7.425   7.669   0.026
 7361TIP3   OH222023   1.573   2.921   4.557
 7361TIP3    H122024   1.525   2.943   4.637
 7361TIP3    H222025   1.605   3.005   4.524
 7362TIP3   OH222026   0.276   6.100   6.587
 7362TIP3    H122027   0.367   6.111   6.614
 7362TIP3    H222028   0.242   6.189   6.579
 7363TIP3   OH222029   7.097   5.186   4.211
 7363TIP3    H122030   7.129   5.275   4.194
 7363TIP3    H222031   7.176   5.132   4.206
 7364TIP3   OH222032   4.377   7.151   1.215
 7364TIP3    H122033   4.354   7.072   1.265
 7364TIP3    H222034   4.399   7.215   1.282
 7365TIP3   OH222035   2.656   0.982   1.325
 7365TIP3    H122036   2.561   0.986   1.313
 7365TIP3    H222037   2.673   0.894   1.358
 7366TIP3   OH222038   1.491   3.757   4.951
 7366TIP3    H122039   1.444   3.698   4.892
 7366TIP3    H222040   1.517   3.702   5.025
 7367TIP3   OH222041   0.541   2.482   0.352
 7367TIP3    H122042   0.514   2.428   0.278
 7367TIP3    H222043   0.619   2.439   0.387
 7368TIP3   OH222044   2.253   4.057   4.416
 7368TIP3    H122045   2.210   4.011   4.488
 7368TIP3    H222046   2.293   3.988   4.364
 7369TIP3   OH222047   2.490   6.498   2.169
 7369TIP3    H122048   2.507   6.571   2.228
 7369TIP3    H222049   2.396   6.482   2.176
 7370TIP3   OH222050   8.425   2.665   4.971
 7370TIP3    H122051   8.367   2.736   4.997
 7370TIP3    H222052   8.383   2.586   5.003
 7371TIP3   OH222053   0.983   3.805   3.471
 7371TIP3    H122054   1.041   3.856   3.415
 7371TIP3    H222055   1.038   3.734   3.505
 7372TIP3   OH222056   0.875   4.131   2.151
 7372TIP3    H122057   0.928   4.082   2.214
 7372TIP3    H222058   0.905   4.222   2.160
 7373TIP3   OH222059   0.842   2.887   1.099
 7373TIP3    H122060   0.895   2.895   1.178
 7373TIP3    H222061   0.893   2.929   1.031
 7374TIP3   OH222062   6.688   1.460   2.982
 7374TIP3    H122063   6.686   1.451   3.077
 7374TIP3    H222064   6.603   1.497   2.960
 7375TIP3   OH222065   0.864   3.206   3.585
 7375TIP3    H122066   0.826   3.186   3.671
 7375TIP3    H222067   0.860   3.124   3.537
 7376TIP3   OH222068   7.190   0.111   5.727
 7376TIP3    H122069   7.278   0.075   5.716
 7376TIP3    H222070   7.204   0.206   5.735
 7377TIP3   OH222071   7.956   5.903   1.977
 7377TIP3    H122072   7.940   5.995   1.996
 7377TIP3    H222073   7.871   5.861   1.990
 7378TIP3   OH222074   7.906   0.727   1.307
 7378TIP3    H122075   7.920   0.758   1.218
 7378TIP3    H222076   7.958   0.786   1.361
 7379TIP3   OH222077   6.381   2.785   1.279
 7379TIP3    H122078   6.393   2.759   1.188
 7379TIP3    H222079   6.362   2.703   1.325
 7380TIP3   OH222080   1.207   3.740   2.625
 7380TIP3    H122081   1.280   3.701   2.578
 7380TIP3    H222082   1.140   3.672   2.626
 7381TIP3   OH222083   0.056   2.236   3.426
 7381TIP3    H122084   0.094   2.298   3.488
 7381TIP3    H222085   0.087   2.150   3.456
 7382TIP3   OH222086   7.155   7.659   3.914
 7382TIP3    H122087   7.205   7.651   3.833
 7382TIP3    H222088   7.141   7.569   3.943
 7383TIP3   OH222089   0.142   4.173   5.877
 7383TIP3    H122090   0.060   4.133   5.848
 7383TIP3    H222091   0.143   4.260   5.836
 7384TIP3   OH222092   4.683   6.672   3.254
 7384TIP3    H122093   4.635   6.590   3.242
 7384TIP3    H222094   4.616   6.735   3.282
 7385TIP3   OH222095   7.847   7.780   4.462
 7385TIP3    H122096   7.936   7.792   4.496
 7385TIP3    H222097   7.801   7.734   4.531
 7386TIP3   OH222098   5.885   4.375   0.373
 7386TIP3    H122099   5.917   4.301   0.321
 7386TIP3    H222100   5.792   4.382   0.350
 7387TIP3   OH222101   1.626   1.395   2.576
 7387TIP3    H122102   1.708   1.379   2.530
 7387TIP3    H222103   1.591   1.475   2.536
 7388TIP3   OH222104   7.786   7.401   6.299
 7388TIP3    H122105   7.860   7.451   6.266
 7388TIP3    H222106   7.727   7.393   6.224
 7389TIP3   OH222107   1.763   1.214   3.378
 7389TIP3    H122108   1.706   1.223   3.454
 7389TIP3    H222109   1.726   1.139   3.330
 7390TIP3   OH222110   1.528   6.178   2.527
 7390TIP3    H122111   1.593   6.149   2.463
 7390TIP3    H222112   1.454   6.208   2.474
 7391TIP3   OH222113   4.136   7.842   2.441
 7391TIP3    H122114   4.092   7.784   2.380
 7391TIP3    H222115   4.145   7.791   2.521
 7392TIP3   OH222116   7.237   5.938   4.046
 7392TIP3    H122117   7.204   5.849   4.056
 7392TIP3    H222118   7.332   5.929   4.047
 7393TIP3   OH222119   7.758   5.530   6.218
 7393TIP3    H122120   7.799   5.533   6.305
 7393TIP3    H222121   7.688   5.465   6.226
 7394TIP3   OH222122   3.180   1.542   3.072
 7394TIP3    H122123   3.269   1.574   3.061
 7394TIP3    H222124   3.126   1.621   3.067
 7395TIP3   OH222125   2.025   4.520   5.732
 7395TIP3    H122126   2.037   4.599   5.679
 7395TIP3    H222127   2.111   4.503   5.770
 7396TIP3   OH222128   4.040   5.632   4.841
 7396TIP3    H122129   4.010   5.563   4.782
 7396TIP3    H222130   4.028   5.596   4.929
 7397TIP3   OH222131   1.314   0.834   2.283
 7397TIP3    H122132   1.383   0.896   2.307
 7397TIP3    H222133   1.236   0.866   2.327
 7398TIP3   OH222134   1.143   3.036   5.735
 7398TIP3    H122135   1.074   3.070   5.793
 7398TIP3    H222136   1.189   3.115   5.705
 7399TIP3   OH222137   0.920   2.628   6.145
 7399TIP3    H122138   1.005   2.625   6.100
 7399TIP3    H222139   0.890   2.537   6.145
 7400TIP3   OH222140   7.194   4.577   2.430
 7400TIP3    H122141   7.214   4.639   2.500
 7400TIP3    H222142   7.151   4.630   2.363
 7401TIP3   OH222143   0.886   3.687   2.212
 7401TIP3    H122144   0.796   3.719   2.220
 7401TIP3    H222145   0.892   3.616   2.276
 7402TIP3   OH222146   1.868   7.882   4.993
 7402TIP3    H122147   1.930   7.812   4.974
 7402TIP3    H222148   1.840   7.913   4.907
 7403TIP3   OH222149   5.040   3.201   4.913
 7403TIP3    H122150   5.126   3.221   4.876
 7403TIP3    H222151   4.991   3.283   4.905
 7404TIP3   OH222152   7.943   4.404   4.964
 7404TIP3    H122153   7.886   4.462   5.015
 7404TIP3    H222154   8.030   4.441   4.973
 7405TIP3   OH222155   1.493   0.182   6.175
 7405TIP3    H122156   1.525   0.215   6.259
 7405TIP3    H222157   1.495   0.259   6.118
 7406TIP3   OH222158   0.667   4.543   0.550
 7406TIP3    H122159   0.720   4.553   0.629
 7406TIP3    H222160   0.578   4.566   0.578
 7407TIP3   OH222161   4.873   7.509   2.457
 7407TIP3    H122162   4.867   7.604   2.466
 7407TIP3    H222163   4.856   7.493   2.364
 7408TIP3   OH222164   4.465   6.110   3.068
 7408TIP3    H122165   4.530   6.129   3.135
 7408TIP3    H222166   4.408   6.045   3.108
 7409TIP3   OH222167   2.066   2.132   3.263
 7409TIP3    H122168   2.015   2.077   3.322
 7409TIP3    H222169   2.000   2.182   3.214
 7410TIP3   OH222170   2.278   5.682   0.925
 7410TIP3    H122171   2.255   5.642   1.008
 7410TIP3    H222172   2.223   5.761   0.921
 7411TIP3   OH222173   1.371   3.705   0.575
 7411TIP3    H122174   1.347   3.619   0.608
 7411TIP3    H222175   1.309   3.724   0.505
 7412TIP3   OH222176   7.175   3.425   0.096
 7412TIP3    H122177   7.101   3.364   0.090
 7412TIP3    H222178   7.162   3.485   0.022
 7413TIP3   OH222179   5.710   4.735   0.483
 7413TIP3    H122180   5.639   4.709   0.425
 7413TIP3    H222181   5.779   4.765   0.424
 7414TIP3   OH222182   3.530   5.535   1.235
 7414TIP3    H122183   3.612   5.518   1.189
 7414TIP3    H222184   3.500   5.619   1.201
 7415TIP3   OH222185   0.882   7.046   2.235
 7415TIP3    H122186   0.838   6.971   2.196
 7415TIP3    H222187   0.974   7.037   2.209
 7416TIP3   OH222188   5.133   0.252   1.510
 7416TIP3    H122189   5.112   0.338   1.546
 7416TIP3    H222190   5.073   0.240   1.437
 7417TIP3   OH222191   2.377   6.485   6.823
 7417TIP3    H122192   2.428   6.456   6.748
 7417TIP3    H222193   2.316   6.549   6.788
 7418TIP3   OH222194   3.802   5.027   6.823
 7418TIP3    H122195   3.812   4.968   6.748
 7418TIP3    H222196   3.808   4.970   6.899
 7419TIP3   OH222197   1.900   2.898   1.893
 7419TIP3    H122198   1.897   2.992   1.879
 7419TIP3    H222199   1.924   2.862   1.808
 7420TIP3   OH222200   6.371   7.116   5.287
 7420TIP3    H122201   6.395   7.027   5.314
 7420TIP3    H222202   6.347   7.107   5.195
 7421TIP3   OH222203   4.810   3.943   3.294
 7421TIP3    H122204   4.765   4.007   3.239
 7421TIP3    H222205   4.887   3.990   3.326
 7422TIP3   OH222206   5.547   2.113   2.823
 7422TIP3    H122207   5.607   2.042   2.798
 7422TIP3    H222208   5.463   2.087   2.787
 7423TIP3   OH222209   8.302   6.768   4.628
 7423TIP3    H122210   8.319   6.679   4.598
 7423TIP3    H222211   8.388   6.803   4.651
 7424TIP3   OH222212   7.552   4.754   1.668
 7424TIP3    H122213   7.479   4.791   1.716
 7424TIP3    H222214   7.606   4.711   1.735
 7425TIP3   OH222215   3.638   3.448   6.570
 7425TIP3    H122216   3.708   3.439   6.635
 7425TIP3    H222217   3.592   3.364   6.573
 7426TIP3   OH222218   3.508   7.591   0.874
 7426TIP3    H122219   3.542   7.675   0.905
 7426TIP3    H222220   3.578   7.529   0.890
 7427TIP3   OH222221   1.482   7.857   4.432
 7427TIP3    H122222   1.537   7.821   4.501
 7427TIP3    H222223   1.400   7.807   4.438
 7428TIP3   OH222224   8.058   6.808   3.332
 7428TIP3    H122225   7.963   6.800   3.325
 7428TIP3    H222226   8.086   6.729   3.379
 7429TIP3   OH222227   4.917   6.000   1.131
 7429TIP3    H122228   4.994   6.014   1.077
 7429TIP3    H222229   4.845   6.039   1.081
 7430TIP3   OH222230   6.158   0.737   1.554
 7430TIP3    H122231   6.134   0.716   1.644
 7430TIP3    H222232   6.238   0.789   1.562
 7431TIP3   OH222233   2.598   1.448   3.529
 7431TIP3    H122234   2.599   1.381   3.597
 7431TIP3    H222235   2.617   1.400   3.448
 7432TIP3   OH222236   2.810   1.849   2.430
 7432TIP3    H122237   2.895   1.873   2.394
 7432TIP3    H222238   2.756   1.830   2.354
 7433TIP3   OH222239   1.495   5.121   1.789
 7433TIP3    H122240   1.505   5.040   1.839
 7433TIP3    H222241   1.491   5.190   1.855
 7434TIP3   OH222242   4.322   6.057   1.499
 7434TIP3    H122243   4.393   6.011   1.543
 7434TIP3    H222244   4.261   6.080   1.569
 7435TIP3   OH222245   5.733   7.160   5.027
 7435TIP3    H122246   5.759   7.248   4.996
 7435TIP3    H222247   5.779   7.100   4.968
 7436TIP3   OH222248   2.326   3.637   4.474
 7436TIP3    H122249   2.336   3.703   4.543
 7436TIP3    H222250   2.357   3.556   4.514
 7437TIP3   OH222251   7.193   1.082   5.883
 7437TIP3    H122252   7.224   1.154   5.938
 7437TIP3    H222253   7.109   1.057   5.921
 7438TIP3   OH222254   2.628   3.313   2.405
 7438TIP3    H122255   2.557   3.373   2.430
 7438TIP3    H222256   2.658   3.346   2.320
 7439TIP3   OH222257   6.536   4.658   4.605
 7439TIP3    H122258   6.449   4.678   4.639
 7439TIP3    H222259   6.543   4.563   4.611
 7440TIP3   OH222260   8.304   0.614   6.385
 7440TIP3    H122261   8.378   0.674   6.397
 7440TIP3    H222262   8.232   0.670   6.355
 7441TIP3   OH222263   0.153   1.531   5.425
 7441TIP3    H122264   0.160   1.503   5.334
 7441TIP3    H222265   0.220   1.598   5.435
 7442TIP3   OH222266   2.744   5.405   0.274
 7442TIP3    H122267   2.767   5.447   0.357
 7442TIP3    H222268   2.720   5.316   0.299
 7443TIP3   OH222269   4.200   0.772   3.849
 7443TIP3    H122270   4.229   0.834   3.916
 7443TIP3    H222271   4.113   0.745   3.878
 7444TIP3   OH222272   7.458   5.548   2.396
 7444TIP3    H122273   7.369   5.579   2.377
 7444TIP3    H222274   7.487   5.509   2.314
 7445TIP3   OH222275   2.078   6.735   4.022
 7445TIP3    H122276   2.038   6.772   4.101
 7445TIP3    H222277   2.172   6.743   4.038
 7446TIP3   OH222278   8.011   4.765   1.996
 7446TIP3    H122279   8.078   4.745   2.061
 7446TIP3    H222280   7.933   4.787   2.048
 7447TIP3   OH222281   0.509   4.111   4.109
 7447TIP3    H122282   0.572   4.069   4.167
 7447TIP3    H222283   0.557   4.182   4.068
 7448TIP3   OH222284   4.914   0.297   0.893
 7448TIP3    H122285   4.983   0.249   0.939
 7448TIP3    H222286   4.872   0.231   0.837
 7449TIP3   OH222287   5.261   5.052   1.370
 7449TIP3    H122288   5.232   5.138   1.400
 7449TIP3    H222289   5.227   5.045   1.280
 7450TIP3   OH222290   7.997   3.454   2.141
 7450TIP3    H122291   8.031   3.511   2.072
 7450TIP3    H222292   7.965   3.514   2.208
 7451TIP3   OH222293   0.313   3.248   5.108
 7451TIP3    H122294   0.279   3.232   5.019
 7451TIP3    H222295   0.356   3.333   5.102
 7452TIP3   OH222296   0.385   2.855   1.815
 7452TIP3    H122297   0.420   2.779   1.861
 7452TIP3    H222298   0.429   2.854   1.730
 7453TIP3   OH222299   3.996   1.739   5.884
 7453TIP3    H122300   4.002   1.691   5.801
 7453TIP3    H222301   4.086   1.747   5.913
 7454TIP3   OH222302   3.076   7.277   0.283
 7454TIP3    H122303   2.991   7.303   0.247
 7454TIP3    H222304   3.081   7.323   0.367
 7455TIP3   OH222305   2.527   5.619   1.038
 7455TIP3    H122306   2.462   5.654   0.976
 7455TIP3    H222307   2.508   5.664   1.120
 7456TIP3   OH222308   5.639   0.160   4.447
 7456TIP3    H122309   5.549   0.162   4.481
 7456TIP3    H222310   5.646   0.239   4.394
 7457TIP3   OH222311   6.290   4.888   3.202
 7457TIP3    H122312   6.354   4.884   3.272
 7457TIP3    H222313   6.334   4.937   3.132
 7458TIP3   OH222314   0.866   7.382   2.821
 7458TIP3    H122315   0.782   7.346   2.794
 7458TIP3    H222316   0.863   7.380   2.916
 7459TIP3   OH222317   3.620   4.451   3.003
 7459TIP3    H122318   3.584   4.368   2.970
 7459TIP3    H222319   3.633   4.435   3.096
 7460TIP3   OH222320   1.563   6.910   4.742
 7460TIP3    H122321   1.518   6.832   4.709
 7460TIP3    H222322   1.502   6.981   4.724
 7461TIP3   OH222323   1.857   5.584   2.047
 7461TIP3    H122324   1.866   5.678   2.031
 7461TIP3    H222325   1.802   5.578   2.125
 7462TIP3   OH222326   3.175   6.833   3.387
 7462TIP3    H122327   3.129   6.775   3.447
 7462TIP3    H222328   3.112   6.850   3.317
 7463TIP3   OH222329   1.394   4.609   1.917
 7463TIP3    H122330   1.371   4.696   1.948
 7463TIP3    H222331   1.442   4.623   1.836
 7464TIP3   OH222332   2.354   0.341   2.936
 7464TIP3    H122333   2.370   0.314   3.026
 7464TIP3    H222334   2.261   0.362   2.933
 7465TIP3   OH222335   0.321   1.165   5.142
 7465TIP3    H122336   0.375   1.133   5.214
 7465TIP3    H222337   0.294   1.086   5.095
 7466TIP3   OH222338   4.379   4.053   2.870
 7466TIP3    H122339   4.340   4.038   2.956
 7466TIP3    H222340   4.472   4.037   2.882
 7467TIP3   OH222341   6.142   3.791   6.594
 7467TIP3    H122342   6.178   3.717   6.544
 7467TIP3    H222343   6.216   3.850   6.606
 7468TIP3   OH222344   0.699   0.901   4.140
 7468TIP3    H122345   0.776   0.864   4.098
 7468TIP3    H222346   0.634   0.906   4.069
 7469TIP3   OH222347   5.659   0.800   4.441
 7469TIP3    H122348   5.717   0.797   4.365
 7469TIP3    H222349   5.718   0.813   4.516
 7470TIP3   OH222350   5.454   6.277   1.791
 7470TIP3    H122351   5.466   6.265   1.696
 7470TIP3    H222352   5.539   6.253   1.828
 7471TIP3   OH222353   6.638   2.155   3.075
 7471TIP3    H122354   6.629   2.236   3.026
 7471TIP3    H222355   6.578   2.165   3.149
 7472TIP3   OH222356   6.316   2.995   3.369
 7472TIP3    H122357   6.328   2.922   3.430
 7472TIP3    H222358   6.224   2.990   3.344
 7473TIP3   OH222359   0.126   0.527   5.137
 7473TIP3    H122360   0.122   0.431   5.146
 7473TIP3    H222361   0.077   0.545   5.057
 7474TIP3   OH222362   2.005   0.681   4.638
 7474TIP3    H122363   2.032   0.737   4.710
 7474TIP3    H222364   2.033   0.728   4.559
 7475TIP3   OH222365   2.510   4.161   5.919
 7475TIP3    H122366   2.606   4.153   5.925
 7475TIP3    H222367   2.487   4.227   5.984
 7476TIP3   OH222368   1.050   5.485   0.531
 7476TIP3    H122369   1.064   5.528   0.616
 7476TIP3    H222370   0.955   5.475   0.525
 7477TIP3   OH222371   3.679   5.383   2.768
 7477TIP3    H122372   3.652   5.438   2.695
 7477TIP3    H222373   3.650   5.429   2.846
 7478TIP3   OH222374   2.838   1.725   5.966
 7478TIP3    H122375   2.908   1.741   5.903
 7478TIP3    H222376   2.872   1.758   6.049
 7479TIP3   OH222377   7.924   1.536   5.122
 7479TIP3    H122378   7.968   1.452   5.131
 7479TIP3    H222379   7.962   1.575   5.044
 7480TIP3   OH222380   8.261   5.731   0.631
 7480TIP3    H122381   8.208   5.762   0.704
 7480TIP3    H222382   8.237   5.638   0.621
 7481TIP3   OH222383   8.148   7.273   5.430
 7481TIP3    H122384   8.165   7.197   5.375
 7481TIP3    H222385   8.117   7.237   5.513
 7482TIP3   OH222386   0.623   5.250   1.997
 7482TIP3    H122387   0.636   5.309   2.071
 7482TIP3    H222388   0.656   5.165   2.028
 7483TIP3   OH222389   6.140   6.717   4.233
 7483TIP3    H122390   6.157   6.760   4.149
 7483TIP3    H222391   6.095   6.636   4.210
 7484TIP3   OH222392   6.534   6.170   3.756
 7484TIP3    H122393   6.462   6.230   3.778
 7484TIP3    H222394   6.495   6.108   3.695
 7485TIP3   OH222395   5.682   7.356   0.034
 7485TIP3    H122396   5.741   7.356  -0.041
 7485TIP3    H222397   5.678   7.264   0.062
 7486TIP3   OH222398   1.526   1.311   5.802
 7486TIP3    H122399   1.492   1.260   5.728
 7486TIP3    H222400   1.620   1.318   5.785
 7487TIP3   OH222401   5.056   3.796   4.245
 7487TIP3    H122402   5.011   3.754   4.319
 7487TIP3    H222403   5.049   3.733   4.174
 7488TIP3   OH222404   2.377   0.910   6.343
 7488TIP3    H122405   2.448   0.941   6.399
 7488TIP3    H222406   2.400   0.942   6.256
 7489TIP3   OH222407   6.313   1.023   2.868
 7489TIP3    H122408   6.279   1.049   2.783
 7489TIP3    H222409   6.401   1.062   2.871
 7490TIP3   OH222410   0.815   3.139   3.854
 7490TIP3    H122411   0.776   3.172   3.934
 7490TIP3    H222412   0.848   3.052   3.877
 7491TIP3   OH222413   1.080   2.063   0.712
 7491TIP3    H122414   1.014   1.995   0.701
 7491TIP3    H222415   1.112   2.050   0.801
 7492TIP3   OH222416   3.964   3.362   5.901
 7492TIP3    H122417   3.981   3.446   5.859
 7492TIP3    H222418   4.009   3.369   5.985
 7493TIP3   OH222419   1.515   4.958   1.355
 7493TIP3    H122420   1.550   5.004   1.431
 7493TIP3    H222421   1.552   5.004   1.280
 7494TIP3   OH222422   0.423   3.577   3.679
 7494TIP3    H122423   0.457   3.525   3.751
 7494TIP3    H222424   0.458   3.535   3.600
 7495TIP3   OH222425   6.905   6.605   6.182
 7495TIP3    H122426   6.856   6.553   6.246
 7495TIP3    H222427   6.920   6.545   6.109
 7496TIP3   OH222428   2.123   6.540   3.672
 7496TIP3    H122429   2.043   6.583   3.703
 7496TIP3    H222430   2.155   6.491   3.749
 7497TIP3   OH222431   4.075   1.087   3.273
 7497TIP3    H122432   4.101   1.043   3.192
 7497TIP3    H222433   4.125   1.043   3.342
 7498TIP3   OH222434   5.497   5.431   0.664
 7498TIP3    H122435   5.511   5.479   0.745
 7498TIP3    H222436   5.584   5.399   0.640
 7499TIP3   OH222437   0.031   3.449   0.894
 7499TIP3    H122438   0.097   3.511   0.862
 7499TIP3    H222439   0.073   3.406   0.968
 7500TIP3   OH222440   1.898   3.899   4.556
 7500TIP3    H122441   1.962   3.835   4.523
 7500TIP3    H222442   1.847   3.851   4.621
 7501TIP3   OH222443   2.817   1.468   5.162
 7501TIP3    H122444   2.722   1.475   5.150
 7501TIP3    H222445   2.832   1.375   5.181
 7502TIP3   OH222446   7.670   5.285   6.028
 7502TIP3    H122447   7.601   5.266   5.964
 7502TIP3    H222448   7.744   5.315   5.976
 7503TIP3   OH222449   1.662   7.358   5.692
 7503TIP3    H122450   1.623   7.343   5.606
 7503TIP3    H222451   1.627   7.288   5.747
 7504TIP3   OH222452   6.599   2.271   2.486
 7504TIP3    H122453   6.535   2.274   2.415
 7504TIP3    H222454   6.679   2.307   2.447
 7505TIP3   OH222455   3.589   1.468   5.986
 7505TIP3    H122456   3.543   1.385   5.970
 7505TIP3    H222457   3.682   1.447   5.974
 7506TIP3   OH222458   1.112   5.087   5.307
 7506TIP3    H122459   1.196   5.071   5.264
 7506TIP3    H222460   1.058   5.126   5.238
 7507TIP3   OH222461   5.045   3.335   3.936
 7507TIP3    H122462   5.002   3.255   3.966
 7507TIP3    H222463   5.064   3.318   3.843
 7508TIP3   OH222464   0.151   6.584   5.376
 7508TIP3    H122465   0.240   6.555   5.354
 7508TIP3    H222466   0.151   6.592   5.471
 7509TIP3   OH222467   7.202   3.663   1.018
 7509TIP3    H122468   7.151   3.743   1.007
 7509TIP3    H222469   7.207   3.625   0.930
 7510TIP3   OH222470   2.562   4.911   0.576
 7510TIP3    H122471   2.468   4.901   0.591
 7510TIP3    H222472   2.570   4.996   0.531
 7511TIP3   OH222473   0.168   6.117   4.379
 7511TIP3    H122474   0.192   6.159   4.461
 7511TIP3    H222475   0.095   6.059   4.402
 7512TIP3   OH222476   2.969   4.170   4.456
 7512TIP3    H122477   2.904   4.155   4.524
 7512TIP3    H222478   2.938   4.120   4.381
 7513TIP3   OH222479   2.054   3.885   4.888
 7513TIP3    H122480   2.074   3.803   4.932
 7513TIP3    H222481   1.967   3.873   4.852
 7514TIP3   OH222482   2.579   3.223   4.802
 7514TIP3    H122483   2.521   3.153   4.830
 7514TIP3    H222484   2.528   3.303   4.815
 7515TIP3   OH222485   2.889   7.616   6.334
 7515TIP3    H122486   2.850   7.693   6.376
 7515TIP3    H222487   2.958   7.589   6.393
 7516TIP3   OH222488   6.885   4.165   5.724
 7516TIP3    H122489   6.919   4.076   5.719
 7516TIP3    H222490   6.839   4.178   5.642
 7517TIP3   OH222491   1.953   4.261   6.031
 7517TIP3    H122492   2.037   4.304   6.013
 7517TIP3    H222493   1.953   4.183   5.976
 7518TIP3   OH222494   5.194   6.949   1.657
 7518TIP3    H122495   5.277   6.938   1.610
 7518TIP3    H222496   5.178   6.863   1.697
 7519TIP3   OH222497   7.478   4.399   2.151
 7519TIP3    H122498   7.462   4.342   2.076
 7519TIP3    H222499   7.454   4.486   2.121
 7520TIP3   OH222500   6.746   3.397   6.080
 7520TIP3    H122501   6.818   3.359   6.029
 7520TIP3    H222502   6.707   3.462   6.022
 7521TIP3   OH222503   3.460   6.743   5.308
 7521TIP3    H122504   3.514   6.800   5.362
 7521TIP3    H222505   3.408   6.803   5.254
 7522TIP3   OH222506   4.138   4.825   1.288
 7522TIP3    H122507   4.049   4.792   1.276
 7522TIP3    H222508   4.153   4.820   1.383
 7523TIP3   OH222509   7.175   3.681   5.525
 7523TIP3    H122510   7.228   3.601   5.524
 7523TIP3    H222511   7.135   3.684   5.438
 7524TIP3   OH222512   4.763   5.306   5.006
 7524TIP3    H122513   4.744   5.390   5.048
 7524TIP3    H222514   4.759   5.325   4.912
 7525TIP3   OH222515   5.549   3.616   2.220
 7525TIP3    H122516   5.493   3.548   2.258
 7525TIP3    H222517   5.527   3.695   2.268
 7526TIP3   OH222518   1.983   2.759   3.263
 7526TIP3    H122519   1.940   2.693   3.209
 7526TIP3    H222520   2.025   2.708   3.333
 7527TIP3   OH222521   3.971   5.520   5.086
 7527TIP3    H122522   3.994   5.495   5.175
 7527TIP3    H222523   3.958   5.436   5.040
 7528TIP3   OH222524   0.806   2.312   1.822
 7528TIP3    H122525   0.898   2.310   1.849
 7528TIP3    H222526   0.806   2.277   1.733
 7529TIP3   OH222527   0.020   4.736   4.225
 7529TIP3    H122528   0.109   4.733   4.189
 7529TIP3    H222529   0.008   4.651   4.268
 7530TIP3   OH222530   4.647   7.671   6.560
 7530TIP3    H122531   4.733   7.670   6.517
 7530TIP3    H222532   4.597   7.603   6.515
 7531TIP3   OH222533   0.930   2.251   3.248
 7531TIP3    H122534   0.908   2.342   3.231
 7531TIP3    H222535   0.869   2.200   3.194
 7532TIP3   OH222536   1.539   0.114   5.527
 7532TIP3    H122537   1.615   0.100   5.471
 7532TIP3    H222538   1.474   0.052   5.495
 7533TIP3   OH222539   7.276   3.988   6.502
 7533TIP3    H122540   7.284   3.913   6.443
 7533TIP3    H222541   7.298   3.953   6.588
 7534TIP3   OH222542   2.053   1.437   4.494
 7534TIP3    H122543   2.083   1.489   4.420
 7534TIP3    H222544   2.132   1.422   4.546
 7535TIP3   OH222545   2.863   0.174   2.607
 7535TIP3    H122546   2.839   0.151   2.697
 7535TIP3    H222547   2.958   0.181   2.609
 7536TIP3   OH222548   2.240   4.153   6.201
 7536TIP3    H122549   2.194   4.070   6.188
 7536TIP3    H222550   2.332   4.129   6.212
 7537TIP3   OH222551   0.718   7.633   1.194
 7537TIP3    H122552   0.628   7.662   1.184
 7537TIP3    H222553   0.770   7.713   1.195
 7538TIP3   OH222554   6.230   4.980   0.169
 7538TIP3    H122555   6.165   5.025   0.224
 7538TIP3    H222556   6.268   4.914   0.227
 7539TIP3   OH222557   2.861   1.644   2.582
 7539TIP3    H122558   2.855   1.725   2.531
 7539TIP3    H222559   2.880   1.674   2.671
 7540TIP3   OH222560   7.531   5.001   6.417
 7540TIP3    H122561   7.462   5.038   6.472
 7540TIP3    H222562   7.541   5.064   6.345
 7541TIP3   OH222563   4.424   4.872   1.262
 7541TIP3    H122564   4.469   4.943   1.216
 7541TIP3    H222565   4.335   4.874   1.228
 7542TIP3   OH222566   5.708   6.563   3.556
 7542TIP3    H122567   5.634   6.613   3.589
 7542TIP3    H222568   5.744   6.519   3.633
 7543TIP3   OH222569   0.598   0.633   6.048
 7543TIP3    H122570   0.529   0.617   5.985
 7543TIP3    H222571   0.589   0.726   6.070
 7544TIP3   OH222572   5.934   1.082   3.448
 7544TIP3    H122573   5.870   1.131   3.396
 7544TIP3    H222574   5.890   1.067   3.532
 7545TIP3   OH222575   4.337   6.484   0.567
 7545TIP3    H122576   4.420   6.530   0.579
 7545TIP3    H222577   4.349   6.432   0.488
 7546TIP3   OH222578   5.119   6.189   1.190
 7546TIP3    H122579   5.184   6.180   1.260
 7546TIP3    H222580   5.036   6.166   1.232
 7547TIP3   OH222581   2.815   3.278   5.794
 7547TIP3    H122582   2.776   3.325   5.721
 7547TIP3    H222583   2.825   3.189   5.763
 7548TIP3   OH222584   1.793   2.168   0.989
 7548TIP3    H122585   1.748   2.224   0.925
 7548TIP3    H222586   1.800   2.223   1.067
 7549TIP3   OH222587   1.084   3.030   6.149
 7549TIP3    H122588   1.110   3.116   6.117
 7549TIP3    H222589   1.000   3.013   6.106
 7550TIP3   OH222590   3.425   1.956   5.229
 7550TIP3    H122591   3.388   1.985   5.312
 7550TIP3    H222592   3.469   1.874   5.249
 7551TIP3   OH222593   2.433   4.884   1.909
 7551TIP3    H122594   2.503   4.866   1.847
 7551TIP3    H222595   2.352   4.866   1.860
 7552TIP3   OH222596   2.208   6.430   3.379
 7552TIP3    H122597   2.227   6.509   3.430
 7552TIP3    H222598   2.130   6.393   3.422
 7553TIP3   OH222599   1.256   4.464   1.573
 7553TIP3    H122600   1.227   4.555   1.587
 7553TIP3    H222601   1.347   4.473   1.545
 7554TIP3   OH222602   0.135   2.741   1.815
 7554TIP3    H122603   0.214   2.791   1.795
 7554TIP3    H222604   0.144   2.660   1.766
 7555TIP3   OH222605   3.437   7.724   4.190
 7555TIP3    H122606   3.380   7.660   4.233
 7555TIP3    H222607   3.422   7.710   4.096
 7556TIP3   OH222608   7.821   3.540   5.517
 7556TIP3    H122609   7.727   3.527   5.503
 7556TIP3    H222610   7.853   3.572   5.433
 7557TIP3   OH222611   4.941   0.572   0.876
 7557TIP3    H122612   4.849   0.596   0.890
 7557TIP3    H222613   4.940   0.476   0.875
 7558TIP3   OH222614   8.257   3.550   2.903
 7558TIP3    H122615   8.221   3.607   2.834
 7558TIP3    H222616   8.322   3.603   2.948
 7559TIP3   OH222617   2.028   6.684   3.178
 7559TIP3    H122618   1.969   6.718   3.111
 7559TIP3    H222619   1.975   6.622   3.227
 7560TIP3   OH222620   0.984   6.564   4.137
 7560TIP3    H122621   0.938   6.551   4.220
 7560TIP3    H222622   1.007   6.657   4.135
 7561TIP3   OH222623   4.023   0.973   4.423
 7561TIP3    H122624   3.994   0.978   4.331
 7561TIP3    H222625   4.055   0.883   4.433
 7562TIP3   OH222626   6.423   1.055   6.828
 7562TIP3    H122627   6.424   1.130   6.768
 7562TIP3    H222628   6.434   0.979   6.771
 7563TIP3   OH222629   5.531   2.967   3.339
 7563TIP3    H122630   5.564   2.920   3.263
 7563TIP3    H222631   5.473   3.033   3.303
 7564TIP3   OH222632   4.860   2.324   1.805
 7564TIP3    H122633   4.820   2.246   1.767
 7564TIP3    H222634   4.939   2.290   1.848
 7565TIP3   OH222635   2.828   3.931   2.938
 7565TIP3    H122636   2.828   3.879   3.018
 7565TIP3    H222637   2.738   3.962   2.928
 7566TIP3   OH222638   1.015   1.204   3.160
 7566TIP3    H122639   1.068   1.154   3.097
 7566TIP3    H222640   1.076   1.268   3.197
 7567TIP3   OH222641   1.002   5.714   0.107
 7567TIP3    H122642   1.080   5.693   0.159
 7567TIP3    H222643   1.035   5.727   0.018
 7568TIP3   OH222644   7.752   7.643   5.184
 7568TIP3    H122645   7.788   7.559   5.213
 7568TIP3    H222646   7.829   7.700   5.175
 7569TIP3   OH222647   2.012   6.450   2.077
 7569TIP3    H122648   2.021   6.493   1.992
 7569TIP3    H222649   1.921   6.468   2.103
 7570TIP3   OH222650   5.515   4.561   3.918
 7570TIP3    H122651   5.430   4.522   3.942
 7570TIP3    H222652   5.541   4.513   3.839
 7571TIP3   OH222653   4.361   3.109   2.483
 7571TIP3    H122654   4.280   3.080   2.524
 7571TIP3    H222655   4.332   3.155   2.403
 7572TIP3   OH222656   5.413   2.199   5.980
 7572TIP3    H122657   5.485   2.208   5.918
 7572TIP3    H222658   5.356   2.132   5.941
 7573TIP3   OH222659   5.928   6.124   0.211
 7573TIP3    H122660   5.848   6.130   0.263
 7573TIP3    H222661   5.954   6.215   0.196
 7574TIP3   OH222662   1.734   6.066   6.773
 7574TIP3    H122663   1.736   6.111   6.689
 7574TIP3    H222664   1.816   6.017   6.776
 7575TIP3   OH222665   6.534   7.343   4.357
 7575TIP3    H122666   6.534   7.305   4.444
 7575TIP3    H222667   6.597   7.291   4.307
 7576TIP3   OH222668   2.029   7.583   6.459
 7576TIP3    H122669   2.070   7.497   6.464
 7576TIP3    H222670   2.070   7.625   6.384
 7577TIP3   OH222671   5.312   5.768   0.671
 7577TIP3    H122672   5.317   5.855   0.631
 7577TIP3    H222673   5.275   5.712   0.603
 7578TIP3   OH222674   6.876   4.736   6.338
 7578TIP3    H122675   6.935   4.783   6.398
 7578TIP3    H222676   6.847   4.803   6.276
 7579TIP3   OH222677   4.531   6.586   4.781
 7579TIP3    H122678   4.547   6.657   4.843
 7579TIP3    H222679   4.563   6.620   4.697
 7580TIP3   OH222680   1.866   5.092   0.891
 7580TIP3    H122681   1.943   5.045   0.923
 7580TIP3    H222682   1.859   5.067   0.799
 7581TIP3   OH222683   5.394   4.058   1.572
 7581TIP3    H122684   5.371   4.115   1.645
 7581TIP3    H222685   5.449   4.113   1.515
 7582TIP3   OH222686   3.678   2.765   2.546
 7582TIP3    H122687   3.639   2.682   2.520
 7582TIP3    H222688   3.765   2.764   2.507
 7583TIP3   OH222689   4.399   3.867  -0.006
 7583TIP3    H122690   4.468   3.867   0.061
 7583TIP3    H222691   4.325   3.908   0.037
 7584TIP3   OH222692   1.872   4.569   0.912
 7584TIP3    H122693   1.958   4.601   0.886
 7584TIP3    H222694   1.811   4.612   0.853
 7585TIP3   OH222695   7.865   3.615   2.752
 7585TIP3    H122696   7.857   3.538   2.696
 7585TIP3    H222697   7.954   3.610   2.787
 7586TIP3   OH222698   1.882   2.244   5.759
 7586TIP3    H122699   1.921   2.286   5.835
 7586TIP3    H222700   1.866   2.315   5.697
 7587TIP3   OH222701   2.258   1.413   3.626
 7587TIP3    H122702   2.276   1.507   3.623
 7587TIP3    H222703   2.230   1.391   3.537
 7588TIP3   OH222704   5.840   5.383   1.647
 7588TIP3    H122705   5.758   5.350   1.682
 7588TIP3    H222706   5.825   5.477   1.633
 7589TIP3   OH222707   6.535   1.928   2.993
 7589TIP3    H122708   6.572   2.013   3.018
 7589TIP3    H222709   6.442   1.946   2.978
 7590TIP3   OH222710   1.111   2.853   0.814
 7590TIP3    H122711   1.081   2.867   0.724
 7590TIP3    H222712   1.078   2.928   0.863
 7591TIP3   OH222713   5.620   4.854   2.961
 7591TIP3    H122714   5.616   4.928   2.901
 7591TIP3    H222715   5.574   4.884   3.039
 7592TIP3   OH222716   1.097   3.104   2.960
 7592TIP3    H122717   1.149   3.026   2.980
 7592TIP3    H222718   1.155   3.157   2.904
 7593TIP3   OH222719   6.772   2.949   6.735
 7593TIP3    H122720   6.728   2.879   6.783
 7593TIP3    H222721   6.865   2.925   6.738
 7594TIP3   OH222722   1.688   3.681   6.589
 7594TIP3    H122723   1.604   3.640   6.571
 7594TIP3    H222724   1.708   3.657   6.679
 7595TIP3   OH222725   8.159   6.191   3.313
 7595TIP3    H122726   8.222   6.125   3.341
 7595TIP3    H222727   8.212   6.269   3.294
 7596TIP3   OH222728   3.115   1.337   4.643
 7596TIP3    H122729   3.024   1.352   4.618
 7596TIP3    H222730   3.137   1.251   4.607
 7597TIP3   OH222731   4.295   3.710   1.320
 7597TIP3    H122732   4.278   3.771   1.393
 7597TIP3    H222733   4.246   3.631   1.344
 7598TIP3   OH222734   5.878   3.684   3.791
 7598TIP3    H122735   5.888   3.592   3.812
 7598TIP3    H222736   5.804   3.688   3.730
 7599TIP3   OH222737   2.232   2.656   4.910
 7599TIP3    H122738   2.247   2.705   4.990
 7599TIP3    H222739   2.227   2.564   4.938
 7600TIP3   OH222740   0.097   7.667   6.041
 7600TIP3    H122741   0.101   7.619   5.959
 7600TIP3    H222742   0.054   7.750   6.018
 7601TIP3   OH222743   1.220   5.598   5.097
 7601TIP3    H122744   1.267   5.533   5.149
 7601TIP3    H222745   1.280   5.621   5.027
 7602TIP3   OH222746   7.138   7.174   5.411
 7602TIP3    H122747   7.199   7.148   5.480
 7602TIP3    H222748   7.163   7.120   5.336
 7603TIP3   OH222749   6.784   6.115   0.118
 7603TIP3    H122750   6.805   6.167   0.196
 7603TIP3    H222751   6.843   6.150   0.050
 7604TIP3   OH222752   0.941   2.204   6.628
 7604TIP3    H122753   0.865   2.257   6.654
 7604TIP3    H222754   0.928   2.120   6.671
 7605TIP3   OH222755   2.633   2.307   0.529
 7605TIP3    H122756   2.549   2.320   0.484
 7605TIP3    H222757   2.657   2.395   0.559
 7606TIP3   OH222758   6.057   5.950   0.856
 7606TIP3    H122759   6.002   5.927   0.781
 7606TIP3    H222760   6.111   5.872   0.869
 7607TIP3   OH222761   5.297   4.055   5.033
 7607TIP3    H122762   5.302   4.133   5.087
 7607TIP3    H222763   5.385   4.042   5.000
 7608TIP3   OH222764   7.663   4.586   2.315
 7608TIP3    H122765   7.613   4.515   2.276
 7608TIP3    H222766   7.724   4.543   2.375
 7609TIP3   OH222767   3.921   4.672   2.349
 7609TIP3    H122768   3.983   4.683   2.278
 7609TIP3    H222769   3.911   4.578   2.359
 7610TIP3   OH222770   7.783   6.941   1.554
 7610TIP3    H122771   7.828   6.986   1.626
 7610TIP3    H222772   7.792   6.848   1.575
 7611TIP3   OH222773   1.073   5.446   6.471
 7611TIP3    H122774   1.029   5.374   6.516
 7611TIP3    H222775   1.009   5.474   6.404
 7612TIP3   OH222776   0.370   3.467   0.062
 7612TIP3    H122777   0.404   3.427  -0.018
 7612TIP3    H222778   0.417   3.550   0.069
 7613TIP3   OH222779   6.367   1.444   1.101
 7613TIP3    H122780   6.449   1.479   1.134
 7613TIP3    H222781   6.322   1.520   1.063
 7614TIP3   OH222782   4.845   2.084   1.674
 7614TIP3    H122783   4.890   2.131   1.603
 7614TIP3    H222784   4.866   1.992   1.658
 7615TIP3   OH222785   2.286   7.137   1.451
 7615TIP3    H122786   2.243   7.059   1.416
 7615TIP3    H222787   2.221   7.175   1.510
 7616TIP3   OH222788   0.518   3.623   6.257
 7616TIP3    H122789   0.571   3.693   6.218
 7616TIP3    H222790   0.444   3.614   6.198
 7617TIP3   OH222791   3.816   6.857   3.015
 7617TIP3    H122792   3.754   6.899   2.956
 7617TIP3    H222793   3.789   6.765   3.017
 7618TIP3   OH222794   2.551   6.720   0.711
 7618TIP3    H122795   2.636   6.693   0.746
 7618TIP3    H222796   2.517   6.641   0.669
 7619TIP3   OH222797   2.436   0.360   1.566
 7619TIP3    H122798   2.398   0.278   1.597
 7619TIP3    H222799   2.361   0.416   1.547
 7620TIP3   OH222800   6.969   3.489   0.622
 7620TIP3    H122801   6.996   3.400   0.600
 7620TIP3    H222802   6.937   3.483   0.712
 7621TIP3   OH222803   5.717   1.815   5.142
 7621TIP3    H122804   5.748   1.734   5.102
 7621TIP3    H222805   5.745   1.884   5.081
 7622TIP3   OH222806   1.235   6.318   6.099
 7622TIP3    H122807   1.224   6.313   6.004
 7622TIP3    H222808   1.259   6.229   6.125
 7623TIP3   OH222809   7.810   6.967   3.653
 7623TIP3    H122810   7.736   7.023   3.629
 7623TIP3    H222811   7.780   6.878   3.631
 7624TIP3   OH222812   1.869   7.250   4.819
 7624TIP3    H122813   1.912   7.288   4.896
 7624TIP3    H222814   1.814   7.321   4.785
 7625TIP3   OH222815   7.028   6.195   4.401
 7625TIP3    H122816   7.001   6.190   4.310
 7625TIP3    H222817   7.123   6.198   4.398
 7626TIP3   OH222818   0.036   1.864   4.336
 7626TIP3    H122819   0.086   1.824   4.265
 7626TIP3    H222820   0.058   1.813   4.414
 7627TIP3   OH222821   2.926   7.804   0.090
 7627TIP3    H122822   2.902   7.806  -0.002
 7627TIP3    H222823   3.009   7.756   0.092
 7628TIP3   OH222824   6.434   7.627   4.609
 7628TIP3    H122825   6.342   7.652   4.605
 7628TIP3    H222826   6.437   7.559   4.676
 7629TIP3   OH222827   1.651   0.897   6.522
 7629TIP3    H122828   1.563   0.926   6.497
 7629TIP3    H222829   1.656   0.806   6.492
 7630TIP3   OH222830   5.182   3.941   6.552
 7630TIP3    H122831   5.237   3.915   6.478
 7630TIP3    H222832   5.108   3.986   6.513
 7631TIP3   OH222833   4.710   1.706   5.359
 7631TIP3    H122834   4.641   1.693   5.294
 7631TIP3    H222835   4.781   1.750   5.310
 7632TIP3   OH222836   4.257   3.355   1.095
 7632TIP3    H122837   4.326   3.349   1.029
 7632TIP3    H222838   4.298   3.398   1.169
 7633TIP3   OH222839   5.967   1.836   0.477
 7633TIP3    H122840   5.906   1.848   0.550
 7633TIP3    H222841   6.033   1.904   0.490
 7634TIP3   OH222842   2.465   2.180   2.355
 7634TIP3    H122843   2.522   2.145   2.424
 7634TIP3    H222844   2.491   2.272   2.347
 7635TIP3   OH222845   7.549   7.812   2.018
 7635TIP3    H122846   7.635   7.853   2.012
 7635TIP3    H222847   7.511   7.848   2.098
 7636TIP3   OH222848   7.056   0.376   0.044
 7636TIP3    H122849   6.985   0.441   0.046
 7636TIP3    H222850   7.057   0.344  -0.046
 7637TIP3   OH222851   7.622   0.455   6.643
 7637TIP3    H122852   7.568   0.406   6.705
 7637TIP3    H222853   7.577   0.446   6.559
 7638TIP3   OH222854   8.369   4.838   0.034
 7638TIP3    H122855   8.370   4.764   0.094
 7638TIP3    H222856   8.462   4.858   0.019
 7639TIP3   OH222857   4.552   5.737   0.842
 7639TIP3    H122858   4.475   5.792   0.830
 7639TIP3    H222859   4.612   5.764   0.773
 7640TIP3   OH222860   0.909   7.646   4.302
 7640TIP3    H122861   0.856   7.688   4.234
 7640TIP3    H222862   0.918   7.712   4.371
 7641TIP3   OH222863   4.141   1.564   0.137
 7641TIP3    H122864   4.093   1.636   0.178
 7641TIP3    H222865   4.077   1.522   0.080
 7642TIP3   OH222866   2.648   4.297   3.309
 7642TIP3    H122867   2.648   4.217   3.362
 7642TIP3    H222868   2.699   4.360   3.361
 7643TIP3   OH222869   7.429   2.329   4.891
 7643TIP3    H122870   7.424   2.401   4.953
 7643TIP3    H222871   7.392   2.254   4.938
 7644TIP3   OH222872   6.256   1.278   4.529
 7644TIP3    H122873   6.275   1.363   4.490
 7644TIP3    H222874   6.286   1.214   4.465
 7645TIP3   OH222875   2.613   5.381   3.926
 7645TIP3    H122876   2.693   5.327   3.921
 7645TIP3    H222877   2.569   5.349   4.005
 7646TIP3   OH222878   3.373   7.246   1.837
 7646TIP3    H122879   3.452   7.300   1.838
 7646TIP3    H222880   3.327   7.271   1.757
 7647TIP3   OH222881   6.702   3.118   6.131
 7647TIP3    H122882   6.708   3.213   6.127
 7647TIP3    H222883   6.768   3.087   6.070
 7648TIP3   OH222884   2.887   2.484   5.264
 7648TIP3    H122885   2.978   2.469   5.237
 7648TIP3    H222886   2.871   2.418   5.331
 7649TIP3   OH222887   7.190   4.865   6.285
 7649TIP3    H122888   7.200   4.865   6.380
 7649TIP3    H222889   7.169   4.956   6.264
 7650TIP3   OH222890   7.325   6.516   0.779
 7650TIP3    H122891   7.256   6.455   0.807
 7650TIP3    H222892   7.288   6.562   0.704
 7651TIP3   OH222893   6.700   7.592   4.523
 7651TIP3    H122894   6.604   7.601   4.518
 7651TIP3    H222895   6.720   7.600   4.616
 7652TIP3   OH222896   6.182   3.054   5.191
 7652TIP3    H122897   6.222   3.108   5.123
 7652TIP3    H222898   6.140   3.117   5.250
 7653TIP3   OH222899   1.078   3.510   2.895
 7653TIP3    H122900   0.987   3.535   2.882
 7653TIP3    H222901   1.121   3.530   2.811
 7654TIP3   OH222902   4.132   1.882   4.224
 7654TIP3    H122903   4.164   1.921   4.305
 7654TIP3    H222904   4.084   1.953   4.181
 7655TIP3   OH222905   1.645   2.328   2.542
 7655TIP3    H122906   1.550   2.319   2.557
 7655TIP3    H222907   1.685   2.267   2.603
 7656TIP3   OH222908   4.480   3.521   2.717
 7656TIP3    H122909   4.445   3.556   2.635
 7656TIP3    H222910   4.404   3.508   2.773
 7657TIP3   OH222911   6.346   4.782   1.855
 7657TIP3    H122912   6.381   4.772   1.943
 7657TIP3    H222913   6.357   4.696   1.815
 7658TIP3   OH222914   7.175   5.091   4.982
 7658TIP3    H122915   7.108   5.030   4.953
 7658TIP3    H222916   7.171   5.163   4.920
 7659TIP3   OH222917   1.238   5.734   3.941
 7659TIP3    H122918   1.301   5.798   3.972
 7659TIP3    H222919   1.284   5.685   3.873
 7660TIP3   OH222920   3.683   6.805   0.940
 7660TIP3    H122921   3.632   6.885   0.924
 7660TIP3    H222922   3.766   6.821   0.894
 7661TIP3   OH222923   8.013   4.768   4.774
 7661TIP3    H122924   7.978   4.843   4.822
 7661TIP3    H222925   8.085   4.736   4.828
 7662TIP3   OH222926   4.069   5.249   4.888
 7662TIP3    H122927   4.099   5.161   4.911
 7662TIP3    H222928   3.993   5.235   4.832
 7663TIP3   OH222929   5.149   4.948   3.245
 7663TIP3    H122930   5.057   4.944   3.275
 7663TIP3    H222931   5.145   4.921   3.154
 7664TIP3   OH222932   2.744   3.360   3.191
 7664TIP3    H122933   2.725   3.348   3.284
 7664TIP3    H222934   2.794   3.442   3.187
 7665TIP3   OH222935   4.548   3.625   1.259
 7665TIP3    H122936   4.596   3.694   1.213
 7665TIP3    H222937   4.460   3.661   1.271
 7666TIP3   OH222938   4.020   2.634   6.516
 7666TIP3    H122939   4.022   2.614   6.423
 7666TIP3    H222940   3.991   2.725   6.522
 7667TIP3   OH222941   0.804   3.735   4.942
 7667TIP3    H122942   0.772   3.733   4.852
 7667TIP3    H222943   0.889   3.690   4.937
 7668TIP3   OH222944   1.201   4.800   4.382
 7668TIP3    H122945   1.149   4.803   4.301
 7668TIP3    H222946   1.136   4.805   4.452
 7669TIP3   OH222947   3.770   0.690   4.207
 7669TIP3    H122948   3.725   0.771   4.184
 7669TIP3    H222949   3.793   0.701   4.300
 7670TIP3   OH222950   8.363   2.921   2.507
 7670TIP3    H122951   8.305   2.976   2.455
 7670TIP3    H222952   8.305   2.862   2.555
 7671TIP3   OH222953   4.043   7.240   2.487
 7671TIP3    H122954   3.969   7.180   2.478
 7671TIP3    H222955   4.010   7.311   2.543
 7672TIP3   OH222956   5.542   5.927   6.057
 7672TIP3    H122957   5.494   6.010   6.068
 7672TIP3    H222958   5.475   5.859   6.068
 7673TIP3   OH222959   5.579   0.061   3.778
 7673TIP3    H122960   5.503   0.097   3.823
 7673TIP3    H222961   5.634   0.137   3.758
 7674TIP3   OH222962   3.754   3.067   0.569
 7674TIP3    H122963   3.794   3.043   0.486
 7674TIP3    H222964   3.718   3.155   0.554
 7675TIP3   OH222965   7.072   3.308   3.228
 7675TIP3    H122966   7.018   3.236   3.197
 7675TIP3    H222967   7.161   3.274   3.226
 7676TIP3   OH222968   8.133   3.947   4.668
 7676TIP3    H122969   8.221   3.913   4.684
 7676TIP3    H222970   8.144   4.042   4.664
 7677TIP3   OH222971   3.576   0.365   0.678
 7677TIP3    H122972   3.589   0.278   0.716
 7677TIP3    H222973   3.485   0.386   0.697
 7678TIP3   OH222974   7.091   3.151   0.825
 7678TIP3    H122975   7.114   3.080   0.885
 7678TIP3    H222976   7.000   3.132   0.800
 7679TIP3   OH222977   5.048   1.596   4.968
 7679TIP3    H122978   5.061   1.509   4.931
 7679TIP3    H222979   5.009   1.581   5.054
 7680TIP3   OH222980   0.561   4.768   1.509
 7680TIP3    H122981   0.582   4.718   1.430
 7680TIP3    H222982   0.469   4.749   1.526
 7681TIP3   OH222983   3.489   2.822   6.795
 7681TIP3    H122984   3.403   2.826   6.753
 7681TIP3    H222985   3.535   2.753   6.748
 7682TIP3   OH222986   5.694   5.138   1.721
 7682TIP3    H122987   5.666   5.101   1.638
 7682TIP3    H222988   5.771   5.087   1.746
 7683TIP3   OH222989   4.240   5.086   0.069
 7683TIP3    H122990   4.266   4.994   0.067
 7683TIP3    H222991   4.218   5.103   0.160
 7684TIP3   OH222992   5.415   7.517   2.067
 7684TIP3    H122993   5.471   7.476   2.132
 7684TIP3    H222994   5.403   7.450   1.999
 7685TIP3   OH222995   3.940   0.429   4.494
 7685TIP3    H122996   3.861   0.411   4.443
 7685TIP3    H222997   3.996   0.353   4.478
 7686TIP3   OH222998   3.094   7.521   4.549
 7686TIP3    H122999   3.129   7.569   4.474
 7686TIP3    H223000   3.075   7.434   4.514
 7687TIP3   OH223001   6.291   1.336   2.542
 7687TIP3    H123002   6.366   1.322   2.599
 7687TIP3    H223003   6.321   1.399   2.477
 7688TIP3   OH223004   5.513   2.580   6.014
 7688TIP3    H123005   5.533   2.534   5.932
 7688TIP3    H223006   5.483   2.666   5.986
 7689TIP3   OH223007   3.883   1.660   6.134
 7689TIP3    H123008   3.810   1.714   6.164
 7689TIP3    H223009   3.898   1.687   6.044
 7690TIP3   OH223010   0.713   4.439   1.513
 7690TIP3    H123011   0.680   4.488   1.438
 7690TIP3    H223012   0.807   4.435   1.500
 7691TIP3   OH223013   7.226   4.647   0.336
 7691TIP3    H123014   7.261   4.735   0.324
 7691TIP3    H223015   7.138   4.651   0.299
 7692TIP3   OH223016   3.928   6.129   5.220
 7692TIP3    H123017   3.913   6.195   5.153
 7692TIP3    H223018   4.004   6.162   5.269
 7693TIP3   OH223019   7.613   3.848   4.504
 7693TIP3    H123020   7.658   3.919   4.551
 7693TIP3    H223021   7.620   3.773   4.562
 7694TIP3   OH223022   4.017   0.677   0.571
 7694TIP3    H123023   3.967   0.738   0.625
 7694TIP3    H223024   3.987   0.590   0.599
 7695TIP3   OH223025   2.472   7.186   2.157
 7695TIP3    H123026   2.426   7.257   2.112
 7695TIP3    H223027   2.556   7.179   2.112
 7696TIP3   OH223028   5.910   4.378   3.902
 7696TIP3    H123029   5.995   4.389   3.946
 7696TIP3    H223030   5.848   4.366   3.973
 7697TIP3   OH223031   3.010   3.411   1.015
 7697TIP3    H123032   3.040   3.469   0.945
 7697TIP3    H223033   2.951   3.350   0.971
 7698TIP3   OH223034   4.961   4.995   5.265
 7698TIP3    H123035   4.966   5.035   5.352
 7698TIP3    H223036   4.975   5.068   5.205
 7699TIP3   OH223037   1.881   0.339   6.336
 7699TIP3    H123038   1.848   0.286   6.263
 7699TIP3    H223039   1.868   0.429   6.308
 7700TIP3   OH223040   4.782   2.709   4.975
 7700TIP3    H123041   4.794   2.801   5.000
 7700TIP3    H223042   4.711   2.679   5.032
 7701TIP3   OH223043   4.126   5.899   4.855
 7701TIP3    H123044   4.105   5.809   4.828
 7701TIP3    H223045   4.085   5.908   4.941
 7702TIP3   OH223046   0.466   6.414   2.281
 7702TIP3    H123047   0.528   6.353   2.319
 7702TIP3    H223048   0.397   6.359   2.244
 7703TIP3   OH223049   5.890   3.764   5.339
 7703TIP3    H123050   5.932   3.812   5.410
 7703TIP3    H223051   5.835   3.829   5.296
 7704TIP3   OH223052   3.682   7.491   5.319
 7704TIP3    H123053   3.751   7.426   5.315
 7704TIP3    H223054   3.602   7.441   5.329
 7705TIP3   OH223055   5.205   7.245   4.229
 7705TIP3    H123056   5.227   7.166   4.278
 7705TIP3    H223057   5.250   7.234   4.145
 7706TIP3   OH223058   7.700   1.656   3.960
 7706TIP3    H123059   7.699   1.651   4.056
 7706TIP3    H223060   7.713   1.565   3.932
 7707TIP3   OH223061   6.251   5.314   2.275
 7707TIP3    H123062   6.284   5.224   2.271
 7707TIP3    H223063   6.225   5.335   2.186
 7708TIP3   OH223064   5.659   1.490   0.983
 7708TIP3    H123065   5.646   1.469   1.075
 7708TIP3    H223066   5.573   1.518   0.952
 7709TIP3   OH223067   1.903   4.376   5.254
 7709TIP3    H123068   1.917   4.335   5.168
 7709TIP3    H223069   1.921   4.307   5.317
 7710TIP3   OH223070   2.351   7.141   4.569
 7710TIP3    H123071   2.339   7.236   4.579
 7710TIP3    H223072   2.280   7.103   4.621
 7711TIP3   OH223073   7.051   4.690   3.761
 7711TIP3    H123074   6.986   4.729   3.820
 7711TIP3    H223075   7.060   4.753   3.690
 7712TIP3   OH223076   7.603   3.156   4.751
 7712TIP3    H123077   7.645   3.072   4.733
 7712TIP3    H223078   7.670   3.208   4.795
 7713TIP3   OH223079   0.412   3.481   1.885
 7713TIP3    H123080   0.479   3.414   1.893
 7713TIP3    H223081   0.429   3.542   1.956
 7714TIP3   OH223082   5.907   4.276   1.601
 7714TIP3    H123083   5.973   4.343   1.621
 7714TIP3    H223084   5.844   4.321   1.546
 7715TIP3   OH223085   5.545   7.045   4.326
 7715TIP3    H123086   5.456   7.075   4.347
 7715TIP3    H223087   5.532   6.964   4.277
 7716TIP3   OH223088   1.678   4.454   1.709
 7716TIP3    H123089   1.773   4.448   1.702
 7716TIP3    H223090   1.661   4.548   1.716
 7717TIP3   OH223091   8.252   4.481   5.838
 7717TIP3    H123092   8.173   4.532   5.853
 7717TIP3    H223093   8.266   4.435   5.921
 7718TIP3   OH223094   2.397   2.523   5.595
 7718TIP3    H123095   2.454   2.572   5.536
 7718TIP3    H223096   2.316   2.575   5.599
 7719TIP3   OH223097   4.087   7.659   0.338
 7719TIP3    H123098   4.054   7.664   0.249
 7719TIP3    H223099   4.168   7.710   0.337
 7720TIP3   OH223100   2.027   1.018   2.346
 7720TIP3    H123101   2.109   1.010   2.296
 7720TIP3    H223102   2.055   1.017   2.437
 7721TIP3   OH223103   6.072   4.845   4.147
 7721TIP3    H123104   6.133   4.773   4.158
 7721TIP3    H223105   6.091   4.905   4.219
 7722TIP3   OH223106   5.232   1.791   4.046
 7722TIP3    H123107   5.288   1.836   4.109
 7722TIP3    H223108   5.155   1.848   4.038
 7723TIP3   OH223109   6.400   5.513   4.743
 7723TIP3    H123110   6.366   5.494   4.656
 7723TIP3    H223111   6.396   5.608   4.751
 7724TIP3   OH223112   2.572   0.653   5.859
 7724TIP3    H123113   2.489   0.674   5.902
 7724TIP3    H223114   2.637   0.657   5.929
 7725TIP3   OH223115   7.001   0.530   5.396
 7725TIP3    H123116   7.056   0.453   5.382
 7725TIP3    H223117   6.945   0.534   5.318
 7726TIP3   OH223118   1.399   4.620   6.230
 7726TIP3    H123119   1.393   4.543   6.286
 7726TIP3    H223120   1.492   4.639   6.225
 7727TIP3   OH223121   6.580   1.954   2.350
 7727TIP3    H123122   6.502   1.931   2.401
 7727TIP3    H223123   6.574   2.049   2.340
 7728TIP3   OH223124   7.109   6.139   5.241
 7728TIP3    H123125   7.166   6.157   5.316
 7728TIP3    H223126   7.161   6.166   5.165
 7729TIP3   OH223127   7.287   7.878   6.574
 7729TIP3    H123128   7.232   7.888   6.652
 7729TIP3    H223129   7.231   7.831   6.512
 7730TIP3   OH223130   6.343   3.215   5.050
 7730TIP3    H123131   6.437   3.226   5.062
 7730TIP3    H223132   6.303   3.259   5.125
 7731TIP3   OH223133   6.481   7.167   1.713
 7731TIP3    H123134   6.570   7.203   1.722
 7731TIP3    H223135   6.494   7.080   1.674
 7732TIP3   OH223136   3.573   4.160   0.171
 7732TIP3    H123137   3.554   4.068   0.190
 7732TIP3    H223138   3.634   4.186   0.240
 7733TIP3   OH223139   5.855   3.279   3.661
 7733TIP3    H123140   5.812   3.263   3.578
 7733TIP3    H223141   5.939   3.318   3.638
 7734TIP3   OH223142   6.922   5.894   1.866
 7734TIP3    H123143   6.952   5.965   1.808
 7734TIP3    H223144   6.883   5.830   1.806
 7735TIP3   OH223145   1.561   5.042   5.822
 7735TIP3    H123146   1.629   5.080   5.767
 7735TIP3    H223147   1.602   4.965   5.861
 7736TIP3   OH223148   1.886   2.700   2.102
 7736TIP3    H123149   1.950   2.632   2.081
 7736TIP3    H223150   1.885   2.757   2.025
 7737TIP3   OH223151   1.570   3.840   4.602
 7737TIP3    H123152   1.542   3.907   4.664
 7737TIP3    H223153   1.528   3.864   4.519
 7738TIP3   OH223154   0.068   3.135   1.353
 7738TIP3    H123155   0.116   3.153   1.434
 7738TIP3    H223156   0.132   3.096   1.295
 7739TIP3   OH223157   5.677   6.981   0.483
 7739TIP3    H123158   5.664   6.949   0.573
 7739TIP3    H223159   5.687   6.901   0.431
 7740TIP3   OH223160   4.205   2.700   0.704
 7740TIP3    H123161   4.128   2.757   0.706
 7740TIP3    H223162   4.171   2.614   0.678
 7741TIP3   OH223163   3.786   5.047   5.368
 7741TIP3    H123164   3.868   5.015   5.407
 7741TIP3    H223165   3.733   5.075   5.442
 7742TIP3   OH223166   5.399   6.300   6.705
 7742TIP3    H123167   5.418   6.251   6.625
 7742TIP3    H223168   5.352   6.238   6.760
 7743TIP3   OH223169   0.297   4.720   4.189
 7743TIP3    H123170   0.324   4.672   4.111
 7743TIP3    H223171   0.360   4.792   4.195
 7744TIP3   OH223172   0.556   7.469   1.556
 7744TIP3    H123173   0.625   7.479   1.490
 7744TIP3    H223174   0.474   7.475   1.506
 7745TIP3   OH223175   2.541   2.841   6.353
 7745TIP3    H123176   2.497   2.789   6.285
 7745TIP3    H223177   2.634   2.837   6.329
 7746TIP3   OH223178   7.138   7.068   6.181
 7746TIP3    H123179   7.073   7.012   6.138
 7746TIP3    H223180   7.112   7.071   6.273
 7747TIP3   OH223181   8.085   5.425   1.482
 7747TIP3    H123182   8.005   5.377   1.458
 7747TIP3    H223183   8.097   5.407   1.575
 7748TIP3   OH223184   5.509   0.409   5.327
 7748TIP3    H123185   5.506   0.320   5.362
 7748TIP3    H223186   5.417   0.435   5.319
 7749TIP3   OH223187   2.881   3.228   3.451
 7749TIP3    H123188   2.876   3.147   3.400
 7749TIP3    H223189   2.950   3.279   3.409
 7750TIP3   OH223190   6.117   3.103   4.501
 7750TIP3    H123191   6.108   3.087   4.407
 7750TIP3    H223192   6.211   3.109   4.516
 7751TIP3   OH223193   5.349   6.151   0.115
 7751TIP3    H123194   5.354   6.124   0.207
 7751TIP3    H223195   5.256   6.147   0.093
 7752TIP3   OH223196   7.540   4.843   3.228
 7752TIP3    H123197   7.567   4.752   3.234
 7752TIP3    H223198   7.584   4.887   3.301
 7753TIP3   OH223199   8.165   4.323   1.687
 7753TIP3    H123200   8.097   4.262   1.658
 7753TIP3    H223201   8.247   4.276   1.672
 7754TIP3   OH223202   0.611   5.059   6.720
 7754TIP3    H123203   0.533   5.007   6.738
 7754TIP3    H223204   0.633   5.099   6.804
 7755TIP3   OH223205   3.675   1.525   4.171
 7755TIP3    H123206   3.645   1.546   4.260
 7755TIP3    H223207   3.648   1.600   4.118
 7756TIP3   OH223208   4.219   3.399  -0.042
 7756TIP3    H123209   4.257   3.484  -0.064
 7756TIP3    H223210   4.292   3.347  -0.011
 7757TIP3   OH223211   2.591   3.353   1.971
 7757TIP3    H123212   2.578   3.282   2.033
 7757TIP3    H223213   2.540   3.328   1.894
 7758TIP3   OH223214   7.056   0.883   4.684
 7758TIP3    H123215   6.992   0.817   4.656
 7758TIP3    H223216   7.024   0.964   4.645
 7759TIP3   OH223217   7.402   6.433   6.175
 7759TIP3    H123218   7.388   6.361   6.235
 7759TIP3    H223219   7.480   6.478   6.208
 7760TIP3   OH223220   2.519   2.820   0.731
 7760TIP3    H123221   2.564   2.901   0.756
 7760TIP3    H223222   2.457   2.847   0.664
 7761TIP3   OH223223   6.597   4.858   0.666
 7761TIP3    H123224   6.589   4.834   0.574
 7761TIP3    H223225   6.665   4.800   0.701
 7762TIP3   OH223226   6.888   1.225   1.418
 7762TIP3    H123227   6.966   1.173   1.437
 7762TIP3    H223228   6.864   1.265   1.501
 7763TIP3   OH223229   4.438   2.290   6.369
 7763TIP3    H123230   4.407   2.332   6.449
 7763TIP3    H223231   4.366   2.303   6.306
 7764TIP3   OH223232   1.808   7.728   2.799
 7764TIP3    H123233   1.770   7.815   2.792
 7764TIP3    H223234   1.896   7.737   2.763
 7765TIP3   OH223235   4.206   6.994   1.387
 7765TIP3    H123236   4.250   6.982   1.471
 7765TIP3    H223237   4.117   7.020   1.409
 7766TIP3   OH223238   7.135   2.548   0.675
 7766TIP3    H123239   7.210   2.602   0.699
 7766TIP3    H223240   7.116   2.497   0.754
 7767TIP3   OH223241   2.939   6.684   0.585
 7767TIP3    H123242   3.019   6.716   0.628
 7767TIP3    H223243   2.955   6.591   0.570
 7768TIP3   OH223244   7.089   0.989   2.212
 7768TIP3    H123245   7.001   0.953   2.205
 7768TIP3    H223246   7.102   1.004   2.306
 7769TIP3   OH223247   6.430   1.924   4.897
 7769TIP3    H123248   6.418   1.924   4.992
 7769TIP3    H223249   6.353   1.879   4.863
 7770TIP3   OH223250   5.755   3.073   5.508
 7770TIP3    H123251   5.696   3.055   5.435
 7770TIP3    H223252   5.786   3.162   5.493
 7771TIP3   OH223253   1.797   3.121   3.717
 7771TIP3    H123254   1.728   3.077   3.767
 7771TIP3    H223255   1.773   3.108   3.626
 7772TIP3   OH223256   1.084   2.917   2.685
 7772TIP3    H123257   1.045   2.847   2.737
 7772TIP3    H223258   1.175   2.921   2.714
 7773TIP3   OH223259   5.582   7.616   3.615
 7773TIP3    H123260   5.517   7.665   3.565
 7773TIP3    H223261   5.628   7.563   3.549
 7774TIP3   OH223262   7.361   2.098   4.237
 7774TIP3    H123263   7.309   2.106   4.157
 7774TIP3    H223264   7.337   2.014   4.274
 7775TIP3   OH223265   3.137   6.798   0.765
 7775TIP3    H123266   3.146   6.865   0.833
 7775TIP3    H223267   3.210   6.738   0.779
 7776TIP3   OH223268   5.989   2.759   3.520
 7776TIP3    H123269   5.893   2.756   3.512
 7776TIP3    H223270   6.015   2.835   3.468
 7777TIP3   OH223271   4.118   6.551   2.332
 7777TIP3    H123272   4.066   6.628   2.308
 7777TIP3    H223273   4.112   6.494   2.255
 7778TIP3   OH223274   3.919   0.450   0.660
 7778TIP3    H123275   3.852   0.429   0.595
 7778TIP3    H223276   3.886   0.413   0.742
 7779TIP3   OH223277   1.636   1.272   3.636
 7779TIP3    H123278   1.680   1.226   3.708
 7779TIP3    H223279   1.584   1.340   3.680
 7780TIP3   OH223280   7.471   2.572   2.624
 7780TIP3    H123281   7.485   2.477   2.620
 7780TIP3    H223282   7.469   2.600   2.532
 7781TIP3   OH223283   6.370   6.342   0.378
 7781TIP3    H123284   6.309   6.411   0.351
 7781TIP3    H223285   6.325   6.260   0.358
 7782TIP3   OH223286   0.821   3.985   2.649
 7782TIP3    H123287   0.768   3.993   2.727
 7782TIP3    H223288   0.902   3.944   2.679
 7783TIP3   OH223289   3.654   4.943   0.636
 7783TIP3    H123290   3.586   4.922   0.571
 7783TIP3    H223291   3.674   4.859   0.677
 7784TIP3   OH223292   0.332   1.405   6.039
 7784TIP3    H123293   0.296   1.373   5.956
 7784TIP3    H223294   0.347   1.327   6.091
 7785TIP3   OH223295   0.840   2.260   4.340
 7785TIP3    H123296   0.762   2.313   4.357
 7785TIP3    H223297   0.863   2.223   4.426
 7786TIP3   OH223298   4.145   2.734   1.529
 7786TIP3    H123299   4.232   2.733   1.567
 7786TIP3    H223300   4.089   2.769   1.597
 7787TIP3   OH223301   4.454   4.950   4.355
 7787TIP3    H123302   4.404   4.998   4.422
 7787TIP3    H223303   4.410   4.971   4.273
 7788TIP3   OH223304   5.046   1.961   3.641
 7788TIP3    H123305   4.958   1.941   3.609
 7788TIP3    H223306   5.104   1.911   3.584
 7789TIP3   OH223307  -0.011   0.316   0.337
 7789TIP3    H123308   0.013   0.225   0.316
 7789TIP3    H223309   0.021   0.367   0.262
 7790TIP3   OH223310   5.395   3.553   0.614
 7790TIP3    H123311   5.456   3.486   0.643
 7790TIP3    H223312   5.324   3.505   0.571
 7791TIP3   OH223313   8.376   5.331   4.612
 7791TIP3    H123314   8.417   5.403   4.660
 7791TIP3    H223315   8.357   5.265   4.678
 7792TIP3   OH223316   0.948   5.808   5.209
 7792TIP3    H123317   0.947   5.736   5.146
 7792TIP3    H223318   0.998   5.774   5.283
 7793TIP3   OH223319   5.780   2.864   3.829
 7793TIP3    H123320   5.766   2.872   3.734
 7793TIP3    H223321   5.694   2.878   3.868
 7794TIP3   OH223322   2.999   3.296   5.242
 7794TIP3    H123323   3.032   3.374   5.199
 7794TIP3    H223324   2.948   3.250   5.176
 7795TIP3   OH223325   3.164   2.753   0.167
 7795TIP3    H123326   3.235   2.740   0.104
 7795TIP3    H223327   3.206   2.795   0.242
 7796TIP3   OH223328   3.221   0.026   2.164
 7796TIP3    H123329   3.220  -0.022   2.081
 7796TIP3    H223330   3.313   0.044   2.180
 7797TIP3   OH223331   6.701   2.389   4.212
 7797TIP3    H123332   6.630   2.326   4.225
 7797TIP3    H223333   6.696   2.411   4.119
 7798TIP3   OH223334   6.118   4.805   6.130
 7798TIP3    H123335   6.206   4.784   6.161
 7798TIP3    H223336   6.103   4.895   6.160
 7799TIP3   OH223337   4.074   5.818   0.697
 7799TIP3    H123338   3.991   5.772   0.684
 7799TIP3    H223339   4.112   5.779   0.775
 7800TIP3   OH223340   2.628   0.205   6.549
 7800TIP3    H123341   2.680   0.142   6.499
 7800TIP3    H223342   2.562   0.151   6.594
 7801TIP3   OH223343   2.053   1.786  -0.009
 7801TIP3    H123344   2.097   1.846   0.051
 7801TIP3    H223345   2.093   1.701   0.007
 7802TIP3   OH223346   3.740   4.959   4.907
 7802TIP3    H123347   3.773   4.894   4.846
 7802TIP3    H223348   3.796   4.951   4.984
 7803TIP3   OH223349   7.154   2.669   1.666
 7803TIP3    H123350   7.233   2.721   1.673
 7803TIP3    H223351   7.116   2.694   1.581
 7804TIP3   OH223352   2.281   6.663   5.939
 7804TIP3    H123353   2.196   6.697   5.914
 7804TIP3    H223354   2.287   6.679   6.033
 7805TIP3   OH223355   5.674   4.669   5.754
 7805TIP3    H123356   5.724   4.609   5.809
 7805TIP3    H223357   5.740   4.711   5.699
 7806TIP3   OH223358   7.979   5.863   6.571
 7806TIP3    H123359   8.072   5.873   6.552
 7806TIP3    H223360   7.966   5.909   6.654
 7807TIP3   OH223361   6.984   2.705   4.644
 7807TIP3    H123362   7.068   2.659   4.640
 7807TIP3    H223363   7.005   2.787   4.689
 7808TIP3   OH223364   3.728   3.861   2.099
 7808TIP3    H123365   3.820   3.882   2.084
 7808TIP3    H223366   3.680   3.930   2.054
 7809TIP3   OH223367   6.789   6.983   4.276
 7809TIP3    H123368   6.726   6.960   4.344
 7809TIP3    H223369   6.736   6.991   4.197
 7810TIP3   OH223370   5.123   1.345   4.836
 7810TIP3    H123371   5.203   1.310   4.798
 7810TIP3    H223372   5.074   1.268   4.865
 7811TIP3   OH223373   1.748   7.136   3.475
 7811TIP3    H123374   1.747   7.190   3.396
 7811TIP3    H223375   1.662   7.093   3.476
 7812TIP3   OH223376   4.377   7.096   0.111
 7812TIP3    H123377   4.431   7.017   0.117
 7812TIP3    H223378   4.419   7.158   0.171
 7813TIP3   OH223379   7.662   0.246   2.990
 7813TIP3    H123380   7.627   0.263   2.902
 7813TIP3    H223381   7.756   0.264   2.982
 7814TIP3   OH223382   3.661   6.995   4.938
 7814TIP3    H123383   3.688   7.086   4.953
 7814TIP3    H223384   3.598   7.000   4.866
 7815TIP3   OH223385   6.603   6.386   4.578
 7815TIP3    H123386   6.570   6.333   4.505
 7815TIP3    H223387   6.560   6.470   4.566
 7816TIP3   OH223388   0.466   6.845   4.096
 7816TIP3    H123389   0.555   6.812   4.082
 7816TIP3    H223390   0.455   6.914   4.032
 7817TIP3   OH223391   3.427   4.711   6.568
 7817TIP3    H123392   3.409   4.785   6.509
 7817TIP3    H223393   3.445   4.753   6.653
 7818TIP3   OH223394   7.052   1.531   5.049
 7818TIP3    H123395   6.962   1.565   5.052
 7818TIP3    H223396   7.107   1.609   5.063
 7819TIP3   OH223397   6.718   6.064   1.271
 7819TIP3    H123398   6.666   6.113   1.335
 7819TIP3    H223399   6.793   6.032   1.321
 7820TIP3   OH223400   0.466   4.301   5.912
 7820TIP3    H123401   0.455   4.279   6.004
 7820TIP3    H223402   0.544   4.357   5.909
 7821TIP3   OH223403   4.968   0.795   1.229
 7821TIP3    H123404   4.957   0.847   1.309
 7821TIP3    H223405   4.920   0.845   1.162
 7822TIP3   OH223406   4.356   2.132   0.767
 7822TIP3    H123407   4.430   2.145   0.708
 7822TIP3    H223408   4.325   2.220   0.787
 7823TIP3   OH223409   1.392   4.008   4.993
 7823TIP3    H123410   1.324   3.996   5.059
 7823TIP3    H223411   1.424   3.919   4.977
 7824TIP3   OH223412   8.129   0.285   2.331
 7824TIP3    H123413   8.069   0.359   2.338
 7824TIP3    H223414   8.213   0.319   2.359
 7825TIP3   OH223415   5.969   5.680   6.172
 7825TIP3    H123416   5.985   5.607   6.232
 7825TIP3    H223417   6.052   5.728   6.171
 7826TIP3   OH223418   6.794   2.429   1.111
 7826TIP3    H123419   6.863   2.390   1.057
 7826TIP3    H223420   6.717   2.374   1.094
 7827TIP3   OH223421   1.902   5.461   1.592
 7827TIP3    H123422   1.871   5.395   1.654
 7827TIP3    H223423   1.826   5.518   1.577
 7828TIP3   OH223424   3.089   7.883   4.662
 7828TIP3    H123425   3.139   7.961   4.686
 7828TIP3    H223426   3.112   7.866   4.570
 7829TIP3   OH223427   4.019   4.097   0.909
 7829TIP3    H123428   4.085   4.131   0.970
 7829TIP3    H223429   3.939   4.091   0.961
 7830TIP3   OH223430   2.049   6.300   0.995
 7830TIP3    H123431   1.979   6.356   0.960
 7830TIP3    H223432   2.130   6.346   0.972
 7831TIP3   OH223433   0.614   0.103   3.211
 7831TIP3    H123434   0.626   0.085   3.117
 7831TIP3    H223435   0.568   0.186   3.214
 7832TIP3   OH223436   0.986   3.665   6.727
 7832TIP3    H123437   0.916   3.716   6.769
 7832TIP3    H223438   0.955   3.575   6.733
 7833TIP3   OH223439   3.722   0.424   2.295
 7833TIP3    H123440   3.683   0.339   2.316
 7833TIP3    H223441   3.656   0.488   2.322
 7834TIP3   OH223442   2.076   1.765   5.328
 7834TIP3    H123443   1.991   1.720   5.331
 7834TIP3    H223444   2.053   1.857   5.316
 7835TIP3   OH223445   3.071   1.660   1.229
 7835TIP3    H123446   3.011   1.592   1.257
 7835TIP3    H223447   3.028   1.742   1.255
 7836TIP3   OH223448   5.537   5.396   1.043
 7836TIP3    H123449   5.465   5.400   1.105
 7836TIP3    H223450   5.564   5.304   1.043
 7837TIP3   OH223451   2.715   7.066   4.291
 7837TIP3    H123452   2.641   7.091   4.236
 7837TIP3    H223453   2.790   7.064   4.231
 7838TIP3   OH223454   2.941   2.471   6.776
 7838TIP3    H123455   2.928   2.493   6.684
 7838TIP3    H223456   2.966   2.554   6.817
 7839TIP3   OH223457   7.063   0.248   3.279
 7839TIP3    H123458   6.997   0.294   3.227
 7839TIP3    H223459   7.117   0.318   3.316
 7840TIP3   OH223460   2.684   7.856   6.786
 7840TIP3    H123461   2.701   7.917   6.858
 7840TIP3    H223462   2.605   7.809   6.813
 7841TIP3   OH223463   8.248   2.090   3.282
 7841TIP3    H123464   8.232   2.111   3.190
 7841TIP3    H223465   8.314   2.152   3.310
 7842TIP3   OH223466   1.901   7.130   3.955
 7842TIP3    H123467   1.975   7.158   4.009
 7842TIP3    H223468   1.937   7.059   3.901
 7843TIP3   OH223469   0.599   4.023   2.324
 7843TIP3    H123470   0.677   4.068   2.357
 7843TIP3    H223471   0.526   4.068   2.366
 7844TIP3   OH223472   3.137   5.899   4.300
 7844TIP3    H123473   3.067   5.933   4.244
 7844TIP3    H223474   3.194   5.852   4.239
 7845TIP3   OH223475   3.566   7.647   6.070
 7845TIP3    H123476   3.486   7.635   6.121
 7845TIP3    H223477   3.626   7.580   6.103
 7846TIP3   OH223478   2.859   3.537   3.930
 7846TIP3    H123479   2.767   3.538   3.956
 7846TIP3    H223480   2.864   3.469   3.862
 7847TIP3   OH223481   1.066   5.538   3.722
 7847TIP3    H123482   1.049   5.588   3.801
 7847TIP3    H223483   1.088   5.450   3.754
 7848TIP3   OH223484   3.960   1.407   5.675
 7848TIP3    H123485   3.964   1.503   5.680
 7848TIP3    H223486   4.050   1.379   5.693
 7849TIP3   OH223487   8.126   3.703   0.072
 7849TIP3    H123488   8.156   3.687   0.162
 7849TIP3    H223489   8.071   3.627   0.052
 7850TIP3   OH223490   5.643   6.540   1.384
 7850TIP3    H123491   5.640   6.487   1.304
 7850TIP3    H223492   5.656   6.630   1.352
 7851TIP3   OH223493   3.877   7.254   6.036
 7851TIP3    H123494   3.843   7.274   5.949
 7851TIP3    H223495   3.834   7.317   6.093
 7852TIP3   OH223496   7.660   7.708   4.024
 7852TIP3    H123497   7.748   7.742   4.043
 7852TIP3    H223498   7.624   7.686   4.110
 7853TIP3   OH223499   2.550   3.385   0.732
 7853TIP3    H123500   2.528   3.456   0.673
 7853TIP3    H223501   2.468   3.362   0.775
 7854TIP3   OH223502   1.550   6.993   0.852
 7854TIP3    H123503   1.596   7.077   0.848
 7854TIP3    H223504   1.475   7.004   0.793
 7855TIP3   OH223505   4.503   5.341   1.858
 7855TIP3    H123506   4.577   5.402   1.863
 7855TIP3    H223507   4.509   5.302   1.771
 7856TIP3   OH223508   1.650   5.562   2.253
 7856TIP3    H123509   1.554   5.569   2.261
 7856TIP3    H223510   1.683   5.588   2.339
 7857TIP3   OH223511   2.879   3.022   3.281
 7857TIP3    H123512   2.967   3.007   3.247
 7857TIP3    H223513   2.824   3.028   3.203
 7858TIP3   OH223514   4.909   5.651   6.596
 7858TIP3    H123515   4.859   5.576   6.628
 7858TIP3    H223516   4.894   5.720   6.661
 7859TIP3   OH223517   0.926   7.620   3.067
 7859TIP3    H123518   0.995   7.610   3.000
 7859TIP3    H223519   0.885   7.534   3.072
 7860TIP3   OH223520   2.670   6.646   5.959
 7860TIP3    H123521   2.744   6.585   5.950
 7860TIP3    H223522   2.607   6.616   5.893
 7861TIP3   OH223523   4.536   1.207   2.849
 7861TIP3    H123524   4.459   1.192   2.903
 7861TIP3    H223525   4.521   1.154   2.771
 7862TIP3   OH223526   3.753   7.524   4.095
 7862TIP3    H123527   3.778   7.489   4.010
 7862TIP3    H223528   3.738   7.618   4.078
 7863TIP3   OH223529   2.456   3.397   2.679
 7863TIP3    H123530   2.466   3.309   2.642
 7863TIP3    H223531   2.436   3.453   2.604
 7864TIP3   OH223532   7.894   4.352   0.570
 7864TIP3    H123533   7.860   4.273   0.611
 7864TIP3    H223534   7.917   4.324   0.481
 7865TIP3   OH223535   2.010   4.725   4.224
 7865TIP3    H123536   1.940   4.787   4.246
 7865TIP3    H223537   1.965   4.644   4.202
 7866TIP3   OH223538   2.135   0.661   2.236
 7866TIP3    H123539   2.050   0.641   2.197
 7866TIP3    H223540   2.186   0.698   2.163
 7867TIP3   OH223541   6.191   5.372   6.060
 7867TIP3    H123542   6.108   5.396   6.018
 7867TIP3    H223543   6.237   5.320   5.995
 7868TIP3   OH223544   2.581   7.041   0.823
 7868TIP3    H123545   2.558   6.956   0.785
 7868TIP3    H223546   2.522   7.051   0.898
 7869TIP3   OH223547   1.586   2.836   4.826
 7869TIP3    H123548   1.632   2.760   4.790
 7869TIP3    H223549   1.499   2.832   4.787
 7870TIP3   OH223550   2.447   7.202   2.446
 7870TIP3    H123551   2.448   7.162   2.359
 7870TIP3    H223552   2.429   7.294   2.430
 7871TIP3   OH223553   0.926   0.038   5.708
 7871TIP3    H123554   0.972   0.122   5.697
 7871TIP3    H223555   0.941   0.014   5.799
 7872TIP3   OH223556   0.710   1.364   6.835
 7872TIP3    H123557   0.698   1.342   6.928
 7872TIP3    H223558   0.642   1.315   6.790
 7873TIP3   OH223559   6.740   4.542   2.274
 7873TIP3    H123560   6.669   4.541   2.338
 7873TIP3    H223561   6.773   4.632   2.277
 7874TIP3   OH223562   4.548   2.395   1.846
 7874TIP3    H123563   4.634   2.382   1.884
 7874TIP3    H223564   4.563   2.445   1.766
 7875TIP3   OH223565   6.771   1.703   6.723
 7875TIP3    H123566   6.841   1.763   6.697
 7875TIP3    H223567   6.747   1.658   6.642
 7876TIP3   OH223568   0.469   3.908   3.840
 7876TIP3    H123569   0.432   3.828   3.876
 7876TIP3    H223570   0.451   3.975   3.906
 7877TIP3   OH223571   3.739   5.628   2.380
 7877TIP3    H123572   3.684   5.638   2.302
 7877TIP3    H223573   3.783   5.712   2.390
 7878TIP3   OH223574   0.636   7.113   3.678
 7878TIP3    H123575   0.694   7.184   3.651
 7878TIP3    H223576   0.661   7.040   3.621
 7879TIP3   OH223577   2.968   5.733   5.502
 7879TIP3    H123578   2.910   5.664   5.533
 7879TIP3    H223579   2.959   5.732   5.406
 7880TIP3   OH223580   6.189   4.164   5.858
 7880TIP3    H123581   6.261   4.123   5.812
 7880TIP3    H223582   6.128   4.093   5.876
 7881TIP3   OH223583   6.416   2.807   5.088
 7881TIP3    H123584   6.450   2.884   5.133
 7881TIP3    H223585   6.371   2.757   5.156
 7882TIP3   OH223586   7.368   1.085   5.484
 7882TIP3    H123587   7.371   1.115   5.393
 7882TIP3    H223588   7.439   1.132   5.527
 7883TIP3   OH223589   7.020   0.107   6.284
 7883TIP3    H123590   7.042   0.034   6.341
 7883TIP3    H223591   6.969   0.167   6.339
 7884TIP3   OH223592   2.263   0.740  -0.010
 7884TIP3    H123593   2.265   0.667   0.052
 7884TIP3    H223594   2.174   0.775  -0.002
 7885TIP3   OH223595   7.558   0.578   3.574
 7885TIP3    H123596   7.652   0.573   3.557
 7885TIP3    H223597   7.517   0.564   3.488
 7886TIP3   OH223598   1.491   5.743   0.108
 7886TIP3    H123599   1.575   5.703   0.131
 7886TIP3    H223600   1.426   5.677   0.133
 7887TIP3   OH223601   6.000   4.420   5.532
 7887TIP3    H123602   5.958   4.341   5.565
 7887TIP3    H223603   5.942   4.452   5.463
 7888TIP3   OH223604   6.120   5.358   3.327
 7888TIP3    H123605   6.193   5.392   3.274
 7888TIP3    H223606   6.150   5.271   3.355
 7889TIP3   OH223607   6.768   6.552   0.942
 7889TIP3    H123608   6.780   6.479   1.004
 7889TIP3    H223609   6.735   6.624   0.996
 7890TIP3   OH223610   7.066   5.455   5.378
 7890TIP3    H123611   7.090   5.548   5.374
 7890TIP3    H223612   7.033   5.435   5.291
 7891TIP3   OH223613   3.176   1.577   4.863
 7891TIP3    H123614   3.084   1.604   4.865
 7891TIP3    H223615   3.219   1.633   4.927
 7892TIP3   OH223616   2.582   7.812   5.839
 7892TIP3    H123617   2.564   7.884   5.900
 7892TIP3    H223618   2.583   7.853   5.753
 7893TIP3   OH223619   0.692   1.456   4.503
 7893TIP3    H123620   0.659   1.368   4.514
 7893TIP3    H223621   0.645   1.508   4.568
 7894TIP3   OH223622   6.984   6.752   2.174
 7894TIP3    H123623   7.017   6.839   2.152
 7894TIP3    H223624   7.044   6.692   2.130
 7895TIP3   OH223625   0.216   6.944   4.665
 7895TIP3    H123626   0.206   6.952   4.760
 7895TIP3    H223627   0.269   7.021   4.640
 7896TIP3   OH223628   0.168   3.894   6.004
 7896TIP3    H123629   0.179   3.979   5.961
 7896TIP3    H223630   0.113   3.912   6.080
 7897TIP3   OH223631   4.516   6.657   6.119
 7897TIP3    H123632   4.546   6.580   6.072
 7897TIP3    H223633   4.484   6.623   6.203
 7898TIP3   OH223634   5.952   5.936   1.108
 7898TIP3    H123635   6.000   5.992   1.047
 7898TIP3    H223636   5.867   5.923   1.065
 7899TIP3   OH223637   5.372   4.507   6.309
 7899TIP3    H123638   5.410   4.583   6.352
 7899TIP3    H223639   5.299   4.481   6.365
 7900TIP3   OH223640   6.569   4.985   4.123
 7900TIP3    H123641   6.560   5.005   4.216
 7900TIP3    H223642   6.479   4.988   4.089
 7901TIP3   OH223643   3.749   5.951   4.214
 7901TIP3    H123644   3.727   5.867   4.173
 7901TIP3    H223645   3.700   5.950   4.296
 7902TIP3   OH223646   2.324   4.836   5.909
 7902TIP3    H123647   2.273   4.913   5.887
 7902TIP3    H223648   2.278   4.796   5.983
 7903TIP3   OH223649   4.441   2.377   0.188
 7903TIP3    H123650   4.403   2.458   0.222
 7903TIP3    H223651   4.458   2.324   0.267
 7904TIP3   OH223652   5.206   7.576   5.031
 7904TIP3    H123653   5.143   7.510   5.001
 7904TIP3    H223654   5.265   7.588   4.957
 7905TIP3   OH223655   7.960   7.673   2.583
 7905TIP3    H123656   8.048   7.662   2.547
 7905TIP3    H223657   7.930   7.758   2.550
 7906TIP3   OH223658   7.565   6.288   4.300
 7906TIP3    H123659   7.625   6.221   4.268
 7906TIP3    H223660   7.569   6.357   4.234
 7907TIP3   OH223661   3.331   5.319   2.890
 7907TIP3    H123662   3.376   5.300   2.807
 7907TIP3    H223663   3.239   5.304   2.871
 7908TIP3   OH223664   1.498   5.639   6.790
 7908TIP3    H123665   1.544   5.720   6.768
 7908TIP3    H223666   1.451   5.659   6.871
 7909TIP3   OH223667   1.734   7.571   3.007
 7909TIP3    H123668   1.726   7.486   2.965
 7909TIP3    H223669   1.746   7.632   2.934
 7910TIP3   OH223670   1.081   7.214   4.508
 7910TIP3    H123671   0.998   7.230   4.463
 7910TIP3    H223672   1.093   7.119   4.503
 7911TIP3   OH223673   1.281   5.186   1.166
 7911TIP3    H123674   1.268   5.143   1.082
 7911TIP3    H223675   1.193   5.217   1.190
 7912TIP3   OH223676   4.930   7.344   5.117
 7912TIP3    H123677   4.978   7.370   5.038
 7912TIP3    H223678   4.986   7.279   5.158
 7913TIP3   OH223679   4.731   4.153   2.433
 7913TIP3    H123680   4.799   4.110   2.381
 7913TIP3    H223681   4.754   4.245   2.432
 7914TIP3   OH223682   7.713   3.863   1.304
 7914TIP3    H123683   7.697   3.782   1.353
 7914TIP3    H223684   7.665   3.930   1.353
 7915TIP3   OH223685   0.837   2.459   5.177
 7915TIP3    H123686   0.896   2.427   5.108
 7915TIP3    H223687   0.818   2.381   5.230
 7916TIP3   OH223688   7.089   6.101   0.621
 7916TIP3    H123689   7.184   6.086   0.627
 7916TIP3    H223690   7.074   6.179   0.673
 7917TIP3   OH223691   2.650   5.884   6.858
 7917TIP3    H123692   2.692   5.890   6.772
 7917TIP3    H223693   2.585   5.955   6.858
 7918TIP3   OH223694   1.397   1.931   1.666
 7918TIP3    H123695   1.313   1.953   1.625
 7918TIP3    H223696   1.425   1.850   1.623
 7919TIP3   OH223697   6.295   2.613   0.092
 7919TIP3    H123698   6.334   2.621   0.005
 7919TIP3    H223699   6.278   2.704   0.119
 7920TIP3   OH223700   4.830   0.722   3.506
 7920TIP3    H123701   4.902   0.698   3.564
 7920TIP3    H223702   4.834   0.818   3.501
 7921TIP3   OH223703   0.347   6.766   4.496
 7921TIP3    H123704   0.299   6.791   4.575
 7921TIP3    H223705   0.300   6.810   4.425
 7922TIP3   OH223706   0.378   6.015   0.402
 7922TIP3    H123707   0.378   6.107   0.377
 7922TIP3    H223708   0.457   5.979   0.360
 7923TIP3   OH223709   7.911   2.578   4.915
 7923TIP3    H123710   7.960   2.498   4.896
 7923TIP3    H223711   7.975   2.648   4.909
 7924TIP3   OH223712   5.227   7.213   0.903
 7924TIP3    H123713   5.318   7.228   0.878
 7924TIP3    H223714   5.212   7.270   0.978
 7925TIP3   OH223715   8.021   4.181   4.074
 7925TIP3    H123716   7.960   4.173   4.147
 7925TIP3    H223717   8.068   4.098   4.072
 7926TIP3   OH223718   1.867  -0.041   6.366
 7926TIP3    H123719   1.814  -0.029   6.445
 7926TIP3    H223720   1.902   0.046   6.347
 7927TIP3   OH223721   4.112   5.351   5.700
 7927TIP3    H123722   4.128   5.442   5.726
 7927TIP3    H223723   4.149   5.344   5.612
 7928TIP3   OH223724   0.575   0.194   5.964
 7928TIP3    H123725   0.495   0.190   5.911
 7928TIP3    H223726   0.576   0.110   6.010
 7929TIP3   OH223727   2.117   2.990   3.181
 7929TIP3    H123728   2.178   3.020   3.249
 7929TIP3    H223729   2.118   2.895   3.189
 7930TIP3   OH223730   0.848   7.071   3.066
 7930TIP3    H123731   0.763   7.050   3.028
 7930TIP3    H223732   0.828   7.134   3.135
 7931TIP3   OH223733   3.286   2.238   1.160
 7931TIP3    H123734   3.320   2.160   1.116
 7931TIP3    H223735   3.222   2.274   1.098
 7932TIP3   OH223736   6.564   4.499   2.049
 7932TIP3    H123737   6.629   4.529   2.112
 7932TIP3    H223738   6.616   4.472   1.973
 7933TIP3   OH223739   3.116   4.653   0.605
 7933TIP3    H123740   3.056   4.579   0.606
 7933TIP3    H223741   3.119   4.683   0.696
 7934TIP3   OH223742   3.073   2.127   5.003
 7934TIP3    H123743   3.059   2.048   5.054
 7934TIP3    H223744   2.988   2.146   4.964
 7935TIP3   OH223745   6.890   2.572   2.668
 7935TIP3    H123746   6.885   2.481   2.697
 7935TIP3    H223747   6.837   2.575   2.588
 7936TIP3   OH223748   6.287   3.551   0.643
 7936TIP3    H123749   6.363   3.607   0.654
 7936TIP3    H223750   6.316   3.466   0.677
 7937TIP3   OH223751   8.240   7.096   0.702
 7937TIP3    H123752   8.211   7.117   0.613
 7937TIP3    H223753   8.223   7.002   0.710
 7938TIP3   OH223754   5.454   5.260   1.720
 7938TIP3    H123755   5.372   5.212   1.736
 7938TIP3    H223756   5.520   5.192   1.710
 7939TIP3   OH223757   6.815   2.512   3.364
 7939TIP3    H123758   6.739   2.520   3.307
 7939TIP3    H223759   6.846   2.422   3.351
 7940TIP3   OH223760   1.671   1.891   1.680
 7940TIP3    H123761   1.698   1.868   1.590
 7940TIP3    H223762   1.581   1.922   1.670
 7941TIP3   OH223763   0.933   4.694   4.271
 7941TIP3    H123764   0.927   4.789   4.264
 7941TIP3    H223765   0.845   4.663   4.248
 7942TIP3   OH223766   2.868   6.504   0.272
 7942TIP3    H123767   2.812   6.437   0.233
 7942TIP3    H223768   2.887   6.471   0.360
 7943TIP3   OH223769   0.830   5.693   3.117
 7943TIP3    H123770   0.763   5.712   3.182
 7943TIP3    H223771   0.910   5.676   3.169
 7944TIP3   OH223772   7.732   7.001   1.860
 7944TIP3    H123773   7.747   7.052   1.939
 7944TIP3    H223774   7.730   6.910   1.890
 7945TIP3   OH223775   5.563   5.992   5.224
 7945TIP3    H123776   5.645   6.003   5.272
 7945TIP3    H223777   5.496   5.985   5.292
 7946TIP3   OH223778   6.444   3.333   3.882
 7946TIP3    H123779   6.486   3.277   3.816
 7946TIP3    H223780   6.363   3.288   3.903
 7947TIP3   OH223781   2.635   0.729   2.139
 7947TIP3    H123782   2.602   0.695   2.223
 7947TIP3    H223783   2.699   0.796   2.164
 7948TIP3   OH223784   5.077   6.317   3.527
 7948TIP3    H123785   5.119   6.365   3.456
 7948TIP3    H223786   5.104   6.226   3.513
 7949TIP3   OH223787   4.543   2.226   3.708
 7949TIP3    H123788   4.573   2.135   3.707
 7949TIP3    H223789   4.468   2.227   3.649
 7950TIP3   OH223790   6.765   1.830   2.201
 7950TIP3    H123791   6.693   1.864   2.254
 7950TIP3    H223792   6.762   1.880   2.120
 7951TIP3   OH223793   2.034   1.444   2.196
 7951TIP3    H123794   1.941   1.464   2.212
 7951TIP3    H223795   2.047   1.464   2.103
 7952TIP3   OH223796   4.744   3.206   1.273
 7952TIP3    H123797   4.730   3.145   1.201
 7952TIP3    H223798   4.795   3.157   1.337
 7953TIP3   OH223799   0.121   1.479   6.210
 7953TIP3    H123800   0.111   1.398   6.259
 7953TIP3    H223801   0.195   1.462   6.151
 7954TIP3   OH223802   4.447   5.922   1.717
 7954TIP3    H123803   4.506   5.997   1.725
 7954TIP3    H223804   4.411   5.911   1.805
 7955TIP3   OH223805   6.263   4.942   4.590
 7955TIP3    H123806   6.299   4.883   4.656
 7955TIP3    H223807   6.294   4.907   4.507
 7956TIP3   OH223808   3.557  -0.007   1.084
 7956TIP3    H123809   3.644  -0.029   1.052
 7956TIP3    H223810   3.567   0.083   1.118
 7957TIP3   OH223811   5.992   7.745   5.345
 7957TIP3    H123812   5.991   7.650   5.358
 7957TIP3    H223813   5.930   7.760   5.274
 7958TIP3   OH223814   0.500   1.517   1.851
 7958TIP3    H123815   0.501   1.486   1.941
 7958TIP3    H223816   0.593   1.521   1.827
 7959TIP3   OH223817   5.421   1.740   3.421
 7959TIP3    H123818   5.354   1.758   3.356
 7959TIP3    H223819   5.489   1.692   3.374
 7960TIP3   OH223820   3.540   6.925   3.983
 7960TIP3    H123821   3.592   6.845   3.976
 7960TIP3    H223822   3.553   6.953   4.073
 7961TIP3   OH223823   7.101   5.216   0.443
 7961TIP3    H123824   7.185   5.239   0.404
 7961TIP3    H223825   7.100   5.265   0.526
 7962TIP3   OH223826   3.580   7.052   4.526
 7962TIP3    H123827   3.541   7.047   4.438
 7962TIP3    H223828   3.507   7.079   4.582
 7963TIP3   OH223829   5.489   5.708   3.371
 7963TIP3    H123830   5.504   5.715   3.276
 7963TIP3    H223831   5.461   5.795   3.398
 7964TIP3   OH223832   8.021   3.271   5.367
 7964TIP3    H123833   8.076   3.197   5.341
 7964TIP3    H223834   8.040   3.338   5.301
 7965TIP3   OH223835   6.497   2.060   6.594
 7965TIP3    H123836   6.485   2.143   6.548
 7965TIP3    H223837   6.478   2.082   6.686
 7966TIP3   OH223838   5.284   1.946   3.088
 7966TIP3    H123839   5.377   1.947   3.107
 7966TIP3    H223840   5.278   1.911   2.999
 7967TIP3   OH223841   6.139   0.490   3.968
 7967TIP3    H123842   6.151   0.555   3.899
 7967TIP3    H223843   6.204   0.514   4.034
 7968TIP3   OH223844   2.446   1.665   2.579
 7968TIP3    H123845   2.473   1.717   2.655
 7968TIP3    H223846   2.527   1.627   2.546
 7969TIP3   OH223847   8.055   3.435   1.214
 7969TIP3    H123848   8.093   3.445   1.127
 7969TIP3    H223849   8.076   3.516   1.259
 7970TIP3   OH223850   1.575   7.062   6.706
 7970TIP3    H123851   1.492   7.108   6.701
 7970TIP3    H223852   1.641   7.131   6.710
 7971TIP3   OH223853   4.262   4.811   0.095
 7971TIP3    H123854   4.239   4.823   0.187
 7971TIP3    H223855   4.179   4.818   0.048
 7972TIP3   OH223856   1.365   5.718   5.989
 7972TIP3    H123857   1.361   5.743   6.081
 7972TIP3    H223858   1.353   5.623   5.990
 7973TIP3   OH223859   0.261   0.651   6.138
 7973TIP3    H123860   0.259   0.574   6.081
 7973TIP3    H223861   0.175   0.691   6.127
 7974TIP3   OH223862   5.132   6.991   6.522
 7974TIP3    H123863   5.097   6.921   6.468
 7974TIP3    H223864   5.067   7.003   6.591
 7975TIP3   OH223865   2.590   4.113   4.986
 7975TIP3    H123866   2.614   4.048   5.052
 7975TIP3    H223867   2.559   4.188   5.036
 7976TIP3   OH223868   4.839   7.163   2.221
 7976TIP3    H123869   4.784   7.241   2.214
 7976TIP3    H223870   4.831   7.120   2.136
 7977TIP3   OH223871   6.540   6.686   6.317
 7977TIP3    H123872   6.620   6.738   6.319
 7977TIP3    H223873   6.479   6.732   6.374
 7978TIP3   OH223874   1.678   4.477   6.284
 7978TIP3    H123875   1.755   4.530   6.306
 7978TIP3    H223876   1.639   4.455   6.369
 7979TIP3   OH223877   4.053   5.895   6.162
 7979TIP3    H123878   4.046   5.816   6.217
 7979TIP3    H223879   4.078   5.964   6.223
 7980TIP3   OH223880   4.012   1.249   4.407
 7980TIP3    H123881   4.047   1.282   4.324
 7980TIP3    H223882   4.009   1.154   4.397
 7981TIP3   OH223883   7.383   1.251   1.361
 7981TIP3    H123884   7.442   1.186   1.400
 7981TIP3    H223885   7.403   1.249   1.268
 7982TIP3   OH223886   1.676   7.605   1.685
 7982TIP3    H123887   1.638   7.680   1.730
 7982TIP3    H223888   1.652   7.618   1.593
 7983TIP3   OH223889   1.480   0.596   6.433
 7983TIP3    H123890   1.413   0.535   6.402
 7983TIP3    H223891   1.558   0.542   6.445
 7984TIP3   OH223892   1.582   6.953   4.010
 7984TIP3    H123893   1.607   6.982   4.098
 7984TIP3    H223894   1.498   6.908   4.023
 7985TIP3   OH223895   4.057   2.776   3.426
 7985TIP3    H123896   3.985   2.717   3.447
 7985TIP3    H223897   4.020   2.864   3.435
 7986TIP3   OH223898   6.710   3.116   1.242
 7986TIP3    H123899   6.796   3.130   1.281
 7986TIP3    H223900   6.670   3.048   1.297
 7987TIP3   OH223901   7.552   2.294   0.073
 7987TIP3    H123902   7.459   2.296   0.094
 7987TIP3    H223903   7.567   2.205   0.039
 7988TIP3   OH223904   3.355   3.633   4.125
 7988TIP3    H123905   3.377   3.700   4.190
 7988TIP3    H223906   3.263   3.647   4.106
 7989TIP3   OH223907   7.020   1.511   6.229
 7989TIP3    H123908   7.070   1.590   6.207
 7989TIP3    H223909   7.052   1.445   6.168
 7990TIP3   OH223910   3.166   0.907   3.413
 7990TIP3    H123911   3.208   0.857   3.483
 7990TIP3    H223912   3.157   0.845   3.341
 7991TIP3   OH223913   5.463   2.303   5.546
 7991TIP3    H123914   5.415   2.220   5.550
 7991TIP3    H223915   5.404   2.362   5.499
 7992TIP3   OH223916   5.025   3.155   2.545
 7992TIP3    H123917   4.960   3.105   2.596
 7992TIP3    H223918   5.097   3.171   2.606
 7993TIP3   OH223919   6.437   5.018   2.788
 7993TIP3    H123920   6.447   5.110   2.763
 7993TIP3    H223921   6.352   5.015   2.833
 7994TIP3   OH223922   4.826   7.487   0.525
 7994TIP3    H123923   4.752   7.467   0.467
 7994TIP3    H223924   4.881   7.547   0.474
 7995TIP3   OH223925   7.033   4.334   1.377
 7995TIP3    H123926   7.006   4.334   1.285
 7995TIP3    H223927   6.997   4.252   1.412
 7996TIP3   OH223928   3.850   4.235   5.674
 7996TIP3    H123929   3.868   4.149   5.714
 7996TIP3    H223930   3.927   4.287   5.694
 7997TIP3   OH223931   3.484   0.434   4.564
 7997TIP3    H123932   3.448   0.390   4.488
 7997TIP3    H223933   3.493   0.526   4.538
 7998TIP3   OH223934   1.232   2.576   2.727
 7998TIP3    H123935   1.230   2.671   2.717
 7998TIP3    H223936   1.226   2.562   2.822
 7999TIP3   OH223937   8.099   7.142   5.696
 7999TIP3    H123938   8.128   7.051   5.705
 7999TIP3    H223939   8.068   7.166   5.784
 8000TIP3   OH223940   5.939   2.830  -0.001
 8000TIP3    H123941   5.896   2.821   0.084
 8000TIP3    H223942   5.884   2.891  -0.050
 8001TIP3   OH223943   2.028   2.194   1.736
 8001TIP3    H123944   2.078   2.183   1.655
 8001TIP3    H223945   2.060   2.124   1.793
 8002TIP3   OH223946   2.533   4.094   0.595
 8002TIP3    H123947   2.534   4.119   0.502
 8002TIP3    H223948   2.445   4.117   0.625
 8003TIP3   OH223949   7.815   2.038   5.630
 8003TIP3    H123950   7.749   1.979   5.666
 8003TIP3    H223951   7.773   2.078   5.554
 8004TIP3   OH223952   6.712   0.969   3.675
 8004TIP3    H123953   6.795   1.016   3.680
 8004TIP3    H223954   6.730   0.884   3.715
 8005TIP3   OH223955   3.900   7.256   5.626
 8005TIP3    H123956   3.807   7.278   5.618
 8005TIP3    H223957   3.934   7.319   5.690
 8006TIP3   OH223958   1.141   7.801   1.282
 8006TIP3    H123959   1.157   7.895   1.270
 8006TIP3    H223960   1.087   7.796   1.361
 8007TIP3   OH223961   5.389   3.302   1.901
 8007TIP3    H123962   5.329   3.230   1.881
 8007TIP3    H223963   5.334   3.380   1.895
 8008TIP3   OH223964   8.194   3.990   0.324
 8008TIP3    H123965   8.105   3.964   0.345
 8008TIP3    H223966   8.248   3.950   0.392
 8009TIP3   OH223967   2.718   3.041   3.072
 8009TIP3    H123968   2.705   2.982   2.998
 8009TIP3    H223969   2.645   3.103   3.067
 8010TIP3   OH223970   7.134   5.250   0.940
 8010TIP3    H123971   7.084   5.321   0.981
 8010TIP3    H223972   7.089   5.170   0.967
 8011TIP3   OH223973   5.101   5.119   0.684
 8011TIP3    H123974   5.144   5.129   0.768
 8011TIP3    H223975   5.165   5.153   0.620
 8012TIP3   OH223976   3.930   1.727   0.214
 8012TIP3    H123977   3.985   1.791   0.259
 8012TIP3    H223978   3.859   1.709   0.275
 8013TIP3   OH223979   6.673   7.158   0.322
 8013TIP3    H123980   6.711   7.113   0.397
 8013TIP3    H223981   6.734   7.139   0.250
 8014TIP3   OH223982   1.028   2.476   6.544
 8014TIP3    H123983   0.976   2.401   6.575
 8014TIP3    H223984   1.092   2.491   6.614
 8015TIP3   OH223985   0.089   3.174   3.202
 8015TIP3    H123986   0.027   3.190   3.274
 8015TIP3    H223987   0.132   3.259   3.189
 8016TIP3   OH223988   7.587   2.006   2.454
 8016TIP3    H123989   7.670   1.969   2.485
 8016TIP3    H223990   7.586   1.986   2.361
 8017TIP3   OH223991   7.829   1.897   2.496
 8017TIP3    H123992   7.825   1.826   2.561
 8017TIP3    H223993   7.890   1.960   2.533
 8018TIP3   OH223994   4.885   5.250   2.909
 8018TIP3    H123995   4.824   5.203   2.853
 8018TIP3    H223996   4.856   5.341   2.905
 8019TIP3   OH223997   1.836   3.973   1.217
 8019TIP3    H123998   1.886   4.042   1.260
 8019TIP3    H223999   1.859   3.893   1.265
 8020TIP3   OH224000   3.153   7.189   3.678
 8020TIP3    H124001   3.188   7.271   3.645
 8020TIP3    H224002   3.230   7.140   3.707
 8021TIP3   OH224003   2.547   1.220   5.222
 8021TIP3    H124004   2.583   1.184   5.303
 8021TIP3    H224005   2.522   1.310   5.245
 8022TIP3   OH224006   3.290   3.887   1.184
 8022TIP3    H124007   3.381   3.886   1.213
 8022TIP3    H224008   3.285   3.816   1.119
 8023TIP3   OH224009   8.315   0.642   1.328
 8023TIP3    H124010   8.257   0.583   1.281
 8023TIP3    H224011   8.352   0.588   1.398
 8024TIP3   OH224012   7.243   5.668   2.287
 8024TIP3    H124013   7.275   5.740   2.233
 8024TIP3    H224014   7.172   5.705   2.338
 8025TIP3   OH224015   7.912   2.418   6.275
 8025TIP3    H124016   7.946   2.384   6.358
 8025TIP3    H224017   7.872   2.502   6.299
 8026TIP3   OH224018   6.915   7.122   0.188
 8026TIP3    H124019   7.001   7.094   0.221
 8026TIP3    H224020   6.929   7.211   0.157
 8027TIP3   OH224021   2.253   0.133   1.342
 8027TIP3    H124022   2.197   0.064   1.309
 8027TIP3    H224023   2.321   0.088   1.391
 8028TIP3   OH224024   4.690   3.740   3.726
 8028TIP3    H124025   4.673   3.814   3.669
 8028TIP3    H224026   4.786   3.732   3.729
 8029TIP3   OH224027   8.353   5.010   1.422
 8029TIP3    H124028   8.345   4.933   1.365
 8029TIP3    H224029   8.274   5.061   1.404
 8030TIP3   OH224030   2.314   7.665   1.630
 8030TIP3    H124031   2.284   7.646   1.541
 8030TIP3    H224032   2.333   7.759   1.629
 8031TIP3   OH224033   0.247   0.623   1.333
 8031TIP3    H124034   0.324   0.625   1.390
 8031TIP3    H224035   0.249   0.536   1.294
 8032TIP3   OH224036   3.518   6.716   1.272
 8032TIP3    H124037   3.560   6.651   1.216
 8032TIP3    H224038   3.552   6.800   1.240
 8033TIP3   OH224039   5.501   1.473   6.318
 8033TIP3    H124040   5.577   1.415   6.306
 8033TIP3    H224041   5.526   1.530   6.391
 8034TIP3   OH224042   0.716   6.347   0.156
 8034TIP3    H124043   0.691   6.270   0.105
 8034TIP3    H224044   0.652   6.414   0.131
 8035TIP3   OH224045   3.147   4.630   6.870
 8035TIP3    H124046   3.193   4.555   6.831
 8035TIP3    H224047   3.098   4.668   6.797
 8036TIP3   OH224048   5.192   1.460   1.370
 8036TIP3    H124049   5.192   1.442   1.276
 8036TIP3    H224050   5.118   1.410   1.405
 8037TIP3   OH224051   0.193   4.392   5.720
 8037TIP3    H124052   0.270   4.434   5.759
 8037TIP3    H224053   0.141   4.464   5.685
 8038TIP3   OH224054   4.115   3.408   4.725
 8038TIP3    H124055   4.198   3.416   4.677
 8038TIP3    H224056   4.138   3.358   4.803
 8039TIP3   OH224057   0.183   3.711   5.166
 8039TIP3    H124058   0.147   3.706   5.255
 8039TIP3    H224059   0.115   3.671   5.111
 8040TIP3   OH224060   5.757   7.072   5.615
 8040TIP3    H124061   5.677   7.120   5.594
 8040TIP3    H224062   5.735   6.981   5.599
 8041TIP3   OH224063   5.499   6.468   5.974
 8041TIP3    H124064   5.526   6.481   6.065
 8041TIP3    H224065   5.496   6.373   5.963
 8042TIP3   OH224066   4.124   7.258   3.448
 8042TIP3    H124067   4.080   7.275   3.532
 8042TIP3    H224068   4.078   7.182   3.412
 8043TIP3   OH224069   7.469   1.557   5.725
 8043TIP3    H124070   7.407   1.616   5.769
 8043TIP3    H224071   7.424   1.531   5.645
 8044TIP3   OH224072   7.820   4.574   2.933
 8044TIP3    H124073   7.825   4.480   2.947
 8044TIP3    H224074   7.798   4.610   3.019
 8045TIP3   OH224075   7.375   1.559   2.154
 8045TIP3    H124076   7.383   1.651   2.178
 8045TIP3    H224077   7.457   1.519   2.184
 8046TIP3   OH224078   1.225   5.478   3.490
 8046TIP3    H124079   1.190   5.529   3.564
 8046TIP3    H224080   1.320   5.480   3.502
 8047TIP3   OH224081   6.423   4.964   0.887
 8047TIP3    H124082   6.453   4.964   0.796
 8047TIP3    H224083   6.410   4.871   0.908
 8048TIP3   OH224084   0.967   7.555   6.732
 8048TIP3    H124085   0.899   7.539   6.797
 8048TIP3    H224086   0.946   7.495   6.660
 8049TIP3   OH224087   3.732   3.073   3.386
 8049TIP3    H124088   3.780   3.003   3.430
 8049TIP3    H224089   3.645   3.072   3.427
 8050TIP3   OH224090   4.414   6.142   0.187
 8050TIP3    H124091   4.391   6.148   0.094
 8050TIP3    H224092   4.468   6.063   0.193
 8051TIP3   OH224093   4.525   0.323   5.500
 8051TIP3    H124094   4.534   0.305   5.406
 8051TIP3    H224095   4.591   0.389   5.518
 8052TIP3   OH224096   7.125   7.257   0.683
 8052TIP3    H124097   7.112   7.243   0.776
 8052TIP3    H224098   7.091   7.345   0.667
 8053TIP3   OH224099   0.834   1.994   6.774
 8053TIP3    H124100   0.782   1.929   6.727
 8053TIP3    H224101   0.899   1.942   6.822
 8054TIP3   OH224102   3.920   2.540   0.146
 8054TIP3    H124103   3.941   2.586   0.228
 8054TIP3    H224104   3.828   2.516   0.155
 8055TIP3   OH224105   5.814   4.621   2.513
 8055TIP3    H124106   5.864   4.552   2.556
 8055TIP3    H224107   5.813   4.597   2.421
 8056TIP3   OH224108   4.932   4.380   1.547
 8056TIP3    H124109   4.885   4.297   1.559
 8056TIP3    H224110   4.947   4.386   1.453
 8057TIP3   OH224111   4.984   1.259   1.295
 8057TIP3    H124112   4.997   1.194   1.226
 8057TIP3    H224113   4.934   1.329   1.253
 8058TIP3   OH224114   6.003   4.166   2.540
 8058TIP3    H124115   5.977   4.148   2.450
 8058TIP3    H224116   5.923   4.152   2.591
 8059TIP3   OH224117   2.818   6.146   0.808
 8059TIP3    H124118   2.879   6.129   0.736
 8059TIP3    H224119   2.873   6.179   0.879
 8060TIP3   OH224120   1.252   4.456   2.916
 8060TIP3    H124121   1.175   4.486   2.868
 8060TIP3    H224122   1.327   4.490   2.866
 8061TIP3   OH224123   4.602   7.650   4.402
 8061TIP3    H124124   4.597   7.726   4.344
 8061TIP3    H224125   4.635   7.579   4.346
 8062TIP3   OH224126   2.508   5.461   1.808
 8062TIP3    H124127   2.560   5.396   1.761
 8062TIP3    H224128   2.546   5.463   1.896
 8063TIP3   OH224129   3.444   5.169   0.854
 8063TIP3    H124130   3.411   5.113   0.784
 8063TIP3    H224131   3.497   5.111   0.908
 8064TIP3   OH224132   4.484   0.153   5.912
 8064TIP3    H124133   4.472   0.059   5.903
 8064TIP3    H224134   4.422   0.193   5.851
 8065TIP3   OH224135   7.650   0.933   2.951
 8065TIP3    H124136   7.709   0.990   2.902
 8065TIP3    H224137   7.684   0.845   2.935
 8066TIP3   OH224138   4.393   2.401   3.340
 8066TIP3    H124139   4.352   2.369   3.259
 8066TIP3    H224140   4.337   2.473   3.368
 8067TIP3   OH224141   6.474   6.358   3.432
 8067TIP3    H124142   6.449   6.266   3.443
 8067TIP3    H224143   6.402   6.397   3.383
 8068TIP3   OH224144   1.229   1.076   4.651
 8068TIP3    H124145   1.284   1.010   4.610
 8068TIP3    H224146   1.288   1.128   4.706
 8069TIP3   OH224147   4.306   4.211   4.060
 8069TIP3    H124148   4.331   4.295   4.023
 8069TIP3    H224149   4.388   4.169   4.085
 8070TIP3   OH224150   5.936   6.660   0.533
 8070TIP3    H124151   5.986   6.712   0.596
 8070TIP3    H224152   5.951   6.703   0.449
 8071TIP3   OH224153   2.275   7.009   3.847
 8071TIP3    H124154   2.318   6.934   3.806
 8071TIP3    H224155   2.342   7.047   3.904
 8072TIP3   OH224156   1.257   1.538   0.568
 8072TIP3    H124157   1.222   1.541   0.657
 8072TIP3    H224158   1.269   1.630   0.544
 8073TIP3   OH224159   6.716   1.193   5.041
 8073TIP3    H124160   6.749   1.223   5.126
 8073TIP3    H224161   6.768   1.241   4.977
 8074TIP3   OH224162   2.870   0.712   0.203
 8074TIP3    H124163   2.942   0.774   0.216
 8074TIP3    H224164   2.845   0.722   0.112
 8075TIP3   OH224165   0.210   1.939   3.298
 8075TIP3    H124166   0.279   1.996   3.329
 8075TIP3    H224167   0.145   1.938   3.369
 8076TIP3   OH224168   1.453   7.347   0.225
 8076TIP3    H124169   1.506   7.278   0.184
 8076TIP3    H224170   1.516   7.411   0.256
 8077TIP3   OH224171   1.058   2.525   3.424
 8077TIP3    H124172   0.984   2.578   3.393
 8077TIP3    H224173   1.135   2.564   3.383
 8078TIP3   OH224174   7.310   1.521   5.506
 8078TIP3    H124175   7.343   1.522   5.416
 8078TIP3    H224176   7.260   1.602   5.514
 8079TIP3   OH224177   1.997   3.960   2.956
 8079TIP3    H124178   1.994   3.885   2.898
 8079TIP3    H224179   2.090   3.970   2.978
 8080TIP3   OH224180   7.045   7.612   5.311
 8080TIP3    H124181   7.020   7.594   5.220
 8080TIP3    H224182   7.009   7.539   5.361
 8081TIP3   OH224183   4.789   6.212   0.327
 8081TIP3    H124184   4.767   6.293   0.282
 8081TIP3    H224185   4.884   6.207   0.321
 8082TIP3   OH224186   8.391   6.693   1.872
 8082TIP3    H124187   8.339   6.700   1.952
 8082TIP3    H224188   8.366   6.769   1.820
 8083TIP3   OH224189   5.742   4.038   6.353
 8083TIP3    H124190   5.766   4.113   6.299
 8083TIP3    H224191   5.660   4.063   6.394
 8084TIP3   OH224192   6.380   4.751   2.136
 8084TIP3    H124193   6.299   4.728   2.181
 8084TIP3    H224194   6.446   4.756   2.206
 8085TIP3   OH224195   6.671   6.444   0.054
 8085TIP3    H124196   6.713   6.395  -0.017
 8085TIP3    H224197   6.731   6.434   0.128
 8086TIP3   OH224198   5.036   2.822   6.226
 8086TIP3    H124199   5.111   2.818   6.166
 8086TIP3    H224200   5.020   2.915   6.240
 8087TIP3   OH224201   7.715   7.231   2.350
 8087TIP3    H124202   7.781   7.226   2.419
 8087TIP3    H224203   7.663   7.308   2.373
 8088TIP3   OH224204   6.785   0.155   3.155
 8088TIP3    H124205   6.852   0.087   3.155
 8088TIP3    H224206   6.702   0.107   3.156
 8089TIP3   OH224207   0.158   2.389   5.743
 8089TIP3    H124208   0.150   2.396   5.838
 8089TIP3    H224209   0.175   2.297   5.726
 8090TIP3   OH224210   5.717   3.552   5.438
 8090TIP3    H124211   5.780   3.480   5.441
 8090TIP3    H224212   5.768   3.626   5.403
 8091TIP3   OH224213   7.254   5.426   4.185
 8091TIP3    H124214   7.312   5.400   4.114
 8091TIP3    H224215   7.310   5.424   4.263
 8092TIP3   OH224216   4.941   0.344   0.269
 8092TIP3    H124217   5.021   0.291   0.271
 8092TIP3    H224218   4.871   0.280   0.276
 8093TIP3   OH224219   0.219   0.065   3.409
 8093TIP3    H124220   0.266   0.001   3.463
 8093TIP3    H224221   0.177   0.123   3.472
 8094TIP3   OH224222   4.603   5.200   5.377
 8094TIP3    H124223   4.657   5.160   5.308
 8094TIP3    H224224   4.600   5.133   5.445
 8095TIP3   OH224225   2.840   6.800   4.175
 8095TIP3    H124226   2.865   6.744   4.102
 8095TIP3    H224227   2.881   6.884   4.157
 8096TIP3   OH224228   0.467   1.924   2.562
 8096TIP3    H124229   0.389   1.915   2.616
 8096TIP3    H224230   0.434   1.926   2.472
 8097TIP3   OH224231   4.633   5.294   6.507
 8097TIP3    H124232   4.705   5.341   6.548
 8097TIP3    H224233   4.574   5.363   6.476
 8098TIP3   OH224234   4.163   4.787   1.751
 8098TIP3    H124235   4.070   4.809   1.744
 8098TIP3    H224236   4.190   4.826   1.834
 8099TIP3   OH224237   1.118   1.742   5.760
 8099TIP3    H124238   1.137   1.785   5.676
 8099TIP3    H224239   1.101   1.651   5.738
 8100TIP3   OH224240   2.341   5.889   0.516
 8100TIP3    H124241   2.407   5.819   0.510
 8100TIP3    H224242   2.348   5.937   0.434
 8101TIP3   OH224243   5.615   0.210   0.028
 8101TIP3    H124244   5.607   0.144  -0.041
 8101TIP3    H224245   5.691   0.181   0.080
 8102TIP3   OH224246   6.698   6.282   4.816
 8102TIP3    H124247   6.663   6.339   4.747
 8102TIP3    H224248   6.755   6.339   4.867
 8103TIP3   OH224249   2.040   4.146   4.219
 8103TIP3    H124250   1.971   4.171   4.281
 8103TIP3    H224251   2.114   4.121   4.274
 8104TIP3   OH224252   0.911   2.921   1.372
 8104TIP3    H124253   0.977   2.878   1.426
 8104TIP3    H224254   0.900   3.007   1.410
 8105TIP3   OH224255   1.609   0.399   5.616
 8105TIP3    H124256   1.558   0.318   5.624
 8105TIP3    H224257   1.648   0.394   5.529
 8106TIP3   OH224258   5.987   0.392   5.530
 8106TIP3    H124259   5.965   0.413   5.439
 8106TIP3    H224260   6.074   0.352   5.525
 8107TIP3   OH224261   7.102   0.901   5.212
 8107TIP3    H124262   7.187   0.870   5.243
 8107TIP3    H224263   7.099   0.874   5.120
 8108TIP3   OH224264   1.311   4.161   1.447
 8108TIP3    H124265   1.373   4.205   1.505
 8108TIP3    H224266   1.285   4.228   1.384
 8109TIP3   OH224267   4.719   5.805   1.192
 8109TIP3    H124268   4.776   5.879   1.214
 8109TIP3    H224269   4.778   5.739   1.156
 8110TIP3   OH224270   3.315   7.409   4.003
 8110TIP3    H124271   3.303   7.459   4.084
 8110TIP3    H224272   3.255   7.450   3.941
 8111TIP3   OH224273   5.508   2.462   5.762
 8111TIP3    H124274   5.489   2.418   5.679
 8111TIP3    H224275   5.598   2.492   5.753
 8112TIP3   OH224276   7.252   7.473   5.042
 8112TIP3    H124277   7.340   7.450   5.074
 8112TIP3    H224278   7.264   7.558   4.999
 8113TIP3   OH224279   7.251   0.916   6.531
 8113TIP3    H124280   7.242   0.894   6.624
 8113TIP3    H224281   7.166   0.893   6.493
 8114TIP3   OH224282   5.203   2.373   4.315
 8114TIP3    H124283   5.138   2.368   4.245
 8114TIP3    H224284   5.273   2.313   4.287
 8115TIP3   OH224285   4.734   5.373   3.285
 8115TIP3    H124286   4.751   5.290   3.240
 8115TIP3    H224287   4.750   5.354   3.377
 8116TIP3   OH224288   2.159   4.866   0.346
 8116TIP3    H124289   2.201   4.780   0.345
 8116TIP3    H224290   2.065   4.846   0.341
 8117TIP3   OH224291   0.889   7.521   0.965
 8117TIP3    H124292   0.977   7.486   0.983
 8117TIP3    H224293   0.857   7.550   1.050
 8118TIP3   OH224294   5.174   2.908   1.066
 8118TIP3    H124295   5.098   2.931   1.014
 8118TIP3    H224296   5.144   2.912   1.157
 8119TIP3   OH224297   8.126   3.067   2.163
 8119TIP3    H124298   8.133   2.989   2.218
 8119TIP3    H224299   8.174   3.044   2.083
 8120TIP3   OH224300   0.231   4.521   4.387
 8120TIP3    H124301   0.301   4.495   4.327
 8120TIP3    H224302   0.188   4.595   4.344
 8121TIP3   OH224303   1.405   7.633   2.833
 8121TIP3    H124304   1.412   7.554   2.887
 8121TIP3    H224305   1.458   7.698   2.878
 8122TIP3   OH224306   7.001   7.573   0.343
 8122TIP3    H124307   7.010   7.622   0.261
 8122TIP3    H224308   6.973   7.637   0.407
 8123TIP3   OH224309   5.798   3.077   2.502
 8123TIP3    H124310   5.875   3.122   2.537
 8123TIP3    H224311   5.803   3.091   2.407
 8124TIP3   OH224312   0.713   5.409   4.416
 8124TIP3    H124313   0.673   5.492   4.442
 8124TIP3    H224314   0.644   5.344   4.430
 8125TIP3   OH224315   1.508   7.800   6.021
 8125TIP3    H124316   1.433   7.838   6.067
 8125TIP3    H224317   1.535   7.727   6.077
 8126TIP3   OH224318   7.837   4.174   0.031
 8126TIP3    H124319   7.881   4.233   0.093
 8126TIP3    H224320   7.844   4.088   0.073
 8127TIP3   OH224321   1.603   5.360   6.764
 8127TIP3    H124322   1.581   5.449   6.792
 8127TIP3    H224323   1.522   5.310   6.779
 8128TIP3   OH224324   5.569   6.521   0.419
 8128TIP3    H124325   5.539   6.440   0.377
 8128TIP3    H224326   5.634   6.492   0.484
 8129TIP3   OH224327   2.992   5.832   6.777
 8129TIP3    H124328   2.999   5.893   6.703
 8129TIP3    H224329   3.005   5.887   6.854
 8130TIP3   OH224330   1.642   4.832   5.190
 8130TIP3    H124331   1.712   4.774   5.219
 8130TIP3    H224332   1.562   4.781   5.202
 8131TIP3   OH224333   6.381   4.939   1.326
 8131TIP3    H124334   6.334   4.913   1.246
 8131TIP3    H224335   6.413   5.027   1.308
 8132TIP3   OH224336   7.252   7.083   4.526
 8132TIP3    H124337   7.183   7.017   4.520
 8132TIP3    H224338   7.292   7.068   4.612
 8133TIP3   OH224339   3.676   6.284   1.510
 8133TIP3    H124340   3.769   6.292   1.528
 8133TIP3    H224341   3.644   6.374   1.504
 8134TIP3   OH224342   6.066   6.691   1.751
 8134TIP3    H124343   6.155   6.666   1.776
 8134TIP3    H224344   6.051   6.773   1.798
 8135TIP3   OH224345   3.195   4.435   4.727
 8135TIP3    H124346   3.141   4.357   4.740
 8135TIP3    H224347   3.178   4.461   4.636
 8136TIP3   OH224348   7.131   0.078   0.751
 8136TIP3    H124349   7.148   0.142   0.820
 8136TIP3    H224350   7.153   0.124   0.670
 8137TIP3   OH224351   4.090   2.254   1.208
 8137TIP3    H124352   4.004   2.267   1.249
 8137TIP3    H224353   4.144   2.325   1.243
 8138TIP3   OH224354   3.774   3.620   1.161
 8138TIP3    H124355   3.836   3.675   1.112
 8138TIP3    H224356   3.827   3.576   1.226
 8139TIP3   OH224357   5.446   2.126   6.252
 8139TIP3    H124358   5.510   2.187   6.288
 8139TIP3    H224359   5.467   2.122   6.158
 8140TIP3   OH224360   7.956   5.230   2.862
 8140TIP3    H124361   7.868   5.202   2.886
 8140TIP3    H224362   8.014   5.168   2.905
 8141TIP3   OH224363   5.611   0.225   2.402
 8141TIP3    H124364   5.682   0.167   2.430
 8141TIP3    H224365   5.545   0.217   2.471
 8142TIP3   OH224366   3.076   3.571   5.155
 8142TIP3    H124367   3.114   3.595   5.071
 8142TIP3    H224368   3.094   3.646   5.212
 8143TIP3   OH224369   3.009   2.628   4.002
 8143TIP3    H124370   3.092   2.645   4.047
 8143TIP3    H224371   3.011   2.535   3.982
 8144TIP3   OH224372   1.829   3.335   1.387
 8144TIP3    H124373   1.810   3.298   1.300
 8144TIP3    H224374   1.815   3.262   1.448
 8145TIP3   OH224375   0.148   1.437   3.805
 8145TIP3    H124376   0.206   1.402   3.873
 8145TIP3    H224377   0.202   1.499   3.757
 8146TIP3   OH224378   4.970   2.371   3.275
 8146TIP3    H124379   4.939   2.289   3.235
 8146TIP3    H224380   4.900   2.396   3.335
 8147TIP3   OH224381   1.607   1.031   0.165
 8147TIP3    H124382   1.591   1.002   0.255
 8147TIP3    H224383   1.657   1.113   0.174
 8148TIP3   OH224384   7.211   0.382   5.785
 8148TIP3    H124385   7.217   0.428   5.869
 8148TIP3    H224386   7.228   0.450   5.720
 8149TIP3   OH224387   8.010   0.123   2.696
 8149TIP3    H124388   8.002   0.090   2.607
 8149TIP3    H224389   7.944   0.074   2.746
 8150TIP3   OH224390   0.221   6.361   6.614
 8150TIP3    H124391   0.297   6.420   6.617
 8150TIP3    H224392   0.190   6.356   6.704
 8151TIP3   OH224393   3.096   0.323   0.356
 8151TIP3    H124394   3.171   0.265   0.360
 8151TIP3    H224395   3.066   0.330   0.447
 8152TIP3   OH224396   1.898   5.790   4.248
 8152TIP3    H124397   1.838   5.750   4.310
 8152TIP3    H224398   1.862   5.877   4.230
 8153TIP3   OH224399   0.995   4.174   5.264
 8153TIP3    H124400   0.924   4.209   5.318
 8153TIP3    H224401   0.963   4.089   5.234
 8154TIP3   OH224402   0.103   3.736   1.128
 8154TIP3    H124403   0.024   3.727   1.073
 8154TIP3    H224404   0.129   3.827   1.115
 8155TIP3   OH224405   0.565   2.516   5.214
 8155TIP3    H124406   0.596   2.573   5.284
 8155TIP3    H224407   0.645   2.485   5.171
 8156TIP3   OH224408   7.306   6.119   0.791
 8156TIP3    H124409   7.245   6.183   0.827
 8156TIP3    H224410   7.255   6.038   0.786
 8157TIP3   OH224411   1.191   6.182   6.643
 8157TIP3    H124412   1.116   6.125   6.659
 8157TIP3    H224413   1.248   6.167   6.718
 8158TIP3   OH224414   5.507   2.905   3.895
 8158TIP3    H124415   5.475   2.990   3.926
 8158TIP3    H224416   5.470   2.897   3.807
 8159TIP3   OH224417   6.267   5.769   6.138
 8159TIP3    H124418   6.346   5.822   6.148
 8159TIP3    H224419   6.264   5.747   6.045
 8160TIP3   OH224420   5.875   1.420   3.696
 8160TIP3    H124421   5.826   1.373   3.763
 8160TIP3    H224422   5.961   1.438   3.736
 8161TIP3   OH224423   3.944   1.953   4.637
 8161TIP3    H124424   3.910   1.938   4.548
 8161TIP3    H224425   4.028   1.995   4.623
 8162TIP3   OH224426   7.721   1.325   3.337
 8162TIP3    H124427   7.666   1.248   3.348
 8162TIP3    H224428   7.805   1.301   3.376
 8163TIP3   OH224429   3.814   5.772   0.023
 8163TIP3    H124430   3.870   5.796   0.098
 8163TIP3    H224431   3.871   5.720  -0.033
 8164TIP3   OH224432   4.877   6.514   4.194
 8164TIP3    H124433   4.841   6.589   4.146
 8164TIP3    H224434   4.958   6.493   4.148
 8165TIP3   OH224435   7.622   1.199   2.228
 8165TIP3    H124436   7.527   1.196   2.215
 8165TIP3    H224437   7.633   1.239   2.314
 8166TIP3   OH224438   1.466   5.620   4.519
 8166TIP3    H124439   1.444   5.663   4.436
 8166TIP3    H224440   1.426   5.674   4.586
 8167TIP3   OH224441   1.377   0.086   1.022
 8167TIP3    H124442   1.396   0.161   1.079
 8167TIP3    H224443   1.326   0.026   1.077
 8168TIP3   OH224444   0.350   7.051   5.650
 8168TIP3    H124445   0.438   7.071   5.682
 8168TIP3    H224446   0.304   7.017   5.727
 8169TIP3   OH224447   6.471   5.208   1.314
 8169TIP3    H124448   6.531   5.282   1.318
 8169TIP3    H224449   6.483   5.171   1.227
 8170TIP3   OH224450   7.605   1.335   5.304
 8170TIP3    H124451   7.645   1.249   5.293
 8170TIP3    H224452   7.640   1.368   5.387
 8171TIP3   OH224453   6.450   6.964   5.587
 8171TIP3    H124454   6.373   7.011   5.554
 8171TIP3    H224455   6.485   7.021   5.655
 8172TIP3   OH224456   7.277   5.976   6.000
 8172TIP3    H124457   7.349   6.037   5.982
 8172TIP3    H224458   7.316   5.911   6.059
 8173TIP3   OH224459   0.671   3.366   5.020
 8173TIP3    H124460   0.720   3.413   4.953
 8173TIP3    H224461   0.613   3.308   4.971
 8174TIP3   OH224462   3.399   4.373   1.672
 8174TIP3    H124463   3.461   4.350   1.603
 8174TIP3    H224464   3.401   4.468   1.676
 8175TIP3   OH224465   8.248   4.621   2.105
 8175TIP3    H124466   8.240   4.538   2.057
 8175TIP3    H224467   8.304   4.675   2.049
 8176TIP3   OH224468   3.258   3.279   1.042
 8176TIP3    H124469   3.175   3.324   1.058
 8176TIP3    H224470   3.236   3.210   0.979
 8177TIP3   OH224471   5.174   7.568   5.407
 8177TIP3    H124472   5.152   7.475   5.411
 8177TIP3    H224473   5.270   7.570   5.405
 8178TIP3   OH224474   8.034   3.483   0.254
 8178TIP3    H124475   8.044   3.495   0.349
 8178TIP3    H224476   8.111   3.432   0.228
 8179TIP3   OH224477   2.370   4.543   6.277
 8179TIP3    H124478   2.453   4.535   6.323
 8179TIP3    H224479   2.382   4.495   6.195
 8180TIP3   OH224480   6.880   3.860   5.280
 8180TIP3    H124481   6.845   3.921   5.215
 8180TIP3    H224482   6.845   3.775   5.254
 8181TIP3   OH224483   7.640   1.184   3.721
 8181TIP3    H124484   7.548   1.157   3.726
 8181TIP3    H224485   7.677   1.129   3.651
 8182TIP3   OH224486   0.235   4.443   0.847
 8182TIP3    H124487   0.148   4.402   0.840
 8182TIP3    H224488   0.295   4.369   0.855
 8183TIP3   OH224489   6.910   5.017   4.907
 8183TIP3    H124490   6.912   4.940   4.850
 8183TIP3    H224491   6.836   5.002   4.966
 8184TIP3   OH224492   3.523   5.274   3.875
 8184TIP3    H124493   3.550   5.183   3.887
 8184TIP3    H224494   3.502   5.303   3.964
 8185TIP3   OH224495   4.256   5.242   2.309
 8185TIP3    H124496   4.245   5.234   2.404
 8185TIP3    H224497   4.332   5.186   2.290
 8186TIP3   OH224498   2.876   1.729   4.182
 8186TIP3    H124499   2.810   1.710   4.249
 8186TIP3    H224500   2.850   1.814   4.147
 8187TIP3   OH224501   3.659   0.916   1.784
 8187TIP3    H124502   3.581   0.971   1.778
 8187TIP3    H224503   3.674   0.887   1.694
 8188TIP3   OH224504   4.255   3.948   4.251
 8188TIP3    H124505   4.188   3.997   4.299
 8188TIP3    H224506   4.209   3.917   4.172
 8189TIP3   OH224507   4.281   3.021   5.435
 8189TIP3    H124508   4.242   2.968   5.505
 8189TIP3    H224509   4.205   3.053   5.385
 8190TIP3   OH224510   3.905   3.505   4.598
 8190TIP3    H124511   3.864   3.550   4.672
 8190TIP3    H224512   3.960   3.438   4.639
 8191TIP3   OH224513   8.261   3.813   6.435
 8191TIP3    H124514   8.196   3.761   6.388
 8191TIP3    H224515   8.336   3.754   6.446
 8192TIP3   OH224516   1.932   0.168   1.639
 8192TIP3    H124517   1.981   0.087   1.627
 8192TIP3    H224518   1.937   0.185   1.733
 8193TIP3   OH224519   5.880   6.844   5.367
 8193TIP3    H124520   5.966   6.859   5.327
 8193TIP3    H224521   5.819   6.843   5.293
 8194TIP3   OH224522   1.783   3.926   6.111
 8194TIP3    H124523   1.830   3.880   6.180
 8194TIP3    H224524   1.751   4.006   6.153
 8195TIP3   OH224525   8.200   4.002   3.601
 8195TIP3    H124526   8.184   4.090   3.567
 8195TIP3    H224527   8.118   3.955   3.585
 8196TIP3   OH224528   2.843   4.780   3.759
 8196TIP3    H124529   2.874   4.846   3.821
 8196TIP3    H224530   2.748   4.786   3.763
 8197TIP3   OH224531   3.977   4.650   0.935
 8197TIP3    H124532   3.986   4.739   0.969
 8197TIP3    H224533   4.043   4.644   0.866
 8198TIP3   OH224534   1.451   4.181   5.276
 8198TIP3    H124535   1.402   4.259   5.304
 8198TIP3    H224536   1.385   4.122   5.241
 8199TIP3   OH224537   4.751   6.408   4.422
 8199TIP3    H124538   4.698   6.480   4.456
 8199TIP3    H224539   4.769   6.432   4.331
 8200TIP3   OH224540   3.565   6.716   0.327
 8200TIP3    H124541   3.500   6.652   0.357
 8200TIP3    H224542   3.525   6.801   0.347
 8201TIP3   OH224543   6.700   3.305   6.542
 8201TIP3    H124544   6.652   3.270   6.617
 8201TIP3    H224545   6.658   3.388   6.522
 8202TIP3   OH224546   1.383   7.090   4.649
 8202TIP3    H124547   1.409   7.180   4.630
 8202TIP3    H224548   1.288   7.089   4.636
 8203TIP3   OH224549   1.973   5.319   3.730
 8203TIP3    H124550   2.025   5.248   3.692
 8203TIP3    H224551   1.935   5.282   3.809
 8204TIP3   OH224552   2.327   6.666   1.912
 8204TIP3    H124553   2.410   6.636   1.875
 8204TIP3    H224554   2.353   6.721   1.986
 8205TIP3   OH224555   1.834   3.268   0.888
 8205TIP3    H124556   1.823   3.209   0.814
 8205TIP3    H224557   1.880   3.344   0.851
 8206TIP3   OH224558   6.129   6.738   5.214
 8206TIP3    H124559   6.141   6.666   5.153
 8206TIP3    H224560   6.139   6.699   5.300
 8207TIP3   OH224561   7.423   4.952   4.951
 8207TIP3    H124562   7.351   5.015   4.959
 8207TIP3    H224563   7.468   4.978   4.871
 8208TIP3   OH224564   4.250   7.294   1.646
 8208TIP3    H124565   4.286   7.208   1.668
 8208TIP3    H224566   4.240   7.339   1.730
 8209TIP3   OH224567   3.126   7.868   3.010
 8209TIP3    H124568   3.185   7.933   3.049
 8209TIP3    H224569   3.129   7.793   3.070
 8210TIP3   OH224570   4.048   5.523   4.060
 8210TIP3    H124571   4.100   5.582   4.113
 8210TIP3    H224572   4.112   5.468   4.014
 8211TIP3   OH224573   6.306   0.343   5.511
 8211TIP3    H124574   6.301   0.333   5.416
 8211TIP3    H224575   6.370   0.414   5.524
 8212TIP3   OH224576   6.944   2.678   6.588
 8212TIP3    H124577   6.976   2.762   6.620
 8212TIP3    H224578   7.000   2.658   6.512
 8213TIP3   OH224579   1.520   5.832   2.363
 8213TIP3    H124580   1.464   5.893   2.411
 8213TIP3    H224581   1.478   5.823   2.278
 8214TIP3   OH224582   6.597   1.465   4.616
 8214TIP3    H124583   6.640   1.504   4.539
 8214TIP3    H224584   6.513   1.510   4.621
 8215TIP3   OH224585   4.641   7.386   5.266
 8215TIP3    H124586   4.558   7.425   5.294
 8215TIP3    H224587   4.634   7.293   5.291
 8216TIP3   OH224588   2.808   2.825   2.894
 8216TIP3    H124589   2.811   2.786   2.981
 8216TIP3    H224590   2.755   2.764   2.842
 8217TIP3   OH224591   2.708   0.800   5.658
 8217TIP3    H124592   2.700   0.708   5.632
 8217TIP3    H224593   2.620   0.824   5.688
 8218TIP3   OH224594   3.775   7.074   0.509
 8218TIP3    H124595   3.778   7.085   0.604
 8218TIP3    H224596   3.697   7.123   0.482
 8219TIP3   OH224597   5.523   4.890   6.760
 8219TIP3    H124598   5.487   4.815   6.807
 8219TIP3    H224599   5.616   4.869   6.750
 8220TIP3   OH224600   3.165   5.911   3.832
 8220TIP3    H124601   3.171   5.919   3.927
 8220TIP3    H224602   3.073   5.894   3.814
 8221TIP3   OH224603   2.971   6.775   2.016
 8221TIP3    H124604   2.966   6.775   2.112
 8221TIP3    H224605   3.009   6.861   1.994
 8222TIP3   OH224606   0.074   4.672   6.533
 8222TIP3    H124607   0.100   4.582   6.514
 8222TIP3    H224608   0.153   4.724   6.517
 8223TIP3   OH224609   2.237   0.374   5.255
 8223TIP3    H124610   2.310   0.415   5.209
 8223TIP3    H224611   2.160   0.425   5.230
 8224TIP3   OH224612   2.730   4.411   1.929
 8224TIP3    H124613   2.792   4.338   1.932
 8224TIP3    H224614   2.646   4.372   1.953
 8225TIP3   OH224615   3.260   6.360   5.102
 8225TIP3    H124616   3.291   6.435   5.050
 8225TIP3    H224617   3.311   6.365   5.183
 8226TIP3   OH224618   1.984   3.165   0.238
 8226TIP3    H124619   2.034   3.097   0.193
 8226TIP3    H224620   2.038   3.243   0.230
 8227TIP3   OH224621   5.700   5.419   2.210
 8227TIP3    H124622   5.723   5.333   2.246
 8227TIP3    H224623   5.718   5.411   2.116
 8228TIP3   OH224624   6.106   6.987   3.745
 8228TIP3    H124625   6.051   7.065   3.752
 8228TIP3    H224626   6.052   6.924   3.699
 8229TIP3   OH224627   4.305   5.487   5.205
 8229TIP3    H124628   4.257   5.569   5.200
 8229TIP3    H224629   4.378   5.497   5.145
 8230TIP3   OH224630   5.716   4.515   6.775
 8230TIP3    H124631   5.715   4.434   6.827
 8230TIP3    H224632   5.802   4.553   6.792
 8231TIP3   OH224633   4.533   0.342   5.195
 8231TIP3    H124634   4.548   0.384   5.111
 8231TIP3    H224635   4.595   0.269   5.197
 8232TIP3   OH224636   6.468   1.106   3.658
 8232TIP3    H124637   6.541   1.047   3.645
 8232TIP3    H224638   6.456   1.149   3.573
 8233TIP3   OH224639   3.350   0.606   4.924
 8233TIP3    H124640   3.267   0.562   4.910
 8233TIP3    H224641   3.406   0.540   4.965
 8234TIP3   OH224642   6.812   0.186   2.343
 8234TIP3    H124643   6.829   0.188   2.249
 8234TIP3    H224644   6.886   0.137   2.380
 8235TIP3   OH224645   5.416   0.344   5.656
 8235TIP3    H124646   5.499   0.391   5.654
 8235TIP3    H224647   5.357   0.396   5.602
 8236TIP3   OH224648   6.392   4.416   1.062
 8236TIP3    H124649   6.390   4.327   1.097
 8236TIP3    H224650   6.361   4.471   1.134
 8237TIP3   OH224651   4.730   7.722   3.333
 8237TIP3    H124652   4.642   7.695   3.359
 8237TIP3    H224653   4.721   7.747   3.241
 8238TIP3   OH224654   0.077   2.571   5.322
 8238TIP3    H124655   0.093   2.656   5.364
 8238TIP3    H224656   0.038   2.518   5.391
 8239TIP3   OH224657   7.598   4.883   1.030
 8239TIP3    H124658   7.622   4.944   0.960
 8239TIP3    H224659   7.503   4.885   1.032
 8240TIP3   OH224660   1.681   4.314   1.944
 8240TIP3    H124661   1.651   4.342   1.857
 8240TIP3    H224662   1.621   4.244   1.969
 8241TIP3   OH224663   6.745   7.052   0.903
 8241TIP3    H124664   6.671   7.006   0.865
 8241TIP3    H224665   6.821   6.999   0.879
 8242TIP3   OH224666   5.614   2.513   4.938
 8242TIP3    H124667   5.546   2.577   4.919
 8242TIP3    H224668   5.578   2.458   5.008
 8243TIP3   OH224669   6.263   2.238   3.202
 8243TIP3    H124670   6.221   2.312   3.157
 8243TIP3    H224671   6.272   2.172   3.133
 8244TIP3   OH224672   1.545   4.736   4.885
 8244TIP3    H124673   1.612   4.695   4.830
 8244TIP3    H224674   1.544   4.684   4.965
 8245TIP3   OH224675   6.513   1.475   0.042
 8245TIP3    H124676   6.444   1.499   0.103
 8245TIP3    H224677   6.467   1.433  -0.031
 8246TIP3   OH224678   4.679   0.848   3.968
 8246TIP3    H124679   4.627   0.814   3.896
 8246TIP3    H224680   4.694   0.940   3.945
 8247TIP3   OH224681   1.482   0.657   4.720
 8247TIP3    H124682   1.468   0.673   4.626
 8247TIP3    H224683   1.400   0.617   4.750
 8248TIP3   OH224684   0.872   7.862   0.535
 8248TIP3    H124685   0.964   7.847   0.554
 8248TIP3    H224686   0.872   7.925   0.462
 8249TIP3   OH224687   2.782   4.700   1.249
 8249TIP3    H124688   2.724   4.764   1.208
 8249TIP3    H224689   2.724   4.632   1.283
 8250TIP3   OH224690   1.607   0.625   2.498
 8250TIP3    H124691   1.675   0.563   2.523
 8250TIP3    H224692   1.635   0.659   2.413
 8251TIP3   OH224693   7.742   6.575   6.578
 8251TIP3    H124694   7.735   6.609   6.667
 8251TIP3    H224695   7.651   6.568   6.548
 8252TIP3   OH224696   0.471   2.488   1.326
 8252TIP3    H124697   0.483   2.522   1.415
 8252TIP3    H224698   0.556   2.500   1.284
 8253TIP3   OH224699   2.203   4.485   4.428
 8253TIP3    H124700   2.111   4.513   4.425
 8253TIP3    H224701   2.209   4.418   4.360
 8254TIP3   OH224702   1.195   3.668   5.800
 8254TIP3    H124703   1.219   3.689   5.890
 8254TIP3    H224704   1.143   3.743   5.771
 8255TIP3   OH224705   4.516   0.762   2.951
 8255TIP3    H124706   4.521   0.785   2.858
 8255TIP3    H224707   4.441   0.812   2.984
 8256TIP3   OH224708   6.964   2.592   4.178
 8256TIP3    H124709   6.915   2.550   4.107
 8256TIP3    H224710   6.901   2.599   4.250
 8257TIP3   OH224711   2.961   5.301   2.062
 8257TIP3    H124712   2.876   5.346   2.060
 8257TIP3    H224713   2.998   5.315   1.975
 8258TIP3   OH224714   4.692   1.722   3.129
 8258TIP3    H124715   4.615   1.778   3.115
 8258TIP3    H224716   4.655   1.634   3.139
 8259TIP3   OH224717   7.632   6.242   5.470
 8259TIP3    H124718   7.584   6.220   5.550
 8259TIP3    H224719   7.599   6.180   5.405
 8260TIP3   OH224720   5.250   2.191   3.644
 8260TIP3    H124721   5.168   2.145   3.629
 8260TIP3    H224722   5.313   2.146   3.588
 8261TIP3   OH224723   6.672   7.645   5.122
 8261TIP3    H124724   6.728   7.569   5.140
 8261TIP3    H224725   6.676   7.697   5.202
 8262TIP3   OH224726   5.848   2.105   6.191
 8262TIP3    H124727   5.936   2.137   6.175
 8262TIP3    H224728   5.793   2.150   6.126
 8263TIP3   OH224729   2.465   5.559   6.103
 8263TIP3    H124730   2.372   5.582   6.101
 8263TIP3    H224731   2.510   5.639   6.076
 8264TIP3   OH224732   6.970   6.827   4.799
 8264TIP3    H124733   6.977   6.852   4.892
 8264TIP3    H224734   6.927   6.902   4.758
 8265TIP3   OH224735   0.876   5.155   4.071
 8265TIP3    H124736   0.908   5.065   4.076
 8265TIP3    H224737   0.922   5.201   4.142
 8266TIP3   OH224738   7.090   3.695   1.450
 8266TIP3    H124739   7.171   3.726   1.410
 8266TIP3    H224740   7.049   3.640   1.383
 8267TIP3   OH224741   1.211   3.902   4.174
 8267TIP3    H124742   1.196   3.942   4.088
 8267TIP3    H224743   1.156   3.823   4.174
 8268TIP3   OH224744   4.452   4.780   4.949
 8268TIP3    H124745   4.457   4.874   4.932
 8268TIP3    H224746   4.452   4.740   4.862
 8269TIP3   OH224747   3.439   6.140   6.710
 8269TIP3    H124748   3.498   6.211   6.738
 8269TIP3    H224749   3.431   6.084   6.787
 8270TIP3   OH224750   7.613   0.025   2.420
 8270TIP3    H124751   7.641  -0.035   2.489
 8270TIP3    H224752   7.647  -0.013   2.339
 8271TIP3   OH224753   3.061   6.440   2.893
 8271TIP3    H124754   3.132   6.395   2.937
 8271TIP3    H224755   3.015   6.488   2.962
 8272TIP3   OH224756   2.954   4.336   0.210
 8272TIP3    H124757   2.975   4.335   0.117
 8272TIP3    H224758   2.897   4.260   0.222
 8273TIP3   OH224759   2.171   2.165   5.462
 8273TIP3    H124760   2.239   2.102   5.485
 8273TIP3    H224761   2.148   2.208   5.544
 8274TIP3   OH224762   3.088   2.193   6.308
 8274TIP3    H124763   3.132   2.132   6.248
 8274TIP3    H224764   2.997   2.164   6.308
 8275TIP3   OH224765   8.308   6.751   1.434
 8275TIP3    H124766   8.315   6.759   1.529
 8275TIP3    H224767   8.214   6.750   1.417
 8276TIP3   OH224768   0.680   5.414   6.451
 8276TIP3    H124769   0.735   5.483   6.415
 8276TIP3    H224770   0.595   5.426   6.408
 8277TIP3   OH224771   2.874   4.396   1.651
 8277TIP3    H124772   2.948   4.406   1.592
 8277TIP3    H224773   2.905   4.335   1.718
 8278TIP3   OH224774   7.469   1.888   4.403
 8278TIP3    H124775   7.456   1.956   4.470
 8278TIP3    H224776   7.564   1.873   4.403
 8279TIP3   OH224777   3.701   4.042   2.879
 8279TIP3    H124778   3.653   4.052   2.961
 8279TIP3    H224779   3.683   3.953   2.850
 8280TIP3   OH224780   6.505   6.167   4.959
 8280TIP3    H124781   6.582   6.215   4.930
 8280TIP3    H224782   6.491   6.195   5.049
 8281TIP3   OH224783   3.957   4.431   3.734
 8281TIP3    H124784   3.885   4.478   3.776
 8281TIP3    H224785   3.954   4.343   3.772
 8282TIP3   OH224786   6.745   7.724   3.075
 8282TIP3    H124787   6.662   7.769   3.057
 8282TIP3    H224788   6.810   7.772   3.024
 8283TIP3   OH224789   7.970   2.830   6.143
 8283TIP3    H124790   8.015   2.752   6.175
 8283TIP3    H224791   7.983   2.895   6.212
 8284TIP3   OH224792   6.434   2.002   5.820
 8284TIP3    H124793   6.351   2.025   5.861
 8284TIP3    H224794   6.501   2.034   5.880
 8285TIP3   OH224795   1.297   1.252   1.944
 8285TIP3    H124796   1.262   1.219   2.026
 8285TIP3    H224797   1.392   1.252   1.956
 8286TIP3   OH224798   8.405   6.413   2.277
 8286TIP3    H124799   8.347   6.380   2.209
 8286TIP3    H224800   8.354   6.408   2.357
 8287TIP3   OH224801   2.687   6.668   3.239
 8287TIP3    H124802   2.762   6.649   3.296
 8287TIP3    H224803   2.619   6.698   3.299
 8288TIP3   OH224804   0.635   2.022   0.087
 8288TIP3    H124805   0.673   2.080   0.153
 8288TIP3    H224806   0.671   1.936   0.108
 8289TIP3   OH224807   1.016   7.398   4.227
 8289TIP3    H124808   0.989   7.482   4.263
 8289TIP3    H224809   0.961   7.334   4.272
 8290TIP3   OH224810   4.362   4.737   3.128
 8290TIP3    H124811   4.358   4.824   3.169
 8290TIP3    H224812   4.412   4.684   3.189
 8291TIP3   OH224813   4.116   4.533   2.888
 8291TIP3    H124814   4.125   4.440   2.867
 8291TIP3    H224815   4.022   4.545   2.904
 8292TIP3   OH224816   2.509   7.304   3.127
 8292TIP3    H124817   2.604   7.310   3.131
 8292TIP3    H224818   2.488   7.223   3.174
 8293TIP3   OH224819   5.879   1.545   2.468
 8293TIP3    H124820   5.877   1.620   2.527
 8293TIP3    H224821   5.965   1.549   2.427
 8294TIP3   OH224822   6.347   0.262   0.165
 8294TIP3    H124823   6.265   0.213   0.174
 8294TIP3    H224824   6.397   0.239   0.243
 8295TIP3   OH224825   0.336   1.572   5.687
 8295TIP3    H124826   0.248   1.610   5.685
 8295TIP3    H224827   0.325   1.486   5.727
 8296TIP3   OH224828   4.619   3.977   2.889
 8296TIP3    H124829   4.644   3.969   2.797
 8296TIP3    H224830   4.697   3.952   2.938
 8297TIP3   OH224831   2.017   7.667   5.873
 8297TIP3    H124832   1.975   7.718   5.805
 8297TIP3    H224833   2.106   7.651   5.841
 8298TIP3   OH224834   7.960   1.707   4.533
 8298TIP3    H124835   7.906   1.653   4.477
 8298TIP3    H224836   8.047   1.667   4.530
 8299TIP3   OH224837   4.348   2.657   4.303
 8299TIP3    H124838   4.414   2.647   4.371
 8299TIP3    H224839   4.388   2.618   4.225
 8300TIP3   OH224840   2.050   3.269   1.079
 8300TIP3    H124841   2.034   3.362   1.093
 8300TIP3    H224842   1.992   3.246   1.006
 8301TIP3   OH224843   4.820   7.327   4.703
 8301TIP3    H124844   4.840   7.418   4.680
 8301TIP3    H224845   4.766   7.333   4.782
 8302TIP3   OH224846   0.544   1.605   4.306
 8302TIP3    H124847   0.581   1.555   4.379
 8302TIP3    H224848   0.557   1.549   4.230
 8303TIP3   OH224849   2.581   2.116   2.853
 8303TIP3    H124850   2.668   2.148   2.827
 8303TIP3    H224851   2.576   2.135   2.947
 8304TIP3   OH224852   4.164   1.436   5.311
 8304TIP3    H124853   4.232   1.488   5.354
 8304TIP3    H224854   4.147   1.482   5.229
 8305TIP3   OH224855   7.761   1.647   0.812
 8305TIP3    H124856   7.734   1.738   0.824
 8305TIP3    H224857   7.775   1.638   0.717
 8306TIP3   OH224858   8.039   7.542   5.363
 8306TIP3    H124859   7.959   7.490   5.359
 8306TIP3    H224860   8.051   7.560   5.456
 8307TIP3   OH224861   4.948   1.808   4.003
 8307TIP3    H124862   4.945   1.901   3.985
 8307TIP3    H224863   5.002   1.771   3.933
 8308TIP3   OH224864   2.478   5.338   0.543
 8308TIP3    H124865   2.483   5.352   0.637
 8308TIP3    H224866   2.398   5.383   0.516
 8309TIP3   OH224867   8.314   0.909   0.674
 8309TIP3    H124868   8.338   0.995   0.639
 8309TIP3    H224869   8.383   0.850   0.644
 8310TIP3   OH224870   2.817   5.719   2.703
 8310TIP3    H124871   2.811   5.793   2.763
 8310TIP3    H224872   2.903   5.681   2.721
 8311TIP3   OH224873   8.359   7.713   2.942
 8311TIP3    H124874   8.358   7.708   3.038
 8311TIP3    H224875   8.277   7.758   2.920
 8312TIP3   OH224876   8.255   7.737   1.243
 8312TIP3    H124877   8.310   7.680   1.190
 8312TIP3    H224878   8.178   7.683   1.264
 8313TIP3   OH224879   2.076   0.753   1.298
 8313TIP3    H124880   2.048   0.722   1.384
 8313TIP3    H224881   2.065   0.677   1.241
 8314TIP3   OH224882   0.455   0.321   0.126
 8314TIP3    H124883   0.397   0.262   0.079
 8314TIP3    H224884   0.407   0.344   0.205
 8315TIP3   OH224885   4.510   2.020   5.193
 8315TIP3    H124886   4.571   2.046   5.263
 8315TIP3    H224887   4.494   2.101   5.145
 8316TIP3   OH224888   3.217   2.678   3.293
 8316TIP3    H124889   3.255   2.643   3.373
 8316TIP3    H224890   3.127   2.701   3.316
 8317TIP3   OH224891   2.341   5.928   3.088
 8317TIP3    H124892   2.309   6.017   3.098
 8317TIP3    H224893   2.362   5.899   3.177
 8318TIP3   OH224894   4.524   5.551   4.621
 8318TIP3    H124895   4.534   5.614   4.550
 8318TIP3    H224896   4.433   5.524   4.617
 8319TIP3   OH224897   0.752   2.980   4.365
 8319TIP3    H124898   0.746   3.058   4.310
 8319TIP3    H224899   0.842   2.981   4.397
 8320TIP3   OH224900   3.346   2.294   3.289
 8320TIP3    H124901   3.271   2.235   3.292
 8320TIP3    H224902   3.370   2.307   3.381
 8321TIP3   OH224903   3.651   3.633   3.689
 8321TIP3    H124904   3.676   3.552   3.732
 8321TIP3    H224905   3.597   3.679   3.753
 8322TIP3   OH224906   7.532   7.530   4.685
 8322TIP3    H124907   7.480   7.588   4.630
 8322TIP3    H224908   7.471   7.460   4.710
 8323TIP3   OH224909   6.458   2.921   2.590
 8323TIP3    H124910   6.418   3.006   2.571
 8323TIP3    H224911   6.492   2.929   2.679
 8324TIP3   OH224912   6.231   2.652   4.800
 8324TIP3    H124913   6.157   2.598   4.830
 8324TIP3    H224914   6.190   2.734   4.772
 8325TIP3   OH224915   3.640   0.629   0.672
 8325TIP3    H124916   3.676   0.668   0.752
 8325TIP3    H224917   3.643   0.535   0.688
 8326TIP3   OH224918   6.604   0.650   0.088
 8326TIP3    H124919   6.647   0.716   0.034
 8326TIP3    H224920   6.632   0.671   0.178
 8327TIP3   OH224921   2.313   7.103   1.852
 8327TIP3    H124922   2.286   7.020   1.813
 8327TIP3    H224923   2.287   7.169   1.789
 8328TIP3   OH224924   0.875   5.781   6.610
 8328TIP3    H124925   0.826   5.817   6.537
 8328TIP3    H224926   0.809   5.738   6.665
 8329TIP3   OH224927   7.231   6.114   1.924
 8329TIP3    H124928   7.155   6.118   1.982
 8329TIP3    H224929   7.226   6.028   1.883
 8330TIP3   OH224930   7.155   5.055   3.833
 8330TIP3    H124931   7.160   5.146   3.805
 8330TIP3    H224932   7.128   5.007   3.755
 8331TIP3   OH224933   7.646   3.171   6.753
 8331TIP3    H124934   7.623   3.210   6.837
 8331TIP3    H224935   7.566   3.127   6.725
 8332TIP3   OH224936   5.026   7.101   2.471
 8332TIP3    H124937   4.939   7.129   2.442
 8332TIP3    H224938   5.022   7.005   2.469
 8333TIP3   OH224939   3.965   0.113   5.058
 8333TIP3    H124940   3.994   0.054   4.988
 8333TIP3    H224941   3.951   0.056   5.133
 8334TIP3   OH224942   2.619   0.026   2.736
 8334TIP3    H124943   2.563  -0.044   2.770
 8334TIP3    H224944   2.609   0.097   2.800
 8335TIP3   OH224945   7.161   2.356   4.720
 8335TIP3    H124946   7.194   2.446   4.719
 8335TIP3    H224947   7.218   2.309   4.659
 8336TIP3   OH224948   0.129   6.995   5.848
 8336TIP3    H124949   0.086   7.074   5.814
 8336TIP3    H224950   0.066   6.959   5.911
 8337TIP3   OH224951   0.871   6.817   2.689
 8337TIP3    H124952   0.921   6.736   2.688
 8337TIP3    H224953   0.936   6.886   2.676
 8338TIP3   OH224954   3.846   3.240   4.219
 8338TIP3    H124955   3.922   3.299   4.221
 8338TIP3    H224956   3.784   3.278   4.281
 8339TIP3   OH224957   8.203   2.769   5.915
 8339TIP3    H124958   8.128   2.710   5.909
 8339TIP3    H224959   8.164   2.855   5.931
 8340TIP3   OH224960   4.739   5.496   2.242
 8340TIP3    H124961   4.698   5.559   2.183
 8340TIP3    H224962   4.720   5.411   2.205
 8341TIP3   OH224963   5.822   7.207   2.718
 8341TIP3    H124964   5.790   7.222   2.629
 8341TIP3    H224965   5.842   7.113   2.721
 8342TIP3   OH224966   5.109   1.320   5.125
 8342TIP3    H124967   5.068   1.357   5.203
 8342TIP3    H224968   5.196   1.361   5.122
 8343TIP3   OH224969   2.600   1.789   4.922
 8343TIP3    H124970   2.643   1.705   4.939
 8343TIP3    H224971   2.509   1.766   4.903
 8344TIP3   OH224972   2.204   4.372   5.956
 8344TIP3    H124973   2.285   4.340   5.995
 8344TIP3    H224974   2.230   4.400   5.868
 8345TIP3   OH224975   3.504   2.671   3.750
 8345TIP3    H124976   3.488   2.752   3.798
 8345TIP3    H224977   3.590   2.642   3.781
 8346TIP3   OH224978   7.064   1.352   2.669
 8346TIP3    H124979   6.975   1.351   2.704
 8346TIP3    H224980   7.106   1.426   2.712
 8347TIP3   OH224981   0.611   5.558   2.452
 8347TIP3    H124982   0.673   5.629   2.465
 8347TIP3    H224983   0.618   5.505   2.532
 8348TIP3   OH224984   6.824   5.696   1.692
 8348TIP3    H124985   6.806   5.665   1.603
 8348TIP3    H224986   6.747   5.672   1.742
 8349TIP3   OH224987   5.875   5.977   5.055
 8349TIP3    H124988   5.834   5.973   4.969
 8349TIP3    H224989   5.968   5.960   5.038
 8350TIP3   OH224990   0.818   5.973   1.949
 8350TIP3    H124991   0.905   5.940   1.973
 8350TIP3    H224992   0.774   5.898   1.908
 8351TIP3   OH224993   6.299   6.569   1.819
 8351TIP3    H124994   6.389   6.579   1.850
 8351TIP3    H224995   6.306   6.573   1.723
 8352TIP3   OH224996   7.492   0.373   5.947
 8352TIP3    H124997   7.538   0.428   6.011
 8352TIP3    H224998   7.461   0.434   5.880
 8353TIP3   OH224999   3.925   3.089   6.247
 8353TIP3    H125000   3.907   3.147   6.173
 8353TIP3    H225001   3.940   3.003   6.208
 8354TIP3   OH225002   8.158   0.147   3.890
 8354TIP3    H125003   8.094   0.099   3.836
 8354TIP3    H225004   8.241   0.137   3.844
 8355TIP3   OH225005   4.303   4.123   5.060
 8355TIP3    H125006   4.332   4.128   5.151
 8355TIP3    H225007   4.366   4.065   5.018
 8356TIP3   OH225008   6.629   0.351   2.444
 8356TIP3    H125009   6.690   0.286   2.410
 8356TIP3    H225010   6.683   0.428   2.464
 8357TIP3   OH225011   5.167   1.107   3.850
 8357TIP3    H125012   5.114   1.027   3.850
 8357TIP3    H225013   5.104   1.178   3.842
 8358TIP3   OH225014   7.082   4.241   5.354
 8358TIP3    H125015   7.063   4.190   5.276
 8358TIP3    H225016   7.052   4.186   5.427
 8359TIP3   OH225017   0.485   6.515   6.326
 8359TIP3    H125018   0.396   6.535   6.295
 8359TIP3    H225019   0.541   6.580   6.283
 8360TIP3   OH225020   2.488   0.245   4.617
 8360TIP3    H125021   2.399   0.279   4.606
 8360TIP3    H225022   2.488   0.207   4.705
 8361TIP3   OH225023   3.293   0.297   0.069
 8361TIP3    H125024   3.267   0.205   0.070
 8361TIP3    H225025   3.358   0.305   0.139
 8362TIP3   OH225026   3.758   7.412   5.832
 8362TIP3    H125027   3.805   7.475   5.778
 8362TIP3    H225028   3.674   7.455   5.851
 8363TIP3   OH225029   5.340   5.627   2.918
 8363TIP3    H125030   5.324   5.719   2.897
 8363TIP3    H225031   5.423   5.627   2.965
 8364TIP3   OH225032   6.535   1.293   1.651
 8364TIP3    H125033   6.479   1.236   1.599
 8364TIP3    H225034   6.543   1.373   1.600
 8365TIP3   OH225035   7.767   7.448   0.232
 8365TIP3    H125036   7.697   7.514   0.234
 8365TIP3    H225037   7.845   7.496   0.203
 8366TIP3   OH225038   4.351   4.206   4.709
 8366TIP3    H125039   4.412   4.247   4.769
 8366TIP3    H225040   4.368   4.248   4.625
 8367TIP3   OH225041   0.079   3.773   5.705
 8367TIP3    H125042   0.071   3.679   5.726
 8367TIP3    H225043   0.105   3.813   5.788
 8368TIP3   OH225044   7.065   6.154   1.204
 8368TIP3    H125045   6.972   6.171   1.219
 8368TIP3    H225046   7.110   6.213   1.265
 8369TIP3   OH225047   3.036   6.657   6.109
 8369TIP3    H125048   3.003   6.710   6.182
 8369TIP3    H225049   2.992   6.573   6.119
 8370TIP3   OH225050   2.893   4.183   1.821
 8370TIP3    H125051   2.823   4.127   1.855
 8370TIP3    H225052   2.952   4.123   1.776
 8371TIP3   OH225053   2.101   3.121   2.406
 8371TIP3    H125054   2.057   3.206   2.414
 8371TIP3    H225055   2.039   3.059   2.444
 8372TIP3   OH225056   2.900   2.862   0.918
 8372TIP3    H125057   2.828   2.913   0.882
 8372TIP3    H225058   2.909   2.788   0.858
 8373TIP3   OH225059   6.253   3.336   6.540
 8373TIP3    H125060   6.272   3.262   6.482
 8373TIP3    H225061   6.173   3.374   6.504
 8374TIP3   OH225062   2.087   4.899   1.975
 8374TIP3    H125063   2.145   4.872   1.904
 8374TIP3    H225064   2.142   4.955   2.030
 8375TIP3   OH225065   8.177   2.118   4.595
 8375TIP3    H125066   8.106   2.056   4.580
 8375TIP3    H225067   8.147   2.171   4.669
 8376TIP3   OH225068   1.742   6.474   6.733
 8376TIP3    H125069   1.778   6.559   6.708
 8376TIP3    H225070   1.680   6.453   6.664
 8377TIP3   OH225071   0.261   2.907   3.543
 8377TIP3    H125072   0.335   2.925   3.600
 8377TIP3    H225073   0.184   2.934   3.594
 8378TIP3   OH225074   0.903   2.675   5.703
 8378TIP3    H125075   0.858   2.621   5.768
 8378TIP3    H225076   0.918   2.616   5.629
 8379TIP3   OH225077   8.305   7.273   0.991
 8379TIP3    H125078   8.324   7.305   0.903
 8379TIP3    H225079   8.218   7.307   1.011
 8380TIP3   OH225080   5.390   3.136   6.661
 8380TIP3    H125081   5.475   3.140   6.705
 8380TIP3    H225082   5.406   3.083   6.583
 8381TIP3   OH225083   1.477   0.418   6.041
 8381TIP3    H125084   1.467   0.445   5.950
 8381TIP3    H225085   1.525   0.490   6.082
 8382TIP3   OH225086   3.897   7.591   5.097
 8382TIP3    H125087   3.828   7.598   5.031
 8382TIP3    H225088   3.952   7.519   5.066
 8383TIP3   OH225089   2.253   5.143   1.474
 8383TIP3    H125090   2.222   5.137   1.384
 8383TIP3    H225091   2.232   5.232   1.501
 8384TIP3   OH225092   7.958   6.703   4.461
 8384TIP3    H125093   7.918   6.786   4.488
 8384TIP3    H225094   7.959   6.649   4.540
 8385TIP3   OH225095   3.037   6.354   2.402
 8385TIP3    H125096   3.076   6.394   2.480
 8385TIP3    H225097   3.089   6.274   2.389
 8386TIP3   OH225098   3.422   2.037   4.191
 8386TIP3    H125099   3.485   1.973   4.158
 8386TIP3    H225100   3.415   2.017   4.285
 8387TIP3   OH225101   6.797   7.326   0.983
 8387TIP3    H125102   6.889   7.351   0.996
 8387TIP3    H225103   6.799   7.231   0.975
 8388TIP3   OH225104   2.465   7.708   3.757
 8388TIP3    H125105   2.457   7.766   3.833
 8388TIP3    H225106   2.384   7.723   3.707
 8389TIP3   OH225107   1.687   1.126   4.310
 8389TIP3    H125108   1.750   1.083   4.252
 8389TIP3    H225109   1.740   1.175   4.372
 8390TIP3   OH225110   4.636   5.726   1.854
 8390TIP3    H125111   4.669   5.636   1.854
 8390TIP3    H225112   4.568   5.727   1.786
 8391TIP3   OH225113   0.527   1.094   2.207
 8391TIP3    H125114   0.476   1.019   2.238
 8391TIP3    H225115   0.500   1.167   2.264
 8392TIP3   OH225116   6.519   7.430   0.748
 8392TIP3    H125117   6.614   7.445   0.745
 8392TIP3    H225118   6.507   7.372   0.824
 8393TIP3   OH225119   2.637   2.608   1.727
 8393TIP3    H125120   2.646   2.594   1.632
 8393TIP3    H225121   2.684   2.690   1.743
 8394TIP3   OH225122   3.640   5.239   6.174
 8394TIP3    H125123   3.714   5.202   6.221
 8394TIP3    H225124   3.675   5.265   6.089
 8395TIP3   OH225125   5.132   0.143   1.930
 8395TIP3    H125126   5.132   0.125   1.836
 8395TIP3    H225127   5.048   0.107   1.960
 8396TIP3   OH225128   7.715   7.112   4.081
 8396TIP3    H125129   7.666   7.175   4.135
 8396TIP3    H225130   7.744   7.163   4.006
 8397TIP3   OH225131   0.643   2.754   4.218
 8397TIP3    H125132   0.679   2.816   4.282
 8397TIP3    H225133   0.675   2.786   4.134
 8398TIP3   OH225134   3.773   3.300   2.585
 8398TIP3    H125135   3.773   3.330   2.675
 8398TIP3    H225136   3.694   3.338   2.546
 8399TIP3   OH225137   5.068   5.481   4.407
 8399TIP3    H125138   4.973   5.490   4.411
 8399TIP3    H225139   5.082   5.402   4.354
 8400TIP3   OH225140   6.096   3.377   3.283
 8400TIP3    H125141   6.191   3.381   3.296
 8400TIP3    H225142   6.072   3.467   3.259
 8401TIP3   OH225143   7.440   6.821   0.194
 8401TIP3    H125144   7.428   6.788   0.105
 8401TIP3    H225145   7.358   6.866   0.214
 8402TIP3   OH225146   1.325   4.271   0.768
 8402TIP3    H125147   1.238   4.268   0.726
 8402TIP3    H225148   1.384   4.300   0.698
 8403TIP3   OH225149   3.145   6.034   2.936
 8403TIP3    H125150   3.075   6.099   2.936
 8403TIP3    H225151   3.187   6.044   3.022
 8404TIP3   OH225152   3.879   4.770   3.668
 8404TIP3    H125153   3.829   4.689   3.681
 8404TIP3    H225154   3.850   4.802   3.582
 8405TIP3   OH225155   2.286   1.573   0.735
 8405TIP3    H125156   2.358   1.516   0.762
 8405TIP3    H225157   2.208   1.529   0.766
 8406TIP3   OH225158   7.316   6.286   4.752
 8406TIP3    H125159   7.281   6.246   4.831
 8406TIP3    H225160   7.252   6.354   4.729
 8407TIP3   OH225161   7.578   5.815   5.872
 8407TIP3    H125162   7.567   5.805   5.966
 8407TIP3    H225163   7.586   5.725   5.840
 8408TIP3   OH225164   4.796   7.008   1.998
 8408TIP3    H125165   4.763   6.921   1.977
 8408TIP3    H225166   4.781   7.060   1.919
 8409TIP3   OH225167   0.659   4.347   4.195
 8409TIP3    H125168   0.672   4.316   4.105
 8409TIP3    H225169   0.683   4.439   4.191
 8410TIP3   OH225170   1.892   2.508   3.150
 8410TIP3    H125171   1.866   2.434   3.205
 8410TIP3    H225172   1.977   2.482   3.114
 8411TIP3   OH225173   7.148   0.233   2.414
 8411TIP3    H125174   7.181   0.149   2.380
 8411TIP3    H225175   7.115   0.212   2.501
 8412TIP3   OH225176   4.872   0.166   6.418
 8412TIP3    H125177   4.904   0.076   6.403
 8412TIP3    H225178   4.951   0.219   6.423
 8413TIP3   OH225179   4.194   5.163   0.602
 8413TIP3    H125180   4.255   5.166   0.676
 8413TIP3    H225181   4.109   5.145   0.643
 8414TIP3   OH225182   1.960   3.264   4.944
 8414TIP3    H125183   1.926   3.196   4.885
 8414TIP3    H225184   1.953   3.345   4.894
 8415TIP3   OH225185   2.280   5.826   4.920
 8415TIP3    H125186   2.249   5.869   4.840
 8415TIP3    H225187   2.293   5.735   4.895
 8416TIP3   OH225188   1.801   1.384   6.206
 8416TIP3    H125189   1.807   1.300   6.160
 8416TIP3    H225190   1.836   1.448   6.145
 8417TIP3   OH225191   4.020   0.193   2.033
 8417TIP3    H125192   3.979   0.237   2.107
 8417TIP3    H225193   4.114   0.202   2.049
 8418TIP3   OH225194   5.404   2.040   1.027
 8418TIP3    H125195   5.411   2.089   1.109
 8418TIP3    H225196   5.463   2.085   0.967
 8419TIP3   OH225197   0.647   2.441   2.540
 8419TIP3    H125198   0.568   2.388   2.543
 8419TIP3    H225199   0.639   2.493   2.460
 8420TIP3   OH225200   2.021   6.284   3.610
 8420TIP3    H125201   2.026   6.369   3.652
 8420TIP3    H225202   1.933   6.282   3.571
 8421TIP3   OH225203   5.715   7.477   0.293
 8421TIP3    H125204   5.657   7.431   0.353
 8421TIP3    H225205   5.698   7.437   0.208
 8422TIP3   OH225206   7.291   4.707   1.851
 8422TIP3    H125207   7.252   4.637   1.798
 8422TIP3    H225208   7.248   4.787   1.821
 8423TIP3   OH225209   2.726   1.020   2.756
 8423TIP3    H125210   2.767   1.044   2.839
 8423TIP3    H225211   2.716   0.925   2.760
 8424TIP3   OH225212   8.043   4.843   2.659
 8424TIP3    H125213   8.130   4.853   2.698
 8424TIP3    H225214   8.038   4.750   2.637
 8425TIP3   OH225215   4.599   5.946   3.532
 8425TIP3    H125216   4.507   5.934   3.557
 8425TIP3    H225217   4.617   6.038   3.551
 8426TIP3   OH225218   0.807   0.770   2.520
 8426TIP3    H125219   0.788   0.839   2.456
 8426TIP3    H225220   0.829   0.818   2.600
 8427TIP3   OH225221   2.632   7.548   1.964
 8427TIP3    H125222   2.573   7.624   1.958
 8427TIP3    H225223   2.717   7.585   1.989
 8428TIP3   OH225224   0.485   2.349   0.931
 8428TIP3    H125225   0.437   2.430   0.950
 8428TIP3    H225226   0.430   2.280   0.969
 8429TIP3   OH225227   6.408   0.667   3.397
 8429TIP3    H125228   6.348   0.735   3.426
 8429TIP3    H225229   6.363   0.585   3.418
 8430TIP3   OH225230   8.268   6.235   1.241
 8430TIP3    H125231   8.182   6.266   1.271
 8430TIP3    H225232   8.311   6.202   1.320
 8431TIP3   OH225233   6.959   4.035   3.324
 8431TIP3    H125234   6.950   3.948   3.287
 8431TIP3    H225235   6.912   4.092   3.264
 8432TIP3   OH225236   1.043   7.677   5.674
 8432TIP3    H125237   1.136   7.701   5.680
 8432TIP3    H225238   1.006   7.739   5.611
 8433TIP3   OH225239   0.210   2.254   0.904
 8433TIP3    H125240   0.190   2.161   0.906
 8433TIP3    H225241   0.177   2.285   0.820
 8434TIP3   OH225242   7.521   2.084   3.061
 8434TIP3    H125243   7.583   2.095   2.990
 8434TIP3    H225244   7.531   1.992   3.088
 8435TIP3   OH225245   1.818   3.188   5.264
 8435TIP3    H125246   1.731   3.148   5.264
 8435TIP3    H225247   1.803   3.276   5.229
 8436TIP3   OH225248   2.710   4.933   5.625
 8436TIP3    H125249   2.743   4.992   5.692
 8436TIP3    H225250   2.693   4.851   5.671
 8437TIP3   OH225251   7.061   1.585   1.577
 8437TIP3    H125252   7.088   1.661   1.627
 8437TIP3    H225253   7.120   1.582   1.502
 8438TIP3   OH225254   2.601   4.394   6.485
 8438TIP3    H125255   2.683   4.344   6.481
 8438TIP3    H225256   2.554   4.356   6.559
 8439TIP3   OH225257   7.277   7.074   5.879
 8439TIP3    H125258   7.256   7.154   5.927
 8439TIP3    H225259   7.320   7.017   5.944
 8440TIP3   OH225260   5.223   5.107   0.954
 8440TIP3    H125261   5.310   5.109   0.915
 8440TIP3    H225262   5.214   5.192   0.997
 8441TIP3   OH225263   5.342   4.863   3.756
 8441TIP3    H125264   5.341   4.768   3.746
 8441TIP3    H225265   5.366   4.896   3.669
 8442TIP3   OH225266   5.695   6.545   4.226
 8442TIP3    H125267   5.656   6.526   4.141
 8442TIP3    H225268   5.782   6.577   4.206
 8443TIP3   OH225269   6.403   3.002   4.627
 8443TIP3    H125270   6.451   2.923   4.601
 8443TIP3    H225271   6.373   2.983   4.716
 8444TIP3   OH225272   0.698   3.744   1.937
 8444TIP3    H125273   0.784   3.786   1.924
 8444TIP3    H225274   0.683   3.751   2.032
 8445TIP3   OH225275   6.562   3.587   5.487
 8445TIP3    H125276   6.511   3.667   5.474
 8445TIP3    H225277   6.522   3.545   5.563
 8446TIP3   OH225278   4.234   1.556   3.181
 8446TIP3    H125279   4.213   1.647   3.198
 8446TIP3    H225280   4.183   1.507   3.246
 8447TIP3   OH225281   3.314   3.472   6.626
 8447TIP3    H125282   3.345   3.390   6.666
 8447TIP3    H225283   3.373   3.539   6.662
 8448TIP3   OH225284   0.992   0.881   4.530
 8448TIP3    H125285   1.038   0.879   4.445
 8448TIP3    H225286   0.982   0.975   4.549
 8449TIP3   OH225287   7.232   3.287   2.633
 8449TIP3    H125288   7.232   3.352   2.703
 8449TIP3    H225289   7.324   3.268   2.617
 8450TIP3   OH225290   4.958   2.596   0.240
 8450TIP3    H125291   5.021   2.662   0.211
 8450TIP3    H225292   4.882   2.609   0.183
 8451TIP3   OH225293   7.946   7.330   2.089
 8451TIP3    H125294   7.909   7.243   2.105
 8451TIP3    H225295   7.991   7.322   2.005
 8452TIP3   OH225296   6.637   4.716   4.071
 8452TIP3    H125297   6.591   4.797   4.093
 8452TIP3    H225298   6.656   4.676   4.156
 8453TIP3   OH225299   7.171   5.225   1.704
 8453TIP3    H125300   7.104   5.287   1.677
 8453TIP3    H225301   7.238   5.280   1.746
 8454TIP3   OH225302   5.248   6.809   0.340
 8454TIP3    H125303   5.292   6.889   0.311
 8454TIP3    H225304   5.305   6.775   0.409
 8455TIP3   OH225305   3.184   3.012   5.568
 8455TIP3    H125306   3.211   3.013   5.476
 8455TIP3    H225307   3.157   3.102   5.585
 8456TIP3   OH225308   3.459   7.611   6.474
 8456TIP3    H125309   3.378   7.613   6.525
 8456TIP3    H225310   3.512   7.682   6.510
 8457TIP3   OH225311   6.853   3.001   3.691
 8457TIP3    H125312   6.907   3.076   3.716
 8457TIP3    H225313   6.891   2.927   3.737
 8458TIP3   OH225314   7.764   4.026   4.625
 8458TIP3    H125315   7.809   4.023   4.710
 8458TIP3    H225316   7.748   4.119   4.609
 8459TIP3   OH225317   8.296   2.809   3.010
 8459TIP3    H125318   8.299   2.872   2.938
 8459TIP3    H225319   8.220   2.835   3.062
 8460TIP3   OH225320   5.739   1.448   0.358
 8460TIP3    H125321   5.800   1.456   0.431
 8460TIP3    H225322   5.742   1.356   0.334
 8461TIP3   OH225323   5.416   5.619   6.827
 8461TIP3    H125324   5.442   5.641   6.917
 8461TIP3    H225325   5.388   5.527   6.833
 8462TIP3   OH225326   7.540   1.364   0.693
 8462TIP3    H125327   7.577   1.347   0.607
 8462TIP3    H225328   7.474   1.432   0.678
 8463TIP3   OH225329   2.909   3.582   0.522
 8463TIP3    H125330   2.965   3.655   0.549
 8463TIP3    H225331   2.967   3.522   0.475
 8464TIP3   OH225332   4.196   6.268   3.822
 8464TIP3    H125333   4.130   6.260   3.892
 8464TIP3    H225334   4.154   6.322   3.756
 8465TIP3   OH225335   4.482   6.761   5.002
 8465TIP3    H125336   4.451   6.839   4.955
 8465TIP3    H225337   4.526   6.796   5.080
 8466TIP3   OH225338   3.063   2.260   2.641
 8466TIP3    H125339   3.120   2.300   2.706
 8466TIP3    H225340   3.084   2.167   2.644
 8467TIP3   OH225341   2.952   7.628   3.334
 8467TIP3    H125342   2.899   7.652   3.410
 8467TIP3    H225343   2.890   7.588   3.273
 8468TIP3   OH225344   0.419   6.877   2.238
 8468TIP3    H125345   0.346   6.850   2.293
 8468TIP3    H225346   0.421   6.973   2.246
 8469TIP3   OH225347   4.749   6.794   2.581
 8469TIP3    H125348   4.843   6.786   2.567
 8469TIP3    H225349   4.741   6.857   2.653
 8470TIP3   OH225350   7.413   5.663   4.908
 8470TIP3    H125351   7.405   5.584   4.853
 8470TIP3    H225352   7.498   5.654   4.951
 8471TIP3   OH225353   4.988   2.106   6.015
 8471TIP3    H125354   5.004   2.177   6.077
 8471TIP3    H225355   4.942   2.040   6.066
 8472TIP3   OH225356   5.418   2.047   4.580
 8472TIP3    H125357   5.360   2.013   4.647
 8472TIP3    H225358   5.505   2.014   4.604
 8473TIP3   OH225359   6.819   5.709   5.025
 8473TIP3    H125360   6.861   5.795   5.016
 8473TIP3    H225361   6.886   5.654   5.066
 8474TIP3   OH225362   5.539   1.949   3.179
 8474TIP3    H125363   5.600   2.008   3.134
 8474TIP3    H225364   5.572   1.943   3.268
 8475TIP3   OH225365   5.787   5.486   5.270
 8475TIP3    H125366   5.871   5.472   5.226
 8475TIP3    H225367   5.762   5.575   5.246
 8476TIP3   OH225368   0.303   1.143   6.538
 8476TIP3    H125369   0.287   1.147   6.632
 8476TIP3    H225370   0.387   1.098   6.530
 8477TIP3   OH225371   7.768   7.746   5.668
 8477TIP3    H125372   7.794   7.775   5.581
 8477TIP3    H225373   7.705   7.811   5.698
 8478TIP3   OH225374   4.366   5.917   0.877
 8478TIP3    H125375   4.418   5.982   0.830
 8478TIP3    H225376   4.275   5.940   0.858
 8479TIP3   OH225377   0.584   1.182   5.394
 8479TIP3    H125378   0.534   1.256   5.360
 8479TIP3    H225379   0.518   1.115   5.411
 8480TIP3   OH225380   6.113   2.996   6.663
 8480TIP3    H125381   6.139   2.991   6.571
 8480TIP3    H225382   6.025   3.033   6.662
 8481TIP3   OH225383   0.629   6.305   3.160
 8481TIP3    H125384   0.617   6.375   3.223
 8481TIP3    H225385   0.722   6.281   3.168
 8482TIP3   OH225386   6.275   6.828   4.979
 8482TIP3    H125387   6.213   6.803   5.047
 8482TIP3    H225388   6.239   6.790   4.899
 8483TIP3   OH225389   2.202   0.975   4.617
 8483TIP3    H125390   2.212   0.928   4.534
 8483TIP3    H225391   2.115   1.013   4.614
 8484TIP3   OH225392   0.285   2.893   2.849
 8484TIP3    H125393   0.246   2.965   2.799
 8484TIP3    H225394   0.250   2.904   2.937
 8485TIP3   OH225395   1.921   0.488   5.248
 8485TIP3    H125396   1.951   0.538   5.324
 8485TIP3    H225397   1.939   0.544   5.173
 8486TIP3   OH225398   0.458   3.591   2.618
 8486TIP3    H125399   0.510   3.646   2.559
 8486TIP3    H225400   0.404   3.653   2.666
 8487TIP3   OH225401   5.341   3.138   3.247
 8487TIP3    H125402   5.307   3.196   3.314
 8487TIP3    H225403   5.336   3.189   3.166
 8488TIP3   OH225404   4.430   7.758   0.909
 8488TIP3    H125405   4.401   7.795   0.992
 8488TIP3    H225406   4.381   7.807   0.842
 8489TIP3   OH225407   2.976   7.545   5.362
 8489TIP3    H125408   2.932   7.481   5.306
 8489TIP3    H225409   2.997   7.617   5.303
 8490TIP3   OH225410   3.042   1.401   3.777
 8490TIP3    H125411   2.991   1.330   3.816
 8490TIP3    H225412   3.009   1.480   3.821
 8491TIP3   OH225413   7.479   0.876   0.140
 8491TIP3    H125414   7.560   0.829   0.119
 8491TIP3    H225415   7.415   0.843   0.078
 8492TIP3   OH225416   4.522   2.275   5.343
 8492TIP3    H125417   4.595   2.291   5.283
 8492TIP3    H225418   4.452   2.332   5.311
 8493TIP3   OH225419   7.811   1.662   5.869
 8493TIP3    H125420   7.878   1.599   5.898
 8493TIP3    H225421   7.759   1.614   5.805
 8494TIP3   OH225422   5.586   5.786   0.656
 8494TIP3    H125423   5.591   5.774   0.751
 8494TIP3    H225424   5.495   5.764   0.634
 8495TIP3   OH225425   0.304   6.960   0.492
 8495TIP3    H125426   0.217   6.935   0.461
 8495TIP3    H225427   0.328   7.036   0.437
 8496TIP3   OH225428   2.533   3.827   1.339
 8496TIP3    H125429   2.526   3.780   1.256
 8496TIP3    H225430   2.447   3.817   1.379
 8497TIP3   OH225431   0.254   0.315   0.868
 8497TIP3    H125432   0.294   0.388   0.820
 8497TIP3    H225433   0.271   0.238   0.814
 8498TIP3   OH225434   3.051   2.640   6.384
 8498TIP3    H125435   3.129   2.611   6.431
 8498TIP3    H225436   3.050   2.588   6.304
 8499TIP3   OH225437   6.942   4.292   4.492
 8499TIP3    H125438   6.940   4.376   4.538
 8499TIP3    H225439   6.875   4.239   4.536
 8500TIP3   OH225440   0.408   6.181   3.302
 8500TIP3    H125441   0.426   6.214   3.390
 8500TIP3    H225442   0.471   6.226   3.246
 8501TIP3   OH225443   5.291   7.382   2.794
 8501TIP3    H125444   5.219   7.381   2.857
 8501TIP3    H225445   5.249   7.397   2.709
 8502TIP3   OH225446   1.777   3.123   5.632
 8502TIP3    H125447   1.778   3.160   5.544
 8502TIP3    H225448   1.834   3.180   5.683
 8503TIP3   OH225449   4.442   7.804   1.336
 8503TIP3    H125450   4.387   7.735   1.373
 8503TIP3    H225451   4.399   7.885   1.361
 8504TIP3   OH225452   2.340   7.156   0.640
 8504TIP3    H125453   2.368   7.075   0.683
 8504TIP3    H225454   2.341   7.221   0.709
 8505TIP3   OH225455   4.243   4.200   2.091
 8505TIP3    H125456   4.181   4.160   2.152
 8505TIP3    H225457   4.280   4.274   2.138
 8506TIP3   OH225458   6.143   7.018   2.911
 8506TIP3    H125459   6.213   6.972   2.957
 8506TIP3    H225460   6.185   7.095   2.873
 8507TIP3   OH225461   7.068   1.172   6.478
 8507TIP3    H125462   7.083   1.167   6.572
 8507TIP3    H225463   7.151   1.146   6.439
 8508TIP3   OH225464   6.383   2.278   5.521
 8508TIP3    H125465   6.411   2.360   5.482
 8508TIP3    H225466   6.305   2.252   5.472
 8509TIP3   OH225467   1.632   3.488   1.882
 8509TIP3    H125468   1.726   3.480   1.869
 8509TIP3    H225469   1.595   3.482   1.794
 8510TIP3   OH225470   0.195   0.433   3.826
 8510TIP3    H125471   0.271   0.432   3.886
 8510TIP3    H225472   0.125   0.392   3.876
 8511TIP3   OH225473   4.626   4.273   0.594
 8511TIP3    H125474   4.652   4.365   0.598
 8511TIP3    H225475   4.668   4.239   0.515
 8512TIP3   OH225476   2.038   0.042   0.592
 8512TIP3    H125477   2.063   0.132   0.617
 8512TIP3    H225478   2.122  -0.004   0.586
 8513TIP3   OH225479   0.784   0.484   2.187
 8513TIP3    H125480   0.854   0.452   2.244
 8513TIP3    H225481   0.753   0.406   2.141
 8514TIP3   OH225482   5.011   4.080   6.395
 8514TIP3    H125483   5.023   4.143   6.324
 8514TIP3    H225484   4.939   4.024   6.366
 8515TIP3   OH225485   6.926   4.760   4.230
 8515TIP3    H125486   6.867   4.779   4.302
 8515TIP3    H225487   6.868   4.737   4.157
 8516TIP3   OH225488   3.297   5.154   3.759
 8516TIP3    H125489   3.347   5.151   3.677
 8516TIP3    H225490   3.347   5.211   3.816
 8517TIP3   OH225491   7.150   6.994   6.715
 8517TIP3    H125492   7.200   7.059   6.764
 8517TIP3    H225493   7.131   6.925   6.780
 8518TIP3   OH225494   8.021   4.626   4.201
 8518TIP3    H125495   8.057   4.549   4.246
 8518TIP3    H225496   7.932   4.634   4.235
 8519TIP3   OH225497   1.763   6.090   1.531
 8519TIP3    H125498   1.725   6.120   1.614
 8519TIP3    H225499   1.781   6.171   1.483
 8520TIP3   OH225500   6.356   7.404   2.571
 8520TIP3    H125501   6.268   7.368   2.579
 8520TIP3    H225502   6.397   7.384   2.655
 8521TIP3   OH225503   2.938   6.859   6.299
 8521TIP3    H125504   2.992   6.829   6.372
 8521TIP3    H225505   2.852   6.875   6.337
 8522TIP3   OH225506   2.690   5.751   0.792
 8522TIP3    H125507   2.769   5.752   0.846
 8522TIP3    H225508   2.624   5.708   0.847
 8523TIP3   OH225509   1.053   4.091   6.538
 8523TIP3    H125510   1.051   4.161   6.473
 8523TIP3    H225511   0.975   4.107   6.591
 8524TIP3   OH225512   0.409   3.790   5.301
 8524TIP3    H125513   0.478   3.782   5.236
 8524TIP3    H225514   0.332   3.750   5.261
 8525TIP3   OH225515   6.021   6.849   4.830
 8525TIP3    H125516   5.947   6.789   4.832
 8525TIP3    H225517   5.984   6.931   4.796
 8526TIP3   OH225518   1.453   0.934   1.511
 8526TIP3    H125519   1.386   0.945   1.443
 8526TIP3    H225520   1.454   1.018   1.557
 8527TIP3   OH225521   7.379   3.011   4.010
 8527TIP3    H125522   7.420   3.056   4.083
 8527TIP3    H225523   7.305   3.066   3.985
 8528TIP3   OH225524   7.537   7.218   2.651
 8528TIP3    H125525   7.482   7.280   2.603
 8528TIP3    H225526   7.498   7.132   2.632
 8529TIP3   OH225527   2.468   3.423   5.363
 8529TIP3    H125528   2.472   3.328   5.356
 8529TIP3    H225529   2.403   3.439   5.432
 8530TIP3   OH225530   5.081   3.787   5.460
 8530TIP3    H125531   5.131   3.840   5.398
 8530TIP3    H225532   4.990   3.799   5.434
 8531TIP3   OH225533   3.465   2.508   0.267
 8531TIP3    H125534   3.414   2.531   0.345
 8531TIP3    H225535   3.399   2.481   0.203
 8532TIP3   OH225536   5.758   2.763   0.591
 8532TIP3    H125537   5.756   2.714   0.673
 8532TIP3    H225538   5.844   2.744   0.554
 8533TIP3   OH225539   6.097   2.457   3.029
 8533TIP3    H125540   6.037   2.383   3.039
 8533TIP3    H225541   6.107   2.466   2.934
 8534TIP3   OH225542   4.132   4.512   4.983
 8534TIP3    H125543   4.114   4.561   5.063
 8534TIP3    H225544   4.227   4.496   4.986
 8535TIP3   OH225545   1.164   1.016   1.763
 8535TIP3    H125546   1.196   0.928   1.778
 8535TIP3    H225547   1.175   1.061   1.846
 8536TIP3   OH225548   1.860   7.115   5.148
 8536TIP3    H125549   1.926   7.136   5.082
 8536TIP3    H225550   1.864   7.189   5.209
 8537TIP3   OH225551   0.615   5.563   0.242
 8537TIP3    H125552   0.702   5.561   0.201
 8537TIP3    H225553   0.566   5.493   0.199
 8538TIP3   OH225554   7.176   1.284   1.519
 8538TIP3    H125555   7.263   1.281   1.479
 8538TIP3    H225556   7.132   1.357   1.475
 8539TIP3   OH225557   4.270   5.049   3.611
 8539TIP3    H125558   4.308   5.117   3.557
 8539TIP3    H225559   4.175   5.058   3.598
 8540TIP3   OH225560   2.293   7.393   4.070
 8540TIP3    H125561   2.256   7.474   4.106
 8540TIP3    H225562   2.278   7.400   3.976
 8541TIP3   OH225563   3.655   3.880   2.466
 8541TIP3    H125564   3.631   3.879   2.558
 8541TIP3    H225565   3.715   3.806   2.456
 8542TIP3   OH225566   5.545   1.658   1.610
 8542TIP3    H125567   5.496   1.720   1.557
 8542TIP3    H225568   5.579   1.710   1.683
 8543TIP3   OH225569   1.021   0.546   3.406
 8543TIP3    H125570   0.974   0.576   3.484
 8543TIP3    H225571   1.034   0.626   3.354
 8544TIP3   OH225572   4.076   2.382   5.959
 8544TIP3    H125573   3.997   2.363   5.909
 8544TIP3    H225574   4.120   2.297   5.967
 8545TIP3   OH225575   4.759   1.357   1.632
 8545TIP3    H125576   4.825   1.305   1.587
 8545TIP3    H225577   4.774   1.340   1.725
 8546TIP3   OH225578   3.741   7.532   4.876
 8546TIP3    H125579   3.647   7.532   4.860
 8546TIP3    H225580   3.780   7.502   4.794
 8547TIP3   OH225581   1.757   0.816   2.707
 8547TIP3    H125582   1.782   0.724   2.714
 8547TIP3    H225583   1.661   0.815   2.710
 8548TIP3   OH225584   3.424   1.625   3.030
 8548TIP3    H125585   3.477   1.561   3.078
 8548TIP3    H225586   3.488   1.676   2.981
 8549TIP3   OH225587   6.802   0.653   6.577
 8549TIP3    H125588   6.889   0.626   6.607
 8549TIP3    H225589   6.787   0.603   6.497
 8550TIP3   OH225590   2.707   5.594   2.501
 8550TIP3    H125591   2.738   5.656   2.567
 8550TIP3    H225592   2.617   5.621   2.482
 8551TIP3   OH225593   4.224   3.118   0.229
 8551TIP3    H125594   4.223   3.022   0.223
 8551TIP3    H225595   4.309   3.143   0.193
 8552TIP3   OH225596   3.363   6.622   4.113
 8552TIP3    H125597   3.403   6.593   4.195
 8552TIP3    H225598   3.331   6.711   4.132
 8553TIP3   OH225599   6.346   7.815   2.082
 8553TIP3    H125600   6.254   7.836   2.063
 8553TIP3    H225601   6.363   7.858   2.165
 8554TIP3   OH225602   1.276   1.816   0.467
 8554TIP3    H125603   1.323   1.858   0.540
 8554TIP3    H225604   1.204   1.876   0.447
 8555TIP3   OH225605   2.037   4.618   6.853
 8555TIP3    H125606   2.022   4.532   6.890
 8555TIP3    H225607   2.084   4.601   6.771
 8556TIP3   OH225608   2.396   2.112   1.255
 8556TIP3    H125609   2.431   2.027   1.228
 8556TIP3    H225610   2.416   2.118   1.348
 8557TIP3   OH225611   6.370   3.820   4.195
 8557TIP3    H125612   6.289   3.863   4.224
 8557TIP3    H225613   6.346   3.728   4.189
 8558TIP3   OH225614   4.106   7.410   5.039
 8558TIP3    H125615   4.178   7.371   5.088
 8558TIP3    H225616   4.038   7.343   5.038
 8559TIP3   OH225617   4.714   5.587   4.243
 8559TIP3    H125618   4.723   5.505   4.291
 8559TIP3    H225619   4.627   5.583   4.204
 8560TIP3   OH225620   0.693   3.093   0.583
 8560TIP3    H125621   0.737   3.086   0.668
 8560TIP3    H225622   0.600   3.079   0.603
 8561TIP3   OH225623   4.213   0.801   6.203
 8561TIP3    H125624   4.136   0.821   6.151
 8561TIP3    H225625   4.178   0.774   6.288
 8562TIP3   OH225626   2.530   2.081   3.824
 8562TIP3    H125627   2.591   2.146   3.790
 8562TIP3    H225628   2.582   2.030   3.887
 8563TIP3   OH225629   4.862   6.530   2.730
 8563TIP3    H125630   4.934   6.585   2.763
 8563TIP3    H225631   4.783   6.575   2.759
 8564TIP3   OH225632   6.811   6.111   5.244
 8564TIP3    H125633   6.903   6.102   5.269
 8564TIP3    H225634   6.763   6.054   5.305
 8565TIP3   OH225635   7.550   2.143   5.502
 8565TIP3    H125636   7.595   2.148   5.418
 8565TIP3    H225637   7.512   2.055   5.505
 8566TIP3   OH225638   5.922   5.582   3.183
 8566TIP3    H125639   5.946   5.609   3.094
 8566TIP3    H225640   5.970   5.501   3.198
 8567TIP3   OH225641   2.421   2.062   2.634
 8567TIP3    H125642   2.486   2.026   2.574
 8567TIP3    H225643   2.468   2.070   2.717
 8568TIP3   OH225644   0.275   3.436   2.470
 8568TIP3    H125645   0.315   3.352   2.493
 8568TIP3    H225646   0.327   3.500   2.519
 8569TIP3   OH225647   1.432   4.427   3.215
 8569TIP3    H125648   1.498   4.391   3.275
 8569TIP3    H225649   1.467   4.408   3.127
 8570TIP3   OH225650   4.222   5.395   3.163
 8570TIP3    H125651   4.305   5.348   3.166
 8570TIP3    H225652   4.246   5.486   3.145
 8571TIP3   OH225653   7.663   6.918   4.262
 8571TIP3    H125654   7.666   6.838   4.208
 8571TIP3    H225655   7.699   6.986   4.205
 8572TIP3   OH225656   0.576   6.826   1.218
 8572TIP3    H125657   0.516   6.760   1.253
 8572TIP3    H225658   0.582   6.806   1.125
 8573TIP3   OH225659   4.734   6.073   6.645
 8573TIP3    H125660   4.827   6.053   6.637
 8573TIP3    H225661   4.698   6.000   6.696
 8574TIP3   OH225662   6.016   3.382   5.814
 8574TIP3    H125663   6.097   3.341   5.843
 8574TIP3    H225664   5.947   3.325   5.848
 8575TIP3   OH225665   3.189   4.085   6.621
 8575TIP3    H125666   3.261   4.148   6.611
 8575TIP3    H225667   3.164   4.092   6.713
 8576TIP3   OH225668   4.636   2.693   2.187
 8576TIP3    H125669   4.589   2.731   2.262
 8576TIP3    H225670   4.648   2.601   2.211
 8577TIP3   OH225671   3.010   1.303   2.555
 8577TIP3    H125672   2.954   1.225   2.557
 8577TIP3    H225673   3.021   1.326   2.648
 8578TIP3   OH225674   4.768   6.029   2.931
 8578TIP3    H125675   4.743   6.047   2.841
 8578TIP3    H225676   4.704   6.076   2.984
 8579TIP3   OH225677   5.666   3.824   4.239
 8579TIP3    H125678   5.712   3.860   4.163
 8579TIP3    H225679   5.734   3.817   4.306
 8580TIP3   OH225680   2.221   3.035   3.455
 8580TIP3    H125681   2.153   2.973   3.483
 8580TIP3    H225682   2.177   3.120   3.457
 8581TIP3   OH225683   4.808   7.259   0.875
 8581TIP3    H125684   4.756   7.209   0.937
 8581TIP3    H225685   4.766   7.243   0.790
 8582TIP3   OH225686   7.570   6.153   0.723
 8582TIP3    H125687   7.548   6.088   0.656
 8582TIP3    H225688   7.488   6.169   0.769
 8583TIP3   OH225689   4.518   2.071   0.099
 8583TIP3    H125690   4.573   2.088   0.175
 8583TIP3    H225691   4.516   1.976   0.091
 8584TIP3   OH225692   3.918   7.638   0.913
 8584TIP3    H125693   3.852   7.683   0.860
 8584TIP3    H225694   3.972   7.591   0.850
 8585TIP3   OH225695   0.729   0.154   4.183
 8585TIP3    H125696   0.823   0.143   4.196
 8585TIP3    H225697   0.721   0.210   4.107
 8586TIP3   OH225698   7.057   7.589   5.979
 8586TIP3    H125699   7.110   7.578   6.058
 8586TIP3    H225700   7.116   7.564   5.908
 8587TIP3   OH225701   3.511   5.719   5.219
 8587TIP3    H125702   3.485   5.632   5.250
 8587TIP3    H225703   3.578   5.701   5.153
 8588TIP3   OH225704   7.851   7.161   6.732
 8588TIP3    H125705   7.888   7.249   6.740
 8588TIP3    H225706   7.814   7.160   6.643
 8589TIP3   OH225707   0.844   3.071   2.809
 8589TIP3    H125708   0.795   3.011   2.865
 8589TIP3    H225709   0.931   3.031   2.801
 8590TIP3   OH225710   0.401   7.931   0.649
 8590TIP3    H125711   0.317   7.937   0.694
 8590TIP3    H225712   0.456   7.877   0.706
 8591TIP3   OH225713   1.090   0.668   1.790
 8591TIP3    H125714   1.117   0.584   1.753
 8591TIP3    H225715   1.039   0.645   1.868
 8592TIP3   OH225716   1.667   0.259   1.601
 8592TIP3    H125717   1.610   0.191   1.637
 8592TIP3    H225718   1.755   0.224   1.612
 8593TIP3   OH225719   1.573   1.518   5.462
 8593TIP3    H125720   1.555   1.425   5.472
 8593TIP3    H225721   1.495   1.562   5.495
 8594TIP3   OH225722   4.151   0.738   4.421
 8594TIP3    H125723   4.186   0.738   4.332
 8594TIP3    H225724   4.227   0.747   4.478
 8595TIP3   OH225725   6.960   4.142   6.142
 8595TIP3    H125726   6.972   4.087   6.219
 8595TIP3    H225727   6.964   4.232   6.176
 8596TIP3   OH225728   8.326   3.110   4.763
 8596TIP3    H125729   8.341   3.198   4.728
 8596TIP3    H225730   8.283   3.124   4.847
 8597TIP3   OH225731   0.762   6.042   3.740
 8597TIP3    H125732   0.691   6.025   3.802
 8597TIP3    H225733   0.758   6.137   3.725
 8598TIP3   OH225734   4.384   1.684   4.211
 8598TIP3    H125735   4.461   1.628   4.210
 8598TIP3    H225736   4.413   1.763   4.256
 8599TIP3   OH225737   4.515   3.613   1.768
 8599TIP3    H125738   4.568   3.607   1.689
 8599TIP3    H225739   4.466   3.695   1.758
 8600TIP3   OH225740   1.548   2.967   2.579
 8600TIP3    H125741   1.610   2.894   2.577
 8600TIP3    H225742   1.593   3.038   2.535
 8601TIP3   OH225743   0.445   0.776   2.556
 8601TIP3    H125744   0.522   0.748   2.604
 8601TIP3    H225745   0.386   0.701   2.560
 8602TIP3   OH225746   8.077   0.783   1.524
 8602TIP3    H125747   8.046   0.733   1.599
 8602TIP3    H225748   8.160   0.822   1.553
 8603TIP3   OH225749   3.376   1.067   1.497
 8603TIP3    H125750   3.299   1.028   1.455
 8603TIP3    H225751   3.397   1.007   1.568
 8604TIP3   OH225752   4.436   6.122   5.533
 8604TIP3    H125753   4.405   6.208   5.504
 8604TIP3    H225754   4.361   6.083   5.578
 8605TIP3   OH225755   7.499   4.506   5.308
 8605TIP3    H125756   7.425   4.481   5.363
 8605TIP3    H225757   7.557   4.430   5.309
 8606TIP3   OH225758   4.969   2.035   0.803
 8606TIP3    H125759   5.048   2.010   0.852
 8606TIP3    H225760   4.898   2.025   0.866
 8607TIP3   OH225761   3.184   2.876   3.979
 8607TIP3    H125762   3.109   2.867   3.919
 8607TIP3    H225763   3.144   2.881   4.066
 8608TIP3   OH225764   5.028   2.262   0.068
 8608TIP3    H125765   4.966   2.213   0.015
 8608TIP3    H225766   5.114   2.235   0.036
 8609TIP3   OH225767   3.988   3.875   1.397
 8609TIP3    H125768   4.070   3.842   1.436
 8609TIP3    H225769   3.979   3.963   1.433
 8610TIP3   OH225770   2.061   7.216   3.208
 8610TIP3    H125771   2.046   7.122   3.216
 8610TIP3    H225772   2.074   7.246   3.298
 8611TIP3   OH225773   7.209   3.698   0.739
 8611TIP3    H125774   7.119   3.704   0.707
 8611TIP3    H225775   7.243   3.787   0.732
 8612TIP3   OH225776   1.215   4.807   5.606
 8612TIP3    H125777   1.285   4.753   5.642
 8612TIP3    H225778   1.141   4.795   5.665
 8613TIP3   OH225779   6.889   0.569   1.482
 8613TIP3    H125780   6.946   0.620   1.541
 8613TIP3    H225781   6.810   0.555   1.533
 8614TIP3   OH225782   2.579   6.101   4.960
 8614TIP3    H125783   2.532   6.072   5.038
 8614TIP3    H225784   2.665   6.127   4.992
 8615TIP3   OH225785   0.732   7.639   5.107
 8615TIP3    H125786   0.660   7.653   5.046
 8615TIP3    H225787   0.807   7.615   5.051
 8616TIP3   OH225788   4.004   5.930   1.634
 8616TIP3    H125789   3.928   5.874   1.623
 8616TIP3    H225790   4.079   5.870   1.628
 8617TIP3   OH225791  -0.040   5.475   0.783
 8617TIP3    H125792   0.018   5.436   0.718
 8617TIP3    H225793  -0.016   5.433   0.865
 8618TIP3   OH225794   1.560   1.261   2.317
 8618TIP3    H125795   1.653   1.279   2.334
 8618TIP3    H225796   1.532   1.333   2.261
 8619TIP3   OH225797   0.260   6.907   4.282
 8619TIP3    H125798   0.322   6.866   4.221
 8619TIP3    H225799   0.174   6.892   4.241
 8620TIP3   OH225800   3.706   5.046   3.151
 8620TIP3    H125801   3.632   5.107   3.150
 8620TIP3    H225802   3.668   4.961   3.127
 8621TIP3   OH225803   7.468   1.706   6.604
 8621TIP3    H125804   7.545   1.689   6.659
 8621TIP3    H225805   7.496   1.775   6.545
 8622TIP3   OH225806   4.345   6.837   5.728
 8622TIP3    H125807   4.260   6.880   5.730
 8622TIP3    H225808   4.388   6.863   5.809
 8623TIP3   OH225809   0.014   4.451   4.222
 8623TIP3    H125810   0.032   4.376   4.166
 8623TIP3    H225811   0.067   4.436   4.300
 8624TIP3   OH225812   0.697   2.898   5.415
 8624TIP3    H125813   0.694   2.807   5.443
 8624TIP3    H225814   0.670   2.896   5.323
 8625TIP3   OH225815   2.458   0.998   3.804
 8625TIP3    H125816   2.452   0.903   3.814
 8625TIP3    H225817   2.444   1.013   3.710
 8626TIP3   OH225818   0.766   1.605   4.863
 8626TIP3    H125819   0.771   1.520   4.820
 8626TIP3    H225820   0.675   1.614   4.891
 8627TIP3   OH225821   6.883   3.202   5.314
 8627TIP3    H125822   6.889   3.268   5.383
 8627TIP3    H225823   6.823   3.136   5.349
 8628TIP3   OH225824   4.603   0.372   3.495
 8628TIP3    H125825   4.613   0.315   3.420
 8628TIP3    H225826   4.693   0.393   3.521
 8629TIP3   OH225827   2.631   7.370   5.884
 8629TIP3    H125828   2.589   7.430   5.946
 8629TIP3    H225829   2.695   7.322   5.937
 8630TIP3   OH225830   2.186   3.841   1.146
 8630TIP3    H125831   2.224   3.889   1.073
 8630TIP3    H225832   2.203   3.896   1.223
 8631TIP3   OH225833   7.304   4.874   0.209
 8631TIP3    H125834   7.236   4.928   0.168
 8631TIP3    H225835   7.383   4.894   0.159
 8632TIP3   OH225836   3.193   1.349   0.318
 8632TIP3    H125837   3.176   1.329   0.225
 8632TIP3    H225838   3.146   1.430   0.334
 8633TIP3   OH225839   4.740   4.665   3.336
 8633TIP3    H125840   4.650   4.685   3.362
 8633TIP3    H225841   4.793   4.689   3.412
 8634TIP3   OH225842   2.712   4.903   6.272
 8634TIP3    H125843   2.636   4.961   6.263
 8634TIP3    H225844   2.675   4.815   6.267
 8635TIP3   OH225845   0.731   7.341   4.592
 8635TIP3    H125846   0.775   7.411   4.640
 8635TIP3    H225847   0.648   7.379   4.563
 8636TIP3   OH225848   7.714   3.512   5.179
 8636TIP3    H125849   7.680   3.480   5.262
 8636TIP3    H225850   7.655   3.583   5.154
 8637TIP3   OH225851   0.300   7.750   1.493
 8637TIP3    H125852   0.332   7.689   1.426
 8637TIP3    H225853   0.207   7.763   1.471
 8638TIP3   OH225854   6.694   1.431   3.322
 8638TIP3    H125855   6.770   1.391   3.280
 8638TIP3    H225856   6.730   1.485   3.392
 8639TIP3   OH225857   6.363   5.525   5.212
 8639TIP3    H125858   6.451   5.486   5.208
 8639TIP3    H225859   6.334   5.527   5.121
 8640TIP3   OH225860   7.306   6.450   2.786
 8640TIP3    H125861   7.343   6.509   2.720
 8640TIP3    H225862   7.214   6.442   2.762
 8641TIP3   OH225863   1.290   3.257   2.808
 8641TIP3    H125864   1.360   3.310   2.844
 8641TIP3    H225865   1.313   3.247   2.716
 8642TIP3   OH225866   6.998   7.627   0.951
 8642TIP3    H125867   7.086   7.602   0.923
 8642TIP3    H225868   6.992   7.595   1.041
 8643TIP3   OH225869   2.676   2.083   2.498
 8643TIP3    H125870   2.721   1.999   2.485
 8643TIP3    H225871   2.745   2.148   2.488
 8644TIP3   OH225872   3.401   2.090   2.842
 8644TIP3    H125873   3.368   2.087   2.752
 8644TIP3    H225874   3.346   2.026   2.889
 8645TIP3   OH225875   2.311   1.993   3.701
 8645TIP3    H125876   2.395   2.000   3.746
 8645TIP3    H225877   2.309   2.070   3.643
 8646TIP3   OH225878   7.355   0.805   1.806
 8646TIP3    H125879   7.332   0.862   1.733
 8646TIP3    H225880   7.330   0.854   1.884
 8647TIP3   OH225881   5.777   4.162   2.730
 8647TIP3    H125882   5.759   4.173   2.824
 8647TIP3    H225883   5.710   4.215   2.687
 8648TIP3   OH225884   4.130   6.425   4.699
 8648TIP3    H125885   4.153   6.333   4.713
 8648TIP3    H225886   4.151   6.467   4.783
 8649TIP3   OH225887   3.206   0.513   5.811
 8649TIP3    H125888   3.116   0.546   5.812
 8649TIP3    H225889   3.259   0.589   5.790
 8650TIP3   OH225890   0.824   0.568   3.967
 8650TIP3    H125891   0.882   0.619   4.023
 8650TIP3    H225892   0.795   0.629   3.899
 8651TIP3   OH225893   2.266   1.585   1.060
 8651TIP3    H125894   2.186   1.628   1.029
 8651TIP3    H225895   2.235   1.506   1.105
 8652TIP3   OH225896   7.662   3.205   3.600
 8652TIP3    H125897   7.577   3.246   3.616
 8652TIP3    H225898   7.671   3.141   3.671
 8653TIP3   OH225899   0.177   3.404   6.050
 8653TIP3    H125900   0.211   3.334   6.106
 8653TIP3    H225901   0.223   3.483   6.080
 8654TIP3   OH225902   3.955   3.156   1.967
 8654TIP3    H125903   3.939   3.219   2.038
 8654TIP3    H225904   3.983   3.210   1.893
 8655TIP3   OH225905   0.576   5.910   5.371
 8655TIP3    H125906   0.512   5.844   5.394
 8655TIP3    H225907   0.587   5.962   5.451
 8656TIP3   OH225908   7.412   7.545   6.168
 8656TIP3    H125909   7.369   7.575   6.248
 8656TIP3    H225910   7.429   7.625   6.118
 8657TIP3   OH225911   4.692   3.397   2.482
 8657TIP3    H125912   4.704   3.385   2.388
 8657TIP3    H225913   4.780   3.410   2.516
 8658TIP3   OH225914   7.290   3.746   6.328
 8658TIP3    H125915   7.277   3.672   6.387
 8658TIP3    H225916   7.281   3.709   6.240
 8659TIP3   OH225917   3.564   0.984   6.169
 8659TIP3    H125918   3.552   0.915   6.103
 8659TIP3    H225919   3.658   0.998   6.171
 8660TIP3   OH225920   2.833   5.955   0.084
 8660TIP3    H125921   2.915   5.906   0.086
 8660TIP3    H225922   2.791   5.933   0.167
 8661TIP3   OH225923   1.749   3.156   2.812
 8661TIP3    H125924   1.820   3.210   2.778
 8661TIP3    H225925   1.786   3.068   2.818
 8662TIP3   OH225926   5.935   1.183   6.759
 8662TIP3    H125927   5.871   1.169   6.689
 8662TIP3    H225928   5.925   1.276   6.782
 8663TIP3   OH225929   7.355   0.772   3.326
 8663TIP3    H125930   7.411   0.699   3.302
 8663TIP3    H225931   7.359   0.831   3.251
 8664TIP3   OH225932   2.824   2.141   6.307
 8664TIP3    H125933   2.828   2.062   6.359
 8664TIP3    H225934   2.790   2.113   6.222
 8665TIP3   OH225935   4.935   3.669   1.932
 8665TIP3    H125936   4.874   3.688   1.861
 8665TIP3    H225937   4.993   3.745   1.935
 8666TIP3   OH225938   0.284   6.820   2.766
 8666TIP3    H125939   0.211   6.771   2.729
 8666TIP3    H225940   0.259   6.911   2.758
 8667TIP3   OH225941   2.422   3.287   0.401
 8667TIP3    H125942   2.465   3.277   0.316
 8667TIP3    H225943   2.459   3.368   0.437
 8668TIP3   OH225944   0.204   2.070   4.429
 8668TIP3    H125945   0.132   2.018   4.394
 8668TIP3    H225946   0.181   2.085   4.520
 8669TIP3   OH225947   5.985   3.178   1.720
 8669TIP3    H125948   5.924   3.106   1.736
 8669TIP3    H225949   6.011   3.207   1.807
 8670TIP3   OH225950   2.779   5.460   0.528
 8670TIP3    H125951   2.823   5.401   0.589
 8670TIP3    H225952   2.742   5.528   0.583
 8671TIP3   OH225953   7.673   1.404   5.049
 8671TIP3    H125954   7.617   1.396   5.126
 8671TIP3    H225955   7.761   1.417   5.083
 8672TIP3   OH225956   4.125   6.810   0.007
 8672TIP3    H125957   4.217   6.792   0.021
 8672TIP3    H225958   4.101   6.872   0.075
 8673TIP3   OH225959   1.086   5.497   4.060
 8673TIP3    H125960   1.123   5.454   4.137
 8673TIP3    H225961   1.136   5.578   4.052
 8674TIP3   OH225962   5.844   0.929   1.097
 8674TIP3    H125963   5.761   0.929   1.145
 8674TIP3    H225964   5.862   0.837   1.079
 8675TIP3   OH225965   5.822   7.617   3.829
 8675TIP3    H125966   5.756   7.612   3.761
 8675TIP3    H225967   5.825   7.529   3.866
 8676TIP3   OH225968   4.269   7.820   0.511
 8676TIP3    H125969   4.355   7.823   0.553
 8676TIP3    H225970   4.252   7.911   0.485
 8677TIP3   OH225971   1.896   4.747   5.310
 8677TIP3    H125972   1.868   4.726   5.399
 8677TIP3    H225973   1.986   4.778   5.320
 8678TIP3   OH225974   3.361  -0.017   2.863
 8678TIP3    H125975   3.402   0.054   2.912
 8678TIP3    H225976   3.304  -0.061   2.927
 8679TIP3   OH225977   1.274   1.098   1.005
 8679TIP3    H125978   1.264   1.076   0.912
 8679TIP3    H225979   1.368   1.109   1.016
 8680TIP3   OH225980   7.081   1.761   0.213
 8680TIP3    H125981   7.110   1.715   0.292
 8680TIP3    H225982   6.985   1.758   0.218
 8681TIP3   OH225983   6.664   1.015   4.819
 8681TIP3    H125984   6.664   1.069   4.898
 8681TIP3    H225985   6.650   1.076   4.747
 8682TIP3   OH225986   7.704   6.316   2.456
 8682TIP3    H125987   7.625   6.286   2.501
 8682TIP3    H225988   7.765   6.243   2.463
 8683TIP3   OH225989   5.650   7.696   2.398
 8683TIP3    H125990   5.680   7.654   2.478
 8683TIP3    H225991   5.698   7.651   2.328
 8684TIP3   OH225992   7.640   1.628   2.827
 8684TIP3    H125993   7.652   1.611   2.920
 8684TIP3    H225994   7.583   1.704   2.823
 8685TIP3   OH225995   7.659   3.626   2.960
 8685TIP3    H125996   7.722   3.677   2.910
 8685TIP3    H225997   7.690   3.536   2.954
 8686TIP3   OH225998   7.266   3.516   2.232
 8686TIP3    H125999   7.207   3.476   2.296
 8686TIP3    H226000   7.209   3.543   2.160
 8687TIP3   OH226001   3.309   4.587   2.846
 8687TIP3    H126002   3.349   4.517   2.794
 8687TIP3    H226003   3.229   4.610   2.798
 8688TIP3   OH226004   6.423   0.711   5.081
 8688TIP3    H126005   6.477   0.743   5.153
 8688TIP3    H226006   6.347   0.671   5.124
 8689TIP3   OH226007   6.375   6.726   5.451
 8689TIP3    H126008   6.391   6.805   5.503
 8689TIP3    H226009   6.426   6.739   5.371
 8690TIP3   OH226010   5.381   7.428   1.716
 8690TIP3    H126011   5.364   7.396   1.627
 8690TIP3    H226012   5.462   7.479   1.707
 8691TIP3   OH226013   3.919   4.648   1.235
 8691TIP3    H126014   3.907   4.653   1.140
 8691TIP3    H226015   3.853   4.586   1.265
 8692TIP3   OH226016   2.597   3.222   3.751
 8692TIP3    H126017   2.610   3.314   3.774
 8692TIP3    H226018   2.608   3.175   3.834
 8693TIP3   OH226019   5.804   4.920   0.960
 8693TIP3    H126020   5.895   4.892   0.966
 8693TIP3    H226021   5.757   4.862   1.020
 8694TIP3   OH226022   3.587   2.976   0.273
 8694TIP3    H126023   3.602   2.913   0.203
 8694TIP3    H226024   3.494   2.968   0.294
 8695TIP3   OH226025   5.249   7.528   4.302
 8695TIP3    H126026   5.253   7.435   4.322
 8695TIP3    H226027   5.236   7.532   4.207
 8696TIP3   OH226028   6.407   5.350   0.697
 8696TIP3    H126029   6.419   5.445   0.701
 8696TIP3    H226030   6.365   5.327   0.780
 8697TIP3   OH226031   4.620   0.778   2.672
 8697TIP3    H126032   4.659   0.711   2.616
 8697TIP3    H226033   4.670   0.857   2.654
 8698TIP3   OH226034   2.049   3.418   5.428
 8698TIP3    H126035   2.005   3.334   5.419
 8698TIP3    H226036   2.042   3.438   5.522
 8699TIP3   OH226037   4.430   0.206   2.304
 8699TIP3    H126038   4.524   0.221   2.318
 8699TIP3    H226039   4.412   0.125   2.350
 8700TIP3   OH226040   2.627   2.583   0.604
 8700TIP3    H126041   2.609   2.670   0.640
 8700TIP3    H226042   2.647   2.600   0.512
 8701TIP3   OH226043   7.988   3.621   1.474
 8701TIP3    H126044   8.010   3.542   1.523
 8701TIP3    H226045   7.894   3.611   1.455
 8702TIP3   OH226046   4.630   1.068   3.451
 8702TIP3    H126047   4.719   1.043   3.475
 8702TIP3    H226048   4.640   1.150   3.403
 8703TIP3   OH226049   5.912   1.716   4.731
 8703TIP3    H126050   5.968   1.638   4.733
 8703TIP3    H226051   5.919   1.749   4.642
 8704TIP3   OH226052   6.056   3.305   0.602
 8704TIP3    H126053   6.147   3.287   0.578
 8704TIP3    H226054   6.059   3.320   0.696
 8705TIP3   OH226055   0.624   4.987   0.591
 8705TIP3    H126056   0.628   4.937   0.510
 8705TIP3    H226057   0.706   5.035   0.595
 8706TIP3   OH226058   7.874   2.042   1.435
 8706TIP3    H126059   7.891   2.127   1.393
 8706TIP3    H226060   7.824   2.065   1.514
 8707TIP3   OH226061   8.116   5.902   5.155
 8707TIP3    H126062   8.154   5.816   5.167
 8707TIP3    H226063   8.185   5.955   5.116
 8708TIP3   OH226064   7.298   2.743   3.288
 8708TIP3    H126065   7.259   2.822   3.325
 8708TIP3    H226066   7.234   2.711   3.225
 8709TIP3   OH226067   3.590   2.673   6.582
 8709TIP3    H126068   3.517   2.624   6.544
 8709TIP3    H226069   3.658   2.608   6.596
 8710TIP3   OH226070   1.741   2.771   2.571
 8710TIP3    H126071   1.797   2.706   2.529
 8710TIP3    H226072   1.691   2.721   2.635
 8711TIP3   OH226073   1.705   2.776   3.440
 8711TIP3    H126074   1.696   2.795   3.347
 8711TIP3    H226075   1.616   2.784   3.474
 8712TIP3   OH226076   0.893   0.989   3.290
 8712TIP3    H126077   0.978   0.977   3.332
 8712TIP3    H226078   0.901   1.071   3.242
 8713TIP3   OH226079   6.567   3.037   5.596
 8713TIP3    H126080   6.601   3.102   5.534
 8713TIP3    H226081   6.645   2.992   5.628
 8714TIP3   OH226082   7.607   2.022  -0.010
 8714TIP3    H126083   7.604   2.012   0.085
 8714TIP3    H226084   7.635   1.937  -0.043
 8715TIP3   OH226085   4.433   2.458   4.076
 8715TIP3    H126086   4.414   2.419   4.161
 8715TIP3    H226087   4.527   2.476   4.078
 8716TIP3   OH226088   3.588   2.187   3.228
 8716TIP3    H126089   3.499   2.221   3.220
 8716TIP3    H226090   3.642   2.265   3.241
 8717TIP3   OH226091   4.093   1.026   0.087
 8717TIP3    H126092   4.164   1.074   0.045
 8717TIP3    H226093   4.132   0.987   0.165
 8718TIP3   OH226094   0.681   5.890   6.443
 8718TIP3    H126095   0.719   5.971   6.407
 8718TIP3    H226096   0.615   5.920   6.505
 8719TIP3   OH226097   6.164   0.032   0.989
 8719TIP3    H126098   6.146  -0.043   0.932
 8719TIP3    H226099   6.098   0.097   0.965
 8720TIP3   OH226100   5.795   5.579   0.402
 8720TIP3    H126101   5.846   5.602   0.480
 8720TIP3    H226102   5.837   5.626   0.330
 8721TIP3   OH226103   7.041   3.007   6.378
 8721TIP3    H126104   7.090   3.054   6.311
 8721TIP3    H226105   6.997   2.937   6.331
 8722TIP3   OH226106   2.612   4.874   1.722
 8722TIP3    H126107   2.698   4.877   1.680
 8722TIP3    H226108   2.553   4.914   1.658
 8723TIP3   OH226109   5.990   0.510   0.539
 8723TIP3    H126110   6.073   0.553   0.519
 8723TIP3    H226111   5.929   0.582   0.554
 8724TIP3   OH226112   1.906   4.678   6.343
 8724TIP3    H126113   1.984   4.656   6.291
 8724TIP3    H226114   1.865   4.749   6.294
 8725TIP3   OH226115   3.046   0.956   5.419
 8725TIP3    H126116   3.072   0.978   5.330
 8725TIP3    H226117   3.073   0.865   5.431
 8726TIP3   OH226118   3.405   1.748   5.627
 8726TIP3    H126119   3.354   1.698   5.565
 8726TIP3    H226120   3.493   1.710   5.622
 8727TIP3   OH226121   3.655   5.004   3.858
 8727TIP3    H126122   3.646   4.960   3.774
 8727TIP3    H226123   3.670   4.934   3.921
 8728TIP3   OH226124   3.492   1.226   0.752
 8728TIP3    H126125   3.447   1.183   0.824
 8728TIP3    H226126   3.557   1.282   0.794
 8729TIP3   OH226127   7.903   4.098   5.166
 8729TIP3    H126128   7.939   4.055   5.244
 8729TIP3    H226129   7.964   4.169   5.147
 8730TIP3   OH226130   4.110   6.723   0.555
 8730TIP3    H126131   4.083   6.757   0.470
 8730TIP3    H226132   4.086   6.792   0.617
 8731TIP3   OH226133   5.336   3.683   5.955
 8731TIP3    H126134   5.431   3.683   5.963
 8731TIP3    H226135   5.310   3.770   5.984
 8732TIP3   OH226136   8.121   2.014   1.559
 8732TIP3    H126137   8.163   2.098   1.541
 8732TIP3    H226138   8.035   2.022   1.519
 8733TIP3   OH226139   3.478   4.053   0.626
 8733TIP3    H126140   3.544   3.992   0.659
 8733TIP3    H226141   3.411   4.056   0.693
 8734TIP3   OH226142   2.794   5.263   6.150
 8734TIP3    H126143   2.738   5.274   6.227
 8734TIP3    H226144   2.785   5.345   6.102
 8735TIP3   OH226145   5.356   6.078   6.334
 8735TIP3    H126146   5.409   6.087   6.414
 8735TIP3    H226147   5.411   6.115   6.265
 8736TIP3   OH226148   4.418   1.662   3.473
 8736TIP3    H126149   4.371   1.581   3.493
 8736TIP3    H226150   4.405   1.717   3.550
 8737TIP3   OH226151   0.970   6.336   4.885
 8737TIP3    H126152   0.944   6.316   4.975
 8737TIP3    H226153   1.062   6.360   4.892
 8738TIP3   OH226154   3.760   4.074   5.979
 8738TIP3    H126155   3.836   4.018   5.966
 8738TIP3    H226156   3.685   4.020   5.953
 8739TIP3   OH226157   8.230   7.904   0.431
 8739TIP3    H126158   8.161   7.929   0.370
 8739TIP3    H226159   8.251   7.813   0.409
 8740TIP3   OH226160   3.161   0.213   2.471
 8740TIP3    H126161   3.208   0.134   2.498
 8740TIP3    H226162   3.107   0.184   2.397
 8741TIP3   OH226163   5.017   2.074   0.531
 8741TIP3    H126164   4.995   2.074   0.625
 8741TIP3    H226165   4.934   2.053   0.488
 8742TIP3   OH226166   4.245   3.832   5.906
 8742TIP3    H126167   4.319   3.826   5.846
 8742TIP3    H226168   4.263   3.766   5.973
 8743TIP3   OH226169   4.862   2.815   2.533
 8743TIP3    H126170   4.893   2.887   2.588
 8743TIP3    H226171   4.787   2.779   2.580
 8744TIP3   OH226172   2.860   0.267   1.409
 8744TIP3    H126173   2.882   0.328   1.479
 8744TIP3    H226174   2.936   0.268   1.351
 8745TIP3   OH226175   2.966   2.259   5.381
 8745TIP3    H126176   2.909   2.185   5.364
 8745TIP3    H226177   3.051   2.233   5.344
 8746TIP3   OH226178   8.178   2.426   1.270
 8746TIP3    H126179   8.161   2.517   1.290
 8746TIP3    H226180   8.239   2.429   1.196
 8747TIP3   OH226181   3.944   7.295   4.353
 8747TIP3    H126182   3.990   7.377   4.374
 8747TIP3    H226183   3.868   7.295   4.411
 8748TIP3   OH226184   1.919   1.839   3.677
 8748TIP3    H126185   1.898   1.914   3.733
 8748TIP3    H226186   1.838   1.823   3.627
 8749TIP3   OH226187   3.678   2.785   0.572
 8749TIP3    H126188   3.657   2.874   0.544
 8749TIP3    H226189   3.635   2.775   0.657
 8750TIP3   OH226190   2.350   5.010   0.173
 8750TIP3    H126191   2.337   4.955   0.251
 8750TIP3    H226192   2.276   4.989   0.117
 8751TIP3   OH226193   6.592   0.915   1.845
 8751TIP3    H126194   6.630   1.000   1.823
 8751TIP3    H226195   6.590   0.914   1.941
 8752TIP3   OH226196   3.086   5.757   1.324
 8752TIP3    H126197   3.149   5.816   1.284
 8752TIP3    H226198   3.099   5.674   1.278
 8753TIP3   OH226199   1.641   1.341   6.897
 8753TIP3    H126200   1.574   1.276   6.920
 8753TIP3    H226201   1.638   1.346   6.802
 8754TIP3   OH226202   4.840   4.413   5.658
 8754TIP3    H126203   4.881   4.491   5.620
 8754TIP3    H226204   4.850   4.425   5.752
 8755TIP3   OH226205   2.224   4.109   6.576
 8755TIP3    H126206   2.230   4.176   6.508
 8755TIP3    H226207   2.242   4.157   6.658
 8756TIP3   OH226208   0.984   2.320   0.846
 8756TIP3    H126209   0.940   2.281   0.921
 8756TIP3    H226210   1.009   2.244   0.792
 8757TIP3   OH226211   6.327   2.322   6.143
 8757TIP3    H126212   6.350   2.410   6.171
 8757TIP3    H226213   6.401   2.293   6.089
 8758TIP3   OH226214   0.820   2.711   2.423
 8758TIP3    H126215   0.863   2.779   2.474
 8758TIP3    H226216   0.876   2.634   2.433
 8759TIP3   OH226217   7.757   2.279   2.591
 8759TIP3    H126218   7.782   2.252   2.503
 8759TIP3    H226219   7.662   2.273   2.593
 8760TIP3   OH226220   6.397   5.640   2.023
 8760TIP3    H126221   6.429   5.688   2.099
 8760TIP3    H226222   6.311   5.677   2.006
 8761TIP3   OH226223   2.472   5.354   5.109
 8761TIP3    H126224   2.387   5.341   5.153
 8761TIP3    H226225   2.467   5.443   5.073
 8762TIP3   OH226226   5.236   5.216   2.743
 8762TIP3    H126227   5.198   5.303   2.757
 8762TIP3    H226228   5.233   5.204   2.648
 8763TIP3   OH226229   8.332   1.178   6.742
 8763TIP3    H126230   8.318   1.118   6.668
 8763TIP3    H226231   8.243   1.201   6.770
 8764TIP3   OH226232   2.222   5.350   5.327
 8764TIP3    H126233   2.275   5.421   5.364
 8764TIP3    H226234   2.228   5.280   5.391
 8765TIP3   OH226235   0.568   0.796   5.644
 8765TIP3    H126236   0.562   0.836   5.731
 8765TIP3    H226237   0.485   0.817   5.602
 8766TIP3   OH226238   5.419   1.271   3.484
 8766TIP3    H126239   5.373   1.219   3.550
 8766TIP3    H226240   5.480   1.325   3.535
 8767TIP3   OH226241   8.382   1.701   3.624
 8767TIP3    H126242   8.330   1.668   3.698
 8767TIP3    H226243   8.356   1.645   3.551
 8768TIP3   OH226244   6.736   5.943   2.075
 8768TIP3    H126245   6.661   5.893   2.043
 8768TIP3    H226246   6.811   5.902   2.033
 8769TIP3   OH226247   5.728   5.160   0.806
 8769TIP3    H126248   5.810   5.199   0.836
 8769TIP3    H226249   5.739   5.066   0.822
 8770TIP3   OH226250   2.948   0.741   4.815
 8770TIP3    H126251   3.029   0.784   4.842
 8770TIP3    H226252   2.934   0.772   4.725
 8771TIP3   OH226253   2.146   1.879   1.151
 8771TIP3    H126254   2.166   1.969   1.124
 8771TIP3    H226255   2.229   1.846   1.185
 8772TIP3   OH226256   3.207   1.894   0.502
 8772TIP3    H126257   3.283   1.909   0.558
 8772TIP3    H226258   3.220   1.952   0.427
 8773TIP3   OH226259   2.028   6.615   0.710
 8773TIP3    H126260   1.986   6.700   0.694
 8773TIP3    H226261   2.122   6.633   0.704
 8774TIP3   OH226262   7.418   5.006   3.895
 8774TIP3    H126263   7.329   5.032   3.874
 8774TIP3    H226264   7.473   5.075   3.859
 8775TIP3   OH226265   2.242   5.797   5.842
 8775TIP3    H126266   2.289   5.880   5.849
 8775TIP3    H226267   2.165   5.818   5.789
 8776TIP3   OH226268   5.758   1.842   4.269
 8776TIP3    H126269   5.831   1.806   4.320
 8776TIP3    H226270   5.783   1.933   4.252
 8777TIP3   OH226271   3.038   2.082   1.615
 8777TIP3    H126272   3.108   2.043   1.668
 8777TIP3    H226273   2.968   2.102   1.677
 8778TIP3   OH226274   0.161   4.469   3.272
 8778TIP3    H126275   0.227   4.414   3.314
 8778TIP3    H226276   0.153   4.545   3.331
 8779TIP3   OH226277   2.155   2.036   2.721
 8779TIP3    H126278   2.245   2.060   2.698
 8779TIP3    H226279   2.144   1.949   2.685
 8780TIP3   OH226280   3.370   5.865   2.857
 8780TIP3    H126281   3.381   5.853   2.763
 8780TIP3    H226282   3.283   5.903   2.867
 8781TIP3   OH226283   6.051   5.332   3.051
 8781TIP3    H126284   6.080   5.244   3.029
 8781TIP3    H226285   6.056   5.336   3.146
 8782TIP3   OH226286   2.392   1.057   0.225
 8782TIP3    H126287   2.368   1.084   0.313
 8782TIP3    H226288   2.416   0.965   0.233
 8783TIP3   OH226289   2.711   3.151   6.078
 8783TIP3    H126290   2.770   3.204   6.025
 8783TIP3    H226291   2.752   3.065   6.080
 8784TIP3   OH226292   5.551   1.737   5.371
 8784TIP3    H126293   5.598   1.655   5.385
 8784TIP3    H226294   5.605   1.785   5.308
 8785TIP3   OH226295   2.734   5.776   1.442
 8785TIP3    H126296   2.725   5.701   1.383
 8785TIP3    H226297   2.679   5.844   1.403
 8786TIP3   OH226298   2.744   2.456   2.647
 8786TIP3    H126299   2.674   2.399   2.678
 8786TIP3    H226300   2.776   2.414   2.567
 8787TIP3   OH226301   0.389   2.769   4.507
 8787TIP3    H126302   0.349   2.769   4.594
 8787TIP3    H226303   0.394   2.676   4.483
 8788TIP3   OH226304   6.812   0.180   5.965
 8788TIP3    H126305   6.891   0.221   5.999
 8788TIP3    H226306   6.833   0.087   5.960
 8789TIP3   OH226307   2.765   6.758   0.893
 8789TIP3    H126308   2.778   6.834   0.836
 8789TIP3    H226309   2.672   6.760   0.915
 8790TIP3   OH226310   6.167   0.475   5.838
 8790TIP3    H126311   6.185   0.511   5.925
 8790TIP3    H226312   6.124   0.391   5.855
 8791TIP3   OH226313   0.451   4.460   6.806
 8791TIP3    H126314   0.536   4.420   6.820
 8791TIP3    H226315   0.449   4.480   6.712
 8792TIP3   OH226316   0.973   5.386   4.789
 8792TIP3    H126317   1.038   5.320   4.763
 8792TIP3    H226318   0.899   5.335   4.822
 8793TIP3   OH226319   2.156   5.385   1.563
 8793TIP3    H126320   2.194   5.389   1.650
 8793TIP3    H226321   2.063   5.396   1.576
 8794TIP3   OH226322   0.696   1.703   0.743
 8794TIP3    H126323   0.663   1.636   0.804
 8794TIP3    H226324   0.729   1.653   0.668
 8795TIP3   OH226325   3.268   4.842   1.477
 8795TIP3    H126326   3.204   4.805   1.416
 8795TIP3    H226327   3.351   4.835   1.431
 8796TIP3   OH226328   0.808   5.844   4.801
 8796TIP3    H126329   0.847   5.777   4.744
 8796TIP3    H226330   0.880   5.875   4.856
 8797TIP3   OH226331   8.189   2.577   0.236
 8797TIP3    H126332   8.130   2.652   0.251
 8797TIP3    H226333   8.162   2.512   0.301
 8798TIP3   OH226334   6.669   2.383   6.821
 8798TIP3    H126335   6.670   2.437   6.900
 8798TIP3    H226336   6.639   2.442   6.752
 8799TIP3   OH226337   4.446   5.228   3.806
 8799TIP3    H126338   4.471   5.140   3.833
 8799TIP3    H226339   4.468   5.232   3.713
 8800TIP3   OH226340   2.490   6.959   1.522
 8800TIP3    H126341   2.560   7.018   1.494
 8800TIP3    H226342   2.409   7.008   1.504
 8801TIP3   OH226343   6.501   6.741   4.084
 8801TIP3    H126344   6.509   6.709   3.994
 8801TIP3    H226345   6.528   6.833   4.079
 8802TIP3   OH226346   7.733   0.513   0.731
 8802TIP3    H126347   7.732   0.607   0.716
 8802TIP3    H226348   7.724   0.475   0.643
 8803TIP3   OH226349   1.719   0.030   4.283
 8803TIP3    H126350   1.794   0.083   4.255
 8803TIP3    H226351   1.665   0.021   4.205
 8804TIP3   OH226352   2.611   0.706   2.426
 8804TIP3    H126353   2.555   0.638   2.389
 8804TIP3    H226354   2.698   0.665   2.430
 8805TIP3   OH226355   7.980   4.097   5.419
 8805TIP3    H126356   8.072   4.097   5.445
 8805TIP3    H226357   7.949   4.184   5.444
 8806TIP3   OH226358   5.538   5.080   4.980
 8806TIP3    H126359   5.527   5.172   4.956
 8806TIP3    H226360   5.534   5.033   4.896
 8807TIP3   OH226361   8.050   3.153   3.142
 8807TIP3    H126362   7.977   3.215   3.154
 8807TIP3    H226363   8.128   3.204   3.162
 8808TIP3   OH226364   2.110   0.945   2.034
 8808TIP3    H126365   2.185   0.963   2.091
 8808TIP3    H226366   2.115   1.012   1.966
 8809TIP3   OH226367   5.122   2.227   1.032
 8809TIP3    H126368   5.202   2.174   1.033
 8809TIP3    H226369   5.052   2.164   1.043
 8810TIP3   OH226370   0.241   7.315   0.143
 8810TIP3    H126371   0.299   7.379   0.102
 8810TIP3    H226372   0.156   7.359   0.147
 8811TIP3   OH226373   5.838   5.898   5.817
 8811TIP3    H126374   5.930   5.873   5.821
 8811TIP3    H226375   5.810   5.903   5.908
 8812TIP3   OH226376   2.423   2.598   0.859
 8812TIP3    H126377   2.438   2.676   0.805
 8812TIP3    H226378   2.334   2.570   0.836
 8813TIP3   OH226379   5.945   4.983   1.314
 8813TIP3    H126380   5.918   5.054   1.373
 8813TIP3    H226381   5.874   4.919   1.320
 8814TIP3   OH226382   1.742   3.136   0.633
 8814TIP3    H126383   1.800   3.151   0.558
 8814TIP3    H226384   1.669   3.196   0.619
 8815TIP3   OH226385   1.125   7.741   4.094
 8815TIP3    H126386   1.038   7.731   4.055
 8815TIP3    H226387   1.123   7.828   4.135
 8816TIP3   OH226388   2.968   1.310   6.465
 8816TIP3    H126389   2.997   1.312   6.556
 8816TIP3    H226390   2.956   1.402   6.441
 8817TIP3   OH226391   2.342   6.678   2.661
 8817TIP3    H126392   2.368   6.760   2.619
 8817TIP3    H226393   2.388   6.679   2.746
 8818TIP3   OH226394   0.873   6.802   4.584
 8818TIP3    H126395   0.921   6.813   4.666
 8818TIP3    H226396   0.818   6.726   4.598
 8819TIP3   OH226397   1.096   2.335   6.166
 8819TIP3    H126398   1.068   2.271   6.231
 8819TIP3    H226399   1.028   2.331   6.098
 8820TIP3   OH226400   2.752   5.141   4.253
 8820TIP3    H126401   2.835   5.187   4.268
 8820TIP3    H226402   2.754   5.068   4.316
 8821TIP3   OH226403   3.121   6.184   5.981
 8821TIP3    H126404   3.197   6.237   5.958
 8821TIP3    H226405   3.133   6.163   6.073
 8822TIP3   OH226406   5.819   4.919   2.422
 8822TIP3    H126407   5.824   4.933   2.327
 8822TIP3    H226408   5.855   4.832   2.435
 8823TIP3   OH226409   8.083   0.078   0.679
 8823TIP3    H126410   7.988   0.082   0.676
 8823TIP3    H226411   8.106  -0.003   0.634
 8824TIP3   OH226412   2.514   7.843   0.153
 8824TIP3    H126413   2.465   7.828   0.072
 8824TIP3    H226414   2.502   7.936   0.171
 8825TIP3   OH226415   1.171   7.533   1.140
 8825TIP3    H126416   1.217   7.477   1.202
 8825TIP3    H226417   1.163   7.617   1.185
 8826TIP3   OH226418   1.738   2.926   6.333
 8826TIP3    H126419   1.723   3.011   6.375
 8826TIP3    H226420   1.819   2.893   6.372
 8827TIP3   OH226421   5.544   6.815   6.494
 8827TIP3    H126422   5.506   6.854   6.572
 8827TIP3    H226423   5.477   6.827   6.427
 8828TIP3   OH226424   6.233   5.709   0.856
 8828TIP3    H126425   6.233   5.658   0.775
 8828TIP3    H226426   6.325   5.730   0.871
 8829TIP3   OH226427   5.268   2.103   2.834
 8829TIP3    H126428   5.176   2.130   2.839
 8829TIP3    H226429   5.312   2.155   2.902
 8830TIP3   OH226430   7.537   0.484   3.821
 8830TIP3    H126431   7.448   0.453   3.804
 8830TIP3    H226432   7.559   0.538   3.745
 8831TIP3   OH226433   0.250   3.709   0.835
 8831TIP3    H126434   0.338   3.700   0.872
 8831TIP3    H226435   0.211   3.781   0.885
 8832TIP3   OH226436   6.448   4.842   6.130
 8832TIP3    H126437   6.418   4.781   6.062
 8832TIP3    H226438   6.496   4.786   6.192
 8833TIP3   OH226439   8.293   6.369   4.878
 8833TIP3    H126440   8.322   6.417   4.800
 8833TIP3    H226441   8.213   6.323   4.850
 8834TIP3   OH226442   3.482   3.224   6.206
 8834TIP3    H126443   3.412   3.289   6.214
 8834TIP3    H226444   3.546   3.251   6.272
 8835TIP3   OH226445   3.651   5.408   1.907
 8835TIP3    H126446   3.583   5.351   1.873
 8835TIP3    H226447   3.684   5.364   1.985
 8836TIP3   OH226448   6.477   2.695   1.039
 8836TIP3    H126449   6.563   2.732   1.061
 8836TIP3    H226450   6.455   2.735   0.955
 8837TIP3   OH226451   5.608   6.918   3.831
 8837TIP3    H126452   5.676   6.851   3.839
 8837TIP3    H226453   5.638   6.976   3.762
 8838TIP3   OH226454   3.883   0.825   5.328
 8838TIP3    H126455   3.950   0.770   5.289
 8838TIP3    H226456   3.875   0.900   5.269
 8839TIP3   OH226457   4.606   1.784   4.912
 8839TIP3    H126458   4.651   1.866   4.932
 8839TIP3    H226459   4.619   1.772   4.818
 8840TIP3   OH226460   4.244   6.567   6.743
 8840TIP3    H126461   4.240   6.533   6.832
 8840TIP3    H226462   4.263   6.490   6.689
 8841TIP3   OH226463   2.228   7.315   0.859
 8841TIP3    H126464   2.205   7.360   0.777
 8841TIP3    H226465   2.184   7.367   0.927
 8842TIP3   OH226466   2.668   7.028   5.573
 8842TIP3    H126467   2.650   7.063   5.660
 8842TIP3    H226468   2.726   6.954   5.588
 8843TIP3   OH226469   2.318   6.522   6.441
 8843TIP3    H126470   2.243   6.536   6.499
 8843TIP3    H226471   2.379   6.592   6.465
 8844TIP3   OH226472   7.869   7.151   5.514
 8844TIP3    H126473   7.862   7.080   5.451
 8844TIP3    H226474   7.947   7.130   5.565
 8845TIP3   OH226475   8.197   3.272   0.452
 8845TIP3    H126476   8.230   3.280   0.542
 8845TIP3    H226477   8.263   3.317   0.399
 8846TIP3   OH226478   6.963   4.366   0.681
 8846TIP3    H126479   6.989   4.295   0.623
 8846TIP3    H226480   7.031   4.432   0.671
 8847TIP3   OH226481   3.542   7.421   3.107
 8847TIP3    H126482   3.627   7.457   3.131
 8847TIP3    H226483   3.555   7.327   3.108
 8848TIP3   OH226484   7.624   0.242   2.252
 8848TIP3    H126485   7.628   0.158   2.296
 8848TIP3    H226486   7.543   0.239   2.200
 8849TIP3   OH226487   4.292   1.872   5.589
 8849TIP3    H126488   4.276   1.854   5.496
 8849TIP3    H226489   4.379   1.835   5.605
 8850TIP3   OH226490   1.794   6.111   5.702
 8850TIP3    H126491   1.760   6.022   5.702
 8850TIP3    H226492   1.762   6.149   5.620
 8851TIP3   OH226493   3.236   0.985   5.204
 8851TIP3    H126494   3.331   0.984   5.207
 8851TIP3    H226495   3.213   1.078   5.209
 8852TIP3   OH226496   2.303   0.367   1.176
 8852TIP3    H126497   2.297   0.296   1.240
 8852TIP3    H226498   2.297   0.324   1.091
 8853TIP3   OH226499   0.476   1.411   5.135
 8853TIP3    H126500   0.473   1.395   5.230
 8853TIP3    H226501   0.511   1.330   5.098
 8854TIP3   OH226502   0.406   0.555   5.863
 8854TIP3    H126503   0.377   0.465   5.854
 8854TIP3    H226504   0.341   0.607   5.815
 8855TIP3   OH226505   6.075   4.804   1.877
 8855TIP3    H126506   6.045   4.738   1.939
 8855TIP3    H226507   6.169   4.789   1.871
 8856TIP3   OH226508   1.442   6.332   0.213
 8856TIP3    H126509   1.424   6.387   0.138
 8856TIP3    H226510   1.414   6.244   0.186
 8857TIP3   OH226511   1.008   3.483   4.013
 8857TIP3    H126512   0.916   3.493   3.991
 8857TIP3    H226513   1.052   3.469   3.929
 8858TIP3   OH226514   1.325   2.793   4.725
 8858TIP3    H126515   1.314   2.705   4.763
 8858TIP3    H226516   1.355   2.777   4.635
 8859TIP3   OH226517   1.096   1.473   0.017
 8859TIP3    H126518   1.175   1.519   0.046
 8859TIP3    H226519   1.036   1.479   0.091
 8860TIP3   OH226520   4.371   2.817   0.515
 8860TIP3    H126521   4.464   2.794   0.522
 8860TIP3    H226522   4.330   2.772   0.589
 8861TIP3   OH226523   3.226   1.996   6.195
 8861TIP3    H126524   3.221   1.917   6.250
 8861TIP3    H226525   3.306   2.040   6.225
 8862TIP3   OH226526   0.118   5.939   5.971
 8862TIP3    H126527   0.116   5.996   5.894
 8862TIP3    H226528   0.036   5.890   5.967
 8863TIP3   OH226529   3.192   5.516   4.903
 8863TIP3    H126530   3.128   5.454   4.867
 8863TIP3    H226531   3.158   5.538   4.990
 8864TIP3   OH226532   4.581   1.845   5.576
 8864TIP3    H126533   4.610   1.818   5.489
 8864TIP3    H226534   4.656   1.828   5.633
 8865TIP3   OH226535   5.282   1.127   0.616
 8865TIP3    H126536   5.290   1.032   0.616
 8865TIP3    H226537   5.191   1.144   0.593
 8866TIP3   OH226538   8.262   1.899   5.932
 8866TIP3    H126539   8.189   1.877   5.874
 8866TIP3    H226540   8.291   1.815   5.968
 8867TIP3   OH226541   6.808   7.060   0.548
 8867TIP3    H126542   6.848   7.145   0.533
 8867TIP3    H226543   6.846   7.030   0.631
 8868TIP3   OH226544   8.326   2.034   5.268
 8868TIP3    H126545   8.354   1.952   5.228
 8868TIP3    H226546   8.351   2.026   5.360
 8869TIP3   OH226547   8.126   4.468   2.804
 8869TIP3    H126548   8.045   4.513   2.778
 8869TIP3    H226549   8.162   4.522   2.874
 8870TIP3   OH226550   3.116   1.423   0.718
 8870TIP3    H126551   3.116   1.511   0.680
 8870TIP3    H226552   3.162   1.433   0.802
 8871TIP3   OH226553   7.937   3.246   3.668
 8871TIP3    H126554   7.848   3.248   3.635
 8871TIP3    H226555   7.942   3.320   3.728
 8872TIP3   OH226556   2.163   4.786   4.526
 8872TIP3    H126557   2.174   4.708   4.473
 8872TIP3    H226558   2.079   4.773   4.571
 8873TIP3   OH226559   1.686   2.543   0.152
 8873TIP3    H126560   1.594   2.563   0.170
 8873TIP3    H226561   1.727   2.540   0.239
 8874TIP3   OH226562   1.903   1.148   5.362
 8874TIP3    H126563   1.905   1.095   5.442
 8874TIP3    H226564   1.810   1.164   5.347
 8875TIP3   OH226565   0.427   6.533   2.525
 8875TIP3    H126566   0.476   6.613   2.508
 8875TIP3    H226567   0.414   6.493   2.439
 8876TIP3   OH226568   6.840   1.303   2.779
 8876TIP3    H126569   6.780   1.329   2.849
 8876TIP3    H226570   6.785   1.264   2.712
 8877TIP3   OH226571   0.423   3.674   4.217
 8877TIP3    H126572   0.448   3.765   4.231
 8877TIP3    H226573   0.384   3.674   4.129
 8878TIP3   OH226574   8.264   6.960   2.113
 8878TIP3    H126575   8.248   6.867   2.127
 8878TIP3    H226576   8.186   7.004   2.148
 8879TIP3   OH226577   5.953   1.428   1.284
 8879TIP3    H126578   5.865   1.417   1.250
 8879TIP3    H226579   5.969   1.523   1.280
 8880TIP3   OH226580   7.655   1.548   4.669
 8880TIP3    H126581   7.618   1.522   4.754
 8880TIP3    H226582   7.732   1.491   4.658
 8881TIP3   OH226583   1.157   7.773   2.241
 8881TIP3    H126584   1.241   7.764   2.195
 8881TIP3    H226585   1.101   7.706   2.201
 8882TIP3   OH226586   1.854   6.778   0.042
 8882TIP3    H126587   1.855   6.691   0.003
 8882TIP3    H226588   1.848   6.762   0.136
 8883TIP3   OH226589   2.084   7.651   0.633
 8883TIP3    H126590   2.110   7.560   0.640
 8883TIP3    H226591   2.159   7.695   0.593
 8884TIP3   OH226592   3.978   5.847   4.567
 8884TIP3    H126593   3.948   5.760   4.593
 8884TIP3    H226594   3.933   5.907   4.626
 8885TIP3   OH226595   6.140   5.329   2.540
 8885TIP3    H126596   6.156   5.325   2.446
 8885TIP3    H226597   6.093   5.248   2.559
 8886TIP3   OH226598   0.906   2.718   2.762
 8886TIP3    H126599   0.865   2.632   2.773
 8886TIP3    H226600   0.832   2.780   2.760
 8887TIP3   OH226601   1.722   5.438   5.705
 8887TIP3    H126602   1.800   5.429   5.761
 8887TIP3    H226603   1.700   5.348   5.681
 8888TIP3   OH226604   1.928   6.861   0.663
 8888TIP3    H126605   1.942   6.937   0.719
 8888TIP3    H226606   1.924   6.897   0.574
 8889TIP3   OH226607   0.847   1.985   2.723
 8889TIP3    H126608   0.859   1.902   2.676
 8889TIP3    H226609   0.845   1.960   2.815
 8890TIP3   OH226610   7.592   0.236   1.094
 8890TIP3    H126611   7.686   0.218   1.106
 8890TIP3    H226612   7.585   0.264   1.003
 8891TIP3   OH226613   3.355   0.608   1.350
 8891TIP3    H126614   3.324   0.626   1.261
 8891TIP3    H226615   3.280   0.568   1.394
 8892TIP3   OH226616   5.088   0.359   6.432
 8892TIP3    H126617   5.088   0.426   6.364
 8892TIP3    H226618   5.103   0.407   6.513
 8893TIP3   OH226619   4.863   0.058   2.402
 8893TIP3    H126620   4.843   0.011   2.321
 8893TIP3    H226621   4.947   0.024   2.430
 8894TIP3   OH226622   0.468   7.255   0.516
 8894TIP3    H126623   0.508   7.223   0.597
 8894TIP3    H226624   0.541   7.294   0.468
 8895TIP3   OH226625   4.133   7.375   2.073
 8895TIP3    H126626   4.190   7.351   2.146
 8895TIP3    H226627   4.053   7.324   2.087
 8896TIP3   OH226628   4.629   7.467   3.520
 8896TIP3    H126629   4.672   7.443   3.437
 8896TIP3    H226630   4.538   7.441   3.507
 8897TIP3   OH226631   6.512   6.920   3.238
 8897TIP3    H126632   6.494   6.891   3.327
 8897TIP3    H226633   6.543   7.010   3.247
 8898TIP3   OH226634   8.233   5.489   3.633
 8898TIP3    H126635   8.258   5.568   3.586
 8898TIP3    H226636   8.218   5.519   3.723
 8899TIP3   OH226637   0.229   3.747   3.747
 8899TIP3    H126638   0.211   3.775   3.658
 8899TIP3    H226639   0.309   3.695   3.740
 8900TIP3   OH226640   6.801   2.677   5.610
 8900TIP3    H126641   6.816   2.766   5.641
 8900TIP3    H226642   6.797   2.624   5.689
 8901TIP3   OH226643   3.755   2.345   1.624
 8901TIP3    H126644   3.749   2.371   1.532
 8901TIP3    H226645   3.794   2.421   1.667
 8902TIP3   OH226646   6.771   5.881   2.362
 8902TIP3    H126647   6.777   5.947   2.293
 8902TIP3    H226648   6.857   5.840   2.364
 8903TIP3   OH226649   4.849   7.735   5.798
 8903TIP3    H126650   4.776   7.727   5.737
 8903TIP3    H226651   4.811   7.719   5.884
 8904TIP3   OH226652   3.931   1.725   0.633
 8904TIP3    H126653   3.886   1.694   0.555
 8904TIP3    H226654   3.909   1.819   0.637
 8905TIP3   OH226655   4.129   3.844   5.037
 8905TIP3    H126656   4.149   3.753   5.060
 8905TIP3    H226657   4.191   3.896   5.087
 8906TIP3   OH226658   8.257   2.802   4.031
 8906TIP3    H126659   8.337   2.826   3.985
 8906TIP3    H226660   8.187   2.823   3.969
 8907TIP3   OH226661   2.349   2.073   4.686
 8907TIP3    H126662   2.353   1.981   4.714
 8907TIP3    H226663   2.327   2.067   4.593
 8908TIP3   OH226664   5.073   7.341   3.786
 8908TIP3    H126665   5.126   7.292   3.849
 8908TIP3    H226666   5.058   7.278   3.715
 8909TIP3   OH226667   4.730   4.400   3.273
 8909TIP3    H126668   4.725   4.345   3.351
 8909TIP3    H226669   4.727   4.489   3.307
 8910TIP3   OH226670   1.207   0.259   6.497
 8910TIP3    H126671   1.282   0.223   6.544
 8910TIP3    H226672   1.200   0.349   6.527
 8911TIP3   OH226673   1.281   1.184   1.578
 8911TIP3    H126674   1.292   1.140   1.494
 8911TIP3    H226675   1.204   1.143   1.617
 8912TIP3   OH226676   2.789   4.533   0.117
 8912TIP3    H126677   2.830   4.447   0.122
 8912TIP3    H226678   2.819   4.579   0.195
 8913TIP3   OH226679   1.361   7.315   5.821
 8913TIP3    H126680   1.432   7.293   5.881
 8913TIP3    H226681   1.330   7.401   5.851
 8914TIP3   OH226682   0.545   2.553   6.141
 8914TIP3    H126683   0.528   2.644   6.114
 8914TIP3    H226684   0.478   2.535   6.207
 8915TIP3   OH226685   1.775   0.186   6.154
 8915TIP3    H126686   1.704   0.129   6.184
 8915TIP3    H226687   1.739   0.230   6.077
 8916TIP3   OH226688   2.261   1.263   2.630
 8916TIP3    H126689   2.235   1.177   2.597
 8916TIP3    H226690   2.211   1.325   2.576
 8917TIP3   OH226691   3.595   3.670   3.415
 8917TIP3    H126692   3.682   3.705   3.393
 8917TIP3    H226693   3.594   3.671   3.511
 8918TIP3   OH226694   5.263   4.078   1.264
 8918TIP3    H126695   5.205   4.096   1.190
 8918TIP3    H226696   5.350   4.069   1.225
 8919TIP3   OH226697   4.274   7.823   6.815
 8919TIP3    H126698   4.183   7.795   6.804
 8919TIP3    H226699   4.272   7.887   6.886
 8920TIP3   OH226700   6.230   2.982   4.120
 8920TIP3    H126701   6.300   2.941   4.069
 8920TIP3    H226702   6.155   2.984   4.061
 8921TIP3   OH226703   5.307   7.575   6.814
 8921TIP3    H126704   5.227   7.539   6.854
 8921TIP3    H226705   5.328   7.515   6.744
 8922TIP3   OH226706   5.006   7.187   4.566
 8922TIP3    H126707   4.929   7.230   4.605
 8922TIP3    H226708   5.028   7.118   4.628
 8923TIP3   OH226709   7.753   5.375   4.076
 8923TIP3    H126710   7.811   5.300   4.067
 8923TIP3    H226711   7.808   5.450   4.052
 8924TIP3   OH226712   4.509   2.093   2.912
 8924TIP3    H126713   4.505   2.022   2.977
 8924TIP3    H226714   4.450   2.065   2.842
 8925TIP3   OH226715   4.621   7.225   1.660
 8925TIP3    H126716   4.594   7.298   1.715
 8925TIP3    H226717   4.712   7.208   1.686
 8926TIP3   OH226718   8.255   3.959   2.867
 8926TIP3    H126719   8.168   3.938   2.902
 8926TIP3    H226720   8.240   3.981   2.775
 8927TIP3   OH226721   0.303   4.043   5.195
 8927TIP3    H126722   0.352   3.979   5.246
 8927TIP3    H226723   0.320   4.126   5.240
 8928TIP3   OH226724   4.812   3.286   5.667
 8928TIP3    H126725   4.849   3.205   5.633
 8928TIP3    H226726   4.719   3.267   5.679
 8929TIP3   OH226727   5.202   7.805   0.922
 8929TIP3    H126728   5.131   7.869   0.932
 8929TIP3    H226729   5.174   7.750   0.849
 8930TIP3   OH226730   2.834   4.196   3.929
 8930TIP3    H126731   2.753   4.162   3.892
 8930TIP3    H226732   2.898   4.190   3.857
 8931TIP3   OH226733   3.991   4.717   2.067
 8931TIP3    H126734   3.974   4.738   1.975
 8931TIP3    H226735   4.062   4.652   2.065
 8932TIP3   OH226736   6.949   6.683   5.217
 8932TIP3    H126737   6.932   6.766   5.172
 8932TIP3    H226738   7.040   6.691   5.247
 8933TIP3   OH226739   3.602   7.281   5.583
 8933TIP3    H126740   3.522   7.318   5.621
 8933TIP3    H226741   3.582   7.273   5.490
 8934TIP3   OH226742   2.120   3.083   2.133
 8934TIP3    H126743   2.042   3.067   2.080
 8934TIP3    H226744   2.085   3.101   2.221
 8935TIP3   OH226745   0.759   2.396   1.499
 8935TIP3    H126746   0.677   2.409   1.545
 8935TIP3    H226747   0.798   2.483   1.494
 8936TIP3   OH226748   0.944   5.985   1.329
 8936TIP3    H126749   0.942   6.015   1.419
 8936TIP3    H226750   0.954   5.890   1.335
 8937TIP3   OH226751   7.168   1.750   1.979
 8937TIP3    H126752   7.132   1.785   2.060
 8937TIP3    H226753   7.262   1.743   1.996
 8938TIP3   OH226754   7.418   5.788   4.365
 8938TIP3    H126755   7.343   5.795   4.425
 8938TIP3    H226756   7.379   5.756   4.283
 8939TIP3   OH226757   0.592   2.927   2.059
 8939TIP3    H126758   0.569   2.864   2.128
 8939TIP3    H226759   0.509   2.965   2.033
 8940TIP3   OH226760   5.893   7.155   3.721
 8940TIP3    H126761   5.849   7.199   3.794
 8940TIP3    H226762   5.826   7.097   3.684
 8941TIP3   OH226763   5.823   1.958   0.702
 8941TIP3    H126764   5.734   1.940   0.734
 8941TIP3    H226765   5.867   2.001   0.776
 8942TIP3   OH226766   4.528   4.040   3.694
 8942TIP3    H126767   4.618   4.009   3.682
 8942TIP3    H226768   4.483   4.012   3.614
 8943TIP3   OH226769   2.818   5.348   2.631
 8943TIP3    H126770   2.807   5.283   2.562
 8943TIP3    H226771   2.768   5.424   2.601
 8944TIP3   OH226772   3.957   0.524   1.837
 8944TIP3    H126773   3.973   0.603   1.888
 8944TIP3    H226774   3.928   0.555   1.751
 8945TIP3   OH226775   8.204   6.246   5.823
 8945TIP3    H126776   8.174   6.271   5.910
 8945TIP3    H226777   8.222   6.152   5.829
 8946TIP3   OH226778   2.596   6.291   1.787
 8946TIP3    H126779   2.517   6.344   1.798
 8946TIP3    H226780   2.650   6.339   1.725
 8947TIP3   OH226781   1.069   3.487   0.502
 8947TIP3    H126782   1.135   3.451   0.562
 8947TIP3    H226783   1.112   3.564   0.463
 8948TIP3   OH226784   6.815   5.340   5.403
 8948TIP3    H126785   6.909   5.357   5.409
 8948TIP3    H226786   6.777   5.390   5.476
 8949TIP3   OH226787   2.609   3.725   0.192
 8949TIP3    H126788   2.575   3.667   0.124
 8949TIP3    H226789   2.603   3.673   0.273
 8950TIP3   OH226790   0.225   2.577   6.237
 8950TIP3    H126791   0.182   2.613   6.159
 8950TIP3    H226792   0.177   2.615   6.310
 8951TIP3   OH226793   4.059   6.785   2.463
 8951TIP3    H126794   3.986   6.846   2.450
 8951TIP3    H226795   4.136   6.834   2.432
 8952TIP3   OH226796   2.026   1.477   1.560
 8952TIP3    H126797   1.983   1.459   1.477
 8952TIP3    H226798   2.106   1.424   1.558
 8953TIP3   OH226799   7.933   6.457   2.281
 8953TIP3    H126800   7.977   6.385   2.235
 8953TIP3    H226801   7.853   6.418   2.315
 8954TIP3   OH226802   4.677   5.178   2.508
 8954TIP3    H126803   4.651   5.252   2.452
 8954TIP3    H226804   4.759   5.206   2.548
 8955TIP3   OH226805   1.944   0.240   4.297
 8955TIP3    H126806   1.992   0.196   4.366
 8955TIP3    H226807   1.999   0.229   4.219
 8956TIP3   OH226808   4.424   0.349   2.729
 8956TIP3    H126809   4.392   0.268   2.769
 8956TIP3    H226810   4.471   0.393   2.800
 8957TIP3   OH226811   2.855   6.101   6.303
 8957TIP3    H126812   2.830   6.008   6.304
 8957TIP3    H226813   2.772   6.148   6.316
 8958TIP3   OH226814   2.354   3.353   2.309
 8958TIP3    H126815   2.323   3.438   2.339
 8958TIP3    H226816   2.364   3.363   2.214
 8959TIP3   OH226817   0.811   5.090   4.994
 8959TIP3    H126818   0.810   5.106   4.900
 8959TIP3    H226819   0.878   5.023   5.007
 8960TIP3   OH226820   3.042   7.646   4.179
 8960TIP3    H126821   2.957   7.603   4.169
 8960TIP3    H226822   3.059   7.686   4.094
 8961TIP3   OH226823   7.313   3.695   2.800
 8961TIP3    H126824   7.255   3.619   2.806
 8961TIP3    H226825   7.385   3.666   2.745
 8962TIP3   OH226826   6.872   0.150   1.465
 8962TIP3    H126827   6.804   0.082   1.460
 8962TIP3    H226828   6.864   0.186   1.553
 8963TIP3   OH226829   7.688   7.050   1.319
 8963TIP3    H126830   7.725   7.005   1.394
 8963TIP3    H226831   7.701   6.990   1.245
 8964TIP3   OH226832   8.178   5.060   5.874
 8964TIP3    H126833   8.191   5.014   5.956
 8964TIP3    H226834   8.262   5.053   5.828
 8965TIP3   OH226835   6.707   3.750   0.519
 8965TIP3    H126836   6.750   3.696   0.452
 8965TIP3    H226837   6.623   3.774   0.479
 8966TIP3   OH226838   0.974   4.841   4.542
 8966TIP3    H126839   0.933   4.765   4.500
 8966TIP3    H226840   0.927   4.916   4.507
 8967TIP3   OH226841   0.035   3.374   6.532
 8967TIP3    H126842   0.125   3.379   6.564
 8967TIP3    H226843   0.031   3.293   6.482
 8968TIP3   OH226844   6.932   3.088   3.098
 8968TIP3    H126845   6.934   3.133   3.014
 8968TIP3    H226846   6.839   3.078   3.118
 8969TIP3   OH226847   0.594   0.639   2.308
 8969TIP3    H126848   0.648   0.600   2.239
 8969TIP3    H226849   0.657   0.683   2.366
 8970TIP3   OH226850   8.070   5.392   0.025
 8970TIP3    H126851   7.999   5.336   0.055
 8970TIP3    H226852   8.104   5.433   0.105
 8971TIP3   OH226853   5.649   6.868   1.721
 8971TIP3    H126854   5.555   6.867   1.703
 8971TIP3    H226855   5.655   6.868   1.816
 8972TIP3   OH226856   4.043   1.957   5.193
 8972TIP3    H126857   3.980   1.931   5.126
 8972TIP3    H226858   4.108   2.010   5.146
 8973TIP3   OH226859   3.650   1.605   1.015
 8973TIP3    H126860   3.710   1.580   1.085
 8973TIP3    H226861   3.563   1.600   1.055
 8974TIP3   OH226862   2.763   0.690   0.981
 8974TIP3    H126863   2.796   0.762   0.927
 8974TIP3    H226864   2.669   0.690   0.965
 8975TIP3   OH226865   3.253   5.905   6.038
 8975TIP3    H126866   3.221   5.988   6.074
 8975TIP3    H226867   3.348   5.910   6.049
 8976TIP3   OH226868   8.343   0.882   1.631
 8976TIP3    H126869   8.426   0.924   1.653
 8976TIP3    H226870   8.277   0.930   1.682
 8977TIP3   OH226871   4.255   0.305   4.339
 8977TIP3    H126872   4.216   0.369   4.278
 8977TIP3    H226873   4.349   0.309   4.320
 8978TIP3   OH226874   2.089   3.214   0.655
 8978TIP3    H126875   2.066   3.145   0.716
 8978TIP3    H226876   2.169   3.253   0.691
 8979TIP3   OH226877   5.478   6.402   2.332
 8979TIP3    H126878   5.481   6.463   2.258
 8979TIP3    H226879   5.525   6.446   2.402
 8980TIP3   OH226880   7.191   2.477   6.206
 8980TIP3    H126881   7.168   2.391   6.241
 8980TIP3    H226882   7.185   2.536   6.281
 8981TIP3   OH226883   1.131   1.848   4.136
 8981TIP3    H126884   1.222   1.823   4.150
 8981TIP3    H226885   1.126   1.869   4.043
 8982TIP3   OH226886   3.882   6.345   3.873
 8982TIP3    H126887   3.935   6.415   3.911
 8982TIP3    H226888   3.830   6.313   3.946
 8983TIP3   OH226889   1.373   0.084   5.056
 8983TIP3    H126890   1.321   0.122   5.126
 8983TIP3    H226891   1.355   0.140   4.980
 8984TIP3   OH226892   6.190   1.169   5.147
 8984TIP3    H126893   6.140   1.149   5.226
 8984TIP3    H226894   6.264   1.222   5.178
 8985TIP3   OH226895   8.440  -0.010   5.981
 8985TIP3    H126896   8.430  -0.096   5.939
 8985TIP3    H226897   8.407   0.052   5.916
 8986TIP3   OH226898   0.335   7.472   1.069
 8986TIP3    H126899   0.371   7.531   1.136
 8986TIP3    H226900   0.411   7.447   1.016
 8987TIP3   OH226901   5.082   1.126   1.093
 8987TIP3    H126902   5.024   1.050   1.085
 8987TIP3    H226903   5.146   1.115   1.023
 8988TIP3   OH226904   6.649   3.392   3.639
 8988TIP3    H126905   6.709   3.418   3.710
 8988TIP3    H226906   6.606   3.313   3.672
 8989TIP3   OH226907   0.953   1.155   4.649
 8989TIP3    H126908   1.041   1.133   4.681
 8989TIP3    H226909   0.905   1.182   4.727
 8990TIP3   OH226910   5.129   5.177   6.662
 8990TIP3    H126911   5.129   5.114   6.733
 8990TIP3    H226912   5.175   5.254   6.697
 8991TIP3   OH226913   1.455   2.294   3.033
 8991TIP3    H126914   1.487   2.254   3.114
 8991TIP3    H226915   1.493   2.382   3.034
 8992TIP3   OH226916   6.382   0.281   2.374
 8992TIP3    H126917   6.389   0.231   2.293
 8992TIP3    H226918   6.471   0.309   2.394
 8993TIP3   OH226919   5.782   0.447   2.050
 8993TIP3    H126920   5.865   0.475   2.012
 8993TIP3    H226921   5.782   0.483   2.139
 8994TIP3   OH226922   5.892   4.175   5.285
 8994TIP3    H126923   5.873   4.166   5.191
 8994TIP3    H226924   5.961   4.241   5.289
 8995TIP3   OH226925   5.710   4.845   1.381
 8995TIP3    H126926   5.647   4.910   1.414
 8995TIP3    H226927   5.656   4.773   1.350
 8996TIP3   OH226928   3.527   2.067   2.387
 8996TIP3    H126929   3.552   2.048   2.296
 8996TIP3    H226930   3.605   2.109   2.424
 8997TIP3   OH226931   2.534   6.199   5.826
 8997TIP3    H126932   2.530   6.283   5.872
 8997TIP3    H226933   2.609   6.209   5.766
 8998TIP3   OH226934   0.220   6.745   5.065
 8998TIP3    H126935   0.197   6.779   5.152
 8998TIP3    H226936   0.287   6.678   5.083
 8999TIP3   OH226937   5.724   5.871   1.446
 8999TIP3    H126938   5.769   5.938   1.498
 8999TIP3    H226939   5.770   5.790   1.467
 9000TIP3   OH226940   7.583   7.795   5.041
 9000TIP3    H126941   7.632   7.738   5.100
 9000TIP3    H226942   7.612   7.884   5.064
 9001TIP3   OH226943   7.072   6.285   3.766
 9001TIP3    H126944   6.988   6.319   3.736
 9001TIP3    H226945   7.054   6.193   3.787
 9002TIP3   OH226946   4.577   7.802   0.532
 9002TIP3    H126947   4.655   7.838   0.575
 9002TIP3    H226948   4.565   7.716   0.573
 9003TIP3   OH226949   0.244   3.375   4.532
 9003TIP3    H126950   0.279   3.305   4.478
 9003TIP3    H226951   0.320   3.427   4.557
 9004TIP3   OH226952   4.205   5.852   1.272
 9004TIP3    H126953   4.283   5.885   1.228
 9004TIP3    H226954   4.219   5.871   1.364
 9005TIP3   OH226955   6.433   1.566   2.936
 9005TIP3    H126956   6.432   1.624   3.012
 9005TIP3    H226957   6.342   1.542   2.922
 9006TIP3   OH226958   6.278   6.417   2.071
 9006TIP3    H126959   6.356   6.361   2.063
 9006TIP3    H226960   6.283   6.475   1.994
 9007TIP3   OH226961   1.621   0.966   6.052
 9007TIP3    H126962   1.710   0.932   6.049
 9007TIP3    H226963   1.571   0.898   6.098
 9008TIP3   OH226964   5.069   5.920   4.482
 9008TIP3    H126965   5.087   5.880   4.566
 9008TIP3    H226966   4.991   5.975   4.498
 9009TIP3   OH226967   0.948   3.167   5.909
 9009TIP3    H126968   0.997   3.243   5.878
 9009TIP3    H226969   0.866   3.170   5.859
 9010TIP3   OH226970   1.889   2.863   5.562
 9010TIP3    H126971   1.852   2.947   5.587
 9010TIP3    H226972   1.949   2.840   5.633
 9011TIP3   OH226973   0.609   0.072   3.833
 9011TIP3    H126974   0.574  -0.017   3.831
 9011TIP3    H226975   0.694   0.065   3.788
 9012TIP3   OH226976   7.164   3.336   0.378
 9012TIP3    H126977   7.129   3.369   0.295
 9012TIP3    H226978   7.087   3.304   0.424
 9013TIP3   OH226979   1.150   7.350   1.615
 9013TIP3    H126980   1.167   7.272   1.562
 9013TIP3    H226981   1.066   7.382   1.583
 9014TIP3   OH226982   8.134   5.807   3.202
 9014TIP3    H126983   8.078   5.884   3.189
 9014TIP3    H226984   8.112   5.749   3.130
 9015TIP3   OH226985   4.397   4.330   4.476
 9015TIP3    H126986   4.429   4.413   4.511
 9015TIP3    H226987   4.321   4.354   4.423
 9016TIP3   OH226988   1.333   6.343   0.477
 9016TIP3    H126989   1.312   6.420   0.530
 9016TIP3    H226990   1.337   6.377   0.387
 9017TIP3   OH226991   5.912   0.915   2.204
 9017TIP3    H126992   5.849   0.969   2.157
 9017TIP3    H226993   5.989   0.970   2.214
 9018TIP3   OH226994   6.471   7.773   5.512
 9018TIP3    H126995   6.425   7.695   5.543
 9018TIP3    H226996   6.484   7.826   5.590
 9019TIP3   OH226997   0.676   5.068   5.946
 9019TIP3    H126998   0.687   5.163   5.943
 9019TIP3    H226999   0.616   5.053   6.019
 9020TIP3   OH227000   5.968   1.520   4.173
 9020TIP3    H127001   5.911   1.592   4.200
 9020TIP3    H227002   6.056   1.557   4.178
 9021TIP3   OH227003   4.215   5.740   2.041
 9021TIP3    H127004   4.245   5.827   2.013
 9021TIP3    H227005   4.146   5.717   1.978
 9022TIP3   OH227006   4.532   6.117   6.483
 9022TIP3    H127007   4.487   6.168   6.551
 9022TIP3    H227008   4.616   6.093   6.524
 9023TIP3   OH227009   2.666   2.112   5.576
 9023TIP3    H127010   2.681   2.150   5.490
 9023TIP3    H227011   2.663   2.018   5.561
 9024TIP3   OH227012   3.880   3.046   1.304
 9024TIP3    H127013   3.963   3.059   1.350
 9024TIP3    H227014   3.847   2.962   1.337
 9025TIP3   OH227015   3.512   5.780   1.085
 9025TIP3    H127016   3.573   5.851   1.106
 9025TIP3    H227017   3.515   5.772   0.990
 9026TIP3   OH227018   6.851   6.918   5.069
 9026TIP3    H127019   6.763   6.885   5.054
 9026TIP3    H227020   6.851   7.005   5.028
 9027TIP3   OH227021   3.826   1.922   2.496
 9027TIP3    H127022   3.820   1.949   2.404
 9027TIP3    H227023   3.881   1.844   2.495
 9028TIP3   OH227024   1.043   4.757   6.491
 9028TIP3    H127025   1.097   4.689   6.530
 9028TIP3    H227026   0.956   4.744   6.530
 9029TIP3   OH227027   5.773   1.228   6.534
 9029TIP3    H127028   5.702   1.285   6.566
 9029TIP3    H227029   5.827   1.286   6.480
 9030TIP3   OH227030   6.595   5.036   4.814
 9030TIP3    H127031   6.528   5.025   4.881
 9030TIP3    H227032   6.566   5.112   4.763
 9031TIP3   OH227033   3.941   4.111   5.446
 9031TIP3    H127034   3.868   4.090   5.505
 9031TIP3    H227035   3.983   4.188   5.486
 9032TIP3   OH227036   7.443   3.953   0.472
 9032TIP3    H127037   7.457   3.866   0.435
 9032TIP3    H227038   7.348   3.963   0.475
 9033TIP3   OH227039   0.672   0.662   0.961
 9033TIP3    H127040   0.635   0.573   0.964
 9033TIP3    H227041   0.733   0.659   0.888
 9034TIP3   OH227042   1.780   3.128   1.556
 9034TIP3    H127043   1.814   3.088   1.637
 9034TIP3    H227044   1.699   3.079   1.538
 9035TIP3   OH227045   7.083   2.564   3.265
 9035TIP3    H127046   7.040   2.615   3.196
 9035TIP3    H227047   7.014   2.547   3.329
 9036TIP3   OH227048   4.610   4.990   3.320
 9036TIP3    H127049   4.596   5.063   3.260
 9036TIP3    H227050   4.523   4.953   3.335
 9037TIP3   OH227051   0.598   3.630   2.869
 9037TIP3    H127052   0.535   3.671   2.928
 9037TIP3    H227053   0.547   3.612   2.790
 9038TIP3   OH227054   2.034   3.861   1.651
 9038TIP3    H127055   2.127   3.883   1.666
 9038TIP3    H227056   1.986   3.926   1.703
 9039TIP3   OH227057   4.856   6.528   5.129
 9039TIP3    H127058   4.946   6.513   5.157
 9039TIP3    H227059   4.812   6.561   5.207
 9040TIP3   OH227060   6.770   1.154   6.402
 9040TIP3    H127061   6.760   1.065   6.367
 9040TIP3    H227062   6.834   1.145   6.472
 9041TIP3   OH227063   3.785   1.840   0.967
 9041TIP3    H127064   3.723   1.770   0.984
 9041TIP3    H227065   3.871   1.800   0.979
 9042TIP3   OH227066   3.529   1.724   2.799
 9042TIP3    H127067   3.524   1.769   2.715
 9042TIP3    H227068   3.577   1.643   2.780
 9043TIP3   OH227069   7.343   7.925   1.261
 9043TIP3    H127070   7.326   7.925   1.167
 9043TIP3    H227071   7.263   7.890   1.299
 9044TIP3   OH227072   0.328   4.777   6.254
 9044TIP3    H127073   0.376   4.701   6.286
 9044TIP3    H227074   0.300   4.753   6.166
 9045TIP3   OH227075   6.976   7.512   3.544
 9045TIP3    H127076   6.974   7.489   3.637
 9045TIP3    H227077   6.980   7.608   3.544
 9046TIP3   OH227078   5.417   6.686   0.567
 9046TIP3    H127079   5.378   6.610   0.611
 9046TIP3    H227080   5.480   6.649   0.506
 9047TIP3   OH227081   4.107   4.497   6.829
 9047TIP3    H127082   4.156   4.578   6.817
 9047TIP3    H227083   4.169   4.438   6.873
 9048TIP3   OH227084   0.294   1.153   4.015
 9048TIP3    H127085   0.219   1.176   4.069
 9048TIP3    H227086   0.272   1.067   3.979
 9049TIP3   OH227087   5.012   0.454   1.780
 9049TIP3    H127088   5.039   0.456   1.871
 9049TIP3    H227089   4.976   0.366   1.767
 9050TIP3   OH227090   5.992   7.143   0.858
 9050TIP3    H127091   6.033   7.158   0.943
 9050TIP3    H227092   5.905   7.107   0.879
 9051TIP3   OH227093   1.773   1.369   5.677
 9051TIP3    H127094   1.857   1.322   5.670
 9051TIP3    H227095   1.724   1.342   5.600
 9052TIP3   OH227096   3.770   4.056   0.977
 9052TIP3    H127097   3.745   3.975   0.934
 9052TIP3    H227098   3.694   4.079   1.031
 9053TIP3   OH227099   4.904   0.244   5.299
 9053TIP3    H127100   4.896   0.228   5.393
 9053TIP3    H227101   4.826   0.205   5.261
 9054TIP3   OH227102   1.157   3.325   6.149
 9054TIP3    H127103   1.091   3.371   6.097
 9054TIP3    H227104   1.228   3.308   6.087
 9055TIP3   OH227105   4.157   0.052   1.555
 9055TIP3    H127106   4.099   0.005   1.616
 9055TIP3    H227107   4.182   0.131   1.602
 9056TIP3   OH227108   6.055   4.091   3.977
 9056TIP3    H127109   6.067   4.186   3.966
 9056TIP3    H227110   6.064   4.055   3.888
 9057TIP3   OH227111   6.300   2.652   0.538
 9057TIP3    H127112   6.358   2.625   0.467
 9057TIP3    H227113   6.244   2.719   0.499
 9058TIP3   OH227114   3.049   6.127   1.739
 9058TIP3    H127115   3.008   6.149   1.655
 9058TIP3    H227116   3.135   6.166   1.735
 9059TIP3   OH227117   2.009   7.070   2.856
 9059TIP3    H127118   2.075   7.011   2.819
 9059TIP3    H227119   2.055   7.151   2.876
 9060TIP3   OH227120   2.217   3.820   0.802
 9060TIP3    H127121   2.233   3.730   0.829
 9060TIP3    H227122   2.135   3.844   0.845
 9061TIP3   OH227123   7.094   2.981   4.709
 9061TIP3    H127124   7.113   2.978   4.615
 9061TIP3    H227125   7.178   2.997   4.750
 9062TIP3   OH227126   6.787   4.702   2.534
 9062TIP3    H127127   6.849   4.629   2.528
 9062TIP3    H227128   6.801   4.751   2.453
 9063TIP3   OH227129   5.160   4.040   3.624
 9063TIP3    H127130   5.228   4.097   3.659
 9063TIP3    H227131   5.136   3.983   3.697
 9064TIP3   OH227132   5.954   4.225   4.810
 9064TIP3    H127133   5.908   4.274   4.741
 9064TIP3    H227134   5.941   4.133   4.787
 9065TIP3   OH227135   7.344   4.195   0.149
 9065TIP3    H127136   7.336   4.101   0.161
 9065TIP3    H227137   7.341   4.209   0.055
 9066TIP3   OH227138   7.894   1.121   0.205
 9066TIP3    H127139   7.809   1.122   0.248
 9066TIP3    H227140   7.894   1.042   0.151
 9067TIP3   OH227141   2.411   0.269   2.656
 9067TIP3    H127142   2.405   0.275   2.752
 9067TIP3    H227143   2.358   0.342   2.625
 9068TIP3   OH227144   4.538   4.872   4.637
 9068TIP3    H127145   4.615   4.820   4.615
 9068TIP3    H227146   4.556   4.959   4.600
 9069TIP3   OH227147   0.056   6.192   1.440
 9069TIP3    H127148   0.043   6.216   1.532
 9069TIP3    H227149   0.141   6.150   1.438
 9070TIP3   OH227150   7.239   4.394   0.895
 9070TIP3    H127151   7.272   4.390   0.985
 9070TIP3    H227152   7.316   4.416   0.842
 9071TIP3   OH227153   3.079   0.765   3.173
 9071TIP3    H127154   3.116   0.727   3.093
 9071TIP3    H227155   2.990   0.790   3.149
 9072TIP3   OH227156   4.197   1.681   0.725
 9072TIP3    H127157   4.108   1.709   0.703
 9072TIP3    H227158   4.188   1.589   0.753
 9073TIP3   OH227159   0.812   4.008   3.751
 9073TIP3    H127160   0.753   3.934   3.735
 9073TIP3    H227161   0.891   3.968   3.788
 9074TIP3   OH227162   7.830   7.176   0.306
 9074TIP3    H127163   7.849   7.270   0.308
 9074TIP3    H227164   7.819   7.155   0.214
 9075TIP3   OH227165   0.968   5.922   2.981
 9075TIP3    H127166   1.062   5.917   2.998
 9075TIP3    H227167   0.930   5.851   3.032
 9076TIP3   OH227168   6.675   0.633   4.157
 9076TIP3    H127169   6.679   0.691   4.233
 9076TIP3    H227170   6.660   0.692   4.083
 9077TIP3   OH227171   7.943   2.732   6.632
 9077TIP3    H127172   7.983   2.651   6.664
 9077TIP3    H227173   7.854   2.730   6.667
 9078TIP3   OH227174   8.189   3.067   5.253
 9078TIP3    H127175   8.195   2.973   5.235
 9078TIP3    H227176   8.241   3.080   5.332
 9079TIP3   OH227177   6.848   0.916   6.625
 9079TIP3    H127178   6.882   0.914   6.715
 9079TIP3    H227179   6.824   0.825   6.607
 9080TIP3   OH227180   7.855   6.295   6.557
 9080TIP3    H127181   7.794   6.227   6.527
 9080TIP3    H227182   7.819   6.376   6.522
 9081TIP3   OH227183   5.065   3.743   3.220
 9081TIP3    H127184   5.111   3.712   3.299
 9081TIP3    H227185   5.055   3.837   3.234
 9082TIP3   OH227186   6.838   0.481   0.421
 9082TIP3    H127187   6.867   0.423   0.491
 9082TIP3    H227188   6.893   0.459   0.346
 9083TIP3   OH227189   7.454   4.286   3.669
 9083TIP3    H127190   7.416   4.300   3.756
 9083TIP3    H227191   7.545   4.264   3.685
 9084TIP3   OH227192   0.751   0.611   1.787
 9084TIP3    H127193   0.679   0.665   1.818
 9084TIP3    H227194   0.728   0.522   1.814
 9085TIP3   OH227195   3.664   0.752   5.186
 9085TIP3    H127196   3.597   0.714   5.243
 9085TIP3    H227197   3.738   0.769   5.244
 9086TIP3   OH227198   2.363   1.585   6.359
 9086TIP3    H127199   2.440   1.563   6.307
 9086TIP3    H227200   2.392   1.575   6.450
 9087TIP3   OH227201   4.554   5.683   0.241
 9087TIP3    H127202   4.507   5.723   0.314
 9087TIP3    H227203   4.548   5.589   0.256
 9088TIP3   OH227204   5.623   0.898   1.236
 9088TIP3    H127205   5.541   0.850   1.223
 9088TIP3    H227206   5.662   0.860   1.314
 9089TIP3   OH227207   3.544   6.261   5.700
 9089TIP3    H127208   3.587   6.273   5.785
 9089TIP3    H227209   3.540   6.166   5.689
 9090TIP3   OH227210   4.443   4.497   6.008
 9090TIP3    H127211   4.370   4.506   6.069
 9090TIP3    H227212   4.496   4.576   6.023
 9091TIP3   OH227213   1.880   5.166   3.940
 9091TIP3    H127214   1.789   5.160   3.969
 9091TIP3    H227215   1.930   5.186   4.019
 9092TIP3   OH227216   2.307   1.231   4.223
 9092TIP3    H127217   2.265   1.159   4.269
 9092TIP3    H227218   2.240   1.263   4.162
 9093TIP3   OH227219   3.003   0.145   6.051
 9093TIP3    H127220   2.946   0.084   6.003
 9093TIP3    H227221   3.091   0.125   6.018
 9094TIP3   OH227222   7.843   5.371   3.737
 9094TIP3    H127223   7.811   5.370   3.827
 9094TIP3    H227224   7.884   5.457   3.727
 9095TIP3   OH227225   3.192   7.420   1.988
 9095TIP3    H127226   3.238   7.344   1.953
 9095TIP3    H227227   3.239   7.442   2.068
 9096TIP3   OH227228   3.734   4.932   1.440
 9096TIP3    H127229   3.819   4.954   1.401
 9096TIP3    H227230   3.706   5.012   1.485
 9097TIP3   OH227231   6.109   7.340   4.968
 9097TIP3    H127232   6.137   7.249   4.983
 9097TIP3    H227233   6.175   7.393   5.012
 9098TIP3   OH227234   3.522   1.698   5.277
 9098TIP3    H127235   3.522   1.628   5.342
 9098TIP3    H227236   3.533   1.653   5.193
 9099TIP3   OH227237   4.427   6.123   2.618
 9099TIP3    H127238   4.384   6.208   2.627
 9099TIP3    H227239   4.358   6.059   2.633
 9100TIP3   OH227240   6.897   7.170   3.074
 9100TIP3    H127241   6.872   7.259   3.046
 9100TIP3    H227242   6.842   7.112   3.022
 9101TIP3   OH227243   0.645   5.624   6.709
 9101TIP3    H127244   0.570   5.683   6.708
 9101TIP3    H227245   0.614   5.545   6.664
 9102TIP3   OH227246   3.366   7.059   6.227
 9102TIP3    H127247   3.313   7.032   6.152
 9102TIP3    H227248   3.417   7.134   6.194
 9103TIP3   OH227249   5.073   0.457   0.516
 9103TIP3    H127250   5.156   0.410   0.504
 9103TIP3    H227251   5.010   0.408   0.463
 9104TIP3   OH227252   4.405   3.373   6.467
 9104TIP3    H127253   4.386   3.467   6.456
 9104TIP3    H227254   4.365   3.350   6.551
 9105TIP3   OH227255   4.542   0.824   4.212
 9105TIP3    H127256   4.580   0.835   4.125
 9105TIP3    H227257   4.604   0.867   4.271
 9106TIP3   OH227258   3.091   3.256   4.368
 9106TIP3    H127259   3.078   3.344   4.332
 9106TIP3    H227260   3.184   3.254   4.393
 9107TIP3   OH227261   0.683   4.721   2.429
 9107TIP3    H127262   0.762   4.740   2.379
 9107TIP3    H227263   0.627   4.671   2.370
 9108TIP3   OH227264   3.874   1.803   1.990
 9108TIP3    H127265   3.838   1.715   2.004
 9108TIP3    H227266   3.804   1.851   1.946
 9109TIP3   OH227267   0.541   1.679   4.592
 9109TIP3    H127268   0.556   1.766   4.628
 9109TIP3    H227269   0.515   1.695   4.501
 9110TIP3   OH227270   7.849   7.501   1.663
 9110TIP3    H127271   7.779   7.437   1.680
 9110TIP3    H227272   7.850   7.556   1.741
 9111TIP3   OH227273   4.529   6.390   6.757
 9111TIP3    H127274   4.522   6.439   6.839
 9111TIP3    H227275   4.439   6.363   6.737
 9112TIP3   OH227276   0.085   5.501   4.823
 9112TIP3    H127277   0.134   5.584   4.825
 9112TIP3    H227278   0.128   5.446   4.888
 9113TIP3   OH227279   7.479   3.411   6.290
 9113TIP3    H127280   7.565   3.450   6.271
 9113TIP3    H227281   7.496   3.345   6.357
 9114TIP3   OH227282   3.332   4.480   5.161
 9114TIP3    H127283   3.274   4.404   5.174
 9114TIP3    H227284   3.398   4.472   5.230
 9115TIP3   OH227285   0.552   2.699   0.163
 9115TIP3    H127286   0.562   2.630   0.097
 9115TIP3    H227287   0.537   2.653   0.245
 9116TIP3   OH227288   3.852   0.574   2.940
 9116TIP3    H127289   3.881   0.492   2.978
 9116TIP3    H227290   3.895   0.642   2.992
 9117TIP3   OH227291   0.215   7.859   4.169
 9117TIP3    H127292   0.269   7.870   4.091
 9117TIP3    H227293   0.264   7.903   4.239
 9118TIP3   OH227294   8.367   7.354   1.274
 9118TIP3    H127295   8.343   7.316   1.189
 9118TIP3    H227296   8.426   7.290   1.314
 9119TIP3   OH227297   6.431   4.396   6.377
 9119TIP3    H127298   6.496   4.328   6.397
 9119TIP3    H227299   6.484   4.474   6.356
 9120TIP3   OH227300   4.211   5.131   6.177
 9120TIP3    H127301   4.217   5.055   6.235
 9120TIP3    H227302   4.164   5.098   6.100
 9121TIP3   OH227303   7.937   2.966   4.184
 9121TIP3    H127304   8.012   3.006   4.229
 9121TIP3    H227305   7.950   2.988   4.092
 9122TIP3   OH227306   7.862   0.094   6.197
 9122TIP3    H127307   7.953   0.119   6.179
 9122TIP3    H227308   7.848   0.121   6.288
 9123TIP3   OH227309   1.485   5.954   6.652
 9123TIP3    H127310   1.500   5.935   6.559
 9123TIP3    H227311   1.565   5.997   6.681
 9124TIP3   OH227312   1.925   5.221   6.427
 9124TIP3    H127313   1.858   5.202   6.492
 9124TIP3    H227314   1.884   5.284   6.368
 9125TIP3   OH227315   5.850   5.103   2.743
 9125TIP3    H127316   5.924   5.076   2.688
 9125TIP3    H227317   5.795   5.025   2.748
 9126TIP3   OH227318   6.720   6.584   5.391
 9126TIP3    H127319   6.799   6.547   5.353
 9126TIP3    H227320   6.751   6.645   5.457
 9127TIP3   OH227321   5.593   1.760   4.061
 9127TIP3    H127322   5.657   1.764   4.133
 9127TIP3    H227323   5.542   1.681   4.080
 9128TIP3   OH227324   1.092   7.692   1.883
 9128TIP3    H127325   1.039   7.639   1.825
 9128TIP3    H227326   1.055   7.678   1.970
 9129TIP3   OH227327   4.394   4.148   5.316
 9129TIP3    H127328   4.358   4.214   5.374
 9129TIP3    H227329   4.424   4.078   5.374
 9130TIP3   OH227330   4.183   2.849   4.148
 9130TIP3    H127331   4.169   2.935   4.190
 9130TIP3    H227332   4.233   2.799   4.212
 9131TIP3   OH227333   2.239   6.969   6.652
 9131TIP3    H127334   2.163   6.913   6.669
 9131TIP3    H227335   2.246   6.973   6.557
 9132TIP3   OH227336   1.279   3.732   1.094
 9132TIP3    H127337   1.215   3.781   1.146
 9132TIP3    H227338   1.262   3.640   1.116
 9133TIP3   OH227339   6.566   0.706   5.586
 9133TIP3    H127340   6.473   0.689   5.605
 9133TIP3    H227341   6.613   0.666   5.659
 9134TIP3   OH227342   7.146   5.590   6.338
 9134TIP3    H127343   7.082   5.646   6.294
 9134TIP3    H227344   7.104   5.566   6.421
 9135TIP3   OH227345   2.669   5.797   1.990
 9135TIP3    H127346   2.720   5.860   1.939
 9135TIP3    H227347   2.717   5.715   1.983
 9136TIP3   OH227348   7.508   0.206   1.529
 9136TIP3    H127349   7.502   0.247   1.443
 9136TIP3    H227350   7.591   0.238   1.565
 9137TIP3   OH227351   6.991   7.503   4.841
 9137TIP3    H127352   6.987   7.566   4.913
 9137TIP3    H227353   7.019   7.421   4.882
 9138TIP3   OH227354   8.124   6.318   2.828
 9138TIP3    H127355   8.182   6.393   2.842
 9138TIP3    H227356   8.168   6.245   2.871
 9139TIP3   OH227357   3.259   3.267   5.097
 9139TIP3    H127358   3.186   3.205   5.091
 9139TIP3    H227359   3.304   3.258   5.013
 9140TIP3   OH227360   7.858   6.783   0.164
 9140TIP3    H127361   7.942   6.825   0.180
 9140TIP3    H227362   7.814   6.840   0.100
 9141TIP3   OH227363   7.531   6.411   4.575
 9141TIP3    H127364   7.504   6.429   4.485
 9141TIP3    H227365   7.553   6.497   4.611
 9142TIP3   OH227366   0.942   3.479   5.459
 9142TIP3    H127367   0.875   3.482   5.391
 9142TIP3    H227368   0.894   3.463   5.540
 9143TIP3   OH227369   5.038   5.102   1.925
 9143TIP3    H127370   4.968   5.082   1.863
 9143TIP3    H227371   5.045   5.023   1.980
 9144TIP3   OH227372   3.293   1.718   5.069
 9144TIP3    H127373   3.301   1.813   5.072
 9144TIP3    H227374   3.212   1.699   5.116
 9145TIP3   OH227375   8.155   2.316   5.626
 9145TIP3    H127376   8.175   2.303   5.718
 9145TIP3    H227377   8.070   2.275   5.614
 9146TIP3   OH227378   4.447   7.419   0.576
 9146TIP3    H127379   4.471   7.326   0.576
 9146TIP3    H227380   4.391   7.430   0.499
 9147TIP3   OH227381   0.466   6.021   1.093
 9147TIP3    H127382   0.559   6.017   1.117
 9147TIP3    H227383   0.448   5.937   1.052
 9148TIP3   OH227384   0.349   5.295   2.262
 9148TIP3    H127385   0.348   5.222   2.324
 9148TIP3    H227386   0.355   5.373   2.316
 9149TIP3   OH227387   1.183   5.989   3.786
 9149TIP3    H127388   1.162   5.910   3.835
 9149TIP3    H227389   1.263   5.967   3.738
 9150TIP3   OH227390   1.022   2.482   3.754
 9150TIP3    H127391   1.039   2.549   3.687
 9150TIP3    H227392   0.961   2.422   3.712
 9151TIP3   OH227393   2.729   2.027   1.487
 9151TIP3    H127394   2.813   2.071   1.475
 9151TIP3    H227395   2.663   2.093   1.463
 9152TIP3   OH227396   0.344   2.606   0.998
 9152TIP3    H127397   0.267   2.623   0.944
 9152TIP3    H227398   0.387   2.691   1.007
 9153TIP3   OH227399   6.306   4.588   3.599
 9153TIP3    H127400   6.390   4.545   3.616
 9153TIP3    H227401   6.329   4.664   3.545
 9154TIP3   OH227402   4.237   1.015   4.043
 9154TIP3    H127403   4.171   1.077   4.012
 9154TIP3    H227404   4.320   1.049   4.008
 9155TIP3   OH227405   1.644   7.464   5.035
 9155TIP3    H127406   1.607   7.438   5.120
 9155TIP3    H227407   1.717   7.522   5.058
 9156TIP3   OH227408   3.957   7.510   1.558
 9156TIP3    H127409   3.868   7.492   1.529
 9156TIP3    H227410   3.961   7.476   1.647
 9157TIP3   OH227411   7.497   4.218   1.941
 9157TIP3    H127412   7.566   4.155   1.965
 9157TIP3    H227413   7.531   4.261   1.863
 9158TIP3   OH227414   0.541   2.983   3.101
 9158TIP3    H127415   0.504   3.038   3.031
 9158TIP3    H227416   0.489   3.004   3.178
 9159TIP3   OH227417   4.589   6.192   4.028
 9159TIP3    H127418   4.612   6.181   4.121
 9159TIP3    H227419   4.627   6.116   3.985
 9160TIP3   OH227420   7.445   2.652   1.063
 9160TIP3    H127421   7.376   2.648   0.996
 9160TIP3    H227422   7.460   2.561   1.088
 9161TIP3   OH227423   2.178   1.615   4.326
 9161TIP3    H127424   2.185   1.604   4.231
 9161TIP3    H227425   2.266   1.596   4.359
 9162TIP3   OH227426   7.305   0.565   0.131
 9162TIP3    H127427   7.330   0.510   0.056
 9162TIP3    H227428   7.384   0.570   0.184
 9163TIP3   OH227429   3.978   3.818   4.196
 9163TIP3    H127430   3.943   3.898   4.235
 9163TIP3    H227431   3.956   3.749   4.259
 9164TIP3   OH227432   7.158   3.611   0.470
 9164TIP3    H127433   7.120   3.577   0.551
 9164TIP3    H227434   7.223   3.545   0.445
 9165TIP3   OH227435   2.092   6.603   5.192
 9165TIP3    H127436   2.074   6.685   5.147
 9165TIP3    H227437   2.186   6.607   5.212
 9166TIP3   OH227438   1.335   1.466   5.889
 9166TIP3    H127439   1.407   1.436   5.833
 9166TIP3    H227440   1.378   1.508   5.963
 9167TIP3   OH227441   7.888   6.029   4.554
 9167TIP3    H127442   7.819   5.964   4.541
 9167TIP3    H227443   7.927   6.006   4.639
 9168TIP3   OH227444   3.596   4.637   1.128
 9168TIP3    H127445   3.631   4.723   1.103
 9168TIP3    H227446   3.645   4.575   1.075
 9169TIP3   OH227447   3.394   2.509   6.396
 9169TIP3    H127448   3.422   2.506   6.304
 9169TIP3    H227449   3.434   2.432   6.435
 9170TIP3   OH227450   2.602   1.285   4.500
 9170TIP3    H127451   2.508   1.304   4.492
 9170TIP3    H227452   2.605   1.198   4.539
 9171TIP3   OH227453   1.482   4.868   4.049
 9171TIP3    H127454   1.460   4.924   4.123
 9171TIP3    H227455   1.461   4.779   4.079
 9172TIP3   OH227456   4.424   1.437   4.982
 9172TIP3    H127457   4.382   1.473   5.061
 9172TIP3    H227458   4.437   1.345   5.002
 9173TIP3   OH227459   0.320   6.235   1.194
 9173TIP3    H127460   0.369   6.162   1.156
 9173TIP3    H227461   0.360   6.249   1.280
 9174TIP3   OH227462   8.045   6.995   1.160
 9174TIP3    H127463   8.094   7.021   1.081
 9174TIP3    H227464   7.981   7.065   1.172
 9175TIP3   OH227465   0.991   4.458   1.465
 9175TIP3    H127466   0.997   4.553   1.456
 9175TIP3    H227467   1.071   4.433   1.511
 9176TIP3   OH227468   2.190   4.844   2.433
 9176TIP3    H127469   2.281   4.847   2.404
 9176TIP3    H227470   2.139   4.866   2.355
 9177TIP3   OH227471   0.978   3.830   3.857
 9177TIP3    H127472   0.916   3.792   3.920
 9177TIP3    H227473   0.991   3.761   3.792
 9178TIP3   OH227474   6.860   4.306   5.154
 9178TIP3    H127475   6.911   4.352   5.221
 9178TIP3    H227476   6.770   4.315   5.183
 9179TIP3   OH227477   3.483   7.313   5.330
 9179TIP3    H127478   3.422   7.261   5.384
 9179TIP3    H227479   3.454   7.297   5.240
 9180TIP3   OH227480   4.991   0.265   2.220
 9180TIP3    H127481   5.000   0.321   2.296
 9180TIP3    H227482   4.932   0.312   2.161
 9181TIP3   OH227483   6.836   4.048   4.137
 9181TIP3    H127484   6.914   4.044   4.192
 9181TIP3    H227485   6.768   4.084   4.194
 9182TIP3   OH227486   7.146   3.370   6.442
 9182TIP3    H127487   7.133   3.329   6.356
 9182TIP3    H227488   7.158   3.297   6.502
 9183TIP3   OH227489   8.295   1.474   5.225
 9183TIP3    H127490   8.243   1.409   5.274
 9183TIP3    H227491   8.381   1.433   5.217
 9184TIP3   OH227492   7.483   2.265   2.591
 9184TIP3    H127493   7.509   2.200   2.526
 9184TIP3    H227494   7.399   2.232   2.626
 9185TIP3   OH227495   6.617   6.749   4.799
 9185TIP3    H127496   6.616   6.812   4.870
 9185TIP3    H227497   6.587   6.667   4.839
 9186TIP3   OH227498   6.392   1.472   4.403
 9186TIP3    H127499   6.476   1.497   4.365
 9186TIP3    H227500   6.391   1.515   4.488
 9187TIP3   OH227501   7.933   1.464   1.769
 9187TIP3    H127502   7.951   1.381   1.812
 9187TIP3    H227503   7.981   1.460   1.687
 9188TIP3   OH227504   7.159   1.405   2.184
 9188TIP3    H127505   7.227   1.472   2.179
 9188TIP3    H227506   7.161   1.375   2.275
 9189TIP3   OH227507   4.063   6.903   2.719
 9189TIP3    H127508   4.058   6.871   2.629
 9189TIP3    H227509   4.135   6.966   2.718
 9190TIP3   OH227510   2.639   1.751   3.092
 9190TIP3    H127511   2.625   1.836   3.132
 9190TIP3    H227512   2.667   1.694   3.163
 9191TIP3   OH227513   5.854   0.923   6.823
 9191TIP3    H127514   5.877   1.013   6.800
 9191TIP3    H227515   5.896   0.870   6.756
 9192TIP3   OH227516   8.106   2.958   5.637
 9192TIP3    H127517   8.083   2.940   5.728
 9192TIP3    H227518   8.090   2.875   5.592
 9193TIP3   OH227519   5.112   0.860   1.743
 9193TIP3    H127520   5.174   0.856   1.670
 9193TIP3    H227521   5.047   0.794   1.722
 9194TIP3   OH227522   5.796   2.218   3.443
 9194TIP3    H127523   5.808   2.269   3.523
 9194TIP3    H227524   5.864   2.151   3.447
 9195TIP3   OH227525   0.674   3.285   6.324
 9195TIP3    H127526   0.702   3.194   6.312
 9195TIP3    H227527   0.609   3.281   6.394
 9196TIP3   OH227528   4.908   6.509   2.467
 9196TIP3    H127529   5.002   6.492   2.474
 9196TIP3    H227530   4.880   6.527   2.557
 9197TIP3   OH227531   4.585   7.583   1.211
 9197TIP3    H127532   4.637   7.505   1.230
 9197TIP3    H227533   4.504   7.549   1.174
 9198TIP3   OH227534   5.147   3.921   5.700
 9198TIP3    H127535   5.100   3.997   5.667
 9198TIP3    H227536   5.144   3.857   5.629
 9199TIP3   OH227537   0.360   7.167   2.651
 9199TIP3    H127538   0.419   7.094   2.633
 9199TIP3    H227539   0.276   7.126   2.672
 9200TIP3   OH227540   3.402   3.467   5.222
 9200TIP3    H127541   3.350   3.406   5.171
 9200TIP3    H227542   3.429   3.418   5.300
 9201TIP3   OH227543   6.754   7.564   2.310
 9201TIP3    H127544   6.661   7.572   2.332
 9201TIP3    H227545   6.800   7.588   2.390
 9202TIP3   OH227546   4.099   2.481   3.224
 9202TIP3    H127547   4.136   2.559   3.265
 9202TIP3    H227548   4.028   2.515   3.169
 9203TIP3   OH227549   1.304   7.147   6.644
 9203TIP3    H127550   1.252   7.096   6.706
 9203TIP3    H227551   1.282   7.110   6.558
 9204TIP3   OH227552   0.634   0.617   2.706
 9204TIP3    H127553   0.712   0.586   2.660
 9204TIP3    H227554   0.595   0.538   2.744
 9205TIP3   OH227555   6.313   5.584   1.108
 9205TIP3    H127556   6.383   5.599   1.044
 9205TIP3    H227557   6.265   5.508   1.074
 9206TIP3   OH227558   6.168   4.071   5.151
 9206TIP3    H127559   6.173   4.047   5.058
 9206TIP3    H227560   6.161   3.987   5.197
 9207TIP3   OH227561   2.076   4.195   0.153
 9207TIP3    H127562   2.130   4.135   0.204
 9207TIP3    H227563   2.138   4.258   0.116
 9208TIP3   OH227564   4.950   1.560   5.702
 9208TIP3    H127565   5.030   1.611   5.710
 9208TIP3    H227566   4.950   1.503   5.780
 9209TIP3   OH227567   0.949   4.663   3.892
 9209TIP3    H127568   0.984   4.672   3.804
 9209TIP3    H227569   0.908   4.748   3.910
 9210TIP3   OH227570   7.322   2.677   5.609
 9210TIP3    H127571   7.233   2.669   5.644
 9210TIP3    H227572   7.379   2.653   5.681
 9211TIP3   OH227573   0.582   5.918   3.110
 9211TIP3    H127574   0.548   6.006   3.097
 9211TIP3    H227575   0.634   5.923   3.190
 9212TIP3   OH227576   7.594   6.983   4.666
 9212TIP3    H127577   7.674   7.032   4.685
 9212TIP3    H227578   7.535   7.047   4.626
 9213TIP3   OH227579   3.453   5.701   4.776
 9213TIP3    H127580   3.500   5.638   4.830
 9213TIP3    H227581   3.367   5.708   4.817
 9214TIP3   OH227582   5.810   3.939   1.010
 9214TIP3    H127583   5.785   4.007   0.948
 9214TIP3    H227584   5.767   3.860   0.978
 9215TIP3   OH227585   7.928   7.327   5.195
 9215TIP3    H127586   7.995   7.279   5.245
 9215TIP3    H227587   7.979   7.381   5.135
 9216TIP3   OH227588   1.735   3.235   0.242
 9216TIP3    H127589   1.716   3.294   0.169
 9216TIP3    H227590   1.821   3.198   0.222
 9217TIP3   OH227591   7.179   1.168   4.118
 9217TIP3    H127592   7.190   1.117   4.198
 9217TIP3    H227593   7.094   1.210   4.127
 9218TIP3   OH227594   6.502   2.304   3.594
 9218TIP3    H127595   6.527   2.386   3.638
 9218TIP3    H227596   6.407   2.310   3.586
 9219TIP3   OH227597   4.879   2.943   3.734
 9219TIP3    H127598   4.810   2.915   3.794
 9219TIP3    H227599   4.961   2.920   3.778
 9220TIP3   OH227600   1.449   7.433   3.022
 9220TIP3    H127601   1.471   7.416   3.114
 9220TIP3    H227602   1.402   7.354   2.993
 9221TIP3   OH227603   6.130   4.893   0.644
 9221TIP3    H127604   6.166   4.815   0.688
 9221TIP3    H227605   6.177   4.897   0.561
 9222TIP3   OH227606   6.908   3.827   4.002
 9222TIP3    H127607   6.897   3.912   4.043
 9222TIP3    H227608   6.936   3.847   3.913
 9223TIP3   OH227609   1.784   2.115   0.250
 9223TIP3    H127610   1.843   2.176   0.206
 9223TIP3    H227611   1.825   2.098   0.335
 9224TIP3   OH227612   5.744   2.408   5.321
 9224TIP3    H127613   5.837   2.418   5.337
 9224TIP3    H227614   5.706   2.493   5.343
 9225TIP3   OH227615   2.152   6.187   2.061
 9225TIP3    H127616   2.222   6.197   2.125
 9225TIP3    H227617   2.112   6.274   2.056
 9226TIP3   OH227618   6.936   0.384   2.147
 9226TIP3    H127619   6.928   0.471   2.187
 9226TIP3    H227620   7.027   0.381   2.116
 9227TIP3   OH227621   3.442   0.950   3.298
 9227TIP3    H127622   3.517   0.969   3.242
 9227TIP3    H227623   3.479   0.936   3.385
 9228TIP3   OH227624   0.543   0.530   6.432
 9228TIP3    H127625   0.514   0.615   6.401
 9228TIP3    H227626   0.633   0.521   6.400
 9229TIP3   OH227627   5.538   0.564   4.587
 9229TIP3    H127628   5.545   0.646   4.538
 9229TIP3    H227629   5.503   0.590   4.672
 9230TIP3   OH227630   7.886   0.048   3.776
 9230TIP3    H127631   7.826   0.091   3.715
 9230TIP3    H227632   7.845  -0.035   3.797
 9231TIP3   OH227633   0.156   3.557   3.319
 9231TIP3    H127634   0.175   3.484   3.377
 9231TIP3    H227635   0.239   3.605   3.313
 9232TIP3   OH227636   6.410   3.092   5.827
 9232TIP3    H127637   6.380   3.183   5.822
 9232TIP3    H227638   6.462   3.079   5.748
 9233TIP3   OH227639   2.706   5.718   3.937
 9233TIP3    H127640   2.615   5.690   3.937
 9233TIP3    H227641   2.751   5.654   3.882
 9234TIP3   OH227642   7.881   5.604   4.688
 9234TIP3    H127643   7.946   5.673   4.678
 9234TIP3    H227644   7.808   5.632   4.633
 9235TIP3   OH227645   8.217   5.890   1.894
 9235TIP3    H127646   8.255   5.833   1.961
 9235TIP3    H227647   8.123   5.882   1.906
 9236TIP3   OH227648   2.757   0.010   4.839
 9236TIP3    H127649   2.834   0.034   4.788
 9236TIP3    H227650   2.789   0.001   4.929
 9237TIP3   OH227651   7.927   4.077   1.238
 9237TIP3    H127652   7.861   4.008   1.230
 9237TIP3    H227653   7.896   4.146   1.180
 9238TIP3   OH227654   8.077   6.419   5.611
 9238TIP3    H127655   8.077   6.510   5.580
 9238TIP3    H227656   7.985   6.400   5.629
 9239TIP3   OH227657   8.344   6.902   1.693
 9239TIP3    H127658   8.314   6.960   1.763
 9239TIP3    H227659   8.423   6.945   1.659
 9240TIP3   OH227660   5.393   4.071   5.624
 9240TIP3    H127661   5.452   4.091   5.697
 9240TIP3    H227662   5.345   3.993   5.653
 9241TIP3   OH227663   6.807   7.783   6.755
 9241TIP3    H127664   6.724   7.801   6.710
 9241TIP3    H227665   6.803   7.691   6.779
 9242TIP3   OH227666   1.645   5.440   0.104
 9242TIP3    H127667   1.693   5.518   0.132
 9242TIP3    H227668   1.619   5.459   0.014
 9243TIP3   OH227669   0.785   5.498   2.921
 9243TIP3    H127670   0.861   5.521   2.868
 9243TIP3    H227671   0.793   5.554   2.999
 9244TIP3   OH227672   3.160   0.605   2.962
 9244TIP3    H127673   3.182   0.560   2.880
 9244TIP3    H227674   3.205   0.555   3.030
 9245TIP3   OH227675   7.971   7.430   4.952
 9245TIP3    H127676   7.892   7.436   4.898
 9245TIP3    H227677   8.016   7.352   4.921
 9246TIP3   OH227678   0.891   7.843   6.256
 9246TIP3    H127679   0.936   7.765   6.289
 9246TIP3    H227680   0.875   7.824   6.164
 9247TIP3   OH227681   7.715   7.769   6.355
 9247TIP3    H127682   7.627   7.799   6.331
 9247TIP3    H227683   7.709   7.751   6.449
 9248TIP3   OH227684   3.784   7.116   0.797
 9248TIP3    H127685   3.858   7.128   0.856
 9248TIP3    H227686   3.720   7.066   0.849
 9249TIP3   OH227687   7.940   6.476   1.166
 9249TIP3    H127688   7.892   6.431   1.097
 9249TIP3    H227689   8.014   6.517   1.120
 9250TIP3   OH227690   4.119   2.486   6.727
 9250TIP3    H127691   4.183   2.472   6.657
 9250TIP3    H227692   4.058   2.550   6.691
 9251TIP3   OH227693   2.301   2.096   0.862
 9251TIP3    H127694   2.330   2.163   0.924
 9251TIP3    H227695   2.210   2.119   0.842
 9252TIP3   OH227696   5.820   4.827   3.180
 9252TIP3    H127697   5.784   4.785   3.258
 9252TIP3    H227698   5.745   4.873   3.142
 9253TIP3   OH227699   7.150   5.321   3.716
 9253TIP3    H127700   7.127   5.365   3.797
 9253TIP3    H227701   7.194   5.387   3.663
 9254TIP3   OH227702   6.390   0.406   1.741
 9254TIP3    H127703   6.359   0.430   1.829
 9254TIP3    H227704   6.448   0.478   1.715
 9255TIP3   OH227705   2.141   2.472   3.071
 9255TIP3    H127706   2.128   2.390   3.022
 9255TIP3    H227707   2.211   2.452   3.133
 9256TIP3   OH227708   1.264   1.896   3.856
 9256TIP3    H127709   1.248   1.989   3.872
 9256TIP3    H227710   1.336   1.873   3.915
 9257TIP3   OH227711   4.088   6.400   2.086
 9257TIP3    H127712   4.004   6.435   2.054
 9257TIP3    H227713   4.070   6.308   2.105
 9258TIP3   OH227714   6.505   3.839   5.368
 9258TIP3    H127715   6.565   3.903   5.406
 9258TIP3    H227716   6.523   3.842   5.274
 9259TIP3   OH227717   8.107   0.293   5.240
 9259TIP3    H127718   8.103   0.362   5.174
 9259TIP3    H227719   8.015   0.279   5.265
 9260TIP3   OH227720   3.238   0.626   6.096
 9260TIP3    H127721   3.148   0.644   6.121
 9260TIP3    H227722   3.266   0.706   6.051
 9261TIP3   OH227723   3.192   2.137   4.307
 9261TIP3    H127724   3.190   2.079   4.231
 9261TIP3    H227725   3.270   2.191   4.295
 9262TIP3   OH227726   3.518   1.284   1.346
 9262TIP3    H127727   3.472   1.304   1.264
 9262TIP3    H227728   3.458   1.225   1.392
 9263TIP3   OH227729   6.321   1.630   6.110
 9263TIP3    H127730   6.241   1.663   6.069
 9263TIP3    H227731   6.392   1.662   6.054
 9264TIP3   OH227732   7.405   7.209   0.662
 9264TIP3    H127733   7.424   7.138   0.723
 9264TIP3    H227734   7.313   7.230   0.677
 9265TIP3   OH227735   1.259   6.346   3.888
 9265TIP3    H127736   1.233   6.290   3.815
 9265TIP3    H227737   1.285   6.429   3.846
 9266TIP3   OH227738   5.806   3.544   2.086
 9266TIP3    H127739   5.799   3.626   2.038
 9266TIP3    H227740   5.719   3.532   2.125
 9267TIP3   OH227741   5.822   4.184   4.492
 9267TIP3    H127742   5.736   4.209   4.460
 9267TIP3    H227743   5.849   4.256   4.549
 9268TIP3   OH227744   7.963   6.152   2.313
 9268TIP3    H127745   7.942   6.099   2.390
 9268TIP3    H227746   8.059   6.159   2.314
 9269TIP3   OH227747   6.386   0.048   2.894
 9269TIP3    H127748   6.358  -0.044   2.895
 9269TIP3    H227749   6.381   0.072   2.801
 9270TIP3   OH227750   0.961   4.857   5.255
 9270TIP3    H127751   1.017   4.870   5.178
 9270TIP3    H227752   0.961   4.942   5.298
 9271TIP3   OH227753   6.606   5.399   1.650
 9271TIP3    H127754   6.623   5.436   1.563
 9271TIP3    H227755   6.606   5.304   1.636
 9272TIP3   OH227756   2.580   7.131   2.698
 9272TIP3    H127757   2.522   7.113   2.772
 9272TIP3    H227758   2.521   7.154   2.627
 9273TIP3   OH227759   2.613   1.092   6.737
 9273TIP3    H127760   2.689   1.056   6.783
 9273TIP3    H227761   2.547   1.105   6.804
 9274TIP3   OH227762   0.259   4.006   0.671
 9274TIP3    H127763   0.259   4.075   0.605
 9274TIP3    H227764   0.183   4.024   0.726
 9275TIP3   OH227765   3.573   6.321   6.847
 9275TIP3    H127766   3.613   6.406   6.863
 9275TIP3    H227767   3.551   6.288   6.934
 9276TIP3   OH227768   3.153   3.484   1.663
 9276TIP3    H127769   3.071   3.494   1.615
 9276TIP3    H227770   3.201   3.418   1.613
 9277TIP3   OH227771   7.935   4.078   1.991
 9277TIP3    H127772   7.866   4.131   1.951
 9277TIP3    H227773   7.891   3.999   2.021
 9278TIP3   OH227774   3.614   0.100   3.220
 9278TIP3    H127775   3.616   0.139   3.307
 9278TIP3    H227776   3.620   0.175   3.160
 9279TIP3   OH227777   3.527   4.405   5.346
 9279TIP3    H127778   3.510   4.373   5.434
 9279TIP3    H227779   3.559   4.495   5.359
 9280TIP3   OH227780   6.189   0.558   3.535
 9280TIP3    H127781   6.203   0.468   3.564
 9280TIP3    H227782   6.185   0.609   3.616
 9281TIP3   OH227783   5.363   5.975   0.370
 9281TIP3    H127784   5.292   6.000   0.428
 9281TIP3    H227785   5.335   5.892   0.331
 9282TIP3   OH227786   0.214   7.337   0.739
 9282TIP3    H127787   0.216   7.335   0.643
 9282TIP3    H227788   0.171   7.256   0.764
 9283TIP3   OH227789   6.136   5.076   6.201
 9283TIP3    H127790   6.201   5.112   6.261
 9283TIP3    H227791   6.054   5.120   6.227
 9284TIP3   OH227792   3.563   7.371   4.183
 9284TIP3    H127793   3.491   7.433   4.181
 9284TIP3    H227794   3.641   7.424   4.168
 9285TIP3   OH227795   3.849   2.729   6.811
 9285TIP3    H127796   3.909   2.775   6.870
 9285TIP3    H227797   3.848   2.639   6.843
 9286TIP3   OH227798   4.474   7.877   2.392
 9286TIP3    H127799   4.419   7.842   2.322
 9286TIP3    H227800   4.558   7.894   2.349
 9287TIP3   OH227801   3.746   6.375   3.439
 9287TIP3    H127802   3.754   6.281   3.426
 9287TIP3    H227803   3.774   6.413   3.355
 9288TIP3   OH227804   5.424   7.467   3.832
 9288TIP3    H127805   5.361   7.530   3.868
 9288TIP3    H227806   5.425   7.484   3.738
 9289TIP3   OH227807   0.830   3.542   2.508
 9289TIP3    H127808   0.754   3.517   2.455
 9289TIP3    H227809   0.867   3.460   2.539
 9290TIP3   OH227810   6.801   1.534   3.531
 9290TIP3    H127811   6.773   1.620   3.561
 9290TIP3    H227812   6.895   1.532   3.548
 9291TIP3   OH227813   0.701   2.594   4.625
 9291TIP3    H127814   0.696   2.554   4.711
 9291TIP3    H227815   0.643   2.669   4.629
 9292TIP3   OH227816   0.977   3.770   6.093
 9292TIP3    H127817   1.055   3.823   6.080
 9292TIP3    H227818   1.009   3.681   6.105
 9293TIP3   OH227819   8.028   6.400   4.366
 9293TIP3    H127820   8.106   6.351   4.392
 9293TIP3    H227821   7.962   6.379   4.433
 9294TIP3   OH227822   6.374   6.320   2.735
 9294TIP3    H127823   6.465   6.344   2.754
 9294TIP3    H227824   6.380   6.262   2.659
 9295TIP3   OH227825   4.661   2.894   1.404
 9295TIP3    H127826   4.685   2.946   1.481
 9295TIP3    H227827   4.708   2.811   1.415
 9296TIP3   OH227828   5.614   4.962   2.076
 9296TIP3    H127829   5.644   4.902   2.007
 9296TIP3    H227830   5.519   4.968   2.063
 9297TIP3   OH227831   5.373   0.683   5.629
 9297TIP3    H127832   5.371   0.652   5.719
 9297TIP3    H227833   5.296   0.740   5.622
 9298TIP3   OH227834   7.435   7.659   3.216
 9298TIP3    H127835   7.419   7.637   3.125
 9298TIP3    H227836   7.434   7.575   3.262
 9299TIP3   OH227837   1.425   3.377   6.600
 9299TIP3    H127838   1.343   3.361   6.646
 9299TIP3    H227839   1.468   3.291   6.598
 9300TIP3   OH227840   2.598   0.553   3.702
 9300TIP3    H127841   2.636   0.466   3.686
 9300TIP3    H227842   2.671   0.606   3.734
 9301TIP3   OH227843   3.395   5.685   2.426
 9301TIP3    H127844   3.364   5.687   2.517
 9301TIP3    H227845   3.382   5.595   2.398
 9302TIP3   OH227846   6.195   3.252   3.932
 9302TIP3    H127847   6.147   3.232   4.013
 9302TIP3    H227848   6.181   3.175   3.877
 9303TIP3   OH227849   0.989   3.023   6.685
 9303TIP3    H127850   0.947   2.984   6.761
 9303TIP3    H227851   1.054   2.958   6.657
 9304TIP3   OH227852  -0.028   7.485   6.260
 9304TIP3    H127853  -0.036   7.536   6.179
 9304TIP3    H227854   0.037   7.418   6.240
 9305TIP3   OH227855   7.874   6.666   6.346
 9305TIP3    H127856   7.895   6.759   6.346
 9305TIP3    H227857   7.825   6.652   6.427
 9306TIP3   OH227858   0.069   6.523   6.055
 9306TIP3    H127859   0.142   6.556   6.107
 9306TIP3    H227860   0.000   6.505   6.118
 9307TIP3   OH227861   4.044   7.210   1.201
 9307TIP3    H127862   4.138   7.197   1.208
 9307TIP3    H227863   4.013   7.214   1.292
 9308TIP3   OH227864   1.033   4.110   4.720
 9308TIP3    H127865   1.076   4.095   4.635
 9308TIP3    H227866   1.088   4.175   4.763
 9309TIP3   OH227867   5.105   4.014   3.343
 9309TIP3    H127868   5.154   4.089   3.308
 9309TIP3    H227869   5.109   4.026   3.438
 9310TIP3   OH227870   3.546   5.320   3.146
 9310TIP3    H127871   3.629   5.332   3.100
 9310TIP3    H227872   3.537   5.399   3.200
 9311TIP3   OH227873   7.502   1.898   4.056
 9311TIP3    H127874   7.582   1.887   4.005
 9311TIP3    H227875   7.533   1.923   4.143
 9312TIP3   OH227876   6.470   1.867   1.029
 9312TIP3    H127877   6.535   1.865   0.959
 9312TIP3    H227878   6.521   1.874   1.109
 9313TIP3   OH227879   1.100   7.354   6.469
 9313TIP3    H127880   1.053   7.432   6.440
 9313TIP3    H227881   1.156   7.330   6.395
 9314TIP3   OH227882   7.487   2.785   0.135
 9314TIP3    H127883   7.398   2.821   0.133
 9314TIP3    H227884   7.475   2.692   0.157
 9315TIP3   OH227885   2.217   1.042   0.618
 9315TIP3    H127886   2.222   0.991   0.537
 9315TIP3    H227887   2.208   0.977   0.687
 9316TIP3   OH227888   2.139   6.557   4.395
 9316TIP3    H127889   2.176   6.496   4.331
 9316TIP3    H227890   2.102   6.628   4.341
 9317TIP3   OH227891   5.089   0.526   1.504
 9317TIP3    H127892   5.049   0.541   1.589
 9317TIP3    H227893   5.150   0.599   1.493
 9318TIP3   OH227894   7.713   3.792   6.502
 9318TIP3    H127895   7.680   3.857   6.564
 9318TIP3    H227896   7.661   3.805   6.423
 9319TIP3   OH227897   8.360   7.016   1.038
 9319TIP3    H127898   8.454   7.003   1.026
 9319TIP3    H227899   8.345   7.106   1.010
 9320TIP3   OH227900   6.587   2.451   5.017
 9320TIP3    H127901   6.661   2.392   4.998
 9320TIP3    H227902   6.552   2.474   4.931
 9321TIP3   OH227903   3.216   0.182   0.926
 9321TIP3    H127904   3.128   0.143   0.933
 9321TIP3    H227905   3.270   0.112   0.890
 9322TIP3   OH227906   0.828   1.203   5.474
 9322TIP3    H127907   0.757   1.146   5.443
 9322TIP3    H227908   0.903   1.144   5.481
 9323TIP3   OH227909   0.512   4.405   0.085
 9323TIP3    H127910   0.509   4.399   0.181
 9323TIP3    H227911   0.447   4.472   0.063
 9324TIP3   OH227912   5.430   4.300   6.119
 9324TIP3    H127913   5.371   4.224   6.120
 9324TIP3    H227914   5.396   4.357   6.188
 9325TIP3   OH227915   4.652   5.047  -0.005
 9325TIP3    H127916   4.560   5.065   0.016
 9325TIP3    H227917   4.700   5.120   0.035
 9326TIP3   OH227918   0.818   7.172   0.932
 9326TIP3    H127919   0.804   7.077   0.937
 9326TIP3    H227920   0.861   7.194   1.014
 9327TIP3   OH227921   6.783   0.780   4.981
 9327TIP3    H127922   6.724   0.771   5.056
 9327TIP3    H227923   6.725   0.802   4.907
 9328TIP3   OH227924   0.091   5.040   1.098
 9328TIP3    H127925   0.039   4.987   1.158
 9328TIP3    H227926   0.177   4.997   1.095
 9329TIP3   OH227927   8.310   6.945   3.995
 9329TIP3    H127928   8.234   6.915   4.045
 9329TIP3    H227929   8.380   6.884   4.019
 9330TIP3   OH227930   6.449   7.370   4.724
 9330TIP3    H127931   6.430   7.293   4.777
 9330TIP3    H227932   6.545   7.369   4.714
 9331TIP3   OH227933   5.667   2.144   5.325
 9331TIP3    H127934   5.692   2.110   5.411
 9331TIP3    H227935   5.685   2.238   5.331
 9332TIP3   OH227936   1.992   0.908   6.311
 9332TIP3    H127937   2.078   0.872   6.333
 9332TIP3    H227938   1.945   0.913   6.394
 9333TIP3   OH227939   1.360   5.784   4.718
 9333TIP3    H127940   1.455   5.769   4.719
 9333TIP3    H227941   1.343   5.835   4.797
 9334TIP3   OH227942   7.876   6.337   1.822
 9334TIP3    H127943   7.920   6.285   1.754
 9334TIP3    H227944   7.866   6.277   1.896
 9335TIP3   OH227945   0.234   4.561   2.685
 9335TIP3    H127946   0.202   4.605   2.764
 9335TIP3    H227947   0.179   4.484   2.676
 9336TIP3   OH227948   6.355   6.872   3.018
 9336TIP3    H127949   6.396   6.901   3.100
 9336TIP3    H227950   6.346   6.777   3.029
 9337TIP3   OH227951   1.093   0.550   2.789
 9337TIP3    H127952   1.167   0.489   2.787
 9337TIP3    H227953   1.053   0.535   2.875
 9338TIP3   OH227954   2.867   0.409   1.904
 9338TIP3    H127955   2.959   0.395   1.928
 9338TIP3    H227956   2.854   0.503   1.912
 9339TIP3   OH227957   1.124   2.759   5.301
 9339TIP3    H127958   1.040   2.774   5.257
 9339TIP3    H227959   1.103   2.761   5.394
 9340TIP3   OH227960   1.335   4.697   2.793
 9340TIP3    H127961   1.326   4.749   2.713
 9340TIP3    H227962   1.425   4.712   2.822
 9341TIP3   OH227963   1.522   5.850   1.854
 9341TIP3    H127964   1.520   5.759   1.883
 9341TIP3    H227965   1.615   5.869   1.839
 9342TIP3   OH227966   6.302   0.070   5.570
 9342TIP3    H127967   6.372   0.030   5.519
 9342TIP3    H227968   6.323   0.163   5.571
 9343TIP3   OH227969   3.040   7.388   2.730
 9343TIP3    H127970   3.013   7.477   2.751
 9343TIP3    H227971   3.057   7.390   2.636
 9344TIP3   OH227972   5.561   4.071   5.828
 9344TIP3    H127973   5.587   4.163   5.822
 9344TIP3    H227974   5.600   4.041   5.910
 9345TIP3   OH227975   0.551   0.021   4.458
 9345TIP3    H127976   0.646   0.030   4.467
 9345TIP3    H227977   0.530   0.067   4.377
 9346TIP3   OH227978   2.099   1.084   1.615
 9346TIP3    H127979   2.141   0.999   1.630
 9346TIP3    H227980   2.069   1.112   1.702
 9347TIP3   OH227981   5.774   7.608   2.168
 9347TIP3    H127982   5.795   7.610   2.075
 9347TIP3    H227983   5.728   7.525   2.180
 9348TIP3   OH227984   5.406   6.305   4.163
 9348TIP3    H127985   5.374   6.383   4.207
 9348TIP3    H227986   5.329   6.250   4.153
 9349TIP3   OH227987   2.374   3.100   2.409
 9349TIP3    H127988   2.400   3.191   2.399
 9349TIP3    H227989   2.279   3.100   2.397
 9350TIP3   OH227990   7.671   2.360   0.864
 9350TIP3    H127991   7.700   2.283   0.913
 9350TIP3    H227992   7.591   2.332   0.819
 9351TIP3   OH227993   5.864   2.553   4.901
 9351TIP3    H127994   5.899   2.555   4.990
 9351TIP3    H227995   5.772   2.529   4.912
 9352TIP3   OH227996   8.019   1.502   3.591
 9352TIP3    H127997   8.006   1.440   3.520
 9352TIP3    H227998   7.974   1.582   3.562
 9353TIP3   OH227999   6.670   6.543   3.338
 9353TIP3    H128000   6.747   6.489   3.354
 9353TIP3    H228001   6.596   6.482   3.347
 9354TIP3   OH228002   7.085   0.227   5.090
 9354TIP3    H128003   7.147   0.157   5.068
 9354TIP3    H228004   7.034   0.240   5.010
 9355TIP3   OH228005   1.812   0.717   1.014
 9355TIP3    H128006   1.795   0.806   1.047
 9355TIP3    H228007   1.892   0.725   0.962
 9356TIP3   OH228008   8.084   3.827   5.248
 9356TIP3    H128009   8.013   3.865   5.196
 9356TIP3    H228010   8.157   3.887   5.236
 9357TIP3   OH228011   1.484   5.417   3.558
 9357TIP3    H128012   1.475   5.348   3.493
 9357TIP3    H228013   1.577   5.414   3.583
 9358TIP3   OH228014   6.837   1.346   5.646
 9358TIP3    H128015   6.813   1.358   5.738
 9358TIP3    H228016   6.926   1.312   5.649
 9359TIP3   OH228017   4.927   7.822   4.346
 9359TIP3    H128018   4.936   7.820   4.442
 9359TIP3    H228019   4.963   7.737   4.317
 9360TIP3   OH228020   5.406   7.369   2.363
 9360TIP3    H128021   5.422   7.314   2.440
 9360TIP3    H228022   5.324   7.336   2.326
 9361TIP3   OH228023   1.600   7.561   2.529
 9361TIP3    H128024   1.561   7.647   2.542
 9361TIP3    H228025   1.695   7.578   2.530
 9362TIP3   OH228026   4.292   1.463   2.744
 9362TIP3    H128027   4.217   1.490   2.692
 9362TIP3    H228028   4.313   1.540   2.798
 9363TIP3   OH228029   0.913   1.504   6.519
 9363TIP3    H128030   0.898   1.423   6.470
 9363TIP3    H228031   1.007   1.502   6.540
 9364TIP3   OH228032   5.865   3.631   0.301
 9364TIP3    H128033   5.832   3.553   0.345
 9364TIP3    H228034   5.894   3.688   0.372
 9365TIP3   OH228035   4.232   0.888   2.844
 9365TIP3    H128036   4.238   0.850   2.757
 9365TIP3    H228037   4.229   0.813   2.903
 9366TIP3   OH228038   0.123   7.436   2.102
 9366TIP3    H128039   0.149   7.486   2.179
 9366TIP3    H228040   0.155   7.347   2.119
 9367TIP3   OH228041   4.542   4.534   2.542
 9367TIP3    H128042   4.499   4.458   2.504
 9367TIP3    H228043   4.564   4.589   2.467
 9368TIP3   OH228044   1.509   5.810   3.756
 9368TIP3    H128045   1.589   5.763   3.736
 9368TIP3    H228046   1.478   5.843   3.672
 9369TIP3   OH228047   2.563   7.788   0.696
 9369TIP3    H128048   2.635   7.784   0.633
 9369TIP3    H228049   2.603   7.827   0.774
 9370TIP3   OH228050   3.240   3.141   4.651
 9370TIP3    H128051   3.309   3.190   4.605
 9370TIP3    H228052   3.283   3.105   4.728
 9371TIP3   OH228053   5.762   6.002   4.347
 9371TIP3    H128054   5.692   5.936   4.343
 9371TIP3    H228055   5.717   6.082   4.376
 9372TIP3   OH228056   2.731   0.839   4.264
 9372TIP3    H128057   2.742   0.920   4.216
 9372TIP3    H228058   2.769   0.772   4.207
 9373TIP3   OH228059   0.105   7.299   3.159
 9373TIP3    H128060   0.132   7.298   3.251
 9373TIP3    H228061   0.016   7.336   3.161
 9374TIP3   OH228062   4.560   4.649   0.989
 9374TIP3    H128063   4.469   4.627   0.969
 9374TIP3    H228064   4.574   4.617   1.078
 9375TIP3   OH228065   5.999   5.507   1.281
 9375TIP3    H128066   6.068   5.445   1.257
 9375TIP3    H228067   5.996   5.569   1.208
 9376TIP3   OH228068   8.224   1.718   5.304
 9376TIP3    H128069   8.227   1.729   5.399
 9376TIP3    H228070   8.253   1.628   5.289
 9377TIP3   OH228071   7.480   7.854   0.366
 9377TIP3    H128072   7.540   7.832   0.295
 9377TIP3    H228073   7.535   7.890   0.435
 9378TIP3   OH228074   5.588   0.576   5.873
 9378TIP3    H128075   5.595   0.570   5.778
 9378TIP3    H228076   5.554   0.490   5.900
 9379TIP3   OH228077   6.178   7.137   1.830
 9379TIP3    H128078   6.217   7.055   1.798
 9379TIP3    H228079   6.087   7.115   1.848
 9380TIP3   OH228080   4.412   5.286   3.532
 9380TIP3    H128081   4.473   5.280   3.459
 9380TIP3    H228082   4.332   5.322   3.494
 9381TIP3   OH228083   2.602   2.787   4.757
 9381TIP3    H128084   2.665   2.858   4.758
 9381TIP3    H228085   2.655   2.708   4.764
 9382TIP3   OH228086   1.040   6.398   5.851
 9382TIP3    H128087   0.946   6.389   5.866
 9382TIP3    H228088   1.054   6.360   5.764
 9383TIP3   OH228089   0.571   2.283   3.354
 9383TIP3    H128090   0.518   2.298   3.276
 9383TIP3    H228091   0.588   2.371   3.388
 9384TIP3   OH228092   1.254   7.536   5.952
 9384TIP3    H128093   1.194   7.490   6.011
 9384TIP3    H228094   1.226   7.627   5.956
 9385TIP3   OH228095   7.348   5.805   6.195
 9385TIP3    H128096   7.336   5.735   6.131
 9385TIP3    H228097   7.400   5.765   6.265
 9386TIP3   OH228098   4.926   5.739   1.735
 9386TIP3    H128099   4.879   5.787   1.668
 9386TIP3    H228100   4.869   5.665   1.756
 9387TIP3   OH228101   3.122   1.857   5.454
 9387TIP3    H128102   3.160   1.772   5.478
 9387TIP3    H228103   3.028   1.844   5.464
 9388TIP3   OH228104   2.470   7.141   4.199
 9388TIP3    H128105   2.388   7.091   4.201
 9388TIP3    H228106   2.478   7.172   4.109
 9389TIP3   OH228107   1.325   1.251   4.114
 9389TIP3    H128108   1.293   1.167   4.079
 9389TIP3    H228109   1.316   1.242   4.209
 9390TIP3   OH228110   3.849   1.247   1.949
 9390TIP3    H128111   3.801   1.325   1.923
 9390TIP3    H228112   3.874   1.205   1.866
 9391TIP3   OH228113   7.380   3.229   0.187
 9391TIP3    H128114   7.377   3.319   0.218
 9391TIP3    H228115   7.307   3.222   0.125
 9392TIP3   OH228116   4.111   3.481   3.305
 9392TIP3    H128117   4.129   3.484   3.211
 9392TIP3    H228118   4.189   3.517   3.346
 9393TIP3   OH228119   5.207   0.142   6.270
 9393TIP3    H128120   5.165   0.203   6.330
 9393TIP3    H228121   5.188   0.056   6.307
 9394TIP3   OH228122   5.159   1.389   0.808
 9394TIP3    H128123   5.124   1.305   0.837
 9394TIP3    H228124   5.227   1.366   0.744
 9395TIP3   OH228125   2.079   2.424   5.931
 9395TIP3    H128126   2.124   2.418   6.015
 9395TIP3    H228127   2.021   2.499   5.941
 9396TIP3   OH228128   2.324   6.141   3.861
 9396TIP3    H128129   2.332   6.110   3.951
 9396TIP3    H228130   2.325   6.061   3.808
 9397TIP3   OH228131   6.392   5.504   6.171
 9397TIP3    H128132   6.331   5.454   6.117
 9397TIP3    H228133   6.344   5.584   6.192
 9398TIP3   OH228134   0.064   7.687   5.391
 9398TIP3    H128135   0.037   7.595   5.391
 9398TIP3    H228136   0.103   7.701   5.477
 9399TIP3   OH228137   0.022   7.613   0.527
 9399TIP3    H128138   0.073   7.612   0.608
 9399TIP3    H228139   0.087   7.596   0.458
 9400TIP3   OH228140   3.918   1.013   2.636
 9400TIP3    H128141   3.939   0.920   2.650
 9400TIP3    H228142   3.828   1.022   2.665
 9401TIP3   OH228143   3.097   5.892   6.311
 9401TIP3    H128144   3.150   5.845   6.246
 9401TIP3    H228145   3.008   5.860   6.296
 9402TIP3   OH228146   5.929   5.677   4.001
 9402TIP3    H128147   5.846   5.715   4.027
 9402TIP3    H228148   5.922   5.664   3.907
 9403TIP3   OH228149   2.556   0.760   1.649
 9403TIP3    H128150   2.542   0.743   1.742
 9403TIP3    H228151   2.606   0.684   1.618
 9404TIP3   OH228152   0.932   3.606   0.862
 9404TIP3    H128153   0.995   3.670   0.829
 9404TIP3    H228154   0.855   3.658   0.886
 9405TIP3   OH228155   0.877   6.803   6.356
 9405TIP3    H128156   0.897   6.893   6.380
 9405TIP3    H228157   0.962   6.759   6.354
 9406TIP3   OH228158   7.838   1.992   5.103
 9406TIP3    H128159   7.922   1.955   5.129
 9406TIP3    H228160   7.812   2.047   5.177
 9407TIP3   OH228161   6.120   7.850   6.095
 9407TIP3    H128162   6.096   7.868   6.186
 9407TIP3    H228163   6.199   7.796   6.102
 9408TIP3   OH228164   6.562   6.977   4.454
 9408TIP3    H128165   6.482   6.928   4.440
 9408TIP3    H228166   6.548   7.023   4.537
 9409TIP3   OH228167   4.574   1.683   0.966
 9409TIP3    H128168   4.606   1.771   0.984
 9409TIP3    H228169   4.649   1.626   0.984
 9410TIP3   OH228170   5.940   7.302   0.245
 9410TIP3    H128171   6.028   7.329   0.273
 9410TIP3    H228172   5.894   7.384   0.228
 9411TIP3   OH228173   2.164   2.166   1.123
 9411TIP3    H128174   2.247   2.160   1.171
 9411TIP3    H228175   2.162   2.256   1.090
 9412TIP3   OH228176   5.151   2.501   3.442
 9412TIP3    H128177   5.231   2.500   3.389
 9412TIP3    H228178   5.082   2.474   3.381
 9413TIP3   OH228179   6.858   7.201   3.621
 9413TIP3    H128180   6.801   7.266   3.579
 9413TIP3    H228181   6.946   7.223   3.593
 9414TIP3   OH228182   6.809   5.483   6.046
 9414TIP3    H128183   6.806   5.548   6.116
 9414TIP3    H228184   6.854   5.528   5.974
 9415TIP3   OH228185   0.277   2.829   5.898
 9415TIP3    H128186   0.300   2.748   5.853
 9415TIP3    H228187   0.336   2.894   5.861
 9416TIP3   OH228188   8.041   7.824   5.770
 9416TIP3    H128189   8.119   7.791   5.725
 9416TIP3    H228190   7.983   7.851   5.699
 9417TIP3   OH228191   3.132   3.583   3.558
 9417TIP3    H128192   3.128   3.493   3.527
 9417TIP3    H228193   3.202   3.623   3.507
 9418TIP3   OH228194   1.935   3.266   2.660
 9418TIP3    H128195   1.949   3.194   2.598
 9418TIP3    H228196   2.023   3.290   2.689
 9419TIP3   OH228197   4.507   3.157   3.505
 9419TIP3    H128198   4.468   3.206   3.432
 9419TIP3    H228199   4.576   3.214   3.538
 9420TIP3   OH228200   6.387   1.608   5.192
 9420TIP3    H128201   6.447   1.660   5.245
 9420TIP3    H228202   6.410   1.627   5.102
 9421TIP3   OH228203   7.985   7.501   3.055
 9421TIP3    H128204   7.985   7.538   2.967
 9421TIP3    H228205   7.895   7.512   3.085
 9422TIP3   OH228206   3.204   1.118   6.048
 9422TIP3    H128207   3.256   1.038   6.043
 9422TIP3    H228208   3.229   1.159   6.130
 9423TIP3   OH228209   7.344   5.068   6.594
 9423TIP3    H128210   7.273   5.115   6.550
 9423TIP3    H228211   7.306   5.039   6.677
 9424TIP3   OH228212   7.842   6.074   2.536
 9424TIP3    H128213   7.820   5.983   2.556
 9424TIP3    H228214   7.858   6.115   2.621
 9425TIP3   OH228215   3.115   6.762   2.529
 9425TIP3    H128216   3.077   6.850   2.540
 9425TIP3    H228217   3.209   6.777   2.522
 9426TIP3   OH228218   2.775   2.047   5.329
 9426TIP3    H128219   2.813   1.963   5.308
 9426TIP3    H228220   2.703   2.057   5.267
 9427TIP3   OH228221   5.988   6.336   3.186
 9427TIP3    H128222   5.991   6.241   3.198
 9427TIP3    H228223   6.040   6.351   3.107
 9428TIP3   OH228224   0.328   6.384   4.166
 9428TIP3    H128225   0.424   6.381   4.157
 9428TIP3    H228226   0.314   6.407   4.258
 9429TIP3   OH228227   1.637   4.744   6.490
 9429TIP3    H128228   1.718   4.706   6.457
 9429TIP3    H228229   1.575   4.671   6.488
 9430TIP3   OH228230   2.055   7.498   0.997
 9430TIP3    H128231   2.051   7.574   1.055
 9430TIP3    H228232   2.018   7.426   1.049
 9431TIP3   OH228233   8.021   6.616   3.837
 9431TIP3    H128234   8.107   6.580   3.860
 9431TIP3    H228235   8.006   6.685   3.903
 9432TIP3   OH228236   0.385   3.695   4.530
 9432TIP3    H128237   0.305   3.715   4.483
 9432TIP3    H228238   0.453   3.693   4.463
 9433TIP3   OH228239   8.289   3.424   0.148
 9433TIP3    H128240   8.332   3.460   0.070
 9433TIP3    H228241   8.310   3.331   0.147
 9434TIP3   OH228242   6.319   5.027   4.038
 9434TIP3    H128243   6.225   5.019   4.053
 9434TIP3    H228244   6.337   5.120   4.050
 9435TIP3   OH228245   8.234   3.327   4.440
 9435TIP3    H128246   8.249   3.320   4.346
 9435TIP3    H228247   8.223   3.237   4.469
 9436TIP3   OH228248   4.653   2.411   2.231
 9436TIP3    H128249   4.596   2.436   2.304
 9436TIP3    H228250   4.627   2.321   2.211
 9437TIP3   OH228251   0.257   7.433   4.424
 9437TIP3    H128252   0.182   7.446   4.482
 9437TIP3    H228253   0.247   7.343   4.392
 9438TIP3   OH228254   7.207   3.662   6.097
 9438TIP3    H128255   7.147   3.716   6.045
 9438TIP3    H228256   7.274   3.633   6.034
 9439TIP3   OH228257   5.497   7.754   2.669
 9439TIP3    H128258   5.493   7.787   2.579
 9439TIP3    H228259   5.410   7.771   2.704
 9440TIP3   OH228260   7.980   5.617   5.978
 9440TIP3    H128261   7.973   5.711   5.992
 9440TIP3    H228262   7.947   5.578   6.059
 9441TIP3   OH228263   7.699   5.123   2.560
 9441TIP3    H128264   7.666   5.039   2.590
 9441TIP3    H228265   7.794   5.114   2.563
 9442TIP3   OH228266   4.823   1.199   5.276
 9442TIP3    H128267   4.866   1.252   5.209
 9442TIP3    H228268   4.896   1.158   5.323
 9443TIP3   OH228269   4.651   2.202   6.225
 9443TIP3    H128270   4.596   2.146   6.170
 9443TIP3    H228271   4.589   2.256   6.274
 9444TIP3   OH228272   3.467   5.680   0.666
 9444TIP3    H128273   3.497   5.723   0.586
 9444TIP3    H228274   3.458   5.751   0.729
 9445TIP3   OH228275   5.837   0.638   3.921
 9445TIP3    H128276   5.850   0.545   3.901
 9445TIP3    H228277   5.782   0.671   3.849
 9446TIP3   OH228278   2.169   0.815   3.187
 9446TIP3    H128279   2.074   0.826   3.187
 9446TIP3    H228280   2.190   0.786   3.099
 9447TIP3   OH228281   5.253   4.769   4.602
 9447TIP3    H128282   5.280   4.803   4.687
 9447TIP3    H228283   5.280   4.836   4.539
 9448TIP3   OH228284   2.192   6.178   0.742
 9448TIP3    H128285   2.222   6.096   0.780
 9448TIP3    H228286   2.211   6.244   0.809
 9449TIP3   OH228287   2.713   7.060   3.799
 9449TIP3    H128288   2.781   7.125   3.815
 9449TIP3    H228289   2.741   7.013   3.721
 9450TIP3   OH228290   1.344   5.113   4.759
 9450TIP3    H128291   1.371   5.197   4.721
 9450TIP3    H228292   1.423   5.059   4.755
 9451TIP3   OH228293   0.838   2.908   0.120
 9451TIP3    H128294   0.754   2.904   0.075
 9451TIP3    H228295   0.820   2.880   0.209
 9452TIP3   OH228296   5.655   7.147   2.053
 9452TIP3    H128297   5.612   7.136   1.968
 9452TIP3    H228298   5.670   7.058   2.085
 9453TIP3   OH228299   5.395   5.562   2.651
 9453TIP3    H128300   5.327   5.592   2.712
 9453TIP3    H228301   5.436   5.488   2.696
 9454TIP3   OH228302   4.097   0.789   5.817
 9454TIP3    H128303   4.050   0.864   5.781
 9454TIP3    H228304   4.189   0.815   5.816
 9455TIP3   OH228305   1.457   4.591   4.066
 9455TIP3    H128306   1.440   4.515   4.010
 9455TIP3    H228307   1.375   4.604   4.113
 9456TIP3   OH228308   4.856   2.813   4.426
 9456TIP3    H128309   4.804   2.784   4.351
 9456TIP3    H228310   4.798   2.801   4.502
 9457TIP3   OH228311   1.063   5.257   0.350
 9457TIP3    H128312   1.017   5.206   0.284
 9457TIP3    H228313   1.021   5.343   0.348
 9458TIP3   OH228314   1.541   1.514   0.709
 9458TIP3    H128315   1.470   1.539   0.650
 9458TIP3    H228316   1.575   1.597   0.743
 9459TIP3   OH228317   0.176   2.952   5.185
 9459TIP3    H128318   0.212   3.032   5.149
 9459TIP3    H228319   0.082   2.969   5.192
 9460TIP3   OH228320   1.628   5.168   0.675
 9460TIP3    H128321   1.594   5.229   0.611
 9460TIP3    H228322   1.642   5.220   0.754
 9461TIP3   OH228323   6.632   1.985   0.495
 9461TIP3    H128324   6.609   1.941   0.414
 9461TIP3    H228325   6.728   1.979   0.500
 9462TIP3   OH228326   4.600   5.669   4.875
 9462TIP3    H128327   4.528   5.726   4.903
 9462TIP3    H228328   4.585   5.657   4.781
 9463TIP3   OH228329   5.475   7.063   5.159
 9463TIP3    H128330   5.468   7.110   5.242
 9463TIP3    H228331   5.561   7.088   5.125
 9464TIP3   OH228332   3.323   1.517   2.403
 9464TIP3    H128333   3.398   1.574   2.389
 9464TIP3    H228334   3.335   1.445   2.342
 9465TIP3   OH228335   5.241   7.123   2.612
 9465TIP3    H128336   5.161   7.134   2.561
 9465TIP3    H228337   5.309   7.105   2.547
 9466TIP3   OH228338   8.347   2.545   2.977
 9466TIP3    H128339   8.360   2.638   2.996
 9466TIP3    H228340   8.262   2.541   2.934
 9467TIP3   OH228341   5.079   5.256   1.310
 9467TIP3    H128342   5.003   5.245   1.253
 9467TIP3    H228343   5.045   5.243   1.398
 9468TIP3   OH228344   7.794   0.912   6.833
 9468TIP3    H128345   7.813   0.819   6.821
 9468TIP3    H228346   7.804   0.950   6.746
 9469TIP3   OH228347   6.194   0.886   2.368
 9469TIP3    H128348   6.201   0.846   2.282
 9469TIP3    H228349   6.284   0.909   2.392
 9470TIP3   OH228350   3.393   4.541   0.503
 9470TIP3    H128351   3.410   4.590   0.584
 9470TIP3    H228352   3.439   4.458   0.515
 9471TIP3   OH228353   2.140   3.941   0.569
 9471TIP3    H128354   2.062   3.964   0.619
 9471TIP3    H228355   2.194   3.890   0.631
 9472TIP3   OH228356   2.169   0.311   0.816
 9472TIP3    H128357   2.130   0.381   0.868
 9472TIP3    H228358   2.160   0.232   0.871
 9473TIP3   OH228359   3.443   3.131   0.578
 9473TIP3    H128360   3.460   3.118   0.671
 9473TIP3    H228361   3.528   3.151   0.540
 9474TIP3   OH228362   6.009   3.069   4.276
 9474TIP3    H128363   5.953   2.993   4.293
 9474TIP3    H228364   6.083   3.034   4.228
 9475TIP3   OH228365   7.085   6.985   6.440
 9475TIP3    H128366   7.125   6.984   6.527
 9475TIP3    H228367   7.009   6.928   6.448
 9476TIP3   OH228368   2.390   5.996   5.923
 9476TIP3    H128369   2.335   6.064   5.961
 9476TIP3    H228370   2.458   6.043   5.876
 9477TIP3   OH228371   6.117   0.072   3.893
 9477TIP3    H128372   6.147   0.091   3.804
 9477TIP3    H228373   6.178   0.119   3.950
 9478TIP3   OH228374   4.510   7.651   6.225
 9478TIP3    H128375   4.487   7.744   6.226
 9478TIP3    H228376   4.466   7.617   6.148
 9479TIP3   OH228377   3.276   1.696   6.729
 9479TIP3    H128378   3.217   1.754   6.681
 9479TIP3    H228379   3.231   1.678   6.811
 9480TIP3   OH228380   5.809   2.275   0.021
 9480TIP3    H128381   5.788   2.220   0.097
 9480TIP3    H228382   5.901   2.298   0.033
 9481TIP3   OH228383   0.816   4.250   0.539
 9481TIP3    H128384   0.892   4.288   0.583
 9481TIP3    H228385   0.812   4.160   0.571
 9482TIP3   OH228386   1.600   4.821   4.464
 9482TIP3    H128387   1.532   4.829   4.531
 9482TIP3    H228388   1.614   4.726   4.455
 9483TIP3   OH228389   2.770   4.158   2.374
 9483TIP3    H128390   2.763   4.122   2.462
 9483TIP3    H228391   2.687   4.136   2.331
 9484TIP3   OH228392   1.957   2.579   6.516
 9484TIP3    H128393   1.946   2.593   6.610
 9484TIP3    H228394   1.905   2.501   6.497
 9485TIP3   OH228395   2.543   7.810   4.187
 9485TIP3    H128396   2.519   7.764   4.268
 9485TIP3    H228397   2.639   7.816   4.191
 9486TIP3   OH228398   3.776   1.485   3.509
 9486TIP3    H128399   3.838   1.546   3.550
 9486TIP3    H228400   3.696   1.494   3.559
 9487TIP3   OH228401   4.404   1.131   2.044
 9487TIP3    H128402   4.308   1.133   2.039
 9487TIP3    H228403   4.432   1.126   1.952
 9488TIP3   OH228404   3.252   0.782   6.744
 9488TIP3    H128405   3.227   0.786   6.652
 9488TIP3    H228406   3.227   0.867   6.780
 9489TIP3   OH228407   2.311   6.665   3.517
 9489TIP3    H128408   2.370   6.715   3.573
 9489TIP3    H228409   2.247   6.627   3.577
 9490TIP3   OH228410   7.408   6.185   5.306
 9490TIP3    H128411   7.442   6.237   5.233
 9490TIP3    H228412   7.414   6.094   5.276
 9491TIP3   OH228413   2.809   5.286   1.197
 9491TIP3    H128414   2.851   5.200   1.199
 9491TIP3    H228415   2.844   5.331   1.273
 9492TIP3   OH228416   0.349  -0.005   0.389
 9492TIP3    H128417   0.383  -0.015   0.300
 9492TIP3    H228418   0.260  -0.040   0.384
 9493TIP3   OH228419   6.522   6.659   3.796
 9493TIP3    H128420   6.443   6.613   3.766
 9493TIP3    H228421   6.574   6.671   3.716
 9494TIP3   OH228422   3.799   5.278   5.202
 9494TIP3    H128423   3.778   5.194   5.244
 9494TIP3    H228424   3.894   5.283   5.208
 9495TIP3   OH228425   0.628   3.791   2.195
 9495TIP3    H128426   0.580   3.720   2.237
 9495TIP3    H228427   0.615   3.866   2.253
 9496TIP3   OH228428   4.553   5.473   5.603
 9496TIP3    H128429   4.574   5.481   5.510
 9496TIP3    H228430   4.628   5.427   5.640
 9497TIP3   OH228431   7.290   6.829   5.742
 9497TIP3    H128432   7.202   6.806   5.713
 9497TIP3    H228433   7.276   6.891   5.814
 9498TIP3   OH228434   2.388   1.164   1.771
 9498TIP3    H128435   2.354   1.081   1.737
 9498TIP3    H228436   2.341   1.231   1.722
 9499TIP3   OH228437   2.616   3.830   0.613
 9499TIP3    H128438   2.693   3.843   0.558
 9499TIP3    H228439   2.584   3.918   0.632
 9500TIP3   OH228440   4.491   3.006   6.250
 9500TIP3    H128441   4.551   3.079   6.265
 9500TIP3    H228442   4.478   3.005   6.155
 9501TIP3   OH228443   2.902   4.157   2.118
 9501TIP3    H128444   2.862   4.144   2.203
 9501TIP3    H228445   2.968   4.225   2.132
 9502TIP3   OH228446   3.599   5.932   5.921
 9502TIP3    H128447   3.687   5.953   5.951
 9502TIP3    H228448   3.599   5.953   5.828
 9503TIP3   OH228449   6.618   7.612   3.549
 9503TIP3    H128450   6.562   7.562   3.607
 9503TIP3    H228451   6.575   7.697   3.541
 9504TIP3   OH228452   6.899   0.959   0.133
 9504TIP3    H128453   6.979   0.908   0.124
 9504TIP3    H228454   6.839   0.903   0.182
 9505TIP3   OH228455   1.293   2.421   3.548
 9505TIP3    H128456   1.205   2.444   3.519
 9505TIP3    H228457   1.293   2.326   3.554
 9506TIP3   OH228458   2.445   3.465   1.095
 9506TIP3    H128459   2.484   3.394   1.146
 9506TIP3    H228460   2.360   3.479   1.136
 9507TIP3   OH228461   7.846   5.751   4.427
 9507TIP3    H128462   7.918   5.749   4.364
 9507TIP3    H228463   7.789   5.678   4.400
 9508TIP3   OH228464   7.228   0.038   1.942
 9508TIP3    H128465   7.284  -0.039   1.949
 9508TIP3    H228466   7.288   0.112   1.947
 9509TIP3   OH228467   7.790   2.334   3.677
 9509TIP3    H128468   7.762   2.256   3.726
 9509TIP3    H228469   7.715   2.393   3.682
 9510TIP3   OH228470   4.228   2.067   5.022
 9510TIP3    H128471   4.258   1.983   4.985
 9510TIP3    H228472   4.302   2.127   5.008
 9511TIP3   OH228473   8.281   6.772   0.885
 9511TIP3    H128474   8.307   6.853   0.929
 9511TIP3    H228475   8.353   6.711   0.902
 9512TIP3   OH228476   4.165   2.394   3.578
 9512TIP3    H128477   4.202   2.458   3.518
 9512TIP3    H228478   4.155   2.441   3.661
 9513TIP3   OH228479   6.675   4.028   5.504
 9513TIP3    H128480   6.687   4.123   5.500
 9513TIP3    H228481   6.764   3.993   5.509
 9514TIP3   OH228482   6.809   4.960   1.564
 9514TIP3    H128483   6.749   5.024   1.602
 9514TIP3    H228484   6.800   4.972   1.469
 9515TIP3   OH228485   3.473   4.347   0.951
 9515TIP3    H128486   3.433   4.434   0.956
 9515TIP3    H228487   3.528   4.350   0.873
 9516TIP3   OH228488   4.782   4.128   1.562
 9516TIP3    H128489   4.829   4.065   1.507
 9516TIP3    H228490   4.750   4.077   1.636
 9517TIP3   OH228491   5.561   3.319   4.178
 9517TIP3    H128492   5.558   3.401   4.227
 9517TIP3    H228493   5.498   3.331   4.107
 9518TIP3   OH228494   3.144   7.751   4.403
 9518TIP3    H128495   3.105   7.691   4.340
 9518TIP3    H228496   3.121   7.838   4.372
 9519TIP3   OH228497   6.099   5.345   0.574
 9519TIP3    H128498   6.161   5.339   0.646
 9519TIP3    H228499   6.048   5.264   0.579
 9520TIP3   OH228500   3.587   4.760   5.654
 9520TIP3    H128501   3.596   4.748   5.560
 9520TIP3    H228502   3.572   4.672   5.689
 9521TIP3   OH228503   6.001   6.426   6.317
 9521TIP3    H128504   6.005   6.495   6.383
 9521TIP3    H228505   6.036   6.467   6.237
 9522TIP3   OH228506   4.978   2.370   5.283
 9522TIP3    H128507   5.054   2.314   5.296
 9522TIP3    H228508   5.013   2.459   5.278
 9523TIP3   OH228509   0.259   2.550   1.629
 9523TIP3    H128510   0.222   2.490   1.565
 9523TIP3    H228511   0.309   2.494   1.688
 9524TIP3   OH228512   7.203   0.401   0.991
 9524TIP3    H128513   7.295   0.428   0.984
 9524TIP3    H228514   7.153   0.479   0.967
 9525TIP3   OH228515   0.515   6.374   5.447
 9525TIP3    H128516   0.557   6.302   5.399
 9525TIP3    H228517   0.515   6.447   5.385
 9526TIP3   OH228518   2.669   6.782   1.644
 9526TIP3    H128519   2.585   6.828   1.630
 9526TIP3    H228520   2.728   6.850   1.676
 9527TIP3   OH228521   2.638   1.168   1.592
 9527TIP3    H128522   2.567   1.176   1.528
 9527TIP3    H228523   2.681   1.085   1.570
 9528TIP3   OH228524   3.921   0.891   4.956
 9528TIP3    H128525   3.910   0.925   4.867
 9528TIP3    H228526   3.875   0.807   4.954
 9529TIP3   OH228527   7.930   6.717   2.688
 9529TIP3    H128528   7.895   6.628   2.697
 9529TIP3    H228529   7.860   6.766   2.645
 9530TIP3   OH228530   5.980   5.252   0.880
 9530TIP3    H128531   6.057   5.228   0.829
 9530TIP3    H228532   6.014   5.270   0.968
 9531TIP3   OH228533   4.262   6.115   3.391
 9531TIP3    H128534   4.273   6.191   3.448
 9531TIP3    H228535   4.298   6.042   3.442
 9532TIP3   OH228536   0.955   0.662   3.650
 9532TIP3    H128537   0.863   0.655   3.678
 9532TIP3    H228538   0.978   0.752   3.669
 9533TIP3   OH228539   2.895   3.679   4.879
 9533TIP3    H128540   2.925   3.767   4.858
 9533TIP3    H228541   2.974   3.625   4.873
 9534TIP3   OH228542   1.800   7.887   5.524
 9534TIP3    H128543   1.788   7.810   5.579
 9534TIP3    H228544   1.716   7.933   5.527
 9535TIP3   OH228545   0.593   0.731   0.644
 9535TIP3    H128546   0.606   0.641   0.614
 9535TIP3    H228547   0.571   0.780   0.564
 9536TIP3   OH228548   8.312   4.894   4.828
 9536TIP3    H128549   8.344   4.916   4.915
 9536TIP3    H228550   8.337   4.802   4.817
 9537TIP3   OH228551   1.690   6.956   5.563
 9537TIP3    H128552   1.773   6.942   5.517
 9537TIP3    H228553   1.715   6.965   5.655
 9538TIP3   OH228554   1.217   4.860   0.029
 9538TIP3    H128555   1.150   4.793   0.045
 9538TIP3    H228556   1.175   4.943   0.052
 9539TIP3   OH228557   3.883   5.211   2.617
 9539TIP3    H128558   3.920   5.141   2.564
 9539TIP3    H228559   3.893   5.290   2.563
 9540TIP3   OH228560   4.837   0.193   3.304
 9540TIP3    H128561   4.857   0.099   3.306
 9540TIP3    H228562   4.851   0.222   3.394
 9541TIP3   OH228563   1.178   1.047   3.994
 9541TIP3    H128564   1.108   0.993   3.957
 9541TIP3    H228565   1.251   0.986   4.006
 9542TIP3   OH228566   6.948   4.453   4.902
 9542TIP3    H128567   6.975   4.372   4.944
 9542TIP3    H228568   6.956   4.519   4.971
 9543TIP3   OH228569   7.873   4.755   6.432
 9543TIP3    H128570   7.868   4.815   6.507
 9543TIP3    H228571   7.858   4.812   6.356
 9544TIP3   OH228572   3.504   1.627   4.385
 9544TIP3    H128573   3.422   1.577   4.382
 9544TIP3    H228574   3.480   1.715   4.355
 9545TIP3   OH228575   5.469   6.856   1.976
 9545TIP3    H128576   5.407   6.792   1.941
 9545TIP3    H228577   5.416   6.933   1.997
 9546TIP3   OH228578   3.438   1.352   2.620
 9546TIP3    H128579   3.365   1.340   2.681
 9546TIP3    H228580   3.395   1.374   2.537
 9547TIP3   OH228581   7.380   6.589   4.203
 9547TIP3    H128582   7.388   6.620   4.113
 9547TIP3    H228583   7.309   6.524   4.200
 9548TIP3   OH228584   2.179   6.420   5.739
 9548TIP3    H128585   2.144   6.472   5.811
 9548TIP3    H228586   2.256   6.468   5.709
 9549TIP3   OH228587   1.647   0.591   3.977
 9549TIP3    H128588   1.671   0.529   3.908
 9549TIP3    H228589   1.552   0.600   3.969
 9550TIP3   OH228590   7.988   5.866   6.072
 9550TIP3    H128591   7.952   5.924   6.005
 9550TIP3    H228592   8.054   5.919   6.117
 9551TIP3   OH228593   2.090   1.492   1.937
 9551TIP3    H128594   2.010   1.499   1.884
 9551TIP3    H228595   2.131   1.578   1.931
 9552TIP3   OH228596   7.273   5.842   1.905
 9552TIP3    H128597   7.301   5.873   1.991
 9552TIP3    H228598   7.262   5.748   1.916
 9553TIP3   OH228599   5.740   0.763   1.462
 9553TIP3    H128600   5.717   0.683   1.510
 9553TIP3    H228601   5.835   0.758   1.451
 9554TIP3   OH228602   7.587   7.318   6.125
 9554TIP3    H128603   7.531   7.257   6.172
 9554TIP3    H228604   7.549   7.404   6.143
 9555TIP3   OH228605   5.456   0.080   5.633
 9555TIP3    H128606   5.512   0.062   5.557
 9555TIP3    H228607   5.445   0.175   5.632
 9556TIP3   OH228608   3.206   2.111   6.534
 9556TIP3    H128609   3.132   2.153   6.579
 9556TIP3    H228610   3.190   2.128   6.441
 9557TIP3   OH228611   6.617   7.416   6.398
 9557TIP3    H128612   6.578   7.416   6.310
 9557TIP3    H228613   6.655   7.503   6.407
 9558TIP3   OH228614   3.779   4.886   3.404
 9558TIP3    H128615   3.820   4.944   3.341
 9558TIP3    H228616   3.767   4.803   3.357
 9559TIP3   OH228617   5.257   6.085   1.416
 9559TIP3    H128618   5.331   6.094   1.475
 9559TIP3    H228619   5.194   6.031   1.464
 9560TIP3   OH228620   7.403   6.055   3.533
 9560TIP3    H128621   7.408   6.147   3.559
 9560TIP3    H228622   7.492   6.022   3.544
 9561TIP3   OH228623   0.837   5.621   4.620
 9561TIP3    H128624   0.856   5.663   4.536
 9561TIP3    H228625   0.828   5.528   4.598
 9562TIP3   OH228626   2.449   2.278   5.365
 9562TIP3    H128627   2.477   2.310   5.280
 9562TIP3    H228628   2.428   2.358   5.415
 9563TIP3   OH228629   0.925   2.110   3.489
 9563TIP3    H128630   0.931   2.151   3.403
 9563TIP3    H228631   0.904   2.183   3.548
 9564TIP3   OH228632   0.128   3.899   4.679
 9564TIP3    H128633   0.214   3.919   4.641
 9564TIP3    H228634   0.124   3.950   4.759
 9565TIP3   OH228635   2.039   2.075   2.476
 9565TIP3    H128636   2.097   2.100   2.548
 9565TIP3    H228637   2.094   2.025   2.417
 9566TIP3   OH228638   3.293   4.002   2.220
 9566TIP3    H128639   3.342   4.073   2.179
 9566TIP3    H228640   3.226   3.978   2.157
 9567TIP3   OH228641   2.380   5.412   3.096
 9567TIP3    H128642   2.474   5.429   3.096
 9567TIP3    H228643   2.371   5.328   3.142
 9568TIP3   OH228644   5.271   5.320   0.571
 9568TIP3    H128645   5.202   5.352   0.629
 9568TIP3    H228646   5.351   5.363   0.603
 9569TIP3   OH228647   1.950   2.161   1.293
 9569TIP3    H128648   2.014   2.135   1.227
 9569TIP3    H228649   1.927   2.251   1.270
 9570TIP3   OH228650   6.500   5.336   3.777
 9570TIP3    H128651   6.552   5.313   3.701
 9570TIP3    H228652   6.511   5.263   3.837
 9571TIP3   OH228653   3.530   6.729   5.688
 9571TIP3    H128654   3.463   6.676   5.731
 9571TIP3    H228655   3.573   6.776   5.760
 9572TIP3   OH228656   4.953   4.545   5.344
 9572TIP3    H128657   4.903   4.465   5.328
 9572TIP3    H228658   4.908   4.613   5.293
 9573TIP3   OH228659   7.164   1.241   0.804
 9573TIP3    H128660   7.137   1.194   0.725
 9573TIP3    H228661   7.084   1.250   0.855
 9574TIP3   OH228662   0.877   1.838   4.282
 9574TIP3    H128663   0.962   1.856   4.243
 9574TIP3    H228664   0.845   1.760   4.236
 9575TIP3   OH228665   4.642   5.752   2.408
 9575TIP3    H128666   4.598   5.744   2.324
 9575TIP3    H228667   4.689   5.835   2.402
 9576TIP3   OH228668   6.556   5.862   1.852
 9576TIP3    H128669   6.511   5.919   1.914
 9576TIP3    H228670   6.487   5.804   1.818
 9577TIP3   OH228671   2.675   3.175   5.506
 9577TIP3    H128672   2.679   3.134   5.593
 9577TIP3    H228673   2.766   3.195   5.484
 9578TIP3   OH228674   6.621   3.410   0.483
 9578TIP3    H128675   6.562   3.447   0.418
 9578TIP3    H228676   6.705   3.454   0.468
 9579TIP3   OH228677   0.861   3.144   0.328
 9579TIP3    H128678   0.805   3.080   0.372
 9579TIP3    H228679   0.823   3.154   0.240
 9580TIP3   OH228680   0.414   4.119   3.694
 9580TIP3    H128681   0.345   4.170   3.735
 9580TIP3    H228682   0.413   4.035   3.740
 9581TIP3   OH228683   3.960   3.414   0.623
 9581TIP3    H128684   3.984   3.462   0.543
 9581TIP3    H228685   4.003   3.329   0.614
 9582TIP3   OH228686   0.286   1.655   0.447
 9582TIP3    H128687   0.218   1.600   0.487
 9582TIP3    H228688   0.244   1.690   0.368
 9583TIP3   OH228689   3.854   4.714   5.475
 9583TIP3    H128690   3.805   4.633   5.462
 9583TIP3    H228691   3.840   4.736   5.567
 9584TIP3   OH228692   7.563   5.578   4.576
 9584TIP3    H128693   7.543   5.665   4.611
 9584TIP3    H228694   7.583   5.594   4.484
 9585TIP3   OH228695   1.139   4.805   6.786
 9585TIP3    H128696   1.195   4.875   6.819
 9585TIP3    H228697   1.052   4.844   6.783
 9586TIP3   OH228698   6.171   6.242   1.832
 9586TIP3    H128699   6.219   6.283   1.761
 9586TIP3    H228700   6.108   6.308   1.860
 9587TIP3   OH228701   4.079   4.736   6.563
 9587TIP3    H128702   4.108   4.826   6.553
 9587TIP3    H228703   4.135   4.700   6.632
 9588TIP3   OH228704   6.101   4.726   5.299
 9588TIP3    H128705   6.087   4.764   5.386
 9588TIP3    H228706   6.019   4.740   5.253
 9589TIP3   OH228707   0.824   7.269   1.831
 9589TIP3    H128708   0.762   7.341   1.815
 9589TIP3    H228709   0.823   7.219   1.749
 9590TIP3   OH228710   1.544   2.515   1.776
 9590TIP3    H128711   1.620   2.570   1.758
 9590TIP3    H228712   1.568   2.465   1.854
 9591TIP3   OH228713   4.280   1.488   2.075
 9591TIP3    H128714   4.250   1.566   2.029
 9591TIP3    H228715   4.368   1.472   2.041
 9592TIP3   OH228716   3.961   4.033   6.498
 9592TIP3    H128717   3.940   4.035   6.404
 9592TIP3    H228718   4.039   4.087   6.506
 9593TIP3   OH228719   6.350   4.186   6.147
 9593TIP3    H128720   6.383   4.258   6.201
 9593TIP3    H228721   6.274   4.223   6.101
 9594TIP3   OH228722   5.108   1.896   4.626
 9594TIP3    H128723   5.015   1.893   4.649
 9594TIP3    H228724   5.152   1.920   4.708
 9595TIP3   OH228725   6.184   4.416   0.560
 9595TIP3    H128726   6.239   4.339   0.548
 9595TIP3    H228727   6.213   4.477   0.492
 9596TIP3   OH228728   1.038   3.442   0.211
 9596TIP3    H128729   1.004   3.354   0.197
 9596TIP3    H228730   1.063   3.444   0.304
 9597TIP3   OH228731   4.878   0.536   1.325
 9597TIP3    H128732   4.958   0.530   1.377
 9597TIP3    H228733   4.887   0.618   1.276
 9598TIP3   OH228734   5.125   6.152   6.457
 9598TIP3    H128735   5.128   6.247   6.462
 9598TIP3    H228736   5.197   6.129   6.398
 9599TIP3   OH228737   7.991   1.541   6.237
 9599TIP3    H128738   7.985   1.626   6.281
 9599TIP3    H228739   7.924   1.488   6.279
 9600TIP3   OH228740   4.327   7.573   1.982
 9600TIP3    H128741   4.321   7.590   1.887
 9600TIP3    H228742   4.241   7.538   2.005
 9601TIP3   OH228743   5.817   1.224   3.910
 9601TIP3    H128744   5.780   1.290   3.968
 9601TIP3    H228745   5.868   1.167   3.967
 9602TIP3   OH228746   2.538   3.314   5.086
 9602TIP3    H128747   2.581   3.315   5.172
 9602TIP3    H228748   2.463   3.256   5.098
 9603TIP3   OH228749   1.945   4.792   1.539
 9603TIP3    H128750   1.898   4.710   1.526
 9603TIP3    H228751   1.910   4.826   1.622
 9604TIP3   OH228752   0.626   4.602   3.821
 9604TIP3    H128753   0.620   4.536   3.753
 9604TIP3    H228754   0.660   4.680   3.777
 9605TIP3   OH228755   7.672   6.798   2.888
 9605TIP3    H128756   7.753   6.848   2.880
 9605TIP3    H228757   7.672   6.766   2.978
 9606TIP3   OH228758   4.381   6.702   2.967
 9606TIP3    H128759   4.288   6.690   2.947
 9606TIP3    H228760   4.399   6.637   3.034
 9607TIP3   OH228761   3.086   3.817   4.367
 9607TIP3    H128762   3.181   3.802   4.366
 9607TIP3    H228763   3.069   3.854   4.454
 9608TIP3   OH228764   3.970   7.182   5.063
 9608TIP3    H128765   3.879   7.178   5.091
 9608TIP3    H228766   3.975   7.122   4.988
 9609TIP3   OH228767   6.720   0.847   2.141
 9609TIP3    H128768   6.806   0.806   2.129
 9609TIP3    H228769   6.736   0.941   2.125
 9610TIP3   OH228770   2.068   5.319   5.065
 9610TIP3    H128771   2.130   5.301   4.994
 9610TIP3    H228772   2.105   5.275   5.141
 9611TIP3   OH228773   6.812   7.067   2.464
 9611TIP3    H128774   6.749   7.034   2.401
 9611TIP3    H228775   6.772   7.148   2.497
 9612TIP3   OH228776   1.185   6.039   6.069
 9612TIP3    H128777   1.092   6.031   6.049
 9612TIP3    H228778   1.229   6.026   5.984
 9613TIP3   OH228779   2.280   1.389   1.563
 9613TIP3    H128780   2.307   1.481   1.553
 9613TIP3    H228781   2.356   1.338   1.533
 9614TIP3   OH228782   4.535   0.482   4.960
 9614TIP3    H128783   4.450   0.520   4.933
 9614TIP3    H228784   4.600   0.539   4.918
 9615TIP3   OH228785   5.645   3.183   1.703
 9615TIP3    H128786   5.705   3.132   1.647
 9615TIP3    H228787   5.689   3.185   1.788
 9616TIP3   OH228788   0.734   5.933   1.152
 9616TIP3    H128789   0.768   5.844   1.143
 9616TIP3    H228790   0.789   5.972   1.220
 9617TIP3   OH228791   5.150   5.475   6.597
 9617TIP3    H128792   5.059   5.480   6.568
 9617TIP3    H228793   5.191   5.553   6.559
 9618TIP3   OH228794   6.564   3.129   0.581
 9618TIP3    H128795   6.620   3.206   0.587
 9618TIP3    H228796   6.554   3.099   0.672
 9619TIP3   OH228797   6.757   2.549   6.109
 9619TIP3    H128798   6.712   2.618   6.157
 9619TIP3    H228799   6.690   2.482   6.095
 9620TIP3   OH228800   0.919   1.476   3.614
 9620TIP3    H128801   0.881   1.538   3.676
 9620TIP3    H228802   0.875   1.393   3.632
 9621TIP3   OH228803   2.316   7.764   0.563
 9621TIP3    H128804   2.341   7.742   0.474
 9621TIP3    H228805   2.399   7.772   0.611
 9622TIP3   OH228806   4.924   3.687   4.447
 9622TIP3    H128807   4.913   3.775   4.483
 9622TIP3    H228808   4.864   3.633   4.497
 9623TIP3   OH228809   3.387   2.439   0.990
 9623TIP3    H128810   3.337   2.450   1.071
 9623TIP3    H228811   3.329   2.471   0.921
 9624TIP3   OH228812   2.365   3.241   1.549
 9624TIP3    H128813   2.361   3.178   1.477
 9624TIP3    H228814   2.383   3.325   1.506
 9625TIP3   OH228815   3.106   6.289   4.581
 9625TIP3    H128816   3.153   6.372   4.592
 9625TIP3    H228817   3.048   6.284   4.657
 9626TIP3   OH228818   8.211   2.259   1.501
 9626TIP3    H128819   8.197   2.307   1.419
 9626TIP3    H228820   8.198   2.324   1.569
 9627TIP3   OH228821   0.675   7.748   4.535
 9627TIP3    H128822   0.627   7.680   4.487
 9627TIP3    H228823   0.765   7.718   4.536
 9628TIP3   OH228824   8.053   5.703   0.411
 9628TIP3    H128825   8.020   5.724   0.498
 9628TIP3    H228826   8.122   5.638   0.427
 9629TIP3   OH228827   6.308   5.821   5.300
 9629TIP3    H128828   6.316   5.822   5.395
 9629TIP3    H228829   6.307   5.729   5.277
 9630TIP3   OH228830   7.729   5.886   1.242
 9630TIP3    H128831   7.721   5.887   1.338
 9630TIP3    H228832   7.651   5.838   1.213
 9631TIP3   OH228833   1.088   6.201   3.636
 9631TIP3    H128834   1.111   6.111   3.659
 9631TIP3    H228835   0.992   6.203   3.641
 9632TIP3   OH228836   0.965   1.507   2.537
 9632TIP3    H128837   0.895   1.457   2.497
 9632TIP3    H228838   1.007   1.446   2.597
 9633TIP3   OH228839   5.750   7.640   5.167
 9633TIP3    H128840   5.754   7.643   5.071
 9633TIP3    H228841   5.709   7.723   5.192
 9634TIP3   OH228842   5.005   5.723   2.916
 9634TIP3    H128843   5.078   5.785   2.906
 9634TIP3    H228844   4.937   5.757   2.858
 9635TIP3   OH228845   4.920   5.213   1.100
 9635TIP3    H128846   4.845   5.199   1.042
 9635TIP3    H228847   4.977   5.273   1.052
 9636TIP3   OH228848   5.410   5.711   6.033
 9636TIP3    H128849   5.390   5.621   6.008
 9636TIP3    H228850   5.325   5.752   6.047
 9637TIP3   OH228851   6.943   6.548   6.534
 9637TIP3    H128852   6.903   6.526   6.618
 9637TIP3    H228853   6.907   6.485   6.472
 9638TIP3   OH228854   2.865   5.151   5.105
 9638TIP3    H128855   2.840   5.163   5.196
 9638TIP3    H228856   2.952   5.189   5.098
 9639TIP3   OH228857   2.289   2.013   3.200
 9639TIP3    H128858   2.221   2.076   3.223
 9639TIP3    H228859   2.348   2.061   3.142
 9640TIP3   OH228860   0.183   3.863   2.609
 9640TIP3    H128861   0.186   3.810   2.530
 9640TIP3    H228862   0.237   3.816   2.672
 9641TIP3   OH228863   3.115   0.514   4.810
 9641TIP3    H128864   3.044   0.575   4.826
 9641TIP3    H228865   3.076   0.428   4.824
 9642TIP3   OH228866   8.151   7.679   0.917
 9642TIP3    H128867   8.094   7.753   0.936
 9642TIP3    H228868   8.218   7.681   0.985
 9643TIP3   OH228869   4.237   1.833   4.608
 9643TIP3    H128870   4.322   1.791   4.617
 9643TIP3    H228871   4.175   1.759   4.602
 9644TIP3   OH228872   7.558   4.165   6.467
 9644TIP3    H128873   7.520   4.225   6.403
 9644TIP3    H228874   7.519   4.191   6.551
 9645TIP3   OH228875   5.305   6.879   2.786
 9645TIP3    H128876   5.341   6.844   2.867
 9645TIP3    H228877   5.347   6.827   2.717
 9646TIP3   OH228878   4.212   6.499   5.875
 9646TIP3    H128879   4.292   6.493   5.824
 9646TIP3    H228880   4.228   6.445   5.953
 9647TIP3   OH228881   4.714   7.806   0.909
 9647TIP3    H128882   4.766   7.796   0.829
 9647TIP3    H228883   4.631   7.761   0.889
 9648TIP3   OH228884   5.477   2.842   5.884
 9648TIP3    H128885   5.548   2.891   5.843
 9648TIP3    H228886   5.398   2.868   5.836
 9649TIP3   OH228887   2.715   7.412   1.751
 9649TIP3    H128888   2.628   7.392   1.716
 9649TIP3    H228889   2.699   7.474   1.822
 9650TIP3   OH228890   2.324   3.205   4.523
 9650TIP3    H128891   2.347   3.290   4.560
 9650TIP3    H228892   2.395   3.185   4.462
 9651TIP3   OH228893   1.425   6.212   5.876
 9651TIP3    H128894   1.451   6.135   5.927
 9651TIP3    H228895   1.395   6.176   5.792
 9652TIP3   OH228896   7.695   5.253   6.484
 9652TIP3    H128897   7.744   5.250   6.402
 9652TIP3    H228898   7.613   5.206   6.465
 9653TIP3   OH228899   4.802   1.951   4.897
 9653TIP3    H128900   4.879   1.972   4.950
 9653TIP3    H228901   4.770   2.037   4.868
 9654TIP3   OH228902   0.541   6.086   6.060
 9654TIP3    H128903   0.556   6.037   5.978
 9654TIP3    H228904   0.447   6.082   6.074
 9655TIP3   OH228905   4.407   6.378   4.017
 9655TIP3    H128906   4.315   6.377   3.990
 9655TIP3    H228907   4.429   6.286   4.034
 9656TIP3   OH228908   5.373   6.975   5.505
 9656TIP3    H128909   5.286   6.975   5.546
 9656TIP3    H228910   5.416   7.052   5.539
 9657TIP3   OH228911   7.133   6.260   3.273
 9657TIP3    H128912   7.162   6.169   3.286
 9657TIP3    H228913   7.214   6.310   3.272
 9658TIP3   OH228914   4.094   3.365   2.555
 9658TIP3    H128915   4.013   3.387   2.510
 9658TIP3    H228916   4.163   3.407   2.503
 9659TIP3   OH228917   7.093   7.437   4.046
 9659TIP3    H128918   7.070   7.454   4.137
 9659TIP3    H228919   7.158   7.367   4.050
 9660TIP3   OH228920   8.393   0.681   6.031
 9660TIP3    H128921   8.305   0.718   6.021
 9660TIP3    H228922   8.378   0.586   6.034
 9661TIP3   OH228923   1.021   7.248   0.690
 9661TIP3    H128924   0.990   7.256   0.780
 9661TIP3    H228925   1.032   7.339   0.660
 9662TIP3   OH228926   1.739   0.476   3.434
 9662TIP3    H128927   1.733   0.571   3.418
 9662TIP3    H228928   1.811   0.447   3.379
 9663TIP3   OH228929   6.738   2.052   3.357
 9663TIP3    H128930   6.663   2.106   3.331
 9663TIP3    H228931   6.771   2.016   3.274
 9664TIP3   OH228932   3.742   1.994   5.205
 9664TIP3    H128933   3.656   1.976   5.244
 9664TIP3    H228934   3.732   2.078   5.161
 9665TIP3   OH228935   7.204   1.457   5.944
 9665TIP3    H128936   7.175   1.406   5.869
 9665TIP3    H228937   7.255   1.396   5.997
 9666TIP3   OH228938   1.581   0.319   4.742
 9666TIP3    H128939   1.673   0.310   4.764
 9666TIP3    H228940   1.576   0.400   4.691
 9667TIP3   OH228941   6.603   3.941   1.308
 9667TIP3    H128942   6.546   3.920   1.234
 9667TIP3    H228943   6.637   3.857   1.337
 9668TIP3   OH228944   1.912   5.534   1.082
 9668TIP3    H128945   1.872   5.447   1.076
 9668TIP3    H228946   1.849   5.587   1.129
 9669TIP3   OH228947   6.725   4.890   5.355
 9669TIP3    H128948   6.808   4.852   5.384
 9669TIP3    H228949   6.678   4.910   5.437
 9670TIP3   OH228950   6.155   4.412   3.134
 9670TIP3    H128951   6.137   4.506   3.134
 9670TIP3    H228952   6.198   4.395   3.051
 9671TIP3   OH228953   0.868   6.052   0.025
 9671TIP3    H128954   0.790   6.064   0.080
 9671TIP3    H228955   0.918   6.133   0.036
 9672TIP3   OH228956   5.775   7.513   6.609
 9672TIP3    H128957   5.709   7.453   6.576
 9672TIP3    H228958   5.813   7.552   6.530
 9673TIP3   OH228959   7.179   1.512   0.367
 9673TIP3    H128960   7.249   1.478   0.311
 9673TIP3    H228961   7.117   1.439   0.373
 9674TIP3   OH228962   3.794   1.652   5.610
 9674TIP3    H128963   3.861   1.677   5.547
 9674TIP3    H228964   3.767   1.735   5.650
 9675TIP3   OH228965   2.037   7.300   6.357
 9675TIP3    H128966   2.079   7.289   6.272
 9675TIP3    H228967   1.946   7.321   6.337
 9676TIP3   OH228968   4.702   3.082   2.308
 9676TIP3    H128969   4.759   3.007   2.290
 9676TIP3    H228970   4.705   3.092   2.403
 9677TIP3   OH228971   7.655   5.970   1.783
 9677TIP3    H128972   7.660   5.894   1.841
 9677TIP3    H228973   7.627   6.042   1.840
 9678TIP3   OH228974   5.935   2.466   0.607
 9678TIP3    H128975   5.955   2.523   0.532
 9678TIP3    H228976   5.864   2.410   0.576
 9679TIP3   OH228977   0.772   3.063   0.846
 9679TIP3    H128978   0.749   3.110   0.926
 9679TIP3    H228979   0.719   2.984   0.848
 9680TIP3   OH228980   0.260   2.350   4.917
 9680TIP3    H128981   0.335   2.333   4.974
 9680TIP3    H228982   0.192   2.291   4.948
 9681TIP3   OH228983   0.923   1.772   2.093
 9681TIP3    H128984   0.960   1.772   2.004
 9681TIP3    H228985   0.875   1.690   2.099
 9682TIP3   OH228986   2.518   3.634   3.848
 9682TIP3    H128987   2.523   3.723   3.813
 9682TIP3    H228988   2.561   3.639   3.934
 9683TIP3   OH228989   0.982   7.041   3.762
 9683TIP3    H128990   0.893   7.045   3.799
 9683TIP3    H228991   1.032   6.993   3.828
 9684TIP3   OH228992   1.477   6.760   6.302
 9684TIP3    H128993   1.456   6.673   6.269
 9684TIP3    H228994   1.398   6.812   6.288
 9685TIP3   OH228995   1.900   4.447   4.110
 9685TIP3    H128996   1.840   4.373   4.105
 9685TIP3    H228997   1.926   4.462   4.019
 9686TIP3   OH228998   4.517   4.904   5.303
 9686TIP3    H128999   4.594   4.946   5.265
 9686TIP3    H229000   4.485   4.966   5.368
 9687TIP3   OH229001   1.824   5.186   6.690
 9687TIP3    H129002   1.773   5.243   6.748
 9687TIP3    H229003   1.779   5.102   6.692
 9688TIP3   OH229004   5.107   7.069   1.249
 9688TIP3    H129005   5.128   7.163   1.249
 9688TIP3    H229006   5.054   7.057   1.171
 9689TIP3   OH229007   2.408   7.413   2.006
 9689TIP3    H129008   2.498   7.445   2.000
 9689TIP3    H229009   2.361   7.484   2.050
 9690TIP3   OH229010   3.212   6.257   0.382
 9690TIP3    H129011   3.133   6.206   0.396
 9690TIP3    H229012   3.253   6.261   0.469
 9691TIP3   OH229013   3.725   5.217   0.335
 9691TIP3    H129014   3.662   5.289   0.328
 9691TIP3    H229015   3.727   5.197   0.429
 9692TIP3   OH229016   1.626   0.707   1.378
 9692TIP3    H129017   1.593   0.711   1.289
 9692TIP3    H229018   1.645   0.614   1.393
 9693TIP3   OH229019   5.646   4.022   2.159
 9693TIP3    H129020   5.629   3.957   2.091
 9693TIP3    H229021   5.636   4.106   2.113
 9694TIP3   OH229022   7.265   3.680   0.182
 9694TIP3    H129023   7.297   3.614   0.120
 9694TIP3    H229024   7.169   3.677   0.172
 9695TIP3   OH229025   5.084   7.388   4.880
 9695TIP3    H129026   5.177   7.375   4.894
 9695TIP3    H229027   5.068   7.359   4.790
 9696TIP3   OH229028   4.597   1.504   0.065
 9696TIP3    H129029   4.587   1.547   0.150
 9696TIP3    H229030   4.616   1.413   0.087
 9697TIP3   OH229031   7.912   2.981   1.477
 9697TIP3    H129032   8.003   2.969   1.449
 9697TIP3    H229033   7.861   2.960   1.399
 9698TIP3   OH229034   1.959   5.992   2.684
 9698TIP3    H129035   2.022   5.931   2.647
 9698TIP3    H229036   1.972   6.073   2.634
 9699TIP3   OH229037   2.985   7.031   5.486
 9699TIP3    H129038   2.913   7.094   5.488
 9699TIP3    H229039   2.992   6.999   5.576
 9700TIP3   OH229040   2.303   2.238   3.917
 9700TIP3    H129041   2.387   2.195   3.933
 9700TIP3    H229042   2.239   2.166   3.917
 9701TIP3   OH229043   4.055   6.870   0.765
 9701TIP3    H129044   4.013   6.935   0.822
 9701TIP3    H229045   4.058   6.790   0.818
 9702TIP3   OH229046   3.519   2.980   4.597
 9702TIP3    H129047   3.609   3.006   4.616
 9702TIP3    H229048   3.497   3.028   4.517
 9703TIP3   OH229049   7.096   4.354   3.664
 9703TIP3    H129050   7.119   4.299   3.739
 9703TIP3    H229051   7.030   4.304   3.616
 9704TIP3   OH229052   4.613   3.850   0.653
 9704TIP3    H129053   4.592   3.794   0.728
 9704TIP3    H229054   4.550   3.922   0.659
 9705TIP3   OH229055   1.660   6.723   0.689
 9705TIP3    H129056   1.590   6.745   0.750
 9705TIP3    H229057   1.733   6.779   0.714
 9706TIP3   OH229058   2.812   6.597   3.667
 9706TIP3    H129059   2.836   6.569   3.579
 9706TIP3    H229060   2.719   6.621   3.660
 9707TIP3   OH229061   7.284   5.731   4.627
 9707TIP3    H129062   7.271   5.704   4.718
 9707TIP3    H229063   7.254   5.656   4.575
 9708TIP3   OH229064   5.920   2.300   4.772
 9708TIP3    H129065   5.922   2.396   4.780
 9708TIP3    H229066   5.851   2.272   4.832
 9709TIP3   OH229067   2.447   3.199   4.202
 9709TIP3    H129068   2.475   3.230   4.288
 9709TIP3    H229069   2.373   3.254   4.179
 9710TIP3   OH229070   7.160   5.623   2.601
 9710TIP3    H129071   7.230   5.558   2.604
 9710TIP3    H229072   7.079   5.571   2.595
 9711TIP3   OH229073   4.135   1.176   5.299
 9711TIP3    H129074   4.145   1.271   5.304
 9711TIP3    H229075   4.087   1.161   5.218
 9712TIP3   OH229076   2.081   5.879   0.648
 9712TIP3    H129077   2.017   5.936   0.606
 9712TIP3    H229078   2.164   5.899   0.604
 9713TIP3   OH229079   5.006   1.476   6.323
 9713TIP3    H129080   5.050   1.402   6.365
 9713TIP3    H229081   4.966   1.439   6.245
 9714TIP3   OH229082   7.398   6.864   1.028
 9714TIP3    H129083   7.375   6.787   1.080
 9714TIP3    H229084   7.493   6.865   1.028
 9715TIP3   OH229085   0.402   5.183   5.333
 9715TIP3    H129086   0.382   5.219   5.246
 9715TIP3    H229087   0.498   5.179   5.335
 9716TIP3   OH229088   2.317   4.061   0.979
 9716TIP3    H129089   2.274   4.143   0.955
 9716TIP3    H229090   2.335   4.019   0.895
 9717TIP3   OH229091   8.298   5.163   2.889
 9717TIP3    H129092   8.257   5.151   2.975
 9717TIP3    H229093   8.268   5.249   2.860
 9718TIP3   OH229094   2.960   2.205   2.197
 9718TIP3    H129095   3.029   2.232   2.137
 9718TIP3    H229096   2.989   2.119   2.228
 9719TIP3   OH229097   0.168   1.575   1.548
 9719TIP3    H129098   0.119   1.534   1.477
 9719TIP3    H229099   0.233   1.509   1.573
 9720TIP3   OH229100   4.948   1.674  -0.022
 9720TIP3    H129101   4.990   1.687  -0.107
 9720TIP3    H229102   4.965   1.754   0.027
 9721TIP3   OH229103   5.575   2.623   5.299
 9721TIP3    H129104   5.526   2.644   5.378
 9721TIP3    H229105   5.580   2.706   5.251
 9722TIP3   OH229106   2.857   3.571   4.545
 9722TIP3    H129107   2.804   3.493   4.558
 9722TIP3    H229108   2.800   3.643   4.573
 9723TIP3   OH229109   3.905   7.654   3.069
 9723TIP3    H129110   3.953   7.644   2.987
 9723TIP3    H229111   3.967   7.694   3.130
 9724TIP3   OH229112   4.666   2.310   2.968
 9724TIP3    H129113   4.744   2.281   3.015
 9724TIP3    H229114   4.616   2.231   2.952
 9725TIP3   OH229115   6.145   1.969   4.490
 9725TIP3    H129116   6.159   2.004   4.402
 9725TIP3    H229117   6.213   2.011   4.543
 9726TIP3   OH229118   2.120   6.864   1.076
 9726TIP3    H129119   2.072   6.946   1.089
 9726TIP3    H229120   2.096   6.809   1.150
 9727TIP3   OH229121   5.795   0.660   2.252
 9727TIP3    H129122   5.851   0.736   2.235
 9727TIP3    H229123   5.714   0.697   2.285
 9728TIP3   OH229124   7.317   7.087   5.591
 9728TIP3    H129125   7.289   7.031   5.663
 9728TIP3    H229126   7.413   7.085   5.595
 9729TIP3   OH229127   7.049   1.847   2.217
 9729TIP3    H129128   7.066   1.934   2.252
 9729TIP3    H229129   6.955   1.836   2.224
 9730TIP3   OH229130   0.691   7.607   0.804
 9730TIP3    H129131   0.616   7.547   0.803
 9730TIP3    H229132   0.756   7.564   0.859
 9731TIP3   OH229133   0.668   5.409   2.655
 9731TIP3    H129134   0.711   5.417   2.740
 9731TIP3    H229135   0.655   5.315   2.644
 9732TIP3   OH229136   1.833   4.473   4.527
 9732TIP3    H129137   1.846   4.481   4.433
 9732TIP3    H229138   1.857   4.383   4.547
 9733TIP3   OH229139   4.452   5.246   4.631
 9733TIP3    H129140   4.387   5.260   4.562
 9733TIP3    H229141   4.521   5.311   4.612
 9734TIP3   OH229142   7.097   6.282   2.986
 9734TIP3    H129143   7.100   6.265   3.080
 9734TIP3    H229144   7.049   6.363   2.977
 9735TIP3   OH229145   3.064   4.939   1.635
 9735TIP3    H129146   3.067   4.865   1.695
 9735TIP3    H229147   3.141   4.927   1.579
 9736TIP3   OH229148   6.147   7.128   0.646
 9736TIP3    H129149   6.081   7.147   0.580
 9736TIP3    H229150   6.108   7.158   0.729
 9737TIP3   OH229151   0.914   2.799   5.154
 9737TIP3    H129152   0.873   2.882   5.130
 9737TIP3    H229153   0.841   2.741   5.173
 9738TIP3   OH229154   7.110   6.999   2.147
 9738TIP3    H129155   7.199   6.992   2.183
 9738TIP3    H229156   7.070   7.071   2.196
 9739TIP3   OH229157   4.015   5.258   2.118
 9739TIP3    H129158   3.990   5.166   2.131
 9739TIP3    H229159   3.933   5.301   2.092
 9740TIP3   OH229160   2.359   1.097   5.073
 9740TIP3    H129161   2.427   1.131   5.130
 9740TIP3    H229162   2.278   1.135   5.107
 9741TIP3   OH229163   2.109   5.438   0.185
 9741TIP3    H129164   2.187   5.404   0.229
 9741TIP3    H229165   2.126   5.422   0.092
 9742TIP3   OH229166   0.489   0.322   1.980
 9742TIP3    H129167   0.426   0.296   1.913
 9742TIP3    H229168   0.573   0.289   1.948
 9743TIP3   OH229169   5.051   2.212   6.460
 9743TIP3    H129170   5.035   2.248   6.373
 9743TIP3    H229171   5.063   2.289   6.516
 9744TIP3   OH229172   3.015   5.995   5.038
 9744TIP3    H129173   2.936   6.050   5.042
 9744TIP3    H229174   3.062   6.015   5.119
 9745TIP3   OH229175   5.561   4.352   5.027
 9745TIP3    H129176   5.475   4.324   5.060
 9745TIP3    H229177   5.594   4.276   4.980
 9746TIP3   OH229178   3.114   1.377   3.527
 9746TIP3    H129179   3.148   1.423   3.604
 9746TIP3    H229180   3.037   1.331   3.559
 9747TIP3   OH229181   1.946   0.043   3.967
 9747TIP3    H129182   1.976  -0.047   3.980
 9747TIP3    H229183   2.001   0.095   4.027
 9748TIP3   OH229184   7.224   3.288   6.863
 9748TIP3    H129185   7.273   3.371   6.857
 9748TIP3    H229186   7.267   3.231   6.799
 9749TIP3   OH229187   5.599   4.158   1.412
 9749TIP3    H129188   5.676   4.101   1.411
 9749TIP3    H229189   5.562   4.150   1.324
 9750TIP3   OH229190   4.950   1.169   4.973
 9750TIP3    H129191   4.954   1.088   5.025
 9750TIP3    H229192   5.019   1.224   5.010
 9751TIP3   OH229193   2.966   6.276   4.805
 9751TIP3    H129194   2.900   6.341   4.783
 9751TIP3    H229195   2.924   6.221   4.872
 9752TIP3   OH229196   1.593   4.620   2.929
 9752TIP3    H129197   1.585   4.525   2.939
 9752TIP3    H229198   1.679   4.633   2.889
 9753TIP3   OH229199   8.206   1.979   4.952
 9753TIP3    H129200   8.205   1.900   4.898
 9753TIP3    H229201   8.160   1.954   5.032
 9754TIP3   OH229202   0.849   6.307   3.465
 9754TIP3    H129203   0.862   6.363   3.541
 9754TIP3    H229204   0.760   6.328   3.436
 9755TIP3   OH229205   4.260   0.250   0.049
 9755TIP3    H129206   4.179   0.226   0.004
 9755TIP3    H229207   4.280   0.338   0.017
 9756TIP3   OH229208   8.161   4.587   4.964
 9756TIP3    H129209   8.215   4.609   4.888
 9756TIP3    H229210   8.223   4.580   5.036
 9757TIP3   OH229211   4.656   6.332   0.899
 9757TIP3    H129212   4.572   6.375   0.883
 9757TIP3    H229213   4.677   6.354   0.990
 9758TIP3   OH229214   7.702   1.388   3.040
 9758TIP3    H129215   7.730   1.393   3.131
 9758TIP3    H229216   7.753   1.316   3.003
 9759TIP3   OH229217   6.040   0.394   1.865
 9759TIP3    H129218   6.041   0.299   1.875
 9759TIP3    H229219   5.983   0.410   1.790
 9760TIP3   OH229220   0.910   2.470   5.552
 9760TIP3    H129221   0.837   2.413   5.577
 9760TIP3    H229222   0.930   2.445   5.462
 9761TIP3   OH229223   6.203   1.506   1.623
 9761TIP3    H129224   6.114   1.484   1.652
 9761TIP3    H229225   6.222   1.443   1.554
 9762TIP3   OH229226   4.571   0.676   6.521
 9762TIP3    H129227   4.612   0.597   6.559
 9762TIP3    H229228   4.477   0.662   6.532
 9763TIP3   OH229229   2.554   6.432   6.613
 9763TIP3    H129230   2.600   6.491   6.673
 9763TIP3    H229231   2.605   6.435   6.532
 9764TIP3   OH229232   0.043   4.072   2.498
 9764TIP3    H129233   0.067   4.044   2.410
 9764TIP3    H229234   0.069   4.000   2.554
 9765TIP3   OH229235   3.380   2.712   0.003
 9765TIP3    H129236   3.353   2.642  -0.055
 9765TIP3    H229237   3.465   2.683   0.038
 9766TIP3   OH229238   7.439   3.701   4.323
 9766TIP3    H129239   7.498   3.745   4.385
 9766TIP3    H229240   7.354   3.742   4.338
 9767TIP3   OH229241   1.377   5.502   3.826
 9767TIP3    H129242   1.433   5.490   3.749
 9767TIP3    H229243   1.311   5.433   3.818
 9768TIP3   OH229244   8.151   0.533   4.767
 9768TIP3    H129245   8.129   0.476   4.693
 9768TIP3    H229246   8.123   0.620   4.739
 9769TIP3   OH229247   2.674   5.573   6.349
 9769TIP3    H129248   2.588   5.604   6.377
 9769TIP3    H229249   2.681   5.485   6.386
 9770TIP3   OH229250   6.296   4.433   4.595
 9770TIP3    H129251   6.270   4.413   4.684
 9770TIP3    H229252   6.383   4.393   4.586
 9771TIP3   OH229253   5.044   6.294   0.356
 9771TIP3    H129254   5.040   6.380   0.399
 9771TIP3    H229255   5.132   6.262   0.375
 9772TIP3   OH229256   3.114   6.759   4.494
 9772TIP3    H129257   3.167   6.710   4.557
 9772TIP3    H229258   3.027   6.718   4.499
 9773TIP3   OH229259   2.279   5.491   0.722
 9773TIP3    H129260   2.214   5.507   0.653
 9773TIP3    H229261   2.261   5.558   0.787
 9774TIP3   OH229262   7.543   6.761   5.741
 9774TIP3    H129263   7.537   6.711   5.823
 9774TIP3    H229264   7.463   6.814   5.740
 9775TIP3   OH229265   7.493   7.271   2.095
 9775TIP3    H129266   7.468   7.289   2.004
 9775TIP3    H229267   7.527   7.355   2.127
 9776TIP3   OH229268   6.435   3.604   0.377
 9776TIP3    H129269   6.457   3.694   0.400
 9776TIP3    H229270   6.367   3.578   0.439
 9777TIP3   OH229271   1.753   0.919   5.151
 9777TIP3    H129272   1.751   0.869   5.232
 9777TIP3    H229273   1.665   0.909   5.114
 9778TIP3   OH229274   5.415   0.403   1.604
 9778TIP3    H129275   5.494   0.362   1.639
 9778TIP3    H229276   5.351   0.399   1.675
 9779TIP3   OH229277   0.514   5.156   2.891
 9779TIP3    H129278   0.437   5.208   2.912
 9779TIP3    H229279   0.503   5.075   2.940
 9780TIP3   OH229280   7.879   1.222   5.919
 9780TIP3    H129281   7.946   1.287   5.941
 9780TIP3    H229282   7.798   1.273   5.909
 9781TIP3   OH229283   1.353   0.198   2.571
 9781TIP3    H129284   1.373   0.281   2.526
 9781TIP3    H229285   1.331   0.223   2.660
 9782TIP3   OH229286   0.188   1.513   4.383
 9782TIP3    H129287   0.236   1.435   4.409
 9782TIP3    H229288   0.117   1.481   4.328
 9783TIP3   OH229289   3.007   7.714   5.123
 9783TIP3    H129290   3.044   7.706   5.035
 9783TIP3    H229291   2.942   7.784   5.114
 9784TIP3   OH229292   1.124   7.061   3.373
 9784TIP3    H129293   1.161   7.143   3.340
 9784TIP3    H229294   1.159   7.052   3.461
 9785TIP3   OH229295   7.233   4.315   2.341
 9785TIP3    H129296   7.308   4.305   2.282
 9785TIP3    H229297   7.232   4.407   2.365
 9786TIP3   OH229298   5.170   3.105   1.900
 9786TIP3    H129299   5.086   3.120   1.943
 9786TIP3    H229300   5.205   3.026   1.942
 9787TIP3   OH229301   2.351   1.833   4.007
 9787TIP3    H129302   2.328   1.740   4.005
 9787TIP3    H229303   2.267   1.879   3.996
 9788TIP3   OH229304   1.249   4.332   3.424
 9788TIP3    H129305   1.209   4.401   3.371
 9788TIP3    H229306   1.342   4.338   3.406
 9789TIP3   OH229307   1.181   2.768   4.061
 9789TIP3    H129308   1.135   2.695   4.102
 9789TIP3    H229309   1.138   2.846   4.095
 9790TIP3   OH229310   7.589   1.618   6.179
 9790TIP3    H129311   7.667   1.564   6.164
 9790TIP3    H229312   7.594   1.687   6.112
 9791TIP3   OH229313   3.561   5.425   0.301
 9791TIP3    H129314   3.559   5.491   0.232
 9791TIP3    H229315   3.471   5.425   0.336
 9792TIP3   OH229316   3.904   2.804   2.358
 9792TIP3    H129317   3.883   2.896   2.372
 9792TIP3    H229318   3.866   2.783   2.273
 9793TIP3   OH229319   0.011   3.593   2.189
 9793TIP3    H129320  -0.022   3.674   2.148
 9793TIP3    H229321   0.033   3.536   2.115
 9794TIP3   OH229322   7.947   5.909   1.508
 9794TIP3    H129323   7.973   5.889   1.418
 9794TIP3    H229324   7.852   5.894   1.509
 9795TIP3   OH229325   8.096   2.297   1.906
 9795TIP3    H129326   8.133   2.266   1.989
 9795TIP3    H229327   8.159   2.361   1.874
 9796TIP3   OH229328   6.026   0.693   3.062
 9796TIP3    H129329   6.030   0.748   3.140
 9796TIP3    H229330   5.942   0.715   3.021
 9797TIP3   OH229331   7.364   6.230   6.349
 9797TIP3    H129332   7.290   6.173   6.369
 9797TIP3    H229333   7.441   6.178   6.372
 9798TIP3   OH229334   5.132   4.305   1.319
 9798TIP3    H129335   5.153   4.214   1.340
 9798TIP3    H229336   5.155   4.315   1.227
 9799TIP3   OH229337   7.350   0.269   3.430
 9799TIP3    H129338   7.444   0.278   3.414
 9799TIP3    H229339   7.343   0.249   3.523
 9800TIP3   OH229340   7.469   2.216   6.040
 9800TIP3    H129341   7.539   2.167   6.083
 9800TIP3    H229342   7.513   2.268   5.973
 9801TIP3   OH229343   5.086   0.258   2.762
 9801TIP3    H129344   5.026   0.308   2.708
 9801TIP3    H229345   5.171   0.302   2.751
 9802TIP3   OH229346   6.720   1.568   6.499
 9802TIP3    H129347   6.678   1.565   6.413
 9802TIP3    H229348   6.793   1.506   6.492
 9803TIP3   OH229349   4.180   1.858   3.027
 9803TIP3    H129350   4.091   1.843   2.997
 9803TIP3    H229351   4.177   1.842   3.121
 9804TIP3   OH229352   6.875   2.182   3.795
 9804TIP3    H129353   6.900   2.113   3.734
 9804TIP3    H229354   6.904   2.150   3.880
 9805TIP3   OH229355   3.416   7.624   0.146
 9805TIP3    H129356   3.504   7.650   0.120
 9805TIP3    H229357   3.429   7.566   0.221
 9806TIP3   OH229358   5.568   0.291   0.555
 9806TIP3    H129359   5.621   0.356   0.509
 9806TIP3    H229360   5.561   0.218   0.494
 9807TIP3   OH229361   5.518   2.509   0.890
 9807TIP3    H129362   5.482   2.443   0.831
 9807TIP3    H229363   5.475   2.491   0.974
 9808TIP3   OH229364   2.796   6.594   6.491
 9808TIP3    H129365   2.865   6.529   6.483
 9808TIP3    H229366   2.829   6.657   6.555
 9809TIP3   OH229367   1.057   2.498   2.485
 9809TIP3    H129368   1.147   2.493   2.517
 9809TIP3    H229369   1.005   2.459   2.555
 9810TIP3   OH229370   7.915   6.929   6.320
 9810TIP3    H129371   7.923   6.997   6.388
 9810TIP3    H229372   7.930   6.976   6.238
 9811TIP3   OH229373   3.700   4.334   6.039
 9811TIP3    H129374   3.620   4.332   6.092
 9811TIP3    H229375   3.712   4.244   6.009
 9812TIP3   OH229376   5.948   7.037   0.181
 9812TIP3    H129377   5.951   7.131   0.201
 9812TIP3    H229378   5.885   7.030   0.109
 9813TIP3   OH229379   2.514   1.201   0.764
 9813TIP3    H129380   2.433   1.159   0.794
 9813TIP3    H229381   2.528   1.273   0.824
 9814TIP3   OH229382   2.398   1.726   5.865
 9814TIP3    H129383   2.405   1.761   5.953
 9814TIP3    H229384   2.309   1.746   5.838
 9815TIP3   OH229385   1.334   4.140   5.912
 9815TIP3    H129386   1.425   4.111   5.905
 9815TIP3    H229387   1.333   4.197   5.988
 9816TIP3   OH229388   4.794   1.888   3.509
 9816TIP3    H129389   4.790   1.941   3.429
 9816TIP3    H229390   4.721   1.919   3.562
 9817TIP3   OH229391   1.708   7.360   2.780
 9817TIP3    H129392   1.665   7.440   2.749
 9817TIP3    H229393   1.797   7.367   2.747
 9818TIP3   OH229394   5.920   1.144   1.540
 9818TIP3    H129395   5.827   1.132   1.520
 9818TIP3    H229396   5.966   1.102   1.467
 9819TIP3   OH229397   5.729   5.209   4.682
 9819TIP3    H129398   5.811   5.162   4.699
 9819TIP3    H229399   5.752   5.301   4.695
 9820TIP3   OH229400   4.899   7.832   4.977
 9820TIP3    H129401   4.933   7.922   4.971
 9820TIP3    H229402   4.949   7.792   5.048
 9821TIP3   OH229403   5.292   4.576   2.704
 9821TIP3    H129404   5.313   4.483   2.698
 9821TIP3    H229405   5.197   4.580   2.701
 9822TIP3   OH229406   3.153   1.584   2.096
 9822TIP3    H129407   3.148   1.592   2.191
 9822TIP3    H229408   3.091   1.515   2.073
 9823TIP3   OH229409   5.353   1.318   4.088
 9823TIP3    H129410   5.304   1.359   4.017
 9823TIP3    H229411   5.411   1.256   4.044
 9824TIP3   OH229412   0.402   1.399   6.497
 9824TIP3    H129413   0.475   1.378   6.439
 9824TIP3    H229414   0.360   1.315   6.513
 9825TIP3   OH229415   3.203   1.178   6.410
 9825TIP3    H129416   3.237   1.241   6.347
 9825TIP3    H229417   3.124   1.220   6.445
 9826TIP3   OH229418   5.403   0.291   4.561
 9826TIP3    H129419   5.408   0.382   4.590
 9826TIP3    H229420   5.333   0.253   4.615
 9827TIP3   OH229421   5.870   4.648   6.161
 9827TIP3    H129422   5.943   4.710   6.156
 9827TIP3    H229423   5.793   4.703   6.176
 9828TIP3   OH229424   3.866   7.224   0.243
 9828TIP3    H129425   3.954   7.228   0.279
 9828TIP3    H229426   3.877   7.241   0.150
 9829TIP3   OH229427   7.004   6.231   0.016
 9829TIP3    H129428   7.096   6.209   0.001
 9829TIP3    H229429   6.994   6.319  -0.022
 9830TIP3   OH229430   5.115   4.392   1.846
 9830TIP3    H129431   5.026   4.425   1.837
 9830TIP3    H229432   5.158   4.455   1.905
 9831TIP3   OH229433   1.230   4.092   6.256
 9831TIP3    H129434   1.141   4.127   6.259
 9831TIP3    H229435   1.218   3.997   6.263
 9832TIP3   OH229436   5.392   3.323   6.318
 9832TIP3    H129437   5.449   3.328   6.396
 9832TIP3    H229438   5.439   3.373   6.251
 9833TIP3   OH229439   6.033   4.952   6.773
 9833TIP3    H129440   6.007   5.032   6.726
 9833TIP3    H229441   6.125   4.940   6.752
 9834TIP3   OH229442   2.110   6.734   5.652
 9834TIP3    H129443   2.041   6.704   5.592
 9834TIP3    H229444   2.065   6.747   5.735
 9835TIP3   OH229445   7.080   2.338   6.587
 9835TIP3    H129446   7.035   2.375   6.511
 9835TIP3    H229447   7.171   2.328   6.558
 9836TIP3   OH229448   2.892   5.141   1.587
 9836TIP3    H129449   2.849   5.085   1.522
 9836TIP3    H229450   2.979   5.104   1.598
 9837TIP3   OH229451   3.962   1.743   6.444
 9837TIP3    H129452   3.942   1.658   6.407
 9837TIP3    H229453   3.967   1.802   6.368
 9838TIP3   OH229454   7.941   0.664   2.019
 9838TIP3    H129455   7.896   0.610   2.084
 9838TIP3    H229456   7.881   0.736   2.002
 9839TIP3   OH229457   6.143   1.596   2.363
 9839TIP3    H129458   6.235   1.619   2.373
 9839TIP3    H229459   6.130   1.588   2.268
 9840TIP3   OH229460   7.662   2.013   0.685
 9840TIP3    H129461   7.727   2.083   0.695
 9840TIP3    H229462   7.607   2.043   0.612
 9841TIP3   OH229463   3.488   2.637   1.396
 9841TIP3    H129464   3.419   2.573   1.377
 9841TIP3    H229465   3.494   2.639   1.491
 9842TIP3   OH229466   2.742   4.139   4.599
 9842TIP3    H129467   2.707   4.215   4.645
 9842TIP3    H229468   2.665   4.086   4.579
 9843TIP3   OH229469   8.391   3.078   6.465
 9843TIP3    H129470   8.398   2.984   6.480
 9843TIP3    H229471   8.302   3.091   6.432
 9844TIP3   OH229472   8.062   5.331   3.479
 9844TIP3    H129473   8.035   5.275   3.552
 9844TIP3    H229474   8.112   5.402   3.520
 9845TIP3   OH229475   5.291   1.179   6.057
 9845TIP3    H129476   5.325   1.220   6.136
 9845TIP3    H229477   5.356   1.200   5.989
 9846TIP3   OH229478   5.478   3.174   0.810
 9846TIP3    H129479   5.411   3.138   0.751
 9846TIP3    H229480   5.520   3.243   0.759
 9847TIP3   OH229481   3.920   3.722   1.740
 9847TIP3    H129482   3.853   3.750   1.678
 9847TIP3    H229483   3.873   3.668   1.803
 9848TIP3   OH229484   0.586   7.083   6.093
 9848TIP3    H129485   0.577   7.178   6.090
 9848TIP3    H229486   0.611   7.063   6.183
 9849TIP3   OH229487   3.417   3.732   5.278
 9849TIP3    H129488   3.401   3.642   5.251
 9849TIP3    H229489   3.509   3.732   5.306
 9850TIP3   OH229490   1.755   5.429   3.596
 9850TIP3    H129491   1.844   5.418   3.630
 9850TIP3    H229492   1.767   5.437   3.501
 9851TIP3   OH229493   8.185   3.620   5.772
 9851TIP3    H129494   8.169   3.557   5.702
 9851TIP3    H229495   8.264   3.588   5.816
 9852TIP3   OH229496   4.366   2.227   0.425
 9852TIP3    H129497   4.297   2.254   0.487
 9852TIP3    H229498   4.319   2.207   0.344
 9853TIP3   OH229499   7.489   4.237   4.718
 9853TIP3    H129500   7.421   4.275   4.774
 9853TIP3    H229501   7.469   4.271   4.631
 9854TIP3   OH229502   3.487   3.153   4.366
 9854TIP3    H129503   3.475   3.158   4.271
 9854TIP3    H229504   3.541   3.230   4.387
 9855TIP3   OH229505   0.185   0.387   6.796
 9855TIP3    H129506   0.236   0.460   6.760
 9855TIP3    H229507   0.128   0.360   6.724
 9856TIP3   OH229508   6.157   2.578   6.689
 9856TIP3    H129509   6.252   2.578   6.698
 9856TIP3    H229510   6.136   2.491   6.656
 9857TIP3   OH229511   2.688   5.419   0.951
 9857TIP3    H129512   2.642   5.499   0.977
 9857TIP3    H229513   2.718   5.381   1.034
 9858TIP3   OH229514   7.629   5.936   4.326
 9858TIP3    H129515   7.558   5.881   4.359
 9858TIP3    H229516   7.709   5.894   4.356
 9859TIP3   OH229517   5.291   7.776   1.529
 9859TIP3    H129518   5.206   7.818   1.513
 9859TIP3    H229519   5.273   7.709   1.595
 9860TIP3   OH229520   7.728   3.015   6.518
 9860TIP3    H129521   7.702   3.107   6.524
 9860TIP3    H229522   7.823   3.016   6.528
 9861TIP3   OH229523   2.937   1.088   1.437
 9861TIP3    H129524   2.879   1.045   1.500
 9861TIP3    H229525   2.880   1.114   1.365
 9862TIP3   OH229526   3.120   3.560   0.802
 9862TIP3    H129527   3.159   3.491   0.748
 9862TIP3    H229528   3.074   3.616   0.740
 9863TIP3   OH229529   0.743   1.859   1.410
 9863TIP3    H129530   0.812   1.925   1.423
 9863TIP3    H229531   0.723   1.829   1.499
 9864TIP3   OH229532   0.899   6.763   5.735
 9864TIP3    H129533   0.981   6.745   5.689
 9864TIP3    H229534   0.869   6.677   5.765
 9865TIP3   OH229535   6.589   5.478   2.590
 9865TIP3    H129536   6.512   5.466   2.534
 9865TIP3    H229537   6.625   5.563   2.564
 9866TIP3   OH229538   3.765   1.094   2.178
 9866TIP3    H129539   3.814   1.135   2.106
 9866TIP3    H229540   3.681   1.071   2.139
 9867TIP3   OH229541   7.882   1.407   4.696
 9867TIP3    H129542   7.975   1.397   4.716
 9867TIP3    H229543   7.853   1.318   4.676
 9868TIP3   OH229544   4.452   0.140   6.186
 9868TIP3    H129545   4.448   0.206   6.116
 9868TIP3    H229546   4.408   0.063   6.149
 9869TIP3   OH229547   5.771   0.570   2.935
 9869TIP3    H129548   5.816   0.586   2.852
 9869TIP3    H229549   5.685   0.612   2.924
 9870TIP3   OH229550   6.287   2.903   3.084
 9870TIP3    H129551   6.236   2.876   3.160
 9870TIP3    H229552   6.281   2.999   3.084
 9871TIP3   OH229553   5.071   5.115   5.781
 9871TIP3    H129554   5.021   5.191   5.811
 9871TIP3    H229555   5.062   5.116   5.685
 9872TIP3   OH229556   2.601   6.231   3.760
 9872TIP3    H129557   2.517   6.222   3.805
 9872TIP3    H229558   2.661   6.176   3.810
 9873TIP3   OH229559   6.203   0.287   0.763
 9873TIP3    H129560   6.221   0.302   0.670
 9873TIP3    H229561   6.141   0.215   0.764
 9874TIP3   OH229562   0.161   7.615   0.764
 9874TIP3    H129563   0.198   7.553   0.827
 9874TIP3    H229564   0.188   7.701   0.796
 9875TIP3   OH229565   3.002   4.952   2.716
 9875TIP3    H129566   3.077   4.999   2.678
 9875TIP3    H229567   3.024   4.943   2.809
 9876TIP3   OH229568   4.883   7.443   3.964
 9876TIP3    H129569   4.842   7.362   3.994
 9876TIP3    H229570   4.932   7.418   3.886
 9877TIP3   OH229571   4.109   2.073   2.690
 9877TIP3    H129572   4.117   2.105   2.600
 9877TIP3    H229573   4.059   1.992   2.682
 9878TIP3   OH229574  -0.033   5.802   3.746
 9878TIP3    H129575  -0.078   5.736   3.798
 9878TIP3    H229576   0.038   5.833   3.802
 9879TIP3   OH229577   0.956   4.841   0.973
 9879TIP3    H129578   0.972   4.914   1.034
 9879TIP3    H229579   0.907   4.778   1.025
 9880TIP3   OH229580   5.680   1.334   1.402
 9880TIP3    H129581   5.747   1.287   1.452
 9880TIP3    H229582   5.656   1.274   1.331
 9881TIP3   OH229583   6.129   2.531   5.695
 9881TIP3    H129584   6.120   2.474   5.771
 9881TIP3    H229585   6.200   2.591   5.717
 9882TIP3   OH229586   7.462   1.934   3.474
 9882TIP3    H129587   7.461   2.027   3.494
 9882TIP3    H229588   7.499   1.928   3.386
 9883TIP3   OH229589   1.957   6.995   5.415
 9883TIP3    H129590   1.934   7.083   5.386
 9883TIP3    H229591   2.018   6.963   5.348
 9884TIP3   OH229592   7.228   5.998   6.378
 9884TIP3    H129593   7.234   5.951   6.295
 9884TIP3    H229594   7.235   5.929   6.444
 9885TIP3   OH229595   0.366   1.300   4.481
 9885TIP3    H129596   0.316   1.224   4.511
 9885TIP3    H229597   0.375   1.355   4.559
 9886TIP3   OH229598   5.769   7.264   6.318
 9886TIP3    H129599   5.798   7.212   6.243
 9886TIP3    H229600   5.722   7.202   6.374
 9887TIP3   OH229601   2.491   7.678   2.969
 9887TIP3    H129602   2.507   7.666   3.062
 9887TIP3    H229603   2.545   7.754   2.945
 9888TIP3   OH229604   7.110   5.571   4.779
 9888TIP3    H129605   7.080   5.610   4.862
 9888TIP3    H229606   7.189   5.524   4.802
 9889TIP3   OH229607   4.478   7.237   6.491
 9889TIP3    H129608   4.479   7.234   6.586
 9889TIP3    H229609   4.409   7.175   6.466
 9890TIP3   OH229610   1.162   5.364   3.267
 9890TIP3    H129611   1.187   5.412   3.345
 9890TIP3    H229612   1.087   5.311   3.294
 9891TIP3   OH229613   8.118   0.363   0.685
 9891TIP3    H129614   8.110   0.269   0.703
 9891TIP3    H229615   8.127   0.404   0.771
 9892TIP3   OH229616   3.760   3.197   3.947
 9892TIP3    H129617   3.789   3.279   3.907
 9892TIP3    H229618   3.806   3.193   4.031
 9893TIP3   OH229619   3.794   3.864   0.213
 9893TIP3    H129620   3.758   3.918   0.283
 9893TIP3    H229621   3.758   3.777   0.228
 9894TIP3   OH229622   1.985   5.032   2.281
 9894TIP3    H129623   1.932   5.044   2.360
 9894TIP3    H229624   1.935   5.076   2.212
 9895TIP3   OH229625   4.780   5.055   6.008
 9895TIP3    H129626   4.744   5.143   6.019
 9895TIP3    H229627   4.874   5.067   6.019
 9896TIP3   OH229628   0.162   5.930   3.537
 9896TIP3    H129629   0.116   5.920   3.620
 9896TIP3    H229630   0.254   5.929   3.560
 9897TIP3   OH229631   4.289   5.698   3.945
 9897TIP3    H129632   4.321   5.727   4.030
 9897TIP3    H229633   4.245   5.775   3.909
 9898TIP3   OH229634   0.238   5.212   6.122
 9898TIP3    H129635   0.203   5.141   6.068
 9898TIP3    H229636   0.247   5.285   6.061
 9899TIP3   OH229637   6.006   2.398   1.212
 9899TIP3    H129638   6.057   2.415   1.291
 9899TIP3    H229639   5.922   2.365   1.245
 9900TIP3   OH229640   2.732   5.782   4.402
 9900TIP3    H129641   2.671   5.720   4.442
 9900TIP3    H229642   2.704   5.868   4.436
 9901TIP3   OH229643   7.268   2.111   6.820
 9901TIP3    H129644   7.249   2.190   6.871
 9901TIP3    H229645   7.363   2.100   6.827
 9902TIP3   OH229646   0.204   6.060   6.307
 9902TIP3    H129647   0.185   5.967   6.298
 9902TIP3    H229648   0.217   6.073   6.401
 9903TIP3   OH229649   0.658   4.077   5.068
 9903TIP3    H129650   0.598   4.151   5.063
 9903TIP3    H229651   0.695   4.070   4.980
 9904TIP3   OH229652   1.908   0.524   2.168
 9904TIP3    H129653   1.931   0.532   2.075
 9904TIP3    H229654   1.885   0.432   2.180
 9905TIP3   OH229655   3.783   1.229   6.204
 9905TIP3    H129656   3.767   1.296   6.271
 9905TIP3    H229657   3.817   1.154   6.252
 9906TIP3   OH229658   3.561   3.759   6.621
 9906TIP3    H129659   3.613   3.684   6.652
 9906TIP3    H229660   3.625   3.819   6.583
 9907TIP3   OH229661   2.862   2.298   3.342
 9907TIP3    H129662   2.893   2.324   3.255
 9907TIP3    H229663   2.770   2.322   3.343
 9908TIP3   OH229664   4.566   7.511   1.599
 9908TIP3    H129665   4.559   7.484   1.690
 9908TIP3    H229666   4.658   7.537   1.589
 9909TIP3   OH229667   0.398   1.828   1.652
 9909TIP3    H129668   0.464   1.809   1.719
 9909TIP3    H229669   0.315   1.821   1.697
 9910TIP3   OH229670   3.653   6.217   1.091
 9910TIP3    H129671   3.665   6.229   0.996
 9910TIP3    H229672   3.560   6.198   1.101
 9911TIP3   OH229673   3.692   0.577   6.390
 9911TIP3    H129674   3.648   0.492   6.394
 9911TIP3    H229675   3.744   0.574   6.310
 9912TIP3   OH229676   4.182   7.673   2.645
 9912TIP3    H129677   4.264   7.635   2.614
 9912TIP3    H229678   4.202   7.705   2.733
 9913TIP3   OH229679   2.422   7.301   5.166
 9913TIP3    H129680   2.500   7.291   5.111
 9913TIP3    H229681   2.393   7.212   5.183
 9914TIP3   OH229682   6.695   2.554   5.832
 9914TIP3    H129683   6.742   2.531   5.912
 9914TIP3    H229684   6.649   2.635   5.853
 9915TIP3   OH229685   3.511   0.199   3.976
 9915TIP3    H129686   3.439   0.165   3.922
 9915TIP3    H229687   3.524   0.132   4.043
 9916TIP3   OH229688   1.822   7.656   2.250
 9916TIP3    H129689   1.749   7.718   2.248
 9916TIP3    H229690   1.845   7.650   2.343
 9917TIP3   OH229691   2.472   0.401   3.391
 9917TIP3    H129692   2.407   0.468   3.373
 9917TIP3    H229693   2.494   0.365   3.305
 9918TIP3   OH229694   3.687   7.376   3.546
 9918TIP3    H129695   3.741   7.297   3.550
 9918TIP3    H229696   3.731   7.431   3.482
 9919TIP3   OH229697   1.352   3.166   4.092
 9919TIP3    H129698   1.319   3.222   4.022
 9919TIP3    H229699   1.368   3.226   4.165
 9920TIP3   OH229700   2.994   1.952   6.036
 9920TIP3    H129701   3.082   1.938   6.073
 9920TIP3    H229702   3.010   1.987   5.949
 9921TIP3   OH229703   2.491   2.457   4.096
 9921TIP3    H129704   2.462   2.531   4.043
 9921TIP3    H229705   2.518   2.495   4.179
 9922TIP3   OH229706   6.005   4.324   3.357
 9922TIP3    H129707   6.062   4.371   3.297
 9922TIP3    H229708   6.064   4.290   3.424
 9923TIP3   OH229709   4.725   2.326   2.690
 9923TIP3    H129710   4.705   2.340   2.782
 9923TIP3    H229711   4.639   2.322   2.647
 9924TIP3   OH229712   5.455   5.683   6.378
 9924TIP3    H129713   5.469   5.744   6.451
 9924TIP3    H229714   5.445   5.739   6.301
 9925TIP3   OH229715   3.628   2.457   1.137
 9925TIP3    H129716   3.691   2.466   1.066
 9925TIP3    H229717   3.547   2.426   1.094
 9926TIP3   OH229718   5.090   0.823   4.539
 9926TIP3    H129719   5.087   0.835   4.444
 9926TIP3    H229720   5.084   0.728   4.551
 9927TIP3   OH229721   2.820   6.190   5.087
 9927TIP3    H129722   2.801   6.138   5.165
 9927TIP3    H229723   2.850   6.274   5.120
 9928TIP3   OH229724   0.481   2.918   1.571
 9928TIP3    H129725   0.475   2.848   1.506
 9928TIP3    H229726   0.439   2.993   1.530
 9929TIP3   OH229727   4.202   1.162   3.645
 9929TIP3    H129728   4.137   1.212   3.695
 9929TIP3    H229729   4.285   1.178   3.689
 9930TIP3   OH229730   6.497   2.595   4.789
 9930TIP3    H129731   6.402   2.594   4.802
 9930TIP3    H229732   6.527   2.671   4.839
 9931TIP3   OH229733   6.358   0.064   1.416
 9931TIP3    H129734   6.350   0.144   1.467
 9931TIP3    H229735   6.451   0.056   1.396
 9932TIP3   OH229736   0.287   0.319   5.080
 9932TIP3    H129737   0.358   0.264   5.046
 9932TIP3    H229738   0.318   0.408   5.068
 9933TIP3   OH229739   1.359   7.747   5.271
 9933TIP3    H129740   1.326   7.792   5.348
 9933TIP3    H229741   1.382   7.816   5.210
 9934TIP3   OH229742   6.533   2.601   5.591
 9934TIP3    H129743   6.614   2.642   5.621
 9934TIP3    H229744   6.554   2.566   5.505
 9935TIP3   OH229745   1.577   5.060   1.097
 9935TIP3    H129746   1.622   5.017   1.024
 9935TIP3    H229747   1.501   5.102   1.057
 9936TIP3   OH229748   0.022   4.403   2.861
 9936TIP3    H129749  -0.021   4.380   2.944
 9936TIP3    H229750   0.111   4.427   2.887
 9937TIP3   OH229751   5.285   6.441   4.630
 9937TIP3    H129752   5.301   6.534   4.613
 9937TIP3    H229753   5.197   6.438   4.668
 9938TIP3   OH229754   2.195   6.999   5.975
 9938TIP3    H129755   2.259   7.013   6.044
 9938TIP3    H229756   2.247   6.991   5.895
 9939TIP3   OH229757   6.923   7.442   3.808
 9939TIP3    H129758   6.840   7.446   3.855
 9939TIP3    H229759   6.986   7.410   3.873
 9940TIP3   OH229760   2.398   3.820   5.376
 9940TIP3    H129761   2.459   3.755   5.342
 9940TIP3    H229762   2.383   3.794   5.467
 9941TIP3   OH229763   1.682   1.879   4.059
 9941TIP3    H129764   1.762   1.914   4.099
 9941TIP3    H229765   1.663   1.939   3.987
 9942TIP3   OH229766   3.567   1.783   1.697
 9942TIP3    H129767   3.499   1.716   1.700
 9942TIP3    H229768   3.614   1.768   1.615
 9943TIP3   OH229769   4.919   7.054  -0.019
 9943TIP3    H129770   4.920   7.076   0.074
 9943TIP3    H229771   4.997   7.001  -0.033
 9944TIP3   OH229772   0.216   0.025   5.656
 9944TIP3    H129773   0.137  -0.016   5.620
 9944TIP3    H229774   0.266   0.052   5.579
 9945TIP3   OH229775   7.295   2.853   5.889
 9945TIP3    H129776   7.364   2.789   5.870
 9945TIP3    H229777   7.336   2.915   5.949
 9946TIP3   OH229778   5.015   3.355   3.277
 9946TIP3    H129779   4.990   3.273   3.320
 9946TIP3    H229780   5.087   3.331   3.219
 9947TIP3   OH229781   1.260   4.910   1.644
 9947TIP3    H129782   1.280   4.911   1.737
 9947TIP3    H229783   1.264   5.002   1.617
 9948TIP3   OH229784   5.575   0.343   1.810
 9948TIP3    H129785   5.629   0.295   1.873
 9948TIP3    H229786   5.488   0.342   1.849
 9949TIP3   OH229787   7.308   0.022   6.202
 9949TIP3    H129788   7.296   0.073   6.122
 9949TIP3    H229789   7.240   0.054   6.261
 9950TIP3   OH229790   2.450   3.672   1.914
 9950TIP3    H129791   2.387   3.694   1.845
 9950TIP3    H229792   2.441   3.577   1.926
 9951TIP3   OH229793   7.060   6.333   6.338
 9951TIP3    H129794   7.130   6.376   6.388
 9951TIP3    H229795   7.104   6.299   6.260
 9952TIP3   OH229796   6.299   5.457   4.507
 9952TIP3    H129797   6.270   5.380   4.457
 9952TIP3    H229798   6.311   5.524   4.440
 9953TIP3   OH229799   8.281   4.530   6.334
 9953TIP3    H129800   8.234   4.451   6.309
 9953TIP3    H229801   8.368   4.499   6.362
 9954TIP3   OH229802   6.347   5.213   5.168
 9954TIP3    H129803   6.306   5.229   5.253
 9954TIP3    H229804   6.439   5.235   5.181
 9955TIP3   OH229805   7.114   3.531   3.728
 9955TIP3    H129806   7.099   3.507   3.636
 9955TIP3    H229807   7.153   3.618   3.724
 9956TIP3   OH229808   3.413   2.658   2.908
 9956TIP3    H129809   3.375   2.610   2.834
 9956TIP3    H229810   3.367   2.624   2.985
 9957TIP3   OH229811   4.947   1.593   2.742
 9957TIP3    H129812   4.861   1.563   2.713
 9957TIP3    H229813   4.954   1.682   2.707
 9958TIP3   OH229814   1.060   6.526   6.751
 9958TIP3    H129815   1.026   6.440   6.776
 9958TIP3    H229816   1.056   6.578   6.832
 9959TIP3   OH229817   3.506   4.041   4.347
 9959TIP3    H129818   3.565   3.968   4.368
 9959TIP3    H229819   3.529   4.108   4.411
 9960TIP3   OH229820   1.738   2.703   4.440
 9960TIP3    H129821   1.700   2.787   4.467
 9960TIP3    H229822   1.755   2.657   4.522
 9961TIP3   OH229823   7.456   0.497   1.013
 9961TIP3    H129824   7.474   0.588   1.037
 9961TIP3    H229825   7.512   0.481   0.937
 9962TIP3   OH229826   3.505   6.688   6.605
 9962TIP3    H129827   3.450   6.727   6.537
 9962TIP3    H229828   3.490   6.741   6.683
 9963TIP3   OH229829   3.995   2.474   4.231
 9963TIP3    H129830   4.022   2.397   4.281
 9963TIP3    H229831   3.909   2.451   4.195
 9964TIP3   OH229832   3.932   0.452   4.005
 9964TIP3    H129833   4.014   0.441   4.054
 9964TIP3    H229834   3.929   0.546   3.984
 9965TIP3   OH229835   4.889   3.912   4.584
 9965TIP3    H129836   4.818   3.976   4.583
 9965TIP3    H229837   4.960   3.956   4.631
 9966TIP3   OH229838   8.270   5.219   5.503
 9966TIP3    H129839   8.211   5.145   5.489
 9966TIP3    H229840   8.213   5.289   5.535
 9967TIP3   OH229841   5.124   7.080   0.460
 9967TIP3    H129842   5.125   6.985   0.462
 9967TIP3    H229843   5.099   7.106   0.549
 9968TIP3   OH229844   0.492   5.315   5.074
 9968TIP3    H129845   0.544   5.243   5.109
 9968TIP3    H229846   0.547   5.352   5.005
 9969TIP3   OH229847   8.301   2.214   0.870
 9969TIP3    H129848   8.220   2.167   0.890
 9969TIP3    H229849   8.335   2.172   0.791
 9970TIP3   OH229850   0.186   1.048   3.581
 9970TIP3    H129851   0.212   1.123   3.527
 9970TIP3    H229852   0.198   0.972   3.524
 9971TIP3   OH229853   7.010   2.744   1.430
 9971TIP3    H129854   7.067   2.801   1.380
 9971TIP3    H229855   6.937   2.725   1.372
 9972TIP3   OH229856   4.717   0.999   2.566
 9972TIP3    H129857   4.717   1.002   2.470
 9972TIP3    H229858   4.788   1.057   2.592
 9973TIP3   OH229859   7.802   0.111   0.603
 9973TIP3    H129860   7.718   0.157   0.603
 9973TIP3    H229861   7.839   0.128   0.516
 9974TIP3   OH229862   7.911   4.371   5.458
 9974TIP3    H129863   7.833   4.393   5.509
 9974TIP3    H229864   7.983   4.412   5.506
 9975TIP3   OH229865   8.072   2.107   3.513
 9975TIP3    H129866   8.034   2.191   3.487
 9975TIP3    H229867   8.096   2.065   3.430
 9976TIP3   OH229868   2.414   2.021   5.373
 9976TIP3    H129869   2.417   1.994   5.282
 9976TIP3    H229870   2.426   2.116   5.371
 9977TIP3   OH229871   2.268   0.864   0.407
 9977TIP3    H129872   2.248   0.777   0.372
 9977TIP3    H229873   2.333   0.848   0.476
 9978TIP3   OH229874   7.170   6.152   2.193
 9978TIP3    H129875   7.214   6.236   2.188
 9978TIP3    H229876   7.092   6.168   2.246
 9979TIP3   OH229877   7.452   2.236   1.956
 9979TIP3    H129878   7.527   2.274   2.003
 9979TIP3    H229879   7.392   2.208   2.025
 9980TIP3   OH229880   1.205   6.807   1.860
 9980TIP3    H129881   1.205   6.760   1.943
 9980TIP3    H229882   1.129   6.773   1.813
 9981TIP3   OH229883   4.927   1.929   0.104
 9981TIP3    H129884   4.878   1.943   0.184
 9981TIP3    H229885   4.886   1.987   0.040
 9982TIP3   OH229886   3.661   4.822   2.781
 9982TIP3    H129887   3.718   4.832   2.704
 9982TIP3    H229888   3.596   4.892   2.772
 9983TIP3   OH229889   0.983   7.596   2.112
 9983TIP3    H129890   0.967   7.524   2.172
 9983TIP3    H229891   0.896   7.631   2.092
 9984TIP3   OH229892   4.162   5.946   3.873
 9984TIP3    H129893   4.143   5.995   3.792
 9984TIP3    H229894   4.101   5.982   3.937
 9985TIP3   OH229895   1.259   0.021   6.371
 9985TIP3    H129896   1.201   0.089   6.405
 9985TIP3    H229897   1.265   0.039   6.277
 9986TIP3   OH229898   6.847   1.407   1.638
 9986TIP3    H129899   6.852   1.372   1.727
 9986TIP3    H229900   6.934   1.445   1.622
 9987TIP3   OH229901   3.719   0.328   6.121
 9987TIP3    H129902   3.736   0.315   6.215
 9987TIP3    H229903   3.795   0.288   6.078
 9988TIP3   OH229904   3.196   4.362   6.120
 9988TIP3    H129905   3.137   4.437   6.122
 9988TIP3    H229906   3.161   4.302   6.185
 9989TIP3   OH229907   5.666   0.043   5.836
 9989TIP3    H129908   5.670   0.118   5.777
 9989TIP3    H229909   5.628  -0.028   5.783
 9990TIP3   OH229910   2.031   6.268   1.263
 9990TIP3    H129911   2.031   6.273   1.168
 9990TIP3    H229912   1.938   6.274   1.288
 9991TIP3   OH229913   6.603   2.490   3.759
 9991TIP3    H129914   6.681   2.469   3.811
 9991TIP3    H229915   6.539   2.519   3.824
 9992TIP3   OH229916   2.478   1.235   4.860
 9992TIP3    H129917   2.492   1.170   4.792
 9992TIP3    H229918   2.453   1.184   4.937
 9993TIP3   OH229919   5.442   5.426   0.072
 9993TIP3    H129920   5.498   5.405   0.147
 9993TIP3    H229921   5.502   5.426  -0.003
 9994TIP3   OH229922   2.459   0.813   0.579
 9994TIP3    H129923   2.502   0.729   0.563
 9994TIP3    H229924   2.432   0.808   0.671
 9995TIP3   OH229925   7.310   3.365   6.071
 9995TIP3    H129926   7.337   3.421   5.998
 9995TIP3    H229927   7.360   3.396   6.146
 9996TIP3   OH229928   8.085   0.800   1.837
 9996TIP3    H129929   8.146   0.737   1.800
 9996TIP3    H229930   8.050   0.757   1.915
 9997TIP3   OH229931   0.628   4.151   0.053
 9997TIP3    H129932   0.580   4.234   0.054
 9997TIP3    H229933   0.693   4.160   0.122
 9998TIP3   OH229934   1.794   5.389   0.760
 9998TIP3    H129935   1.864   5.335   0.796
 9998TIP3    H229936   1.833   5.428   0.681
 9999TIP3   OH229937   8.346   4.670   1.017
 9999TIP3    H129938   8.302   4.605   0.963
 9999TIP3    H229939   8.395   4.723   0.954
10000TIP3   OH229940   6.269   3.605   5.994
10000TIP3    H129941   6.286   3.612   6.088
10000TIP3    H229942   6.297   3.690   5.959
10001TIP3   OH229943   2.393   3.778   2.284
10001TIP3    H129944   2.466   3.801   2.342
10001TIP3    H229945   2.435   3.742   2.206
10002TIP3   OH229946   1.141   0.885   3.436
10002TIP3    H129947   1.161   0.852   3.349
10002TIP3    H229948   1.195   0.832   3.495
10003TIP3   OH229949   3.869   5.414   0.869
10003TIP3    H129950   3.929   5.483   0.842
10003TIP3    H229951   3.893   5.340   0.813
10004TIP3   OH229952   2.457   4.266   5.190
10004TIP3    H129953   2.363   4.280   5.201
10004TIP3    H229954   2.482   4.210   5.264
10005TIP3   OH229955   4.173   0.908   3.601
10005TIP3    H129956   4.167   0.863   3.685
10005TIP3    H229957   4.187   1.000   3.624
10006TIP3   OH229958   2.937   1.124   4.895
10006TIP3    H129959   2.924   1.098   4.803
10006TIP3    H229960   2.959   1.042   4.940
10007TIP3   OH229961   3.077   3.543   5.718
10007TIP3    H129962   3.166   3.539   5.754
10007TIP3    H229963   3.022   3.566   5.792
10008TIP3   OH229964   8.158   5.229   0.824
10008TIP3    H129965   8.244   5.253   0.859
10008TIP3    H229966   8.177   5.180   0.744
10009TIP3   OH229967   3.270   1.508   1.377
10009TIP3    H129968   3.200   1.549   1.324
10009TIP3    H229969   3.227   1.436   1.422
10010TIP3   OH229970   5.729   6.925   6.762
10010TIP3    H129971   5.744   6.883   6.847
10010TIP3    H229972   5.639   6.955   6.765
10011TIP3   OH229973   1.952   6.962   0.374
10011TIP3    H129974   2.030   6.963   0.319
10011TIP3    H229975   1.887   7.011   0.325
10012TIP3   OH229976   5.135   3.841   3.824
10012TIP3    H129977   5.179   3.772   3.775
10012TIP3    H229978   5.054   3.801   3.854
10013TIP3   OH229979   6.036   2.544   6.330
10013TIP3    H129980   6.068   2.465   6.375
10013TIP3    H229981   5.942   2.545   6.350
10014TIP3   OH229982   4.553   5.823   2.652
10014TIP3    H129983   4.509   5.907   2.665
10014TIP3    H229984   4.556   5.811   2.557
10015TIP3   OH229985   7.622   6.096   5.128
10015TIP3    H129986   7.617   6.183   5.089
10015TIP3    H229987   7.710   6.092   5.165
10016TIP3   OH229988   4.419   1.406   1.736
10016TIP3    H129989   4.488   1.404   1.802
10016TIP3    H229990   4.396   1.498   1.727
10017TIP3   OH229991   0.798   1.456   1.857
10017TIP3    H129992   0.841   1.373   1.839
10017TIP3    H229993   0.789   1.458   1.953
10018TIP3   OH229994   6.271   4.337   1.565
10018TIP3    H129995   6.300   4.295   1.484
10018TIP3    H229996   6.316   4.421   1.566
10019TIP3   OH229997   6.573   4.416   5.682
10019TIP3    H129998   6.552   4.503   5.650
10019TIP3    H229999   6.496   4.390   5.733
10020TIP3   OH230000   7.608   1.252   6.795
10020TIP3    H130001   7.689   1.268   6.842
10020TIP3    H230002   7.630   1.267   6.703
10021TIP3   OH230003   2.811   6.415   1.266
10021TIP3    H130004   2.877   6.438   1.201
10021TIP3    H230005   2.728   6.425   1.221
10022TIP3   OH230006   1.980   7.286   2.629
10022TIP3    H130007   1.953   7.205   2.673
10022TIP3    H230008   2.075   7.289   2.641
10023TIP3   OH230009   3.959   7.825   2.038
10023TIP3    H130010   4.033   7.885   2.024
10023TIP3    H230011   3.915   7.860   2.116
10024TIP3   OH230012   4.953   5.640   4.082
10024TIP3    H130013   4.871   5.640   4.132
10024TIP3    H230014   4.926   5.661   3.993
10025TIP3   OH230015   3.651   1.526   6.333
10025TIP3    H130016   3.683   1.542   6.244
10025TIP3    H230017   3.633   1.613   6.368
10026TIP3   OH230018   3.103   0.239   2.811
10026TIP3    H130019   3.073   0.148   2.807
10026TIP3    H230020   3.193   0.235   2.781
10027TIP3   OH230021   2.819   4.212   5.933
10027TIP3    H130022   2.857   4.140   5.882
10027TIP3    H230023   2.828   4.183   6.024
10028TIP3   OH230024   5.189   4.544   1.547
10028TIP3    H130025   5.107   4.499   1.566
10028TIP3    H230026   5.163   4.632   1.520
10029TIP3   OH230027   6.624   7.073   6.592
10029TIP3    H130028   6.668   7.157   6.605
10029TIP3    H230029   6.583   7.080   6.506
10030TIP3   OH230030   3.019   6.661   5.851
10030TIP3    H130031   3.018   6.667   5.947
10030TIP3    H230032   2.996   6.569   5.833
10031TIP3   OH230033   5.139   7.522   0.390
10031TIP3    H130034   5.210   7.554   0.335
10031TIP3    H230035   5.176   7.446   0.435
10032TIP3   OH230036   5.801   3.741   2.437
10032TIP3    H130037   5.706   3.749   2.439
10032TIP3    H230038   5.824   3.698   2.519
10033TIP3   OH230039   6.129   2.947   1.232
10033TIP3    H130040   6.055   2.889   1.251
10033TIP3    H230041   6.206   2.894   1.252
10034TIP3   OH230042   7.978   2.593   3.431
10034TIP3    H130043   7.970   2.664   3.495
10034TIP3    H230044   7.895   2.596   3.383
10035TIP3   OH230045   4.901   2.421   0.967
10035TIP3    H130046   4.994   2.439   0.981
10035TIP3    H230047   4.859   2.443   1.051
10036TIP3   OH230048   3.277   4.129   5.920
10036TIP3    H130049   3.295   4.203   5.977
10036TIP3    H230050   3.203   4.158   5.866
10037TIP3   OH230051   7.351   1.836   2.985
10037TIP3    H130052   7.403   1.870   2.912
10037TIP3    H230053   7.261   1.863   2.965
10038TIP3   OH230054   2.408   2.628   1.429
10038TIP3    H130055   2.354   2.661   1.500
10038TIP3    H230056   2.482   2.586   1.473
10039TIP3   OH230057   1.197   6.890   1.469
10039TIP3    H130058   1.117   6.856   1.427
10039TIP3    H230059   1.267   6.836   1.433
10040TIP3   OH230060   6.064   1.052   3.011
10040TIP3    H130061   6.003   1.048   2.937
10040TIP3    H230062   6.149   1.029   2.973
10041TIP3   OH230063   5.298   2.676   1.075
10041TIP3    H130064   5.233   2.727   1.027
10041TIP3    H230065   5.380   2.723   1.062
10042TIP3   OH230066   5.916   4.484   4.174
10042TIP3    H130067   6.010   4.488   4.156
10042TIP3    H230068   5.893   4.393   4.155
10043TIP3   OH230069   2.362   7.471   4.923
10043TIP3    H130070   2.344   7.384   4.959
10043TIP3    H230071   2.442   7.499   4.967
10044TIP3   OH230072   5.846   6.713   0.094
10044TIP3    H130073   5.921   6.773   0.093
10044TIP3    H230074   5.802   6.728   0.010
10045TIP3   OH230075   5.515   2.874   0.539
10045TIP3    H130076   5.602   2.836   0.531
10045TIP3    H230077   5.484   2.845   0.625
10046TIP3   OH230078   0.310   3.916   6.452
10046TIP3    H130079   0.326   3.905   6.359
10046TIP3    H230080   0.364   3.850   6.494
10047TIP3   OH230081   2.002   7.267   6.640
10047TIP3    H130082   2.069   7.332   6.662
10047TIP3    H230083   2.024   7.239   6.551
10048TIP3   OH230084   0.801   3.725   5.874
10048TIP3    H130085   0.849   3.665   5.818
10048TIP3    H230086   0.866   3.757   5.937
10049TIP3   OH230087   3.692   4.286   0.775
10049TIP3    H130088   3.701   4.191   0.781
10049TIP3    H230089   3.752   4.320   0.841
10050TIP3   OH230090   2.049   6.838   6.404
10050TIP3    H130091   2.013   6.877   6.325
10050TIP3    H230092   2.007   6.886   6.476
10051TIP3   OH230093   4.895   5.246   4.155
10051TIP3    H130094   4.908   5.279   4.067
10051TIP3    H230095   4.875   5.153   4.144
10052TIP3   OH230096   0.413   5.860   3.622
10052TIP3    H130097   0.496   5.843   3.578
10052TIP3    H230098   0.434   5.926   3.688
10053TIP3   OH230099   2.959   2.389   2.980
10053TIP3    H130100   3.030   2.428   2.929
10053TIP3    H230101   3.000   2.315   3.025
10054TIP3   OH230102   3.011   3.257   2.222
10054TIP3    H130103   3.078   3.318   2.255
10054TIP3    H230104   2.968   3.305   2.152
10055TIP3   OH230105   1.333   1.408   6.237
10055TIP3    H130106   1.344   1.353   6.160
10055TIP3    H230107   1.272   1.477   6.210
10056TIP3   OH230108   4.636   1.011   6.684
10056TIP3    H130109   4.725   1.044   6.686
10056TIP3    H230110   4.585   1.073   6.736
10057TIP3   OH230111   6.925   4.403   2.850
10057TIP3    H130112   6.999   4.462   2.831
10057TIP3    H230113   6.848   4.459   2.841
10058TIP3   OH230114   2.039   7.793   1.462
10058TIP3    H130115   2.006   7.794   1.552
10058TIP3    H230116   2.040   7.885   1.435
10059TIP3   OH230117   5.274   7.334   0.588
10059TIP3    H130118   5.324   7.266   0.632
10059TIP3    H230119   5.191   7.337   0.635
10060TIP3   OH230120   4.519   3.368   1.276
10060TIP3    H130121   4.548   3.459   1.270
10060TIP3    H230122   4.600   3.316   1.272
10061TIP3   OH230123   3.769   5.697   5.013
10061TIP3    H130124   3.826   5.759   4.970
10061TIP3    H230125   3.824   5.621   5.030
10062TIP3   OH230126   2.520   1.177   2.172
10062TIP3    H130127   2.461   1.237   2.126
10062TIP3    H230128   2.522   1.209   2.262
10063TIP3   OH230129   1.696   4.181   5.446
10063TIP3    H130130   1.661   4.196   5.534
10063TIP3    H230131   1.619   4.168   5.391
10064TIP3   OH230132   1.378   6.541   5.084
10064TIP3    H130133   1.384   6.637   5.087
10064TIP3    H230134   1.468   6.512   5.073
10065TIP3   OH230135   0.513   0.986   6.497
10065TIP3    H130136   0.456   0.916   6.465
10065TIP3    H230137   0.591   0.941   6.528
10066TIP3   OH230138   3.979   3.899   3.926
10066TIP3    H130139   4.057   3.932   3.880
10066TIP3    H230140   3.999   3.912   4.018
10067TIP3   OH230141   6.251   3.252   4.207
10067TIP3    H130142   6.310   3.244   4.282
10067TIP3    H230143   6.229   3.161   4.184
10068TIP3   OH230144   0.706   3.731   4.470
10068TIP3    H130145   0.771   3.662   4.480
10068TIP3    H230146   0.724   3.792   4.541
10069TIP3   OH230147   0.809   7.723   4.037
10069TIP3    H130148   0.831   7.634   4.011
10069TIP3    H230149   0.736   7.748   3.980
10070TIP3   OH230150   5.957   6.803   2.330
10070TIP3    H130151   6.021   6.874   2.320
10070TIP3    H230152   5.992   6.731   2.278
10071TIP3   OH230153   3.497   4.098   5.758
10071TIP3    H130154   3.425   4.105   5.821
10071TIP3    H230155   3.533   4.010   5.774
10072TIP3   OH230156   0.242   6.468   0.286
10072TIP3    H130157   0.302   6.543   0.295
10072TIP3    H230158   0.155   6.505   0.301
10073TIP3   OH230159   3.194   4.006   0.069
10073TIP3    H130160   3.174   4.087   0.023
10073TIP3    H230161   3.127   3.944   0.038
10074TIP3   OH230162   5.851   5.070   3.359
10074TIP3    H130163   5.869   5.028   3.443
10074TIP3    H230164   5.935   5.073   3.314
10075TIP3   OH230165   4.263   7.624   1.695
10075TIP3    H130166   4.279   7.567   1.620
10075TIP3    H230167   4.306   7.706   1.673
10076TIP3   OH230168   7.935   4.413   1.845
10076TIP3    H130169   7.880   4.338   1.822
10076TIP3    H230170   8.018   4.395   1.800
10077TIP3   OH230171   4.424   3.280   4.299
10077TIP3    H130172   4.343   3.315   4.337
10077TIP3    H230173   4.493   3.338   4.332
10078TIP3   OH230174   1.698   0.438   3.719
10078TIP3    H130175   1.714   0.344   3.710
10078TIP3    H230176   1.672   0.466   3.631
10079TIP3   OH230177   6.880   2.684   2.073
10079TIP3    H130178   6.937   2.628   2.021
10079TIP3    H230179   6.806   2.704   2.015
10080TIP3   OH230180   1.353   1.289   3.465
10080TIP3    H130181   1.283   1.311   3.526
10080TIP3    H230182   1.434   1.310   3.513
10081TIP3   OH230183   5.453   4.972   0.661
10081TIP3    H130184   5.460   5.045   0.723
10081TIP3    H230185   5.494   4.898   0.707
10082TIP3   OH230186   6.575   4.087   2.800
10082TIP3    H130187   6.642   4.134   2.750
10082TIP3    H230188   6.617   4.006   2.827
10083TIP3   OH230189   7.828   3.671   1.792
10083TIP3    H130190   7.903   3.643   1.845
10083TIP3    H230191   7.776   3.591   1.781
10084TIP3   OH230192   7.341   0.526   6.645
10084TIP3    H130193   7.274   0.508   6.578
10084TIP3    H230194   7.399   0.450   6.641
10085TIP3   OH230195   3.030  -0.009   6.364
10085TIP3    H130196   2.971   0.062   6.339
10085TIP3    H230197   2.972  -0.079   6.393
10086TIP3   OH230198   6.227   2.295   3.543
10086TIP3    H130199   6.199   2.304   3.634
10086TIP3    H230200   6.174   2.223   3.508
10087TIP3   OH230201   7.266   2.100   2.644
10087TIP3    H130202   7.255   2.060   2.731
10087TIP3    H230203   7.240   2.031   2.583
10088TIP3   OH230204   7.008   0.616   0.950
10088TIP3    H130205   7.041   0.630   1.039
10088TIP3    H230206   6.913   0.627   0.958
10089TIP3   OH230207   5.317   6.071   4.790
10089TIP3    H130208   5.339   5.999   4.732
10089TIP3    H230209   5.251   6.035   4.850
10090TIP3   OH230210   1.572   6.873   6.014
10090TIP3    H130211   1.481   6.875   5.986
10090TIP3    H230212   1.623   6.869   5.933
10091TIP3   OH230213   3.811   0.979   6.337
10091TIP3    H130214   3.875   0.912   6.363
10091TIP3    H230215   3.727   0.946   6.370
10092TIP3   OH230216   2.435   5.305   6.481
10092TIP3    H130217   2.462   5.367   6.549
10092TIP3    H230218   2.340   5.295   6.495
10093TIP3   OH230219   3.875   2.371   6.647
10093TIP3    H130220   3.962   2.411   6.658
10093TIP3    H230221   3.892   2.292   6.595
10094TIP3   OH230222   7.973   6.698   5.558
10094TIP3    H130223   8.004   6.749   5.634
10094TIP3    H230224   7.896   6.652   5.590
10095TIP3   OH230225   4.306   1.860   5.310
10095TIP3    H130226   4.216   1.864   5.279
10095TIP3    H230227   4.349   1.935   5.268
10096TIP3   OH230228   1.236   6.163   4.754
10096TIP3    H130229   1.256   6.248   4.793
10096TIP3    H230230   1.279   6.099   4.811
10097TIP3   OH230231   0.046   7.504   5.836
10097TIP3    H130232  -0.044   7.482   5.860
10097TIP3    H230233   0.096   7.424   5.853
10098TIP3   OH230234   2.467   4.403   6.069
10098TIP3    H130235   2.481   4.489   6.030
10098TIP3    H230236   2.553   4.377   6.103
10099TIP3   OH230237   8.062   4.517   1.325
10099TIP3    H130238   7.977   4.531   1.367
10099TIP3    H230239   8.126   4.530   1.394
10100TIP3   OH230240   3.350   1.548   0.065
10100TIP3    H130241   3.269   1.500   0.047
10100TIP3    H230242   3.373   1.523   0.155
10101TIP3   OH230243   0.197   5.714   1.246
10101TIP3    H130244   0.166   5.643   1.302
10101TIP3    H230245   0.143   5.708   1.167
10102TIP3   OH230246   3.645   3.540   0.012
10102TIP3    H130247   3.644   3.445  -0.003
10102TIP3    H230248   3.670   3.549   0.104
10103TIP3   OH230249   8.192   7.639   3.885
10103TIP3    H130250   8.186   7.544   3.878
10103TIP3    H230251   8.202   7.656   3.979
10104TIP3   OH230252   7.574   3.898   2.137
10104TIP3    H130253   7.546   3.892   2.046
10104TIP3    H230254   7.517   3.836   2.183
10105TIP3   OH230255   2.871   7.106   0.391
10105TIP3    H130256   2.777   7.094   0.377
10105TIP3    H230257   2.888   7.196   0.364
10106TIP3   OH230258   5.434   0.297   2.193
10106TIP3    H130259   5.387   0.224   2.232
10106TIP3    H230260   5.525   0.284   2.221
10107TIP3   OH230261   1.797   5.466   6.336
10107TIP3    H130262   1.728   5.483   6.400
10107TIP3    H230263   1.869   5.523   6.364
10108TIP3   OH230264   8.365   0.056   0.240
10108TIP3    H130265   8.327   0.001   0.308
10108TIP3    H230266   8.355   0.005   0.159
10109TIP3   OH230267   3.966   7.518   3.414
10109TIP3    H130268   4.036   7.460   3.445
10109TIP3    H230269   3.977   7.599   3.463
10110TIP3   OH230270   1.774   1.642   3.335
10110TIP3    H130271   1.767   1.551   3.305
10110TIP3    H230272   1.811   1.689   3.260
10111TIP3   OH230273   1.768   0.236   5.849
10111TIP3    H130274   1.836   0.289   5.891
10111TIP3    H230275   1.752   0.281   5.766
10112TIP3   OH230276   3.810   1.086   5.219
10112TIP3    H130277   3.893   1.117   5.181
10112TIP3    H230278   3.752   1.162   5.214
10113TIP3   OH230279   8.036   5.314   5.164
10113TIP3    H130280   8.118   5.299   5.116
10113TIP3    H230281   7.968   5.282   5.105
10114TIP3   OH230282   0.285   4.140   1.832
10114TIP3    H130283   0.333   4.103   1.758
10114TIP3    H230284   0.351   4.152   1.900
10115TIP3   OH230285   5.147   3.972   5.282
10115TIP3    H130286   5.059   4.005   5.263
10115TIP3    H230287   5.199   3.997   5.205
10116TIP3   OH230288   1.647   1.782   0.835
10116TIP3    H130289   1.717   1.802   0.897
10116TIP3    H230290   1.658   1.845   0.764
10117TIP3   OH230291   1.589   4.891   1.951
10117TIP3    H130292   1.494   4.885   1.958
10117TIP3    H230293   1.622   4.867   2.037
10118TIP3   OH230294   3.440   7.078   1.516
10118TIP3    H130295   3.389   7.027   1.453
10118TIP3    H230296   3.431   7.168   1.486
10119TIP3   OH230297   5.961   3.052   0.886
10119TIP3    H130298   6.012   3.000   0.824
10119TIP3    H230299   6.022   3.120   0.916
10120TIP3   OH230300   0.479   3.570   1.051
10120TIP3    H130301   0.429   3.493   1.026
10120TIP3    H230302   0.460   3.582   1.145
10121TIP3   OH230303   5.353   4.471   4.522
10121TIP3    H130304   5.321   4.561   4.519
10121TIP3    H230305   5.448   4.480   4.532
10122TIP3   OH230306   3.081   5.360   2.666
10122TIP3    H130307   2.997   5.315   2.656
10122TIP3    H230308   3.059   5.449   2.692
10123TIP3   OH230309   0.441   3.424   1.422
10123TIP3    H130310   0.383   3.432   1.498
10123TIP3    H230311   0.411   3.491   1.361
10124TIP3   OH230312   2.878   2.688   3.754
10124TIP3    H130313   2.913   2.773   3.726
10124TIP3    H230314   2.928   2.666   3.832
10125TIP3   OH230315   4.526   3.207   5.745
10125TIP3    H130316   4.452   3.227   5.687
10125TIP3    H230317   4.494   3.231   5.832
10126TIP3   OH230318   1.059   0.527   5.219
10126TIP3    H130319   1.118   0.597   5.190
10126TIP3    H230320   1.091   0.503   5.306
10127TIP3   OH230321   1.721   6.013   4.169
10127TIP3    H130322   1.643   5.978   4.212
10127TIP3    H230323   1.701   6.008   4.076
10128TIP3   OH230324   7.595   5.252   1.408
10128TIP3    H130325   7.631   5.332   1.446
10128TIP3    H230326   7.504   5.275   1.388
10129TIP3   OH230327   8.067   4.578   6.610
10129TIP3    H130328   7.986   4.597   6.563
10129TIP3    H230329   8.115   4.519   6.552
10130TIP3   OH230330   2.826   7.631   4.619
10130TIP3    H130331   2.900   7.594   4.571
10130TIP3    H230332   2.866   7.684   4.688
10131TIP3   OH230333   1.186   3.522   5.561
10131TIP3    H130334   1.175   3.603   5.610
10131TIP3    H230335   1.114   3.522   5.498
10132TIP3   OH230336   4.741   2.838   2.920
10132TIP3    H130337   4.792   2.776   2.868
10132TIP3    H230338   4.806   2.895   2.960
10133TIP3   OH230339   1.817   4.314   2.262
10133TIP3    H130340   1.773   4.282   2.183
10133TIP3    H230341   1.763   4.284   2.334
10134TIP3   OH230342   7.330   7.652   2.364
10134TIP3    H130343   7.258   7.707   2.334
10134TIP3    H230344   7.318   7.646   2.459
10135TIP3   OH230345   7.434   7.783   0.705
10135TIP3    H130346   7.492   7.827   0.643
10135TIP3    H230347   7.492   7.755   0.776
10136TIP3   OH230348   8.145   0.117   4.440
10136TIP3    H130349   8.169   0.098   4.531
10136TIP3    H230350   8.164   0.036   4.392
10137TIP3   OH230351   2.334   5.867   4.595
10137TIP3    H130352   2.374   5.789   4.556
10137TIP3    H230353   2.409   5.925   4.614
10138TIP3   OH230354   3.016   5.075   3.793
10138TIP3    H130355   3.015   4.992   3.745
10138TIP3    H230356   3.099   5.115   3.768
10139TIP3   OH230357   6.226   1.806   0.350
10139TIP3    H130358   6.258   1.892   0.326
10139TIP3    H230359   6.131   1.812   0.340
10140TIP3   OH230360   7.886   4.615   1.566
10140TIP3    H130361   7.895   4.523   1.592
10140TIP3    H230362   7.932   4.664   1.634
10141TIP3   OH230363   8.272   5.622   1.384
10141TIP3    H130364   8.220   5.543   1.401
10141TIP3    H230365   8.207   5.690   1.368
10142TIP3   OH230366   7.658   6.905   6.442
10142TIP3    H130367   7.726   6.904   6.374
10142TIP3    H230368   7.704   6.884   6.523
10143TIP3   OH230369   6.557   4.972   5.585
10143TIP3    H130370   6.524   5.045   5.533
10143TIP3    H230371   6.539   4.997   5.676
10144TIP3   OH230372   0.431   3.508   5.117
10144TIP3    H130373   0.348   3.539   5.081
10144TIP3    H230374   0.497   3.566   5.079
10145TIP3   OH230375   0.003   6.880   5.549
10145TIP3    H130376  -0.082   6.896   5.590
10145TIP3    H230377   0.052   6.829   5.614
10146TIP3   OH230378   3.475   7.077   2.017
10146TIP3    H130379   3.417   7.133   1.967
10146TIP3    H230380   3.539   7.045   1.953
10147TIP3   OH230381   8.155   0.764   4.078
10147TIP3    H130382   8.114   0.850   4.091
10147TIP3    H230383   8.111   0.728   4.001
10148TIP3   OH230384   6.315   0.658   5.707
10148TIP3    H130385   6.260   0.730   5.675
10148TIP3    H230386   6.253   0.587   5.724
10149TIP3   OH230387   8.284   4.107   1.064
10149TIP3    H130388   8.260   4.196   1.090
10149TIP3    H230389   8.306   4.064   1.147
10150TIP3   OH230390   1.310   1.486   2.959
10150TIP3    H130391   1.312   1.423   3.031
10150TIP3    H230392   1.386   1.542   2.974
10151TIP3   OH230393   1.378   2.344   6.080
10151TIP3    H130394   1.386   2.253   6.051
10151TIP3    H230395   1.466   2.369   6.105
10152TIP3   OH230396   1.976   6.070   3.971
10152TIP3    H130397   1.896   6.034   3.931
10152TIP3    H230398   1.955   6.162   3.985
10153TIP3   OH230399   1.311   6.385   4.202
10153TIP3    H130400   1.235   6.342   4.241
10153TIP3    H230401   1.276   6.437   4.130
10154TIP3   OH230402   0.337   5.066   3.450
10154TIP3    H130403   0.285   5.008   3.394
10154TIP3    H230404   0.423   5.024   3.455
10155TIP3   OH230405   1.241   2.859   4.323
10155TIP3    H130406   1.308   2.887   4.261
10155TIP3    H230407   1.283   2.792   4.377
10156TIP3   OH230408   4.141   4.258   0.523
10156TIP3    H130409   4.204   4.308   0.575
10156TIP3    H230410   4.161   4.281   0.432
10157TIP3   OH230411   4.191   1.879   1.697
10157TIP3    H130412   4.219   1.958   1.652
10157TIP3    H230413   4.102   1.863   1.664
10158TIP3   OH230414   0.784   2.881   3.156
10158TIP3    H130415   0.691   2.904   3.155
10158TIP3    H230416   0.828   2.964   3.175
10159TIP3   OH230417   0.721   4.678   2.063
10159TIP3    H130418   0.745   4.621   1.990
10159TIP3    H230419   0.647   4.635   2.104
10160TIP3   OH230420   4.513   1.342   2.460
10160TIP3    H130421   4.481   1.415   2.407
10160TIP3    H230422   4.434   1.304   2.497
10161TIP3   OH230423   7.651   2.033   6.188
10161TIP3    H130424   7.653   1.945   6.151
10161TIP3    H230425   7.743   2.057   6.198
10162TIP3   OH230426   7.059   0.270   6.070
10162TIP3    H130427   7.072   0.221   6.151
10162TIP3    H230428   7.139   0.255   6.020
10163TIP3   OH230429   0.046   3.660   1.500
10163TIP3    H130430   0.017   3.591   1.440
10163TIP3    H230431   0.132   3.630   1.531
10164TIP3   OH230432   3.751   6.508   3.704
10164TIP3    H130433   3.781   6.432   3.754
10164TIP3    H230434   3.707   6.470   3.628
10165TIP3   OH230435   3.410   0.990   4.007
10165TIP3    H130436   3.408   0.932   3.932
10165TIP3    H230437   3.408   1.078   3.970
10166TIP3   OH230438   7.631   1.359   2.611
10166TIP3    H130439   7.596   1.297   2.547
10166TIP3    H230440   7.724   1.336   2.618
10167TIP3   OH230441   1.976   3.714   2.800
10167TIP3    H130442   2.055   3.660   2.804
10167TIP3    H230443   1.908   3.655   2.767
10168TIP3   OH230444   5.344   2.881   2.892
10168TIP3    H130445   5.402   2.806   2.878
10168TIP3    H230446   5.295   2.859   2.971
10169TIP3   OH230447   5.356   7.769   4.320
10169TIP3    H130448   5.294   7.696   4.310
10169TIP3    H230449   5.425   7.751   4.257
10170TIP3   OH230450   5.990   0.003   1.490
10170TIP3    H130451   6.034  -0.006   1.405
10170TIP3    H230452   5.940   0.085   1.482
10171TIP3   OH230453   6.844   7.820   1.809
10171TIP3    H130454   6.870   7.744   1.861
10171TIP3    H230455   6.756   7.800   1.780
10172TIP3   OH230456   3.360   5.400   4.701
10172TIP3    H130457   3.312   5.413   4.782
10172TIP3    H230458   3.328   5.470   4.643
10173TIP3   OH230459   2.800   7.437   0.544
10173TIP3    H130460   2.764   7.521   0.572
10173TIP3    H230461   2.893   7.455   0.528
10174TIP3   OH230462   7.050   7.287   5.021
10174TIP3    H130463   7.124   7.343   5.042
10174TIP3    H230464   7.081   7.198   5.038
10175TIP3   OH230465   1.779   1.236   0.108
10175TIP3    H130466   1.809   1.318   0.147
10175TIP3    H230467   1.859   1.188   0.088
10176TIP3   OH230468   8.080   4.403   4.518
10176TIP3    H130469   8.078   4.381   4.425
10176TIP3    H230470   7.988   4.415   4.542
10177TIP3   OH230471   6.692   7.347   1.684
10177TIP3    H130472   6.729   7.401   1.754
10177TIP3    H230473   6.676   7.408   1.613
10178TIP3   OH230474   6.044   5.867   0.128
10178TIP3    H130475   6.007   5.953   0.148
10178TIP3    H230476   6.108   5.884   0.059
10179TIP3   OH230477   4.111   0.492   4.706
10179TIP3    H130478   4.122   0.401   4.733
10179TIP3    H230479   4.045   0.489   4.636
10180TIP3   OH230480   1.820   5.075   2.509
10180TIP3    H130481   1.754   5.066   2.579
10180TIP3    H230482   1.896   5.114   2.553
10181TIP3   OH230483   1.341   5.781   2.105
10181TIP3    H130484   1.345   5.694   2.146
10181TIP3    H230485   1.352   5.764   2.011
10182TIP3   OH230486   5.149   7.816   0.391
10182TIP3    H130487   5.189   7.749   0.447
10182TIP3    H230488   5.056   7.794   0.389
10183TIP3   OH230489   7.608   0.192   3.654
10183TIP3    H130490   7.549   0.187   3.729
10183TIP3    H230491   7.662   0.270   3.670
10184TIP3   OH230492   7.941   7.419   0.524
10184TIP3    H130493   7.882   7.477   0.476
10184TIP3    H230494   8.019   7.473   0.541
10185TIP3   OH230495   1.649   5.259   3.157
10185TIP3    H130496   1.708   5.190   3.127
10185TIP3    H230497   1.574   5.213   3.195
10186TIP3   OH230498   3.020   0.383   5.489
10186TIP3    H130499   2.986   0.305   5.445
10186TIP3    H230500   3.107   0.395   5.453
10187TIP3   OH230501   6.748   4.097   2.419
10187TIP3    H130502   6.778   4.159   2.486
10187TIP3    H230503   6.803   4.115   2.343
10188TIP3   OH230504   6.706   2.658   3.570
10188TIP3    H130505   6.666   2.598   3.633
10188TIP3    H230506   6.748   2.602   3.506
10189TIP3   OH230507   2.532   6.603   3.681
10189TIP3    H130508   2.533   6.534   3.616
10189TIP3    H230509   2.502   6.560   3.761
10190TIP3   OH230510   5.639   5.244   3.601
10190TIP3    H130511   5.656   5.329   3.561
10190TIP3    H230512   5.583   5.263   3.677
10191TIP3   OH230513   3.828   5.109   2.904
10191TIP3    H130514   3.783   5.100   2.988
10191TIP3    H230515   3.915   5.073   2.920
10192TIP3   OH230516   5.041   2.133   2.559
10192TIP3    H130517   5.020   2.150   2.651
10192TIP3    H230518   4.961   2.156   2.512
10193TIP3   OH230519   3.696   6.655   5.474
10193TIP3    H130520   3.703   6.746   5.446
10193TIP3    H230521   3.680   6.659   5.568
10194TIP3   OH230522   3.490   4.871   6.279
10194TIP3    H130523   3.505   4.778   6.292
10194TIP3    H230524   3.578   4.909   6.271
10195TIP3   OH230525   0.760   4.589   0.810
10195TIP3    H130526   0.844   4.624   0.780
10195TIP3    H230527   0.734   4.648   0.882
10196TIP3   OH230528   3.689   1.353   0.879
10196TIP3    H130529   3.759   1.366   0.816
10196TIP3    H230530   3.686   1.434   0.930
10197TIP3   OH230531   6.877   2.762   3.901
10197TIP3    H130532   6.870   2.699   3.828
10197TIP3    H230533   6.952   2.816   3.878
10198TIP3   OH230534   0.936   2.366   1.218
10198TIP3    H130535   0.976   2.431   1.160
10198TIP3    H230536   0.851   2.347   1.179
10199TIP3   OH230537   2.294   7.442   0.173
10199TIP3    H130538   2.355   7.369   0.167
10199TIP3    H230539   2.208   7.403   0.160
10200TIP3   OH230540   6.239   2.268   4.378
10200TIP3    H130541   6.218   2.241   4.467
10200TIP3    H230542   6.176   2.221   4.324
10201TIP3   OH230543   3.517   0.373   1.358
10201TIP3    H130544   3.488   0.464   1.356
10201TIP3    H230545   3.528   0.354   1.451
10202TIP3   OH230546   3.534   4.024   1.384
10202TIP3    H130547   3.540   3.929   1.372
10202TIP3    H230548   3.557   4.060   1.298
10203TIP3   OH230549   3.051   6.256   6.763
10203TIP3    H130550   3.115   6.271   6.693
10203TIP3    H230551   3.086   6.183   6.813
10204TIP3   OH230552   6.029   7.965   5.506
10204TIP3    H130553   6.011   7.887   5.454
10204TIP3    H230554   6.114   7.948   5.546
10205TIP3   OH230555   3.565   4.479   6.695
10205TIP3    H130556   3.554   4.518   6.608
10205TIP3    H230557   3.620   4.541   6.743
10206TIP3   OH230558   3.366   5.230   6.055
10206TIP3    H130559   3.321   5.314   6.069
10206TIP3    H230560   3.457   5.248   6.076
10207TIP3   OH230561   6.748   3.502   2.314
10207TIP3    H130562   6.676   3.495   2.376
10207TIP3    H230563   6.718   3.566   2.249
10208TIP3   OH230564   6.161   0.569   5.166
10208TIP3    H130565   6.105   0.497   5.195
10208TIP3    H230566   6.127   0.592   5.079
10209TIP3   OH230567   0.332   3.069   3.864
10209TIP3    H130568   0.368   2.986   3.897
10209TIP3    H230569   0.404   3.110   3.818
10210TIP3   OH230570   1.466   1.985   5.428
10210TIP3    H130571   1.475   1.916   5.494
10210TIP3    H230572   1.554   2.022   5.420
10211TIP3   OH230573   8.228   7.407   3.162
10211TIP3    H130574   8.212   7.398   3.256
10211TIP3    H230575   8.162   7.469   3.132
10212TIP3   OH230576   2.386   5.867   1.555
10212TIP3    H130577   2.407   5.788   1.505
10212TIP3    H230578   2.331   5.918   1.496
10213TIP3   OH230579   2.535   3.973   3.132
10213TIP3    H130580   2.610   4.001   3.185
10213TIP3    H230581   2.537   3.878   3.136
10214TIP3   OH230582   5.682   3.770   3.588
10214TIP3    H130583   5.717   3.838   3.646
10214TIP3    H230584   5.668   3.815   3.505
10215TIP3   OH230585   4.872   3.286   1.632
10215TIP3    H130586   4.900   3.283   1.724
10215TIP3    H230587   4.857   3.195   1.608
10216TIP3   OH230588   3.646   5.874   4.459
10216TIP3    H130589   3.707   5.835   4.522
10216TIP3    H230590   3.564   5.883   4.508
10217TIP3   OH230591   1.592   1.499   4.851
10217TIP3    H130592   1.661   1.538   4.799
10217TIP3    H230593   1.513   1.510   4.798
10218TIP3   OH230594   7.907   5.947   0.997
10218TIP3    H130595   7.908   5.859   1.037
10218TIP3    H230596   7.849   5.998   1.054
10219TIP3   OH230597   2.273   4.583   0.339
10219TIP3    H130598   2.355   4.576   0.290
10219TIP3    H230599   2.243   4.492   0.349
10220TIP3   OH230600   7.566   2.601   5.260
10220TIP3    H130601   7.617   2.660   5.204
10220TIP3    H230602   7.527   2.659   5.326
10221TIP3   OH230603   5.105   0.585   2.795
10221TIP3    H130604   5.043   0.580   2.868
10221TIP3    H230605   5.151   0.668   2.809
10222TIP3   OH230606   6.226   7.534   1.518
10222TIP3    H130607   6.318   7.515   1.539
10222TIP3    H230608   6.231   7.610   1.459
10223TIP3   OH230609   5.421   2.592   0.479
10223TIP3    H130610   5.376   2.633   0.553
10223TIP3    H230611   5.505   2.638   0.473
10224TIP3   OH230612   4.862   6.967   3.186
10224TIP3    H130613   4.819   6.924   3.260
10224TIP3    H230614   4.802   7.038   3.163
10225TIP3   OH230615   0.386   3.126   2.139
10225TIP3    H130616   0.359   3.118   2.047
10225TIP3    H230617   0.312   3.168   2.182
10226TIP3   OH230618   6.443   2.814   0.262
10226TIP3    H130619   6.474   2.730   0.294
10226TIP3    H230620   6.510   2.877   0.289
10227TIP3   OH230621   2.307   1.885   4.455
10227TIP3    H130622   2.380   1.908   4.399
10227TIP3    H230623   2.339   1.810   4.506
10228TIP3   OH230624   3.407   6.970   3.091
10228TIP3    H130625   3.399   6.900   3.155
10228TIP3    H230626   3.485   7.019   3.119
10229TIP3   OH230627   0.320   0.045   5.943
10229TIP3    H130628   0.243  -0.009   5.957
10229TIP3    H230629   0.385   0.013   6.005
10230TIP3   OH230630   0.692   5.047   3.820
10230TIP3    H130631   0.777   5.089   3.805
10230TIP3    H230632   0.639   5.114   3.862
10231TIP3   OH230633   7.634   0.073   1.992
10231TIP3    H130634   7.573   0.147   1.999
10231TIP3    H230635   7.620   0.039   1.904
10232TIP3   OH230636   3.461   0.625   3.098
10232TIP3    H130637   3.439   0.608   3.190
10232TIP3    H230638   3.495   0.714   3.097
10233TIP3   OH230639   1.189   1.476   6.580
10233TIP3    H130640   1.225   1.421   6.649
10233TIP3    H230641   1.259   1.538   6.559
10234TIP3   OH230642   4.935   7.552   4.295
10234TIP3    H130643   4.852   7.559   4.249
10234TIP3    H230644   4.972   7.469   4.265
10235TIP3   OH230645   0.125   6.262   5.932
10235TIP3    H130646   0.140   6.233   5.842
10235TIP3    H230647   0.117   6.357   5.926
10236TIP3   OH230648   6.387   6.290   0.900
10236TIP3    H130649   6.430   6.370   0.869
10236TIP3    H230650   6.439   6.262   0.975
10237TIP3   OH230651   1.405   1.922   0.701
10237TIP3    H130652   1.412   1.883   0.788
10237TIP3    H230653   1.394   2.016   0.717
10238TIP3   OH230654   6.033   7.805   4.921
10238TIP3    H130655   6.115   7.779   4.962
10238TIP3    H230656   6.059   7.861   4.847
10239TIP3   OH230657   3.949   7.590   4.425
10239TIP3    H130658   3.867   7.638   4.430
10239TIP3    H230659   4.009   7.649   4.379
10240TIP3   OH230660   6.491   1.322   5.990
10240TIP3    H130661   6.578   1.335   6.027
10240TIP3    H230662   6.441   1.284   6.063
10241TIP3   OH230663   4.345   6.955   4.870
10241TIP3    H130664   4.272   6.908   4.911
10241TIP3    H230665   4.306   7.038   4.841
10242TIP3   OH230666   1.754   5.665   0.256
10242TIP3    H130667   1.849   5.673   0.252
10242TIP3    H230668   1.733   5.663   0.349
10243TIP3   OH230669   6.520   5.277   4.696
10243TIP3    H130670   6.482   5.282   4.609
10243TIP3    H230671   6.513   5.366   4.731
10244TIP3   OH230672   0.124   7.723   3.879
10244TIP3    H130673   0.082   7.641   3.854
10244TIP3    H230674   0.099   7.736   3.971
10245TIP3   OH230675   1.205   0.252   5.164
10245TIP3    H130676   1.254   0.329   5.138
10245TIP3    H230677   1.126   0.253   5.109
10246TIP3   OH230678   1.730   3.429   4.730
10246TIP3    H130679   1.658   3.479   4.693
10246TIP3    H230680   1.740   3.464   4.818
10247TIP3   OH230681   2.889   7.619   1.997
10247TIP3    H130682   2.951   7.603   1.925
10247TIP3    H230683   2.922   7.699   2.039
10248TIP3   OH230684   4.569   7.289   2.531
10248TIP3    H130685   4.583   7.196   2.516
10248TIP3    H230686   4.548   7.325   2.444
10249TIP3   OH230687   7.753   4.419   2.621
10249TIP3    H130688   7.683   4.360   2.648
10249TIP3    H230689   7.778   4.389   2.534
10250TIP3   OH230690   6.115   5.992   5.802
10250TIP3    H130691   6.209   5.976   5.813
10250TIP3    H230692   6.105   6.013   5.710
10251TIP3   OH230693   5.506   3.348   1.419
10251TIP3    H130694   5.589   3.321   1.458
10251TIP3    H230695   5.521   3.340   1.325
10252TIP3   OH230696   6.659   0.999   0.339
10252TIP3    H130697   6.628   1.088   0.354
10252TIP3    H230698   6.701   1.002   0.253
10253TIP3   OH230699   6.649   0.110   0.981
10253TIP3    H130700   6.718   0.090   0.918
10253TIP3    H230701   6.599   0.181   0.941
10254TIP3   OH230702   7.012   1.652   2.508
10254TIP3    H130703   6.961   1.658   2.588
10254TIP3    H230704   6.949   1.625   2.441
10255TIP3   OH230705   1.157   0.748   5.091
10255TIP3    H130706   1.118   0.831   5.118
10255TIP3    H230707   1.219   0.771   5.022
10256TIP3   OH230708   1.105   7.345   2.688
10256TIP3    H130709   1.031   7.361   2.747
10256TIP3    H230710   1.102   7.418   2.625
10257TIP3   OH230711   2.023   6.911   3.827
10257TIP3    H130712   2.113   6.941   3.838
10257TIP3    H230713   2.017   6.832   3.880
10258TIP3   OH230714   4.685   0.254   2.342
10258TIP3    H130715   4.741   0.178   2.357
10258TIP3    H230716   4.715   0.319   2.405
10259TIP3   OH230717   1.558   6.471   3.987
10259TIP3    H130718   1.519   6.477   3.900
10259TIP3    H230719   1.527   6.388   4.022
10260TIP3   OH230720   4.233   5.474   4.624
10260TIP3    H130721   4.140   5.461   4.641
10260TIP3    H230722   4.261   5.394   4.579
10261TIP3   OH230723   6.502   4.760   1.111
10261TIP3    H130724   6.520   4.716   1.027
10261TIP3    H230725   6.548   4.706   1.175
10262TIP3   OH230726   4.980   7.708   1.745
10262TIP3    H130727   5.060   7.679   1.788
10262TIP3    H230728   5.000   7.797   1.716
10263TIP3   OH230729   0.380   4.119   2.449
10263TIP3    H130730   0.344   4.122   2.537
10263TIP3    H230731   0.337   4.190   2.403
10264TIP3   OH230732   7.154   1.685   5.281
10264TIP3    H130733   7.248   1.679   5.266
10264TIP3    H230734   7.136   1.779   5.288
10265TIP3   OH230735   6.430   7.311   6.542
10265TIP3    H130736   6.369   7.376   6.510
10265TIP3    H230737   6.509   7.323   6.489
10266TIP3   OH230738   7.754   3.372   4.085
10266TIP3    H130739   7.686   3.433   4.114
10266TIP3    H230740   7.804   3.354   4.165
10267TIP3   OH230741   7.020   0.518   5.034
10267TIP3    H130742   6.969   0.598   5.026
10267TIP3    H230743   6.956   0.451   5.057
10268TIP3   OH230744   7.372   1.888   1.341
10268TIP3    H130745   7.365   1.850   1.253
10268TIP3    H230746   7.453   1.938   1.339
10269TIP3   OH230747   0.540   6.294   3.838
10269TIP3    H130748   0.457   6.252   3.861
10269TIP3    H230749   0.577   6.319   3.923
10270TIP3   OH230750   1.999   1.586   4.959
10270TIP3    H130751   1.956   1.592   4.874
10270TIP3    H230752   1.964   1.660   5.008
10271TIP3   OH230753   7.887   5.803   5.010
10271TIP3    H130754   7.857   5.714   5.032
10271TIP3    H230755   7.954   5.823   5.075
10272TIP3   OH230756   0.834   6.601   0.122
10272TIP3    H130757   0.851   6.508   0.139
10272TIP3    H230758   0.847   6.643   0.207
10273TIP3   OH230759   2.842   5.230   3.965
10273TIP3    H130760   2.907   5.181   3.913
10273TIP3    H230761   2.821   5.172   4.038
10274TIP3   OH230762   6.871   2.133   6.235
10274TIP3    H130763   6.863   2.095   6.323
10274TIP3    H230764   6.801   2.198   6.231
10275TIP3   OH230765   1.557   2.817   1.729
10275TIP3    H130766   1.610   2.827   1.808
10275TIP3    H230767   1.605   2.866   1.662
10276TIP3   OH230768   4.574   4.309   1.757
10276TIP3    H130769   4.655   4.354   1.782
10276TIP3    H230770   4.565   4.239   1.822
10277TIP3   OH230771   4.139   3.488   1.471
10277TIP3    H130772   4.046   3.497   1.450
10277TIP3    H230773   4.144   3.504   1.565
10278TIP3   OH230774   8.230   5.155   2.506
10278TIP3    H130775   8.266   5.231   2.459
10278TIP3    H230776   8.285   5.082   2.477
10279TIP3   OH230777   1.811   0.400   2.509
10279TIP3    H130778   1.881   0.465   2.515
10279TIP3    H230779   1.854   0.316   2.525
10280TIP3   OH230780   4.715   4.705   1.939
10280TIP3    H130781   4.685   4.756   1.864
10280TIP3    H230782   4.711   4.767   2.012
10281TIP3   OH230783   3.216   6.926   0.133
10281TIP3    H130784   3.121   6.926   0.148
10281TIP3    H230785   3.245   7.010   0.168
10282TIP3   OH230786   1.636   0.654   0.332
10282TIP3    H130787   1.709   0.668   0.271
10282TIP3    H230788   1.641   0.562   0.355
10283TIP3   OH230789   0.856   1.506   2.130
10283TIP3    H130790   0.857   1.427   2.184
10283TIP3    H230791   0.940   1.548   2.147
10284TIP3   OH230792   6.719   6.398   2.368
10284TIP3    H130793   6.693   6.309   2.344
10284TIP3    H230794   6.797   6.415   2.316
10285TIP3   OH230795   0.645   5.648   2.096
10285TIP3    H130796   0.704   5.575   2.076
10285TIP3    H230797   0.622   5.635   2.188
10286TIP3   OH230798   8.128   4.334   5.297
10286TIP3    H130799   8.043   4.347   5.339
10286TIP3    H230800   8.167   4.421   5.295
10287TIP3   OH230801   0.263   5.540   3.911
10287TIP3    H130802   0.214   5.489   3.976
10287TIP3    H230803   0.204   5.544   3.835
10288TIP3   OH230804   1.348   0.232   0.458
10288TIP3    H130805   1.356   0.327   0.466
10288TIP3    H230806   1.422   0.198   0.508
10289TIP3   OH230807   0.748   3.565   3.946
10289TIP3    H130808   0.773   3.617   4.023
10289TIP3    H230809   0.656   3.543   3.960
10290TIP3   OH230810   4.320   4.887   2.560
10290TIP3    H130811   4.408   4.859   2.584
10290TIP3    H230812   4.321   4.982   2.571
10291TIP3   OH230813   3.195   4.562   6.511
10291TIP3    H130814   3.239   4.536   6.591
10291TIP3    H230815   3.265   4.578   6.448
10292TIP3   OH230816   0.163   1.810   4.070
10292TIP3    H130817   0.250   1.824   4.108
10292TIP3    H230818   0.153   1.881   4.007
10293TIP3   OH230819   5.334   2.104   2.030
10293TIP3    H130820   5.362   2.196   2.028
10293TIP3    H230821   5.319   2.085   2.123
10294TIP3   OH230822   1.781   4.780   2.541
10294TIP3    H130823   1.762   4.873   2.528
10294TIP3    H230824   1.708   4.734   2.499
10295TIP3   OH230825   4.125   3.062   1.473
10295TIP3    H130826   4.167   3.085   1.389
10295TIP3    H230827   4.172   2.985   1.503
10296TIP3   OH230828   2.109   2.887   6.090
10296TIP3    H130829   2.106   2.908   6.183
10296TIP3    H230830   2.181   2.823   6.083
10297TIP3   OH230831   3.392   3.450   2.879
10297TIP3    H130832   3.372   3.526   2.824
10297TIP3    H230833   3.324   3.386   2.857
10298TIP3   OH230834   7.580   0.438   0.147
10298TIP3    H130835   7.661   0.409   0.105
10298TIP3    H230836   7.515   0.373   0.122
10299TIP3   OH230837   4.995   1.349   3.271
10299TIP3    H130838   5.072   1.403   3.287
10299TIP3    H230839   4.991   1.290   3.347
10300TIP3   OH230840   2.409   6.488   1.229
10300TIP3    H130841   2.413   6.579   1.259
10300TIP3    H230842   2.468   6.485   1.154
10301TIP3   OH230843   7.505   5.729   1.177
10301TIP3    H130844   7.462   5.644   1.174
10301TIP3    H230845   7.434   5.793   1.178
10302TIP3   OH230846   5.645   2.564   1.807
10302TIP3    H130847   5.641   2.635   1.872
10302TIP3    H230848   5.698   2.496   1.850
10303TIP3   OH230849   6.327   6.587   1.542
10303TIP3    H130850   6.387   6.606   1.471
10303TIP3    H230851   6.243   6.623   1.513
10304TIP3   OH230852   4.320   2.077   4.733
10304TIP3    H130853   4.415   2.084   4.723
10304TIP3    H230854   4.301   1.986   4.709
10305TIP3   OH230855   1.449   6.195   4.023
10305TIP3    H130856   1.438   6.181   4.117
10305TIP3    H230857   1.376   6.253   3.999
10306TIP3   OH230858   1.957   4.759   3.090
10306TIP3    H130859   1.923   4.736   3.177
10306TIP3    H230860   1.958   4.854   3.089
10307TIP3   OH230861   7.054   7.064   4.250
10307TIP3    H130862   6.963   7.035   4.254
10307TIP3    H230863   7.103   7.000   4.302
10308TIP3   OH230864   3.262   4.191   5.144
10308TIP3    H130865   3.354   4.163   5.144
10308TIP3    H230866   3.232   4.173   5.233
10309TIP3   OH230867   0.216   3.686   0.305
10309TIP3    H130868   0.207   3.778   0.332
10309TIP3    H230869   0.214   3.689   0.209
10310TIP3   OH230870   7.045   2.244   1.848
10310TIP3    H130871   6.972   2.185   1.832
10310TIP3    H230872   7.024   2.322   1.797
10311TIP3   OH230873   4.879   0.984   1.016
10311TIP3    H130874   4.823   1.060   1.004
10311TIP3    H230875   4.884   0.943   0.930
10312TIP3   OH230876   3.216   5.307   1.568
10312TIP3    H130877   3.283   5.251   1.530
10312TIP3    H230878   3.250   5.396   1.560
10313TIP3   OH230879   4.365   7.772   4.623
10313TIP3    H130880   4.449   7.768   4.670
10313TIP3    H230881   4.379   7.839   4.556
10314TIP3   OH230882   6.525   0.289   3.384
10314TIP3    H130883   6.456   0.303   3.318
10314TIP3    H230884   6.581   0.366   3.376
10315TIP3   OH230885   6.960   7.826   4.688
10315TIP3    H130886   7.045   7.783   4.690
10315TIP3    H230887   6.909   7.781   4.756
10316TIP3   OH230888   5.385   7.016   0.615
10316TIP3    H130889   5.441   6.969   0.677
10316TIP3    H230890   5.436   7.020   0.534
10317TIP3   OH230891   2.517   0.017   0.710
10317TIP3    H130892   2.570  -0.020   0.639
10317TIP3    H230893   2.435  -0.032   0.707
10318TIP3   OH230894   7.938   3.877   3.576
10318TIP3    H130895   7.929   3.842   3.665
10318TIP3    H230896   7.895   3.812   3.520
10319TIP3   OH230897   6.614   7.436   5.402
10319TIP3    H130898   6.702   7.426   5.439
10319TIP3    H230899   6.574   7.506   5.454
10320TIP3   OH230900   4.054   2.229   4.782
10320TIP3    H130901   4.141   2.192   4.797
10320TIP3    H230902   4.062   2.320   4.809
10321TIP3   OH230903   2.142   2.010   0.140
10321TIP3    H130904   2.169   2.051   0.222
10321TIP3    H230905   2.088   2.077   0.097
10322TIP3   OH230906   6.520   7.034   6.352
10322TIP3    H130907   6.465   7.091   6.298
10322TIP3    H230908   6.459   6.971   6.389
10323TIP3   OH230909   7.268   0.638   5.155
10323TIP3    H130910   7.282   0.559   5.104
10323TIP3    H230911   7.198   0.685   5.108
10324TIP3   OH230912   4.012   4.935   5.497
10324TIP3    H130913   3.975   4.848   5.482
10324TIP3    H230914   4.106   4.923   5.489
10325TIP3   OH230915   1.270   2.368   5.039
10325TIP3    H130916   1.332   2.325   4.980
10325TIP3    H230917   1.316   2.373   5.123
10326TIP3   OH230918   3.821   7.528   3.800
10326TIP3    H130919   3.729   7.502   3.801
10326TIP3    H230920   3.819   7.623   3.808
10327TIP3   OH230921   8.255   5.810   2.671
10327TIP3    H130922   8.276   5.899   2.699
10327TIP3    H230923   8.300   5.754   2.733
10328TIP3   OH230924   6.623   1.352   6.869
10328TIP3    H130925   6.593   1.308   6.789
10328TIP3    H230926   6.717   1.339   6.869
10329TIP3   OH230927   5.695   2.650   1.568
10329TIP3    H130928   5.667   2.577   1.513
10329TIP3    H230929   5.655   2.634   1.653
10330TIP3   OH230930   5.733   0.203   1.964
10330TIP3    H130931   5.737   0.287   2.011
10330TIP3    H230932   5.824   0.176   1.955
10331TIP3   OH230933  -0.020   4.628   6.889
10331TIP3    H130934   0.073   4.640   6.870
10331TIP3    H230935  -0.065   4.678   6.821
10332TIP3   OH230936   2.390   7.448   1.359
10332TIP3    H130937   2.375   7.357   1.387
10332TIP3    H230938   2.303   7.487   1.356
10333TIP3   OH230939   8.081   3.588   1.922
10333TIP3    H130940   8.122   3.675   1.919
10333TIP3    H230941   8.113   3.543   1.844
10334TIP3   OH230942   7.857   5.022   2.291
10334TIP3    H130943   7.872   5.061   2.378
10334TIP3    H230944   7.766   5.045   2.271
10335TIP3   OH230945   4.855   3.572   3.120
10335TIP3    H130946   4.937   3.600   3.161
10335TIP3    H230947   4.837   3.486   3.157
10336TIP3   OH230948   8.004   0.650   5.383
10336TIP3    H130949   7.974   0.725   5.433
10336TIP3    H230950   8.027   0.686   5.297
10337TIP3   OH230951   4.642   3.720   4.371
10337TIP3    H130952   4.610   3.809   4.356
10337TIP3    H230953   4.675   3.721   4.461
10338TIP3   OH230954   0.727   6.598   3.049
10338TIP3    H130955   0.760   6.552   2.972
10338TIP3    H230956   0.675   6.532   3.096
10339TIP3   OH230957   2.701   0.933   0.854
10339TIP3    H130958   2.618   0.891   0.872
10339TIP3    H230959   2.677   1.017   0.814
10340TIP3   OH230960   2.087   6.516   1.400
10340TIP3    H130961   2.165   6.493   1.451
10340TIP3    H230962   2.066   6.437   1.351
10341TIP3   OH230963   3.988   3.243   0.192
10341TIP3    H130964   3.932   3.192   0.133
10341TIP3    H230965   4.066   3.188   0.204
10342TIP3   OH230966   3.435   4.951   5.776
10342TIP3    H130967   3.508   4.891   5.762
10342TIP3    H230968   3.373   4.900   5.829
10343TIP3   OH230969   5.046   5.077   4.537
10343TIP3    H130970   5.096   5.015   4.591
10343TIP3    H230971   5.012   5.024   4.465
10344TIP3   OH230972   0.986   3.701   3.167
10344TIP3    H130973   0.913   3.644   3.191
10344TIP3    H230974   1.056   3.678   3.228
10345TIP3   OH230975   5.931   1.422   4.720
10345TIP3    H130976   5.884   1.374   4.788
10345TIP3    H230977   5.879   1.407   4.640
10346TIP3   OH230978   7.790   0.998   3.989
10346TIP3    H130979   7.746   1.039   3.915
10346TIP3    H230980   7.864   1.055   4.008
10347TIP3   OH230981   6.932   4.446   3.940
10347TIP3    H130982   6.885   4.513   3.890
10347TIP3    H230983   6.921   4.471   4.031
10348TIP3   OH230984   7.664   1.875   0.916
10348TIP3    H130985   7.588   1.851   0.970
10348TIP3    H230986   7.628   1.931   0.847
10349TIP3   OH230987   6.591   4.392   3.244
10349TIP3    H130988   6.551   4.471   3.279
10349TIP3    H230989   6.672   4.381   3.294
10350TIP3   OH230990   1.121   7.102   4.831
10350TIP3    H130991   1.064   7.143   4.765
10350TIP3    H230992   1.140   7.016   4.795
10351TIP3   OH230993   1.266   6.119   1.407
10351TIP3    H130994   1.350   6.128   1.451
10351TIP3    H230995   1.201   6.121   1.477
10352TIP3   OH230996   8.044   6.668   5.204
10352TIP3    H130997   8.028   6.761   5.188
10352TIP3    H230998   8.122   6.666   5.259
10353TIP3   OH230999   6.976   1.842   6.295
10353TIP3    H131000   6.922   1.878   6.365
10353TIP3    H231001   7.060   1.825   6.336
10354TIP3   OH231002   1.617   5.120   5.120
10354TIP3    H131003   1.663   5.169   5.053
10354TIP3    H231004   1.610   5.031   5.085
10355TIP3   OH231005   5.115   1.919   0.994
10355TIP3    H131006   5.031   1.930   1.038
10355TIP3    H231007   5.157   1.847   1.040
10356TIP3   OH231008   3.181   6.236   5.534
10356TIP3    H131009   3.117   6.297   5.571
10356TIP3    H231010   3.186   6.165   5.598
10357TIP3   OH231011   7.342   1.792   5.784
10357TIP3    H131012   7.337   1.859   5.852
10357TIP3    H231013   7.316   1.837   5.704
10358TIP3   OH231014   2.658   2.592   5.895
10358TIP3    H131015   2.692   2.680   5.880
10358TIP3    H231016   2.695   2.565   5.979
10359TIP3   OH231017   0.388   1.028   0.101
10359TIP3    H131018   0.396   1.002   0.009
10359TIP3    H231019   0.469   1.000   0.142
10360TIP3   OH231020   1.911   5.817   5.932
10360TIP3    H131021   1.908   5.905   5.895
10360TIP3    H231022   1.947   5.829   6.020
10361TIP3   OH231023   4.335   6.762   1.284
10361TIP3    H131024   4.288   6.755   1.201
10361TIP3    H231025   4.292   6.834   1.330
10362TIP3   OH231026   5.438   6.586   4.906
10362TIP3    H131027   5.421   6.493   4.889
10362TIP3    H231028   5.520   6.586   4.955
10363TIP3   OH231029   2.579   7.062   5.262
10363TIP3    H131030   2.617   6.980   5.228
10363TIP3    H231031   2.525   7.034   5.336
10364TIP3   OH231032   4.353   4.629   1.634
10364TIP3    H131033   4.400   4.709   1.611
10364TIP3    H231034   4.284   4.658   1.694
10365TIP3   OH231035   7.027   1.813   3.851
10365TIP3    H131036   7.043   1.873   3.778
10365TIP3    H231037   7.113   1.798   3.888
10366TIP3   OH231038   6.812   1.114   2.079
10366TIP3    H131039   6.746   1.148   2.020
10366TIP3    H231040   6.891   1.108   2.026
10367TIP3   OH231041   5.480   6.203   6.132
10367TIP3    H131042   5.573   6.222   6.137
10367TIP3    H231043   5.438   6.279   6.172
10368TIP3   OH231044   4.118   5.824   6.839
10368TIP3    H131045   4.098   5.829   6.745
10368TIP3    H231046   4.061   5.889   6.879
10369TIP3   OH231047   8.389   4.867   0.375
10369TIP3    H131048   8.331   4.845   0.301
10369TIP3    H231049   8.467   4.814   0.360
10370TIP3   OH231050   1.124   5.678   6.623
10370TIP3    H131051   1.108   5.590   6.589
10370TIP3    H231052   1.037   5.719   6.629
10371TIP3   OH231053   5.541   6.507   2.683
10371TIP3    H131054   5.577   6.422   2.658
10371TIP3    H231055   5.569   6.519   2.774
10372TIP3   OH231056   4.354   0.446   2.452
10372TIP3    H131057   4.373   0.365   2.406
10372TIP3    H231058   4.328   0.419   2.540
10373TIP3   OH231059   0.829   3.134   5.380
10373TIP3    H131060   0.891   3.096   5.318
10373TIP3    H231061   0.767   3.064   5.399
10374TIP3   OH231062   1.758   4.213   4.006
10374TIP3    H131063   1.805   4.137   3.973
10374TIP3    H231064   1.705   4.244   3.932
10375TIP3   OH231065   0.866   1.214   4.922
10375TIP3    H131066   0.787   1.169   4.953
10375TIP3    H231067   0.864   1.299   4.967
10376TIP3   OH231068   1.480   7.868   4.804
10376TIP3    H131069   1.542   7.939   4.821
10376TIP3    H231070   1.528   7.806   4.749
10377TIP3   OH231071   5.135   3.305   5.621
10377TIP3    H131072   5.151   3.399   5.629
10377TIP3    H231073   5.041   3.299   5.600
10378TIP3   OH231074   8.380   7.417   0.171
10378TIP3    H131075   8.336   7.373   0.243
10378TIP3    H231076   8.313   7.426   0.104
10379TIP3   OH231077   3.637   5.148   1.580
10379TIP3    H131078   3.606   5.139   1.671
10379TIP3    H231079   3.725   5.186   1.588
10380TIP3   OH231080   0.771   6.565   5.954
10380TIP3    H131081   0.722   6.486   5.976
10380TIP3    H231082   0.705   6.625   5.920
10381TIP3   OH231083   4.060   0.047   5.423
10381TIP3    H131084   3.996  -0.009   5.467
10381TIP3    H231085   4.017   0.132   5.414
10382TIP3   OH231086   3.557   6.363   0.691
10382TIP3    H131087   3.600   6.440   0.653
10382TIP3    H231088   3.626   6.320   0.742
10383TIP3   OH231089   3.583   2.243   5.658
10383TIP3    H131090   3.563   2.330   5.624
10383TIP3    H231091   3.659   2.214   5.608
10384TIP3   OH231092   3.594   4.192   1.131
10384TIP3    H131093   3.548   4.249   1.069
10384TIP3    H231094   3.683   4.226   1.135
10385TIP3   OH231095   4.096   1.105   2.078
10385TIP3    H131096   4.034   1.080   2.010
10385TIP3    H231097   4.103   1.027   2.133
10386TIP3   OH231098   2.993   0.769   1.166
10386TIP3    H131099   2.907   0.787   1.202
10386TIP3    H231100   2.994   0.813   1.082
10387TIP3   OH231101   0.278   1.890   0.733
10387TIP3    H131102   0.367   1.875   0.765
10387TIP3    H231103   0.223   1.837   0.790
10388TIP3   OH231104   6.500   3.651   1.478
10388TIP3    H131105   6.442   3.643   1.402
10388TIP3    H231106   6.516   3.561   1.506
10389TIP3   OH231107   0.109   5.154   4.228
10389TIP3    H131108   0.179   5.151   4.293
10389TIP3    H231109   0.153   5.167   4.145
10390TIP3   OH231110   4.509   1.166   0.773
10390TIP3    H131111   4.492   1.180   0.866
10390TIP3    H231112   4.499   1.072   0.760
10391TIP3   OH231113   4.954   7.630   0.108
10391TIP3    H131114   4.926   7.687   0.179
10391TIP3    H231115   4.909   7.547   0.124
10392TIP3   OH231116   6.213   3.043   6.405
10392TIP3    H131117   6.193   3.110   6.340
10392TIP3    H231118   6.220   2.962   6.354
10393TIP3   OH231119   3.270   0.769   1.778
10393TIP3    H131120   3.302   0.749   1.866
10393TIP3    H231121   3.214   0.846   1.789
10394TIP3   OH231122   7.511   1.591   1.194
10394TIP3    H131123   7.553   1.550   1.119
10394TIP3    H231124   7.549   1.547   1.270
10395TIP3   OH231125   7.842   4.254   1.068
10395TIP3    H131126   7.892   4.332   1.043
10395TIP3    H231127   7.781   4.240   0.995
10396TIP3   OH231128   0.522   2.341   4.183
10396TIP3    H131129   0.597   2.292   4.147
10396TIP3    H231130   0.558   2.391   4.256
10397TIP3   OH231131   2.724   1.305   2.350
10397TIP3    H131132   2.798   1.291   2.291
10397TIP3    H231133   2.739   1.244   2.423
10398TIP3   OH231134   7.885   4.534   4.724
10398TIP3    H131135   7.913   4.626   4.722
10398TIP3    H231136   7.914   4.502   4.809
10399TIP3   OH231137   4.826   7.179   4.056
10399TIP3    H131138   4.736   7.147   4.067
10399TIP3    H231139   4.857   7.195   4.145
10400TIP3   OH231140   6.604   3.891   3.373
10400TIP3    H131141   6.571   3.818   3.425
10400TIP3    H231142   6.541   3.961   3.387
10401TIP3   OH231143   5.462   3.644   1.938
10401TIP3    H131144   5.474   3.631   2.032
10401TIP3    H231145   5.381   3.695   1.931
10402TIP3   OH231146   6.630   0.250   0.021
10402TIP3    H131147   6.554   0.250   0.078
10402TIP3    H231148   6.681   0.173   0.047
10403TIP3   OH231149   7.783   7.749   4.839
10403TIP3    H131150   7.776   7.655   4.825
10403TIP3    H231151   7.702   7.773   4.884
10404TIP3   OH231152   0.871   5.137   6.228
10404TIP3    H131153   0.838   5.103   6.311
10404TIP3    H231154   0.797   5.184   6.190
10405TIP3   OH231155   2.695   5.090   1.972
10405TIP3    H131156   2.763   5.151   1.942
10405TIP3    H231157   2.614   5.141   1.967
10406TIP3   OH231158   0.180   5.485   2.957
10406TIP3    H131159   0.144   5.570   2.983
10406TIP3    H231160   0.233   5.457   3.032
10407TIP3   OH231161   3.454   1.360   1.951
10407TIP3    H131162   3.540   1.393   1.924
10407TIP3    H231163   3.439   1.400   2.036
10408TIP3   OH231164   5.355   3.987   2.973
10408TIP3    H131165   5.387   4.078   2.969
10408TIP3    H231166   5.262   3.994   2.953
10409TIP3   OH231167   4.780   6.140   0.599
10409TIP3    H131168   4.778   6.170   0.508
10409TIP3    H231169   4.845   6.196   0.642
10410TIP3   OH231170   6.626   4.704   3.059
10410TIP3    H131171   6.603   4.675   3.147
10410TIP3    H231172   6.543   4.700   3.011
10411TIP3   OH231173   7.336   3.534   5.205
10411TIP3    H131174   7.395   3.594   5.160
10411TIP3    H231175   7.253   3.582   5.212
10412TIP3   OH231176   0.977   0.618   5.927
10412TIP3    H131177   0.892   0.574   5.926
10412TIP3    H231178   1.014   0.600   5.840
10413TIP3   OH231179   7.881   1.707   1.560
10413TIP3    H131180   7.841   1.793   1.574
10413TIP3    H231181   7.974   1.721   1.580
10414TIP3   OH231182   3.772   1.443   3.834
10414TIP3    H131183   3.681   1.444   3.807
10414TIP3    H231184   3.788   1.531   3.869
10415TIP3   OH231185   7.821   2.226   4.490
10415TIP3    H131186   7.831   2.207   4.397
10415TIP3    H231187   7.884   2.169   4.534
10416TIP3   OH231188   7.160   0.476   6.419
10416TIP3    H131189   7.100   0.549   6.403
10416TIP3    H231190   7.207   0.464   6.336
10417TIP3   OH231191   8.399   6.625   0.312
10417TIP3    H131192   8.421   6.659   0.226
10417TIP3    H231193   8.324   6.568   0.297
10418TIP3   OH231194   2.609   6.395   5.640
10418TIP3    H131195   2.549   6.464   5.668
10418TIP3    H231196   2.633   6.420   5.550
10419TIP3   OH231197   6.986   5.184   3.108
10419TIP3    H131198   6.918   5.116   3.120
10419TIP3    H231199   7.068   5.135   3.110
10420TIP3   OH231200   0.204   7.181   4.358
10420TIP3    H131201   0.122   7.229   4.343
10420TIP3    H231202   0.176   7.089   4.366
10421TIP3   OH231203   1.872   3.964   0.693
10421TIP3    H131204   1.894   3.916   0.773
10421TIP3    H231205   1.795   3.919   0.658
10422TIP3   OH231206   5.935   0.412   5.216
10422TIP3    H131207   5.867   0.472   5.183
10422TIP3    H231208   5.902   0.325   5.192
10423TIP3   OH231209   7.577   0.046   6.289
10423TIP3    H131210   7.575   0.042   6.384
10423TIP3    H231211   7.492   0.011   6.261
10424TIP3   OH231212   7.330   5.377   0.785
10424TIP3    H131213   7.274   5.430   0.729
10424TIP3    H231214   7.269   5.317   0.830
10425TIP3   OH231215   4.444   1.029   5.227
10425TIP3    H131216   4.359   0.988   5.210
10425TIP3    H231217   4.479   0.981   5.302
10426TIP3   OH231218   6.052   5.257   4.209
10426TIP3    H131219   6.079   5.227   4.122
10426TIP3    H231220   6.065   5.352   4.207
10427TIP3   OH231221   2.319   0.011   2.513
10427TIP3    H131222   2.363   0.077   2.566
10427TIP3    H231223   2.282   0.059   2.439
10428TIP3   OH231224   8.010   2.208   0.952
10428TIP3    H131225   7.995   2.114   0.957
10428TIP3    H231226   7.930   2.242   0.910
10429TIP3   OH231227   5.886   0.082   4.305
10429TIP3    H131228   5.802   0.110   4.343
10429TIP3    H231229   5.946   0.154   4.324
10430TIP3   OH231230   6.578   3.145   6.379
10430TIP3    H131231   6.631   3.134   6.300
10430TIP3    H231232   6.627   3.207   6.432
10431TIP3   OH231233   6.572   1.674   4.927
10431TIP3    H131234   6.550   1.761   4.894
10431TIP3    H231235   6.547   1.615   4.855
10432TIP3   OH231236   6.020   1.936   1.466
10432TIP3    H131237   6.093   1.875   1.479
10432TIP3    H231238   6.043   1.984   1.386
10433TIP3   OH231239   2.733   2.391   6.344
10433TIP3    H131240   2.644   2.374   6.373
10433TIP3    H231241   2.773   2.304   6.336
10434TIP3   OH231242   3.436   1.065   1.828
10434TIP3    H131243   3.373   1.108   1.770
10434TIP3    H231244   3.494   1.136   1.856
10435TIP3   OH231245   4.521   2.707   5.134
10435TIP3    H131246   4.479   2.645   5.194
10435TIP3    H231247   4.509   2.793   5.175
10436TIP3   OH231248   1.976   6.666   0.295
10436TIP3    H131249   2.042   6.670   0.227
10436TIP3    H231250   2.009   6.723   0.365
10437TIP3   OH231251   8.143   5.585   3.008
10437TIP3    H131252   8.201   5.573   2.933
10437TIP3    H231253   8.121   5.496   3.035
10438TIP3   OH231254   2.785   3.865   6.343
10438TIP3    H131255   2.824   3.778   6.336
10438TIP3    H231256   2.822   3.902   6.422
10439TIP3   OH231257   5.105   2.378   5.566
10439TIP3    H131258   5.026   2.416   5.529
10439TIP3    H231259   5.073   2.314   5.630
10440TIP3   OH231260   5.225   3.314   3.697
10440TIP3    H131261   5.280   3.237   3.684
10440TIP3    H231262   5.137   3.285   3.672
10441TIP3   OH231263   4.993   7.928   2.822
10441TIP3    H131264   4.902   7.947   2.844
10441TIP3    H231265   5.024   7.873   2.894
10442TIP3   OH231266   7.424   0.976   3.132
10442TIP3    H131267   7.414   1.069   3.148
10442TIP3    H231268   7.455   0.970   3.042
10443TIP3   OH231269   2.263   4.568   5.124
10443TIP3    H131270   2.252   4.473   5.113
10443TIP3    H231271   2.241   4.584   5.216
10444TIP3   OH231272   0.169   2.813   5.441
10444TIP3    H131273   0.176   2.850   5.353
10444TIP3    H231274   0.125   2.882   5.492
10445TIP3   OH231275   5.756   5.780   6.337
10445TIP3    H131276   5.834   5.746   6.379
10445TIP3    H231277   5.704   5.702   6.316
10446TIP3   OH231278   5.628   2.501   4.327
10446TIP3    H131279   5.625   2.561   4.252
10446TIP3    H231280   5.655   2.417   4.289
10447TIP3   OH231281   1.790   1.780   5.062
10447TIP3    H131282   1.759   1.751   5.148
10447TIP3    H231283   1.812   1.873   5.075
10448TIP3   OH231284   0.004   4.572   5.177
10448TIP3    H131285   0.011   4.516   5.254
10448TIP3    H231286   0.076   4.634   5.185
10449TIP3   OH231287   2.487   1.865   4.251
10449TIP3    H131288   2.438   1.829   4.176
10449TIP3    H231289   2.490   1.959   4.234
10450TIP3   OH231290   7.893   1.068   6.282
10450TIP3    H131291   7.833   0.994   6.269
10450TIP3    H231292   7.944   1.072   6.200
10451TIP3   OH231293   3.523   2.905   3.490
10451TIP3    H131294   3.519   2.889   3.584
10451TIP3    H231295   3.531   2.818   3.451
10452TIP3   OH231296   0.752   6.847   3.608
10452TIP3    H131297   0.673   6.813   3.649
10452TIP3    H231298   0.822   6.826   3.669
10453TIP3   OH231299   1.250   2.348   4.218
10453TIP3    H131300   1.316   2.280   4.203
10453TIP3    H231301   1.177   2.301   4.258
10454TIP3   OH231302   0.947   4.388   1.945
10454TIP3    H131303   1.024   4.369   1.892
10454TIP3    H231304   0.918   4.475   1.916
10455TIP3   OH231305   6.403   4.153   1.769
10455TIP3    H131306   6.345   4.218   1.729
10455TIP3    H231307   6.436   4.102   1.695
10456TIP3   OH231308   1.950   7.648   4.772
10456TIP3    H131309   1.866   7.606   4.757
10456TIP3    H231310   1.976   7.682   4.686
10457TIP3   OH231311   3.743   6.234   4.287
10457TIP3    H131312   3.704   6.267   4.206
10457TIP3    H231313   3.748   6.140   4.274
10458TIP3   OH231314   8.350   6.712   4.983
10458TIP3    H131315   8.329   6.674   5.069
10458TIP3    H231316   8.443   6.734   4.989
10459TIP3   OH231317   6.255   4.407   2.867
10459TIP3    H131318   6.263   4.436   2.776
10459TIP3    H231319   6.344   4.383   2.893
10460TIP3   OH231320   4.272   2.671   4.999
10460TIP3    H131321   4.361   2.682   5.034
10460TIP3    H231322   4.216   2.667   5.077
10461TIP3   OH231323   8.142   3.615   0.492
10461TIP3    H131324   8.178   3.583   0.574
10461TIP3    H231325   8.218   3.643   0.441
10462TIP3   OH231326   2.595   6.855   4.039
10462TIP3    H131327   2.639   6.915   3.979
10462TIP3    H231328   2.664   6.823   4.097
10463TIP3   OH231329   6.088   1.646   3.899
10463TIP3    H131330   6.173   1.676   3.931
10463TIP3    H231331   6.025   1.710   3.933
10464TIP3   OH231332   5.191   3.145   1.270
10464TIP3    H131333   5.218   3.158   1.179
10464TIP3    H231334   5.269   3.166   1.322
10465TIP3   OH231335   6.506   6.631   6.060
10465TIP3    H131336   6.538   6.665   6.144
10465TIP3    H231337   6.469   6.545   6.082
10466TIP3   OH231338   0.405   1.344   2.879
10466TIP3    H131339   0.338   1.281   2.905
10466TIP3    H231340   0.385   1.422   2.930
10467TIP3   OH231341   5.104   6.947   4.715
10467TIP3    H131342   5.139   6.869   4.757
10467TIP3    H231343   5.039   6.915   4.652
10468TIP3   OH231344   6.528   7.578   1.572
10468TIP3    H131345   6.571   7.663   1.567
10468TIP3    H231346   6.557   7.531   1.495
10469TIP3   OH231347   5.307   2.006   6.650
10469TIP3    H131348   5.276   1.918   6.627
10469TIP3    H231349   5.402   2.003   6.635
10470TIP3   OH231350   2.454   3.439   1.747
10470TIP3    H131351   2.484   3.480   1.665
10470TIP3    H231352   2.386   3.378   1.720
10471TIP3   OH231353   5.395   0.652   4.794
10471TIP3    H131354   5.407   0.667   4.888
10471TIP3    H231355   5.380   0.739   4.757
10472TIP3   OH231356   6.517   3.741   2.539
10472TIP3    H131357   6.599   3.781   2.512
10472TIP3    H231358   6.531   3.647   2.529
10473TIP3   OH231359   4.551   3.868   6.843
10473TIP3    H131360   4.561   3.875   6.748
10473TIP3    H231361   4.469   3.914   6.862
10474TIP3   OH231362   1.471   2.884   6.232
10474TIP3    H131363   1.565   2.876   6.251
10474TIP3    H231364   1.466   2.947   6.160
10475TIP3   OH231365   1.837   4.207   0.598
10475TIP3    H131366   1.924   4.227   0.562
10475TIP3    H231367   1.846   4.119   0.635
10476TIP3   OH231368   7.598   0.121   5.994
10476TIP3    H131369   7.572   0.213   5.994
10476TIP3    H231370   7.579   0.091   6.083
10477TIP3   OH231371   7.638   2.908   2.501
10477TIP3    H131372   7.665   2.980   2.558
10477TIP3    H231373   7.572   2.860   2.552
10478TIP3   OH231374   6.072   2.627   2.192
10478TIP3    H131375   5.988   2.582   2.184
10478TIP3    H231376   6.137   2.558   2.190
10479TIP3   OH231377   6.626   2.814   5.859
10479TIP3    H131378   6.710   2.860   5.856
10479TIP3    H231379   6.572   2.869   5.916
10480TIP3   OH231380   0.167   1.661   0.187
10480TIP3    H131381   0.253   1.620   0.193
10480TIP3    H231382   0.134   1.636   0.101
10481TIP3   OH231383   1.445   4.239   6.634
10481TIP3    H131384   1.534   4.203   6.628
10481TIP3    H231385   1.392   4.180   6.580
10482TIP3   OH231386   6.244   6.669   0.962
10482TIP3    H131387   6.291   6.693   0.882
10482TIP3    H231388   6.311   6.667   1.030
10483TIP3   OH231389   3.031   1.284   6.723
10483TIP3    H131390   2.979   1.258   6.798
10483TIP3    H231391   3.115   1.240   6.736
10484TIP3   OH231392   6.639   4.932   1.995
10484TIP3    H131393   6.704   4.990   2.035
10484TIP3    H231394   6.576   4.992   1.955
10485TIP3   OH231395   3.952   2.947   0.325
10485TIP3    H131396   3.945   2.896   0.406
10485TIP3    H231397   3.994   3.029   0.352
10486TIP3   OH231398   7.848   0.612   1.648
10486TIP3    H131399   7.786   0.574   1.586
10486TIP3    H231400   7.898   0.536   1.680
10487TIP3   OH231401   3.270   0.127   6.234
10487TIP3    H131402   3.249   0.113   6.141
10487TIP3    H231403   3.202   0.080   6.281
10488TIP3   OH231404   2.334   5.316   3.510
10488TIP3    H131405   2.345   5.336   3.603
10488TIP3    H231406   2.410   5.357   3.468
10489TIP3   OH231407   3.655   6.932   4.237
10489TIP3    H131408   3.751   6.925   4.234
10489TIP3    H231409   3.638   7.026   4.231
10490TIP3   OH231410   2.825   0.933   6.800
10490TIP3    H131411   2.844   0.846   6.835
10490TIP3    H231412   2.896   0.988   6.834
10491TIP3   OH231413   7.922   2.518   1.955
10491TIP3    H131414   8.006   2.548   1.921
10491TIP3    H231415   7.931   2.422   1.961
10492TIP3   OH231416   6.351   0.956   4.959
10492TIP3    H131417   6.358   0.870   4.998
10492TIP3    H231418   6.344   1.016   5.033
10493TIP3   OH231419   6.334   4.415   5.827
10493TIP3    H131420   6.290   4.461   5.755
10493TIP3    H231421   6.269   4.353   5.859
10494TIP3   OH231422   2.127   4.737   5.521
10494TIP3    H131423   2.123   4.667   5.456
10494TIP3    H231424   2.194   4.798   5.488
10495TIP3   OH231425   3.698   2.667   4.146
10495TIP3    H131426   3.662   2.754   4.163
10495TIP3    H231427   3.692   2.622   4.231
10496TIP3   OH231428   4.776   5.284   5.723
10496TIP3    H131429   4.843   5.280   5.791
10496TIP3    H231430   4.822   5.323   5.648
10497TIP3   OH231431   3.810   4.444   1.018
10497TIP3    H131432   3.871   4.397   1.075
10497TIP3    H231433   3.866   4.495   0.959
10498TIP3   OH231434   4.497   3.860   5.773
10498TIP3    H131435   4.544   3.888   5.694
10498TIP3    H231436   4.558   3.800   5.816
10499TIP3   OH231437   6.781   3.402   1.097
10499TIP3    H131438   6.740   3.341   1.035
10499TIP3    H231439   6.748   3.374   1.183
10500TIP3   OH231440   2.241   2.374   1.883
10500TIP3    H131441   2.237   2.348   1.975
10500TIP3    H231442   2.179   2.315   1.839
10501TIP3   OH231443   3.841   7.640   5.738
10501TIP3    H131444   3.927   7.670   5.707
10501TIP3    H231445   3.800   7.719   5.774
10502TIP3   OH231446   1.556   6.312   3.055
10502TIP3    H131447   1.506   6.390   3.077
10502TIP3    H231448   1.525   6.287   2.968
10503TIP3   OH231449   1.950   3.795   1.389
10503TIP3    H131450   2.003   3.716   1.398
10503TIP3    H231451   1.926   3.818   1.479
10504TIP3   OH231452   4.323   3.801   5.315
10504TIP3    H131453   4.270   3.723   5.296
10504TIP3    H231454   4.380   3.810   5.239
10505TIP3   OH231455   0.774   7.387   3.082
10505TIP3    H131456   0.827   7.366   3.158
10505TIP3    H231457   0.707   7.319   3.079
10506TIP3   OH231458   6.156   2.248   5.340
10506TIP3    H131459   6.151   2.240   5.245
10506TIP3    H231460   6.151   2.157   5.371
10507TIP3   OH231461   5.205   0.441   4.827
10507TIP3    H131462   5.118   0.476   4.844
10507TIP3    H231463   5.250   0.511   4.780
10508TIP3   OH231464   0.667   5.303   3.931
10508TIP3    H131465   0.621   5.348   4.002
10508TIP3    H231466   0.747   5.271   3.971
10509TIP3   OH231467   2.592   4.958   5.021
10509TIP3    H131468   2.561   4.877   5.063
10509TIP3    H231469   2.628   5.010   5.093
10510TIP3   OH231470   5.893   3.726   1.370
10510TIP3    H131471   5.924   3.705   1.459
10510TIP3    H231472   5.798   3.714   1.374
10511TIP3   OH231473   7.718   1.309   1.954
10511TIP3    H131474   7.706   1.297   2.048
10511TIP3    H231475   7.687   1.398   1.937
10512TIP3   OH231476   4.364   6.746   2.087
10512TIP3    H131477   4.276   6.752   2.050
10512TIP3    H231478   4.376   6.653   2.106
10513TIP3   OH231479   1.854   4.937   3.744
10513TIP3    H131480   1.876   5.000   3.812
10513TIP3    H231481   1.781   4.887   3.780
10514TIP3   OH231482   7.977   7.771   6.478
10514TIP3    H131483   7.913   7.739   6.541
10514TIP3    H231484   7.939   7.853   6.446
10515TIP3   OH231485   8.279   6.143   4.137
10515TIP3    H131486   8.186   6.161   4.124
10515TIP3    H231487   8.289   6.050   4.115
10516TIP3   OH231488   1.989   5.329   5.688
10516TIP3    H131489   2.008   5.413   5.731
10516TIP3    H231490   2.071   5.307   5.643
10517TIP3   OH231491   1.986   7.832   3.302
10517TIP3    H131492   1.978   7.826   3.398
10517TIP3    H231493   2.036   7.754   3.278
10518TIP3   OH231494   3.611   1.804   6.145
10518TIP3    H131495   3.535   1.759   6.108
10518TIP3    H231496   3.591   1.811   6.238
10519TIP3   OH231497   5.772   2.579   6.485
10519TIP3    H131498   5.716   2.513   6.526
10519TIP3    H231499   5.722   2.607   6.408
10520TIP3   OH231500   2.052   1.876   6.226
10520TIP3    H131501   1.964   1.894   6.193
10520TIP3    H231502   2.052   1.911   6.316
10521TIP3   OH231503   8.200   5.426   6.663
10521TIP3    H131504   8.116   5.382   6.646
10521TIP3    H231505   8.264   5.372   6.617
10522TIP3   OH231506   1.561   0.250   6.722
10522TIP3    H131507   1.498   0.181   6.703
10522TIP3    H231508   1.635   0.205   6.762
10523TIP3   OH231509   7.367   3.886   4.619
10523TIP3    H131510   7.448   3.887   4.569
10523TIP3    H231511   7.299   3.904   4.555
10524TIP3   OH231512   4.370   7.409   3.490
10524TIP3    H131513   4.338   7.461   3.563
10524TIP3    H231514   4.313   7.332   3.488
10525TIP3   OH231515   2.061   1.125   5.841
10525TIP3    H131516   2.089   1.216   5.851
10525TIP3    H231517   2.062   1.090   5.930
10526TIP3   OH231518   7.475   3.418   6.764
10526TIP3    H131519   7.478   3.467   6.681
10526TIP3    H231520   7.533   3.344   6.749
10527TIP3   OH231521   4.252   1.273   2.509
10527TIP3    H131522   4.240   1.357   2.554
10527TIP3    H231523   4.174   1.264   2.455
10528TIP3   OH231524   5.581   4.069   6.744
10528TIP3    H131525   5.663   4.098   6.706
10528TIP3    H231526   5.513   4.113   6.693
10529TIP3   OH231527   6.496   1.434   2.017
10529TIP3    H131528   6.432   1.366   1.998
10529TIP3    H231529   6.492   1.493   1.942
10530TIP3   OH231530   2.898   0.619   1.401
10530TIP3    H131531   2.892   0.579   1.314
10530TIP3    H231532   2.837   0.569   1.455
10531TIP3   OH231533   6.980   6.099   6.439
10531TIP3    H131534   6.998   6.185   6.402
10531TIP3    H231535   7.067   6.059   6.449
10532TIP3   OH231536   7.102   3.254   4.278
10532TIP3    H131537   7.142   3.338   4.257
10532TIP3    H231538   7.008   3.269   4.272
10533TIP3   OH231539   0.725   4.449   2.824
10533TIP3    H131540   0.810   4.411   2.848
10533TIP3    H231541   0.668   4.374   2.810
10534TIP3   OH231542   7.452   2.626   5.852
10534TIP3    H131543   7.492   2.543   5.824
10534TIP3    H231544   7.425   2.610   5.942
10535TIP3   OH231545   4.466   1.889   3.120
10535TIP3    H131546   4.480   1.966   3.176
10535TIP3    H231547   4.380   1.856   3.146
10536TIP3   OH231548   0.567   4.169   0.474
10536TIP3    H131549   0.642   4.219   0.506
10536TIP3    H231550   0.510   4.234   0.434
10537TIP3   OH231551   1.038   5.963   4.994
10537TIP3    H131552   1.007   5.917   5.071
10537TIP3    H231553   1.056   6.052   5.024
10538TIP3   OH231554   1.420   7.750   0.190
10538TIP3    H131555   1.452   7.802   0.116
10538TIP3    H231556   1.499   7.722   0.236
10539TIP3   OH231557   1.767   0.069   5.370
10539TIP3    H131558   1.836   0.019   5.413
10539TIP3    H231559   1.735   0.012   5.300
10540TIP3   OH231560   7.650   6.981   0.028
10540TIP3    H131561   7.658   7.065  -0.017
10540TIP3    H231562   7.587   6.998   0.098
10541TIP3   OH231563   3.491   3.841   3.854
10541TIP3    H131564   3.398   3.831   3.834
10541TIP3    H231565   3.518   3.919   3.805
10542TIP3   OH231566   7.486   0.019   2.825
10542TIP3    H131567   7.502   0.094   2.768
10542TIP3    H231568   7.415  -0.028   2.783
10543TIP3   OH231569   2.846   7.880   4.778
10543TIP3    H131570   2.922   7.927   4.743
10543TIP3    H231571   2.853   7.893   4.873
10544TIP3   OH231572   2.938   5.972   1.470
10544TIP3    H131573   2.911   5.882   1.453
10544TIP3    H231574   3.033   5.971   1.456
10545TIP3   OH231575   5.480   1.464   3.055
10545TIP3    H131576   5.559   1.435   3.101
10545TIP3    H231577   5.445   1.384   3.015
10546TIP3   OH231578   3.512   6.196   4.812
10546TIP3    H131579   3.416   6.203   4.820
10546TIP3    H231580   3.534   6.119   4.865
10547TIP3   OH231581   2.460   4.122   1.781
10547TIP3    H131582   2.520   4.158   1.715
10547TIP3    H231583   2.478   4.174   1.859
10548TIP3   OH231584   0.712   1.552   3.249
10548TIP3    H131585   0.767   1.588   3.179
10548TIP3    H231586   0.624   1.550   3.211
10549TIP3   OH231587   4.071   3.961   2.615
10549TIP3    H131588   4.023   3.984   2.695
10549TIP3    H231589   4.108   3.875   2.633
10550TIP3   OH231590   4.959   7.847   2.199
10550TIP3    H131591   4.925   7.903   2.129
10550TIP3    H231592   5.054   7.843   2.183
10551TIP3   OH231593   5.428   6.739   3.003
10551TIP3    H131594   5.391   6.700   3.082
10551TIP3    H231595   5.521   6.750   3.024
10552TIP3   OH231596   7.212   0.926   3.541
10552TIP3    H131597   7.246   0.887   3.461
10552TIP3    H231598   7.133   0.876   3.561
10553TIP3   OH231599   7.565   1.492   0.939
10553TIP3    H131600   7.628   1.556   0.905
10553TIP3    H231601   7.556   1.427   0.869
10554TIP3   OH231602   3.378   7.383   4.560
10554TIP3    H131603   3.309   7.318   4.574
10554TIP3    H231604   3.406   7.407   4.648
10555TIP3   OH231605   7.887   2.116   4.248
10555TIP3    H131606   7.959   2.053   4.250
10555TIP3    H231607   7.815   2.068   4.208
10556TIP3   OH231608   2.949   0.559   5.681
10556TIP3    H131609   2.856   0.583   5.679
10556TIP3    H231610   2.955   0.483   5.623
10557TIP3   OH231611   4.960   6.316   1.938
10557TIP3    H131612   4.942   6.377   2.010
10557TIP3    H231613   5.037   6.352   1.894
10558TIP3   OH231614   0.433   5.150   1.008
10558TIP3    H131615   0.406   5.101   1.086
10558TIP3    H231616   0.526   5.169   1.023
10559TIP3   OH231617   4.201   2.745   1.246
10559TIP3    H131618   4.169   2.701   1.324
10559TIP3    H231619   4.174   2.836   1.256
10560TIP3   OH231620   3.170   4.157   4.635
10560TIP3    H131621   3.152   4.063   4.637
10560TIP3    H231622   3.116   4.190   4.564
10561TIP3   OH231623   1.155   1.702   2.654
10561TIP3    H131624   1.083   1.642   2.636
10561TIP3    H231625   1.193   1.720   2.568
10562TIP3   OH231626   5.675   4.139   0.055
10562TIP3    H131627   5.593   4.187   0.073
10562TIP3    H231628   5.669   4.061   0.110
10563TIP3   OH231629   5.721   2.094   2.113
10563TIP3    H131630   5.813   2.067   2.108
10563TIP3    H231631   5.724   2.181   2.151
10564TIP3   OH231632   4.282   5.645   3.122
10564TIP3    H131633   4.212   5.710   3.122
10564TIP3    H231634   4.331   5.664   3.043
10565TIP3   OH231635   2.082   7.265   5.437
10565TIP3    H131636   2.097   7.335   5.500
10565TIP3    H231637   2.047   7.309   5.360
10566TIP3   OH231638   3.025   1.914   2.255
10566TIP3    H131639   3.017   1.865   2.174
10566TIP3    H231640   3.119   1.922   2.271
10567TIP3   OH231641   0.299   1.009   0.724
10567TIP3    H131642   0.263   0.922   0.706
10567TIP3    H231643   0.224   1.068   0.717
10568TIP3   OH231644   7.715   7.523   2.453
10568TIP3    H131645   7.662   7.545   2.376
10568TIP3    H231646   7.683   7.581   2.522
10569TIP3   OH231647   3.297   0.392   6.332
10569TIP3    H131648   3.285   0.299   6.346
10569TIP3    H231649   3.331   0.399   6.242
10570TIP3   OH231650   2.077   4.649   2.596
10570TIP3    H131651   2.116   4.713   2.538
10570TIP3    H231652   2.113   4.565   2.567
10571TIP3   OH231653   7.548   6.555   5.924
10571TIP3    H131654   7.495   6.480   5.899
10571TIP3    H231655   7.569   6.540   6.016
10572TIP3   OH231656   0.611   3.476   4.290
10572TIP3    H131657   0.550   3.543   4.260
10572TIP3    H231658   0.580   3.453   4.378
10573TIP3   OH231659   2.340   1.561   2.892
10573TIP3    H131660   2.249   1.554   2.865
10573TIP3    H231661   2.340   1.536   2.984
10574TIP3   OH231662   5.066   2.742   5.661
10574TIP3    H131663   4.977   2.709   5.674
10574TIP3    H231664   5.122   2.683   5.712
10575TIP3   OH231665   1.679   1.396   5.079
10575TIP3    H131666   1.757   1.353   5.046
10575TIP3    H231667   1.638   1.435   5.002
10576TIP3   OH231668   3.807   1.128   5.563
10576TIP3    H131669   3.812   1.217   5.599
10576TIP3    H231670   3.819   1.140   5.469
10577TIP3   OH231671   8.146   1.182   0.584
10577TIP3    H131672   8.098   1.120   0.638
10577TIP3    H231673   8.130   1.153   0.494
10578TIP3   OH231674   2.465   1.445   0.900
10578TIP3    H131675   2.397   1.477   0.960
10578TIP3    H231676   2.546   1.484   0.932
10579TIP3   OH231677   7.412   5.140   5.571
10579TIP3    H131678   7.331   5.093   5.557
10579TIP3    H231679   7.389   5.232   5.559
10580TIP3   OH231680   7.553   4.990   5.319
10580TIP3    H131681   7.480   5.049   5.338
10580TIP3    H231682   7.622   5.017   5.380
10581TIP3   OH231683   5.381   3.134   1.565
10581TIP3    H131684   5.417   3.205   1.511
10581TIP3    H231685   5.428   3.142   1.648
10582TIP3   OH231686   2.329   3.875   5.082
10582TIP3    H131687   2.276   3.947   5.046
10582TIP3    H231688   2.271   3.830   5.143
10583TIP3   OH231689   6.553   0.467   4.953
10583TIP3    H131690   6.543   0.553   4.994
10583TIP3    H231691   6.625   0.478   4.891
10584TIP3   OH231692   0.077   4.732   2.913
10584TIP3    H131693   0.119   4.806   2.956
10584TIP3    H231694   0.032   4.770   2.838
10585TIP3   OH231695   5.362   5.628   4.497
10585TIP3    H131696   5.318   5.651   4.415
10585TIP3    H231697   5.354   5.532   4.502
10586TIP3   OH231698   4.863   2.328   6.822
10586TIP3    H131699   4.907   2.303   6.741
10586TIP3    H231700   4.907   2.276   6.889
10587TIP3   OH231701   2.785   3.774   5.490
10587TIP3    H131702   2.762   3.867   5.495
10587TIP3    H231703   2.710   3.732   5.449
10588TIP3   OH231704   3.116   6.799   1.159
10588TIP3    H131705   3.138   6.722   1.107
10588TIP3    H231706   3.113   6.871   1.096
10589TIP3   OH231707   0.068   6.525   6.780
10589TIP3    H131708   0.153   6.568   6.781
10589TIP3    H231709   0.044   6.516   6.873
10590TIP3   OH231710   2.825   4.805   1.552
10590TIP3    H131711   2.888   4.807   1.624
10590TIP3    H231712   2.877   4.824   1.474
10591TIP3   OH231713   2.007   3.741   5.261
10591TIP3    H131714   1.959   3.671   5.304
10591TIP3    H231715   1.976   3.821   5.303
10592TIP3   OH231716   2.196   2.384   6.755
10592TIP3    H131717   2.183   2.478   6.740
10592TIP3    H231718   2.237   2.352   6.674
10593TIP3   OH231719   6.276   6.009   2.270
10593TIP3    H131720   6.272   6.063   2.349
10593TIP3    H231721   6.287   5.920   2.302
10594TIP3   OH231722   3.009   7.842   2.121
10594TIP3    H131723   3.050   7.901   2.058
10594TIP3    H231724   3.073   7.834   2.191
10595TIP3   OH231725   4.211   1.845   3.298
10595TIP3    H131726   4.228   1.926   3.346
10595TIP3    H231727   4.155   1.794   3.356
10596TIP3   OH231728   3.071   5.308   2.325
10596TIP3    H131729   2.989   5.280   2.365
10596TIP3    H231730   3.054   5.305   2.231
10597TIP3   OH231731   4.583   5.240   1.589
10597TIP3    H131732   4.591   5.272   1.499
10597TIP3    H231733   4.672   5.243   1.624
10598TIP3   OH231734   6.266   0.743   2.899
10598TIP3    H131735   6.276   0.838   2.901
10598TIP3    H231736   6.188   0.725   2.951
10599TIP3   OH231737   0.808   3.982   0.631
10599TIP3    H131738   0.714   3.970   0.617
10599TIP3    H231739   0.822   3.952   0.721
10600TIP3   OH231740   7.826   6.512   0.059
10600TIP3    H131741   7.768   6.457   0.006
10600TIP3    H231742   7.893   6.543  -0.002
10601TIP3   OH231743   5.215   0.746   3.574
10601TIP3    H131744   5.160   0.775   3.647
10601TIP3    H231745   5.303   0.780   3.595
10602TIP3   OH231746   2.779   0.006   5.872
10602TIP3    H131747   2.716  -0.028   5.808
10602TIP3    H231748   2.855   0.032   5.820
10603TIP3   OH231749   3.015   1.980   2.671
10603TIP3    H131750   2.943   1.931   2.711
10603TIP3    H231751   3.085   1.915   2.662
10604TIP3   OH231752   2.957   1.201   0.816
10604TIP3    H131753   3.003   1.285   0.810
10604TIP3    H231754   2.997   1.146   0.749
10605TIP3   OH231755   3.331   7.595   6.225
10605TIP3    H131756   3.395   7.590   6.296
10605TIP3    H231757   3.274   7.669   6.249
10606TIP3   OH231758   1.525   2.183   0.101
10606TIP3    H131759   1.525   2.203   0.007
10606TIP3    H231760   1.617   2.183   0.125
10607TIP3   OH231761   6.442   3.326   6.121
10607TIP3    H131762   6.529   3.363   6.136
10607TIP3    H231763   6.394   3.347   6.201
10608TIP3   OH231764   5.640   1.420   5.762
10608TIP3    H131765   5.553   1.382   5.746
10608TIP3    H231766   5.698   1.375   5.702
10609TIP3   OH231767   2.587   7.798   3.522
10609TIP3    H131768   2.682   7.790   3.524
10609TIP3    H231769   2.557   7.757   3.603
10610TIP3   OH231770   3.723   3.836   5.198
10610TIP3    H131771   3.715   3.805   5.288
10610TIP3    H231772   3.778   3.914   5.204
10611TIP3   OH231773   3.059   0.389   0.616
10611TIP3    H131774   3.036   0.482   0.616
10611TIP3    H231775   3.052   0.362   0.707
10612TIP3   OH231776   2.154   5.513   3.748
10612TIP3    H131777   2.097   5.437   3.743
10612TIP3    H231778   2.243   5.478   3.741
10613TIP3   OH231779   2.273   1.153   6.481
10613TIP3    H131780   2.232   1.199   6.407
10613TIP3    H231781   2.310   1.074   6.443
10614TIP3   OH231782   3.501   0.018   5.041
10614TIP3    H131783   3.470  -0.041   4.972
10614TIP3    H231784   3.570   0.069   4.999
10615TIP3   OH231785   3.725   1.730   3.200
10615TIP3    H131786   3.775   1.716   3.119
10615TIP3    H231787   3.646   1.776   3.171
10616TIP3   OH231788   0.100   2.442   2.038
10616TIP3    H131789   0.039   2.479   2.102
10616TIP3    H231790   0.181   2.492   2.050
10617TIP3   OH231791   2.491   6.191   0.357
10617TIP3    H131792   2.455   6.205   0.269
10617TIP3    H231793   2.442   6.250   0.413
10618TIP3   OH231794   4.541   1.508   3.264
10618TIP3    H131795   4.449   1.500   3.241
10618TIP3    H231796   4.543   1.576   3.332
10619TIP3   OH231797   4.180   0.316   0.582
10619TIP3    H131798   4.148   0.301   0.493
10619TIP3    H231799   4.104   0.353   0.628
10620TIP3   OH231800   5.058   4.572   3.951
10620TIP3    H131801   4.987   4.535   4.004
10620TIP3    H231802   5.037   4.545   3.862
10621TIP3   OH231803   1.447   4.633   5.685
10621TIP3    H131804   1.536   4.596   5.678
10621TIP3    H231805   1.449   4.684   5.766
10622TIP3   OH231806   3.409   0.407   3.611
10622TIP3    H131807   3.467   0.403   3.687
10622TIP3    H231808   3.323   0.430   3.647
10623TIP3   OH231809   5.736   2.155   0.985
10623TIP3    H131810   5.689   2.141   0.903
10623TIP3    H231811   5.828   2.139   0.963
10624TIP3   OH231812   2.174   1.428   6.504
10624TIP3    H131813   2.217   1.427   6.418
10624TIP3    H231814   2.088   1.389   6.487
10625TIP3   OH231815   2.917   3.432   2.025
10625TIP3    H131816   2.911   3.519   2.064
10625TIP3    H231817   2.860   3.436   1.948
10626TIP3   OH231818   2.057   2.154   0.797
10626TIP3    H131819   1.980   2.164   0.852
10626TIP3    H231820   2.038   2.079   0.741
10627TIP3   OH231821   8.330   4.366   3.106
10627TIP3    H131822   8.237   4.352   3.119
10627TIP3    H231823   8.360   4.408   3.186
10628TIP3   OH231824   5.359   3.901   6.362
10628TIP3    H131825   5.421   3.831   6.340
10628TIP3    H231826   5.338   3.941   6.278
10629TIP3   OH231827   1.147   0.894   5.661
10629TIP3    H131828   1.215   0.882   5.728
10629TIP3    H231829   1.084   0.954   5.701
10630TIP3   OH231830   1.147   2.577   6.001
10630TIP3    H131831   1.139   2.526   5.920
10630TIP3    H231832   1.194   2.656   5.975
10631TIP3   OH231833   7.829   3.241   0.096
10631TIP3    H131834   7.813   3.291   0.177
10631TIP3    H231835   7.745   3.199   0.078
10632TIP3   OH231836   4.864   0.092   5.591
10632TIP3    H131837   4.792   0.047   5.546
10632TIP3    H231838   4.916   0.022   5.629
10633TIP3   OH231839   1.129   1.576   6.116
10633TIP3    H131840   1.138   1.667   6.089
10633TIP3    H231841   1.048   1.547   6.076
10634TIP3   OH231842   0.744   0.907  -0.046
10634TIP3    H131843   0.711   0.905   0.043
10634TIP3    H231844   0.802   0.984  -0.049
10635TIP3   OH231845   2.158   6.707   0.114
10635TIP3    H131846   2.177   6.800   0.103
10635TIP3    H231847   2.125   6.679   0.029
10636TIP3   OH231848   6.345   0.307   3.185
10636TIP3    H131849   6.355   0.375   3.118
10636TIP3    H231850   6.263   0.263   3.163
10637TIP3   OH231851   3.084   7.011   4.933
10637TIP3    H131852   3.167   7.016   4.886
10637TIP3    H231853   3.065   7.101   4.957
10638TIP3   OH231854   2.717   5.908   4.162
10638TIP3    H131855   2.700   5.827   4.113
10638TIP3    H231856   2.737   5.879   4.251
10639TIP3   OH231857   3.389   6.058   0.321
10639TIP3    H131858   3.439   6.107   0.387
10639TIP3    H231859   3.306   6.105   0.314
10640TIP3   OH231860   3.623   5.847   1.961
10640TIP3    H131861   3.664   5.809   1.883
10640TIP3    H231862   3.578   5.925   1.928
10641TIP3   OH231863   2.479   2.345   0.901
10641TIP3    H131864   2.531   2.313   0.827
10641TIP3    H231865   2.453   2.434   0.876
10642TIP3   OH231866   0.762   7.622   0.516
10642TIP3    H131867   0.803   7.706   0.494
10642TIP3    H231868   0.712   7.639   0.595
10643TIP3   OH231869   5.998   0.303   2.698
10643TIP3    H131870   5.953   0.387   2.688
10643TIP3    H231871   6.049   0.312   2.779
10644TIP3   OH231872   3.437   5.585   3.230
10644TIP3    H131873   3.364   5.529   3.202
10644TIP3    H231874   3.400   5.640   3.299
10645TIP3   OH231875   3.210   2.219   3.909
10645TIP3    H131876   3.268   2.162   3.960
10645TIP3    H231877   3.235   2.308   3.935
10646TIP3   OH231878   1.959   4.310   1.945
10646TIP3    H131879   1.864   4.301   1.934
10646TIP3    H231880   1.969   4.376   2.013
10647TIP3   OH231881   3.126   0.346   1.922
10647TIP3    H131882   3.109   0.260   1.883
10647TIP3    H231883   3.091   0.339   2.011
10648TIP3   OH231884   7.775   7.287   2.760
10648TIP3    H131885   7.683   7.283   2.733
10648TIP3    H231886   7.821   7.232   2.697
10649TIP3   OH231887   3.375   6.475   5.706
10649TIP3    H131888   3.292   6.438   5.675
10649TIP3    H231889   3.440   6.407   5.689
10650TIP3   OH231890   0.175   0.614   2.843
10650TIP3    H131891   0.217   0.534   2.813
10650TIP3    H231892   0.094   0.585   2.885
10651TIP3   OH231893   7.303   6.375   2.175
10651TIP3    H131894   7.380   6.392   2.120
10651TIP3    H231895   7.339   6.364   2.263
10652TIP3   OH231896   0.112   2.111   0.379
10652TIP3    H131897   0.202   2.087   0.399
10652TIP3    H231898   0.081   2.040   0.322
10653TIP3   OH231899   2.276   1.689   3.312
10653TIP3    H131900   2.237   1.714   3.229
10653TIP3    H231901   2.201   1.680   3.372
10654TIP3   OH231902   3.101   0.315   3.690
10654TIP3    H131903   3.042   0.291   3.761
10654TIP3    H231904   3.109   0.410   3.696
10655TIP3   OH231905   6.528   7.897   6.780
10655TIP3    H131906   6.434   7.898   6.799
10655TIP3    H231907   6.568   7.861   6.859
10656TIP3   OH231908   4.416   0.211   4.950
10656TIP3    H131909   4.448   0.297   4.977
10656TIP3    H231910   4.324   0.226   4.929
10657TIP3   OH231911   5.676   0.932   2.592
10657TIP3    H131912   5.737   0.867   2.556
10657TIP3    H231913   5.614   0.948   2.522
10658TIP3   OH231914   4.604   3.432   6.001
10658TIP3    H131915   4.624   3.367   6.069
10658TIP3    H231916   4.574   3.508   6.050
10659TIP3   OH231917   7.726   2.761   3.938
10659TIP3    H131918   7.637   2.726   3.935
10659TIP3    H231919   7.761   2.731   4.023
10660TIP3   OH231920   0.795   7.219   0.105
10660TIP3    H131921   0.841   7.137   0.085
10660TIP3    H231922   0.761   7.206   0.193
10661TIP3   OH231923   4.265   5.870   0.237
10661TIP3    H131924   4.278   5.873   0.332
10661TIP3    H231925   4.259   5.777   0.216
10662TIP3   OH231926   6.358   4.994   6.514
10662TIP3    H131927   6.331   4.940   6.589
10662TIP3    H231928   6.280   5.046   6.493
10663TIP3   OH231929   8.090   5.046   3.068
10663TIP3    H131930   8.119   5.053   3.159
10663TIP3    H231931   8.049   4.960   3.062
10664TIP3   OH231932   1.454   5.344   5.121
10664TIP3    H131933   1.395   5.329   5.195
10664TIP3    H231934   1.508   5.265   5.117
10665TIP3   OH231935   2.937   6.039   5.603
10665TIP3    H131936   3.026   6.053   5.635
10665TIP3    H231937   2.907   5.959   5.647
10666TIP3   OH231938   8.174   2.743   3.294
10666TIP3    H131939   8.119   2.678   3.337
10666TIP3    H231940   8.256   2.697   3.275
10667TIP3   OH231941   1.437   4.753   5.909
10667TIP3    H131942   1.511   4.728   5.964
10667TIP3    H231943   1.366   4.768   5.971
10668TIP3   OH231944   0.733   3.692   1.053
10668TIP3    H131945   0.648   3.663   1.020
10668TIP3    H231946   0.760   3.623   1.114
10669TIP3   OH231947   3.645   7.386   6.463
10669TIP3    H131948   3.578   7.445   6.430
10669TIP3    H231949   3.657   7.410   6.554
10670TIP3   OH231950   5.142   1.817   0.579
10670TIP3    H131951   5.108   1.905   0.564
10670TIP3    H231952   5.092   1.762   0.518
10671TIP3   OH231953   8.182   5.478   0.247
10671TIP3    H131954   8.271   5.509   0.228
10671TIP3    H231955   8.177   5.478   0.342
10672TIP3   OH231956   2.003   3.104   1.360
10672TIP3    H131957   1.993   3.167   1.289
10672TIP3    H231958   1.918   3.104   1.404
10673TIP3   OH231959   5.990   5.600   0.605
10673TIP3    H131960   5.965   5.606   0.697
10673TIP3    H231961   6.034   5.515   0.598
10674TIP3   OH231962   4.059   2.547   0.410
10674TIP3    H131963   4.026   2.465   0.447
10674TIP3    H231964   4.008   2.615   0.454
10675TIP3   OH231965   6.745   6.796   4.555
10675TIP3    H131966   6.718   6.774   4.644
10675TIP3    H231967   6.672   6.847   4.520
10676TIP3   OH231968   6.620   3.687   2.140
10676TIP3    H131969   6.533   3.719   2.118
10676TIP3    H231970   6.676   3.765   2.134
10677TIP3   OH231971   0.279   3.468   1.636
10677TIP3    H131972   0.329   3.475   1.718
10677TIP3    H231973   0.196   3.427   1.662
10678TIP3   OH231974   1.311   3.524   4.165
10678TIP3    H131975   1.290   3.449   4.221
10678TIP3    H231976   1.292   3.494   4.076
10679TIP3   OH231977   2.840   0.410   3.231
10679TIP3    H131978   2.913   0.437   3.285
10679TIP3    H231979   2.777   0.482   3.236
10680TIP3   OH231980   0.149   7.711   5.647
10680TIP3    H131981   0.129   7.643   5.711
10680TIP3    H231982   0.244   7.723   5.654
10681TIP3   OH231983   2.559   6.260   0.812
10681TIP3    H131984   2.642   6.214   0.809
10681TIP3    H231985   2.499   6.205   0.762
10682TIP3   OH231986   2.326   2.700   2.142
10682TIP3    H131987   2.254   2.643   2.170
10682TIP3    H231988   2.364   2.654   2.067
10683TIP3   OH231989   6.806   7.670   5.656
10683TIP3    H131990   6.840   7.753   5.623
10683TIP3    H231991   6.817   7.674   5.751
10684TIP3   OH231992   7.269   3.114   1.127
10684TIP3    H131993   7.319   3.190   1.097
10684TIP3    H231994   7.178   3.141   1.122
10685TIP3   OH231995   4.954   7.712   3.827
10685TIP3    H131996   4.990   7.640   3.879
10685TIP3    H231997   4.921   7.670   3.748
10686TIP3   OH231998   4.316   2.301   2.254
10686TIP3    H131999   4.357   2.366   2.311
10686TIP3    H232000   4.342   2.327   2.165
10687TIP3   OH232001   2.308   4.333   1.184
10687TIP3    H132002   2.392   4.366   1.213
10687TIP3    H232003   2.307   4.241   1.212
10688TIP3   OH232004   2.881   2.847   6.451
10688TIP3    H132005   2.849   2.895   6.375
10688TIP3    H232006   2.944   2.784   6.416
10689TIP3   OH232007   5.028   3.318   6.815
10689TIP3    H132008   5.073   3.377   6.755
10689TIP3    H232009   4.938   3.350   6.819
10690TIP3   OH232010   1.754   6.123   1.108
10690TIP3    H132011   1.661   6.102   1.117
10690TIP3    H232012   1.758   6.219   1.113
10691TIP3   OH232013   4.016   7.802   1.592
10691TIP3    H132014   3.955   7.733   1.568
10691TIP3    H232015   4.085   7.757   1.640
10692TIP3   OH232016   8.122   7.374   3.418
10692TIP3    H132017   8.119   7.279   3.431
10692TIP3    H232018   8.030   7.399   3.408
10693TIP3   OH232019   7.246   2.301   0.076
10693TIP3    H132020   7.277   2.374   0.022
10693TIP3    H232021   7.276   2.223   0.030
10694TIP3   OH232022   7.257   3.361   0.775
10694TIP3    H132023   7.314   3.356   0.851
10694TIP3    H232024   7.191   3.293   0.789
10695TIP3   OH232025   2.883   5.034   5.852
10695TIP3    H132026   2.911   5.019   5.942
10695TIP3    H232027   2.798   5.078   5.860
10696TIP3   OH232028   1.372   0.170   4.809
10696TIP3    H132029   1.450   0.217   4.781
10696TIP3    H232030   1.362   0.099   4.746
10697TIP3   OH232031   7.801   2.170   5.323
10697TIP3    H132032   7.877   2.222   5.349
10697TIP3    H232033   7.745   2.231   5.276
10698TIP3   OH232034   6.945   2.261   0.073
10698TIP3    H132035   7.038   2.261   0.096
10698TIP3    H232036   6.917   2.352   0.084
10699TIP3   OH232037   4.776   3.110   6.148
10699TIP3    H132038   4.725   3.169   6.202
10699TIP3    H232039   4.865   3.115   6.183
10700TIP3   OH232040   6.750   1.806   6.139
10700TIP3    H132041   6.690   1.755   6.192
10700TIP3    H232042   6.836   1.792   6.179
10701TIP3   OH232043   1.729   3.834   3.282
10701TIP3    H132044   1.784   3.756   3.285
10701TIP3    H232045   1.646   3.802   3.246
10702TIP3   OH232046   2.452   1.018   2.670
10702TIP3    H132047   2.484   1.006   2.581
10702TIP3    H232048   2.521   1.069   2.714
10703TIP3   OH232049   5.213   6.780   4.116
10703TIP3    H132050   5.178   6.704   4.071
10703TIP3    H232051   5.139   6.815   4.166
10704TIP3   OH232052   8.246   3.692   4.132
10704TIP3    H132053   8.177   3.648   4.181
10704TIP3    H232054   8.266   3.631   4.060
10705TIP3   OH232055   4.526   7.515   4.641
10705TIP3    H132056   4.586   7.442   4.629
10705TIP3    H232057   4.558   7.582   4.580
10706TIP3   OH232058   2.353   3.617   0.325
10706TIP3    H132059   2.331   3.534   0.282
10706TIP3    H232060   2.274   3.670   0.317
10707TIP3   OH232061   3.165   3.693   1.411
10707TIP3    H132062   3.174   3.768   1.352
10707TIP3    H232063   3.129   3.624   1.356
10708TIP3   OH232064   2.804   1.383   6.099
10708TIP3    H132065   2.817   1.289   6.115
10708TIP3    H232066   2.835   1.396   6.009
10709TIP3   OH232067   0.127   4.634   6.068
10709TIP3    H132068   0.158   4.557   6.115
10709TIP3    H232069   0.031   4.628   6.074
10710TIP3   OH232070   1.410   3.809   1.723
10710TIP3    H132071   1.500   3.798   1.695
10710TIP3    H232072   1.416   3.866   1.800
10711TIP3   OH232073   7.445   1.693   5.291
10711TIP3    H132074   7.441   1.779   5.250
10711TIP3    H232075   7.539   1.676   5.303
10712TIP3   OH232076   2.613   3.569   5.837
10712TIP3    H132077   2.558   3.497   5.869
10712TIP3    H232078   2.695   3.559   5.885
10713TIP3   OH232079   8.296   6.368   4.299
10713TIP3    H132080   8.320   6.287   4.254
10713TIP3    H232081   8.365   6.381   4.364
10714TIP3   OH232082   4.365   1.376   3.495
10714TIP3    H132083   4.278   1.377   3.456
10714TIP3    H232084   4.419   1.330   3.430
10715TIP3   OH232085   0.788   6.068   0.579
10715TIP3    H132086   0.730   6.001   0.617
10715TIP3    H232087   0.736   6.108   0.510
10716TIP3   OH232088   5.025   3.549   4.122
10716TIP3    H132089   5.118   3.530   4.135
10716TIP3    H232090   4.987   3.466   4.093
10717TIP3   OH232091   8.103   7.210   4.794
10717TIP3    H132092   8.120   7.211   4.700
10717TIP3    H232093   8.190   7.214   4.834
10718TIP3   OH232094   3.811   5.947   5.509
10718TIP3    H132095   3.898   5.981   5.490
10718TIP3    H232096   3.784   5.904   5.428
10719TIP3   OH232097   1.300   2.246   1.772
10719TIP3    H132098   1.349   2.302   1.712
10719TIP3    H232099   1.366   2.192   1.814
10720TIP3   OH232100   6.076   0.140   4.974
10720TIP3    H132101   6.110   0.141   4.884
10720TIP3    H232102   5.983   0.160   4.964
10721TIP3   OH232103   8.073   6.572   0.619
10721TIP3    H132104   8.160   6.542   0.644
10721TIP3    H232105   8.022   6.491   0.608
10722TIP3   OH232106   7.177   0.453   4.371
10722TIP3    H132107   7.108   0.516   4.352
10722TIP3    H232108   7.130   0.372   4.391
10723TIP3   OH232109   5.075   4.086   4.688
10723TIP3    H132110   5.085   4.146   4.762
10723TIP3    H232111   5.046   4.142   4.616
10724TIP3   OH232112   5.056   5.695   4.684
10724TIP3    H132113   5.089   5.605   4.689
10724TIP3    H232114   4.978   5.690   4.629
10725TIP3   OH232115   3.741   6.583   3.214
10725TIP3    H132116   3.649   6.560   3.204
10725TIP3    H232117   3.770   6.606   3.126
10726TIP3   OH232118   5.504   5.593   4.760
10726TIP3    H132119   5.477   5.626   4.674
10726TIP3    H232120   5.598   5.578   4.752
10727TIP3   OH232121   2.911   0.641   0.650
10727TIP3    H132122   2.849   0.714   0.652
10727TIP3    H232123   2.967   0.660   0.574
10728TIP3   OH232124   6.711   5.334   1.374
10728TIP3    H132125   6.713   5.356   1.280
10728TIP3    H232126   6.803   5.329   1.399
10729TIP3   OH232127   0.311   4.168   4.307
10729TIP3    H132128   0.363   4.103   4.260
10729TIP3    H232129   0.336   4.252   4.268
10730TIP3   OH232130   5.268   0.866   1.228
10730TIP3    H132131   5.317   0.805   1.173
10730TIP3    H232132   5.177   0.855   1.201
10731TIP3   OH232133   2.756   3.032   4.715
10731TIP3    H132134   2.703   3.103   4.750
10731TIP3    H232135   2.791   3.067   4.633
10732TIP3   OH232136   3.871   1.422   5.383
10732TIP3    H132137   3.849   1.429   5.476
10732TIP3    H232138   3.966   1.435   5.379
10733TIP3   OH232139   4.269   5.745   2.296
10733TIP3    H132140   4.296   5.836   2.312
10733TIP3    H232141   4.227   5.748   2.210
10734TIP3   OH232142   3.910   4.978   1.172
10734TIP3    H132143   3.967   4.986   1.249
10734TIP3    H232144   3.898   5.068   1.142
10735TIP3   OH232145   5.475   0.633   1.464
10735TIP3    H132146   5.460   0.551   1.511
10735TIP3    H232147   5.519   0.607   1.383
10736TIP3   OH232148   0.606   1.846   5.152
10736TIP3    H132149   0.558   1.918   5.192
10736TIP3    H232150   0.538   1.786   5.121
10737TIP3   OH232151   4.455   1.408   4.166
10737TIP3    H132152   4.492   1.451   4.242
10737TIP3    H232153   4.523   1.413   4.099
10738TIP3   OH232154   2.824   6.853   4.730
10738TIP3    H132155   2.872   6.935   4.717
10738TIP3    H232156   2.800   6.825   4.642
10739TIP3   OH232157   4.831   1.535   0.568
10739TIP3    H132158   4.897   1.575   0.625
10739TIP3    H232159   4.830   1.442   0.593
10740TIP3   OH232160   4.180   4.705   4.480
10740TIP3    H132161   4.133   4.622   4.468
10740TIP3    H232162   4.133   4.767   4.424
10741TIP3   OH232163   8.378   2.336   6.112
10741TIP3    H132164   8.334   2.327   6.197
10741TIP3    H232165   8.471   2.341   6.135
10742TIP3   OH232166   3.222   7.542   3.772
10742TIP3    H132167   3.186   7.539   3.684
10742TIP3    H232168   3.274   7.622   3.774
10743TIP3   OH232169   4.597   2.056   1.818
10743TIP3    H132170   4.665   2.057   1.750
10743TIP3    H232171   4.514   2.055   1.769
10744TIP3   OH232172   3.581   1.669   2.289
10744TIP3    H132173   3.654   1.615   2.260
10744TIP3    H232174   3.571   1.736   2.221
10745TIP3   OH232175   1.939   4.506   3.846
10745TIP3    H132176   2.019   4.469   3.810
10745TIP3    H232177   1.959   4.598   3.861
10746TIP3   OH232178   1.866   6.777   2.962
10746TIP3    H132179   1.784   6.795   3.008
10746TIP3    H232180   1.898   6.863   2.933
10747TIP3   OH232181   6.949   3.919   2.940
10747TIP3    H132182   7.038   3.886   2.954
10747TIP3    H232183   6.918   3.871   2.863
10748TIP3   OH232184   2.448   6.016   4.055
10748TIP3    H132185   2.440   5.999   4.149
10748TIP3    H232186   2.505   6.092   4.049
10749TIP3   OH232187   2.502   7.440   5.561
10749TIP3    H132188   2.545   7.388   5.492
10749TIP3    H232189   2.573   7.493   5.598
10750TIP3   OH232190   1.836   1.046   0.833
10750TIP3    H132191   1.849   1.118   0.895
10750TIP3    H232192   1.885   1.073   0.755
10751TIP3   OH232193   0.835   0.531   5.360
10751TIP3    H132194   0.888   0.567   5.289
10751TIP3    H232195   0.881   0.451   5.386
10752TIP3   OH232196   2.417   7.250   5.747
10752TIP3    H132197   2.489   7.262   5.808
10752TIP3    H232198   2.448   7.289   5.665
10753TIP3   OH232199   6.139   1.220   2.326
10753TIP3    H132200   6.211   1.191   2.269
10753TIP3    H232201   6.177   1.290   2.379
10754TIP3   OH232202   0.296   3.160   4.184
10754TIP3    H132203   0.315   3.070   4.159
10754TIP3    H232204   0.258   3.153   4.271
10755TIP3   OH232205   1.236   4.935   1.310
10755TIP3    H132206   1.199   5.022   1.295
10755TIP3    H232207   1.328   4.951   1.332
10756TIP3   OH232208   1.445   4.320   0.239
10756TIP3    H132209   1.485   4.360   0.162
10756TIP3    H232210   1.519   4.308   0.300
10757TIP3   OH232211   4.677   2.194   4.305
10757TIP3    H132212   4.668   2.169   4.213
10757TIP3    H232213   4.712   2.116   4.348
10758TIP3   OH232214   4.903   6.573   1.022
10758TIP3    H132215   4.863   6.650   1.063
10758TIP3    H232216   4.870   6.572   0.933
10759TIP3   OH232217   6.553   1.793   1.942
10759TIP3    H132218   6.641   1.776   1.910
10759TIP3    H232219   6.496   1.739   1.886
10760TIP3   OH232220   4.889   1.290   0.295
10760TIP3    H132221   4.809   1.315   0.342
10760TIP3    H232222   4.945   1.368   0.301
10761TIP3   OH232223   4.890   4.951   4.081
10761TIP3    H132224   4.950   4.928   4.011
10761TIP3    H232225   4.804   4.922   4.050
10762TIP3   OH232226   4.093   4.449   2.391
10762TIP3    H132227   4.119   4.498   2.470
10762TIP3    H232228   4.170   4.455   2.334
10763TIP3   OH232229   2.101   0.862   5.219
10763TIP3    H132230   2.172   0.847   5.156
10763TIP3    H232231   2.095   0.957   5.226
10764TIP3   OH232232   7.625   3.431   2.453
10764TIP3    H132233   7.614   3.453   2.361
10764TIP3    H232234   7.711   3.391   2.458
10765TIP3   OH232235   2.431   2.280   5.679
10765TIP3    H132236   2.430   2.366   5.637
10765TIP3    H232237   2.340   2.262   5.700
10766TIP3   OH232238   0.697   3.291   3.152
10766TIP3    H132239   0.651   3.375   3.151
10766TIP3    H232240   0.773   3.305   3.096
10767TIP3   OH232241   3.892   4.483   1.707
10767TIP3    H132242   3.972   4.479   1.654
10767TIP3    H232243   3.845   4.558   1.672
10768TIP3   OH232244   7.495   5.196   5.837
10768TIP3    H132245   7.471   5.119   5.890
10768TIP3    H232246   7.465   5.174   5.749
10769TIP3   OH232247   1.939   6.583   4.567
10769TIP3    H132248   2.019   6.585   4.515
10769TIP3    H232249   1.964   6.624   4.650
10770TIP3   OH232250   7.826   3.765  -0.030
10770TIP3    H132251   7.732   3.751  -0.032
10770TIP3    H232252   7.839   3.833   0.036
10771TIP3   OH232253   7.925   7.476   4.594
10771TIP3    H132254   7.983   7.466   4.519
10771TIP3    H232255   7.846   7.429   4.570
10772TIP3   OH232256   1.112   6.339   2.602
10772TIP3    H132257   1.068   6.254   2.592
10772TIP3    H232258   1.156   6.333   2.686
10773TIP3   OH232259   4.105   1.414   3.366
10773TIP3    H132260   4.058   1.330   3.366
10773TIP3    H232261   4.051   1.472   3.419
10774TIP3   OH232262   3.875   3.914   3.349
10774TIP3    H132263   3.888   3.935   3.442
10774TIP3    H232264   3.959   3.876   3.321
10775TIP3   OH232265   6.383   1.646   4.637
10775TIP3    H132266   6.381   1.741   4.624
10775TIP3    H232267   6.323   1.631   4.710
10776TIP3   OH232268   0.947   4.393   3.941
10776TIP3    H132269   0.978   4.380   4.031
10776TIP3    H232270   0.962   4.486   3.923
10777TIP3   OH232271   3.731   0.210   5.680
10777TIP3    H132272   3.794   0.271   5.642
10777TIP3    H232273   3.672   0.188   5.608
10778TIP3   OH232274   7.681   7.385   4.518
10778TIP3    H132275   7.622   7.309   4.525
10778TIP3    H232276   7.638   7.453   4.570
10779TIP3   OH232277   2.719   1.585   3.318
10779TIP3    H132278   2.677   1.572   3.403
10779TIP3    H232279   2.808   1.553   3.330
10780TIP3   OH232280   3.216   2.078   2.019
10780TIP3    H132281   3.250   2.011   2.078
10780TIP3    H232282   3.227   2.160   2.066
10781TIP3   OH232283   5.359   5.954   2.328
10781TIP3    H132284   5.455   5.963   2.330
10781TIP3    H232285   5.328   6.008   2.400
10782TIP3   OH232286   1.738   5.713   3.650
10782TIP3    H132287   1.709   5.626   3.623
10782TIP3    H232288   1.757   5.758   3.568
10783TIP3   OH232289   8.031   0.365   4.606
10783TIP3    H132290   7.961   0.408   4.555
10783TIP3    H232291   8.050   0.285   4.557
10784TIP3   OH232292   8.092   7.810   4.590
10784TIP3    H132293   8.180   7.817   4.554
10784TIP3    H232294   8.105   7.790   4.683
10785TIP3   OH232295   0.399   0.372   1.288
10785TIP3    H132296   0.390   0.319   1.208
10785TIP3    H232297   0.468   0.435   1.268
10786TIP3   OH232298   7.426   6.250   0.280
10786TIP3    H132299   7.478   6.273   0.358
10786TIP3    H232300   7.411   6.334   0.237
10787TIP3   OH232301   8.268   7.785   5.632
10787TIP3    H132302   8.232   7.792   5.544
10787TIP3    H232303   8.357   7.753   5.620
10788TIP3   OH232304   1.690   5.700   3.038
10788TIP3    H132305   1.674   5.759   2.964
10788TIP3    H232306   1.784   5.708   3.054
10789TIP3   OH232307   7.637   7.840   6.609
10789TIP3    H132308   7.548   7.873   6.613
10789TIP3    H232309   7.687   7.909   6.566
10790TIP3   OH232310   7.810   1.254   1.538
10790TIP3    H132311   7.802   1.192   1.611
10790TIP3    H232312   7.866   1.210   1.474
10791TIP3   OH232313   1.983   7.724   5.310
10791TIP3    H132314   1.894   7.694   5.327
10791TIP3    H232315   2.026   7.651   5.266
10792TIP3   OH232316   3.884   4.139   0.071
10792TIP3    H132317   3.859   4.074   0.005
10792TIP3    H232318   3.840   4.110   0.150
10793TIP3   OH232319   4.655   1.403   3.917
10793TIP3    H132320   4.603   1.421   3.839
10793TIP3    H232321   4.681   1.311   3.907
10794TIP3   OH232322   3.763   4.934   6.283
10794TIP3    H132323   3.817   4.858   6.306
10794TIP3    H232324   3.755   4.983   6.364
10795TIP3   OH232325   0.350   3.199   2.564
10795TIP3    H132326   0.282   3.176   2.626
10795TIP3    H232327   0.356   3.123   2.506
10796TIP3   OH232328   6.981   3.540   3.048
10796TIP3    H132329   6.929   3.608   3.091
10796TIP3    H232330   7.022   3.492   3.120
10797TIP3   OH232331   1.447   1.713   0.281
10797TIP3    H132332   1.493   1.796   0.276
10797TIP3    H232333   1.371   1.731   0.337
10798TIP3   OH232334   7.657   6.198   2.208
10798TIP3    H132335   7.661   6.107   2.237
10798TIP3    H232336   7.688   6.248   2.283
10799TIP3   OH232337   5.502   3.186   5.919
10799TIP3    H132338   5.486   3.158   6.009
10799TIP3    H232339   5.427   3.153   5.870
10800TIP3   OH232340   7.442   3.906   5.385
10800TIP3    H132341   7.447   3.836   5.450
10800TIP3    H232342   7.358   3.891   5.341
10801TIP3   OH232343   2.133   4.324   2.901
10801TIP3    H132344   2.163   4.326   2.992
10801TIP3    H232345   2.194   4.382   2.855
10802TIP3   OH232346   2.730   3.529   6.387
10802TIP3    H132347   2.642   3.499   6.362
10802TIP3    H232348   2.751   3.477   6.464
10803TIP3   OH232349   5.186   4.519   3.175
10803TIP3    H132350   5.117   4.474   3.126
10803TIP3    H232351   5.246   4.551   3.108
10804TIP3   OH232352   3.888   6.753   6.033
10804TIP3    H132353   3.900   6.807   6.111
10804TIP3    H232354   3.870   6.816   5.963
10805TIP3   OH232355   0.903   0.369   1.100
10805TIP3    H132356   0.960   0.318   1.043
10805TIP3    H232357   0.814   0.345   1.072
10806TIP3   OH232358   3.888   0.506   5.163
10806TIP3    H132359   3.928   0.568   5.223
10806TIP3    H232360   3.903   0.543   5.076
10807TIP3   OH232361   2.989   0.365   5.113
10807TIP3    H132362   3.078   0.348   5.082
10807TIP3    H232363   2.984   0.460   5.122
10808TIP3   OH232364   6.949   1.368   0.935
10808TIP3    H132365   6.919   1.336   0.850
10808TIP3    H232366   6.925   1.461   0.935
10809TIP3   OH232367   3.737   7.726   3.572
10809TIP3    H132368   3.741   7.821   3.579
10809TIP3    H232369   3.727   7.708   3.479
10810TIP3   OH232370   2.713   4.532   2.653
10810TIP3    H132371   2.737   4.623   2.664
10810TIP3    H232372   2.618   4.534   2.637
10811TIP3   OH232373   8.362   3.843   2.057
10811TIP3    H132374   8.390   3.852   1.966
10811TIP3    H232375   8.271   3.873   2.056
10812TIP3   OH232376   4.892   7.337   3.158
10812TIP3    H132377   4.809   7.327   3.206
10812TIP3    H232378   4.947   7.390   3.215
10813TIP3   OH232379   2.452   5.718   5.638
10813TIP3    H132380   2.388   5.724   5.708
10813TIP3    H232381   2.458   5.806   5.602
10814TIP3   OH232382   2.691   7.246   5.026
10814TIP3    H132383   2.712   7.160   5.063
10814TIP3    H232384   2.644   7.227   4.945
10815TIP3   OH232385   5.787   7.519   2.582
10815TIP3    H132386   5.783   7.448   2.518
10815TIP3    H232387   5.745   7.483   2.660
10816TIP3   OH232388   7.258   4.014   1.375
10816TIP3    H132389   7.170   3.986   1.398
10816TIP3    H232390   7.253   4.038   1.283
10817TIP3   OH232391   4.256   5.787   4.518
10817TIP3    H132392   4.170   5.817   4.549
10817TIP3    H232393   4.262   5.697   4.547
10818TIP3   OH232394   4.871   2.420   4.855
10818TIP3    H132395   4.956   2.376   4.863
10818TIP3    H232396   4.894   2.510   4.833
10819TIP3   OH232397   6.923   5.427   2.618
10819TIP3    H132398   6.862   5.427   2.544
10819TIP3    H232399   6.867   5.443   2.695
10820TIP3   OH232400   0.374   2.060   0.063
10820TIP3    H132401   0.382   2.126   0.132
10820TIP3    H232402   0.463   2.026   0.051
10821TIP3   OH232403   0.848   7.071   3.460
10821TIP3    H132404   0.937   7.038   3.470
10821TIP3    H232405   0.794   6.993   3.456
10822TIP3   OH232406   0.943   5.231   1.854
10822TIP3    H132407   1.038   5.231   1.840
10822TIP3    H232408   0.913   5.312   1.813
10823TIP3   OH232409   6.117   6.879   1.252
10823TIP3    H132410   6.096   6.827   1.329
10823TIP3    H232411   6.203   6.847   1.224
10824TIP3   OH232412   1.929   4.132   3.618
10824TIP3    H132413   1.877   4.122   3.538
10824TIP3    H232414   1.982   4.211   3.602
10825TIP3   OH232415   3.575   6.080   1.663
10825TIP3    H132416   3.571   6.150   1.597
10825TIP3    H232417   3.652   6.029   1.638
10826TIP3   OH232418   7.971   6.592   2.983
10826TIP3    H132419   7.988   6.533   3.056
10826TIP3    H232420   7.907   6.546   2.929
10827TIP3   OH232421   6.329   7.669   6.223
10827TIP3    H132422   6.421   7.654   6.198
10827TIP3    H232423   6.334   7.726   6.300
10828TIP3   OH232424   5.490   5.346   4.895
10828TIP3    H132425   5.565   5.360   4.953
10828TIP3    H232426   5.495   5.417   4.831
10829TIP3   OH232427   2.605   2.803   4.034
10829TIP3    H132428   2.581   2.750   3.958
10829TIP3    H232429   2.537   2.783   4.099
10830TIP3   OH232430   0.524   4.113   5.484
10830TIP3    H132431   0.480   4.106   5.569
10830TIP3    H232432   0.470   4.174   5.434
10831TIP3   OH232433   7.543   3.895   6.325
10831TIP3    H132434   7.472   3.831   6.331
10831TIP3    H232435   7.512   3.970   6.376
10832TIP3   OH232436   7.189   3.111   5.346
10832TIP3    H132437   7.117   3.135   5.288
10832TIP3    H232438   7.155   3.125   5.435
10833TIP3   OH232439   5.770   3.203   1.954
10833TIP3    H132440   5.820   3.143   2.010
10833TIP3    H232441   5.705   3.241   2.014
10834TIP3   OH232442   6.164   7.078   3.299
10834TIP3    H132443   6.075   7.090   3.267
10834TIP3    H232444   6.217   7.140   3.249
10835TIP3   OH232445   5.124   0.543   6.235
10835TIP3    H132446   5.194   0.598   6.200
10835TIP3    H232447   5.123   0.466   6.178
10836TIP3   OH232448   3.731   5.772   3.499
10836TIP3    H132449   3.759   5.797   3.587
10836TIP3    H232450   3.795   5.707   3.470
10837TIP3   OH232451   8.196   0.321   6.711
10837TIP3    H132452   8.286   0.308   6.680
10837TIP3    H232453   8.177   0.413   6.694
10838TIP3   OH232454   7.971   7.766   3.451
10838TIP3    H132455   7.910   7.840   3.449
10838TIP3    H232456   8.003   7.764   3.541
10839TIP3   OH232457   1.026   5.108   2.571
10839TIP3    H132458   1.002   5.091   2.662
10839TIP3    H232459   1.030   5.203   2.563
10840TIP3   OH232460   2.181   2.437   6.177
10840TIP3    H132461   2.164   2.478   6.262
10840TIP3    H232462   2.147   2.349   6.185
10841TIP3   OH232463   4.176   0.456   4.158
10841TIP3    H132464   4.199   0.547   4.141
10841TIP3    H232465   4.220   0.407   4.089
10842TIP3   OH232466   5.977   0.222   2.215
10842TIP3    H132467   6.020   0.163   2.278
10842TIP3    H232468   5.916   0.273   2.267
10843TIP3   OH232469   5.957   3.424   3.877
10843TIP3    H132470   6.038   3.376   3.864
10843TIP3    H232471   5.888   3.358   3.863
10844TIP3   OH232472   8.293   7.956   6.346
10844TIP3    H132473   8.308   7.979   6.254
10844TIP3    H232474   8.217   7.899   6.345
10845TIP3   OH232475   7.019   3.548   5.307
10845TIP3    H132476   6.927   3.537   5.286
10845TIP3    H232477   7.030   3.505   5.392
10846TIP3   OH232478   6.456   2.595   6.156
10846TIP3    H132479   6.431   2.686   6.139
10846TIP3    H232480   6.473   2.592   6.250
10847TIP3   OH232481   2.923   1.894   0.090
10847TIP3    H132482   2.927   1.922  -0.002
10847TIP3    H232483   3.013   1.871   0.112
10848TIP3   OH232484   2.929   6.279   3.873
10848TIP3    H132485   3.020   6.273   3.843
10848TIP3    H232486   2.890   6.195   3.847
10849TIP3   OH232487   6.761   0.556   2.581
10849TIP3    H132488   6.817   0.589   2.652
10849TIP3    H232489   6.757   0.628   2.518
10850TIP3   OH232490   1.402   1.337   3.784
10850TIP3    H132491   1.332   1.315   3.845
10850TIP3    H232492   1.371   1.415   3.738
10851TIP3   OH232493   7.364   4.826   2.199
10851TIP3    H132494   7.269   4.810   2.203
10851TIP3    H232495   7.397   4.756   2.141
10852TIP3   OH232496   5.494   1.119   3.894
10852TIP3    H132497   5.449   1.195   3.857
10852TIP3    H232498   5.469   1.047   3.837
10853TIP3   OH232499   3.551   7.172   0.037
10853TIP3    H132500   3.587   7.098   0.087
10853TIP3    H232501   3.483   7.208   0.094
10854TIP3   OH232502   8.170   5.477   0.565
10854TIP3    H132503   8.223   5.444   0.637
10854TIP3    H232504   8.101   5.411   0.553
10855TIP3   OH232505   2.953   7.025   3.528
10855TIP3    H132506   2.974   7.102   3.580
10855TIP3    H232507   2.880   7.052   3.473
10856TIP3   OH232508   1.136   5.771   3.539
10856TIP3    H132509   1.045   5.777   3.570
10856TIP3    H232510   1.152   5.856   3.497
10857TIP3   OH232511   3.353   7.663   5.419
10857TIP3    H132512   3.436   7.663   5.468
10857TIP3    H232513   3.348   7.576   5.380
10858TIP3   OH232514   1.075   1.476   2.294
10858TIP3    H132515   1.040   1.532   2.363
10858TIP3    H232516   1.158   1.444   2.329
10859TIP3   OH232517   2.067   4.984   6.367
10859TIP3    H132518   2.047   4.953   6.455
10859TIP3    H232519   2.051   5.078   6.371
10860TIP3   OH232520   1.680   5.720   0.522
10860TIP3    H132521   1.682   5.692   0.613
10860TIP3    H232522   1.689   5.815   0.526
10861TIP3   OH232523   2.212   7.810   5.718
10861TIP3    H132524   2.261   7.824   5.637
10861TIP3    H232525   2.262   7.744   5.765
10862TIP3   OH232526   1.173   1.256   5.548
10862TIP3    H132527   1.148   1.209   5.627
10862TIP3    H232528   1.145   1.201   5.476
10863TIP3   OH232529   4.029   2.620   2.883
10863TIP3    H132530   3.955   2.588   2.935
10863TIP3    H232531   4.002   2.707   2.855
10864TIP3   OH232532   3.334   1.160   0.472
10864TIP3    H132533   3.269   1.218   0.431
10864TIP3    H232534   3.300   1.072   0.457
10865TIP3   OH232535   0.299   1.761   5.409
10865TIP3    H132536   0.279   1.785   5.319
10865TIP3    H232537   0.259   1.830   5.462
10866TIP3   OH232538   6.918   2.527   0.056
10866TIP3    H132539   6.854   2.595   0.032
10866TIP3    H232540   6.978   2.572   0.116
10867TIP3   OH232541   7.179   5.509   3.175
10867TIP3    H132542   7.191   5.435   3.234
10867TIP3    H232543   7.240   5.492   3.102
10868TIP3   OH232544   2.545   0.503   4.485
10868TIP3    H132545   2.551   0.418   4.527
10868TIP3    H232546   2.631   0.542   4.497
10869TIP3   OH232547   1.393   6.157   3.344
10869TIP3    H132548   1.475   6.142   3.296
10869TIP3    H232549   1.384   6.080   3.399
10870TIP3   OH232550   3.721   6.219   6.504
10870TIP3    H132551   3.715   6.150   6.570
10870TIP3    H232552   3.646   6.275   6.523
10871TIP3   OH232553   7.392   2.354   4.292
10871TIP3    H132554   7.372   2.261   4.281
10871TIP3    H232555   7.454   2.374   4.222
10872TIP3   OH232556   1.672   5.407   4.745
10872TIP3    H132557   1.581   5.400   4.773
10872TIP3    H232558   1.691   5.323   4.705
10873TIP3   OH232559   7.679   4.328   1.286
10873TIP3    H132560   7.728   4.317   1.205
10873TIP3    H232561   7.622   4.403   1.270
10874TIP3   OH232562   1.016   6.751   1.339
10874TIP3    H132563   0.924   6.764   1.359
10874TIP3    H232564   1.026   6.656   1.330
10875TIP3   OH232565   5.633   3.057   4.240
10875TIP3    H132566   5.640   3.068   4.335
10875TIP3    H232567   5.607   3.144   4.207
10876TIP3   OH232568   7.211   6.615   3.386
10876TIP3    H132569   7.275   6.557   3.427
10876TIP3    H232570   7.253   6.644   3.305
10877TIP3   OH232571   2.964   0.682   3.883
10877TIP3    H132572   2.932   0.660   3.795
10877TIP3    H232573   2.947   0.776   3.891
10878TIP3   OH232574   7.546   2.320   5.266
10878TIP3    H132575   7.594   2.281   5.193
10878TIP3    H232576   7.546   2.414   5.247
10879TIP3   OH232577   1.791   4.787   5.550
10879TIP3    H132578   1.700   4.808   5.527
10879TIP3    H232579   1.791   4.783   5.646
10880TIP3   OH232580   5.481   7.615   0.804
10880TIP3    H132581   5.469   7.592   0.896
10880TIP3    H232582   5.559   7.567   0.777
10881TIP3   OH232583   6.139   5.797   4.795
10881TIP3    H132584   6.153   5.758   4.708
10881TIP3    H232585   6.214   5.855   4.807
10882TIP3   OH232586   2.976   3.767   1.044
10882TIP3    H132587   3.027   3.690   1.017
10882TIP3    H232588   2.961   3.816   0.963
10883TIP3   OH232589   2.403   0.018   0.259
10883TIP3    H132590   2.401   0.111   0.283
10883TIP3    H232591   2.422   0.018   0.165
10884TIP3   OH232592   6.559   5.124   3.344
10884TIP3    H132593   6.651   5.116   3.368
10884TIP3    H232594   6.558   5.115   3.249
10885TIP3   OH232595   2.392   4.920   1.537
10885TIP3    H132596   2.351   5.006   1.541
10885TIP3    H232597   2.432   4.917   1.450
10886TIP3   OH232598   1.445   7.408   1.660
10886TIP3    H132599   1.513   7.389   1.724
10886TIP3    H232600   1.492   7.427   1.579
10887TIP3   OH232601   7.556   7.160   5.799
10887TIP3    H132602   7.580   7.110   5.721
10887TIP3    H232603   7.471   7.124   5.825
10888TIP3   OH232604   7.946   0.337   4.896
10888TIP3    H132605   7.953   0.389   4.816
10888TIP3    H232606   8.034   0.300   4.908
10889TIP3   OH232607   8.412   3.422   5.366
10889TIP3    H132608   8.339   3.417   5.304
10889TIP3    H232609   8.376   3.388   5.448
10890TIP3   OH232610   6.015   1.344   1.730
10890TIP3    H132611   5.991   1.265   1.682
10890TIP3    H232612   6.043   1.312   1.816
10891TIP3   OH232613   1.715   7.467   4.735
10891TIP3    H132614   1.639   7.439   4.684
10891TIP3    H232615   1.686   7.466   4.826
10892TIP3   OH232616   3.923   1.874   1.632
10892TIP3    H132617   3.905   1.958   1.590
10892TIP3    H232618   3.848   1.858   1.688
10893TIP3   OH232619   4.262   4.850   5.875
10893TIP3    H132620   4.177   4.885   5.900
10893TIP3    H232621   4.325   4.918   5.901
10894TIP3   OH232622   3.844   4.817   6.007
10894TIP3    H132623   3.846   4.729   6.044
10894TIP3    H232624   3.778   4.863   6.059
10895TIP3   OH232625   0.393   6.964   0.762
10895TIP3    H132626   0.373   6.968   0.668
10895TIP3    H232627   0.376   6.873   0.787
10896TIP3   OH232628   2.925   7.451   5.846
10896TIP3    H132629   2.968   7.516   5.790
10896TIP3    H232630   2.856   7.501   5.891
10897TIP3   OH232631   7.760   4.921   1.815
10897TIP3    H132632   7.703   4.930   1.891
10897TIP3    H232633   7.706   4.948   1.741
10898TIP3   OH232634   6.179   5.109   5.515
10898TIP3    H132635   6.094   5.124   5.556
10898TIP3    H232636   6.178   5.164   5.436
10899TIP3   OH232637   1.909   6.607   3.841
10899TIP3    H132638   1.828   6.655   3.854
10899TIP3    H232639   1.969   6.643   3.906
10900TIP3   OH232640   2.891   4.921   4.925
10900TIP3    H132641   2.864   4.991   4.985
10900TIP3    H232642   2.975   4.890   4.960
10901TIP3   OH232643   1.332   6.889   3.141
10901TIP3    H132644   1.239   6.908   3.137
10901TIP3    H232645   1.350   6.874   3.234
10902TIP3   OH232646   5.399   0.421   6.421
10902TIP3    H132647   5.345   0.488   6.464
10902TIP3    H232648   5.371   0.422   6.330
10903TIP3   OH232649   5.950   0.089   0.467
10903TIP3    H132650   5.976   0.161   0.409
10903TIP3    H232651   6.014   0.092   0.538
10904TIP3   OH232652   2.461   4.946   1.260
10904TIP3    H132653   2.392   4.982   1.205
10904TIP3    H232654   2.509   4.887   1.202
10905TIP3   OH232655   1.714   0.621   5.763
10905TIP3    H132656   1.786   0.614   5.700
10905TIP3    H232657   1.676   0.534   5.766
10906TIP3   OH232658   3.958   4.080   1.903
10906TIP3    H132659   3.882   4.104   1.851
10906TIP3    H232660   3.940   4.115   1.990
10907TIP3   OH232661   6.585   4.375   6.116
10907TIP3    H132662   6.617   4.285   6.105
10907TIP3    H232663   6.662   4.430   6.102
10908TIP3   OH232664   4.715   5.826   0.658
10908TIP3    H132665   4.765   5.902   0.631
10908TIP3    H232666   4.725   5.763   0.586
10909TIP3   OH232667   7.292   0.182   5.981
10909TIP3    H132668   7.237   0.141   5.914
10909TIP3    H232669   7.357   0.231   5.932
10910TIP3   OH232670   3.505   0.117   6.044
10910TIP3    H132671   3.497   0.210   6.064
10910TIP3    H232672   3.598   0.103   6.030
10911TIP3   OH232673   0.449   1.700   2.135
10911TIP3    H132674   0.442   1.605   2.140
10911TIP3    H232675   0.404   1.724   2.054
10912TIP3   OH232676   3.052   2.440   6.185
10912TIP3    H132677   3.052   2.368   6.246
10912TIP3    H232678   3.075   2.401   6.101
10913TIP3   OH232679   4.397   2.771   6.545
10913TIP3    H132680   4.382   2.861   6.574
10913TIP3    H232681   4.488   2.770   6.515
10914TIP3   OH232682   3.384   0.242   2.990
10914TIP3    H132683   3.411   0.191   3.067
10914TIP3    H232684   3.426   0.327   3.001
10915TIP3   OH232685   7.345   4.793   1.073
10915TIP3    H132686   7.320   4.812   0.982
10915TIP3    H232687   7.265   4.807   1.123
10916TIP3   OH232688   4.173   2.103   4.415
10916TIP3    H132689   4.152   2.181   4.364
10916TIP3    H232690   4.218   2.136   4.493
10917TIP3   OH232691   6.452   2.804   0.776
10917TIP3    H132692   6.398   2.728   0.754
10917TIP3    H232693   6.526   2.799   0.716
10918TIP3   OH232694   6.104   6.324   5.341
10918TIP3    H132695   6.121   6.255   5.404
10918TIP3    H232696   6.043   6.285   5.278
10919TIP3   OH232697   6.802   7.725   0.808
10919TIP3    H132698   6.857   7.690   0.878
10919TIP3    H232699   6.841   7.810   0.788
10920TIP3   OH232700   1.778   4.412   6.720
10920TIP3    H132701   1.839   4.452   6.657
10920TIP3    H232702   1.750   4.331   6.677
10921TIP3   OH232703   4.552   5.726   1.377
10921TIP3    H132704   4.616   5.758   1.314
10921TIP3    H232705   4.467   5.751   1.341
10922TIP3   OH232706   0.460   3.482   4.735
10922TIP3    H132707   0.556   3.478   4.733
10922TIP3    H232708   0.439   3.569   4.703
10923TIP3   OH232709   8.357   7.202   5.766
10923TIP3    H132710   8.331   7.228   5.854
10923TIP3    H232711   8.277   7.210   5.714
10924TIP3   OH232712   6.780   5.837   6.767
10924TIP3    H132713   6.704   5.779   6.766
10924TIP3    H232714   6.745   5.922   6.795
10925TIP3   OH232715   2.708   7.054   1.370
10925TIP3    H132716   2.653   7.108   1.313
10925TIP3    H232717   2.758   7.118   1.421
10926TIP3   OH232718   5.369   7.528   4.556
10926TIP3    H132719   5.318   7.554   4.479
10926TIP3    H232720   5.339   7.440   4.576
10927TIP3   OH232721   3.631   4.531   2.650
10927TIP3    H132722   3.709   4.475   2.657
10927TIP3    H232723   3.643   4.597   2.718
10928TIP3   OH232724   4.725   2.382   5.159
10928TIP3    H132725   4.728   2.472   5.125
10928TIP3    H232726   4.810   2.369   5.200
10929TIP3   OH232727   1.255   0.489   6.675
10929TIP3    H132728   1.337   0.474   6.722
10929TIP3    H232729   1.254   0.584   6.658
10930TIP3   OH232730   8.269   2.829   5.144
10930TIP3    H132731   8.208   2.821   5.070
10930TIP3    H232732   8.232   2.771   5.211
10931TIP3   OH232733   7.071   5.980   3.119
10931TIP3    H132734   6.979   6.004   3.105
10931TIP3    H232735   7.076   5.958   3.212
10932TIP3   OH232736   0.814   4.844   1.591
10932TIP3    H132737   0.721   4.831   1.571
10932TIP3    H232738   0.813   4.893   1.673
10933TIP3   OH232739   5.288   4.760   0.155
10933TIP3    H132740   5.208   4.778   0.204
10933TIP3    H232741   5.286   4.665   0.140
10934TIP3   OH232742   2.393   4.391   4.879
10934TIP3    H132743   2.405   4.484   4.860
10934TIP3    H232744   2.395   4.386   4.974
10935TIP3   OH232745   3.783   4.409   5.031
10935TIP3    H132746   3.870   4.374   5.046
10935TIP3    H232747   3.738   4.398   5.115
10936TIP3   OH232748   1.466   3.904   6.048
10936TIP3    H132749   1.450   3.894   6.142
10936TIP3    H232750   1.525   3.832   6.025
10937TIP3   OH232751   6.360   5.273   4.162
10937TIP3    H132752   6.345   5.255   4.255
10937TIP3    H232753   6.285   5.326   4.135
10938TIP3   OH232754   6.287   4.471   2.154
10938TIP3    H132755   6.372   4.489   2.113
10938TIP3    H232756   6.225   4.475   2.081
10939TIP3   OH232757   7.012   6.154   1.555
10939TIP3    H132758   6.979   6.093   1.490
10939TIP3    H232759   7.079   6.204   1.508
10940TIP3   OH232760   3.450   4.605   0.151
10940TIP3    H132761   3.480   4.536   0.092
10940TIP3    H232762   3.519   4.610   0.217
10941TIP3   OH232763   1.373   2.124   1.338
10941TIP3    H132764   1.390   2.193   1.274
10941TIP3    H232765   1.376   2.169   1.423
10942TIP3   OH232766   1.696   1.966   0.639
10942TIP3    H132767   1.728   2.047   0.598
10942TIP3    H232768   1.602   1.968   0.625
10943TIP3   OH232769   4.961   6.360   6.836
10943TIP3    H132770   4.890   6.363   6.773
10943TIP3    H232771   5.038   6.392   6.788
10944TIP3   OH232772   0.613   7.214   2.800
10944TIP3    H132773   0.579   7.184   2.884
10944TIP3    H232774   0.534   7.237   2.750
10945TIP3   OH232775   6.410   0.535   3.014
10945TIP3    H132776   6.487   0.521   2.960
10945TIP3    H232777   6.351   0.587   2.958
10946TIP3   OH232778   5.489   0.698   5.375
10946TIP3    H132779   5.521   0.608   5.385
10946TIP3    H232780   5.439   0.715   5.455
10947TIP3   OH232781   3.095   0.732   5.183
10947TIP3    H132782   3.078   0.716   5.276
10947TIP3    H232783   3.173   0.786   5.181
10948TIP3   OH232784   1.377   6.828   2.878
10948TIP3    H132785   1.373   6.886   2.954
10948TIP3    H232786   1.411   6.745   2.912
10949TIP3   OH232787   7.971   0.292   3.541
10949TIP3    H132788   7.987   0.383   3.518
10949TIP3    H232789   7.935   0.295   3.629
10950TIP3   OH232790   7.465   6.330   3.217
10950TIP3    H132791   7.481   6.354   3.126
10950TIP3    H232792   7.505   6.243   3.226
10951TIP3   OH232793   4.767   5.347   3.560
10951TIP3    H132794   4.716   5.427   3.551
10951TIP3    H232795   4.838   5.371   3.620
10952TIP3   OH232796   7.419   6.896   2.630
10952TIP3    H132797   7.402   6.926   2.541
10952TIP3    H232798   7.341   6.920   2.679
10953TIP3   OH232799   1.536   4.413   1.201
10953TIP3    H132800   1.616   4.361   1.190
10953TIP3    H232801   1.563   4.503   1.182
10954TIP3   OH232802   4.593   3.192   4.092
10954TIP3    H132803   4.648   3.165   4.165
10954TIP3    H232804   4.509   3.215   4.132
10955TIP3   OH232805   6.563   2.396   2.966
10955TIP3    H132806   6.589   2.457   3.035
10955TIP3    H232807   6.502   2.447   2.912
10956TIP3   OH232808   1.943   4.521   2.105
10956TIP3    H132809   1.903   4.491   2.187
10956TIP3    H232810   1.958   4.614   2.118
10957TIP3   OH232811   7.939   7.143   2.602
10957TIP3    H132812   8.012   7.120   2.660
10957TIP3    H232813   7.934   7.071   2.540
10958TIP3   OH232814   1.962   2.975   0.439
10958TIP3    H132815   2.025   3.007   0.504
10958TIP3    H232816   1.966   3.040   0.369
10959TIP3   OH232817   7.799   4.037   3.429
10959TIP3    H132818   7.717   4.021   3.475
10959TIP3    H232819   7.864   3.984   3.476
10960TIP3   OH232820   8.224   1.832   1.004
10960TIP3    H132821   8.134   1.866   1.002
10960TIP3    H232822   8.272   1.894   1.058
10961TIP3   OH232823   6.643   6.395   6.733
10961TIP3    H132824   6.607   6.333   6.669
10961TIP3    H232825   6.566   6.424   6.783
10962TIP3   OH232826   8.376   6.896   2.958
10962TIP3    H132827   8.300   6.849   2.924
10962TIP3    H232828   8.414   6.940   2.882
10963TIP3   OH232829   7.890   5.298   4.387
10963TIP3    H132830   7.894   5.217   4.335
10963TIP3    H232831   7.981   5.315   4.412
10964TIP3   OH232832   4.855   3.516   3.432
10964TIP3    H132833   4.929   3.467   3.397
10964TIP3    H232834   4.800   3.450   3.474
10965TIP3   OH232835   0.077   2.147   2.965
10965TIP3    H132836   0.027   2.203   2.906
10965TIP3    H232837   0.055   2.180   3.053
10966TIP3   OH232838   2.445   4.260   3.096
10966TIP3    H132839   2.492   4.324   3.150
10966TIP3    H232840   2.462   4.176   3.137
10967TIP3   OH232841   0.610   6.485   3.359
10967TIP3    H132842   0.518   6.511   3.365
10967TIP3    H232843   0.657   6.549   3.413
10968TIP3   OH232844   4.643   5.319   6.044
10968TIP3    H132845   4.563   5.314   5.991
10968TIP3    H232846   4.642   5.408   6.079
10969TIP3   OH232847   7.296   4.432   1.435
10969TIP3    H132848   7.210   4.410   1.397
10969TIP3    H232849   7.279   4.511   1.487
10970TIP3   OH232850   6.722   7.678   6.412
10970TIP3    H132851   6.768   7.762   6.413
10970TIP3    H232852   6.662   7.682   6.486
10971TIP3   OH232853   7.756   6.344   3.399
10971TIP3    H132854   7.684   6.401   3.428
10971TIP3    H232855   7.713   6.265   3.367
10972TIP3   OH232856   6.480   5.085   6.269
10972TIP3    H132857   6.452   5.061   6.357
10972TIP3    H232858   6.456   5.009   6.215
10973TIP3   OH232859   6.328   6.128   1.465
10973TIP3    H132860   6.287   6.198   1.414
10973TIP3    H232861   6.267   6.113   1.537
10974TIP3   OH232862   0.020   0.225   4.901
10974TIP3    H132863   0.052   0.157   4.841
10974TIP3    H232864   0.098   0.254   4.948
10975TIP3   OH232865   6.291   7.466   5.120
10975TIP3    H132866   6.276   7.542   5.175
10975TIP3    H232867   6.382   7.441   5.137
10976TIP3   OH232868   3.088   5.203   0.758
10976TIP3    H132869   3.030   5.259   0.810
10976TIP3    H232870   3.040   5.186   0.677
10977TIP3   OH232871   4.083   1.492   2.975
10977TIP3    H132872   4.143   1.503   3.049
10977TIP3    H232873   4.118   1.418   2.926
10978TIP3   OH232874   5.509   3.050   2.744
10978TIP3    H132875   5.457   2.978   2.778
10978TIP3    H232876   5.586   3.053   2.801
10979TIP3   OH232877   0.840   7.225   4.360
10979TIP3    H132878   0.770   7.271   4.405
10979TIP3    H232879   0.828   7.133   4.384
10980TIP3   OH232880   5.969   2.558   1.936
10980TIP3    H132881   5.910   2.484   1.921
10980TIP3    H232882   5.941   2.625   1.874
10981TIP3   OH232883   1.631   6.816   2.514
10981TIP3    H132884   1.716   6.790   2.480
10981TIP3    H232885   1.567   6.772   2.457
10982TIP3   OH232886   5.990   4.833   3.884
10982TIP3    H132887   6.015   4.848   3.975
10982TIP3    H232888   6.066   4.790   3.844
10983TIP3   OH232889   8.332   1.985   6.304
10983TIP3    H132890   8.404   1.973   6.242
10983TIP3    H232891   8.281   1.905   6.298
10984TIP3   OH232892   4.529   6.069   0.692
10984TIP3    H132893   4.461   6.110   0.638
10984TIP3    H232894   4.611   6.090   0.648
10985TIP3   OH232895   7.960   7.630   5.947
10985TIP3    H132896   7.964   7.716   5.903
10985TIP3    H232897   7.939   7.650   6.038
10986TIP3   OH232898   0.769   7.217   4.043
10986TIP3    H132899   0.782   7.176   4.129
10986TIP3    H232900   0.760   7.143   3.983
10987TIP3   OH232901   3.661   3.877   0.736
10987TIP3    H132902   3.663   3.795   0.785
10987TIP3    H232903   3.738   3.872   0.679
10988TIP3   OH232904   1.614   5.826   4.775
10988TIP3    H132905   1.619   5.919   4.798
10988TIP3    H232906   1.698   5.808   4.733
10989TIP3   OH232907   5.196   6.019   0.591
10989TIP3    H132908   5.256   6.063   0.651
10989TIP3    H232909   5.120   6.077   0.586
10990TIP3   OH232910   8.376   3.555   6.749
10990TIP3    H132911   8.378   3.510   6.664
10990TIP3    H232912   8.284   3.555   6.775
10991TIP3   OH232913   4.070   1.066   1.560
10991TIP3    H132914   4.137   0.998   1.563
10991TIP3    H232915   4.099   1.132   1.624
10992TIP3   OH232916   6.643   2.284   6.292
10992TIP3    H132917   6.615   2.319   6.208
10992TIP3    H232918   6.563   2.278   6.344
10993TIP3   OH232919   5.827   7.835   4.494
10993TIP3    H132920   5.776   7.763   4.532
10993TIP3    H232921   5.815   7.908   4.555
10994TIP3   OH232922   1.714   2.845   0.489
10994TIP3    H132923   1.687   2.893   0.567
10994TIP3    H232924   1.792   2.890   0.458
10995TIP3   OH232925   1.231   5.860   3.034
10995TIP3    H132926   1.295   5.875   2.964
10995TIP3    H232927   1.268   5.789   3.085
10996TIP3   OH232928   1.008   4.196   3.750
10996TIP3    H132929   1.012   4.259   3.823
10996TIP3    H232930   0.925   4.151   3.762
10997TIP3   OH232931   7.981   1.658   4.875
10997TIP3    H132932   7.921   1.608   4.820
10997TIP3    H232933   8.057   1.673   4.819
10998TIP3   OH232934   5.754   6.852   1.989
10998TIP3    H132935   5.830   6.828   2.043
10998TIP3    H232936   5.678   6.822   2.039
10999TIP3   OH232937   4.831   6.889   2.890
10999TIP3    H132938   4.833   6.913   2.983
10999TIP3    H232939   4.744   6.850   2.877
11000TIP3   OH232940   3.421   4.199   2.498
11000TIP3    H132941   3.513   4.179   2.480
11000TIP3    H232942   3.373   4.131   2.451
11001TIP3   OH232943   0.754   3.490   5.278
11001TIP3    H132944   0.756   3.442   5.195
11001TIP3    H232945   0.757   3.582   5.252
11002TIP3   OH232946   4.270   0.035   0.953
11002TIP3    H132947   4.334   0.093   0.996
11002TIP3    H232948   4.321  -0.042   0.928
11003TIP3   OH232949   4.187   6.445   1.627
11003TIP3    H132950   4.278   6.446   1.595
11003TIP3    H232951   4.195   6.454   1.722
11004TIP3   OH232952   4.873   4.309   5.060
11004TIP3    H132953   4.789   4.264   5.071
11004TIP3    H232954   4.852   4.385   5.005
11005TIP3   OH232955   8.245   3.365   3.137
11005TIP3    H132956   8.293   3.314   3.201
11005TIP3    H232957   8.312   3.401   3.079
11006TIP3   OH232958   2.703   3.795   4.603
11006TIP3    H132959   2.777   3.833   4.650
11006TIP3    H232960   2.633   3.859   4.613
11007TIP3   OH232961   3.793   4.204   1.721
11007TIP3    H132962   3.774   4.298   1.722
11007TIP3    H232963   3.713   4.164   1.687
11008TIP3   OH232964   0.579   3.347   2.651
11008TIP3    H132965   0.494   3.310   2.626
11008TIP3    H232966   0.564   3.441   2.655
11009TIP3   OH232967   1.123   7.793   0.068
11009TIP3    H132968   1.042   7.747   0.090
11009TIP3    H232969   1.191   7.726   0.072
11010TIP3   OH232970   0.052   5.725   5.721
11010TIP3    H132971   0.144   5.701   5.717
11010TIP3    H232972   0.028   5.743   5.630
11011TIP3   OH232973   5.993   7.689   1.015
11011TIP3    H132974   5.957   7.753   0.953
11011TIP3    H232975   6.002   7.609   0.964
11012TIP3   OH232976   0.996   3.015   4.165
11012TIP3    H132977   0.984   3.110   4.169
11012TIP3    H232978   1.044   2.993   4.245
11013TIP3   OH232979   2.972   7.162   4.661
11013TIP3    H132980   3.042   7.115   4.617
11013TIP3    H232981   3.018   7.226   4.717
11014TIP3   OH232982   2.429   4.446   2.360
11014TIP3    H132983   2.523   4.439   2.375
11014TIP3    H232984   2.417   4.414   2.270
11015TIP3   OH232985   5.769   0.281   6.114
11015TIP3    H132986   5.747   0.197   6.154
11015TIP3    H232987   5.690   0.304   6.064
11016TIP3   OH232988   3.828   0.872   0.109
11016TIP3    H132989   3.775   0.950   0.119
11016TIP3    H232990   3.902   0.885   0.169
11017TIP3   OH232991   1.663   0.808   0.574
11017TIP3    H132992   1.673   0.768   0.487
11017TIP3    H232993   1.629   0.895   0.557
11018TIP3   OH232994   5.344   3.931   4.739
11018TIP3    H132995   5.421   3.948   4.792
11018TIP3    H232996   5.296   4.014   4.739
11019TIP3   OH232997   7.411   6.026   1.478
11019TIP3    H132998   7.319   6.001   1.491
11019TIP3    H232999   7.430   6.085   1.550
11020TIP3   OH233000   8.392   4.985   6.483
11020TIP3    H133001   8.311   4.937   6.464
11020TIP3    H233002   8.452   4.960   6.414
11021TIP3   OH233003   2.497   5.014   0.865
11021TIP3    H133004   2.429   5.032   0.931
11021TIP3    H233005   2.452   4.961   0.799
11022TIP3   OH233006   4.727   7.757   1.428
11022TIP3    H133007   4.760   7.673   1.460
11022TIP3    H233008   4.732   7.816   1.504
11023TIP3   OH233009   3.393   6.840   0.621
11023TIP3    H133010   3.319   6.897   0.642
11023TIP3    H233011   3.437   6.883   0.548
11024TIP3   OH233012   6.268   7.581   4.011
11024TIP3    H133013   6.233   7.498   3.978
11024TIP3    H233014   6.311   7.559   4.093
11025TIP3   OH233015   5.080   2.333   1.471
11025TIP3    H133016   5.046   2.399   1.532
11025TIP3    H233017   5.107   2.382   1.394
11026TIP3   OH233018   1.658   3.119   4.305
11026TIP3    H133019   1.731   3.085   4.356
11026TIP3    H233020   1.684   3.208   4.281
11027TIP3   OH233021   1.804   4.954   1.780
11027TIP3    H133022   1.718   4.949   1.821
11027TIP3    H233023   1.865   4.925   1.848
11028TIP3   OH233024   2.751   6.033   3.893
11028TIP3    H133025   2.691   5.959   3.889
11028TIP3    H233026   2.832   5.997   3.928
11029TIP3   OH233027   2.247   4.085   4.893
11029TIP3    H133028   2.338   4.063   4.874
11029TIP3    H233029   2.199   4.004   4.878
11030TIP3   OH233030   4.851   6.336   5.871
11030TIP3    H133031   4.837   6.351   5.777
11030TIP3    H233032   4.945   6.349   5.884
11031TIP3   OH233033   6.204   2.352   2.325
11031TIP3    H133034   6.287   2.308   2.309
11031TIP3    H233035   6.220   2.404   2.404
11032TIP3   OH233036   0.841   3.360   0.511
11032TIP3    H133037   0.837   3.312   0.427
11032TIP3    H233038   0.922   3.410   0.506
11033TIP3   OH233039   7.183   0.651   5.588
11033TIP3    H133040   7.198   0.567   5.545
11033TIP3    H233041   7.114   0.692   5.537
11034TIP3   OH233042   3.044   0.509   0.914
11034TIP3    H133043   2.992   0.543   0.987
11034TIP3    H233044   3.009   0.555   0.837
11035TIP3   OH233045   3.202   0.816   4.884
11035TIP3    H133046   3.247   0.900   4.894
11035TIP3    H233047   3.266   0.751   4.915
11036TIP3   OH233048   4.759   0.158   0.516
11036TIP3    H133049   4.715   0.240   0.538
11036TIP3    H233050   4.740   0.144   0.424
11037TIP3   OH233051   4.009   4.477   4.526
11037TIP3    H133052   3.917   4.490   4.503
11037TIP3    H233053   4.013   4.496   4.620
11038TIP3   OH233054   2.672   6.791   6.336
11038TIP3    H133055   2.625   6.838   6.404
11038TIP3    H233056   2.708   6.714   6.380
11039TIP3   OH233057   3.484   7.351   2.645
11039TIP3    H133058   3.562   7.397   2.614
11039TIP3    H233059   3.488   7.357   2.740
11040TIP3   OH233060   1.191   3.069   4.479
11040TIP3    H133061   1.171   3.041   4.568
11040TIP3    H233062   1.235   2.994   4.440
11041TIP3   OH233063   0.690   2.995   6.266
11041TIP3    H133064   0.690   2.948   6.182
11041TIP3    H233065   0.608   2.970   6.307
11042TIP3   OH233066   1.358   2.697   1.958
11042TIP3    H133067   1.438   2.746   1.978
11042TIP3    H233068   1.384   2.637   1.888
11043TIP3   OH233069   7.291   4.213   2.941
11043TIP3    H133070   7.321   4.134   2.897
11043TIP3    H233071   7.360   4.233   3.005
11044TIP3   OH233072   2.448   5.152   2.230
11044TIP3    H133073   2.467   5.240   2.198
11044TIP3    H233074   2.390   5.114   2.164
11045TIP3   OH233075   7.957   1.960   2.965
11045TIP3    H133076   8.049   1.985   2.975
11045TIP3    H233077   7.960   1.864   2.958
11046TIP3   OH233078   5.320   1.425   0.124
11046TIP3    H133079   5.350   1.462   0.207
11046TIP3    H233080   5.370   1.471   0.057
11047TIP3   OH233081   4.599   5.827   6.712
11047TIP3    H133082   4.676   5.801   6.761
11047TIP3    H233083   4.525   5.795   6.764
11048TIP3   OH233084   3.367   0.436   4.108
11048TIP3    H133085   3.445   0.381   4.110
11048TIP3    H233086   3.397   0.522   4.136
11049TIP3   OH233087   1.242   2.831   5.885
11049TIP3    H133088   1.213   2.911   5.842
11049TIP3    H233089   1.255   2.856   5.977
11050TIP3   OH233090   6.265   1.325   0.719
11050TIP3    H133091   6.193   1.376   0.756
11050TIP3    H233092   6.331   1.391   0.695
11051TIP3   OH233093   6.097   2.304   0.756
11051TIP3    H133094   6.042   2.365   0.707
11051TIP3    H233095   6.162   2.360   0.799
11052TIP3   OH233096   4.929   0.468   4.808
11052TIP3    H133097   4.863   0.536   4.811
11052TIP3    H233098   4.924   0.426   4.894
11053TIP3   OH233099   0.349   5.466   1.235
11053TIP3    H133100   0.301   5.401   1.287
11053TIP3    H233101   0.313   5.458   1.147
11054TIP3   OH233102   7.530   7.571   2.193
11054TIP3    H133103   7.537   7.643   2.130
11054TIP3    H233104   7.456   7.596   2.249
11055TIP3   OH233105   0.130   3.998   2.217
11055TIP3    H133106   0.129   4.080   2.167
11055TIP3    H233107   0.084   3.936   2.161
11056TIP3   OH233108   3.444   2.231   0.390
11056TIP3    H133109   3.348   2.234   0.392
11056TIP3    H233110   3.472   2.299   0.452
11057TIP3   OH233111   7.152   0.693   1.501
11057TIP3    H133112   7.180   0.602   1.490
11057TIP3    H233113   7.230   0.745   1.482
11058TIP3   OH233114   6.686   7.378   3.017
11058TIP3    H133115   6.767   7.410   3.056
11058TIP3    H233116   6.638   7.337   3.089
11059TIP3   OH233117   1.212   1.870   6.690
11059TIP3    H133118   1.281   1.817   6.729
11059TIP3    H233119   1.240   1.884   6.600
11060TIP3   OH233120   3.676   7.676   2.383
11060TIP3    H133121   3.727   7.751   2.352
11060TIP3    H233122   3.592   7.714   2.411
11061TIP3   OH233123   2.649   3.625   4.074
11061TIP3    H133124   2.664   3.556   4.139
11061TIP3    H233125   2.617   3.699   4.124
11062TIP3   OH233126   4.824   2.702   3.167
11062TIP3    H133127   4.777   2.728   3.088
11062TIP3    H233128   4.777   2.624   3.198
11063TIP3   OH233129   7.129   7.975   1.715
11063TIP3    H133130   7.159   7.935   1.797
11063TIP3    H233131   7.044   7.933   1.698
11064TIP3   OH233132   0.110   5.189   1.839
11064TIP3    H133133   0.079   5.246   1.909
11064TIP3    H233134   0.032   5.166   1.789
11065TIP3   OH233135   3.853   7.707   6.305
11065TIP3    H133136   3.793   7.778   6.283
11065TIP3    H233137   3.925   7.716   6.243
11066TIP3   OH233138   3.763   2.381   3.289
11066TIP3    H133139   3.740   2.404   3.380
11066TIP3    H233140   3.847   2.336   3.297
11067TIP3   OH233141   6.103   4.492   0.966
11067TIP3    H133142   6.017   4.529   0.986
11067TIP3    H233143   6.165   4.558   0.996
11068TIP3   OH233144   4.295   0.589   4.880
11068TIP3    H133145   4.271   0.649   4.951
11068TIP3    H233146   4.213   0.575   4.833
11069TIP3   OH233147   4.006   7.522   2.375
11069TIP3    H133148   3.931   7.564   2.333
11069TIP3    H233149   3.973   7.492   2.459
11070TIP3   OH233150   7.239   5.088   2.402
11070TIP3    H133151   7.178   5.162   2.405
11070TIP3    H233152   7.283   5.090   2.487
11071TIP3   OH233153   4.086   7.802   3.860
11071TIP3    H133154   4.181   7.804   3.846
11071TIP3    H233155   4.065   7.710   3.872
11072TIP3   OH233156   3.300   7.208   5.511
11072TIP3    H133157   3.303   7.150   5.587
11072TIP3    H233158   3.245   7.281   5.539
11073TIP3   OH233159   3.101   7.484   0.850
11073TIP3    H133160   3.096   7.494   0.945
11073TIP3    H233161   3.037   7.415   0.831
11074TIP3   OH233162   4.501   0.221   6.637
11074TIP3    H133163   4.517   0.126   6.643
11074TIP3    H233164   4.521   0.242   6.546
11075TIP3   OH233165   7.529   0.788   4.424
11075TIP3    H133166   7.445   0.763   4.463
11075TIP3    H233167   7.561   0.708   4.382
11076TIP3   OH233168   7.673   5.810   2.012
11076TIP3    H133169   7.590   5.763   2.014
11076TIP3    H233170   7.739   5.742   1.998
11077TIP3   OH233171   1.303   3.061   4.824
11077TIP3    H133172   1.287   3.050   4.917
11077TIP3    H233173   1.307   2.972   4.789
11078TIP3   OH233174   3.239   4.664   3.853
11078TIP3    H133175   3.228   4.746   3.900
11078TIP3    H233176   3.333   4.653   3.845
11079TIP3   OH233177   2.684   7.218   4.563
11079TIP3    H133178   2.774   7.215   4.598
11079TIP3    H233179   2.690   7.173   4.479
11080TIP3   OH233180   8.216   5.573   4.414
11080TIP3    H133181   8.152   5.502   4.420
11080TIP3    H233182   8.225   5.606   4.503
11081TIP3   OH233183   4.233   1.213   6.572
11081TIP3    H133184   4.258   1.160   6.496
11081TIP3    H233185   4.168   1.274   6.538
11082TIP3   OH233186   3.795   4.843   4.311
11082TIP3    H133187   3.725   4.785   4.282
11082TIP3    H233188   3.795   4.914   4.246
11083TIP3   OH233189   0.489   7.744   1.157
11083TIP3    H133190   0.485   7.826   1.206
11083TIP3    H233191   0.426   7.755   1.086
11084TIP3   OH233192   5.640   1.616   4.370
11084TIP3    H133193   5.548   1.624   4.343
11084TIP3    H233194   5.675   1.704   4.358
11085TIP3   OH233195   3.404   6.487   0.374
11085TIP3    H133196   3.337   6.485   0.306
11085TIP3    H233197   3.465   6.417   0.349
11086TIP3   OH233198   6.725   0.399   6.743
11086TIP3    H133199   6.804   0.452   6.733
11086TIP3    H233200   6.677   0.439   6.815
11087TIP3   OH233201   5.295   6.335   4.926
11087TIP3    H133202   5.385   6.303   4.933
11087TIP3    H233203   5.262   6.297   4.845
11088TIP3   OH233204   4.258   3.477   0.421
11088TIP3    H133205   4.281   3.544   0.486
11088TIP3    H233206   4.269   3.521   0.337
11089TIP3   OH233207   2.830   6.654   2.443
11089TIP3    H133208   2.913   6.674   2.399
11089TIP3    H233209   2.767   6.644   2.372
11090TIP3   OH233210   2.178   2.486   0.802
11090TIP3    H133211   2.166   2.431   0.725
11090TIP3    H233212   2.099   2.540   0.806
11091TIP3   OH233213   7.100   7.439   2.802
11091TIP3    H133214   7.087   7.430   2.896
11091TIP3    H233215   7.038   7.508   2.776
11092TIP3   OH233216   1.014   0.237   4.967
11092TIP3    H133217   0.971   0.322   4.957
11092TIP3    H233218   1.045   0.216   4.879
11093TIP3   OH233219   2.461   0.548   5.197
11093TIP3    H133220   2.536   0.497   5.228
11093TIP3    H233221   2.453   0.620   5.260
11094TIP3   OH233222   2.076   6.801   4.287
11094TIP3    H133223   2.025   6.872   4.325
11094TIP3    H233224   2.162   6.808   4.328
11095TIP3   OH233225   5.523   2.494   1.370
11095TIP3    H133226   5.442   2.541   1.351
11095TIP3    H233227   5.495   2.411   1.408
11096TIP3   OH233228   6.906   3.230   3.840
11096TIP3    H133229   6.869   3.318   3.848
11096TIP3    H233230   6.861   3.179   3.908
11097TIP3   OH233231   1.482   0.958   4.265
11097TIP3    H133232   1.424   0.940   4.339
11097TIP3    H233233   1.551   1.013   4.301
11098TIP3   OH233234   2.214   4.963   3.071
11098TIP3    H133235   2.252   4.946   2.985
11098TIP3    H233236   2.141   5.023   3.054
11099TIP3   OH233237   4.805   2.655   1.442
11099TIP3    H133238   4.876   2.614   1.491
11099TIP3    H233239   4.784   2.593   1.373
11100TIP3   OH233240   3.034   2.580   0.395
11100TIP3    H133241   3.013   2.674   0.403
11100TIP3    H233242   3.129   2.578   0.383
11101TIP3   OH233243   2.093   2.269   2.853
11101TIP3    H133244   2.090   2.190   2.800
11101TIP3    H233245   2.184   2.298   2.847
11102TIP3   OH233246   8.100   0.718   0.810
11102TIP3    H133247   8.183   0.765   0.815
11102TIP3    H233248   8.120   0.630   0.843
11103TIP3   OH233249   0.648   5.125   2.663
11103TIP3    H133250   0.702   5.046   2.675
11103TIP3    H233251   0.606   5.139   2.747
11104TIP3   OH233252   2.298   3.894   1.786
11104TIP3    H133253   2.363   3.965   1.780
11104TIP3    H233254   2.255   3.909   1.870
11105TIP3   OH233255   1.266   1.566   5.556
11105TIP3    H133256   1.212   1.543   5.480
11105TIP3    H233257   1.251   1.495   5.619
11106TIP3   OH233258   0.412   2.633   2.883
11106TIP3    H133259   0.450   2.609   2.798
11106TIP3    H233260   0.355   2.707   2.863
11107TIP3   OH233261   4.836   3.433   1.405
11107TIP3    H133262   4.828   3.374   1.479
11107TIP3    H233263   4.818   3.379   1.328
11108TIP3   OH233264   5.967   6.435   0.156
11108TIP3    H133265   5.933   6.524   0.163
11108TIP3    H233266   6.020   6.436   0.076
11109TIP3   OH233267   5.625   4.799   5.399
11109TIP3    H133268   5.667   4.833   5.479
11109TIP3    H233269   5.532   4.815   5.413
11110TIP3   OH233270   6.504   2.222   4.290
11110TIP3    H133271   6.491   2.147   4.232
11110TIP3    H233272   6.419   2.236   4.332
11111TIP3   OH233273   1.813   0.400   0.059
11111TIP3    H133274   1.767   0.336   0.005
11111TIP3    H233275   1.892   0.421   0.010
11112TIP3   OH233276   4.938   5.313   2.544
11112TIP3    H133277   4.961   5.368   2.469
11112TIP3    H233278   4.974   5.360   2.619
11113TIP3   OH233279   0.514   4.836   0.365
11113TIP3    H133280   0.459   4.777   0.418
11113TIP3    H233281   0.571   4.777   0.315
11114TIP3   OH233282   2.447   6.869   3.698
11114TIP3    H133283   2.525   6.924   3.711
11114TIP3    H233284   2.480   6.779   3.706
11115TIP3   OH233285   5.587   6.182   6.513
11115TIP3    H133286   5.622   6.242   6.578
11115TIP3    H233287   5.664   6.140   6.474
11116TIP3   OH233288   6.601   7.894   2.225
11116TIP3    H133289   6.618   7.931   2.312
11116TIP3    H233290   6.558   7.810   2.244
11117TIP3   OH233291   4.035   4.258   5.020
11117TIP3    H133292   4.095   4.197   5.063
11117TIP3    H233293   4.085   4.339   5.011
11118TIP3   OH233294   1.582   5.479   2.908
11118TIP3    H133295   1.510   5.465   2.971
11118TIP3    H233296   1.641   5.540   2.952
11119TIP3   OH233297   6.254   7.763   5.059
11119TIP3    H133298   6.308   7.842   5.052
11119TIP3    H233299   6.275   7.727   5.145
11120TIP3   OH233300   1.931   4.196   4.506
11120TIP3    H133301   1.900   4.106   4.519
11120TIP3    H233302   1.973   4.219   4.589
11121TIP3   OH233303   3.097   6.742   1.677
11121TIP3    H133304   3.134   6.827   1.699
11121TIP3    H233305   3.098   6.739   1.581
11122TIP3   OH233306   0.463   0.352   3.229
11122TIP3    H133307   0.455   0.370   3.322
11122TIP3    H233308   0.533   0.410   3.199
11123TIP3   OH233309   6.180   1.793   2.806
11123TIP3    H133310   6.171   1.774   2.899
11123TIP3    H233311   6.273   1.785   2.788
11124TIP3   OH233312   4.430   7.234   1.913
11124TIP3    H133313   4.486   7.190   1.977
11124TIP3    H233314   4.452   7.326   1.922
11125TIP3   OH233315   8.017   7.390   6.787
11125TIP3    H133316   7.982   7.468   6.830
11125TIP3    H233317   8.068   7.345   6.855
11126TIP3   OH233318   0.743   3.937   3.440
11126TIP3    H133319   0.828   3.894   3.446
11126TIP3    H233320   0.693   3.902   3.514
11127TIP3   OH233321   4.510   1.697   5.189
11127TIP3    H133322   4.446   1.762   5.218
11127TIP3    H233323   4.516   1.710   5.095
11128TIP3   OH233324   5.615   1.871   2.250
11128TIP3    H133325   5.625   1.936   2.181
11128TIP3    H233326   5.590   1.921   2.328
11129TIP3   OH233327   3.674   2.320   6.056
11129TIP3    H133328   3.662   2.415   6.062
11129TIP3    H233329   3.753   2.309   6.002
11130TIP3   OH233330   3.437   0.210   1.604
11130TIP3    H133331   3.407   0.291   1.645
11130TIP3    H233332   3.377   0.143   1.636
11131TIP3   OH233333   0.456   7.089   6.781
11131TIP3    H133334   0.419   7.067   6.696
11131TIP3    H233335   0.517   7.161   6.762
11132TIP3   OH233336   6.760   3.141   2.381
11132TIP3    H133337   6.788   3.184   2.300
11132TIP3    H233338   6.841   3.123   2.429
11133TIP3   OH233339   8.196   5.794   2.156
11133TIP3    H133340   8.119   5.837   2.118
11133TIP3    H233341   8.221   5.850   2.230
11134TIP3   OH233342   2.544   0.582   1.918
11134TIP3    H133343   2.579   0.494   1.904
11134TIP3    H233344   2.606   0.622   1.980
11135TIP3   OH233345   4.848   0.683   2.534
11135TIP3    H133346   4.843   0.744   2.460
11135TIP3    H233347   4.913   0.722   2.592
11136TIP3   OH233348   8.322   1.612   6.759
11136TIP3    H133349   8.350   1.525   6.733
11136TIP3    H233350   8.403   1.661   6.771
11137TIP3   OH233351   0.247   1.133   2.930
11137TIP3    H133352   0.268   1.040   2.937
11137TIP3    H233353   0.153   1.137   2.951
11138TIP3   OH233354   6.475   6.920   3.527
11138TIP3    H133355   6.476   6.956   3.616
11138TIP3    H233356   6.550   6.860   3.524
11139TIP3   OH233357   4.415   5.343   5.895
11139TIP3    H133358   4.439   5.361   5.804
11139TIP3    H233359   4.381   5.425   5.928
11140TIP3   OH233360   4.228   0.500   1.877
11140TIP3    H133361   4.138   0.495   1.844
11140TIP3    H233362   4.276   0.549   1.810
11141TIP3   OH233363   3.933   6.706   3.374
11141TIP3    H133364   3.880   6.648   3.318
11141TIP3    H233365   3.935   6.661   3.459
11142TIP3   OH233366   0.850   6.616   1.081
11142TIP3    H133367   0.766   6.609   1.127
11142TIP3    H233368   0.914   6.582   1.143
11143TIP3   OH233369   5.085   5.572   1.527
11143TIP3    H133370   4.997   5.610   1.520
11143TIP3    H233371   5.070   5.477   1.535
11144TIP3   OH233372   7.299   3.874   6.738
11144TIP3    H133373   7.283   3.781   6.755
11144TIP3    H233374   7.296   3.915   6.824
11145TIP3   OH233375   6.624   5.046   4.395
11145TIP3    H133376   6.658   4.958   4.412
11145TIP3    H233377   6.694   5.090   4.347
11146TIP3   OH233378   8.170   5.402   2.798
11146TIP3    H133379   8.170   5.426   2.705
11146TIP3    H233380   8.107   5.331   2.804
11147TIP3   OH233381   3.043   1.677   0.718
11147TIP3    H133382   3.093   1.681   0.800
11147TIP3    H233383   3.005   1.765   0.710
11148TIP3   OH233384   0.773   5.035   4.403
11148TIP3    H133385   0.809   5.050   4.316
11148TIP3    H233386   0.680   5.056   4.395
11149TIP3   OH233387   1.468   4.972   6.304
11149TIP3    H133388   1.499   4.909   6.368
11149TIP3    H233389   1.545   4.994   6.252
11150TIP3   OH233390   4.665   2.756   1.897
11150TIP3    H133391   4.696   2.743   1.987
11150TIP3    H233392   4.600   2.826   1.904
11151TIP3   OH233393   7.608   1.347   6.479
11151TIP3    H133394   7.688   1.391   6.507
11151TIP3    H233395   7.546   1.417   6.463
11152TIP3   OH233396   1.772   3.624   6.149
11152TIP3    H133397   1.789   3.589   6.061
11152TIP3    H233398   1.857   3.658   6.178
11153TIP3   OH233399   4.315   2.308   1.976
11153TIP3    H133400   4.311   2.223   1.931
11153TIP3    H233401   4.385   2.356   1.932
11154TIP3   OH233402   0.366   4.754   1.851
11154TIP3    H133403   0.303   4.814   1.892
11154TIP3    H233404   0.448   4.773   1.896
11155TIP3   OH233405   3.361   3.726   1.608
11155TIP3    H133406   3.309   3.657   1.567
11155TIP3    H233407   3.424   3.678   1.662
11156TIP3   OH233408   2.204   4.883   6.824
11156TIP3    H133409   2.202   4.854   6.916
11156TIP3    H233410   2.292   4.861   6.794
11157TIP3   OH233411   5.954   3.440   6.143
11157TIP3    H133412   5.912   3.405   6.065
11157TIP3    H233413   6.008   3.512   6.111
11158TIP3   OH233414   6.521   3.558   5.087
11158TIP3    H133415   6.539   3.584   4.996
11158TIP3    H233416   6.439   3.602   5.109
11159TIP3   OH233417   2.750   0.193   5.601
11159TIP3    H133418   2.827   0.193   5.544
11159TIP3    H233419   2.679   0.159   5.547
11160TIP3   OH233420   5.979   5.437   3.582
11160TIP3    H133421   5.941   5.353   3.607
11160TIP3    H233422   6.056   5.414   3.529
11161TIP3   OH233423   7.428   0.978   4.667
11161TIP3    H133424   7.384   1.002   4.749
11161TIP3    H233425   7.389   0.894   4.643
11162TIP3   OH233426   3.208   5.604   1.866
11162TIP3    H133427   3.167   5.634   1.784
11162TIP3    H233428   3.301   5.615   1.850
11163TIP3   OH233429   6.912   0.221   5.608
11163TIP3    H133430   7.000   0.188   5.620
11163TIP3    H233431   6.858   0.172   5.670
11164TIP3   OH233432   2.250   5.577   4.821
11164TIP3    H133433   2.328   5.543   4.777
11164TIP3    H233434   2.176   5.536   4.775
11165TIP3   OH233435   3.320   5.927   1.222
11165TIP3    H133436   3.391   5.987   1.244
11165TIP3    H233437   3.360   5.865   1.160
11166TIP3   OH233438   2.609   4.509   1.296
11166TIP3    H133439   2.615   4.466   1.381
11166TIP3    H233440   2.599   4.437   1.234
11167TIP3   OH233441   3.385   5.248   5.098
11167TIP3    H133442   3.351   5.280   5.014
11167TIP3    H233443   3.431   5.167   5.075
11168TIP3   OH233444   4.127   6.215   4.404
11168TIP3    H133445   4.184   6.280   4.445
11168TIP3    H233446   4.158   6.131   4.438
11169TIP3   OH233447   3.771   3.618   0.569
11169TIP3    H133448   3.830   3.552   0.606
11169TIP3    H233449   3.826   3.695   0.555
11170TIP3   OH233450   0.062   6.653   3.423
11170TIP3    H133451   0.136   6.602   3.392
11170TIP3    H233452   0.014   6.678   3.344
11171TIP3   OH233453   4.292   7.769   6.426
11171TIP3    H133454   4.331   7.822   6.495
11171TIP3    H233455   4.330   7.682   6.437
11172TIP3   OH233456   5.413   7.286   6.615
11172TIP3    H133457   5.465   7.355   6.574
11172TIP3    H233458   5.435   7.292   6.708
11173TIP3   OH233459   6.020   1.990   6.864
11173TIP3    H133460   6.056   1.906   6.834
11173TIP3    H233461   6.015   1.981   6.959
11174TIP3   OH233462   7.138   5.608   3.651
11174TIP3    H133463   7.115   5.687   3.602
11174TIP3    H233464   7.188   5.640   3.726
11175TIP3   OH233465   5.005   6.287   5.330
11175TIP3    H133466   5.035   6.323   5.246
11175TIP3    H233467   5.085   6.269   5.379
11176TIP3   OH233468   4.033   5.337   0.440
11176TIP3    H133469   4.029   5.275   0.512
11176TIP3    H233470   3.974   5.301   0.373
11177TIP3   OH233471   5.214   2.593   5.459
11177TIP3    H133472   5.188   2.668   5.512
11177TIP3    H233473   5.206   2.518   5.518
11178TIP3   OH233474   5.944   3.191   0.178
11178TIP3    H133475   5.959   3.179   0.085
11178TIP3    H233476   5.952   3.104   0.216
11179TIP3   OH233477   3.034   5.591   1.551
11179TIP3    H133478   3.076   5.657   1.495
11179TIP3    H233479   2.995   5.642   1.622
11180TIP3   OH233480   0.288   4.004   3.241
11180TIP3    H133481   0.261   4.057   3.315
11180TIP3    H233482   0.354   3.944   3.277
11181TIP3   OH233483   0.302   6.933   1.341
11181TIP3    H133484   0.396   6.950   1.347
11181TIP3    H233485   0.296   6.847   1.298
11182TIP3   OH233486   0.288   4.729   1.583
11182TIP3    H133487   0.258   4.638   1.573
11182TIP3    H233488   0.319   4.734   1.673
11183TIP3   OH233489   0.897   0.595   4.929
11183TIP3    H133490   0.837   0.667   4.908
11183TIP3    H233491   0.965   0.636   4.983
11184TIP3   OH233492   8.039   2.454   3.748
11184TIP3    H133493   7.969   2.395   3.721
11184TIP3    H233494   8.082   2.408   3.821
11185TIP3   OH233495   6.356   4.034   6.732
11185TIP3    H133496   6.421   4.020   6.663
11185TIP3    H233497   6.282   4.073   6.686
11186TIP3   OH233498   3.682   6.355   4.972
11186TIP3    H133499   3.621   6.334   4.901
11186TIP3    H233500   3.761   6.307   4.951
11187TIP3   OH233501   1.656   0.798   1.715
11187TIP3    H133502   1.694   0.734   1.775
11187TIP3    H233503   1.715   0.873   1.721
11188TIP3   OH233504   0.670   5.458   3.342
11188TIP3    H133505   0.740   5.499   3.393
11188TIP3    H233506   0.594   5.515   3.357
11189TIP3   OH233507   6.392   6.474   4.223
11189TIP3    H133508   6.328   6.521   4.169
11189TIP3    H233509   6.468   6.464   4.165
11190TIP3   OH233510   7.021   2.759   2.284
11190TIP3    H133511   7.015   2.855   2.277
11190TIP3    H233512   6.955   2.726   2.223
11191TIP3   OH233513   1.858   0.546   6.612
11191TIP3    H133514   1.929   0.608   6.626
11191TIP3    H233515   1.823   0.529   6.700
11192TIP3   OH233516   5.381   6.593   1.122
11192TIP3    H133517   5.453   6.626   1.175
11192TIP3    H233518   5.408   6.607   1.032
11193TIP3   OH233519   5.768   1.135   2.088
11193TIP3    H133520   5.687   1.167   2.129
11193TIP3    H233521   5.755   1.149   1.994
11194TIP3   OH233522   0.639   6.904   1.667
11194TIP3    H133523   0.552   6.867   1.652
11194TIP3    H233524   0.657   6.886   1.759
11195TIP3   OH233525   2.917   2.689   0.076
11195TIP3    H133526   2.874   2.621   0.127
11195TIP3    H233527   3.008   2.685   0.102
11196TIP3   OH233528   2.430   3.058   5.429
11196TIP3    H133529   2.517   3.092   5.449
11196TIP3    H233530   2.375   3.091   5.501
11197TIP3   OH233531   0.055   0.816   5.060
11197TIP3    H133532   0.076   0.908   5.077
11197TIP3    H233533   0.075   0.803   4.967
11198TIP3   OH233534   0.355   6.397   0.813
11198TIP3    H133535   0.350   6.454   0.736
11198TIP3    H233536   0.299   6.323   0.792
11199TIP3   OH233537   8.190   2.515   0.849
11199TIP3    H133538   8.114   2.462   0.825
11199TIP3    H233539   8.229   2.469   0.923
11200TIP3   OH233540   7.545   4.818   2.406
11200TIP3    H133541   7.549   4.725   2.382
11200TIP3    H233542   7.496   4.859   2.335
11201TIP3   OH233543   2.175   5.158   2.053
11201TIP3    H133544   2.230   5.191   1.982
11201TIP3    H233545   2.123   5.234   2.079
11202TIP3   OH233546   5.703   1.286   6.283
11202TIP3    H133547   5.687   1.239   6.201
11202TIP3    H233548   5.764   1.355   6.260
11203TIP3   OH233549   6.951   3.422   0.886
11203TIP3    H133550   6.897   3.420   0.965
11203TIP3    H233551   7.017   3.355   0.901
11204TIP3   OH233552   2.584   4.062   2.855
11204TIP3    H133553   2.544   4.038   2.772
11204TIP3    H233554   2.526   4.023   2.921
11205TIP3   OH233555   3.664   1.790   6.434
11205TIP3    H133556   3.620   1.873   6.455
11205TIP3    H233557   3.755   1.806   6.457
11206TIP3   OH233558   3.855   4.872   0.414
11206TIP3    H133559   3.814   4.873   0.328
11206TIP3    H233560   3.791   4.912   0.472
11207TIP3   OH233561   0.535   4.351   5.001
11207TIP3    H133562   0.494   4.434   5.026
11207TIP3    H233563   0.623   4.376   4.973
11208TIP3   OH233564   1.616   6.849   3.081
11208TIP3    H133565   1.529   6.841   3.120
11208TIP3    H233566   1.625   6.942   3.060
11209TIP3   OH233567   3.253   3.907   4.105
11209TIP3    H133568   3.193   3.944   4.170
11209TIP3    H233569   3.250   3.968   4.032
11210TIP3   OH233570   0.071   5.558   2.383
11210TIP3    H133571   0.105   5.645   2.365
11210TIP3    H233572   0.146   5.510   2.418
11211TIP3   OH233573   4.367   5.536   2.498
11211TIP3    H133574   4.451   5.499   2.470
11211TIP3    H233575   4.333   5.581   2.421
11212TIP3   OH233576   3.817   5.696   0.694
11212TIP3    H133577   3.750   5.636   0.723
11212TIP3    H233578   3.837   5.669   0.604
11213TIP3   OH233579   7.250   3.504   4.284
11213TIP3    H133580   7.202   3.572   4.236
11213TIP3    H233581   7.338   3.541   4.296
11214TIP3   OH233582   1.788   0.065   2.688
11214TIP3    H133583   1.794   0.139   2.749
11214TIP3    H233584   1.837   0.095   2.611
11215TIP3   OH233585   4.379   7.511   6.495
11215TIP3    H133586   4.292   7.517   6.536
11215TIP3    H233587   4.386   7.421   6.466
11216TIP3   OH233588   2.571   7.620   2.606
11216TIP3    H133589   2.601   7.708   2.582
11216TIP3    H233590   2.644   7.582   2.654
11217TIP3   OH233591   3.649   7.737   5.178
11217TIP3    H133592   3.569   7.704   5.136
11217TIP3    H233593   3.685   7.662   5.224
11218TIP3   OH233594   6.307   5.227   1.588
11218TIP3    H133595   6.226   5.224   1.639
11218TIP3    H233596   6.283   5.193   1.502
11219TIP3   OH233597   5.733   1.394   4.135
11219TIP3    H133598   5.825   1.420   4.143
11219TIP3    H233599   5.699   1.449   4.065
11220TIP3   OH233600   0.162   5.108   3.928
11220TIP3    H133601   0.068   5.117   3.917
11220TIP3    H233602   0.192   5.069   3.845
11221TIP3   OH233603   0.536   3.139   0.116
11221TIP3    H133604   0.561   3.172   0.030
11221TIP3    H233605   0.581   3.196   0.178
11222TIP3   OH233606   4.269   0.473   0.267
11222TIP3    H133607   4.221   0.395   0.238
11222TIP3    H233608   4.361   0.445   0.270
11223TIP3   OH233609   2.992   7.674   2.490
11223TIP3    H133610   2.981   7.589   2.448
11223TIP3    H233611   2.989   7.655   2.584
11224TIP3   OH233612   4.334   2.161   3.462
11224TIP3    H133613   4.239   2.153   3.454
11224TIP3    H233614   4.353   2.251   3.438
11225TIP3   OH233615   3.429   2.917   3.859
11225TIP3    H133616   3.414   2.980   3.789
11225TIP3    H233617   3.343   2.904   3.899
11226TIP3   OH233618   4.859   2.616   6.284
11226TIP3    H133619   4.776   2.647   6.248
11226TIP3    H233620   4.925   2.674   6.246
11227TIP3   OH233621   4.627   7.674   5.202
11227TIP3    H133622   4.644   7.580   5.214
11227TIP3    H233623   4.635   7.688   5.108
11228TIP3   OH233624   0.811   7.341   0.363
11228TIP3    H133625   0.895   7.333   0.317
11228TIP3    H233626   0.833   7.386   0.445
11229TIP3   OH233627   7.534   1.910   6.436
11229TIP3    H133628   7.477   1.864   6.375
11229TIP3    H233629   7.581   1.973   6.381
11230TIP3   OH233630   1.794   4.283   1.204
11230TIP3    H133631   1.786   4.227   1.127
11230TIP3    H233632   1.872   4.250   1.250
11231TIP3   OH233633   1.416   4.609   3.693
11231TIP3    H133634   1.414   4.527   3.743
11231TIP3    H233635   1.329   4.615   3.653
11232TIP3   OH233636   6.284   0.263   4.341
11232TIP3    H133637   6.327   0.329   4.395
11232TIP3    H233638   6.321   0.276   4.254
11233TIP3   OH233639   3.190   3.269   5.953
11233TIP3    H133640   3.249   3.344   5.956
11233TIP3    H233641   3.103   3.306   5.969
11234TIP3   OH233642   5.255   4.817   6.645
11234TIP3    H133643   5.284   4.766   6.721
11234TIP3    H233644   5.206   4.889   6.682
11235TIP3   OH233645   2.637   7.587   0.131
11235TIP3    H133646   2.703   7.627   0.073
11235TIP3    H233647   2.579   7.659   0.154
11236TIP3   OH233648   2.530   4.090   5.672
11236TIP3    H133649   2.497   4.001   5.679
11236TIP3    H233650   2.513   4.129   5.758
11237TIP3   OH233651   6.945   6.992   4.527
11237TIP3    H133652   6.893   6.912   4.526
11237TIP3    H233653   6.892   7.055   4.477
11238TIP3   OH233654   4.284   1.120   1.270
11238TIP3    H133655   4.190   1.126   1.257
11238TIP3    H233656   4.300   1.027   1.286
11239TIP3   OH233657   6.032   3.942   5.885
11239TIP3    H133658   6.037   3.856   5.928
11239TIP3    H233659   5.955   3.983   5.923
11240TIP3   OH233660   1.301   5.641   3.183
11240TIP3    H133661   1.375   5.613   3.238
11240TIP3    H233662   1.295   5.573   3.116
11241TIP3   OH233663   1.447   4.704   0.079
11241TIP3    H133664   1.475   4.735   0.165
11241TIP3    H233665   1.363   4.747   0.064
11242TIP3   OH233666   3.929   5.263   6.008
11242TIP3    H133667   3.847   5.276   5.959
11242TIP3    H233668   3.959   5.351   6.029
11243TIP3   OH233669   3.214   1.943   3.496
11243TIP3    H133670   3.139   1.935   3.556
11243TIP3    H233671   3.289   1.959   3.554
11244TIP3   OH233672   5.470   0.102   6.547
11244TIP3    H133673   5.467   0.057   6.631
11244TIP3    H233674   5.449   0.034   6.483
11245TIP3   OH233675   3.130   6.486   2.633
11245TIP3    H133676   3.085   6.570   2.629
11245TIP3    H233677   3.117   6.454   2.722
11246TIP3   OH233678   2.403   2.316   6.037
11246TIP3    H133679   2.388   2.410   6.051
11246TIP3    H233680   2.332   2.289   5.979
11247TIP3   OH233681   6.983   5.183   6.653
11247TIP3    H133682   7.002   5.201   6.745
11247TIP3    H233683   6.898   5.224   6.638
11248TIP3   OH233684   3.388   0.941   6.389
11248TIP3    H133685   3.372   1.029   6.421
11248TIP3    H233686   3.422   0.954   6.300
11249TIP3   OH233687   1.958   7.062   1.183
11249TIP3    H133688   1.964   7.158   1.186
11249TIP3    H233689   1.869   7.045   1.152
11250TIP3   OH233690   3.193   1.074   4.515
11250TIP3    H133691   3.221   1.053   4.425
11250TIP3    H233692   3.272   1.065   4.567
11251TIP3   OH233693   0.074   5.039   0.794
11251TIP3    H133694   0.057   4.989   0.874
11251TIP3    H233695   0.169   5.050   0.793
11252TIP3   OH233696   0.566   2.529   1.596
11252TIP3    H133697   0.486   2.572   1.627
11252TIP3    H233698   0.637   2.582   1.632
11253TIP3   OH233699   4.815   5.336   0.723
11253TIP3    H133700   4.863   5.414   0.696
11253TIP3    H233701   4.795   5.290   0.642
11254TIP3   OH233702   1.075   1.358   1.749
11254TIP3    H133703   1.139   1.337   1.681
11254TIP3    H233704   1.102   1.305   1.824
11255TIP3   OH233705   7.824   4.125   6.455
11255TIP3    H133706   7.735   4.108   6.486
11255TIP3    H233707   7.838   4.061   6.385
11256TIP3   OH233708   3.407   3.099   6.569
11256TIP3    H133709   3.481   3.130   6.620
11256TIP3    H233710   3.432   3.011   6.540
11257TIP3   OH233711   0.921   5.077   1.479
11257TIP3    H133712   0.881   4.999   1.518
11257TIP3    H233713   1.007   5.083   1.521
11258TIP3   OH233714   5.476   1.461   0.399
11258TIP3    H133715   5.562   1.488   0.366
11258TIP3    H233716   5.432   1.544   0.421
11259TIP3   OH233717   3.449   2.039   0.603
11259TIP3    H133718   3.397   2.066   0.679
11259TIP3    H233719   3.458   2.118   0.551
11260TIP3   OH233720   6.237   6.389   5.844
11260TIP3    H133721   6.304   6.448   5.811
11260TIP3    H233722   6.207   6.339   5.768
11261TIP3   OH233723   5.299   1.950   0.323
11261TIP3    H133724   5.287   1.856   0.315
11261TIP3    H233725   5.314   1.980   0.233
11262TIP3   OH233726   6.711   2.742   5.201
11262TIP3    H133727   6.706   2.834   5.228
11262TIP3    H233728   6.683   2.741   5.110
11263TIP3   OH233729   0.496   0.035   2.060
11263TIP3    H133730   0.440  -0.011   2.123
11263TIP3    H233731   0.449   0.116   2.040
11264TIP3   OH233732   4.367   6.395   3.463
11264TIP3    H133733   4.294   6.456   3.455
11264TIP3    H233734   4.419   6.428   3.536
11265TIP3   OH233735   4.732   0.114   2.650
11265TIP3    H133736   4.787   0.190   2.670
11265TIP3    H233737   4.749   0.095   2.558
11266TIP3   OH233738   7.134   2.679   6.387
11266TIP3    H133739   7.173   2.741   6.449
11266TIP3    H233740   7.090   2.734   6.322
11267TIP3   OH233741   5.497   6.522   2.079
11267TIP3    H133742   5.545   6.532   1.997
11267TIP3    H233743   5.406   6.507   2.052
11268TIP3   OH233744   8.290   6.541   3.671
11268TIP3    H133745   8.280   6.595   3.749
11268TIP3    H233746   8.361   6.583   3.622
11269TIP3   OH233747   8.369   5.806   5.472
11269TIP3    H133748   8.436   5.751   5.431
11269TIP3    H233749   8.350   5.873   5.407
11270TIP3   OH233750   6.120   1.263   0.321
11270TIP3    H133751   6.065   1.205   0.374
11270TIP3    H233752   6.155   1.326   0.384
11271TIP3   OH233753   0.446   1.119   0.905
11271TIP3    H133754   0.476   1.062   0.976
11271TIP3    H233755   0.416   1.058   0.837
11272TIP3   OH233756   4.270   5.095   5.727
11272TIP3    H133757   4.210   5.052   5.787
11272TIP3    H233758   4.234   5.183   5.714
11273TIP3   OH233759   4.406   1.909   0.408
11273TIP3    H133760   4.349   1.918   0.484
11273TIP3    H233761   4.428   1.999   0.383
11274TIP3   OH233762   3.495   1.575   4.996
11274TIP3    H133763   3.417   1.618   5.032
11274TIP3    H233764   3.506   1.612   4.909
11275TIP3   OH233765   7.245   6.845   3.739
11275TIP3    H133766   7.273   6.929   3.704
11275TIP3    H233767   7.180   6.867   3.806
11276TIP3   OH233768   3.956   6.172   6.733
11276TIP3    H133769   4.044   6.210   6.733
11276TIP3    H233770   3.898   6.248   6.723
11277TIP3   OH233771   0.391   1.522   1.114
11277TIP3    H133772   0.361   1.431   1.115
11277TIP3    H233773   0.392   1.548   1.206
11278TIP3   OH233774   0.196   6.998   4.941
11278TIP3    H133775   0.124   7.050   4.977
11278TIP3    H233776   0.186   6.912   4.982
11279TIP3   OH233777   0.532   3.915   0.576
11279TIP3    H133778   0.447   3.891   0.539
11279TIP3    H233779   0.556   3.995   0.529
11280TIP3   OH233780   0.195   7.387   6.139
11280TIP3    H133781   0.256   7.384   6.065
11280TIP3    H233782   0.240   7.341   6.210
11281TIP3   OH233783  -0.007   2.499   2.309
11281TIP3    H133784  -0.076   2.479   2.371
11281TIP3    H233785   0.074   2.495   2.361
11282TIP3   OH233786   6.704   5.162   3.948
11282TIP3    H133787   6.793   5.142   3.979
11282TIP3    H233788   6.647   5.121   4.013
11283TIP3   OH233789   1.986   0.173   2.520
11283TIP3    H133790   2.058   0.159   2.457
11283TIP3    H233791   2.026   0.225   2.590
11284TIP3   OH233792   5.642   7.111   5.987
11284TIP3    H133793   5.713   7.070   6.035
11284TIP3    H233794   5.577   7.133   6.054
11285TIP3   OH233795   3.614   1.207   4.821
11285TIP3    H133796   3.601   1.115   4.845
11285TIP3    H233797   3.695   1.207   4.770
11286TIP3   OH233798   3.540   3.497   1.480
11286TIP3    H133799   3.580   3.462   1.559
11286TIP3    H233800   3.480   3.428   1.451
11287TIP3   OH233801   7.518   4.945   1.975
11287TIP3    H133802   7.469   4.921   2.054
11287TIP3    H233803   7.451   4.960   1.909
11288TIP3   OH233804   4.110   3.102   4.240
11288TIP3    H133805   4.147   3.155   4.311
11288TIP3    H233806   4.017   3.126   4.239
11289TIP3   OH233807   7.623   5.798   2.873
11289TIP3    H133808   7.697   5.805   2.934
11289TIP3    H233809   7.653   5.839   2.793
11290TIP3   OH233810   6.965   6.607   4.521
11290TIP3    H133811   6.898   6.660   4.562
11290TIP3    H233812   6.917   6.542   4.470
11291TIP3   OH233813   1.397   3.752   3.990
11291TIP3    H133814   1.339   3.689   4.033
11291TIP3    H233815   1.337   3.817   3.953
11292TIP3   OH233816   7.338   7.602   3.703
11292TIP3    H133817   7.425   7.611   3.743
11292TIP3    H233818   7.354   7.564   3.617
11293TIP3   OH233819   8.311   7.890   4.154
11293TIP3    H133820   8.405   7.885   4.168
11293TIP3    H233821   8.273   7.842   4.227
11294TIP3   OH233822   1.564   3.576   4.554
11294TIP3    H133823   1.563   3.584   4.458
11294TIP3    H233824   1.557   3.667   4.585
11295TIP3   OH233825   3.809   0.835   5.596
11295TIP3    H133826   3.766   0.918   5.616
11295TIP3    H233827   3.825   0.838   5.502
11296TIP3   OH233828   0.385   1.625   6.642
11296TIP3    H133829   0.477   1.653   6.645
11296TIP3    H233830   0.386   1.545   6.590
11297TIP3   OH233831   6.469   2.241   5.189
11297TIP3    H133832   6.541   2.229   5.250
11297TIP3    H233833   6.507   2.290   5.116
11298TIP3   OH233834   5.738   6.823   5.144
11298TIP3    H133835   5.642   6.815   5.139
11298TIP3    H233836   5.762   6.867   5.062
11299TIP3   OH233837   2.352   2.386   3.298
11299TIP3    H133838   2.367   2.334   3.377
11299TIP3    H233839   2.335   2.474   3.330
11300TIP3   OH233840   1.556   6.682   0.148
11300TIP3    H133841   1.615   6.664   0.075
11300TIP3    H233842   1.613   6.692   0.223
11301TIP3   OH233843   4.284   4.513   6.433
11301TIP3    H133844   4.364   4.523   6.484
11301TIP3    H233845   4.219   4.483   6.496
11302TIP3   OH233846   0.667   3.354   5.827
11302TIP3    H133847   0.587   3.305   5.843
11302TIP3    H233848   0.676   3.412   5.903
11303TIP3   OH233849   4.419   7.300   0.275
11303TIP3    H133850   4.410   7.238   0.347
11303TIP3    H233851   4.353   7.367   0.292
11304TIP3   OH233852   3.107   7.931   5.968
11304TIP3    H133853   3.029   7.963   5.923
11304TIP3    H233854   3.073   7.866   6.031
11305TIP3   OH233855   0.888   1.205   3.527
11305TIP3    H133856   0.889   1.110   3.526
11305TIP3    H233857   0.873   1.230   3.435
11306TIP3   OH233858   0.906   1.012   6.351
11306TIP3    H133859   0.868   1.056   6.427
11306TIP3    H233860   0.872   0.923   6.355
11307TIP3   OH233861   8.134   1.164   4.497
11307TIP3    H133862   8.095   1.247   4.524
11307TIP3    H233863   8.079   1.097   4.537
11308TIP3   OH233864   4.037   7.145   6.226
11308TIP3    H133865   3.966   7.179   6.172
11308TIP3    H233866   4.069   7.221   6.274
11309TIP3   OH233867   0.348   0.058   2.960
11309TIP3    H133868   0.275   0.061   2.898
11309TIP3    H233869   0.316   0.103   3.037
11310TIP3   OH233870   6.568   2.972   1.790
11310TIP3    H133871   6.514   2.927   1.855
11310TIP3    H233872   6.636   3.015   1.842
11311TIP3   OH233873   3.126   4.536   1.903
11311TIP3    H133874   3.071   4.505   1.975
11311TIP3    H233875   3.215   4.506   1.925
11312TIP3   OH233876   6.162   7.666   3.589
11312TIP3    H133877   6.146   7.684   3.682
11312TIP3    H233878   6.220   7.590   3.589
11313TIP3   OH233879   2.188   2.937   1.061
11313TIP3    H133880   2.122   2.928   1.130
11313TIP3    H233881   2.253   2.869   1.081
11314TIP3   OH233882   4.318   0.911   5.743
11314TIP3    H133883   4.285   0.967   5.672
11314TIP3    H233884   4.401   0.952   5.769
11315TIP3   OH233885   3.558   2.761   2.067
11315TIP3    H133886   3.621   2.831   2.047
11315TIP3    H233887   3.611   2.693   2.108
11316TIP3   OH233888   6.564   4.485   3.692
11316TIP3    H133889   6.580   4.396   3.723
11316TIP3    H233890   6.650   4.518   3.667
11317TIP3   OH233891   7.056   7.268   1.900
11317TIP3    H133892   6.993   7.265   1.972
11317TIP3    H233893   7.046   7.184   1.856
11318TIP3   OH233894   8.123   4.740   0.201
11318TIP3    H133895   8.078   4.824   0.208
11318TIP3    H233896   8.054   4.675   0.215
11319TIP3   OH233897   2.581   5.938   3.565
11319TIP3    H133898   2.507   5.912   3.620
11319TIP3    H233899   2.541   5.983   3.491
11320TIP3   OH233900   6.651   3.787   5.711
11320TIP3    H133901   6.606   3.724   5.654
11320TIP3    H233902   6.610   3.871   5.692
11321TIP3   OH233903   0.958   5.675   5.906
11321TIP3    H133904   0.931   5.720   5.985
11321TIP3    H233905   0.875   5.651   5.863
11322TIP3   OH233906   0.548   6.257   4.631
11322TIP3    H133907   0.586   6.300   4.707
11322TIP3    H233908   0.597   6.175   4.623
11323TIP3   OH233909   4.690   6.475   0.315
11323TIP3    H133910   4.707   6.567   0.296
11323TIP3    H233911   4.709   6.465   0.408
11324TIP3   OH233912   2.877   4.662   0.334
11324TIP3    H133913   2.822   4.684   0.409
11324TIP3    H233914   2.956   4.715   0.346
11325TIP3   OH233915   0.433   6.692   0.144
11325TIP3    H133916   0.386   6.775   0.146
11325TIP3    H233917   0.442   6.672   0.051
11326TIP3   OH233918   5.864   2.123   4.538
11326TIP3    H133919   5.894   2.194   4.594
11326TIP3    H233920   5.936   2.060   4.539
11327TIP3   OH233921   3.337   1.347   6.239
11327TIP3    H133922   3.357   1.419   6.299
11327TIP3    H233923   3.415   1.338   6.184
11328TIP3   OH233924   0.185   0.973   6.222
11328TIP3    H133925   0.205   0.968   6.129
11328TIP3    H233926   0.197   1.065   6.245
11329TIP3   OH233927   6.537   6.941   0.512
11329TIP3    H133928   6.617   6.988   0.533
11329TIP3    H233929   6.509   6.902   0.594
11330TIP3   OH233930   1.970   2.461   1.962
11330TIP3    H133931   2.065   2.467   1.950
11330TIP3    H233932   1.956   2.373   1.997
11331TIP3   OH233933   8.115   7.019   5.320
11331TIP3    H133934   8.124   7.003   5.226
11331TIP3    H233935   8.029   6.982   5.342
11332TIP3   OH233936   1.910   7.890   0.958
11332TIP3    H133937   2.003   7.899   0.936
11332TIP3    H233938   1.866   7.882   0.874
11333TIP3   OH233939   7.703   5.348   6.772
11333TIP3    H133940   7.748   5.428   6.746
11333TIP3    H233941   7.661   5.316   6.692
11334TIP3   OH233942   3.724   5.553   1.447
11334TIP3    H133943   3.704   5.601   1.528
11334TIP3    H233944   3.649   5.570   1.390
11335TIP3   OH233945   6.285   2.420   2.591
11335TIP3    H133946   6.282   2.326   2.612
11335TIP3    H233947   6.355   2.455   2.645
11336TIP3   OH233948   3.325   0.243   0.574
11336TIP3    H133949   3.265   0.169   0.582
11336TIP3    H233950   3.340   0.271   0.664
11337TIP3   OH233951   6.453   2.871   3.952
11337TIP3    H133952   6.433   2.779   3.971
11337TIP3    H233953   6.537   2.886   3.994
11338TIP3   OH233954   4.648   1.467   6.661
11338TIP3    H133955   4.552   1.475   6.664
11338TIP3    H233956   4.665   1.420   6.579
11339TIP3   OH233957   5.241   4.204   6.834
11339TIP3    H133958   5.203   4.250   6.759
11339TIP3    H233959   5.168   4.193   6.895
11340TIP3   OH233960   2.140   7.109   5.082
11340TIP3    H133961   2.178   7.118   5.170
11340TIP3    H233962   2.214   7.123   5.023
11341TIP3   OH233963   6.399   2.842   5.517
11341TIP3    H133964   6.463   2.780   5.551
11341TIP3    H233965   6.443   2.927   5.520
11342TIP3   OH233966   8.026   6.812   1.361
11342TIP3    H133967   8.067   6.858   1.289
11342TIP3    H233968   7.962   6.754   1.320
11343TIP3   OH233969   7.032   6.130   4.117
11343TIP3    H133970   7.040   6.207   4.060
11343TIP3    H233971   7.095   6.068   4.083
11344TIP3   OH233972   7.113   6.170   6.125
11344TIP3    H133973   7.049   6.113   6.167
11344TIP3    H233974   7.177   6.110   6.086
11345TIP3   OH233975   4.792   6.369   1.166
11345TIP3    H133976   4.810   6.385   1.259
11345TIP3    H233977   4.837   6.440   1.121
11346TIP3   OH233978   6.392   5.256   6.863
11346TIP3    H133979   6.301   5.271   6.838
11346TIP3    H233980   6.441   5.260   6.781
11347TIP3   OH233981   1.482   0.739   0.992
11347TIP3    H133982   1.393   0.742   1.025
11347TIP3    H233983   1.537   0.752   1.070
11348TIP3   OH233984   2.458   6.742   6.567
11348TIP3    H133985   2.507   6.681   6.620
11348TIP3    H233986   2.409   6.795   6.629
11349TIP3   OH233987   6.742   6.401   1.172
11349TIP3    H133988   6.781   6.389   1.258
11349TIP3    H233989   6.648   6.407   1.189
11350TIP3   OH233990   5.521   4.735   0.798
11350TIP3    H133991   5.532   4.725   0.892
11350TIP3    H233992   5.535   4.647   0.762
11351TIP3   OH233993   4.809   4.461   1.904
11351TIP3    H133994   4.851   4.433   1.985
11351TIP3    H233995   4.769   4.545   1.925
11352TIP3   OH233996   0.099   0.513   1.005
11352TIP3    H133997   0.155   0.454   0.956
11352TIP3    H233998   0.159   0.566   1.057
11353TIP3   OH233999   0.961   2.900   0.591
11353TIP3    H134000   0.976   2.993   0.605
11353TIP3    H234001   0.866   2.890   0.598
11354TIP3   OH234002   1.752   1.554   0.017
11354TIP3    H134003   1.683   1.491  -0.005
11354TIP3    H234004   1.721   1.637  -0.021
11355TIP3   OH234005   3.045   1.218   4.048
11355TIP3    H134006   3.135   1.242   4.069
11355TIP3    H234007   2.999   1.221   4.132
11356TIP3   OH234008   6.832   5.408   3.839
11356TIP3    H134009   6.915   5.415   3.885
11356TIP3    H234010   6.783   5.341   3.887
11357TIP3   OH234011   7.020   4.619   5.109
11357TIP3    H134012   7.075   4.682   5.156
11357TIP3    H234013   6.940   4.613   5.160
11358TIP3   OH234014   7.318   6.936   0.770
11358TIP3    H134015   7.333   6.909   0.861
11358TIP3    H234016   7.389   6.895   0.721
11359TIP3   OH234017   5.471   5.565   5.663
11359TIP3    H134018   5.494   5.575   5.570
11359TIP3    H234019   5.492   5.649   5.702
11360TIP3   OH234020   0.321   2.159   4.169
11360TIP3    H134021   0.302   2.123   4.255
11360TIP3    H234022   0.394   2.219   4.183
11361TIP3   OH234023   5.861   4.364   0.650
11361TIP3    H134024   5.891   4.449   0.683
11361TIP3    H234025   5.864   4.373   0.555
11362TIP3   OH234026   3.521   3.462   0.572
11362TIP3    H134027   3.523   3.415   0.655
11362TIP3    H234028   3.595   3.523   0.576
11363TIP3   OH234029   0.765   6.810   1.435
11363TIP3    H134030   0.717   6.860   1.501
11363TIP3    H234031   0.708   6.809   1.359
11364TIP3   OH234032   6.292   0.146   6.644
11364TIP3    H134033   6.274   0.161   6.737
11364TIP3    H234034   6.216   0.182   6.599
11365TIP3   OH234035   2.916   2.142   0.263
11365TIP3    H134036   2.930   2.054   0.228
11365TIP3    H234037   2.822   2.156   0.258
11366TIP3   OH234038   2.078   5.410   2.056
11366TIP3    H134039   1.992   5.449   2.065
11366TIP3    H234040   2.124   5.435   2.136
11367TIP3   OH234041   3.542   5.872   2.569
11367TIP3    H134042   3.605   5.935   2.533
11367TIP3    H234043   3.513   5.822   2.493
11368TIP3   OH234044   0.159   0.636   3.642
11368TIP3    H134045   0.167   0.554   3.692
11368TIP3    H234046   0.108   0.694   3.699
11369TIP3   OH234047   7.242   2.830   2.946
11369TIP3    H134048   7.168   2.831   3.007
11369TIP3    H234049   7.201   2.838   2.859
11370TIP3   OH234050   6.718   1.973   4.860
11370TIP3    H134051   6.622   1.979   4.852
11370TIP3    H234052   6.749   2.056   4.824
11371TIP3   OH234053   2.387   6.757   2.366
11371TIP3    H134054   2.342   6.693   2.311
11371TIP3    H234055   2.468   6.776   2.319
11372TIP3   OH234056   4.907   1.819   5.164
11372TIP3    H134057   4.918   1.777   5.078
11372TIP3    H234058   4.992   1.857   5.183
11373TIP3   OH234059   1.971   6.961   6.173
11373TIP3    H134060   2.036   7.019   6.132
11373TIP3    H234061   1.889   7.010   6.169
11374TIP3   OH234062   5.684   7.036   3.575
11374TIP3    H134063   5.612   7.091   3.605
11374TIP3    H234064   5.655   7.000   3.491
11375TIP3   OH234065   1.809   4.520   3.517
11375TIP3    H134066   1.838   4.579   3.448
11375TIP3    H234067   1.890   4.488   3.557
11376TIP3   OH234068   2.622   3.773   4.303
11376TIP3    H134069   2.624   3.868   4.288
11376TIP3    H234070   2.652   3.763   4.394
11377TIP3   OH234071   1.105   0.828   6.070
11377TIP3    H134072   1.056   0.762   6.022
11377TIP3    H234073   1.191   0.830   6.027
11378TIP3   OH234074   4.031   5.672   2.659
11378TIP3    H134075   4.099   5.737   2.676
11378TIP3    H234076   3.958   5.698   2.715
11379TIP3   OH234077   0.639   6.533   0.597
11379TIP3    H134078   0.681   6.619   0.606
11379TIP3    H234079   0.706   6.478   0.556
11380TIP3   OH234080   1.911   1.949   5.772
11380TIP3    H134081   1.816   1.940   5.785
11380TIP3    H234082   1.932   2.035   5.809
11381TIP3   OH234083   2.160   2.443   4.140
11381TIP3    H134084   2.254   2.426   4.135
11381TIP3    H234085   2.144   2.462   4.232
11382TIP3   OH234086   7.183   7.349   2.206
11382TIP3    H134087   7.230   7.339   2.289
11382TIP3    H234088   7.237   7.304   2.142
11383TIP3   OH234089   6.756   1.731   3.885
11383TIP3    H134090   6.849   1.749   3.899
11383TIP3    H234091   6.743   1.743   3.791
11384TIP3   OH234092   1.673   4.328   3.358
11384TIP3    H134093   1.684   4.378   3.440
11384TIP3    H234094   1.724   4.378   3.294
11385TIP3   OH234095   4.124   3.817   3.247
11385TIP3    H134096   4.160   3.747   3.192
11385TIP3    H234097   4.177   3.814   3.327
11386TIP3   OH234098   1.488   0.881   2.900
11386TIP3    H134099   1.503   0.875   2.806
11386TIP3    H234100   1.444   0.965   2.912
11387TIP3   OH234101   0.491   6.303   1.432
11387TIP3    H134102   0.584   6.309   1.454
11387TIP3    H234103   0.447   6.355   1.498
11388TIP3   OH234104   8.230   4.620   3.008
11388TIP3    H134105   8.266   4.555   3.069
11388TIP3    H234106   8.306   4.670   2.979
11389TIP3   OH234107   1.096   7.859   6.729
11389TIP3    H134108   1.028   7.826   6.671
11389TIP3    H234109   1.177   7.844   6.681
11390TIP3   OH234110   3.581   1.252   4.182
11390TIP3    H134111   3.539   1.237   4.267
11390TIP3    H234112   3.637   1.328   4.196
11391TIP3   OH234113   8.244   5.925   4.704
11391TIP3    H134114   8.260   5.919   4.610
11391TIP3    H234115   8.319   5.973   4.739
11392TIP3   OH234116   7.592   3.935   2.861
11392TIP3    H134117   7.506   3.935   2.818
11392TIP3    H234118   7.645   3.993   2.806
11393TIP3   OH234119   0.907   1.303   4.426
11393TIP3    H134120   0.937   1.249   4.499
11393TIP3    H234121   0.821   1.336   4.454
11394TIP3   OH234122   5.894   7.845   4.066
11394TIP3    H134123   5.893   7.766   4.012
11394TIP3    H234124   5.985   7.852   4.096
11395TIP3   OH234125   1.289   7.421   1.933
11395TIP3    H134126   1.271   7.472   2.013
11395TIP3    H234127   1.238   7.341   1.944
11396TIP3   OH234128   0.378   1.068   1.533
11396TIP3    H134129   0.330   0.993   1.567
11396TIP3    H234130   0.455   1.030   1.491
11397TIP3   OH234131   4.400   7.385   4.132
11397TIP3    H134132   4.431   7.326   4.201
11397TIP3    H234133   4.369   7.462   4.179
11398TIP3   OH234134   8.015   6.163   1.656
11398TIP3    H134135   7.959   6.097   1.617
11398TIP3    H234136   8.041   6.220   1.583
11399TIP3   OH234137   3.760   3.375   5.020
11399TIP3    H134138   3.682   3.429   5.030
11399TIP3    H234139   3.775   3.339   5.107
11400TIP3   OH234140   2.032   1.147   4.063
11400TIP3    H134141   1.982   1.226   4.084
11400TIP3    H234142   2.044   1.151   3.968
11401TIP3   OH234143   0.358   0.213   3.668
11401TIP3    H134144   0.285   0.164   3.705
11401TIP3    H234145   0.434   0.183   3.717
11402TIP3   OH234146   4.035   0.184   2.368
11402TIP3    H134147   4.053   0.252   2.303
11402TIP3    H234148   3.973   0.225   2.429
11403TIP3   OH234149   6.563   2.167   0.259
11403TIP3    H134150   6.576   2.218   0.339
11403TIP3    H234151   6.641   2.113   0.252
11404TIP3   OH234152   0.708   7.664   2.413
11404TIP3    H134153   0.664   7.656   2.498
11404TIP3    H234154   0.696   7.756   2.389
11405TIP3   OH234155   5.845   2.273   6.739
11405TIP3    H134156   5.923   2.226   6.710
11405TIP3    H234157   5.863   2.365   6.720
11406TIP3   OH234158   5.719   6.612   2.288
11406TIP3    H134159   5.763   6.548   2.232
11406TIP3    H234160   5.787   6.640   2.350
11407TIP3   OH234161   4.996   2.321   6.194
11407TIP3    H134162   5.065   2.380   6.163
11407TIP3    H234163   4.949   2.372   6.260
11408TIP3   OH234164   5.247   6.528   4.261
11408TIP3    H134165   5.198   6.557   4.184
11408TIP3    H234166   5.185   6.532   4.333
11409TIP3   OH234167   5.810   4.640   3.797
11409TIP3    H134168   5.817   4.557   3.844
11409TIP3    H234169   5.868   4.700   3.844
11410TIP3   OH234170   3.474   4.536   3.936
11410TIP3    H134171   3.381   4.528   3.956
11410TIP3    H234172   3.518   4.482   4.002
11411TIP3   OH234173   8.095   6.676   6.652
11411TIP3    H134174   8.042   6.623   6.711
11411TIP3    H234175   8.080   6.766   6.681
11412TIP3   OH234176   7.781   2.916   4.722
11412TIP3    H134177   7.832   2.950   4.796
11412TIP3    H234178   7.845   2.872   4.667
11413TIP3   OH234179   2.623   4.308   4.775
11413TIP3    H134180   2.673   4.293   4.855
11413TIP3    H234181   2.542   4.350   4.805
11414TIP3   OH234182   6.247   5.813   0.329
11414TIP3    H134183   6.177   5.820   0.265
11414TIP3    H234184   6.216   5.863   0.404
11415TIP3   OH234185   2.979   5.409   5.365
11415TIP3    H134186   2.942   5.446   5.445
11415TIP3    H234187   3.045   5.347   5.396
11416TIP3   OH234188   0.629   7.475   1.831
11416TIP3    H134189   0.620   7.475   1.735
11416TIP3    H234190   0.543   7.446   1.863
11417TIP3   OH234191   3.824   5.889   6.384
11417TIP3    H134192   3.741   5.922   6.349
11417TIP3    H234193   3.822   5.795   6.367
11418TIP3   OH234194   7.775   1.633   2.374
11418TIP3    H134195   7.822   1.710   2.407
11418TIP3    H234196   7.691   1.635   2.418
11419TIP3   OH234197   5.309   2.659   1.752
11419TIP3    H134198   5.375   2.703   1.806
11419TIP3    H234199   5.303   2.714   1.673
11420TIP3   OH234200   7.002   7.241   6.561
11420TIP3    H134201   7.005   7.284   6.646
11420TIP3    H234202   7.006   7.147   6.581
11421TIP3   OH234203   7.378   6.825   6.670
11421TIP3    H134204   7.445   6.893   6.676
11421TIP3    H234205   7.297   6.873   6.653
11422TIP3   OH234206   6.757   2.775   0.372
11422TIP3    H134207   6.839   2.729   0.388
11422TIP3    H234208   6.708   2.766   0.453
11423TIP3   OH234209   8.031   2.977   5.892
11423TIP3    H134210   8.021   3.070   5.869
11423TIP3    H234211   7.997   2.970   5.981
11424TIP3   OH234212   1.246   5.441   0.977
11424TIP3    H134213   1.263   5.495   0.900
11424TIP3    H234214   1.172   5.385   0.951
11425TIP3   OH234215   1.477   7.257   3.643
11425TIP3    H134216   1.500   7.319   3.712
11425TIP3    H234217   1.480   7.308   3.563
11426TIP3   OH234218   7.166   0.653   4.010
11426TIP3    H134219   7.259   0.663   4.032
11426TIP3    H234220   7.120   0.701   4.079
11427TIP3   OH234221   8.215   6.681   2.101
11427TIP3    H134222   8.224   6.595   2.143
11427TIP3    H234223   8.131   6.715   2.132
11428TIP3   OH234224   2.013   6.348   3.104
11428TIP3    H134225   1.929   6.363   3.148
11428TIP3    H234226   2.063   6.428   3.121
11429TIP3   OH234227   1.886   2.419   1.238
11429TIP3    H134228   1.937   2.458   1.309
11429TIP3    H234229   1.795   2.440   1.260
11430TIP3   OH234230   7.839   3.967   2.318
11430TIP3    H134231   7.746   3.982   2.304
11430TIP3    H234232   7.850   3.873   2.306
11431TIP3   OH234233   8.119   3.539   6.635
11431TIP3    H134234   8.037   3.587   6.645
11431TIP3    H234235   8.108   3.488   6.555
11432TIP3   OH234236   5.852   5.182   1.464
11432TIP3    H134237   5.903   5.207   1.542
11432TIP3    H234238   5.803   5.260   1.442
11433TIP3   OH234239   5.416   2.057   5.241
11433TIP3    H134240   5.501   2.083   5.277
11433TIP3    H234241   5.434   1.978   5.190
11434TIP3   OH234242   5.646   3.010   5.755
11434TIP3    H134243   5.669   3.047   5.670
11434TIP3    H234244   5.620   3.086   5.808
11435TIP3   OH234245   0.737   5.204   1.312
11435TIP3    H134246   0.663   5.164   1.358
11435TIP3    H234247   0.814   5.174   1.360
11436TIP3   OH234248   8.122   7.512   1.281
11436TIP3    H134249   8.175   7.434   1.298
11436TIP3    H234250   8.036   7.490   1.317
11437TIP3   OH234251   7.137   4.615   5.575
11437TIP3    H134252   7.163   4.609   5.483
11437TIP3    H234253   7.217   4.597   5.624
11438TIP3   OH234254   4.580   6.505   2.800
11438TIP3    H134255   4.607   6.456   2.877
11438TIP3    H234256   4.538   6.584   2.834
11439TIP3   OH234257   1.375   4.821   2.556
11439TIP3    H134258   1.428   4.773   2.493
11439TIP3    H234259   1.296   4.845   2.507
11440TIP3   OH234260   7.430   5.068   4.200
11440TIP3    H134261   7.444   5.161   4.219
11440TIP3    H234262   7.398   5.066   4.110
11441TIP3   OH234263   2.154   2.318   4.424
11441TIP3    H134264   2.071   2.304   4.469
11441TIP3    H234265   2.169   2.237   4.375
11442TIP3   OH234266   6.081   6.460   6.660
11442TIP3    H134267   6.163   6.429   6.619
11442TIP3    H234268   6.032   6.379   6.676
11443TIP3   OH234269   4.936   3.116   2.101
11443TIP3    H134270   4.936   3.049   2.170
11443TIP3    H234271   4.846   3.116   2.069
11444TIP3   OH234272   5.071   3.579   5.825
11444TIP3    H134273   5.087   3.594   5.731
11444TIP3    H234274   5.155   3.598   5.866
11445TIP3   OH234275   6.316   7.681   5.299
11445TIP3    H134276   6.293   7.620   5.369
11445TIP3    H234277   6.390   7.731   5.334
11446TIP3   OH234278   7.070   1.535   6.733
11446TIP3    H134279   7.020   1.506   6.656
11446TIP3    H234280   7.022   1.612   6.764
11447TIP3   OH234281   5.350   0.725   6.456
11447TIP3    H134282   5.260   0.748   6.433
11447TIP3    H234283   5.345   0.696   6.547
11448TIP3   OH234284   1.127   3.792   5.014
11448TIP3    H134285   1.168   3.707   5.002
11448TIP3    H234286   1.160   3.824   5.098
11449TIP3   OH234287   0.807   0.853   4.967
11449TIP3    H134288   0.873   0.910   5.008
11449TIP3    H234289   0.753   0.823   5.041
11450TIP3   OH234290   5.519   0.961   0.917
11450TIP3    H134291   5.527   1.056   0.911
11450TIP3    H234292   5.600   0.928   0.879
11451TIP3   OH234293   7.593   2.047   1.376
11451TIP3    H134294   7.652   2.009   1.311
11451TIP3    H234295   7.591   2.140   1.355
11452TIP3   OH234296   7.555   6.789   0.658
11452TIP3    H134297   7.482   6.744   0.616
11452TIP3    H234298   7.627   6.726   0.654
11453TIP3   OH234299   6.660   5.971   4.671
11453TIP3    H134300   6.744   6.008   4.646
11453TIP3    H234301   6.624   6.034   4.734
11454TIP3   OH234302   3.556   5.515   6.392
11454TIP3    H134303   3.508   5.581   6.342
11454TIP3    H234304   3.648   5.531   6.373
11455TIP3   OH234305   3.606   0.015   1.790
11455TIP3    H134306   3.666   0.077   1.747
11455TIP3    H234307   3.547   0.070   1.841
11456TIP3   OH234308   6.729   1.923   4.085
11456TIP3    H134309   6.637   1.940   4.104
11456TIP3    H234310   6.727   1.861   4.012
11457TIP3   OH234311   5.783   0.866   3.059
11457TIP3    H134312   5.788   0.901   2.970
11457TIP3    H234313   5.768   0.942   3.114
11458TIP3   OH234314   0.061   4.228   4.429
11458TIP3    H134315   0.150   4.221   4.392
11458TIP3    H234316   0.005   4.189   4.362
11459TIP3   OH234317   0.815   1.823   5.808
11459TIP3    H134318   0.831   1.748   5.751
11459TIP3    H234319   0.900   1.840   5.849
11460TIP3   OH234320   0.496   1.548   3.871
11460TIP3    H134321   0.442   1.563   3.949
11460TIP3    H234322   0.483   1.456   3.850
11461TIP3   OH234323   4.704   1.521   5.008
11461TIP3    H134324   4.726   1.598   4.956
11461TIP3    H234325   4.612   1.505   4.990
11462TIP3   OH234326   6.170   0.106   6.188
11462TIP3    H134327   6.143   0.014   6.184
11462TIP3    H234328   6.201   0.125   6.100
11463TIP3   OH234329   0.713   2.312   1.090
11463TIP3    H134330   0.673   2.360   1.017
11463TIP3    H234331   0.638   2.277   1.139
11464TIP3   OH234332   1.924   4.205   5.036
11464TIP3    H134333   1.883   4.121   5.056
11464TIP3    H234334   1.948   4.199   4.944
11465TIP3   OH234335   4.734   3.628   4.139
11465TIP3    H134336   4.712   3.672   4.221
11465TIP3    H234337   4.829   3.617   4.143
11466TIP3   OH234338   3.854   7.791   0.692
11466TIP3    H134339   3.886   7.731   0.625
11466TIP3    H234340   3.931   7.816   0.742
11467TIP3   OH234341   2.917   1.048   1.094
11467TIP3    H134342   2.834   1.095   1.093
11467TIP3    H234343   2.929   1.020   1.003
11468TIP3   OH234344   7.271   1.530   0.663
11468TIP3    H134345   7.239   1.440   0.670
11468TIP3    H234346   7.224   1.565   0.587
11469TIP3   OH234347   1.074   2.356   1.898
11469TIP3    H134348   1.147   2.342   1.839
11469TIP3    H234349   1.106   2.325   1.983
11470TIP3   OH234350   1.463   5.990   6.088
11470TIP3    H134351   1.371   5.964   6.084
11470TIP3    H234352   1.504   5.924   6.143
11471TIP3   OH234353   3.300   6.578   5.464
11471TIP3    H134354   3.359   6.560   5.538
11471TIP3    H234355   3.349   6.636   5.407
11472TIP3   OH234356   1.654   3.758   1.582
11472TIP3    H134357   1.666   3.708   1.501
11472TIP3    H234358   1.639   3.848   1.552
11473TIP3   OH234359   6.028   0.310   4.359
11473TIP3    H134360   6.123   0.299   4.356
11473TIP3    H234361   6.009   0.370   4.287
11474TIP3   OH234362   0.363   5.456   6.761
11474TIP3    H134363   0.322   5.397   6.824
11474TIP3    H234364   0.396   5.398   6.692
11475TIP3   OH234365   5.308   7.226   0.340
11475TIP3    H134366   5.256   7.148   0.358
11475TIP3    H234367   5.308   7.274   0.422
11476TIP3   OH234368   2.776   6.700   5.731
11476TIP3    H134369   2.752   6.720   5.822
11476TIP3    H234370   2.871   6.690   5.733
11477TIP3   OH234371   6.863   4.528   1.931
11477TIP3    H134372   6.895   4.509   1.842
11477TIP3    H234373   6.850   4.623   1.932
11478TIP3   OH234374   7.514   3.488   1.149
11478TIP3    H134375   7.586   3.446   1.196
11478TIP3    H234376   7.524   3.581   1.168
11479TIP3   OH234377   0.678   1.485   0.312
11479TIP3    H134378   0.648   1.394   0.318
11479TIP3    H234379   0.729   1.498   0.392
11480TIP3   OH234380   1.538   4.058   4.774
11480TIP3    H134381   1.482   4.035   4.848
11480TIP3    H234382   1.596   4.126   4.808
11481TIP3   OH234383   5.877   3.328   4.344
11481TIP3    H134384   5.944   3.260   4.335
11481TIP3    H234385   5.799   3.281   4.373
11482TIP3   OH234386   1.345   7.404   1.363
11482TIP3    H134387   1.388   7.366   1.287
11482TIP3    H234388   1.313   7.329   1.413
11483TIP3   OH234389   5.491   2.502   4.571
11483TIP3    H134390   5.413   2.556   4.557
11483TIP3    H234391   5.529   2.492   4.484
11484TIP3   OH234392   1.813   7.258   0.228
11484TIP3    H134393   1.757   7.317   0.177
11484TIP3    H234394   1.752   7.200   0.273
11485TIP3   OH234395   7.443   1.180   4.487
11485TIP3    H134396   7.360   1.222   4.511
11485TIP3    H234397   7.464   1.125   4.562
11486TIP3   OH234398   1.952   6.980   1.839
11486TIP3    H134399   1.973   7.065   1.878
11486TIP3    H234400   2.035   6.950   1.801
11487TIP3   OH234401   2.773   1.908   0.851
11487TIP3    H134402   2.842   1.919   0.786
11487TIP3    H234403   2.698   1.876   0.801
11488TIP3   OH234404   1.519   7.894   6.478
11488TIP3    H134405   1.508   7.867   6.569
11488TIP3    H234406   1.441   7.946   6.460
11489TIP3   OH234407   2.426   7.818   5.526
11489TIP3    H134408   2.476   7.773   5.458
11489TIP3    H234409   2.466   7.904   5.533
11490TIP3   OH234410   5.891   5.174   3.765
11490TIP3    H134411   5.969   5.159   3.711
11490TIP3    H234412   5.818   5.163   3.704
11491TIP3   OH234413   5.342   4.851   5.467
11491TIP3    H134414   5.372   4.876   5.554
11491TIP3    H234415   5.246   4.850   5.474
11492TIP3   OH234416   8.210   1.624   3.828
11492TIP3    H134417   8.142   1.569   3.790
11492TIP3    H234418   8.164   1.701   3.861
11493TIP3   OH234419   7.307   4.710   5.833
11493TIP3    H134420   7.295   4.801   5.857
11493TIP3    H234421   7.263   4.660   5.902
11494TIP3   OH234422   3.457   2.019   5.488
11494TIP3    H134423   3.550   2.016   5.510
11494TIP3    H234424   3.417   1.951   5.542
11495TIP3   OH234425   7.002   3.164   2.469
11495TIP3    H134426   7.039   3.196   2.551
11495TIP3    H234427   7.074   3.171   2.406
11496TIP3   OH234428   1.708   7.628   5.246
11496TIP3    H134429   1.690   7.721   5.233
11496TIP3    H234430   1.651   7.603   5.320
11497TIP3   OH234431   3.936   3.250   1.535
11497TIP3    H134432   3.909   3.235   1.625
11497TIP3    H234433   4.029   3.228   1.534
11498TIP3   OH234434   0.195   2.224   1.283
11498TIP3    H134435   0.172   2.256   1.196
11498TIP3    H234436   0.226   2.134   1.268
11499TIP3   OH234437   7.467   7.234   1.253
11499TIP3    H134438   7.541   7.185   1.290
11499TIP3    H234439   7.401   7.234   1.322
11500TIP3   OH234440   0.282   2.617   4.995
11500TIP3    H134441   0.192   2.649   4.996
11500TIP3    H234442   0.275   2.527   4.964
11501TIP3   OH234443   3.766   5.999   4.697
11501TIP3    H134444   3.752   6.077   4.644
11501TIP3    H234445   3.679   5.962   4.709
11502TIP3   OH234446   1.603   4.267   5.061
11502TIP3    H134447   1.558   4.246   5.142
11502TIP3    H234448   1.610   4.184   5.015
11503TIP3   OH234449   1.956   5.191   4.681
11503TIP3    H134450   1.940   5.175   4.588
11503TIP3    H234451   1.898   5.130   4.727
11504TIP3   OH234452   8.049   7.829   3.705
11504TIP3    H134453   7.959   7.857   3.723
11504TIP3    H234454   8.072   7.775   3.781
11505TIP3   OH234455   4.518   4.993   1.978
11505TIP3    H134456   4.595   4.963   2.027
11505TIP3    H234457   4.550   5.068   1.929
11506TIP3   OH234458   6.235   3.857   5.336
11506TIP3    H134459   6.327   3.850   5.359
11506TIP3    H234460   6.189   3.864   5.420
11507TIP3   OH234461   5.301   0.616   1.939
11507TIP3    H134462   5.315   0.527   1.907
11507TIP3    H234463   5.222   0.610   1.992
11508TIP3   OH234464   1.946   3.875   0.954
11508TIP3    H134465   1.890   3.952   0.965
11508TIP3    H234466   1.990   3.865   1.039
11509TIP3   OH234467   4.709   0.636   5.852
11509TIP3    H134468   4.728   0.728   5.833
11509TIP3    H234469   4.748   0.620   5.937
11510TIP3   OH234470   2.579   3.810   4.933
11510TIP3    H134471   2.520   3.836   5.004
11510TIP3    H234472   2.656   3.775   4.978
11511TIP3   OH234473   1.823   1.356   3.887
11511TIP3    H134474   1.844   1.447   3.868
11511TIP3    H234475   1.743   1.359   3.940
11512TIP3   OH234476   5.921   7.745   3.516
11512TIP3    H134477   5.869   7.667   3.492
11512TIP3    H234478   6.006   7.709   3.542
11513TIP3   OH234479   8.112   0.875   0.362
11513TIP3    H134480   8.184   0.937   0.376
11513TIP3    H234481   8.122   0.810   0.431
11514TIP3   OH234482   3.945   4.989   2.109
11514TIP3    H134483   3.988   4.915   2.068
11514TIP3    H234484   3.889   4.951   2.177
11515TIP3   OH234485   7.536   3.948   3.634
11515TIP3    H134486   7.508   3.987   3.551
11515TIP3    H234487   7.556   3.857   3.612
11516TIP3   OH234488   5.769   0.848   3.442
11516TIP3    H134489   5.802   0.929   3.480
11516TIP3    H234490   5.845   0.790   3.439
11517TIP3   OH234491   5.401   0.122   6.058
11517TIP3    H134492   5.319   0.120   6.107
11517TIP3    H234493   5.461   0.068   6.109
11518TIP3   OH234494   5.567   3.425   6.088
11518TIP3    H134495   5.569   3.355   6.023
11518TIP3    H234496   5.614   3.498   6.047
11519TIP3   OH234497   4.070   5.784   3.381
11519TIP3    H134498   4.124   5.863   3.383
11519TIP3    H234499   4.071   5.751   3.471
11520TIP3   OH234500   7.689   4.167   3.760
11520TIP3    H134501   7.658   4.079   3.743
11520TIP3    H234502   7.687   4.175   3.855
11521TIP3   OH234503   3.554   7.451   1.703
11521TIP3    H134504   3.637   7.440   1.657
11521TIP3    H234505   3.488   7.425   1.640
11522TIP3   OH234506   6.803   2.683   1.249
11522TIP3    H134507   6.793   2.596   1.212
11522TIP3    H234508   6.773   2.674   1.340
11523TIP3   OH234509   3.808   0.011   2.474
11523TIP3    H134510   3.857  -0.037   2.408
11523TIP3    H234511   3.756   0.075   2.425
11524TIP3   OH234512   5.594   4.970   3.551
11524TIP3    H134513   5.506   4.954   3.517
11524TIP3    H234514   5.595   5.064   3.573
11525TIP3   OH234515   7.425   2.789   4.794
11525TIP3    H134516   7.497   2.815   4.737
11525TIP3    H234517   7.385   2.872   4.821
11526TIP3   OH234518   5.123   4.854   3.924
11526TIP3    H134519   5.197   4.852   3.863
11526TIP3    H234520   5.120   4.765   3.960
11527TIP3   OH234521   6.580   7.015   4.081
11527TIP3    H134522   6.640   7.062   4.023
11527TIP3    H234523   6.496   7.060   4.069
11528TIP3   OH234524   6.853   7.739   0.530
11528TIP3    H134525   6.775   7.731   0.475
11528TIP3    H234526   6.819   7.761   0.617
11529TIP3   OH234527   1.489   5.647   4.968
11529TIP3    H134528   1.517   5.672   5.056
11529TIP3    H234529   1.531   5.711   4.910
11530TIP3   OH234530   2.355   7.816   3.301
11530TIP3    H134531   2.357   7.722   3.321
11530TIP3    H234532   2.425   7.853   3.354
11531TIP3   OH234533   4.983   3.311   2.947
11531TIP3    H134534   4.923   3.256   2.897
11531TIP3    H234535   4.937   3.329   3.029
11532TIP3   OH234536   0.923   6.502   6.477
11532TIP3    H134537   0.988   6.512   6.547
11532TIP3    H234538   0.975   6.501   6.396
11533TIP3   OH234539   3.352   1.622   1.685
11533TIP3    H134540   3.374   1.535   1.649
11533TIP3    H234541   3.272   1.646   1.639
11534TIP3   OH234542   5.473   7.200   5.623
11534TIP3    H134543   5.520   7.244   5.693
11534TIP3    H234544   5.411   7.265   5.591
11535TIP3   OH234545   5.322   1.252   2.933
11535TIP3    H134546   5.317   1.185   3.001
11535TIP3    H234547   5.231   1.281   2.921
11536TIP3   OH234548   8.261   6.263   5.302
11536TIP3    H134549   8.335   6.259   5.241
11536TIP3    H234550   8.191   6.304   5.252
11537TIP3   OH234551   6.724   7.322   6.628
11537TIP3    H134552   6.664   7.373   6.574
11537TIP3    H234553   6.801   7.309   6.573
11538TIP3   OH234554   7.962   5.355   4.745
11538TIP3    H134555   7.945   5.445   4.719
11538TIP3    H234556   8.042   5.360   4.798
11539TIP3   OH234557   3.733   4.660   1.565
11539TIP3    H134558   3.642   4.662   1.596
11539TIP3    H234559   3.745   4.744   1.520
11540TIP3   OH234560   6.591   5.030   6.592
11540TIP3    H134561   6.499   5.027   6.569
11540TIP3    H234562   6.600   4.973   6.668
11541TIP3   OH234563   5.929   3.653   2.687
11541TIP3    H134564   5.848   3.675   2.732
11541TIP3    H234565   5.980   3.734   2.687
11542TIP3   OH234566   4.253   7.746   5.030
11542TIP3    H134567   4.181   7.808   5.040
11542TIP3    H234568   4.229   7.672   5.085
11543TIP3   OH234569   8.081   0.459   3.349
11543TIP3    H134570   8.070   0.518   3.274
11543TIP3    H234571   8.159   0.491   3.394
11544TIP3   OH234572   7.410   3.306   2.117
11544TIP3    H134573   7.370   3.374   2.171
11544TIP3    H234574   7.361   3.309   2.035
11545TIP3   OH234575   5.998   2.097   0.887
11545TIP3    H134576   6.025   2.179   0.846
11545TIP3    H234577   6.080   2.049   0.901
11546TIP3   OH234578   2.484   5.714   3.017
11546TIP3    H134579   2.466   5.668   3.099
11546TIP3    H234580   2.438   5.798   3.026
11547TIP3   OH234581   1.015   3.262   1.209
11547TIP3    H134582   1.105   3.281   1.236
11547TIP3    H234583   0.970   3.237   1.290
11548TIP3   OH234584   6.905   3.740   6.420
11548TIP3    H134585   6.902   3.656   6.374
11548TIP3    H234586   6.921   3.717   6.511
11549TIP3   OH234587   5.752   6.193   4.121
11549TIP3    H134588   5.837   6.180   4.163
11549TIP3    H234589   5.689   6.191   4.193
11550TIP3   OH234590   4.252   1.339   0.670
11550TIP3    H134591   4.312   1.322   0.742
11550TIP3    H234592   4.225   1.253   0.640
11551TIP3   OH234593   6.211   5.506   5.696
11551TIP3    H134594   6.239   5.591   5.729
11551TIP3    H234595   6.162   5.526   5.616
11552TIP3   OH234596   5.319   5.172   5.355
11552TIP3    H134597   5.314   5.207   5.267
11552TIP3    H234598   5.402   5.124   5.358
11553TIP3   OH234599   5.347   7.219   0.047
11553TIP3    H134600   5.383   7.134   0.019
11553TIP3    H234601   5.351   7.216   0.142
11554TIP3   OH234602   0.570   4.795   6.134
11554TIP3    H134603   0.642   4.832   6.185
11554TIP3    H234604   0.496   4.854   6.150
11555TIP3   OH234605   4.505   5.846   0.474
11555TIP3    H134606   4.488   5.938   0.453
11555TIP3    H234607   4.521   5.845   0.568
11556TIP3   OH234608   4.764   6.253   3.469
11556TIP3    H134609   4.800   6.182   3.416
11556TIP3    H234610   4.824   6.263   3.542
11557TIP3   OH234611   6.448   3.047   6.611
11557TIP3    H134612   6.499   3.068   6.532
11557TIP3    H234613   6.366   3.010   6.578
11558TIP3   OH234614   4.950   4.481   6.316
11558TIP3    H134615   4.984   4.485   6.406
11558TIP3    H234616   4.895   4.559   6.309
11559TIP3   OH234617   4.534   0.399   4.252
11559TIP3    H134618   4.585   0.336   4.202
11559TIP3    H234619   4.510   0.467   4.189
11560TIP3   OH234620   3.241   2.873   6.727
11560TIP3    H134621   3.234   2.798   6.668
11560TIP3    H234622   3.159   2.921   6.713
11561TIP3   OH234623   6.556   0.983   2.624
11561TIP3    H134624   6.482   0.923   2.616
11561TIP3    H234625   6.585   0.974   2.714
11562TIP3   OH234626   6.859   2.217   5.919
11562TIP3    H134627   6.914   2.154   5.966
11562TIP3    H234628   6.903   2.301   5.932
11563TIP3   OH234629   4.948   0.593   6.778
11563TIP3    H134630   4.923   0.516   6.728
11563TIP3    H234631   4.869   0.647   6.782
11564TIP3   OH234632   1.083   7.375   3.422
11564TIP3    H134633   1.105   7.468   3.427
11564TIP3    H234634   1.077   7.346   3.513
11565TIP3   OH234635   1.115   1.807   4.454
11565TIP3    H134636   1.176   1.743   4.491
11565TIP3    H234637   1.029   1.767   4.466
11566TIP3   OH234638   5.372   5.954   1.858
11566TIP3    H134639   5.361   6.020   1.926
11566TIP3    H234640   5.286   5.915   1.847
11567TIP3   OH234641   3.930   2.276   2.257
11567TIP3    H134642   3.933   2.300   2.165
11567TIP3    H234643   3.988   2.339   2.301
11568TIP3   OH234644   2.691   5.310   6.416
11568TIP3    H134645   2.742   5.307   6.497
11568TIP3    H234646   2.604   5.277   6.440
11569TIP3   OH234647   6.137   2.073   4.238
11569TIP3    H134648   6.100   2.074   4.150
11569TIP3    H234649   6.226   2.039   4.225
11570TIP3   OH234650   3.297   1.175   3.466
11570TIP3    H134651   3.379   1.194   3.513
11570TIP3    H234652   3.234   1.237   3.504
11571TIP3   OH234653   3.498   1.805   2.533
11571TIP3    H134654   3.551   1.758   2.468
11571TIP3    H234655   3.516   1.897   2.517
11572TIP3   OH234656   7.427   3.216   4.563
11572TIP3    H134657   7.378   3.137   4.538
11572TIP3    H234658   7.491   3.186   4.627
11573TIP3   OH234659  -0.004   1.711   6.112
11573TIP3    H134660   0.056   1.783   6.129
11573TIP3    H234661   0.047   1.632   6.133
11574TIP3   OH234662   1.360   2.657   0.513
11574TIP3    H134663   1.430   2.637   0.574
11574TIP3    H234664   1.366   2.752   0.499
11575TIP3   OH234665   1.665   7.341   1.475
11575TIP3    H134666   1.757   7.315   1.473
11575TIP3    H234667   1.617   7.259   1.479
11576TIP3   OH234668   1.242   3.964   0.891
11576TIP3    H134669   1.172   3.944   0.829
11576TIP3    H234670   1.205   3.942   0.977
11577TIP3   OH234671   7.256   3.466   4.571
11577TIP3    H134672   7.238   3.498   4.483
11577TIP3    H234673   7.312   3.389   4.558
11578TIP3   OH234674   0.563   3.226   4.029
11578TIP3    H134675   0.618   3.235   4.107
11578TIP3    H234676   0.486   3.178   4.059
11579TIP3   OH234677   4.904   0.176   3.579
11579TIP3    H134678   4.887   0.090   3.618
11579TIP3    H234679   4.996   0.194   3.600
11580TIP3   OH234680   5.962   5.383   0.194
11580TIP3    H134681   6.040   5.429   0.225
11580TIP3    H234682   5.914   5.449   0.142
11581TIP3   OH234683   5.525   0.252   4.885
11581TIP3    H134684   5.536   0.183   4.950
11581TIP3    H234685   5.434   0.242   4.855
11582TIP3   OH234686   0.268   4.703   2.400
11582TIP3    H134687   0.338   4.640   2.416
11582TIP3    H234688   0.279   4.769   2.469
11583TIP3   OH234689   2.275   6.705   0.914
11583TIP3    H134690   2.358   6.697   0.961
11583TIP3    H234691   2.216   6.746   0.977
11584TIP3   OH234692   1.269   5.676   1.614
11584TIP3    H134693   1.246   5.769   1.625
11584TIP3    H234694   1.359   5.677   1.583
11585TIP3   OH234695   1.117   1.366   4.754
11585TIP3    H134696   1.033   1.392   4.792
11585TIP3    H234697   1.112   1.394   4.663
11586TIP3   OH234698   1.156   4.155   2.863
11586TIP3    H134699   1.198   4.238   2.844
11586TIP3    H234700   1.174   4.100   2.787
11587TIP3   OH234701   1.434   5.889   2.846
11587TIP3    H134702   1.519   5.865   2.810
11587TIP3    H234703   1.420   5.979   2.816
11588TIP3   OH234704   1.543   7.787   5.757
11588TIP3    H134705   1.534   7.799   5.851
11588TIP3    H234706   1.630   7.749   5.745
11589TIP3   OH234707   3.169   3.595   6.358
11589TIP3    H134708   3.194   3.627   6.445
11589TIP3    H234709   3.224   3.643   6.297
11590TIP3   OH234710   3.034   4.191   4.933
11590TIP3    H134711   3.078   4.218   5.014
11590TIP3    H234712   3.094   4.128   4.893
11591TIP3   OH234713   0.737   5.943   2.824
11591TIP3    H134714   0.800   5.914   2.890
11591TIP3    H234715   0.687   6.012   2.868
11592TIP3   OH234716   1.585   2.558   5.115
11592TIP3    H134717   1.647   2.623   5.081
11592TIP3    H234718   1.499   2.600   5.105
11593TIP3   OH234719   1.785   3.529   3.598
11593TIP3    H134720   1.874   3.508   3.625
11593TIP3    H234721   1.768   3.614   3.638
11594TIP3   OH234722   3.433   5.675   1.695
11594TIP3    H134723   3.527   5.682   1.684
11594TIP3    H234724   3.399   5.760   1.667
11595TIP3   OH234725   7.471   2.732   4.034
11595TIP3    H134726   7.379   2.706   4.038
11595TIP3    H234727   7.469   2.826   4.018
11596TIP3   OH234728   1.341   0.500   0.512
11596TIP3    H134729   1.367   0.564   0.578
11596TIP3    H234730   1.357   0.544   0.429
11597TIP3   OH234731   7.054   1.137   5.335
11597TIP3    H134732   7.041   1.202   5.266
11597TIP3    H234733   7.072   1.055   5.289
11598TIP3   OH234734   6.948   5.615   5.849
11598TIP3    H134735   6.945   5.707   5.875
11598TIP3    H234736   7.032   5.606   5.803
11599TIP3   OH234737   3.337   1.668   0.308
11599TIP3    H134738   3.246   1.677   0.337
11599TIP3    H234739   3.388   1.708   0.379
11600TIP3   OH234740   4.407   6.383   0.315
11600TIP3    H134741   4.410   6.299   0.269
11600TIP3    H234742   4.495   6.419   0.305
11601TIP3   OH234743   0.139   2.939   3.085
11601TIP3    H134744   0.049   2.910   3.067
11601TIP3    H234745   0.129   3.031   3.109
11602TIP3   OH234746   6.180   4.015   4.679
11602TIP3    H134747   6.263   4.052   4.649
11602TIP3    H234748   6.127   4.007   4.600
11603TIP3   OH234749   2.529   3.527   2.908
11603TIP3    H134750   2.530   3.462   2.978
11603TIP3    H234751   2.509   3.476   2.829
11604TIP3   OH234752   3.236   0.038   5.913
11604TIP3    H134753   3.325   0.074   5.908
11604TIP3    H234754   3.194   0.068   5.832
11605TIP3   OH234755   0.665   5.450   4.894
11605TIP3    H134756   0.674   5.363   4.856
11605TIP3    H234757   0.699   5.509   4.826
11606TIP3   OH234758   1.336   3.645   0.124
11606TIP3    H134759   1.406   3.621   0.064
11606TIP3    H234760   1.272   3.690   0.070
11607TIP3   OH234761   5.360   4.042   2.104
11607TIP3    H134762   5.412   4.114   2.068
11607TIP3    H234763   5.333   3.992   2.027
11608TIP3   OH234764   4.866   2.567   5.652
11608TIP3    H134765   4.847   2.485   5.606
11608TIP3    H234766   4.799   2.572   5.720
11609TIP3   OH234767   5.220   4.319   3.745
11609TIP3    H134768   5.134   4.305   3.705
11609TIP3    H234769   5.227   4.252   3.813
11610TIP3   OH234770   1.091   4.383   0.897
11610TIP3    H134771   1.147   4.316   0.935
11610TIP3    H234772   1.030   4.406   0.967
11611TIP3   OH234773   7.820   4.548   5.674
11611TIP3    H134774   7.735   4.591   5.682
11611TIP3    H234775   7.830   4.498   5.755
11612TIP3   OH234776   4.583   3.449   1.985
11612TIP3    H134777   4.501   3.405   2.003
11612TIP3    H234778   4.563   3.508   1.912
11613TIP3   OH234779   5.364   1.734   2.233
11613TIP3    H134780   5.444   1.786   2.234
11613TIP3    H234781   5.394   1.644   2.251
11614TIP3   OH234782   4.824   0.552   5.315
11614TIP3    H134783   4.902   0.573   5.367
11614TIP3    H234784   4.764   0.511   5.377
11615TIP3   OH234785   0.935   6.538   4.703
11615TIP3    H134786   0.923   6.451   4.742
11615TIP3    H234787   0.977   6.590   4.772
11616TIP3   OH234788   4.693   1.373   5.862
11616TIP3    H134789   4.640   1.307   5.905
11616TIP3    H234790   4.630   1.436   5.827
11617TIP3   OH234791   2.474   0.286   5.705
11617TIP3    H134792   2.446   0.364   5.657
11617TIP3    H234793   2.569   0.284   5.694
11618TIP3   OH234794   3.439   2.385   0.639
11618TIP3    H134795   3.353   2.396   0.681
11618TIP3    H234796   3.500   2.376   0.712
11619TIP3   OH234797   2.374   4.190   4.148
11619TIP3    H134798   2.428   4.113   4.133
11619TIP3    H234799   2.406   4.226   4.231
11620TIP3   OH234800   0.716   7.901   2.223
11620TIP3    H134801   0.748   7.963   2.157
11620TIP3    H234802   0.730   7.815   2.184
11621TIP3   OH234803   7.660   5.050   5.069
11621TIP3    H134804   7.590   5.013   5.016
11621TIP3    H234805   7.631   5.036   5.159
11622TIP3   OH234806   7.944   0.908   0.699
11622TIP3    H134807   7.953   0.972   0.769
11622TIP3    H234808   7.987   0.829   0.734
11623TIP3   OH234809   2.957   6.869   5.131
11623TIP3    H134810   3.003   6.923   5.066
11623TIP3    H234811   3.017   6.865   5.206
11624TIP3   OH234812   2.939   0.384   4.282
11624TIP3    H134813   2.929   0.382   4.377
11624TIP3    H234814   2.852   0.368   4.248
11625TIP3   OH234815   2.293   1.739   0.501
11625TIP3    H134816   2.378   1.730   0.456
11625TIP3    H234817   2.304   1.691   0.583
11626TIP3   OH234818   2.118   6.537   2.508
11626TIP3    H134819   2.045   6.562   2.565
11626TIP3    H234820   2.195   6.576   2.549
11627TIP3   OH234821   0.315   5.446   0.179
11627TIP3    H134822   0.275   5.461   0.093
11627TIP3    H234823   0.400   5.406   0.159
11628TIP3   OH234824   7.822   0.647   3.501
11628TIP3    H134825   7.904   0.608   3.530
11628TIP3    H234826   7.835   0.663   3.408
11629TIP3   OH234827   3.851   3.340   5.288
11629TIP3    H134828   3.867   3.335   5.382
11629TIP3    H234829   3.783   3.274   5.272
11630TIP3   OH234830   5.963   0.645   3.406
11630TIP3    H134831   5.950   0.596   3.325
11630TIP3    H234832   6.029   0.594   3.455
11631TIP3   OH234833   0.374   6.593   6.671
11631TIP3    H134834   0.373   6.647   6.750
11631TIP3    H234835   0.369   6.655   6.599
11632TIP3   OH234836   3.829   3.146   2.902
11632TIP3    H134837   3.864   3.060   2.878
11632TIP3    H234838   3.756   3.127   2.960
11633TIP3   OH234839   2.545   1.847   0.633
11633TIP3    H134840   2.465   1.836   0.684
11633TIP3    H234841   2.588   1.761   0.637
11634TIP3   OH234842   4.932   3.120   4.103
11634TIP3    H134843   5.023   3.108   4.128
11634TIP3    H234844   4.882   3.100   4.182
11635TIP3   OH234845   0.968   5.621   4.988
11635TIP3    H134846   1.053   5.611   5.031
11635TIP3    H234847   0.966   5.551   4.923
11636TIP3   OH234848   0.064   6.317   0.458
11636TIP3    H134849   0.127   6.378   0.419
11636TIP3    H234850   0.102   6.230   0.443
11637TIP3   OH234851   1.739   4.856   6.711
11637TIP3    H134852   1.700   4.804   6.641
11637TIP3    H234853   1.665   4.899   6.753
11638TIP3   OH234854   5.055   2.406   2.748
11638TIP3    H134855   5.036   2.318   2.782
11638TIP3    H234856   5.027   2.403   2.657
11639TIP3   OH234857   2.562   2.234   1.451
11639TIP3    H134858   2.564   2.298   1.381
11639TIP3    H234859   2.528   2.282   1.527
11640TIP3   OH234860   2.462   5.651   5.094
11640TIP3    H134861   2.512   5.693   5.024
11640TIP3    H234862   2.396   5.716   5.119
11641TIP3   OH234863   0.397   7.665   5.228
11641TIP3    H134864   0.384   7.624   5.314
11641TIP3    H234865   0.416   7.592   5.170
11642TIP3   OH234866   5.131   2.909   3.830
11642TIP3    H134867   5.143   2.816   3.847
11642TIP3    H234868   5.197   2.952   3.885
11643TIP3   OH234869   5.486   7.194   1.126
11643TIP3    H134870   5.552   7.235   1.183
11643TIP3    H234871   5.402   7.226   1.160
11644TIP3   OH234872   7.077   3.670   4.153
11644TIP3    H134873   7.056   3.728   4.080
11644TIP3    H234874   7.032   3.710   4.228
11645TIP3   OH234875   6.755   5.323   2.403
11645TIP3    H134876   6.669   5.350   2.436
11645TIP3    H234877   6.758   5.229   2.418
11646TIP3   OH234878   3.302   6.600   3.733
11646TIP3    H134879   3.380   6.656   3.734
11646TIP3    H234880   3.237   6.650   3.684
11647TIP3   OH234881   0.492   7.034   3.895
11647TIP3    H134882   0.451   7.112   3.932
11647TIP3    H234883   0.545   7.066   3.823
11648TIP3   OH234884   2.932   2.651   0.724
11648TIP3    H134885   3.022   2.619   0.732
11648TIP3    H234886   2.907   2.633   0.633
11649TIP3   OH234887   5.049   6.120   2.915
11649TIP3    H134888   4.973   6.063   2.926
11649TIP3    H234889   5.062   6.125   2.820
11650TIP3   OH234890   6.218   0.547   2.415
11650TIP3    H134891   6.254   0.460   2.433
11650TIP3    H234892   6.286   0.591   2.363
11651TIP3   OH234893   1.119   6.684   0.040
11651TIP3    H134894   1.040   6.673   0.093
11651TIP3    H234895   1.186   6.633   0.085
11652TIP3   OH234896   2.095   2.846   1.337
11652TIP3    H134897   2.017   2.790   1.325
11652TIP3    H234898   2.059   2.931   1.360
11653TIP3   OH234899   5.637   6.494   2.941
11653TIP3    H134900   5.661   6.476   3.031
11653TIP3    H234901   5.659   6.587   2.928
11654TIP3   OH234902   2.362   6.603   3.114
11654TIP3    H134903   2.402   6.608   3.200
11654TIP3    H234904   2.268   6.605   3.131
11655TIP3   OH234905   6.608   5.479   0.964
11655TIP3    H134906   6.619   5.574   0.962
11655TIP3    H234907   6.688   5.445   0.924
11656TIP3   OH234908   0.288   1.682   2.881
11656TIP3    H134909   0.358   1.741   2.909
11656TIP3    H234910   0.230   1.675   2.957
11657TIP3   OH234911   5.089   0.704   0.081
11657TIP3    H134912   5.170   0.666   0.113
11657TIP3    H234913   5.116   0.783   0.034
11658TIP3   OH234914   0.991   4.715   0.722
11658TIP3    H134915   1.002   4.753   0.809
11658TIP3    H234916   1.078   4.683   0.698
11659TIP3   OH234917   3.728   4.514   4.523
11659TIP3    H134918   3.707   4.460   4.599
11659TIP3    H234919   3.642   4.541   4.489
11660TIP3   OH234920   5.895   2.626   4.634
11660TIP3    H134921   5.815   2.675   4.616
11660TIP3    H234922   5.881   2.588   4.721
11661TIP3   OH234923   7.657   6.561   0.343
11661TIP3    H134924   7.669   6.515   0.426
11661TIP3    H234925   7.564   6.552   0.323
11662TIP3   OH234926   7.698   2.367   1.327
11662TIP3    H134927   7.780   2.325   1.302
11662TIP3    H234928   7.702   2.372   1.423
11663TIP3   OH234929   4.299   4.815   5.491
11663TIP3    H134930   4.306   4.826   5.586
11663TIP3    H234931   4.380   4.851   5.456
11664TIP3   OH234932   4.011   1.194   2.361
11664TIP3    H134933   3.919   1.174   2.343
11664TIP3    H234934   4.041   1.242   2.284
11665TIP3   OH234935   0.292   6.143   1.826
11665TIP3    H134936   0.216   6.098   1.790
11665TIP3    H234937   0.255   6.203   1.891
11666TIP3   OH234938   6.045   3.305   6.773
11666TIP3    H134939   6.092   3.269   6.698
11666TIP3    H234940   6.111   3.309   6.843
11667TIP3   OH234941   1.777   1.310   1.744
11667TIP3    H134942   1.839   1.371   1.785
11667TIP3    H234943   1.821   1.282   1.664
11668TIP3   OH234944   5.209   2.016   5.901
11668TIP3    H134945   5.218   2.054   5.813
11668TIP3    H234946   5.127   2.053   5.934
11669TIP3   OH234947   5.587   1.447   3.620
11669TIP3    H134948   5.576   1.541   3.638
11669TIP3    H234949   5.681   1.433   3.623
11670TIP3   OH234950   0.644   5.477   1.236
11670TIP3    H134951   0.676   5.387   1.236
11670TIP3    H234952   0.624   5.494   1.144
11671TIP3   OH234953   5.196   4.483   0.200
11671TIP3    H134954   5.142   4.450   0.271
11671TIP3    H234955   5.157   4.448   0.120
11672TIP3   OH234956   0.377   6.230   0.236
11672TIP3    H134957   0.340   6.201   0.153
11672TIP3    H234958   0.350   6.321   0.245
11673TIP3   OH234959   6.051   4.354   6.673
11673TIP3    H134960   6.046   4.321   6.763
11673TIP3    H234961   6.132   4.317   6.638
11674TIP3   OH234962   6.923   3.757   1.202
11674TIP3    H134963   6.828   3.756   1.195
11674TIP3    H234964   6.953   3.814   1.131
11675TIP3   OH234965   4.235   5.603   1.131
11675TIP3    H134966   4.325   5.573   1.137
11675TIP3    H234967   4.236   5.692   1.164
11676TIP3   OH234968   7.774   6.678   1.252
11676TIP3    H134969   7.724   6.704   1.175
11676TIP3    H234970   7.834   6.611   1.221
11677TIP3   OH234971   2.604   3.960   5.226
11677TIP3    H134972   2.630   3.977   5.317
11677TIP3    H234973   2.516   3.924   5.232
11678TIP3   OH234974   0.359   1.026   5.372
11678TIP3    H134975   0.345   0.933   5.357
11678TIP3    H234976   0.294   1.049   5.439
11679TIP3   OH234977   8.400   4.414   5.415
11679TIP3    H134978   8.313   4.376   5.405
11679TIP3    H234979   8.455   4.342   5.445
11680TIP3   OH234980   6.268   7.898   2.967
11680TIP3    H134981   6.255   7.917   2.874
11680TIP3    H234982   6.194   7.843   2.991
11681TIP3   OH234983   8.253   1.108   2.704
11681TIP3    H134984   8.170   1.155   2.696
11681TIP3    H234985   8.230   1.016   2.689
11682TIP3   OH234986   3.559   0.955   2.083
11682TIP3    H134987   3.573   0.862   2.104
11682TIP3    H234988   3.536   0.955   1.990
11683TIP3   OH234989   0.813   1.868   2.335
11683TIP3    H134990   0.766   1.785   2.336
11683TIP3    H234991   0.776   1.917   2.261
11684TIP3   OH234992   6.994   1.270   5.099
11684TIP3    H134993   6.988   1.196   5.038
11684TIP3    H234994   7.012   1.346   5.044
11685TIP3   OH234995   7.340   5.936   1.116
11685TIP3    H134996   7.294   5.928   1.033
11685TIP3    H234997   7.352   6.030   1.129
11686TIP3   OH234998   6.028   0.330   1.192
11686TIP3    H134999   6.021   0.399   1.126
11686TIP3    H235000   5.948   0.338   1.245
11687TIP3   OH235001   5.656   2.352   2.122
11687TIP3    H135002   5.566   2.329   2.095
11687TIP3    H235003   5.663   2.445   2.105
11688TIP3   OH235004   5.851   1.879   3.191
11688TIP3    H135005   5.936   1.839   3.175
11688TIP3    H235006   5.788   1.814   3.162
11689TIP3   OH235007   6.688   3.398   1.376
11689TIP3    H135008   6.599   3.399   1.411
11689TIP3    H235009   6.740   3.441   1.444
11690TIP3   OH235010   6.616   7.152   5.690
11690TIP3    H135011   6.673   7.161   5.767
11690TIP3    H235012   6.676   7.140   5.617
11691TIP3   OH235013   1.986   2.193   2.090
11691TIP3    H135014   2.003   2.113   2.040
11691TIP3    H235015   1.913   2.170   2.147
11692TIP3   OH235016   1.796   0.080   4.568
11692TIP3    H135017   1.887   0.109   4.563
11692TIP3    H235018   1.760   0.097   4.481
11693TIP3   OH235019   6.517   4.062   5.980
11693TIP3    H135020   6.458   4.109   6.039
11693TIP3    H235021   6.593   4.120   5.971
11694TIP3   OH235022   1.731   3.658   2.413
11694TIP3    H135023   1.656   3.702   2.373
11694TIP3    H235024   1.692   3.595   2.474
11695TIP3   OH235025   5.388   7.408   3.173
11695TIP3    H135026   5.307   7.452   3.149
11695TIP3    H235027   5.384   7.401   3.269
11696TIP3   OH235028   3.613   0.485   1.677
11696TIP3    H135029   3.523   0.496   1.708
11696TIP3    H235030   3.658   0.440   1.749
11697TIP3   OH235031   3.742   0.927   3.837
11697TIP3    H135032   3.771   0.953   3.750
11697TIP3    H235033   3.750   1.006   3.890
11698TIP3   OH235034   7.517   2.922   3.476
11698TIP3    H135035   7.463   2.860   3.427
11698TIP3    H235036   7.458   2.993   3.498
11699TIP3   OH235037   4.175   6.151   5.060
11699TIP3    H135038   4.163   6.246   5.065
11699TIP3    H235039   4.159   6.129   4.968
11700TIP3   OH235040   2.253   3.826   6.768
11700TIP3    H135041   2.205   3.774   6.832
11700TIP3    H235042   2.186   3.855   6.706
11701TIP3   OH235043   2.282   0.233   3.183
11701TIP3    H135044   2.200   0.245   3.229
11701TIP3    H235045   2.348   0.277   3.237
11702TIP3   OH235046   2.707   4.664   2.305
11702TIP3    H135047   2.636   4.662   2.241
11702TIP3    H235048   2.736   4.573   2.312
11703TIP3   OH235049   7.331   6.856   6.050
11703TIP3    H135050   7.246   6.837   6.090
11703TIP3    H235051   7.395   6.826   6.114
11704TIP3   OH235052   1.557   4.256   0.555
11704TIP3    H135053   1.538   4.350   0.558
11704TIP3    H235054   1.652   4.250   0.568
11705TIP3   OH235055   5.375   2.433   0.098
11705TIP3    H135056   5.400   2.399   0.184
11705TIP3    H235057   5.426   2.381   0.036
11706TIP3   OH235058   1.609   7.642   0.969
11706TIP3    H135059   1.614   7.722   0.917
11706TIP3    H235060   1.527   7.600   0.940
11707TIP3   OH235061   2.083   0.191   6.286
11707TIP3    H135062   2.034   0.262   6.329
11707TIP3    H235063   2.149   0.236   6.234
11708TIP3   OH235064   4.288   6.751   5.406
11708TIP3    H135065   4.231   6.692   5.456
11708TIP3    H235066   4.357   6.775   5.467
11709TIP3   OH235067   2.815   4.098   6.181
11709TIP3    H135068   2.778   4.025   6.232
11709TIP3    H235069   2.908   4.098   6.204
11710TIP3   OH235070   3.832   2.982   6.749
11710TIP3    H135071   3.804   2.891   6.740
11710TIP3    H235072   3.782   3.015   6.824
11711TIP3   OH235073   0.029   2.945   5.892
11711TIP3    H135074  -0.044   2.884   5.898
11711TIP3    H235075   0.105   2.890   5.874
11712TIP3   OH235076   7.267   7.315   6.443
11712TIP3    H135077   7.187   7.285   6.484
11712TIP3    H235078   7.319   7.352   6.515
11713TIP3   OH235079   1.528   3.123   6.690
11713TIP3    H135080   1.481   3.045   6.662
11713TIP3    H235081   1.533   3.116   6.785
11714TIP3   OH235082   6.791   0.054   0.133
11714TIP3    H135083   6.794   0.023   0.043
11714TIP3    H235084   6.742  -0.014   0.180
11715TIP3   OH235085   1.916   5.721   6.387
11715TIP3    H135086   1.950   5.800   6.431
11715TIP3    H235087   1.851   5.755   6.325
11716TIP3   OH235088   0.842   1.327   0.771
11716TIP3    H135089   0.921   1.365   0.810
11716TIP3    H235090   0.794   1.290   0.846
11717TIP3   OH235091   1.573   3.469   3.429
11717TIP3    H135092   1.651   3.492   3.479
11717TIP3    H235093   1.593   3.498   3.340
11718TIP3   OH235094   5.874   2.865   6.412
11718TIP3    H135095   5.845   2.855   6.503
11718TIP3    H235096   5.943   2.800   6.401
11719TIP3   OH235097   5.463   1.428   0.691
11719TIP3    H135098   5.505   1.505   0.730
11719TIP3    H235099   5.455   1.450   0.599
11720TIP3   OH235100   1.936   4.685   4.640
11720TIP3    H135101   1.901   4.608   4.597
11720TIP3    H235102   1.933   4.665   4.734
11721TIP3   OH235103   0.554   3.292   4.500
11721TIP3    H135104   0.551   3.204   4.462
11721TIP3    H235105   0.583   3.279   4.590
11722TIP3   OH235106   7.697   7.050   6.108
11722TIP3    H135107   7.676   7.140   6.082
11722TIP3    H235108   7.642   7.034   6.185
11723TIP3   OH235109   0.009   1.073   0.404
11723TIP3    H135110   0.012   0.987   0.362
11723TIP3    H235111  -0.059   1.121   0.357
11724TIP3   OH235112   4.073   2.789   3.879
11724TIP3    H135113   4.108   2.819   3.963
11724TIP3    H235114   4.078   2.866   3.822
11725TIP3   OH235115   4.229   7.576   5.537
11725TIP3    H135116   4.192   7.651   5.583
11725TIP3    H235117   4.167   7.557   5.467
11726TIP3   OH235118   7.176   1.681   6.094
11726TIP3    H135119   7.202   1.750   6.033
11726TIP3    H235120   7.198   1.599   6.050
11727TIP3   OH235121   1.056   7.176   5.397
11727TIP3    H135122   1.141   7.152   5.359
11727TIP3    H235123   1.007   7.093   5.399
11728TIP3   OH235124   5.069   4.831   5.765
11728TIP3    H135125   5.090   4.921   5.786
11728TIP3    H235126   4.984   4.836   5.721
11729TIP3   OH235127   5.986   2.875   2.019
11729TIP3    H135128   5.973   2.931   2.096
11729TIP3    H235129   6.007   2.789   2.056
11730TIP3   OH235130   6.538   4.271   1.360
11730TIP3    H135131   6.547   4.186   1.402
11730TIP3    H235132   6.509   4.251   1.271
11731TIP3   OH235133   7.006   5.827   2.516
11731TIP3    H135134   7.042   5.740   2.534
11731TIP3    H235135   7.004   5.870   2.601
11732TIP3   OH235136   1.729   4.114   2.892
11732TIP3    H135137   1.659   4.049   2.886
11732TIP3    H235138   1.805   4.065   2.920
11733TIP3   OH235139   0.748   0.271   0.711
11733TIP3    H135140   0.788   0.223   0.783
11733TIP3    H235141   0.741   0.206   0.641
11734TIP3   OH235142   5.623   4.315   5.501
11734TIP3    H135143   5.615   4.404   5.536
11734TIP3    H235144   5.532   4.288   5.484
11735TIP3   OH235145   3.707   6.396   0.034
11735TIP3    H135146   3.674   6.376  -0.053
11735TIP3    H235147   3.649   6.467   0.065
11736TIP3   OH235148   7.236   6.718   5.284
11736TIP3    H135149   7.236   6.715   5.380
11736TIP3    H235150   7.328   6.729   5.260
11737TIP3   OH235151   0.745   0.275   1.905
11737TIP3    H135152   0.791   0.277   1.821
11737TIP3    H235153   0.800   0.218   1.960
11738TIP3   OH235154   3.592   2.943   4.089
11738TIP3    H135155   3.600   3.038   4.102
11738TIP3    H235156   3.548   2.934   4.004
11739TIP3   OH235157   4.043   4.323   6.464
11739TIP3    H135158   3.960   4.353   6.500
11739TIP3    H235159   4.024   4.307   6.371
11740TIP3   OH235160   2.569   3.348   0.164
11740TIP3    H135161   2.502   3.416   0.150
11740TIP3    H235162   2.650   3.387   0.132
11741TIP3   OH235163   5.344   6.185   2.454
11741TIP3    H135164   5.290   6.263   2.451
11741TIP3    H235165   5.421   6.207   2.401
11742TIP3   OH235166   6.143   1.541   2.973
11742TIP3    H135167   6.145   1.516   2.880
11742TIP3    H235168   6.146   1.458   3.020
11743TIP3   OH235169   7.083   3.514   6.689
11743TIP3    H135170   7.105   3.474   6.605
11743TIP3    H235171   7.030   3.448   6.733
11744TIP3   OH235172   1.809   6.494   5.883
11744TIP3    H135173   1.808   6.490   5.787
11744TIP3    H235174   1.750   6.425   5.910
11745TIP3   OH235175   6.065   1.880   2.385
11745TIP3    H135176   6.089   1.790   2.367
11745TIP3    H235177   6.018   1.908   2.307
11746TIP3   OH235178   3.392   6.101   3.136
11746TIP3    H135179   3.459   6.038   3.110
11746TIP3    H235180   3.380   6.086   3.230
11747TIP3   OH235181   5.337   2.280   1.444
11747TIP3    H135182   5.257   2.258   1.491
11747TIP3    H235183   5.407   2.261   1.507
11748TIP3   OH235184   2.155   3.812   0.087
11748TIP3    H135185   2.153   3.786   0.180
11748TIP3    H235186   2.063   3.812   0.061
11749TIP3   OH235187   2.931   6.285   3.534
11749TIP3    H135188   2.921   6.190   3.532
11749TIP3    H235189   2.910   6.308   3.625
11750TIP3   OH235190   6.044   5.688   2.167
11750TIP3    H135191   5.973   5.721   2.112
11750TIP3    H235192   6.072   5.607   2.125
11751TIP3   OH235193   7.529   4.610   1.171
11751TIP3    H135194   7.463   4.674   1.143
11751TIP3    H235195   7.566   4.647   1.251
11752TIP3   OH235196   0.512   6.811   6.102
11752TIP3    H135197   0.544   6.901   6.098
11752TIP3    H235198   0.586   6.761   6.136
11753TIP3   OH235199   3.459   7.171   6.517
11753TIP3    H135200   3.436   7.114   6.443
11753TIP3    H235201   3.536   7.220   6.486
11754TIP3   OH235202   5.252   5.746   2.489
11754TIP3    H135203   5.313   5.806   2.445
11754TIP3    H235204   5.309   5.682   2.532
11755TIP3   OH235205   0.810   1.877   5.331
11755TIP3    H135206   0.818   1.783   5.345
11755TIP3    H235207   0.736   1.885   5.270
11756TIP3   OH235208   2.426   4.024   2.589
11756TIP3    H135209   2.435   4.118   2.602
11756TIP3    H235210   2.408   4.014   2.495
11757TIP3   OH235211   7.940   4.759   2.372
11757TIP3    H135212   7.906   4.847   2.362
11757TIP3    H235213   7.914   4.714   2.292
11758TIP3   OH235214   7.179   2.963   5.654
11758TIP3    H135215   7.092   2.968   5.693
11758TIP3    H235216   7.230   2.913   5.717
11759TIP3   OH235217   7.272   5.307   2.161
11759TIP3    H135218   7.206   5.363   2.202
11759TIP3    H235219   7.297   5.246   2.230
11760TIP3   OH235220   4.470   0.567   4.033
11760TIP3    H135221   4.530   0.562   3.959
11760TIP3    H235222   4.395   0.618   4.001
11761TIP3   OH235223   6.763   7.211   1.994
11761TIP3    H135224   6.721   7.263   2.063
11761TIP3    H235225   6.726   7.246   1.913
11762TIP3   OH235226   2.469   3.951   4.077
11762TIP3    H135227   2.492   3.911   3.994
11762TIP3    H235228   2.407   3.889   4.117
11763TIP3   OH235229   7.973   3.820   0.427
11763TIP3    H135230   7.900   3.814   0.488
11763TIP3    H235231   8.021   3.738   0.438
11764TIP3   OH235232   3.256   7.186   4.146
11764TIP3    H135233   3.227   7.117   4.085
11764TIP3    H235234   3.272   7.262   4.090
11765TIP3   OH235235   0.235   5.838   0.220
11765TIP3    H135236   0.317   5.792   0.234
11765TIP3    H235237   0.185   5.823   0.300
11766TIP3   OH235238   1.296   2.659   0.886
11766TIP3    H135239   1.223   2.697   0.838
11766TIP3    H235240   1.371   2.667   0.827
11767TIP3   OH235241   5.370   6.466   5.306
11767TIP3    H135242   5.327   6.384   5.281
11767TIP3    H235243   5.298   6.526   5.326
11768TIP3   OH235244   7.487   2.808   5.416
11768TIP3    H135245   7.435   2.778   5.491
11768TIP3    H235246   7.559   2.857   5.455
11769TIP3   OH235247   0.745   6.083   6.258
11769TIP3    H135248   0.759   6.178   6.264
11769TIP3    H235249   0.670   6.074   6.200
11770TIP3   OH235250   6.992   6.396   1.926
11770TIP3    H135251   6.964   6.390   2.017
11770TIP3    H235252   7.052   6.471   1.925
11771TIP3   OH235253   1.459   3.732   0.837
11771TIP3    H135254   1.392   3.744   0.904
11771TIP3    H235255   1.416   3.761   0.756
11772TIP3   OH235256   4.417   0.305   3.711
11772TIP3    H135257   4.444   0.316   3.620
11772TIP3    H235258   4.396   0.393   3.741
11773TIP3   OH235259   4.847   0.897   1.461
11773TIP3    H135260   4.854   0.840   1.537
11773TIP3    H235261   4.753   0.913   1.451
11774TIP3   OH235262   2.600   3.890   6.013
11774TIP3    H135263   2.606   3.824   6.082
11774TIP3    H235264   2.552   3.962   6.053
11775TIP3   OH235265   6.048   1.813   3.631
11775TIP3    H135266   6.097   1.831   3.711
11775TIP3    H235267   6.013   1.899   3.605
11776TIP3   OH235268   4.673   0.267   2.057
11776TIP3    H135269   4.661   0.289   2.150
11776TIP3    H235270   4.630   0.338   2.010
11777TIP3   OH235271   3.928   0.391   2.645
11777TIP3    H135272   4.019   0.415   2.661
11777TIP3    H235273   3.897   0.454   2.579
11778TIP3   OH235274   0.923   3.612   3.704
11778TIP3    H135275   0.925   3.561   3.623
11778TIP3    H235276   0.839   3.590   3.744
11779TIP3   OH235277   3.441   0.967   4.890
11779TIP3    H135278   3.492   0.886   4.882
11779TIP3    H235279   3.435   0.983   4.984
11780TIP3   OH235280   0.376   7.216   4.150
11780TIP3    H135281   0.321   7.181   4.220
11780TIP3    H235282   0.326   7.291   4.116
11781TIP3   OH235283   7.999   2.480   4.634
11781TIP3    H135284   7.999   2.401   4.688
11781TIP3    H235285   7.909   2.487   4.601
11782TIP3   OH235286   6.000   3.662   0.539
11782TIP3    H135287   5.940   3.632   0.606
11782TIP3    H235288   6.087   3.634   0.569
11783TIP3   OH235289   4.320   3.833   3.996
11783TIP3    H135290   4.323   3.823   3.901
11783TIP3    H235291   4.412   3.841   4.022
11784TIP3   OH235292   3.143   0.610   1.546
11784TIP3    H135293   3.133   0.704   1.557
11784TIP3    H235294   3.068   0.584   1.492
11785TIP3   OH235295   6.940   1.780   4.244
11785TIP3    H135296   7.015   1.805   4.190
11785TIP3    H235297   6.867   1.831   4.208
11786TIP3   OH235298   7.148   2.386   0.305
11786TIP3    H135299   7.176   2.478   0.302
11786TIP3    H235300   7.194   2.345   0.232
11787TIP3   OH235301   0.065   5.373   6.827
11787TIP3    H135302   0.140   5.319   6.853
11787TIP3    H235303   0.022   5.323   6.757
11788TIP3   OH235304   3.428   5.925   4.630
11788TIP3    H135305   3.420   5.867   4.707
11788TIP3    H235306   3.353   5.984   4.638
11789TIP3   OH235307   1.378   2.894   5.438
11789TIP3    H135308   1.313   2.953   5.400
11789TIP3    H235309   1.327   2.829   5.486
11790TIP3   OH235310   0.188   6.650   5.701
11790TIP3    H135311   0.234   6.582   5.750
11790TIP3    H235312   0.257   6.693   5.650
11791TIP3   OH235313   3.483   3.048   5.412
11791TIP3    H135314   3.394   3.025   5.385
11791TIP3    H235315   3.506   2.982   5.477
11792TIP3   OH235316   1.660   5.881   5.614
11792TIP3    H135317   1.701   5.795   5.626
11792TIP3    H235318   1.655   5.891   5.519
11793TIP3   OH235319   7.478   6.913   3.402
11793TIP3    H135320   7.466   6.837   3.345
11793TIP3    H235321   7.491   6.875   3.489
11794TIP3   OH235322   5.741   4.007   3.719
11794TIP3    H135323   5.657   4.032   3.680
11794TIP3    H235324   5.806   4.042   3.658
11795TIP3   OH235325   4.435   1.305   5.629
11795TIP3    H135326   4.430   1.364   5.554
11795TIP3    H235327   4.523   1.268   5.625
11796TIP3   OH235328   5.233   4.781   6.365
11796TIP3    H135329   5.293   4.850   6.337
11796TIP3    H235330   5.236   4.784   6.460
11797TIP3   OH235331   4.285   0.241   2.065
11797TIP3    H135332   4.318   0.298   1.996
11797TIP3    H235333   4.355   0.240   2.131
11798TIP3   OH235334   1.135   0.338   2.172
11798TIP3    H135335   1.093   0.325   2.257
11798TIP3    H235336   1.146   0.433   2.164
11799TIP3   OH235337   1.435   2.681   3.308
11799TIP3    H135338   1.516   2.674   3.258
11799TIP3    H235339   1.384   2.604   3.283
11800TIP3   OH235340   8.266   7.075   3.730
11800TIP3    H135341   8.191   7.017   3.717
11800TIP3    H235342   8.300   7.052   3.817
11801TIP3   OH235343   5.950   6.215   6.687
11801TIP3    H135344   5.867   6.224   6.733
11801TIP3    H235345   5.936   6.145   6.624
11802TIP3   OH235346   2.039   5.441   4.718
11802TIP3    H135347   2.000   5.478   4.640
11802TIP3    H235348   2.013   5.349   4.716
11803TIP3   OH235349   7.331   1.259   3.170
11803TIP3    H135350   7.398   1.314   3.211
11803TIP3    H235351   7.260   1.256   3.234
11804TIP3   OH235352   7.874   1.659   2.665
11804TIP3    H135353   7.789   1.660   2.709
11804TIP3    H235354   7.918   1.582   2.700
11805TIP3   OH235355   5.067   4.567   4.695
11805TIP3    H135356   5.092   4.634   4.631
11805TIP3    H235357   5.139   4.566   4.758
11806TIP3   OH235358   3.302   2.598   2.534
11806TIP3    H135359   3.300   2.686   2.495
11806TIP3    H235360   3.213   2.585   2.566
11807TIP3   OH235361   4.572   6.767   1.523
11807TIP3    H135362   4.553   6.759   1.430
11807TIP3    H235363   4.643   6.831   1.527
11808TIP3   OH235364   5.327   0.428   2.718
11808TIP3    H135365   5.281   0.502   2.759
11808TIP3    H235366   5.332   0.452   2.625
11809TIP3   OH235367   3.613   7.046   2.822
11809TIP3    H135368   3.677   6.995   2.772
11809TIP3    H235369   3.543   6.984   2.841
11810TIP3   OH235370   6.072   4.520   1.989
11810TIP3    H135371   5.996   4.473   2.023
11810TIP3    H235372   6.057   4.524   1.894
11811TIP3   OH235373   4.470   4.286   2.422
11811TIP3    H135374   4.556   4.247   2.402
11811TIP3    H235375   4.429   4.223   2.482
11812TIP3   OH235376   1.459   3.462   5.838
11812TIP3    H135377   1.437   3.527   5.904
11812TIP3    H235378   1.469   3.513   5.757
11813TIP3   OH235379   3.437   4.212   6.597
11813TIP3    H135380   3.485   4.295   6.588
11813TIP3    H235381   3.479   4.169   6.672
11814TIP3   OH235382   6.697   7.150   3.831
11814TIP3    H135383   6.683   7.234   3.876
11814TIP3    H235384   6.754   7.171   3.757
11815TIP3   OH235385   2.264   5.444   5.819
11815TIP3    H135386   2.252   5.438   5.914
11815TIP3    H235387   2.206   5.516   5.792
11816TIP3   OH235388   8.214   2.963   3.462
11816TIP3    H135389   8.221   2.895   3.394
11816TIP3    H235390   8.268   2.931   3.534
11817TIP3   OH235391   2.447   5.686   6.455
11817TIP3    H135392   2.354   5.661   6.451
11817TIP3    H235393   2.480   5.643   6.534
11818TIP3   OH235394   4.272   5.928   4.173
11818TIP3    H135395   4.184   5.891   4.173
11818TIP3    H235396   4.260   6.019   4.144
11819TIP3   OH235397   3.201   5.844   0.819
11819TIP3    H135398   3.199   5.797   0.736
11819TIP3    H235399   3.294   5.851   0.841
11820TIP3   OH235400   3.644   1.413   5.678
11820TIP3    H135401   3.699   1.401   5.756
11820TIP3    H235402   3.661   1.503   5.650
11821TIP3   OH235403   6.922   5.948   1.396
11821TIP3    H135404   6.890   5.865   1.433
11821TIP3    H235405   7.009   5.927   1.363
11822TIP3   OH235406   2.178   4.628   1.609
11822TIP3    H135407   2.145   4.622   1.519
11822TIP3    H235408   2.273   4.622   1.600
11823TIP3   OH235409   6.999   4.922   6.533
11823TIP3    H135410   6.982   4.991   6.598
11823TIP3    H235411   7.028   4.847   6.585
11824TIP3   OH235412   1.214   1.863   5.275
11824TIP3    H135413   1.249   1.830   5.192
11824TIP3    H235414   1.278   1.928   5.304
11825TIP3   OH235415   5.019   0.038   4.883
11825TIP3    H135416   5.033  -0.053   4.857
11825TIP3    H235417   5.025   0.037   4.979
11826TIP3   OH235418   3.075   1.849   4.436
11826TIP3    H135419   3.006   1.915   4.425
11826TIP3    H235420   3.085   1.810   4.350
11827TIP3   OH235421   2.582   6.274   1.346
11827TIP3    H135422   2.546   6.352   1.303
11827TIP3    H235423   2.620   6.307   1.428
11828TIP3   OH235424   3.504   6.133   4.375
11828TIP3    H135425   3.515   6.119   4.281
11828TIP3    H235426   3.492   6.045   4.411
11829TIP3   OH235427   5.252   6.331   2.761
11829TIP3    H135428   5.319   6.398   2.751
11829TIP3    H235429   5.239   6.323   2.855
11830TIP3   OH235430  -0.022   0.777   3.815
11830TIP3    H135431  -0.042   0.742   3.902
11830TIP3    H235432  -0.084   0.849   3.803
11831TIP3   OH235433   6.176   6.541   0.335
11831TIP3    H135434   6.169   6.636   0.325
11831TIP3    H235435   6.111   6.505   0.275
11832TIP3   OH235436   5.035   6.644   0.284
11832TIP3    H135437   5.095   6.713   0.308
11832TIP3    H235438   5.025   6.591   0.364
11833TIP3   OH235439   2.615   6.296   6.335
11833TIP3    H135440   2.587   6.228   6.397
11833TIP3    H235441   2.534   6.327   6.295
11834TIP3   OH235442   0.856   1.940   4.544
11834TIP3    H135443   0.862   1.936   4.449
11834TIP3    H235444   0.764   1.921   4.563
11835TIP3   OH235445   1.013   6.074   1.591
11835TIP3    H135446   1.023   6.154   1.643
11835TIP3    H235447   1.027   6.003   1.654
11836TIP3   OH235448   4.088   1.651   5.618
11836TIP3    H135449   4.135   1.729   5.647
11836TIP3    H235450   4.042   1.678   5.539
11837TIP3   OH235451   6.796   4.801   2.286
11837TIP3    H135452   6.737   4.833   2.217
11837TIP3    H235453   6.856   4.874   2.302
11838TIP3   OH235454   8.072   5.017   6.572
11838TIP3    H135455   8.153   5.032   6.621
11838TIP3    H235456   8.018   4.964   6.631
11839TIP3   OH235457   2.381   6.214   3.412
11839TIP3    H135458   2.324   6.285   3.382
11839TIP3    H235459   2.323   6.156   3.461
11840TIP3   OH235460   0.108   1.819   1.431
11840TIP3    H135461   0.157   1.877   1.489
11840TIP3    H235462   0.149   1.733   1.445
11841TIP3   OH235463   2.745   4.815   1.949
11841TIP3    H135464   2.685   4.812   1.875
11841TIP3    H235465   2.736   4.904   1.984
11842TIP3   OH235466   4.317   2.669   0.283
11842TIP3    H135467   4.318   2.706   0.371
11842TIP3    H235468   4.231   2.628   0.275
11843TIP3   OH235469   7.079   1.514   1.863
11843TIP3    H135470   7.104   1.596   1.906
11843TIP3    H235471   7.153   1.493   1.807
11844TIP3   OH235472   7.813   1.642   0.059
11844TIP3    H135473   7.720   1.641   0.040
11844TIP3    H235474   7.836   1.550   0.072
11845TIP3   OH235475   7.901   0.119   4.280
11845TIP3    H135476   7.977   0.107   4.336
11845TIP3    H235477   7.844   0.044   4.300
11846TIP3   OH235478   1.409   1.414   1.499
11846TIP3    H135479   1.363   1.332   1.513
11846TIP3    H235480   1.449   1.405   1.412
11847TIP3   OH235481   4.007   0.524   6.350
11847TIP3    H135482   3.979   0.537   6.259
11847TIP3    H235483   4.084   0.467   6.344
11848TIP3   OH235484   8.001   0.413   0.458
11848TIP3    H135485   8.021   0.380   0.546
11848TIP3    H235486   8.040   0.348   0.399
11849TIP3   OH235487   3.854   5.499   1.753
11849TIP3    H135488   3.831   5.583   1.714
11849TIP3    H235489   3.781   5.479   1.812
11850TIP3   OH235490   4.029   2.119   5.427
11850TIP3    H135491   4.024   2.059   5.353
11850TIP3    H235492   4.121   2.120   5.451
11851TIP3   OH235493   6.803   7.545   1.879
11851TIP3    H135494   6.720   7.577   1.914
11851TIP3    H235495   6.860   7.536   1.956
11852TIP3   OH235496   4.098   6.409   5.121
11852TIP3    H135497   4.033   6.467   5.081
11852TIP3    H235498   4.173   6.465   5.139
11853TIP3   OH235499   0.275   3.251   4.813
11853TIP3    H135500   0.347   3.280   4.758
11853TIP3    H235501   0.231   3.183   4.762
11854TIP3   OH235502   1.522   3.603   1.143
11854TIP3    H135503   1.467   3.681   1.139
11854TIP3    H235504   1.556   3.593   1.054
11855TIP3   OH235505   6.890   6.309   6.667
11855TIP3    H135506   6.809   6.333   6.712
11855TIP3    H235507   6.865   6.236   6.610
11856TIP3   OH235508   7.570   7.376   0.477
11856TIP3    H135509   7.650   7.326   0.466
11856TIP3    H235510   7.528   7.338   0.554
11857TIP3   OH235511   8.028   5.103   1.042
11857TIP3    H135512   7.942   5.141   1.060
11857TIP3    H235513   8.067   5.163   0.978
11858TIP3   OH235514   6.585   0.267   0.336
11858TIP3    H135515   6.645   0.214   0.389
11858TIP3    H235516   6.642   0.331   0.293
11859TIP3   OH235517   7.790   0.800   5.222
11859TIP3    H135518   7.705   0.759   5.205
11859TIP3    H235519   7.847   0.766   5.152
11860TIP3   OH235520   2.425   2.519   2.407
11860TIP3    H135521   2.441   2.492   2.497
11860TIP3    H235522   2.344   2.474   2.383
11861TIP3   OH235523   0.745   6.250   5.119
11861TIP3    H135524   0.726   6.229   5.210
11861TIP3    H235525   0.741   6.165   5.074
11862TIP3   OH235526   2.766   0.380   3.541
11862TIP3    H135527   2.685   0.385   3.490
11862TIP3    H235528   2.792   0.288   3.537
11863TIP3   OH235529   7.476   4.632   2.030
11863TIP3    H135530   7.409   4.660   1.969
11863TIP3    H235531   7.540   4.586   1.976
11864TIP3   OH235532   3.055   2.876   4.215
11864TIP3    H135533   3.080   2.892   4.306
11864TIP3    H235534   2.978   2.819   4.221
11865TIP3   OH235535   0.430   5.095   0.321
11865TIP3    H135536   0.473   5.009   0.321
11865TIP3    H235537   0.354   5.083   0.378
11866TIP3   OH235538   7.172   3.234   4.889
11866TIP3    H135539   7.096   3.258   4.836
11866TIP3    H235540   7.150   3.263   4.977
11867TIP3   OH235541   4.748   2.786   0.399
11867TIP3    H135542   4.818   2.728   0.369
11867TIP3    H235543   4.685   2.786   0.326
11868TIP3   OH235544   4.239   1.045   0.656
11868TIP3    H135545   4.164   1.044   0.597
11868TIP3    H235546   4.207   1.005   0.737
11869TIP3   OH235547   5.033   3.503   4.701
11869TIP3    H135548   5.071   3.415   4.693
11869TIP3    H235549   4.975   3.511   4.625
11870TIP3   OH235550   5.595   0.966   5.559
11870TIP3    H135551   5.586   0.942   5.651
11870TIP3    H235552   5.505   0.979   5.529
11871TIP3   OH235553   0.841   1.213   2.250
11871TIP3    H135554   0.771   1.200   2.315
11871TIP3    H235555   0.799   1.195   2.166
11872TIP3   OH235556   1.194   3.373   4.923
11872TIP3    H135557   1.139   3.299   4.897
11872TIP3    H235558   1.236   3.344   5.004
11873TIP3   OH235559   0.628   3.800   3.641
11873TIP3    H135560   0.555   3.844   3.685
11873TIP3    H235561   0.611   3.707   3.654
11874TIP3   OH235562   1.257   3.934   6.708
11874TIP3    H135563   1.341   3.941   6.662
11874TIP3    H235564   1.199   3.994   6.661
11875TIP3   OH235565   4.806   1.093   2.965
11875TIP3    H135566   4.726   1.118   2.918
11875TIP3    H235567   4.794   1.129   3.053
11876TIP3   OH235568   6.919   1.868   5.828
11876TIP3    H135569   6.971   1.923   5.886
11876TIP3    H235570   6.934   1.779   5.858
11877TIP3   OH235571   8.096   6.112   3.726
11877TIP3    H135572   8.025   6.153   3.676
11877TIP3    H235573   8.164   6.180   3.731
11878TIP3   OH235574   0.356   6.480   1.084
11878TIP3    H135575   0.382   6.475   0.992
11878TIP3    H235576   0.330   6.390   1.106
11879TIP3   OH235577   4.103   7.798   5.658
11879TIP3    H135578   4.141   7.834   5.739
11879TIP3    H235579   4.023   7.848   5.645
11880TIP3   OH235580   3.572   4.388   0.040
11880TIP3    H135581   3.645   4.393  -0.021
11880TIP3    H235582   3.571   4.297   0.069
11881TIP3   OH235583   3.290   0.754   3.622
11881TIP3    H135584   3.373   0.793   3.648
11881TIP3    H235585   3.279   0.679   3.681
11882TIP3   OH235586   7.721   3.804   4.098
11882TIP3    H135587   7.629   3.807   4.120
11882TIP3    H235588   7.726   3.742   4.025
11883TIP3   OH235589   3.267   0.729   1.139
11883TIP3    H135590   3.318   0.716   1.059
11883TIP3    H235591   3.176   0.725   1.110
11884TIP3   OH235592   1.211   6.697   4.314
11884TIP3    H135593   1.305   6.714   4.309
11884TIP3    H235594   1.173   6.758   4.251
11885TIP3   OH235595   4.151   2.104   6.188
11885TIP3    H135596   4.189   2.185   6.220
11885TIP3    H235597   4.220   2.038   6.199
11886TIP3   OH235598   1.431   5.335   0.549
11886TIP3    H135599   1.358   5.278   0.576
11886TIP3    H235600   1.446   5.314   0.457
11887TIP3   OH235601   4.720   1.742   4.447
11887TIP3    H135602   4.761   1.760   4.532
11887TIP3    H235603   4.766   1.801   4.386
11888TIP3   OH235604   3.264   1.906   3.009
11888TIP3    H135605   3.318   1.832   2.982
11888TIP3    H235606   3.177   1.868   3.022
11889TIP3   OH235607   4.216   0.644   2.957
11889TIP3    H135608   4.259   0.614   3.037
11889TIP3    H235609   4.130   0.674   2.986
11890TIP3   OH235610   7.122   1.292   5.681
11890TIP3    H135611   7.169   1.340   5.613
11890TIP3    H235612   7.143   1.200   5.664
11891TIP3   OH235613   6.087   0.647   4.589
11891TIP3    H135614   6.075   0.734   4.629
11891TIP3    H235615   6.096   0.588   4.664
11892TIP3   OH235616   0.161   5.089   2.580
11892TIP3    H135617   0.154   5.146   2.656
11892TIP3    H235618   0.255   5.079   2.565
11893TIP3   OH235619   0.176   4.348   2.371
11893TIP3    H135620   0.122   4.273   2.395
11893TIP3    H235621   0.141   4.377   2.287
11894TIP3   OH235622   1.984   5.921   2.940
11894TIP3    H135623   2.069   5.904   2.899
11894TIP3    H235624   1.937   5.974   2.875
11895TIP3   OH235625   1.443   4.484   6.481
11895TIP3    H135626   1.456   4.414   6.545
11895TIP3    H235627   1.381   4.544   6.523
11896TIP3   OH235628   7.462   3.630   3.135
11896TIP3    H135629   7.527   3.626   3.065
11896TIP3    H235630   7.419   3.545   3.133
11897TIP3   OH235631   4.018   7.003   3.384
11897TIP3    H135632   4.073   6.973   3.312
11897TIP3    H235633   3.994   6.923   3.431
11898TIP3   OH235634   3.551   2.374   5.005
11898TIP3    H135635   3.593   2.315   5.068
11898TIP3    H235636   3.506   2.316   4.943
11899TIP3   OH235637   2.801   7.087   1.714
11899TIP3    H135638   2.834   7.169   1.750
11899TIP3    H235639   2.812   7.095   1.619
11900TIP3   OH235640   4.089   3.097   2.558
11900TIP3    H135641   4.071   3.188   2.581
11900TIP3    H235642   4.020   3.074   2.495
11901TIP3   OH235643   1.677   6.144   4.992
11901TIP3    H135644   1.766   6.129   5.022
11901TIP3    H235645   1.622   6.094   5.052
11902TIP3   OH235646   3.724   6.722   2.374
11902TIP3    H135647   3.654   6.764   2.325
11902TIP3    H235648   3.739   6.639   2.328
11903TIP3   OH235649   1.721   1.926   6.638
11903TIP3    H135650   1.676   1.851   6.675
11903TIP3    H235651   1.754   1.974   6.715
11904TIP3   OH235652   4.918   4.913   4.347
11904TIP3    H135653   4.926   4.938   4.256
11904TIP3    H235654   4.971   4.833   4.355
11905TIP3   OH235655   4.649   0.501   0.060
11905TIP3    H135656   4.575   0.487   0.001
11905TIP3    H235657   4.721   0.524   0.003
11906TIP3   OH235658   2.692   2.254   4.081
11906TIP3    H135659   2.767   2.308   4.106
11906TIP3    H235660   2.629   2.316   4.043
11907TIP3   OH235661   2.812   5.318   1.793
11907TIP3    H135662   2.888   5.358   1.837
11907TIP3    H235663   2.850   5.272   1.718
11908TIP3   OH235664   6.697   1.299   1.024
11908TIP3    H135665   6.785   1.327   1.048
11908TIP3    H235666   6.660   1.263   1.104
11909TIP3   OH235667   6.885   6.581   4.882
11909TIP3    H135668   6.880   6.664   4.836
11909TIP3    H235669   6.895   6.605   4.974
11910TIP3   OH235670   4.994   6.892   4.265
11910TIP3    H135671   4.951   6.865   4.346
11910TIP3    H235672   4.922   6.907   4.203
11911TIP3   OH235673   0.121   1.611   3.111
11911TIP3    H135674   0.176   1.646   3.181
11911TIP3    H235675   0.074   1.688   3.077
11912TIP3   OH235676   3.826   7.137   3.540
11912TIP3    H135677   3.877   7.133   3.459
11912TIP3    H235678   3.865   7.071   3.597
11913TIP3   OH235679   7.914   0.851   4.358
11913TIP3    H135680   7.855   0.799   4.303
11913TIP3    H235681   7.939   0.925   4.303
11914TIP3   OH235682   0.905   6.261   3.210
11914TIP3    H135683   0.999   6.271   3.190
11914TIP3    H235684   0.897   6.285   3.302
11915TIP3   OH235685   4.448   1.525   0.550
11915TIP3    H135686   4.412   1.454   0.603
11915TIP3    H235687   4.414   1.605   0.591
11916TIP3   OH235688   4.127   2.120   5.920
11916TIP3    H135689   4.208   2.096   5.875
11916TIP3    H235690   4.137   2.083   6.008
11917TIP3   OH235691   5.048   7.097   0.742
11917TIP3    H135692   5.104   7.156   0.792
11917TIP3    H235693   4.959   7.126   0.762
11918TIP3   OH235694   0.565   3.651   0.147
11918TIP3    H135695   0.567   3.629   0.240
11918TIP3    H235696   0.519   3.735   0.143
11919TIP3   OH235697   0.118   1.341   2.535
11919TIP3    H135698   0.167   1.312   2.612
11919TIP3    H235699   0.083   1.426   2.559
11920TIP3   OH235700   6.008   1.077   0.932
11920TIP3    H135701   5.962   1.031   1.002
11920TIP3    H235702   6.067   1.137   0.978
11921TIP3   OH235703   7.911   6.095   5.239
11921TIP3    H135704   7.979   6.035   5.209
11921TIP3    H235705   7.874   6.053   5.316
11922TIP3   OH235706   6.573   4.700   5.629
11922TIP3    H135707   6.589   4.697   5.723
11922TIP3    H235708   6.575   4.793   5.607
11923TIP3   OH235709   7.601   0.690   2.310
11923TIP3    H135710   7.543   0.693   2.386
11923TIP3    H235711   7.617   0.596   2.297
11924TIP3   OH235712   6.404   2.191   3.934
11924TIP3    H135713   6.459   2.126   3.890
11924TIP3    H235714   6.430   2.185   4.026
11925TIP3   OH235715   4.724   7.806   6.802
11925TIP3    H135716   4.751   7.884   6.755
11925TIP3    H235717   4.711   7.740   6.735
11926TIP3   OH235718   2.213   4.893   4.834
11926TIP3    H135719   2.194   4.980   4.868
11926TIP3    H235720   2.295   4.903   4.786
11927TIP3   OH235721   8.142   3.686   1.269
11927TIP3    H135722   8.085   3.758   1.243
11927TIP3    H235723   8.124   3.674   1.362
11928TIP3   OH235724   7.854   3.803   5.084
11928TIP3    H135725   7.840   3.881   5.031
11928TIP3    H235726   7.786   3.806   5.151
11929TIP3   OH235727   3.975   3.466   6.740
11929TIP3    H135728   3.908   3.406   6.709
11929TIP3    H235729   3.926   3.540   6.777
11930TIP3   OH235730   3.031   7.023   6.085
11930TIP3    H135731   2.989   6.973   6.154
11930TIP3    H235732   3.040   7.111   6.121
11931TIP3   OH235733   2.136   4.676   0.861
11931TIP3    H135734   2.221   4.637   0.880
11931TIP3    H235735   2.133   4.683   0.765
11932TIP3   OH235736   7.663   6.535   3.113
11932TIP3    H135737   7.675   6.469   3.182
11932TIP3    H235738   7.646   6.483   3.034
11933TIP3   OH235739   1.862   0.455   6.015
11933TIP3    H135740   1.938   0.505   6.046
11933TIP3    H235741   1.789   0.516   6.020
11934TIP3   OH235742   5.251   1.441   3.306
11934TIP3    H135743   5.300   1.494   3.243
11934TIP3    H235744   5.318   1.384   3.345
11935TIP3   OH235745   5.890   1.706   1.315
11935TIP3    H135746   5.796   1.689   1.316
11935TIP3    H235747   5.902   1.781   1.373
11936TIP3   OH235748   0.068   4.385   4.936
11936TIP3    H135749   0.006   4.313   4.941
11936TIP3    H235750   0.146   4.346   4.896
11937TIP3   OH235751   2.616   7.649   4.938
11937TIP3    H135752   2.633   7.728   4.989
11937TIP3    H235753   2.696   7.597   4.945
11938TIP3   OH235754   4.788   1.714   2.438
11938TIP3    H135755   4.852   1.765   2.488
11938TIP3    H235756   4.721   1.690   2.501
11939TIP3   OH235757   0.349   5.281   4.732
11939TIP3    H135758   0.290   5.213   4.764
11939TIP3    H235759   0.336   5.354   4.793
11940TIP3   OH235760   4.802   3.718   2.160
11940TIP3    H135761   4.844   3.709   2.074
11940TIP3    H235762   4.874   3.736   2.220
11941TIP3   OH235763   5.380   3.904   0.339
11941TIP3    H135764   5.325   3.841   0.293
11941TIP3    H235765   5.424   3.953   0.269
11942TIP3   OH235766   5.918   5.243   2.328
11942TIP3    H135767   5.962   5.216   2.248
11942TIP3    H235768   5.956   5.186   2.396
11943TIP3   OH235769   7.018   3.317   4.629
11943TIP3    H135770   7.098   3.362   4.602
11943TIP3    H235771   6.948   3.367   4.586
11944TIP3   OH235772   1.537   1.906   1.229
11944TIP3    H135773   1.611   1.938   1.280
11944TIP3    H235774   1.460   1.930   1.281
11945TIP3   OH235775   2.369   0.067   1.068
11945TIP3    H135776   2.293   0.033   1.021
11945TIP3    H235777   2.361   0.029   1.156
11946TIP3   OH235778   3.104   5.427   4.473
11946TIP3    H135779   3.101   5.523   4.478
11946TIP3    H235780   3.112   5.399   4.565
11947TIP3   OH235781   4.347   5.212   5.223
11947TIP3    H135782   4.435   5.211   5.260
11947TIP3    H235783   4.333   5.302   5.196
11948TIP3   OH235784   4.086   7.577   2.891
11948TIP3    H135785   4.118   7.489   2.875
11948TIP3    H235786   4.162   7.633   2.878
11949TIP3   OH235787   0.723   5.693   0.505
11949TIP3    H135788   0.724   5.633   0.430
11949TIP3    H235789   0.748   5.777   0.469
11950TIP3   OH235790   3.159   7.495   6.503
11950TIP3    H135791   3.134   7.408   6.534
11950TIP3    H235792   3.198   7.538   6.579
11951TIP3   OH235793   3.620   7.809   0.016
11951TIP3    H135794   3.662   7.826   0.100
11951TIP3    H235795   3.531   7.843   0.027
11952TIP3   OH235796   6.574   6.282   5.817
11952TIP3    H135797   6.516   6.330   5.876
11952TIP3    H235798   6.632   6.348   5.781
11953TIP3   OH235799   0.216   6.019   5.493
11953TIP3    H135800   0.285   5.963   5.529
11953TIP3    H235801   0.229   6.015   5.398
11954TIP3   OH235802   7.501   3.511   4.125
11954TIP3    H135803   7.513   3.453   4.200
11954TIP3    H235804   7.476   3.595   4.165
11955TIP3   OH235805   7.647   0.137   5.497
11955TIP3    H135806   7.618   0.050   5.468
11955TIP3    H235807   7.738   0.142   5.466
11956TIP3   OH235808   6.642   4.406   2.539
11956TIP3    H135809   6.715   4.408   2.477
11956TIP3    H235810   6.671   4.461   2.611
11957TIP3   OH235811   7.977   1.205   2.641
11957TIP3    H135812   7.992   1.291   2.601
11957TIP3    H235813   7.951   1.148   2.568
11958TIP3   OH235814   6.008   2.119   4.010
11958TIP3    H135815   5.979   2.105   3.920
11958TIP3    H235816   5.955   2.192   4.042
11959TIP3   OH235817   2.148   7.142   4.375
11959TIP3    H135818   2.082   7.155   4.443
11959TIP3    H235819   2.231   7.139   4.423
11960TIP3   OH235820   5.837   3.980   4.764
11960TIP3    H135821   5.783   3.952   4.689
11960TIP3    H235822   5.897   3.907   4.778
11961TIP3   OH235823   3.594   5.663   0.167
11961TIP3    H135824   3.506   5.693   0.141
11961TIP3    H235825   3.653   5.706   0.105
11962TIP3   OH235826   3.153   1.741   0.962
11962TIP3    H135827   3.132   1.834   0.972
11962TIP3    H235828   3.119   1.700   1.041
11963TIP3   OH235829   3.464   7.535   4.789
11963TIP3    H135830   3.485   7.607   4.729
11963TIP3    H235831   3.383   7.562   4.831
11964TIP3   OH235832   0.824   1.625   3.006
11964TIP3    H135833   0.911   1.662   2.991
11964TIP3    H235834   0.835   1.532   2.987
11965TIP3   OH235835   8.046   5.550   5.362
11965TIP3    H135836   8.032   5.462   5.326
11965TIP3    H235837   8.125   5.581   5.317
11966TIP3   OH235838   0.454   4.497   2.018
11966TIP3    H135839   0.371   4.474   1.976
11966TIP3    H235840   0.519   4.490   1.948
11967TIP3   OH235841   1.365   5.861   1.222
11967TIP3    H135842   1.306   5.895   1.154
11967TIP3    H235843   1.436   5.925   1.227
11968TIP3   OH235844   5.907   4.502   6.385
11968TIP3    H135845   5.910   4.408   6.372
11968TIP3    H235846   5.868   4.536   6.305
11969TIP3   OH235847   6.863   5.409   3.196
11969TIP3    H135848   6.916   5.342   3.152
11969TIP3    H235849   6.774   5.392   3.166
11970TIP3   OH235850   8.063   6.888   3.700
11970TIP3    H135851   8.086   6.821   3.636
11970TIP3    H235852   7.980   6.924   3.668
11971TIP3   OH235853   6.929   6.167   2.358
11971TIP3    H135854   6.884   6.146   2.440
11971TIP3    H235855   7.009   6.211   2.386
11972TIP3   OH235856   4.361   6.974   0.748
11972TIP3    H135857   4.341   6.884   0.775
11972TIP3    H235858   4.354   7.025   0.829
11973TIP3   OH235859   4.149   0.178   6.419
11973TIP3    H135860   4.156   0.251   6.358
11973TIP3    H235861   4.191   0.210   6.499
11974TIP3   OH235862   2.042   2.792   5.776
11974TIP3    H135863   2.121   2.749   5.744
11974TIP3    H235864   2.017   2.743   5.854
11975TIP3   OH235865   6.556   5.754   2.228
11975TIP3    H135866   6.543   5.698   2.305
11975TIP3    H235867   6.614   5.823   2.258
11976TIP3   OH235868   6.185   1.886   6.230
11976TIP3    H135869   6.153   1.972   6.258
11976TIP3    H235870   6.279   1.896   6.222
11977TIP3   OH235871   3.655   2.637   4.933
11977TIP3    H135872   3.664   2.620   4.840
11977TIP3    H235873   3.613   2.558   4.968
11978TIP3   OH235874   3.089   4.817   2.970
11978TIP3    H135875   3.067   4.902   3.009
11978TIP3    H235876   3.174   4.795   3.007
11979TIP3   OH235877   5.990   6.050   3.872
11979TIP3    H135878   5.994   6.019   3.782
11979TIP3    H235879   6.057   6.000   3.918
11980TIP3   OH235880   3.224   5.263   5.471
11980TIP3    H135881   3.293   5.309   5.518
11980TIP3    H235882   3.243   5.170   5.487
11981TIP3   OH235883   3.897   6.248   2.750
11981TIP3    H135884   3.927   6.293   2.670
11981TIP3    H235885   3.975   6.246   2.806
11982TIP3   OH235886   1.620   3.099   2.002
11982TIP3    H135887   1.575   3.134   1.926
11982TIP3    H235888   1.591   3.154   2.075
11983TIP3   OH235889   7.056   4.933   1.673
11983TIP3    H135890   6.970   4.931   1.631
11983TIP3    H235891   7.102   5.005   1.630
11984TIP3   OH235892   3.275   4.383   3.719
11984TIP3    H135893   3.326   4.430   3.652
11984TIP3    H235894   3.227   4.452   3.765
11985TIP3   OH235895   3.008   0.418   2.181
11985TIP3    H135896   3.099   0.423   2.209
11985TIP3    H235897   2.979   0.332   2.212
11986TIP3   OH235898   1.270   7.155   6.066
11986TIP3    H135899   1.280   7.092   5.995
11986TIP3    H235900   1.175   7.168   6.074
11987TIP3   OH235901   5.201   6.725   4.906
11987TIP3    H135902   5.277   6.669   4.896
11987TIP3    H235903   5.229   6.793   4.968
11988TIP3   OH235904   6.925   3.233   5.949
11988TIP3    H135905   6.960   3.298   5.888
11988TIP3    H235906   6.931   3.150   5.901
11989TIP3   OH235907   6.945   4.948   0.108
11989TIP3    H135908   7.016   4.917   0.051
11989TIP3    H235909   6.909   5.024   0.062
11990TIP3   OH235910   7.915   6.077   5.866
11990TIP3    H135911   7.821   6.092   5.856
11990TIP3    H235912   7.956   6.137   5.805
11991TIP3   OH235913   4.208   4.285   1.065
11991TIP3    H135914   4.180   4.227   1.136
11991TIP3    H235915   4.207   4.372   1.103
11992TIP3   OH235916   2.479   4.731   2.156
11992TIP3    H135917   2.505   4.789   2.084
11992TIP3    H235918   2.420   4.667   2.114
11993TIP3   OH235919   7.631   4.523   1.854
11993TIP3    H135920   7.711   4.479   1.825
11993TIP3    H235921   7.561   4.485   1.800
11994TIP3   OH235922   6.607   5.641   3.871
11994TIP3    H135923   6.592   5.572   3.936
11994TIP3    H235924   6.579   5.722   3.915
11995TIP3   OH235925   6.851   0.269   1.716
11995TIP3    H135926   6.765   0.228   1.723
11995TIP3    H235927   6.856   0.327   1.792
11996TIP3   OH235928   2.216   6.158   6.775
11996TIP3    H135929   2.226   6.153   6.680
11996TIP3    H235930   2.207   6.067   6.803
11997TIP3   OH235931   6.626   0.752   4.718
11997TIP3    H135932   6.535   0.723   4.728
11997TIP3    H235933   6.621   0.847   4.725
11998TIP3   OH235934   2.843   7.747   5.549
11998TIP3    H135935   2.889   7.691   5.486
11998TIP3    H235936   2.774   7.692   5.585
11999TIP3   OH235937   5.480   7.216   3.700
11999TIP3    H135938   5.459   7.178   3.786
11999TIP3    H235939   5.491   7.309   3.717
12000TIP3   OH235940   4.889   0.593   3.227
12000TIP3    H135941   4.860   0.652   3.297
12000TIP3    H235942   4.840   0.622   3.150
12001TIP3   OH235943   4.867   2.568   3.625
12001TIP3    H135944   4.927   2.622   3.573
12001TIP3    H235945   4.780   2.599   3.602
12002TIP3   OH235946   4.489   5.019   5.564
12002TIP3    H135947   4.565   5.007   5.621
12002TIP3    H235948   4.419   5.047   5.624
12003TIP3   OH235949   7.889   6.162   2.052
12003TIP3    H135950   7.795   6.175   2.065
12003TIP3    H235951   7.927   6.170   2.139
12004TIP3   OH235952   0.750   7.606   2.695
12004TIP3    H135953   0.800   7.526   2.710
12004TIP3    H235954   0.677   7.601   2.757
12005TIP3   OH235955   1.375   5.763   4.268
12005TIP3    H135956   1.409   5.693   4.213
12005TIP3    H235957   1.448   5.825   4.274
12006TIP3   OH235958   2.738   5.718   5.741
12006TIP3    H135959   2.656   5.715   5.691
12006TIP3    H235960   2.747   5.630   5.777
12007TIP3   OH235961   0.338   4.396   4.600
12007TIP3    H135962   0.286   4.473   4.577
12007TIP3    H235963   0.321   4.334   4.529
12008TIP3   OH235964   6.559   0.281   5.646
12008TIP3    H135965   6.599   0.337   5.579
12008TIP3    H235966   6.482   0.244   5.602
12009TIP3   OH235967   8.334   4.953   1.701
12009TIP3    H135968   8.329   4.974   1.608
12009TIP3    H235969   8.302   5.032   1.745
12010TIP3   OH235970   1.981   2.903   3.552
12010TIP3    H135971   1.962   2.815   3.519
12010TIP3    H235972   1.908   2.957   3.522
12011TIP3   OH235973   5.155   3.050   6.781
12011TIP3    H135974   5.108   3.121   6.825
12011TIP3    H235975   5.242   3.086   6.764
12012TIP3   OH235976   6.500   4.327   2.971
12012TIP3    H135977   6.559   4.339   3.046
12012TIP3    H235978   6.513   4.236   2.946
12013TIP3   OH235979   1.305   4.252   5.598
12013TIP3    H135980   1.375   4.276   5.659
12013TIP3    H235981   1.330   4.294   5.516
12014TIP3   OH235982   1.958   5.147   1.465
12014TIP3    H135983   2.049   5.136   1.493
12014TIP3    H235984   1.910   5.168   1.545
12015TIP3   OH235985   4.519   6.174   1.991
12015TIP3    H135986   4.578   6.228   2.044
12015TIP3    H235987   4.564   6.089   1.985
12016TIP3   OH235988   4.981   1.310   3.864
12016TIP3    H135989   5.022   1.381   3.914
12016TIP3    H235990   4.923   1.354   3.802
12017TIP3   OH235991   5.184   1.683   1.094
12017TIP3    H135992   5.090   1.674   1.078
12017TIP3    H235993   5.199   1.637   1.177
12018TIP3   OH235994   4.020   1.489   1.721
12018TIP3    H135995   4.051   1.422   1.660
12018TIP3    H235996   3.929   1.505   1.695
12019TIP3   OH235997   5.303   2.436   2.870
12019TIP3    H135998   5.280   2.408   2.959
12019TIP3    H235999   5.220   2.456   2.829
12020TIP3   OH236000   5.118   1.626   5.254
12020TIP3    H136001   5.122   1.648   5.347
12020TIP3    H236002   5.031   1.588   5.242
12021TIP3   OH236003   3.221   2.335   2.419
12021TIP3    H136004   3.150   2.346   2.482
12021TIP3    H236005   3.266   2.420   2.419
12022TIP3   OH236006   0.184   3.762   6.694
12022TIP3    H136007   0.138   3.690   6.738
12022TIP3    H236008   0.163   3.752   6.601
12023TIP3   OH236009   7.743   2.302   2.877
12023TIP3    H136010   7.740   2.379   2.821
12023TIP3    H236011   7.719   2.334   2.964
12024TIP3   OH236012   2.032   2.868   6.410
12024TIP3    H136013   1.997   2.779   6.422
12024TIP3    H236014   2.013   2.913   6.492
12025TIP3   OH236015   1.354   4.798   0.557
12025TIP3    H136016   1.301   4.719   0.563
12025TIP3    H236017   1.382   4.814   0.647
12026TIP3   OH236018   2.166   4.754   3.509
12026TIP3    H136019   2.217   4.779   3.432
12026TIP3    H236020   2.222   4.776   3.583
12027TIP3   OH236021   1.642   3.821   0.619
12027TIP3    H136022   1.576   3.754   0.638
12027TIP3    H236023   1.592   3.902   0.613
12028TIP3   OH236024   6.225   2.434   1.459
12028TIP3    H136025   6.229   2.342   1.485
12028TIP3    H236026   6.136   2.461   1.480
12029TIP3   OH236027   1.523   0.512   6.779
12029TIP3    H136028   1.548   0.431   6.735
12029TIP3    H236029   1.603   0.565   6.778
12030TIP3   OH236030   6.295   5.448   1.731
12030TIP3    H136031   6.339   5.395   1.665
12030TIP3    H236032   6.214   5.401   1.751
12031TIP3   OH236033   8.069   6.474   6.326
12031TIP3    H136034   8.135   6.529   6.285
12031TIP3    H236035   7.991   6.531   6.332
12032TIP3   OH236036   6.801   4.579   0.371
12032TIP3    H136037   6.873   4.601   0.311
12032TIP3    H236038   6.808   4.485   0.383
12033TIP3   OH236039   3.665   4.355   3.280
12033TIP3    H136040   3.627   4.267   3.285
12033TIP3    H236041   3.735   4.355   3.345
12034TIP3   OH236042   0.524   1.207   4.266
12034TIP3    H136043   0.481   1.246   4.342
12034TIP3    H236044   0.453   1.196   4.201
12035TIP3   OH236045   4.650   7.140   3.089
12035TIP3    H136046   4.559   7.126   3.114
12035TIP3    H236047   4.669   7.230   3.116
12036TIP3   OH236048   3.027   2.270   3.561
12036TIP3    H136049   2.977   2.295   3.638
12036TIP3    H236050   2.974   2.299   3.487
12037TIP3   OH236051   3.797   1.976   4.360
12037TIP3    H136052   3.761   2.004   4.276
12037TIP3    H236053   3.777   2.048   4.419
12038TIP3   OH236054   7.888   4.991   0.660
12038TIP3    H136055   7.824   5.053   0.628
12038TIP3    H236056   7.859   4.970   0.749
12039TIP3   OH236057   4.885   6.488   2.131
12039TIP3    H136058   4.948   6.506   2.201
12039TIP3    H236059   4.835   6.570   2.123
12040TIP3   OH236060   7.034   3.222   1.138
12040TIP3    H136061   7.027   3.308   1.181
12040TIP3    H236062   6.966   3.170   1.180
12041TIP3   OH236063   4.686   2.051   6.896
12041TIP3    H136064   4.742   2.061   6.974
12041TIP3    H236065   4.728   2.106   6.829
12042TIP3   OH236066   1.798   4.318   0.301
12042TIP3    H136067   1.791   4.271   0.384
12042TIP3    H236068   1.865   4.271   0.252
12043TIP3   OH236069   7.091   0.401   0.306
12043TIP3    H136070   7.111   0.390   0.213
12043TIP3    H236071   7.149   0.471   0.336
12044TIP3   OH236072   1.152   6.577   1.637
12044TIP3    H136073   1.190   6.615   1.558
12044TIP3    H236074   1.062   6.554   1.611
12045TIP3   OH236075   5.260   7.003   4.347
12045TIP3    H136076   5.177   6.970   4.314
12045TIP3    H236077   5.299   6.929   4.394
12046TIP3   OH236078   6.206   3.132   2.221
12046TIP3    H136079   6.275   3.078   2.260
12046TIP3    H236080   6.218   3.123   2.127
12047TIP3   OH236081   8.048   7.112   0.919
12047TIP3    H136082   7.970   7.139   0.869
12047TIP3    H236083   8.121   7.129   0.860
12048TIP3   OH236084   2.625   7.553   6.511
12048TIP3    H136085   2.611   7.496   6.436
12048TIP3    H236086   2.536   7.581   6.536
12049TIP3   OH236087   8.331   0.775   2.233
12049TIP3    H136088   8.423   0.756   2.255
12049TIP3    H236089   8.307   0.706   2.171
12050TIP3   OH236090   5.457   0.857   3.765
12050TIP3    H136091   5.424   0.790   3.824
12050TIP3    H236092   5.548   0.831   3.748
12051TIP3   OH236093   3.681   1.479   4.548
12051TIP3    H136094   3.677   1.523   4.633
12051TIP3    H236095   3.655   1.545   4.485
12052TIP3   OH236096   6.836   3.088   0.756
12052TIP3    H136097   6.770   3.114   0.821
12052TIP3    H236098   6.840   2.993   0.763
12053TIP3   OH236099   2.112   0.324   4.812
12053TIP3    H136100   2.120   0.297   4.903
12053TIP3    H236101   2.159   0.257   4.763
12054TIP3   OH236102   3.317   5.143   3.145
12054TIP3    H136103   3.378   5.135   3.072
12054TIP3    H236104   3.344   5.223   3.191
12055TIP3   OH236105   8.069   7.071   1.479
12055TIP3    H136106   8.153   7.072   1.434
12055TIP3    H236107   8.039   6.980   1.473
12056TIP3   OH236108   6.461   5.215   5.504
12056TIP3    H136109   6.366   5.226   5.511
12056TIP3    H236110   6.496   5.303   5.516
12057TIP3   OH236111   4.554   7.366   6.879
12057TIP3    H136112   4.541   7.459   6.859
12057TIP3    H236113   4.536   7.321   6.797
12058TIP3   OH236114   6.612   4.620   5.331
12058TIP3    H136115   6.626   4.689   5.396
12058TIP3    H236116   6.531   4.577   5.359
12059TIP3   OH236117   1.028   5.980   6.723
12059TIP3    H136118   1.089   5.940   6.784
12059TIP3    H236119   0.973   5.908   6.692
12060TIP3   OH236120   4.101   4.263   5.997
12060TIP3    H136121   4.124   4.356   5.987
12060TIP3    H236122   4.042   4.260   6.072
12061TIP3   OH236123   7.448   2.139   0.962
12061TIP3    H136124   7.407   2.169   0.881
12061TIP3    H236125   7.376   2.105   1.015
12062TIP3   OH236126   2.207   4.583   3.045
12062TIP3    H136127   2.276   4.630   2.998
12062TIP3    H236128   2.131   4.640   3.039
12063TIP3   OH236129   7.359   0.905   5.720
12063TIP3    H136130   7.290   0.950   5.769
12063TIP3    H236131   7.391   0.838   5.780
12064TIP3   OH236132   6.926   1.544   4.418
12064TIP3    H136133   7.008   1.520   4.375
12064TIP3    H236134   6.887   1.611   4.360
12065TIP3   OH236135   0.184   0.636   1.874
12065TIP3    H136136   0.185   0.546   1.843
12065TIP3    H236137   0.216   0.631   1.964
12066TIP3   OH236138   2.993   6.489   2.153
12066TIP3    H136139   2.993   6.440   2.236
12066TIP3    H236140   2.906   6.475   2.117
12067TIP3   OH236141   0.832   4.651   1.132
12067TIP3    H136142   0.867   4.702   1.206
12067TIP3    H236143   0.888   4.573   1.129
12068TIP3   OH236144   4.795   0.617   0.485
12068TIP3    H136145   4.764   0.671   0.412
12068TIP3    H236146   4.886   0.599   0.464
12069TIP3   OH236147   7.008   7.872   4.331
12069TIP3    H136148   7.089   7.849   4.376
12069TIP3    H236149   6.957   7.791   4.332
12070TIP3   OH236150   3.610   1.597   1.420
12070TIP3    H136151   3.533   1.544   1.400
12070TIP3    H236152   3.587   1.686   1.393
12071TIP3   OH236153   2.761   1.235   1.281
12071TIP3    H136154   2.684   1.283   1.248
12071TIP3    H236155   2.724   1.163   1.332
12072TIP3   OH236156   5.854   1.692   0.920
12072TIP3    H136157   5.810   1.608   0.910
12072TIP3    H236158   5.782   1.756   0.925
12073TIP3   OH236159   5.038   2.456   4.546
12073TIP3    H136160   5.070   2.502   4.623
12073TIP3    H236161   5.116   2.414   4.509
12074TIP3   OH236162   7.970   4.147   1.598
12074TIP3    H136163   7.922   4.066   1.617
12074TIP3    H236164   8.025   4.125   1.523
12075TIP3   OH236165   3.483   6.055   4.098
12075TIP3    H136166   3.397   6.086   4.070
12075TIP3    H236167   3.488   5.964   4.066
12076TIP3   OH236168   0.515   6.385   6.554
12076TIP3    H136169   0.469   6.447   6.610
12076TIP3    H236170   0.514   6.425   6.467
12077TIP3   OH236171   7.718   0.875   2.602
12077TIP3    H136172   7.728   0.788   2.562
12077TIP3    H236173   7.782   0.930   2.555
12078TIP3   OH236174   0.862   5.883   0.899
12078TIP3    H136175   0.824   5.921   0.978
12078TIP3    H236176   0.797   5.899   0.830
12079TIP3   OH236177   3.807   7.790   0.210
12079TIP3    H136178   3.786   7.770   0.301
12079TIP3    H236179   3.846   7.709   0.176
12080TIP3   OH236180   2.438   2.652   3.888
12080TIP3    H136181   2.369   2.717   3.895
12080TIP3    H236182   2.460   2.650   3.795
12081TIP3   OH236183   7.012   0.767   3.018
12081TIP3    H136184   7.099   0.795   3.046
12081TIP3    H236185   6.976   0.721   3.095
12082TIP3   OH236186   7.713   2.844   0.550
12082TIP3    H136187   7.709   2.841   0.455
12082TIP3    H236188   7.714   2.752   0.577
12083TIP3   OH236189   1.160   0.763   3.161
12083TIP3    H136190   1.186   0.823   3.091
12083TIP3    H236191   1.091   0.709   3.122
12084TIP3   OH236192   6.810   5.986   3.539
12084TIP3    H136193   6.720   5.964   3.563
12084TIP3    H236194   6.806   6.077   3.509
12085TIP3   OH236195   8.257   2.886   1.980
12085TIP3    H136196   8.257   2.830   1.903
12085TIP3    H236197   8.301   2.834   2.047
12086TIP3   OH236198   8.047   3.353  -0.020
12086TIP3    H136199   8.129   3.381   0.022
12086TIP3    H236200   7.992   3.324   0.053
12087TIP3   OH236201   5.307   3.397   0.407
12087TIP3    H136202   5.239   3.355   0.355
12087TIP3    H236203   5.382   3.338   0.403
12088TIP3   OH236204   0.857   0.949   5.700
12088TIP3    H136205   0.772   0.982   5.670
12088TIP3    H236206   0.860   0.859   5.669
12089TIP3   OH236207   1.832   5.639   5.554
12089TIP3    H136208   1.782   5.586   5.616
12089TIP3    H236209   1.851   5.580   5.481
12090TIP3   OH236210   7.648   5.921   0.290
12090TIP3    H136211   7.562   5.913   0.331
12090TIP3    H236212   7.686   5.834   0.298
12091TIP3   OH236213   4.275   0.754   4.142
12091TIP3    H136214   4.369   0.766   4.152
12091TIP3    H236215   4.240   0.844   4.138
12092TIP3   OH236216   7.124   4.838   5.260
12092TIP3    H136217   7.191   4.890   5.303
12092TIP3    H236218   7.081   4.898   5.200
12093TIP3   OH236219   1.840   5.302   4.220
12093TIP3    H136220   1.763   5.273   4.171
12093TIP3    H236221   1.805   5.362   4.286
12094TIP3   OH236222   6.465   2.383   5.775
12094TIP3    H136223   6.527   2.454   5.760
12094TIP3    H236224   6.454   2.342   5.688
12095TIP3   OH236225   3.545   2.821   3.104
12095TIP3    H136226   3.561   2.912   3.080
12095TIP3    H236227   3.539   2.775   3.021
12096TIP3   OH236228   5.165   7.545   3.102
12096TIP3    H136229   5.099   7.497   3.051
12096TIP3    H236230   5.117   7.583   3.175
12097TIP3   OH236231   5.625   6.315   1.211
12097TIP3    H136232   5.704   6.355   1.174
12097TIP3    H236233   5.646   6.222   1.218
12098TIP3   OH236234   6.470   0.788   0.467
12098TIP3    H136235   6.481   0.724   0.538
12098TIP3    H236236   6.540   0.851   0.480
12099TIP3   OH236237   6.569   0.955   1.142
12099TIP3    H136238   6.566   1.033   1.197
12099TIP3    H236239   6.662   0.943   1.122
12100TIP3   OH236240   0.139   5.791   6.390
12100TIP3    H136241   0.065   5.779   6.331
12100TIP3    H236242   0.101   5.827   6.470
12101TIP3   OH236243   1.900   3.999   5.351
12101TIP3    H136244   1.876   3.995   5.258
12101TIP3    H236245   1.837   4.062   5.388
12102TIP3   OH236246   4.008   2.966   5.861
12102TIP3    H136247   3.938   3.028   5.879
12102TIP3    H236248   4.025   2.924   5.945
12103TIP3   OH236249   0.705   7.644   5.767
12103TIP3    H136250   0.704   7.580   5.696
12103TIP3    H236251   0.720   7.728   5.724
12104TIP3   OH236252   5.435   1.713   5.804
12104TIP3    H136253   5.487   1.730   5.725
12104TIP3    H236254   5.493   1.737   5.876
12105TIP3   OH236255   1.172   2.834   6.556
12105TIP3    H136256   1.096   2.816   6.501
12105TIP3    H236257   1.183   2.755   6.609
12106TIP3   OH236258   3.374   2.750   4.624
12106TIP3    H136259   3.438   2.816   4.600
12106TIP3    H236260   3.365   2.759   4.719
12107TIP3   OH236261   4.847   4.818   4.745
12107TIP3    H136262   4.905   4.892   4.766
12107TIP3    H236263   4.865   4.754   4.813
12108TIP3   OH236264   0.456   4.949   4.211
12108TIP3    H136265   0.395   5.020   4.193
12108TIP3    H236266   0.524   4.958   4.145
12109TIP3   OH236267   6.398   3.385   2.917
12109TIP3    H136268   6.339   3.433   2.859
12109TIP3    H236269   6.422   3.448   2.985
12110TIP3   OH236270   2.968   5.297   4.288
12110TIP3    H136271   2.913   5.375   4.286
12110TIP3    H236272   3.045   5.324   4.338
12111TIP3   OH236273   3.734   5.496   6.057
12111TIP3    H136274   3.675   5.570   6.041
12111TIP3    H236275   3.709   5.432   5.990
12112TIP3   OH236276   3.719   2.632   0.307
12112TIP3    H136277   3.721   2.653   0.400
12112TIP3    H236278   3.641   2.576   0.297
12113TIP3   OH236279   4.384   1.684   3.941
12113TIP3    H136280   4.376   1.680   4.037
12113TIP3    H236281   4.435   1.763   3.925
12114TIP3   OH236282   7.626   2.962   1.715
12114TIP3    H136283   7.672   2.931   1.793
12114TIP3    H236284   7.646   2.897   1.648
12115TIP3   OH236285   6.384   0.835   6.648
12115TIP3    H136286   6.471   0.847   6.610
12115TIP3    H236287   6.324   0.856   6.577
12116TIP3   OH236288   2.452   4.964   5.301
12116TIP3    H136289   2.443   4.922   5.387
12116TIP3    H236290   2.464   4.892   5.240
12117TIP3   OH236291   8.403   4.312   3.584
12117TIP3    H136292   8.381   4.404   3.599
12117TIP3    H236293   8.319   4.269   3.565
12118TIP3   OH236294   4.051   6.339   3.570
12118TIP3    H136295   4.009   6.424   3.581
12118TIP3    H236296   4.067   6.332   3.476
12119TIP3   OH236297   7.922   0.107   0.060
12119TIP3    H136298   7.916   0.023   0.014
12119TIP3    H236299   8.014   0.131   0.053
12120TIP3   OH236300   6.648   0.114   0.566
12120TIP3    H136301   6.559   0.131   0.596
12120TIP3    H236302   6.671   0.030   0.605
12121TIP3   OH236303   6.026   5.491   5.099
12121TIP3    H136304   6.111   5.504   5.058
12121TIP3    H236305   5.973   5.564   5.067
12122TIP3   OH236306   0.319   0.822   1.124
12122TIP3    H136307   0.298   0.903   1.170
12122TIP3    H236308   0.281   0.753   1.180
12123TIP3   OH236309   8.409   4.611   1.332
12123TIP3    H136310   8.372   4.691   1.294
12123TIP3    H236311   8.351   4.591   1.406
12124TIP3   OH236312   1.898   1.579   4.703
12124TIP3    H136313   1.848   1.626   4.636
12124TIP3    H236314   1.959   1.524   4.653
12125TIP3   OH236315   2.253   4.437   2.555
12125TIP3    H136316   2.176   4.395   2.518
12125TIP3    H236317   2.309   4.458   2.480
12126TIP3   OH236318   1.191   3.869   3.054
12126TIP3    H136319   1.144   3.942   3.014
12126TIP3    H236320   1.123   3.819   3.100
12127TIP3   OH236321   4.078   6.609   4.288
12127TIP3    H136322   4.077   6.594   4.194
12127TIP3    H236323   4.128   6.690   4.300
12128TIP3   OH236324   8.286   4.910   6.074
12128TIP3    H136325   8.362   4.932   6.128
12128TIP3    H236326   8.269   4.818   6.093
12129TIP3   OH236327   0.256   0.177   1.933
12129TIP3    H136328   0.220   0.222   2.009
12129TIP3    H236329   0.207   0.094   1.929
12130TIP3   OH236330   3.181   5.263   0.049
12130TIP3    H136331   3.113   5.210   0.007
12130TIP3    H236332   3.134   5.339   0.083
12131TIP3   OH236333   7.684   1.071   5.266
12131TIP3    H136334   7.731   1.084   5.349
12131TIP3    H236335   7.713   0.986   5.235
12132TIP3   OH236336   2.185   3.587   2.459
12132TIP3    H136337   2.265   3.585   2.512
12132TIP3    H236338   2.144   3.671   2.480
12133TIP3   OH236339   4.521   2.590   4.498
12133TIP3    H136340   4.605   2.549   4.477
12133TIP3    H236341   4.532   2.622   4.588
12134TIP3   OH236342   8.369   2.472   5.543
12134TIP3    H136343   8.322   2.392   5.565
12134TIP3    H236344   8.454   2.463   5.585
12135TIP3   OH236345   5.899   1.331   2.638
12135TIP3    H136346   5.899   1.244   2.598
12135TIP3    H236347   5.887   1.392   2.565
12136TIP3   OH236348   7.969   1.014   4.662
12136TIP3    H136349   8.016   0.935   4.691
12136TIP3    H236350   7.885   0.982   4.631
12137TIP3   OH236351   0.907   7.209   1.211
12137TIP3    H136352   0.841   7.143   1.232
12137TIP3    H236353   0.886   7.283   1.269
12138TIP3   OH236354   6.971   5.657   3.063
12138TIP3    H136355   7.017   5.740   3.078
12138TIP3    H236356   7.023   5.592   3.110
12139TIP3   OH236357   3.493   6.648   1.747
12139TIP3    H136358   3.524   6.663   1.836
12139TIP3    H236359   3.398   6.658   1.753
12140TIP3   OH236360   3.685   6.994   6.159
12140TIP3    H136361   3.743   6.942   6.215
12140TIP3    H236362   3.676   7.078   6.205
12141TIP3   OH236363   7.014   6.854   1.090
12141TIP3    H136364   7.041   6.789   1.025
12141TIP3    H236365   6.935   6.816   1.130
12142TIP3   OH236366   2.380   4.883   5.556
12142TIP3    H136367   2.363   4.915   5.645
12142TIP3    H236368   2.436   4.806   5.569
12143TIP3   OH236369   7.841   6.867   3.936
12143TIP3    H136370   7.781   6.804   3.896
12143TIP3    H236371   7.828   6.947   3.886
12144TIP3   OH236372   3.820   0.303   0.868
12144TIP3    H136373   3.893   0.249   0.899
12144TIP3    H236374   3.759   0.241   0.828
12145TIP3   OH236375   5.000   1.936   2.115
12145TIP3    H136376   4.950   2.016   2.098
12145TIP3    H236377   5.059   1.928   2.041
12146TIP3   OH236378   0.576   7.045   4.250
12146TIP3    H136379   0.536   6.966   4.213
12146TIP3    H236380   0.521   7.116   4.217
12147TIP3   OH236381   4.561   4.768   3.652
12147TIP3    H136382   4.498   4.775   3.580
12147TIP3    H236383   4.527   4.826   3.720
12148TIP3   OH236384   6.540   6.246   2.036
12148TIP3    H136385   6.565   6.298   1.960
12148TIP3    H236386   6.621   6.239   2.088
12149TIP3   OH236387   5.404   3.719   3.642
12149TIP3    H136388   5.399   3.770   3.722
12149TIP3    H236389   5.496   3.722   3.617
12150TIP3   OH236390   6.596   0.957   6.553
12150TIP3    H136391   6.689   0.954   6.578
12150TIP3    H236392   6.572   1.049   6.559
12151TIP3   OH236393   5.437   6.955  -0.002
12151TIP3    H136394   5.462   6.895   0.068
12151TIP3    H236395   5.414   6.898  -0.075
12152TIP3   OH236396   7.045   1.038   0.594
12152TIP3    H136397   6.957   1.002   0.583
12152TIP3    H236398   7.103   0.969   0.565
12153TIP3   OH236399   5.423   1.402   1.507
12153TIP3    H136400   5.391   1.340   1.572
12153TIP3    H236401   5.365   1.391   1.432
12154TIP3   OH236402   8.119   6.840   0.675
12154TIP3    H136403   8.089   6.756   0.641
12154TIP3    H236404   8.153   6.820   0.762
12155TIP3   OH236405   7.401   6.689   3.929
12155TIP3    H136406   7.458   6.762   3.953
12155TIP3    H236407   7.368   6.712   3.843
12156TIP3   OH236408   7.263   0.279   4.822
12156TIP3    H136409   7.286   0.331   4.899
12156TIP3    H236410   7.341   0.226   4.804
12157TIP3   OH236411   1.065   0.313   5.738
12157TIP3    H136412   1.083   0.403   5.711
12157TIP3    H236413   1.090   0.310   5.830
12158TIP3   OH236414   1.305   2.668   3.794
12158TIP3    H136415   1.283   2.575   3.804
12158TIP3    H236416   1.309   2.701   3.884
12159TIP3   OH236417   6.019   0.605   6.477
12159TIP3    H136418   6.021   0.514   6.445
12159TIP3    H236419   6.110   0.626   6.495
12160TIP3   OH236420   4.162   5.358   3.412
12160TIP3    H136421   4.132   5.368   3.322
12160TIP3    H236422   4.081   5.347   3.463
12161TIP3   OH236423   7.984   2.606   5.830
12161TIP3    H136424   7.929   2.553   5.886
12161TIP3    H236425   7.931   2.623   5.752
12162TIP3   OH236426   0.547   2.893   3.652
12162TIP3    H136427   0.572   2.984   3.636
12162TIP3    H236428   0.629   2.845   3.658
12163TIP3   OH236429   4.035   0.210   3.505
12163TIP3    H136430   4.069   0.241   3.421
12163TIP3    H236431   4.075   0.267   3.570
12164TIP3   OH236432   5.383   0.359   6.705
12164TIP3    H136433   5.392   0.342   6.799
12164TIP3    H236434   5.328   0.437   6.700
12165TIP3   OH236435   1.749   3.245   1.152
12165TIP3    H136436   1.782   3.279   1.068
12165TIP3    H236437   1.739   3.151   1.138
12166TIP3   OH236438   3.266   5.103   1.887
12166TIP3    H136439   3.222   5.174   1.841
12166TIP3    H236440   3.195   5.045   1.914
12167TIP3   OH236441   0.330   3.139   1.439
12167TIP3    H136442   0.372   3.224   1.421
12167TIP3    H236443   0.342   3.089   1.359
12168TIP3   OH236444   0.709   1.925   3.034
12168TIP3    H136445   0.795   1.884   3.042
12168TIP3    H236446   0.726   2.019   3.041
12169TIP3   OH236447   1.296   0.923   4.933
12169TIP3    H136448   1.305   1.016   4.913
12169TIP3    H236449   1.371   0.904   4.990
12170TIP3   OH236450   3.240   0.525   3.795
12170TIP3    H136451   3.291   0.517   3.876
12170TIP3    H236452   3.157   0.563   3.823
12171TIP3   OH236453   1.261   7.041   6.357
12171TIP3    H136454   1.352   7.041   6.388
12171TIP3    H236455   1.268   7.060   6.264
12172TIP3   OH236456   2.889   3.235   6.313
12172TIP3    H136457   2.928   3.283   6.240
12172TIP3    H236458   2.932   3.149   6.312
12173TIP3   OH236459   1.801   1.858   5.543
12173TIP3    H136460   1.837   1.882   5.628
12173TIP3    H236461   1.752   1.935   5.515
12174TIP3   OH236462   4.971   3.337   1.916
12174TIP3    H136463   4.962   3.273   1.987
12174TIP3    H236464   4.937   3.418   1.952
12175TIP3   OH236465   4.448   0.998   3.644
12175TIP3    H136466   4.499   1.026   3.568
12175TIP3    H236467   4.380   0.941   3.608
12176TIP3   OH236468   3.600   5.655   4.300
12176TIP3    H136469   3.686   5.625   4.269
12176TIP3    H236470   3.621   5.722   4.365
12177TIP3   OH236471   4.639   4.277   1.147
12177TIP3    H136472   4.604   4.298   1.233
12177TIP3    H236473   4.565   4.240   1.099
12178TIP3   OH236474   5.649   2.611   2.070
12178TIP3    H136475   5.553   2.605   2.074
12178TIP3    H236476   5.674   2.640   2.157
12179TIP3   OH236477   3.364   1.708   1.961
12179TIP3    H136478   3.364   1.662   1.876
12179TIP3    H236479   3.290   1.671   2.008
12180TIP3   OH236480   2.346   6.920   2.076
12180TIP3    H136481   2.411   6.970   2.126
12180TIP3    H236482   2.321   6.978   2.004
12181TIP3   OH236483   0.415   5.575   5.245
12181TIP3    H136484   0.391   5.526   5.166
12181TIP3    H236485   0.509   5.560   5.255
12182TIP3   OH236486   7.370   2.570   6.780
12182TIP3    H136487   7.421   2.513   6.722
12182TIP3    H236488   7.346   2.513   6.854
12183TIP3   OH236489   3.977   1.629   3.605
12183TIP3    H136490   4.064   1.633   3.644
12183TIP3    H236491   3.931   1.705   3.641
12184TIP3   OH236492   6.261   3.989   3.332
12184TIP3    H136493   6.291   4.071   3.292
12184TIP3    H236494   6.247   4.011   3.424
12185TIP3   OH236495   2.811   7.591   6.055
12185TIP3    H136496   2.836   7.590   6.147
12185TIP3    H236497   2.727   7.545   6.052
12186TIP3   OH236498   7.542   0.252   2.662
12186TIP3    H136499   7.634   0.227   2.657
12186TIP3    H236500   7.511   0.248   2.572
12187TIP3   OH236501   6.921   6.746   1.874
12187TIP3    H136502   6.890   6.835   1.888
12187TIP3    H236503   6.882   6.695   1.945
12188TIP3   OH236504   2.240   0.525   3.248
12188TIP3    H136505   2.259   0.613   3.280
12188TIP3    H236506   2.196   0.540   3.164
12189TIP3   OH236507   2.682   3.013   5.750
12189TIP3    H136508   2.616   3.006   5.818
12189TIP3    H236509   2.660   2.945   5.687
12190TIP3   OH236510   6.757   7.071   2.860
12190TIP3    H136511   6.761   6.976   2.863
12190TIP3    H236512   6.663   7.090   2.854
12191TIP3   OH236513   4.085   1.443   1.391
12191TIP3    H136514   4.079   1.480   1.479
12191TIP3    H236515   3.993   1.432   1.364
12192TIP3   OH236516   0.240   0.131   0.055
12192TIP3    H136517   0.192   0.212   0.038
12192TIP3    H236518   0.172   0.064   0.063
12193TIP3   OH236519   7.339   4.360   5.826
12193TIP3    H136520   7.251   4.399   5.827
12193TIP3    H236521   7.323   4.268   5.849
12194TIP3   OH236522   4.989   5.782   2.491
12194TIP3    H136523   4.960   5.719   2.425
12194TIP3    H236524   5.083   5.766   2.500
12195TIP3   OH236525   4.614   1.851   3.938
12195TIP3    H136526   4.691   1.809   3.977
12195TIP3    H236527   4.589   1.919   4.001
12196TIP3   OH236528   1.165   3.436   6.407
12196TIP3    H136529   1.153   3.423   6.313
12196TIP3    H236530   1.226   3.367   6.434
12197TIP3   OH236531   5.281   5.339   5.120
12197TIP3    H136532   5.331   5.366   5.043
12197TIP3    H236533   5.238   5.419   5.150
12198TIP3   OH236534   3.183   5.098   4.826
12198TIP3    H136535   3.141   5.022   4.786
12198TIP3    H236536   3.119   5.168   4.818
12199TIP3   OH236537   0.867   6.263   4.383
12199TIP3    H136538   0.894   6.198   4.447
12199TIP3    H236539   0.921   6.339   4.401
12200TIP3   OH236540   7.538   3.375   4.369
12200TIP3    H136541   7.490   3.332   4.441
12200TIP3    H236542   7.618   3.406   4.410
12201TIP3   OH236543   7.233   6.841   4.669
12201TIP3    H136544   7.162   6.792   4.711
12201TIP3    H236545   7.221   6.826   4.576
12202TIP3   OH236546   4.602   5.552   3.504
12202TIP3    H136547   4.521   5.574   3.459
12202TIP3    H236548   4.603   5.609   3.581
12203TIP3   OH236549   0.761   4.698   6.323
12203TIP3    H136550   0.825   4.713   6.254
12203TIP3    H236551   0.813   4.666   6.397
12204TIP3   OH236552   4.607   4.866   2.551
12204TIP3    H136553   4.691   4.910   2.551
12204TIP3    H236554   4.622   4.785   2.502
12205TIP3   OH236555   4.544   3.484   4.452
12205TIP3    H136556   4.541   3.559   4.393
12205TIP3    H236557   4.636   3.475   4.475
12206TIP3   OH236558   4.296   5.480   3.713
12206TIP3    H136559   4.289   5.437   3.799
12206TIP3    H236560   4.345   5.418   3.659
12207TIP3   OH236561   3.743   7.767   4.415
12207TIP3    H136562   3.806   7.797   4.481
12207TIP3    H236563   3.663   7.818   4.434
12208TIP3   OH236564   6.204   5.246   3.702
12208TIP3    H136565   6.272   5.193   3.659
12208TIP3    H236566   6.238   5.335   3.698
12209TIP3   OH236567   4.101   4.661   5.211
12209TIP3    H136568   4.195   4.670   5.222
12209TIP3    H236569   4.066   4.749   5.228
12210TIP3   OH236570   3.329   4.213   3.160
12210TIP3    H136571   3.371   4.298   3.176
12210TIP3    H236572   3.236   4.234   3.155
12211TIP3   OH236573   2.607   2.134   1.741
12211TIP3    H136574   2.645   2.081   1.671
12211TIP3    H236575   2.513   2.136   1.723
12212TIP3   OH236576   2.685   1.534   1.033
12212TIP3    H136577   2.717   1.624   1.040
12212TIP3    H236578   2.683   1.502   1.123
12213TIP3   OH236579   0.312   6.247   6.110
12213TIP3    H136580   0.288   6.178   6.171
12213TIP3    H236581   0.233   6.261   6.057
12214TIP3   OH236582   0.635   6.188   0.380
12214TIP3    H136583   0.688   6.261   0.348
12214TIP3    H236584   0.550   6.200   0.337
12215TIP3   OH236585   3.042   3.923   5.860
12215TIP3    H136586   3.068   3.889   5.946
12215TIP3    H236587   2.956   3.886   5.844
12216TIP3   OH236588   7.638   7.506   1.872
12216TIP3    H136589   7.579   7.431   1.867
12216TIP3    H236590   7.593   7.568   1.930
12217TIP3   OH236591   3.136   3.152   6.592
12217TIP3    H136592   3.232   3.157   6.598
12217TIP3    H236593   3.106   3.238   6.620
12218TIP3   OH236594   1.752   4.469   5.733
12218TIP3    H136595   1.838   4.508   5.747
12218TIP3    H236596   1.723   4.446   5.821
12219TIP3   OH236597   6.554   6.839   5.291
12219TIP3    H136598   6.576   6.869   5.202
12219TIP3    H236599   6.628   6.866   5.344
12220TIP3   OH236600   8.237   5.177   4.998
12220TIP3    H136601   8.191   5.095   5.017
12220TIP3    H236602   8.330   5.153   4.998
12221TIP3   OH236603   2.783   0.822   3.625
12221TIP3    H136604   2.820   0.854   3.707
12221TIP3    H236605   2.845   0.756   3.595
12222TIP3   OH236606   2.475   4.292   2.623
12222TIP3    H136607   2.430   4.344   2.689
12222TIP3    H236608   2.423   4.306   2.543
12223TIP3   OH236609   0.562   4.549   2.261
12223TIP3    H136610   0.518   4.490   2.322
12223TIP3    H236611   0.515   4.537   2.178
12224TIP3   OH236612   6.949   5.358   2.087
12224TIP3    H136613   6.995   5.340   2.005
12224TIP3    H236614   6.897   5.436   2.068
12225TIP3   OH236615   2.069   3.065   4.173
12225TIP3    H136616   2.002   3.021   4.226
12225TIP3    H236617   2.151   3.021   4.196
12226TIP3   OH236618   2.353   0.669   2.678
12226TIP3    H136619   2.386   0.625   2.600
12226TIP3    H236620   2.397   0.624   2.751
12227TIP3   OH236621   5.589   4.500   0.649
12227TIP3    H136622   5.656   4.550   0.603
12227TIP3    H236623   5.526   4.476   0.580
12228TIP3   OH236624   6.093   4.836   5.569
12228TIP3    H136625   6.144   4.797   5.640
12228TIP3    H236626   6.143   4.914   5.544
12229TIP3   OH236627   0.841   2.311   3.631
12229TIP3    H136628   0.779   2.279   3.696
12229TIP3    H236629   0.788   2.360   3.568
12230TIP3   OH236630   0.499   2.202   1.308
12230TIP3    H136631   0.529   2.237   1.392
12230TIP3    H236632   0.440   2.269   1.274
12231TIP3   OH236633   1.423   0.754   3.242
12231TIP3    H136634   1.405   0.703   3.321
12231TIP3    H236635   1.338   0.765   3.201
12232TIP3   OH236636   7.256   4.129   2.055
12232TIP3    H136637   7.180   4.179   2.027
12232TIP3    H236638   7.327   4.160   1.999
12233TIP3   OH236639   6.611   2.925   2.812
12233TIP3    H136640   6.693   2.944   2.766
12233TIP3    H236641   6.635   2.861   2.878
12234TIP3   OH236642   4.229   6.599   2.590
12234TIP3    H136643   4.178   6.621   2.512
12234TIP3    H236644   4.309   6.651   2.582
12235TIP3   OH236645   5.499   6.719   5.240
12235TIP3    H136646   5.539   6.723   5.327
12235TIP3    H236647   5.464   6.630   5.234
12236TIP3   OH236648  -0.010   1.224   3.723
12236TIP3    H136649   0.058   1.164   3.694
12236TIP3    H236650   0.038   1.300   3.756
12237TIP3   OH236651   5.803   0.667   6.050
12237TIP3    H136652   5.750   0.693   6.125
12237TIP3    H236653   5.745   0.611   5.998
12238TIP3   OH236654   7.662   1.405   5.898
12238TIP3    H136655   7.584   1.445   5.860
12238TIP3    H236656   7.666   1.440   5.987
12239TIP3   OH236657   5.042   1.253   2.995
12239TIP3    H136658   4.995   1.316   3.050
12239TIP3    H236659   4.975   1.188   2.972
12240TIP3   OH236660   2.817   2.569   6.539
12240TIP3    H136661   2.885   2.619   6.494
12240TIP3    H236662   2.782   2.510   6.472
12241TIP3   OH236663   3.567   5.101   1.836
12241TIP3    H136664   3.600   5.030   1.891
12241TIP3    H236665   3.472   5.094   1.843
12242TIP3   OH236666   0.343   3.680   1.281
12242TIP3    H136667   0.319   3.714   1.367
12242TIP3    H236668   0.283   3.725   1.221
12243TIP3   OH236669   3.788   3.054   4.682
12243TIP3    H136670   3.827   2.968   4.664
12243TIP3    H236671   3.856   3.117   4.661
12244TIP3   OH236672   3.821   7.323   1.078
12244TIP3    H136673   3.906   7.303   1.116
12244TIP3    H236674   3.765   7.250   1.104
12245TIP3   OH236675   0.008   2.652   6.435
12245TIP3    H136676   0.035   2.587   6.500
12245TIP3    H236677  -0.047   2.713   6.483
12246TIP3   OH236678   3.952   6.837   3.954
12246TIP3    H136679   3.927   6.877   4.038
12246TIP3    H236680   4.003   6.760   3.978
12247TIP3   OH236681   3.063   3.174   3.860
12247TIP3    H136682   3.121   3.248   3.842
12247TIP3    H236683   3.090   3.143   3.946
12248TIP3   OH236684   7.904   7.206   1.303
12248TIP3    H136685   7.960   7.154   1.360
12248TIP3    H236686   7.821   7.159   1.301
12249TIP3   OH236687   4.270   0.523   3.209
12249TIP3    H136688   4.327   0.446   3.204
12249TIP3    H236689   4.256   0.537   3.303
12250TIP3   OH236690   4.133   4.668   4.097
12250TIP3    H136691   4.063   4.609   4.067
12250TIP3    H236692   4.182   4.690   4.017
12251TIP3   OH236693   4.297   2.176   5.461
12251TIP3    H136694   4.355   2.157   5.535
12251TIP3    H236695   4.356   2.212   5.394
12252TIP3   OH236696   8.212   1.422   6.499
12252TIP3    H136697   8.146   1.474   6.544
12252TIP3    H236698   8.288   1.481   6.492
12253TIP3   OH236699   1.886   4.648   2.837
12253TIP3    H136700   1.895   4.553   2.829
12253TIP3    H236701   1.898   4.665   2.931
12254TIP3   OH236702   8.334   0.224   4.114
12254TIP3    H136703   8.379   0.144   4.142
12254TIP3    H236704   8.327   0.215   4.019
12255TIP3   OH236705   6.196   7.570   0.581
12255TIP3    H136706   6.231   7.519   0.653
12255TIP3    H236707   6.168   7.652   0.622
12256TIP3   OH236708   1.528   7.854   2.942
12256TIP3    H136709   1.544   7.899   3.025
12256TIP3    H236710   1.577   7.906   2.878
12257TIP3   OH236711   6.391   3.187   4.440
12257TIP3    H136712   6.427   3.271   4.467
12257TIP3    H236713   6.428   3.124   4.502
12258TIP3   OH236714   5.308   5.845   4.650
12258TIP3    H136715   5.343   5.791   4.580
12258TIP3    H236716   5.229   5.799   4.678
12259TIP3   OH236717   4.653   2.367   1.450
12259TIP3    H136718   4.563   2.382   1.421
12259TIP3    H236719   4.643   2.325   1.536
12260TIP3   OH236720   5.161   0.205   3.670
12260TIP3    H136721   5.169   0.300   3.660
12260TIP3    H236722   5.186   0.189   3.761
12261TIP3   OH236723   3.884   5.482   2.541
12261TIP3    H136724   3.814   5.532   2.499
12261TIP3    H236725   3.938   5.547   2.585
12262TIP3   OH236726   6.708   4.416   0.828
12262TIP3    H136727   6.784   4.396   0.773
12262TIP3    H236728   6.672   4.330   0.851
12263TIP3   OH236729   6.093   4.473   1.725
12263TIP3    H136730   6.159   4.408   1.700
12263TIP3    H236731   6.121   4.554   1.682
12264TIP3   OH236732   1.945   1.465   5.356
12264TIP3    H136733   1.871   1.526   5.354
12264TIP3    H236734   1.918   1.394   5.298
12265TIP3   OH236735   3.758   6.053   3.088
12265TIP3    H136736   3.707   6.015   3.160
12265TIP3    H236737   3.730   6.005   3.010
12266TIP3   OH236738   3.282   7.080   0.674
12266TIP3    H136739   3.188   7.076   0.657
12266TIP3    H236740   3.305   7.172   0.659
12267TIP3   OH236741   5.432   5.455   5.355
12267TIP3    H136742   5.497   5.468   5.286
12267TIP3    H236743   5.414   5.361   5.353
12268TIP3   OH236744   2.615   1.573   0.631
12268TIP3    H136745   2.600   1.519   0.554
12268TIP3    H236746   2.683   1.527   0.680
12269TIP3   OH236747   5.890   6.217   5.173
12269TIP3    H136748   5.880   6.128   5.141
12269TIP3    H236749   5.805   6.239   5.212
12270TIP3   OH236750   6.273   5.041   1.981
12270TIP3    H136751   6.322   5.123   1.983
12270TIP3    H236752   6.314   4.990   1.910
12271TIP3   OH236753   4.104   6.647   6.333
12271TIP3    H136754   4.142   6.636   6.246
12271TIP3    H236755   4.116   6.562   6.375
12272TIP3   OH236756   5.676   1.866   2.768
12272TIP3    H136757   5.621   1.838   2.695
12272TIP3    H236758   5.765   1.866   2.732
12273TIP3   OH236759   6.560   4.583   0.557
12273TIP3    H136760   6.617   4.539   0.494
12273TIP3    H236761   6.530   4.662   0.511
12274TIP3   OH236762   4.447   6.385   4.620
12274TIP3    H136763   4.481   6.456   4.674
12274TIP3    H236764   4.382   6.427   4.564
12275TIP3   OH236765   2.615   0.710   0.048
12275TIP3    H136766   2.592   0.708   0.141
12275TIP3    H236767   2.640   0.620   0.028
12276TIP3   OH236768   2.133   3.503   1.920
12276TIP3    H136769   2.169   3.532   2.003
12276TIP3    H236770   2.171   3.417   1.906
12277TIP3   OH236771   4.593   6.934   4.649
12277TIP3    H136772   4.565   7.016   4.690
12277TIP3    H236773   4.658   6.898   4.710
12278TIP3   OH236774   5.539   7.797   3.837
12278TIP3    H136775   5.449   7.817   3.811
12278TIP3    H236776   5.573   7.746   3.764
12279TIP3   OH236777   3.031   4.603   4.217
12279TIP3    H136778   3.020   4.686   4.263
12279TIP3    H236779   2.942   4.573   4.199
12280TIP3   OH236780   6.254   6.120   4.093
12280TIP3    H136781   6.256   6.047   4.156
12280TIP3    H236782   6.345   6.147   4.085
12281TIP3   OH236783   3.684   7.293   4.497
12281TIP3    H136784   3.660   7.201   4.514
12281TIP3    H236785   3.602   7.334   4.471
12282TIP3   OH236786   6.804   3.501   4.431
12282TIP3    H136787   6.835   3.445   4.360
12282TIP3    H236788   6.720   3.535   4.400
12283TIP3   OH236789   7.751   0.901   6.070
12283TIP3    H136790   7.837   0.932   6.040
12283TIP3    H236791   7.751   0.807   6.049
12284TIP3   OH236792   7.795   4.993   3.200
12284TIP3    H136793   7.795   5.049   3.122
12284TIP3    H236794   7.792   4.904   3.165
12285TIP3   OH236795   5.252   6.225   5.445
12285TIP3    H136796   5.327   6.233   5.505
12285TIP3    H236797   5.255   6.134   5.415
12286TIP3   OH236798  -0.050   2.456   1.820
12286TIP3    H136799  -0.008   2.455   1.906
12286TIP3    H236800   0.023   2.443   1.758
12287TIP3   OH236801   5.415   5.851   0.906
12287TIP3    H136802   5.332   5.879   0.944
12287TIP3    H236803   5.395   5.768   0.863
12288TIP3   OH236804   3.541   2.263   5.309
12288TIP3    H136805   3.494   2.201   5.365
12288TIP3    H236806   3.533   2.347   5.355
12289TIP3   OH236807   3.463   5.141   4.770
12289TIP3    H136808   3.448   5.227   4.731
12289TIP3    H236809   3.377   5.114   4.803
12290TIP3   OH236810   3.032   4.933   1.983
12290TIP3    H136811   3.003   4.892   1.902
12290TIP3    H236812   2.952   4.942   2.035
12291TIP3   OH236813   6.923   6.476   3.383
12291TIP3    H136814   7.003   6.460   3.334
12291TIP3    H236815   6.949   6.537   3.452
12292TIP3   OH236816   0.064   6.389   6.363
12292TIP3    H136817   0.132   6.342   6.410
12292TIP3    H236818   0.020   6.442   6.430
12293TIP3   OH236819   3.316   4.831   3.442
12293TIP3    H136820   3.326   4.883   3.363
12293TIP3    H236821   3.258   4.759   3.417
12294TIP3   OH236822   6.280   2.264   1.079
12294TIP3    H136823   6.270   2.175   1.044
12294TIP3    H236824   6.202   2.310   1.051
12295TIP3   OH236825   1.727   4.745   3.996
12295TIP3    H136826   1.639   4.754   4.033
12295TIP3    H236827   1.717   4.683   3.923
12296TIP3   OH236828   6.531   1.656   3.189
12296TIP3    H136829   6.508   1.722   3.254
12296TIP3    H236830   6.552   1.578   3.241
12297TIP3   OH236831   5.177   5.252   3.815
12297TIP3    H136832   5.101   5.196   3.797
12297TIP3    H236833   5.150   5.306   3.889
12298TIP3   OH236834   3.622   0.102   0.760
12298TIP3    H136835   3.657   0.058   0.682
12298TIP3    H236836   3.651   0.048   0.833
12299TIP3   OH236837   4.355   4.707   5.202
12299TIP3    H136838   4.390   4.733   5.117
12299TIP3    H236839   4.415   4.746   5.265
12300TIP3   OH236840   5.921   4.205   0.158
12300TIP3    H136841   5.971   4.234   0.081
12300TIP3    H236842   5.830   4.200   0.126
12301TIP3   OH236843   5.587   2.020   6.625
12301TIP3    H136844   5.615   2.017   6.717
12301TIP3    H236845   5.668   2.012   6.575
12302TIP3   OH236846   0.628   2.207   5.982
12302TIP3    H136847   0.698   2.166   5.930
12302TIP3    H236848   0.675   2.256   6.050
12303TIP3   OH236849   0.636   2.017   4.260
12303TIP3    H136850   0.682   2.064   4.190
12303TIP3    H236851   0.696   1.948   4.285
12304TIP3   OH236852   7.550   7.451   5.419
12304TIP3    H136853   7.635   7.446   5.461
12304TIP3    H236854   7.487   7.429   5.488
12305TIP3   OH236855   8.010   5.086   4.709
12305TIP3    H136856   8.094   5.077   4.665
12305TIP3    H236857   7.998   5.180   4.722
12306TIP3   OH236858   1.757   1.678   5.330
12306TIP3    H136859   1.685   1.616   5.337
12306TIP3    H236860   1.765   1.715   5.418
12307TIP3   OH236861   7.867   6.954   4.481
12307TIP3    H136862   7.810   6.985   4.411
12307TIP3    H236863   7.835   6.999   4.560
12308TIP3   OH236864   7.125   6.823  -0.028
12308TIP3    H136865   7.066   6.748  -0.019
12308TIP3    H236866   7.126   6.864   0.059
12309TIP3   OH236867   2.162   5.158   5.515
12309TIP3    H136868   2.233   5.098   5.539
12309TIP3    H236869   2.082   5.115   5.545
12310TIP3   OH236870   4.207   1.179   2.785
12310TIP3    H136871   4.281   1.127   2.756
12310TIP3    H236872   4.241   1.269   2.788
12311TIP3   OH236873   1.047   0.497   0.460
12311TIP3    H136874   1.009   0.574   0.502
12311TIP3    H236875   1.140   0.500   0.483
12312TIP3   OH236876   5.138   0.637   1.048
12312TIP3    H136877   5.093   0.665   1.128
12312TIP3    H236878   5.067   0.615   0.987
12313TIP3   OH236879   7.636   4.669   5.504
12313TIP3    H136880   7.588   4.640   5.582
12313TIP3    H236881   7.600   4.616   5.433
12314TIP3   OH236882   0.741   0.808   0.390
12314TIP3    H136883   0.775   0.898   0.390
12314TIP3    H236884   0.805   0.758   0.439
12315TIP3   OH236885   6.206   1.828   3.393
12315TIP3    H136886   6.301   1.835   3.402
12315TIP3    H236887   6.175   1.801   3.480
12316TIP3   OH236888   1.076   6.785   6.094
12316TIP3    H136889   1.126   6.790   6.176
12316TIP3    H236890   1.128   6.728   6.037
12317TIP3   OH236891   1.338   5.531   6.398
12317TIP3    H136892   1.262   5.500   6.446
12317TIP3    H236893   1.379   5.451   6.364
12318TIP3   OH236894   5.286   3.096   0.626
12318TIP3    H136895   5.195   3.075   0.648
12318TIP3    H236896   5.304   3.046   0.546
12319TIP3   OH236897   0.038   5.993   2.085
12319TIP3    H136898   0.027   5.914   2.032
12319TIP3    H236899   0.094   5.965   2.158
12320TIP3   OH236900   6.501   0.069   3.142
12320TIP3    H136901   6.468   0.144   3.191
12320TIP3    H236902   6.448   0.067   3.062
12321TIP3   OH236903   0.587   4.847   3.977
12321TIP3    H136904   0.606   4.924   3.924
12321TIP3    H236905   0.529   4.794   3.923
12322TIP3   OH236906   6.922   7.395   0.099
12322TIP3    H136907   6.869   7.386   0.020
12322TIP3    H236908   6.955   7.485   0.096
12323TIP3   OH236909   0.357   2.311   6.650
12323TIP3    H136910   0.441   2.271   6.669
12323TIP3    H236911   0.368   2.349   6.563
12324TIP3   OH236912   3.436   3.937   6.839
12324TIP3    H136913   3.461   3.877   6.769
12324TIP3    H236914   3.494   4.012   6.829
12325TIP3   OH236915   4.641   7.342   4.915
12325TIP3    H136916   4.553   7.378   4.929
12325TIP3    H236917   4.692   7.373   4.990
12326TIP3   OH236918   3.466   6.076   2.072
12326TIP3    H136919   3.440   5.995   2.116
12326TIP3    H236920   3.403   6.141   2.104
12327TIP3   OH236921   1.837   2.189   2.668
12327TIP3    H136922   1.786   2.125   2.717
12327TIP3    H236923   1.900   2.137   2.618
12328TIP3   OH236924   4.776   3.716   5.357
12328TIP3    H136925   4.704   3.679   5.306
12328TIP3    H236926   4.761   3.684   5.446
12329TIP3   OH236927   1.380   2.334   2.618
12329TIP3    H136928   1.336   2.391   2.681
12329TIP3    H236929   1.325   2.255   2.616
12330TIP3   OH236930   7.214   6.766   4.390
12330TIP3    H136931   7.296   6.717   4.399
12330TIP3    H236932   7.146   6.703   4.412
12331TIP3   OH236933   7.202   1.856   4.174
12331TIP3    H136934   7.252   1.793   4.226
12331TIP3    H236935   7.231   1.841   4.084
12332TIP3   OH236936   3.619   0.917   2.588
12332TIP3    H136937   3.545   0.931   2.529
12332TIP3    H236938   3.695   0.907   2.530
12333TIP3   OH236939   8.132   4.213   2.371
12333TIP3    H136940   8.138   4.308   2.366
12333TIP3    H236941   8.183   4.180   2.298
12334TIP3   OH236942   2.308   0.863   1.666
12334TIP3    H136943   2.282   0.822   1.748
12334TIP3    H236944   2.400   0.840   1.655
12335TIP3   OH236945   1.697   7.079   4.526
12335TIP3    H136946   1.626   7.061   4.588
12335TIP3    H236947   1.679   7.023   4.452
12336TIP3   OH236948   0.041   5.168   3.295
12336TIP3    H136949   0.069   5.204   3.379
12336TIP3    H236950  -0.013   5.237   3.257
12337TIP3   OH236951   6.604   1.150   5.586
12337TIP3    H136952   6.549   1.169   5.510
12337TIP3    H236953   6.684   1.200   5.572
12338TIP3   OH236954   6.067   3.959   4.218
12338TIP3    H136955   6.070   3.898   4.144
12338TIP3    H236956   6.060   4.045   4.177
12339TIP3   OH236957   2.243   1.998   2.322
12339TIP3    H136958   2.281   1.949   2.249
12339TIP3    H236959   2.310   2.061   2.347
12340TIP3   OH236960   6.801   6.730   1.412
12340TIP3    H136961   6.818   6.817   1.450
12340TIP3    H236962   6.835   6.669   1.478
12341TIP3   OH236963   2.849   7.869   3.120
12341TIP3    H136964   2.943   7.862   3.101
12341TIP3    H236965   2.842   7.945   3.178
12342TIP3   OH236966   0.471   6.477   1.916
12342TIP3    H136967   0.551   6.512   1.955
12342TIP3    H236968   0.402   6.497   1.979
12343TIP3   OH236969   3.837   3.133   5.999
12343TIP3    H136970   3.750   3.159   5.968
12343TIP3    H236971   3.896   3.201   5.967
12344TIP3   OH236972   8.105   0.659   0.529
12344TIP3    H136973   8.030   0.599   0.532
12344TIP3    H236974   8.113   0.691   0.618
12345TIP3   OH236975   4.996   5.345   5.906
12345TIP3    H136976   5.037   5.431   5.894
12345TIP3    H236977   4.986   5.337   6.001
12346TIP3   OH236978   0.154   1.966   1.206
12346TIP3    H136979   0.060   1.977   1.192
12346TIP3    H236980   0.160   1.901   1.276
12347TIP3   OH236981   7.967   1.137   4.908
12347TIP3    H136982   7.964   1.145   4.812
12347TIP3    H236983   7.878   1.159   4.936
12348TIP3   OH236984   5.994   3.952   2.295
12348TIP3    H136985   5.926   3.909   2.348
12348TIP3    H236986   6.029   3.882   2.241
12349TIP3   OH236987   3.771   4.820   6.629
12349TIP3    H136988   3.699   4.760   6.607
12349TIP3    H236989   3.745   4.903   6.590
12350TIP3   OH236990   5.615   1.619   1.341
12350TIP3    H136991   5.581   1.709   1.342
12350TIP3    H236992   5.555   1.572   1.282
12351TIP3   OH236993   4.346   2.495   5.320
12351TIP3    H136994   4.257   2.526   5.337
12351TIP3    H236995   4.398   2.535   5.389
12352TIP3   OH236996   2.766   7.605   3.141
12352TIP3    H136997   2.785   7.699   3.140
12352TIP3    H236998   2.736   7.585   3.052
12353TIP3   OH236999   3.159   7.413   2.990
12353TIP3    H137000   3.100   7.390   2.919
12353TIP3    H237001   3.157   7.337   3.048
12354TIP3   OH237002   8.269   3.387   2.270
12354TIP3    H137003   8.315   3.469   2.250
12354TIP3    H237004   8.177   3.406   2.251
12355TIP3   OH237005   2.063   0.853   1.038
12355TIP3    H137006   2.029   0.939   1.059
12355TIP3    H237007   2.060   0.804   1.120
12356TIP3   OH237008   2.400   4.322   6.697
12356TIP3    H137009   2.354   4.402   6.722
12356TIP3    H237010   2.458   4.303   6.771
12357TIP3   OH237011   8.275   0.611   0.203
12357TIP3    H137012   8.286   0.602   0.297
12357TIP3    H237013   8.310   0.530   0.166
12358TIP3   OH237014   0.976   4.961   0.579
12358TIP3    H137015   0.984   4.919   0.493
12358TIP3    H237016   0.954   4.889   0.638
12359TIP3   OH237017   3.528   4.598   6.022
12359TIP3    H137018   3.564   4.605   6.110
12359TIP3    H237019   3.468   4.672   6.014
12360TIP3   OH237020   0.423   5.743   5.547
12360TIP3    H137021   0.420   5.665   5.491
12360TIP3    H237022   0.387   5.714   5.630
12361TIP3   OH237023   0.359   3.113   1.866
12361TIP3    H137024   0.339   3.027   1.828
12361TIP3    H237025   0.443   3.137   1.827
12362TIP3   OH237026   8.025   3.787   3.175
12362TIP3    H137027   8.113   3.755   3.195
12362TIP3    H237028   8.040   3.861   3.116
12363TIP3   OH237029   5.170   0.303   3.941
12363TIP3    H137030   5.165   0.380   3.885
12363TIP3    H237031   5.192   0.337   4.027
12364TIP3   OH237032   8.391   0.507   4.872
12364TIP3    H137033   8.401   0.412   4.864
12364TIP3    H237034   8.312   0.526   4.822
12365TIP3   OH237035   0.066   2.208   1.899
12365TIP3    H137036   0.154   2.243   1.912
12365TIP3    H237037   0.014   2.247   1.970
12366TIP3   OH237038   2.983   5.378   2.960
12366TIP3    H137039   3.015   5.423   2.881
12366TIP3    H237040   2.998   5.441   3.031
12367TIP3   OH237041   7.149   1.859   2.757
12367TIP3    H137042   7.069   1.900   2.790
12367TIP3    H237043   7.155   1.886   2.666
12368TIP3   OH237044   2.774   6.390   2.573
12368TIP3    H137045   2.743   6.376   2.483
12368TIP3    H237046   2.842   6.456   2.564
12369TIP3   OH237047   5.840   5.799   2.025
12369TIP3    H137048   5.872   5.885   1.996
12369TIP3    H237049   5.753   5.791   1.988
12370TIP3   OH237050   0.940   2.713   6.414
12370TIP3    H137051   0.897   2.687   6.332
12370TIP3    H237052   0.946   2.633   6.465
12371TIP3   OH237053   1.641   4.574   2.037
12371TIP3    H137054   1.687   4.497   2.005
12371TIP3    H237055   1.553   4.566   2.001
12372TIP3   OH237056   0.130   6.912   6.742
12372TIP3    H137057   0.132   6.994   6.692
12372TIP3    H237058   0.060   6.924   6.806
12373TIP3   OH237059   6.341   5.945   1.166
12373TIP3    H137060   6.424   5.975   1.204
12373TIP3    H237061   6.360   5.935   1.073
12374TIP3   OH237062   3.318   0.651   6.480
12374TIP3    H137063   3.304   0.576   6.422
12374TIP3    H237064   3.389   0.700   6.439
12375TIP3   OH237065   1.241   1.473   0.893
12375TIP3    H137066   1.165   1.502   0.944
12375TIP3    H237067   1.278   1.401   0.944
12376TIP3   OH237068   4.985   5.134   4.982
12376TIP3    H137069   4.898   5.171   4.963
12376TIP3    H237070   5.034   5.208   5.017
12377TIP3   OH237071   6.925   2.257   3.380
12377TIP3    H137072   6.996   2.224   3.325
12377TIP3    H237073   6.864   2.183   3.385
12378TIP3   OH237074   7.826   5.497   0.637
12378TIP3    H137075   7.770   5.495   0.560
12378TIP3    H237076   7.872   5.581   0.632
12379TIP3   OH237077   3.284   6.356   1.500
12379TIP3    H137078   3.283   6.356   1.596
12379TIP3    H237079   3.374   6.379   1.477
12380TIP3   OH237080   2.699   1.909   6.609
12380TIP3    H137081   2.717   1.983   6.668
12380TIP3    H237082   2.617   1.872   6.642
12381TIP3   OH237083   3.809   7.870   4.861
12381TIP3    H137084   3.718   7.841   4.852
12381TIP3    H237085   3.834   7.844   4.950
12382TIP3   OH237086   3.420   1.080   4.644
12382TIP3    H137087   3.514   1.082   4.628
12382TIP3    H237088   3.411   1.028   4.724
12383TIP3   OH237089   3.612   7.037   1.788
12383TIP3    H137090   3.692   7.007   1.745
12383TIP3    H237091   3.555   7.065   1.716
12384TIP3   OH237092   7.499   7.066   0.382
12384TIP3    H137093   7.478   7.092   0.471
12384TIP3    H237094   7.508   6.971   0.385
12385TIP3   OH237095   0.377   6.843   1.958
12385TIP3    H137096   0.283   6.857   1.948
12385TIP3    H237097   0.394   6.860   2.051
12386TIP3   OH237098   5.271   0.855   0.571
12386TIP3    H137099   5.212   0.789   0.608
12386TIP3    H237100   5.333   0.805   0.517
12387TIP3   OH237101   1.437   0.306   3.332
12387TIP3    H137102   1.379   0.269   3.399
12387TIP3    H237103   1.441   0.399   3.353
12388TIP3   OH237104   7.996   2.326   3.356
12388TIP3    H137105   7.904   2.305   3.368
12388TIP3    H237106   8.005   2.416   3.385
12389TIP3   OH237107   6.535   7.345   5.129
12389TIP3    H137108   6.614   7.396   5.108
12389TIP3    H237109   6.543   7.327   5.223
12390TIP3   OH237110   2.684   6.169   5.521
12390TIP3    H137111   2.766   6.149   5.566
12390TIP3    H237112   2.658   6.254   5.556
12391TIP3   OH237113   0.504   7.545   2.843
12391TIP3    H137114   0.449   7.496   2.905
12391TIP3    H237115   0.485   7.637   2.863
12392TIP3   OH237116   7.705   7.395   4.850
12392TIP3    H137117   7.616   7.402   4.816
12392TIP3    H237118   7.696   7.340   4.928
12393TIP3   OH237119   0.969   4.546   5.944
12393TIP3    H137120   0.884   4.510   5.920
12393TIP3    H237121   1.032   4.487   5.903
12394TIP3   OH237122   1.191   4.049   1.853
12394TIP3    H137123   1.250   4.057   1.929
12394TIP3    H237124   1.138   3.972   1.872
12395TIP3   OH237125   6.464   3.872   0.452
12395TIP3    H137126   6.378   3.875   0.411
12395TIP3    H237127   6.509   3.950   0.418
12396TIP3   OH237128   7.555   0.371   5.626
12396TIP3    H137129   7.588   0.292   5.583
12396TIP3    H237130   7.633   0.412   5.665
12397TIP3   OH237131   2.423   4.786   6.600
12397TIP3    H137132   2.442   4.880   6.601
12397TIP3    H237133   2.482   4.751   6.533
12398TIP3   OH237134   5.895   6.422   1.472
12398TIP3    H137135   5.825   6.484   1.453
12398TIP3    H237136   5.877   6.347   1.416
12399TIP3   OH237137   7.765   4.696   3.474
12399TIP3    H137138   7.840   4.691   3.534
12399TIP3    H237139   7.689   4.676   3.529
12400TIP3   OH237140   3.790   6.880   2.703
12400TIP3    H137141   3.884   6.894   2.712
12400TIP3    H237142   3.776   6.790   2.732
12401TIP3   OH237143   0.240   4.776   5.467
12401TIP3    H137144   0.200   4.716   5.530
12401TIP3    H237145   0.221   4.863   5.501
12402TIP3   OH237146   1.444   1.683   1.515
12402TIP3    H137147   1.538   1.693   1.506
12402TIP3    H237148   1.430   1.588   1.520
12403TIP3   OH237149   1.943   0.680   5.062
12403TIP3    H137150   2.016   0.738   5.084
12403TIP3    H237151   1.896   0.725   4.992
12404TIP3   OH237152   1.109   3.394   5.822
12404TIP3    H137153   1.160   3.367   5.746
12404TIP3    H237154   1.133   3.485   5.836
12405TIP3   OH237155   7.627   5.532   5.574
12405TIP3    H137156   7.627   5.594   5.501
12405TIP3    H237157   7.713   5.491   5.570
12406TIP3   OH237158   5.595   7.389   6.873
12406TIP3    H137159   5.634   7.477   6.867
12406TIP3    H237160   5.647   7.336   6.813
12407TIP3   OH237161   6.269   3.536   4.220
12407TIP3    H137162   6.243   3.569   4.134
12407TIP3    H237163   6.275   3.441   4.208
12408TIP3   OH237164   8.352   4.094   0.131
12408TIP3    H137165   8.350   4.184   0.162
12408TIP3    H237166   8.298   4.046   0.194
12409TIP3   OH237167   4.600   3.093   2.639
12409TIP3    H137168   4.645   3.174   2.664
12409TIP3    H237169   4.547   3.117   2.563
12410TIP3   OH237170   2.095   1.680   3.508
12410TIP3    H137171   2.033   1.751   3.525
12410TIP3    H237172   2.161   1.688   3.576
12411TIP3   OH237173   0.888   7.459   3.979
12411TIP3    H137174   0.812   7.403   3.993
12411TIP3    H237175   0.955   7.424   4.036
12412TIP3   OH237176   8.172   2.767   2.659
12412TIP3    H137177   8.192   2.681   2.697
12412TIP3    H237178   8.101   2.801   2.713
12413TIP3   OH237179   5.404   1.362   3.787
12413TIP3    H137180   5.489   1.393   3.755
12413TIP3    H237181   5.340   1.404   3.730
12414TIP3   OH237182   2.523   1.545   4.785
12414TIP3    H137183   2.608   1.514   4.817
12414TIP3    H237184   2.459   1.485   4.824
12415TIP3   OH237185   5.812   2.130   6.468
12415TIP3    H137186   5.898   2.159   6.499
12415TIP3    H237187   5.818   2.135   6.373
12416TIP3   OH237188   0.768   6.258   5.880
12416TIP3    H137189   0.686   6.227   5.919
12416TIP3    H237190   0.747   6.271   5.788
12417TIP3   OH237191   4.308   2.558   1.707
12417TIP3    H137192   4.399   2.583   1.688
12417TIP3    H237193   4.293   2.587   1.797
12418TIP3   OH237194   3.447   6.654   2.744
12418TIP3    H137195   3.412   6.739   2.769
12418TIP3    H237196   3.511   6.634   2.812
12419TIP3   OH237197   6.787   0.166   6.883
12419TIP3    H137198   6.879   0.175   6.906
12419TIP3    H237199   6.766   0.249   6.839
12420TIP3   OH237200   3.775   2.589   1.746
12420TIP3    H137201   3.798   2.680   1.731
12420TIP3    H237202   3.679   2.587   1.743
12421TIP3   OH237203   0.971   3.701   6.462
12421TIP3    H137204   0.931   3.623   6.422
12421TIP3    H237205   0.978   3.680   6.555
12422TIP3   OH237206   4.000   1.711   1.431
12422TIP3    H137207   3.976   1.770   1.503
12422TIP3    H237208   4.084   1.744   1.400
12423TIP3   OH237209   4.133   4.466   1.555
12423TIP3    H137210   4.164   4.404   1.489
12423TIP3    H237211   4.209   4.521   1.573
12424TIP3   OH237212   0.542   0.233   5.124
12424TIP3    H137213   0.605   0.303   5.104
12424TIP3    H237214   0.591   0.152   5.114
12425TIP3   OH237215   0.110   5.963   1.056
12425TIP3    H137216   0.140   6.005   0.975
12425TIP3    H237217   0.148   6.017   1.126
12426TIP3   OH237218   7.444   1.454   3.312
12426TIP3    H137219   7.492   1.472   3.393
12426TIP3    H237220   7.420   1.540   3.278
12427TIP3   OH237221   5.197   4.582   2.028
12427TIP3    H137222   5.238   4.571   2.113
12427TIP3    H237223   5.134   4.653   2.041
12428TIP3   OH237224   2.584   4.840   3.732
12428TIP3    H137225   2.489   4.824   3.731
12428TIP3    H237226   2.591   4.935   3.722
12429TIP3   OH237227   1.517   7.111   6.405
12429TIP3    H137228   1.537   7.147   6.491
12429TIP3    H237229   1.599   7.072   6.375
12430TIP3   OH237230   0.322   7.624   2.199
12430TIP3    H137231   0.336   7.713   2.164
12430TIP3    H237232   0.400   7.576   2.171
12431TIP3   OH237233   4.193   2.386   2.770
12431TIP3    H137234   4.163   2.307   2.816
12431TIP3    H237235   4.141   2.457   2.808
12432TIP3   OH237236   1.130   5.976   3.282
12432TIP3    H137237   1.160   6.067   3.277
12432TIP3    H237238   1.162   5.936   3.201
12433TIP3   OH237239   5.660   3.149   4.511
12433TIP3    H137240   5.734   3.154   4.571
12433TIP3    H237241   5.584   3.133   4.566
12434TIP3   OH237242   4.752   3.372   6.475
12434TIP3    H137243   4.747   3.347   6.567
12434TIP3    H237244   4.689   3.444   6.466
12435TIP3   OH237245   2.366   6.617   4.616
12435TIP3    H137246   2.332   6.674   4.686
12435TIP3    H237247   2.300   6.548   4.608
12436TIP3   OH237248   0.894   0.979   5.985
12436TIP3    H137249   0.973   0.936   6.018
12436TIP3    H237250   0.881   0.941   5.898
12437TIP3   OH237251   8.044   2.833   0.316
12437TIP3    H137252   8.034   2.920   0.354
12437TIP3    H237253   8.015   2.843   0.226
12438TIP3   OH237254   7.408   3.118   1.735
12438TIP3    H137255   7.479   3.055   1.719
12438TIP3    H237256   7.380   3.144   1.648
12439TIP3   OH237257   3.420   2.697   5.269
12439TIP3    H137258   3.390   2.689   5.360
12439TIP3    H237259   3.504   2.742   5.276
12440TIP3   OH237260   2.770   0.197   1.129
12440TIP3    H137261   2.859   0.177   1.100
12440TIP3    H237262   2.772   0.183   1.224
12441TIP3   OH237263   4.209   2.319   4.229
12441TIP3    H137264   4.208   2.364   4.145
12441TIP3    H237265   4.298   2.334   4.263
12442TIP3   OH237266   0.160   6.124   4.101
12442TIP3    H137267   0.163   6.150   4.193
12442TIP3    H237268   0.070   6.094   4.088
12443TIP3   OH237269   5.092   3.006   6.522
12443TIP3    H137270   5.097   3.019   6.616
12443TIP3    H237271   5.106   3.093   6.485
12444TIP3   OH237272   6.063   6.166   6.248
12444TIP3    H137273   6.025   6.158   6.160
12444TIP3    H237274   6.037   6.253   6.277
12445TIP3   OH237275   6.676   0.582   2.100
12445TIP3    H137276   6.734   0.565   2.027
12445TIP3    H237277   6.673   0.678   2.107
12446TIP3   OH237278   3.187   5.033   2.426
12446TIP3    H137279   3.152   5.075   2.347
12446TIP3    H237280   3.149   4.945   2.426
12447TIP3   OH237281   6.239   7.139   5.711
12447TIP3    H137282   6.159   7.089   5.696
12447TIP3    H237283   6.290   7.086   5.771
12448TIP3   OH237284   5.447   4.549   5.504
12448TIP3    H137285   5.426   4.642   5.515
12448TIP3    H237286   5.497   4.546   5.422
12449TIP3   OH237287   2.056   2.875   4.789
12449TIP3    H137288   2.111   2.797   4.796
12449TIP3    H237289   2.118   2.945   4.765
12450TIP3   OH237290   4.737   7.696   6.046
12450TIP3    H137291   4.664   7.747   6.081
12450TIP3    H237292   4.718   7.606   6.073
12451TIP3   OH237293   2.160   4.826   5.163
12451TIP3    H137294   2.187   4.738   5.137
12451TIP3    H237295   2.216   4.885   5.113
12452TIP3   OH237296   6.566   6.777   5.776
12452TIP3    H137297   6.534   6.830   5.849
12452TIP3    H237298   6.563   6.836   5.700
12453TIP3   OH237299   7.013   1.182   2.979
12453TIP3    H137300   6.965   1.219   2.905
12453TIP3    H237301   7.105   1.186   2.952
12454TIP3   OH237302   0.210   5.510   0.989
12454TIP3    H137303   0.164   5.426   0.985
12454TIP3    H237304   0.140   5.576   0.989
12455TIP3   OH237305   5.514   6.216   3.269
12455TIP3    H137306   5.598   6.256   3.248
12455TIP3    H237307   5.490   6.254   3.354
12456TIP3   OH237308   5.958   0.862   5.072
12456TIP3    H137309   6.016   0.813   5.013
12456TIP3    H237310   6.017   0.896   5.139
12457TIP3   OH237311   6.209   3.659   1.892
12457TIP3    H137312   6.126   3.645   1.847
12457TIP3    H237313   6.263   3.584   1.867
12458TIP3   OH237314   0.264   6.189   4.996
12458TIP3    H137315   0.315   6.111   5.018
12458TIP3    H237316   0.327   6.249   4.957
12459TIP3   OH237317   2.331   4.310   0.357
12459TIP3    H137318   2.379   4.331   0.277
12459TIP3    H237319   2.321   4.215   0.355
12460TIP3   OH237320   7.259   7.086   4.819
12460TIP3    H137321   7.302   7.081   4.904
12460TIP3    H237322   7.250   6.994   4.792
12461TIP3   OH237323   8.304   3.400   4.165
12461TIP3    H137324   8.366   3.353   4.110
12461TIP3    H237325   8.358   3.457   4.219
12462TIP3   OH237326   8.189   1.288   5.431
12462TIP3    H137327   8.229   1.205   5.405
12462TIP3    H237328   8.236   1.313   5.510
12463TIP3   OH237329   7.497   4.569   5.738
12463TIP3    H137330   7.419   4.617   5.766
12463TIP3    H237331   7.472   4.476   5.745
12464TIP3   OH237332   6.357   5.914   6.845
12464TIP3    H137333   6.353   5.854   6.920
12464TIP3    H237334   6.408   5.866   6.779
12465TIP3   OH237335   1.410   1.727   4.465
12465TIP3    H137336   1.387   1.657   4.526
12465TIP3    H237337   1.479   1.689   4.410
12466TIP3   OH237338   3.334   5.533   1.418
12466TIP3    H137339   3.383   5.579   1.486
12466TIP3    H237340   3.396   5.524   1.346
12467TIP3   OH237341   0.901   0.814   6.809
12467TIP3    H137342   0.894   0.909   6.819
12467TIP3    H237343   0.912   0.801   6.715
12468TIP3   OH237344   2.108   0.199   5.453
12468TIP3    H137345   2.070   0.116   5.423
12468TIP3    H237346   2.148   0.236   5.374
12469TIP3   OH237347   1.563   4.539   2.605
12469TIP3    H137348   1.498   4.586   2.553
12469TIP3    H237349   1.512   4.501   2.678
12470TIP3   OH237350   0.371   0.759   0.863
12470TIP3    H137351   0.442   0.819   0.841
12470TIP3    H237352   0.363   0.767   0.958
12471TIP3   OH237353   5.226   5.860   2.894
12471TIP3    H137354   5.242   5.904   2.811
12471TIP3    H237355   5.260   5.921   2.960
12472TIP3   OH237356   7.771   4.922   1.350
12472TIP3    H137357   7.723   4.840   1.355
12472TIP3    H237358   7.768   4.957   1.440
12473TIP3   OH237359   2.266   2.438   3.746
12473TIP3    H137360   2.278   2.370   3.812
12473TIP3    H237361   2.243   2.517   3.796
12474TIP3   OH237362   3.009   6.593   4.864
12474TIP3    H137363   3.004   6.688   4.854
12474TIP3    H237364   2.934   6.559   4.815
12475TIP3   OH237365   1.085   3.337   3.758
12475TIP3    H137366   1.042   3.256   3.784
12475TIP3    H237367   1.035   3.367   3.682
12476TIP3   OH237368   5.888   4.509   5.265
12476TIP3    H137369   5.859   4.590   5.222
12476TIP3    H237370   5.946   4.468   5.201
12477TIP3   OH237371   2.648   2.557   5.060
12477TIP3    H137372   2.720   2.547   5.122
12477TIP3    H237373   2.691   2.561   4.974
12478TIP3   OH237374   3.566   2.564   6.175
12478TIP3    H137375   3.538   2.536   6.088
12478TIP3    H237376   3.622   2.640   6.159
12479TIP3   OH237377   4.405   0.119   1.386
12479TIP3    H137378   4.377   0.066   1.311
12479TIP3    H237379   4.332   0.116   1.447
12480TIP3   OH237380   5.160   4.229   5.852
12480TIP3    H137381   5.216   4.287   5.800
12480TIP3    H237382   5.077   4.228   5.805
12481TIP3   OH237383   4.491   1.723   4.573
12481TIP3    H137384   4.571   1.730   4.521
12481TIP3    H237385   4.468   1.630   4.569
12482TIP3   OH237386   3.937   0.975   4.173
12482TIP3    H137387   3.854   0.927   4.171
12482TIP3    H237388   3.939   1.024   4.091
12483TIP3   OH237389   1.301   2.484   1.321
12483TIP3    H137390   1.278   2.574   1.300
12483TIP3    H237391   1.395   2.478   1.305
12484TIP3   OH237392   2.758   5.944   6.603
12484TIP3    H137393   2.774   5.908   6.515
12484TIP3    H237394   2.797   6.031   6.600
12485TIP3   OH237395   2.272   1.707   2.205
12485TIP3    H137396   2.228   1.715   2.290
12485TIP3    H237397   2.359   1.671   2.226
12486TIP3   OH237398   3.848   6.426   6.716
12486TIP3    H137399   3.785   6.491   6.748
12486TIP3    H237400   3.844   6.434   6.620
12487TIP3   OH237401   3.255   3.890   5.460
12487TIP3    H137402   3.181   3.830   5.461
12487TIP3    H237403   3.322   3.845   5.408
12488TIP3   OH237404   5.410   4.273   0.005
12488TIP3    H137405   5.374   4.348   0.052
12488TIP3    H237406   5.434   4.307  -0.080
12489TIP3   OH237407   1.299   1.023   0.744
12489TIP3    H137408   1.232   0.958   0.724
12489TIP3    H237409   1.377   0.971   0.765
12490TIP3   OH237410   0.420   5.308   6.518
12490TIP3    H137411   0.445   5.221   6.488
12490TIP3    H237412   0.350   5.335   6.458
12491TIP3   OH237413   7.958   0.178   3.257
12491TIP3    H137414   7.999   0.262   3.239
12491TIP3    H237415   7.928   0.184   3.348
12492TIP3   OH237416   1.552   2.369   4.396
12492TIP3    H137417   1.509   2.435   4.341
12492TIP3    H237418   1.575   2.299   4.335
12493TIP3   OH237419   8.232   4.633   6.099
12493TIP3    H137420   8.143   4.665   6.111
12493TIP3    H237421   8.251   4.585   6.180
12494TIP3   OH237422   4.749   5.137   1.817
12494TIP3    H137423   4.710   5.062   1.771
12494TIP3    H237424   4.828   5.157   1.768
12495TIP3   OH237425   6.141   2.977   1.832
12495TIP3    H137426   6.079   2.941   1.895
12495TIP3    H237427   6.118   3.070   1.827
12496TIP3   OH237428   6.342   5.051   2.260
12496TIP3    H137429   6.434   5.023   2.265
12496TIP3    H237430   6.303   4.993   2.195
12497TIP3   OH237431   6.840   6.413   4.399
12497TIP3    H137432   6.811   6.402   4.489
12497TIP3    H237433   6.913   6.352   4.390
12498TIP3   OH237434   5.326   4.848   2.981
12498TIP3    H137435   5.237   4.883   2.991
12498TIP3    H237436   5.377   4.922   2.948
12499TIP3   OH237437   6.994   6.171   4.893
12499TIP3    H137438   6.963   6.260   4.877
12499TIP3    H237439   6.949   6.117   4.828
12500TIP3   OH237440   4.158   4.617   2.606
12500TIP3    H137441   4.198   4.609   2.692
12500TIP3    H237442   4.191   4.700   2.571
12501TIP3   OH237443   7.652   5.798   6.132
12501TIP3    H137444   7.669   5.704   6.125
12501TIP3    H237445   7.687   5.823   6.218
12502TIP3   OH237446   6.838   5.039   3.618
12502TIP3    H137447   6.853   5.129   3.591
12502TIP3    H237448   6.861   4.987   3.541
12503TIP3   OH237449   5.355   7.634   5.610
12503TIP3    H137450   5.332   7.547   5.642
12503TIP3    H237451   5.434   7.620   5.558
12504TIP3   OH237452   2.885   0.794   6.381
12504TIP3    H137453   2.804   0.816   6.425
12504TIP3    H237454   2.949   0.858   6.414
12505TIP3   OH237455   2.607   1.443   3.106
12505TIP3    H137456   2.662   1.480   3.175
12505TIP3    H237457   2.661   1.449   3.027
12506TIP3   OH237458   2.352   3.482   5.931
12506TIP3    H137459   2.379   3.528   6.011
12506TIP3    H237460   2.347   3.390   5.958
12507TIP3   OH237461   3.641   4.085   3.386
12507TIP3    H137462   3.681   3.998   3.387
12507TIP3    H237463   3.626   4.105   3.479
12508TIP3   OH237464   3.542   1.486   3.688
12508TIP3    H137465   3.459   1.457   3.726
12508TIP3    H237466   3.523   1.571   3.650
12509TIP3   OH237467   1.494   4.521   0.844
12509TIP3    H137468   1.556   4.450   0.860
12509TIP3    H237469   1.527   4.594   0.896
12510TIP3   OH237470   3.580   1.752   4.022
12510TIP3    H137471   3.488   1.727   4.026
12510TIP3    H237472   3.581   1.835   3.974
12511TIP3   OH237473   6.327   1.731   5.515
12511TIP3    H137474   6.366   1.655   5.557
12511TIP3    H237475   6.393   1.800   5.525
12512TIP3   OH237476   5.182   3.499   1.325
12512TIP3    H137477   5.205   3.462   1.410
12512TIP3    H237478   5.119   3.437   1.288
12513TIP3   OH237479   6.067   0.831   0.736
12513TIP3    H137480   6.070   0.802   0.645
12513TIP3    H237481   6.092   0.923   0.733
12514TIP3   OH237482   7.477   0.994   6.381
12514TIP3    H137483   7.415   0.968   6.449
12514TIP3    H237484   7.554   0.938   6.397
12515TIP3   OH237485   1.608   6.698   6.521
12515TIP3    H137486   1.575   6.743   6.443
12515TIP3    H237487   1.591   6.605   6.504
12516TIP3   OH237488   7.819   5.700   0.267
12516TIP3    H137489   7.841   5.681   0.176
12516TIP3    H237490   7.903   5.702   0.312
12517TIP3   OH237491   1.421   4.027   6.451
12517TIP3    H137492   1.477   3.973   6.396
12517TIP3    H237493   1.348   4.052   6.394
12518TIP3   OH237494   0.171   5.346   0.625
12518TIP3    H137495   0.231   5.369   0.696
12518TIP3    H237496   0.215   5.376   0.546
12519TIP3   OH237497   0.834   3.768   5.336
12519TIP3    H137498   0.769   3.821   5.381
12519TIP3    H237499   0.854   3.817   5.256
12520TIP3   OH237500   0.145   1.011   4.259
12520TIP3    H137501   0.083   0.951   4.301
12520TIP3    H237502   0.231   0.975   4.278
12521TIP3   OH237503   8.040   6.553   4.663
12521TIP3    H137504   8.071   6.608   4.736
12521TIP3    H237505   8.121   6.519   4.624
12522TIP3   OH237506   5.629   2.790   3.136
12522TIP3    H137507   5.704   2.835   3.097
12522TIP3    H237508   5.607   2.721   3.074
12523TIP3   OH237509   3.386   1.937   1.100
12523TIP3    H137510   3.371   1.851   1.138
12523TIP3    H237511   3.480   1.941   1.084
12524TIP3   OH237512   4.486   1.226   6.001
12524TIP3    H137513   4.519   1.195   6.085
12524TIP3    H237514   4.391   1.235   6.015
12525TIP3   OH237515   5.786   3.212   3.986
12525TIP3    H137516   5.787   3.221   4.081
12525TIP3    H237517   5.696   3.189   3.965
12526TIP3   OH237518   0.907   4.980   5.519
12526TIP3    H137519   0.937   5.070   5.505
12526TIP3    H237520   0.915   4.967   5.613
12527TIP3   OH237521   1.933   4.744   3.374
12527TIP3    H137522   1.874   4.806   3.417
12527TIP3    H237523   2.012   4.746   3.427
12528TIP3   OH237524   3.210   4.805   4.559
12528TIP3    H137525   3.284   4.850   4.600
12528TIP3    H237526   3.249   4.755   4.487
12529TIP3   OH237527   4.104   0.787   0.999
12529TIP3    H137528   4.131   0.707   0.953
12529TIP3    H237529   4.178   0.809   1.055
12530TIP3   OH237530   4.486   6.507   1.502
12530TIP3    H137531   4.473   6.532   1.593
12530TIP3    H237532   4.498   6.590   1.455
12531TIP3   OH237533   1.361   0.749   6.632
12531TIP3    H137534   1.440   0.706   6.597
12531TIP3    H237535   1.354   0.830   6.582
12532TIP3   OH237536   1.796   0.162   3.768
12532TIP3    H137537   1.852   0.119   3.833
12532TIP3    H237538   1.829   0.131   3.684
12533TIP3   OH237539   3.797   5.106   4.090
12533TIP3    H137540   3.793   5.097   3.995
12533TIP3    H237541   3.707   5.097   4.120
12534TIP3   OH237542   4.413   2.798   2.418
12534TIP3    H137543   4.344   2.765   2.475
12534TIP3    H237544   4.399   2.893   2.416
12535TIP3   OH237545   1.574   1.598   2.938
12535TIP3    H137546   1.523   1.653   2.997
12535TIP3    H237547   1.650   1.570   2.990
12536TIP3   OH237548   3.101   7.253   5.056
12536TIP3    H137549   3.133   7.196   5.126
12536TIP3    H237550   3.023   7.295   5.093
12537TIP3   OH237551   5.969   2.766   1.001
12537TIP3    H137552   5.942   2.857   1.015
12537TIP3    H237553   5.888   2.716   1.011
12538TIP3   OH237554   7.219   1.369   4.927
12538TIP3    H137555   7.154   1.432   4.957
12538TIP3    H237556   7.301   1.419   4.924
12539TIP3   OH237557   6.317   1.122   2.050
12539TIP3    H137558   6.268   1.048   2.014
12539TIP3    H237559   6.319   1.187   1.980
12540TIP3   OH237560   3.866   3.030   5.062
12540TIP3    H137561   3.799   3.091   5.092
12540TIP3    H237562   3.903   3.070   4.983
12541TIP3   OH237563   1.556   2.352   3.854
12541TIP3    H137564   1.620   2.383   3.917
12541TIP3    H237565   1.471   2.376   3.891
12542TIP3   OH237566   0.081   6.604   0.980
12542TIP3    H137567   0.060   6.595   1.073
12542TIP3    H237568   0.078   6.515   0.945
12543TIP3   OH237569   2.072   1.331   0.104
12543TIP3    H137570   2.126   1.403   0.071
12543TIP3    H237571   2.086   1.260   0.042
12544TIP3   OH237572   0.480   0.698   1.868
12544TIP3    H137573   0.462   0.792   1.875
12544TIP3    H237574   0.433   0.659   1.941
12545TIP3   OH237575   5.402   6.136   0.782
12545TIP3    H137576   5.381   6.203   0.846
12545TIP3    H237577   5.466   6.079   0.826
12546TIP3   OH237578   1.331   3.373   4.556
12546TIP3    H137579   1.402   3.435   4.540
12546TIP3    H237580   1.375   3.293   4.584
12547TIP3   OH237581   0.276   6.549   3.071
12547TIP3    H137582   0.246   6.469   3.028
12547TIP3    H237583   0.345   6.582   3.014
12548TIP3   OH237584   2.151   3.889   2.660
12548TIP3    H137585   2.244   3.875   2.674
12548TIP3    H237586   2.110   3.857   2.741
12549TIP3   OH237587   2.092   5.832   2.527
12549TIP3    H137588   2.167   5.883   2.495
12549TIP3    H237589   2.051   5.797   2.448
12550TIP3   OH237590   8.027   1.648   1.973
12550TIP3    H137591   8.038   1.599   1.891
12550TIP3    H237592   8.114   1.680   1.993
12551TIP3   OH237593   5.068   1.565   4.606
12551TIP3    H137594   5.111   1.542   4.688
12551TIP3    H237595   5.006   1.634   4.629
12552TIP3   OH237596   3.314   5.632   4.520
12552TIP3    H137597   3.246   5.698   4.526
12552TIP3    H237598   3.393   5.677   4.551
12553TIP3   OH237599   5.001   1.192   6.042
12553TIP3    H137600   5.097   1.196   6.050
12553TIP3    H237601   4.982   1.099   6.030
12554TIP3   OH237602   1.976   3.418   6.618
12554TIP3    H137603   1.909   3.351   6.636
12554TIP3    H237604   1.958   3.447   6.529
12555TIP3   OH237605   7.487   4.669   0.851
12555TIP3    H137606   7.482   4.728   0.926
12555TIP3    H237607   7.535   4.593   0.884
12556TIP3   OH237608   7.193   7.083   3.317
12556TIP3    H137609   7.261   7.051   3.258
12556TIP3    H237610   7.118   7.026   3.299
12557TIP3   OH237611   7.897   6.476   5.102
12557TIP3    H137612   7.960   6.544   5.125
12557TIP3    H237613   7.812   6.515   5.119
12558TIP3   OH237614   0.319   7.155   1.058
12558TIP3    H137615   0.286   7.068   1.039
12558TIP3    H237616   0.303   7.205   0.978
12559TIP3   OH237617   6.973   0.636   5.893
12559TIP3    H137618   7.005   0.578   5.823
12559TIP3    H237619   6.884   0.659   5.867
12560TIP3   OH237620   0.644   1.206   0.061
12560TIP3    H137621   0.727   1.253   0.051
12560TIP3    H237622   0.588   1.240  -0.009
12561TIP3   OH237623   6.404   2.079   0.599
12561TIP3    H137624   6.476   2.058   0.540
12561TIP3    H237625   6.394   2.174   0.591
12562TIP3   OH237626   5.980   0.271   5.926
12562TIP3    H137627   5.978   0.175   5.929
12562TIP3    H237628   5.914   0.298   5.989
12563TIP3   OH237629   1.410   5.223   5.661
12563TIP3    H137630   1.452   5.159   5.719
12563TIP3    H237631   1.330   5.180   5.632
12564TIP3   OH237632   1.897   1.552   0.572
12564TIP3    H137633   1.912   1.630   0.519
12564TIP3    H237634   1.816   1.514   0.536
12565TIP3   OH237635   2.007   5.106   0.519
12565TIP3    H137636   1.993   5.194   0.482
12565TIP3    H237637   2.041   5.055   0.446
12566TIP3   OH237638   4.395   4.477   1.406
12566TIP3    H137639   4.408   4.520   1.490
12566TIP3    H237640   4.422   4.386   1.421
12567TIP3   OH237641   7.027   0.101   0.315
12567TIP3    H137642   7.024   0.186   0.359
12567TIP3    H237643   6.982   0.116   0.232
12568TIP3   OH237644   0.638   1.476   6.010
12568TIP3    H137645   0.568   1.538   5.989
12568TIP3    H237646   0.594   1.405   6.058
12569TIP3   OH237647   5.095   3.501   6.405
12569TIP3    H137648   5.154   3.546   6.466
12569TIP3    H237649   5.135   3.514   6.319
12570TIP3   OH237650   0.876   2.205   4.620
12570TIP3    H137651   0.854   2.111   4.615
12570TIP3    H237652   0.967   2.206   4.649
12571TIP3   OH237653   2.390   0.918   3.324
12571TIP3    H137654   2.455   0.860   3.285
12571TIP3    H237655   2.306   0.889   3.288
12572TIP3   OH237656   0.407   1.297   3.796
12572TIP3    H137657   0.372   1.267   3.881
12572TIP3    H237658   0.438   1.216   3.754
12573TIP3   OH237659   1.202   5.198   0.608
12573TIP3    H137660   1.166   5.112   0.585
12573TIP3    H237661   1.152   5.260   0.556
12574TIP3   OH237662   2.405   5.976   1.110
12574TIP3    H137663   2.386   6.062   1.146
12574TIP3    H237664   2.335   5.961   1.046
12575TIP3   OH237665   5.363   2.588   4.167
12575TIP3    H137666   5.393   2.583   4.076
12575TIP3    H237667   5.353   2.497   4.194
12576TIP3   OH237668   7.578   7.010   5.574
12576TIP3    H137669   7.573   6.921   5.610
12576TIP3    H237670   7.671   7.025   5.560
12577TIP3   OH237671   2.609   3.088   3.995
12577TIP3    H137672   2.551   3.116   4.066
12577TIP3    H237673   2.599   2.993   3.992
12578TIP3   OH237674   0.198   5.893   3.895
12578TIP3    H137675   0.284   5.871   3.931
12578TIP3    H237676   0.145   5.914   3.973
12579TIP3   OH237677   0.586   2.108   6.590
12579TIP3    H137678   0.512   2.048   6.601
12579TIP3    H237679   0.656   2.054   6.554
12580TIP3   OH237680   7.999   0.357   6.349
12580TIP3    H137681   7.985   0.349   6.443
12580TIP3    H237682   8.093   0.343   6.337
12581TIP3   OH237683   5.670   7.331   5.794
12581TIP3    H137684   5.660   7.247   5.839
12581TIP3    H237685   5.749   7.369   5.832
12582TIP3   OH237686   7.029   5.733   6.793
12582TIP3    H137687   7.075   5.706   6.872
12582TIP3    H237688   6.940   5.754   6.823
12583TIP3   OH237689   0.714   1.498   0.591
12583TIP3    H137690   0.757   1.430   0.644
12583TIP3    H237691   0.621   1.490   0.612
12584TIP3   OH237692   3.318   6.918   1.304
12584TIP3    H137693   3.232   6.896   1.267
12584TIP3    H237694   3.368   6.837   1.299
12585TIP3   OH237695   2.402   5.920   4.300
12585TIP3    H137696   2.476   5.951   4.352
12585TIP3    H237697   2.379   5.836   4.339
12586TIP3   OH237698   3.590   4.685   4.301
12586TIP3    H137699   3.543   4.689   4.384
12586TIP3    H237700   3.524   4.703   4.235
12587TIP3   OH237701   6.948   6.492   2.243
12587TIP3    H137702   7.012   6.440   2.292
12587TIP3    H237703   6.982   6.582   2.247
12588TIP3   OH237704   1.955   4.282   5.617
12588TIP3    H137705   1.874   4.301   5.570
12588TIP3    H237706   1.971   4.360   5.669
12589TIP3   OH237707   4.614   2.703   0.621
12589TIP3    H137708   4.667   2.737   0.550
12589TIP3    H237709   4.676   2.658   0.679
12590TIP3   OH237710   4.680   2.571   5.864
12590TIP3    H137711   4.715   2.488   5.897
12590TIP3    H237712   4.661   2.622   5.943
12591TIP3   OH237713   3.840   1.830   3.719
12591TIP3    H137714   3.866   1.841   3.811
12591TIP3    H237715   3.775   1.899   3.704
12592TIP3   OH237716   5.917   6.154   6.013
12592TIP3    H137717   5.884   6.069   6.043
12592TIP3    H237718   5.951   6.137   5.925
12593TIP3   OH237719   2.862   1.024   6.521
12593TIP3    H137720   2.950   0.993   6.539
12593TIP3    H237721   2.856   1.108   6.567
12594TIP3   OH237722   6.634   3.569   6.511
12594TIP3    H137723   6.665   3.591   6.599
12594TIP3    H237724   6.695   3.614   6.453
12595TIP3   OH237725   5.375   6.365   3.712
12595TIP3    H137726   5.300   6.330   3.759
12595TIP3    H237727   5.443   6.372   3.779
12596TIP3   OH237728   6.836   5.694   3.703
12596TIP3    H137729   6.791   5.772   3.734
12596TIP3    H237730   6.887   5.724   3.627
12597TIP3   OH237731   0.867   3.484   6.331
12597TIP3    H137732   0.805   3.413   6.318
12597TIP3    H237733   0.918   3.487   6.250
12598TIP3   OH237734   3.642   3.768   2.789
12598TIP3    H137735   3.658   3.674   2.785
12598TIP3    H237736   3.573   3.778   2.854
12599TIP3   OH237737   6.696   3.150   3.357
12599TIP3    H137738   6.780   3.118   3.390
12599TIP3    H237739   6.641   3.156   3.436
12600TIP3   OH237740   7.889   7.188   6.453
12600TIP3    H137741   7.844   7.255   6.402
12600TIP3    H237742   7.979   7.221   6.462
12601TIP3   OH237743   0.612   5.843   5.760
12601TIP3    H137744   0.611   5.748   5.755
12601TIP3    H237745   0.528   5.866   5.799
12602TIP3   OH237746   0.746   3.641   3.376
12602TIP3    H137747   0.834   3.655   3.412
12602TIP3    H237748   0.706   3.728   3.378
12603TIP3   OH237749   3.969   2.215   3.665
12603TIP3    H137750   4.031   2.267   3.614
12603TIP3    H237751   3.996   2.124   3.649
12604TIP3   OH237752   2.705   4.972   3.404
12604TIP3    H137753   2.634   5.025   3.441
12604TIP3    H237754   2.724   5.012   3.319
12605TIP3   OH237755   4.515   1.801   0.066
12605TIP3    H137756   4.521   1.746   0.144
12605TIP3    H237757   4.522   1.740  -0.008
12606TIP3   OH237758   7.981   4.760   5.562
12606TIP3    H137759   7.923   4.688   5.587
12606TIP3    H237760   7.993   4.811   5.642
12607TIP3   OH237761   2.841   1.920   4.953
12607TIP3    H137762   2.882   1.835   4.971
12607TIP3    H237763   2.747   1.902   4.954
12608TIP3   OH237764   6.422   3.987   6.445
12608TIP3    H137765   6.497   3.928   6.451
12608TIP3    H237766   6.391   3.978   6.355
12609TIP3   OH237767   6.951   4.769   1.153
12609TIP3    H137768   6.877   4.710   1.168
12609TIP3    H237769   6.956   4.777   1.057
12610TIP3   OH237770   2.467   5.004   6.194
12610TIP3    H137771   2.440   5.086   6.235
12610TIP3    H237772   2.395   4.981   6.136
12611TIP3   OH237773   2.578   6.728   5.525
12611TIP3    H137774   2.590   6.708   5.432
12611TIP3    H237775   2.663   6.710   5.564
12612TIP3   OH237776   7.261   4.646   3.280
12612TIP3    H137777   7.350   4.625   3.251
12612TIP3    H237778   7.246   4.735   3.249
12613TIP3   OH237779   8.061   4.799   5.143
12613TIP3    H137780   8.049   4.728   5.080
12613TIP3    H237781   8.019   4.875   5.103
12614TIP3   OH237782   0.369   0.336   4.537
12614TIP3    H137783   0.322   0.307   4.459
12614TIP3    H237784   0.461   0.324   4.515
12615TIP3   OH237785   4.810   7.794   5.364
12615TIP3    H137786   4.761   7.764   5.288
12615TIP3    H237787   4.858   7.716   5.394
12616TIP3   OH237788   0.268   6.226   4.616
12616TIP3    H137789   0.363   6.214   4.623
12616TIP3    H237790   0.257   6.321   4.603
12617TIP3   OH237791   0.211   1.982   5.525
12617TIP3    H137792   0.252   2.058   5.485
12617TIP3    H237793   0.118   2.006   5.533
12618TIP3   OH237794   8.131   4.374   4.249
12618TIP3    H137795   8.122   4.318   4.172
12618TIP3    H237796   8.222   4.403   4.247
12619TIP3   OH237797   6.634   6.975   6.027
12619TIP3    H137798   6.661   7.063   6.002
12619TIP3    H237799   6.707   6.942   6.080
12620TIP3   OH237800   8.212   2.838   6.571
12620TIP3    H137801   8.144   2.826   6.505
12620TIP3    H237802   8.169   2.818   6.654
12621TIP3   OH237803   6.659   1.525   4.328
12621TIP3    H137804   6.752   1.541   4.344
12621TIP3    H237805   6.650   1.527   4.233
12622TIP3   OH237806   5.505   6.628   0.848
12622TIP3    H137807   5.490   6.706   0.793
12622TIP3    H237808   5.594   6.600   0.827
12623TIP3   OH237809   1.332   6.497   6.304
12623TIP3    H137810   1.337   6.436   6.377
12623TIP3    H237811   1.346   6.443   6.226
12624TIP3   OH237812   6.845   5.697   6.280
12624TIP3    H137813   6.858   5.758   6.353
12624TIP3    H237814   6.818   5.754   6.207
12625TIP3   OH237815   4.425   0.790   2.248
12625TIP3    H137816   4.377   0.735   2.187
12625TIP3    H237817   4.358   0.839   2.294
12626TIP3   OH237818   8.059   0.060   1.837
12626TIP3    H137819   8.149   0.064   1.806
12626TIP3    H237820   8.006   0.057   1.757
12627TIP3   OH237821   6.006   4.242   1.292
12627TIP3    H137822   5.964   4.233   1.377
12627TIP3    H237823   6.004   4.336   1.273
12628TIP3   OH237824   0.501   5.420   5.799
12628TIP3    H137825   0.419   5.425   5.750
12628TIP3    H237826   0.477   5.441   5.889
12629TIP3   OH237827   4.165   4.522   1.190
12629TIP3    H137828   4.082   4.559   1.219
12629TIP3    H237829   4.224   4.536   1.264
12630TIP3   OH237830   2.168   1.366   5.666
12630TIP3    H137831   2.110   1.400   5.735
12630TIP3    H237832   2.213   1.443   5.632
12631TIP3   OH237833   0.474   3.909   0.125
12631TIP3    H137834   0.414   3.960   0.180
12631TIP3    H237835   0.519   3.974   0.073
12632TIP3   OH237836   1.526   1.733   2.722
12632TIP3    H137837   1.468   1.787   2.775
12632TIP3    H237838   1.544   1.656   2.776
12633TIP3   OH237839   3.069   4.322   6.671
12633TIP3    H137840   3.039   4.376   6.745
12633TIP3    H237841   3.160   4.349   6.658
12634TIP3   OH237842   3.042   2.049   5.790
12634TIP3    H137843   3.105   2.101   5.741
12634TIP3    H237844   2.988   2.007   5.724
12635TIP3   OH237845   3.435   3.578   5.603
12635TIP3    H137846   3.477   3.501   5.565
12635TIP3    H237847   3.494   3.650   5.582
12636TIP3   OH237848   8.143   5.815   0.898
12636TIP3    H137849   8.142   5.900   0.941
12636TIP3    H237850   8.067   5.769   0.934
12637TIP3   OH237851   3.157   4.583   0.257
12637TIP3    H137852   3.234   4.563   0.204
12637TIP3    H237853   3.083   4.571   0.198
12638TIP3   OH237854   5.562   5.017   3.219
12638TIP3    H137855   5.641   5.041   3.268
12638TIP3    H237856   5.493   5.014   3.284
12639TIP3   OH237857   5.492   2.264   3.334
12639TIP3    H137858   5.586   2.244   3.342
12639TIP3    H237859   5.450   2.207   3.398
12640TIP3   OH237860   2.850   5.100   5.396
12640TIP3    H137861   2.808   5.035   5.452
12640TIP3    H237862   2.927   5.129   5.445
12641TIP3   OH237863   3.872   7.033   5.869
12641TIP3    H137864   3.778   7.038   5.850
12641TIP3    H237865   3.884   7.086   5.948
12642TIP3   OH237866   6.852   7.086   4.859
12642TIP3    H137867   6.805   7.125   4.786
12642TIP3    H237868   6.935   7.133   4.863
12643TIP3   OH237869   5.465   1.447   1.186
12643TIP3    H137870   5.404   1.460   1.113
12643TIP3    H237871   5.474   1.351   1.192
12644TIP3   OH237872   3.594   0.207   2.389
12644TIP3    H137873   3.550   0.182   2.470
12644TIP3    H237874   3.560   0.147   2.323
12645TIP3   OH237875   1.348   5.227   6.766
12645TIP3    H137876   1.300   5.308   6.784
12645TIP3    H237877   1.305   5.190   6.689
12646TIP3   OH237878   4.126   4.648   3.742
12646TIP3    H137879   4.048   4.703   3.732
12646TIP3    H237880   4.102   4.566   3.698
12647TIP3   OH237881   6.773   6.850   0.142
12647TIP3    H137882   6.746   6.805   0.221
12647TIP3    H237883   6.821   6.927   0.173
12648TIP3   OH237884   5.633   4.621   2.727
12648TIP3    H137885   5.690   4.626   2.650
12648TIP3    H237886   5.576   4.547   2.711
12649TIP3   OH237887   8.227   2.345   2.507
12649TIP3    H137888   8.242   2.330   2.600
12649TIP3    H237889   8.142   2.387   2.502
12650TIP3   OH237890   8.314   5.059   2.051
12650TIP3    H137891   8.262   5.030   2.126
12650TIP3    H237892   8.313   4.985   1.991
12651TIP3   OH237893   6.689   7.043   1.166
12651TIP3    H137894   6.716   6.953   1.185
12651TIP3    H237895   6.709   7.055   1.073
12652TIP3   OH237896   1.835   6.085   1.932
12652TIP3    H137897   1.824   6.000   1.889
12652TIP3    H237898   1.899   6.131   1.877
12653TIP3   OH237899   0.791   6.525   5.182
12653TIP3    H137900   0.764   6.433   5.182
12653TIP3    H237901   0.877   6.525   5.141
12654TIP3   OH237902   7.442   7.632   2.952
12654TIP3    H137903   7.453   7.711   2.898
12654TIP3    H237904   7.385   7.575   2.900
12655TIP3   OH237905   6.955   0.022   1.096
12655TIP3    H137906   7.044   0.056   1.103
12655TIP3    H237907   6.899   0.093   1.128
12656TIP3   OH237908   5.253   4.601   3.667
12656TIP3    H137909   5.223   4.635   3.583
12656TIP3    H237910   5.205   4.519   3.678
12657TIP3   OH237911   0.001   5.253   6.582
12657TIP3    H137912  -0.023   5.165   6.553
12657TIP3    H237913   0.050   5.290   6.509
12658TIP3   OH237914   7.172   7.908   1.984
12658TIP3    H137915   7.102   7.972   1.997
12658TIP3    H237916   7.138   7.827   2.024
12659TIP3   OH237917   6.473   6.454   5.431
12659TIP3    H137918   6.560   6.492   5.421
12659TIP3    H237919   6.414   6.529   5.435
12660TIP3   OH237920   1.583   7.063   5.170
12660TIP3    H137921   1.670   7.098   5.189
12660TIP3    H237922   1.565   7.091   5.080
12661TIP3   OH237923   5.032   5.810   0.789
12661TIP3    H137924   5.078   5.883   0.831
12661TIP3    H237925   5.054   5.818   0.696
12662TIP3   OH237926   4.295   1.858   3.629
12662TIP3    H137927   4.206   1.884   3.608
12662TIP3    H237928   4.310   1.890   3.717
12663TIP3   OH237929   1.620   5.230   2.807
12663TIP3    H137930   1.602   5.323   2.819
12663TIP3    H237931   1.713   5.220   2.826
12664TIP3   OH237932   6.386   5.547   2.382
12664TIP3    H137933   6.325   5.616   2.357
12664TIP3    H237934   6.350   5.468   2.343
12665TIP3   OH237935   4.863   5.062   0.824
12665TIP3    H137936   4.802   5.135   0.832
12665TIP3    H237937   4.935   5.097   0.772
12666TIP3   OH237938   4.023   4.557   3.229
12666TIP3    H137939   4.067   4.639   3.205
12666TIP3    H237940   4.072   4.489   3.183
12667TIP3   OH237941   1.637   6.126   3.256
12667TIP3    H137942   1.615   6.181   3.181
12667TIP3    H237943   1.726   6.097   3.239
12668TIP3   OH237944   1.973   6.304  -0.017
12668TIP3    H137945   1.883   6.288   0.009
12668TIP3    H237946   2.018   6.325   0.065
12669TIP3   OH237947   7.527   5.438   3.614
12669TIP3    H137948   7.497   5.525   3.639
12669TIP3    H237949   7.599   5.453   3.554
12670TIP3   OH237950   1.905   5.385   2.362
12670TIP3    H137951   1.849   5.362   2.436
12670TIP3    H237952   1.871   5.333   2.290
12671TIP3   OH237953   0.102   1.350   4.198
12671TIP3    H137954   0.030   1.296   4.230
12671TIP3    H237955   0.061   1.412   4.138
12672TIP3   OH237956   7.912   3.316   4.310
12672TIP3    H137957   7.892   3.260   4.385
12672TIP3    H237958   7.978   3.267   4.260
12673TIP3   OH237959   2.419   0.711   3.800
12673TIP3    H137960   2.344   0.711   3.741
12673TIP3    H237961   2.475   0.640   3.769
12674TIP3   OH237962   1.988   3.766   2.460
12674TIP3    H137963   1.982   3.832   2.529
12674TIP3    H237964   1.903   3.722   2.462
12675TIP3   OH237965   3.780   1.053   5.993
12675TIP3    H137966   3.775   1.136   6.040
12675TIP3    H237967   3.847   1.067   5.926
12676TIP3   OH237968   1.309   6.084   6.404
12676TIP3    H137969   1.278   6.136   6.478
12676TIP3    H237970   1.231   6.039   6.370
12677TIP3   OH237971   3.138   4.884   5.091
12677TIP3    H137972   3.104   4.842   5.170
12677TIP3    H237973   3.142   4.977   5.113
12678TIP3   OH237974   5.331   4.275   5.448
12678TIP3    H137975   5.352   4.208   5.513
12678TIP3    H237976   5.277   4.338   5.496
12679TIP3   OH237977   3.947   2.144   6.525
12679TIP3    H137978   3.925   2.096   6.445
12679TIP3    H237979   3.984   2.077   6.583
12680TIP3   OH237980   0.512   4.888   2.926
12680TIP3    H137981   0.479   4.823   2.864
12680TIP3    H237982   0.606   4.892   2.910
12681TIP3   OH237983   0.228   1.242   2.167
12681TIP3    H137984   0.141   1.207   2.185
12681TIP3    H237985   0.275   1.234   2.251
12682TIP3   OH237986   2.637   0.252   2.459
12682TIP3    H137987   2.569   0.253   2.526
12682TIP3    H237988   2.718   0.232   2.506
12683TIP3   OH237989   2.985   4.012   2.713
12683TIP3    H137990   3.067   4.061   2.717
12683TIP3    H237991   2.953   4.012   2.803
12684TIP3   OH237992   5.343   5.630   4.985
12684TIP3    H137993   5.388   5.600   4.906
12684TIP3    H237994   5.347   5.726   4.979
12685TIP3   OH237995   6.824   7.720   5.929
12685TIP3    H137996   6.911   7.678   5.928
12685TIP3    H237997   6.842   7.811   5.952
12686TIP3   OH237998   5.032   7.111   3.601
12686TIP3    H137999   5.021   7.017   3.609
12686TIP3    H238000   5.122   7.122   3.571
12687TIP3   OH238001   7.117   1.952   5.325
12687TIP3    H138002   7.059   2.005   5.271
12687TIP3    H238003   7.075   1.951   5.411
12688TIP3   OH238004   3.740   5.333   3.718
12688TIP3    H138005   3.746   5.271   3.646
12688TIP3    H238006   3.655   5.314   3.759
12689TIP3   OH238007   5.482   6.730   3.537
12689TIP3    H138008   5.501   6.810   3.488
12689TIP3    H238009   5.399   6.747   3.581
12690TIP3   OH238010   1.326   1.551   3.329
12690TIP3    H138011   1.243   1.598   3.337
12690TIP3    H238012   1.316   1.475   3.386
12691TIP3   OH238013   0.657   2.766   1.401
12691TIP3    H138014   0.707   2.696   1.359
12691TIP3    H238015   0.718   2.840   1.405
12692TIP3   OH238016   5.082   5.868   3.958
12692TIP3    H138017   5.120   5.800   4.013
12692TIP3    H238018   5.014   5.908   4.014
12693TIP3   OH238019   2.845   1.675   4.619
12693TIP3    H138020   2.802   1.702   4.538
12693TIP3    H238021   2.899   1.750   4.644
12694TIP3   OH238022   0.117   2.935   3.939
12694TIP3    H138023   0.176   3.006   3.914
12694TIP3    H238024   0.167   2.884   4.003
12695TIP3   OH238025   7.936   5.343   5.903
12695TIP3    H138026   7.952   5.437   5.910
12695TIP3    H238027   8.008   5.302   5.951
12696TIP3   OH238028   4.342   4.145   6.057
12696TIP3    H138029   4.363   4.193   6.138
12696TIP3    H238030   4.257   4.180   6.030
12697TIP3   OH238031   1.775   0.657   4.819
12697TIP3    H138032   1.830   0.643   4.742
12697TIP3    H238033   1.690   0.683   4.785
12698TIP3   OH238034   7.164   7.581   6.756
12698TIP3    H138035   7.250   7.540   6.754
12698TIP3    H238036   7.179   7.667   6.796
12699TIP3   OH238037   4.324   6.450   6.423
12699TIP3    H138038   4.417   6.433   6.408
12699TIP3    H238039   4.299   6.384   6.488
12700TIP3   OH238040   2.924   5.047   1.107
12700TIP3    H138041   3.019   5.061   1.108
12700TIP3    H238042   2.902   5.038   1.015
12701TIP3   OH238043   1.152   7.658   0.428
12701TIP3    H138044   1.168   7.647   0.335
12701TIP3    H238045   1.149   7.753   0.441
12702TIP3   OH238046   2.991   4.968   3.445
12702TIP3    H138047   3.006   4.889   3.497
12702TIP3    H238048   2.896   4.980   3.444
12703TIP3   OH238049   1.116   3.778   0.734
12703TIP3    H138050   1.198   3.730   0.728
12703TIP3    H238051   1.119   3.840   0.661
12704TIP3   OH238052   7.221   7.498   4.677
12704TIP3    H138053   7.128   7.502   4.699
12704TIP3    H238054   7.250   7.590   4.678
12705TIP3   OH238055   6.485   5.301   6.599
12705TIP3    H138056   6.477   5.309   6.504
12705TIP3    H238057   6.566   5.251   6.611
12706TIP3   OH238058   3.502   1.722   3.555
12706TIP3    H138059   3.513   1.705   3.461
12706TIP3    H238060   3.553   1.801   3.571
12707TIP3   OH238061   6.844   0.969   2.860
12707TIP3    H138062   6.768   0.912   2.851
12707TIP3    H238063   6.891   0.935   2.936
12708TIP3   OH238064   5.578   7.587   5.468
12708TIP3    H138065   5.543   7.624   5.387
12708TIP3    H238066   5.618   7.504   5.442
12709TIP3   OH238067   4.167   1.256   1.750
12709TIP3    H138068   4.241   1.317   1.749
12709TIP3    H238069   4.113   1.285   1.823
12710TIP3   OH238070   0.570   1.990   0.740
12710TIP3    H138071   0.605   1.904   0.760
12710TIP3    H238072   0.609   2.048   0.805
12711TIP3   OH238073   3.240   4.140   1.727
12711TIP3    H138074   3.293   4.219   1.717
12711TIP3    H238075   3.261   4.088   1.649
12712TIP3   OH238076   0.991   6.504   4.425
12712TIP3    H138077   1.046   6.576   4.395
12712TIP3    H238078   0.976   6.522   4.518
12713TIP3   OH238079   7.230   1.787   3.509
12713TIP3    H138080   7.164   1.841   3.466
12713TIP3    H238081   7.313   1.830   3.489
12714TIP3   OH238082   5.662   3.245   3.477
12714TIP3    H138083   5.615   3.324   3.448
12714TIP3    H238084   5.716   3.220   3.402
12715TIP3   OH238085   5.454   6.781   6.055
12715TIP3    H138086   5.539   6.818   6.078
12715TIP3    H238087   5.406   6.778   6.137
12716TIP3   OH238088   5.776   5.890   6.659
12716TIP3    H138089   5.805   5.927   6.576
12716TIP3    H238090   5.686   5.862   6.642
12717TIP3   OH238091   5.165   5.492   2.147
12717TIP3    H138092   5.128   5.461   2.064
12717TIP3    H238093   5.247   5.444   2.156
12718TIP3   OH238094   6.413   6.940   1.501
12718TIP3    H138095   6.498   6.910   1.534
12718TIP3    H238096   6.394   6.881   1.428
12719TIP3   OH238097   7.738   1.377   6.204
12719TIP3    H138098   7.722   1.294   6.158
12719TIP3    H238099   7.710   1.360   6.294
12720TIP3   OH238100   4.170   3.946   0.160
12720TIP3    H138101   4.096   3.908   0.111
12720TIP3    H238102   4.148   4.039   0.167
12721TIP3   OH238103   7.604   7.604   3.787
12721TIP3    H138104   7.653   7.631   3.865
12721TIP3    H238105   7.669   7.557   3.734
12722TIP3   OH238106   2.387   3.467   6.394
12722TIP3    H138107   2.389   3.372   6.389
12722TIP3    H238108   2.333   3.486   6.471
12723TIP3   OH238109   6.517   7.699   0.739
12723TIP3    H138110   6.466   7.619   0.751
12723TIP3    H238111   6.608   7.671   0.748
12724TIP3   OH238112   1.071   6.732   3.510
12724TIP3    H138113   1.016   6.705   3.436
12724TIP3    H238114   1.013   6.730   3.585
12725TIP3   OH238115   0.420   0.518   3.953
12725TIP3    H138116   0.407   0.581   4.025
12725TIP3    H238117   0.479   0.452   3.989
12726TIP3   OH238118   1.832   1.976   6.353
12726TIP3    H138119   1.746   1.999   6.317
12726TIP3    H238120   1.820   1.980   6.448
12727TIP3   OH238121   3.733   2.207   4.485
12727TIP3    H138122   3.706   2.228   4.574
12727TIP3    H238123   3.810   2.262   4.470
12728TIP3   OH238124   4.967   3.951   0.409
12728TIP3    H138125   4.887   3.899   0.406
12728TIP3    H238126   5.036   3.888   0.429
12729TIP3   OH238127   0.088   1.222   6.336
12729TIP3    H138128   0.134   1.196   6.416
12729TIP3    H238129   0.009   1.169   6.336
12730TIP3   OH238130   6.685   1.655   0.560
12730TIP3    H138131   6.651   1.672   0.472
12730TIP3    H238132   6.780   1.658   0.550
12731TIP3   OH238133   0.288   1.049   4.570
12731TIP3    H138134   0.195   1.065   4.559
12731TIP3    H238135   0.293   0.968   4.621
12732TIP3   OH238136   6.580   7.847   1.602
12732TIP3    H138137   6.492   7.860   1.636
12732TIP3    H238138   6.628   7.925   1.629
12733TIP3   OH238139   6.684   6.367   1.811
12733TIP3    H138140   6.746   6.330   1.874
12733TIP3    H238141   6.662   6.293   1.754
12734TIP3   OH238142   4.369   5.758   6.233
12734TIP3    H138143   4.364   5.843   6.278
12734TIP3    H238144   4.278   5.730   6.224
12735TIP3   OH238145   2.901   4.072   4.167
12735TIP3    H138146   2.891   4.120   4.084
12735TIP3    H238147   2.883   3.981   4.143
12736TIP3   OH238148   1.612   4.142   5.910
12736TIP3    H138149   1.639   4.054   5.935
12736TIP3    H238150   1.593   4.186   5.993
12737TIP3   OH238151   8.229   5.583   3.887
12737TIP3    H138152   8.239   5.487   3.891
12737TIP3    H238153   8.230   5.611   3.978
12738TIP3   OH238154   5.256   3.389   6.669
12738TIP3    H138155   5.320   3.428   6.610
12738TIP3    H238156   5.288   3.301   6.686
12739TIP3   OH238157   5.358   0.391   6.158
12739TIP3    H138158   5.374   0.419   6.067
12739TIP3    H238159   5.350   0.296   6.152
12740TIP3   OH238160   1.760   5.333   5.017
12740TIP3    H138161   1.766   5.400   4.949
12740TIP3    H238162   1.849   5.323   5.049
12741TIP3   OH238163   6.878   1.627   2.746
12741TIP3    H138164   6.966   1.597   2.766
12741TIP3    H238165   6.845   1.661   2.829
12742TIP3   OH238166   5.107   0.665   0.689
12742TIP3    H138167   5.044   0.656   0.760
12742TIP3    H238168   5.090   0.591   0.631
12743TIP3   OH238169   5.962   2.617   1.483
12743TIP3    H138170   6.020   2.672   1.535
12743TIP3    H238171   5.874   2.653   1.500
12744TIP3   OH238172   1.138   0.464   3.706
12744TIP3    H138173   1.062   0.425   3.750
12744TIP3    H238174   1.104   0.546   3.669
12745TIP3   OH238175   1.535   6.622   3.273
12745TIP3    H138176   1.585   6.699   3.300
12745TIP3    H238177   1.444   6.650   3.281
12746TIP3   OH238178   4.620   6.130   1.705
12746TIP3    H138179   4.649   6.219   1.725
12746TIP3    H238180   4.700   6.078   1.705
12747TIP3   OH238181   0.090   6.701   1.231
12747TIP3    H138182   0.091   6.606   1.220
12747TIP3    H238183   0.022   6.718   1.296
12748TIP3   OH238184   2.876   3.961   4.796
12748TIP3    H138185   2.838   3.946   4.882
12748TIP3    H238186   2.863   4.055   4.780
12749TIP3   OH238187   4.841   4.385   3.871
12749TIP3    H138188   4.853   4.396   3.777
12749TIP3    H238189   4.754   4.345   3.879
12750TIP3   OH238190   7.384   3.660   3.405
12750TIP3    H138191   7.403   3.640   3.313
12750TIP3    H238192   7.291   3.679   3.406
12751TIP3   OH238193   4.149   7.461   6.650
12751TIP3    H138194   4.098   7.395   6.697
12751TIP3    H238195   4.083   7.521   6.615
12752TIP3   OH238196   3.425   1.255   5.751
12752TIP3    H138197   3.381   1.203   5.683
12752TIP3    H238198   3.516   1.259   5.722
12753TIP3   OH238199   6.580   1.555   4.009
12753TIP3    H138200   6.651   1.613   3.980
12753TIP3    H238201   6.501   1.607   3.995
12754TIP3   OH238202   8.303   6.061   5.014
12754TIP3    H138203   8.362   6.031   4.945
12754TIP3    H238204   8.307   6.156   5.009
12755TIP3   OH238205   0.297   6.552   3.332
12755TIP3    H138206   0.255   6.466   3.333
12755TIP3    H238207   0.297   6.577   3.239
12756TIP3   OH238208   1.009   2.872   4.886
12756TIP3    H138209   0.985   2.829   4.968
12756TIP3    H238210   1.101   2.851   4.874
12757TIP3   OH238211   3.948   7.047   0.979
12757TIP3    H138212   3.949   6.988   1.055
12757TIP3    H238213   3.992   7.126   1.011
12758TIP3   OH238214   7.371   1.266   6.030
12758TIP3    H138215   7.463   1.240   6.018
12758TIP3    H238216   7.346   1.226   6.114
12759TIP3   OH238217   1.231   3.471   3.137
12759TIP3    H138218   1.314   3.429   3.112
12759TIP3    H238219   1.182   3.476   3.055
12760TIP3   OH238220   8.132   2.359   0.401
12760TIP3    H138221   8.118   2.313   0.318
12760TIP3    H238222   8.215   2.326   0.433
12761TIP3   OH238223   4.439   4.900   0.612
12761TIP3    H138224   4.431   4.973   0.673
12761TIP3    H238225   4.524   4.911   0.571
12762TIP3   OH238226   6.045   3.961   0.616
12762TIP3    H138227   6.004   3.897   0.558
12762TIP3    H238228   5.972   4.011   0.651
12763TIP3   OH238229   4.980   4.046   4.115
12763TIP3    H138230   4.922   4.067   4.189
12763TIP3    H238231   5.026   3.966   4.142
12764TIP3   OH238232   1.098   4.223   3.121
12764TIP3    H138233   1.162   4.294   3.127
12764TIP3    H238234   1.101   4.196   3.029
12765TIP3   OH238235   2.751   3.482   1.341
12765TIP3    H138236   2.718   3.563   1.302
12765TIP3    H238237   2.689   3.415   1.312
12766TIP3   OH238238   3.974   1.725   5.381
12766TIP3    H138239   3.968   1.809   5.337
12766TIP3    H238240   3.964   1.660   5.311
12767TIP3   OH238241   5.144   6.283   4.440
12767TIP3    H138242   5.181   6.329   4.515
12767TIP3    H238243   5.057   6.255   4.469
12768TIP3   OH238244   0.364   5.338   3.492
12768TIP3    H138245   0.351   5.243   3.483
12768TIP3    H238246   0.403   5.348   3.579
12769TIP3   OH238247   2.444   5.671   2.463
12769TIP3    H138248   2.384   5.639   2.531
12769TIP3    H238249   2.415   5.760   2.445
12770TIP3   OH238250   6.122   4.743   1.333
12770TIP3    H138251   6.110   4.725   1.427
12770TIP3    H238252   6.077   4.826   1.319
12771TIP3   OH238253   7.337   5.361   0.405
12771TIP3    H138254   7.378   5.434   0.452
12771TIP3    H238255   7.410   5.317   0.361
12772TIP3   OH238256   1.445   3.340   3.030
12772TIP3    H138257   1.432   3.245   3.029
12772TIP3    H238258   1.539   3.351   3.017
12773TIP3   OH238259   0.240   1.022   5.969
12773TIP3    H138260   0.186   0.957   5.923
12773TIP3    H238261   0.227   1.103   5.919
12774TIP3   OH238262   5.423   0.578   0.503
12774TIP3    H138263   5.426   0.596   0.409
12774TIP3    H238264   5.395   0.487   0.509
12775TIP3   OH238265   3.375   5.526   4.202
12775TIP3    H138266   3.448   5.571   4.244
12775TIP3    H238267   3.331   5.480   4.273
12776TIP3   OH238268   6.141   4.701   1.612
12776TIP3    H138269   6.215   4.758   1.593
12776TIP3    H238270   6.095   4.744   1.684
12777TIP3   OH238271   7.857   7.697   1.921
12777TIP3    H138272   7.835   7.660   2.007
12777TIP3    H238273   7.773   7.702   1.875
12778TIP3   OH238274   6.259   5.518   6.415
12778TIP3    H138275   6.203   5.479   6.347
12778TIP3    H238276   6.346   5.524   6.374
12779TIP3   OH238277   2.306   0.434   1.891
12779TIP3    H138278   2.323   0.340   1.884
12779TIP3    H238279   2.390   0.476   1.869
12780TIP3   OH238280   8.313   0.630   4.328
12780TIP3    H138281   8.237   0.668   4.284
12780TIP3    H238282   8.295   0.536   4.331
12781TIP3   OH238283   5.898   5.536   0.873
12781TIP3    H138284   5.932   5.584   0.948
12781TIP3    H238285   5.932   5.447   0.885
12782TIP3   OH238286   1.431   1.440   1.227
12782TIP3    H138287   1.477   1.371   1.180
12782TIP3    H238288   1.466   1.521   1.189
12783TIP3   OH238289   1.004   7.927   0.940
12783TIP3    H138290   1.077   7.956   0.994
12783TIP3    H238291   1.045   7.877   0.869
12784TIP3   OH238292   7.512   0.744   6.565
12784TIP3    H138293   7.433   0.690   6.578
12784TIP3    H238294   7.526   0.786   6.650
12785TIP3   OH238295   1.978   2.496   4.600
12785TIP3    H138296   1.950   2.405   4.595
12785TIP3    H238297   2.006   2.517   4.511
12786TIP3   OH238298   3.013   2.111   1.344
12786TIP3    H138299   3.056   2.114   1.429
12786TIP3    H238300   3.072   2.159   1.286
12787TIP3   OH238301   5.780   0.918   0.768
12787TIP3    H138302   5.787   0.840   0.714
12787TIP3    H238303   5.870   0.948   0.780
12788TIP3   OH238304   7.366   2.733   1.341
12788TIP3    H138305   7.436   2.722   1.406
12788TIP3    H238306   7.412   2.759   1.261
12789TIP3   OH238307   7.960   1.631   1.285
12789TIP3    H138308   8.042   1.680   1.284
12789TIP3    H238309   7.922   1.651   1.370
12790TIP3   OH238310   1.845   4.944   4.699
12790TIP3    H138311   1.876   4.872   4.644
12790TIP3    H238312   1.870   4.919   4.787
12791TIP3   OH238313   1.506   7.188   5.526
12791TIP3    H138314   1.464   7.169   5.442
12791TIP3    H238315   1.584   7.132   5.527
12792TIP3   OH238316   5.531   6.174   0.504
12792TIP3    H138317   5.516   6.176   0.599
12792TIP3    H238318   5.516   6.083   0.479
12793TIP3   OH238319   5.881   0.342   6.768
12793TIP3    H138320   5.940   0.358   6.842
12793TIP3    H238321   5.839   0.426   6.752
12794TIP3   OH238322   3.694   5.060   6.536
12794TIP3    H138323   3.764   5.124   6.544
12794TIP3    H238324   3.622   5.107   6.493
12795TIP3   OH238325   3.960   7.621   0.072
12795TIP3    H138326   3.913   7.638  -0.010
12795TIP3    H238327   3.986   7.529   0.067
12796TIP3   OH238328   2.737   0.850   5.318
12796TIP3    H138329   2.720   0.929   5.368
12796TIP3    H238330   2.799   0.801   5.372
12797TIP3   OH238331   4.404   5.126   0.830
12797TIP3    H138332   4.395   5.189   0.902
12797TIP3    H238333   4.464   5.060   0.864
12798TIP3   OH238334   1.124   7.820   0.700
12798TIP3    H138335   1.136   7.894   0.641
12798TIP3    H238336   1.209   7.776   0.701
12799TIP3   OH238337   4.502   5.676   3.734
12799TIP3    H138338   4.505   5.765   3.769
12799TIP3    H238339   4.420   5.640   3.768
12800TIP3   OH238340   3.376   5.594   2.709
12800TIP3    H138341   3.407   5.610   2.799
12800TIP3    H238342   3.448   5.547   2.667
12801TIP3   OH238343   1.408   2.420   5.546
12801TIP3    H138344   1.416   2.354   5.477
12801TIP3    H238345   1.364   2.374   5.618
12802TIP3   OH238346   6.850   1.867   1.934
12802TIP3    H138347   6.830   1.774   1.939
12802TIP3    H238348   6.923   1.873   1.872
12803TIP3   OH238349   0.868   3.305   2.645
12803TIP3    H138350   0.896   3.226   2.691
12803TIP3    H238351   0.772   3.301   2.647
12804TIP3   OH238352   5.562   6.376   0.139
12804TIP3    H138353   5.492   6.312   0.126
12804TIP3    H238354   5.614   6.371   0.059
12805TIP3   OH238355   1.969   5.707   3.119
12805TIP3    H138356   2.056   5.670   3.127
12805TIP3    H238357   1.983   5.791   3.074
12806TIP3   OH238358   4.996   4.608   1.096
12806TIP3    H138359   5.005   4.694   1.056
12806TIP3    H238360   4.933   4.621   1.167
12807TIP3   OH238361   5.508   4.568   2.080
12807TIP3    H138362   5.582   4.512   2.057
12807TIP3    H238363   5.496   4.624   2.003
12808TIP3   OH238364   4.608   0.433   0.499
12808TIP3    H138365   4.570   0.440   0.587
12808TIP3    H238366   4.683   0.492   0.501
12809TIP3   OH238367   4.933   1.309   4.504
12809TIP3    H138368   4.843   1.289   4.529
12809TIP3    H238369   4.947   1.398   4.536
12810TIP3   OH238370   6.764   4.677   3.595
12810TIP3    H138371   6.816   4.679   3.515
12810TIP3    H238372   6.805   4.742   3.652
12811TIP3   OH238373   7.053   0.248   2.668
12811TIP3    H138374   7.115   0.292   2.726
12811TIP3    H238375   7.019   0.175   2.718
12812TIP3   OH238376   7.438   0.672   4.890
12812TIP3    H138377   7.360   0.654   4.838
12812TIP3    H238378   7.455   0.590   4.936
12813TIP3   OH238379   0.114   0.297   1.337
12813TIP3    H138380   0.210   0.297   1.335
12813TIP3    H238381   0.091   0.205   1.351
12814TIP3   OH238382   7.576   7.898   3.620
12814TIP3    H138383   7.645   7.912   3.555
12814TIP3    H238384   7.622   7.875   3.700
12815TIP3   OH238385   0.054   5.327   3.532
12815TIP3    H138386   0.133   5.373   3.560
12815TIP3    H238387  -0.017   5.390   3.545
12816TIP3   OH238388   2.831   0.567   2.375
12816TIP3    H138389   2.919   0.586   2.407
12816TIP3    H238390   2.845   0.508   2.301
12817TIP3   OH238391   3.645   1.196   3.925
12817TIP3    H138392   3.653   1.191   4.020
12817TIP3    H238393   3.708   1.262   3.899
12818TIP3   OH238394   6.449   6.673   0.723
12818TIP3    H138395   6.386   6.618   0.677
12818TIP3    H238396   6.525   6.616   0.737
12819TIP3   OH238397   1.449   2.786   3.585
12819TIP3    H138398   1.433   2.734   3.506
12819TIP3    H238399   1.397   2.744   3.653
12820TIP3   OH238400   5.971   3.790   3.492
12820TIP3    H138401   5.921   3.790   3.411
12820TIP3    H238402   5.907   3.764   3.559
12821TIP3   OH238403   4.736   4.614   2.723
12821TIP3    H138404   4.685   4.600   2.803
12821TIP3    H238405   4.683   4.575   2.654
12822TIP3   OH238406   5.037   1.716   6.857
12822TIP3    H138407   4.944   1.732   6.839
12822TIP3    H238408   5.065   1.657   6.787
12823TIP3   OH238409   8.221   4.639   4.571
12823TIP3    H138410   8.153   4.576   4.546
12823TIP3    H238411   8.172   4.713   4.607
12824TIP3   OH238412   7.249   2.605   4.664
12824TIP3    H138413   7.317   2.555   4.621
12824TIP3    H238414   7.297   2.670   4.717
12825TIP3   OH238415   4.028   0.837   2.289
12825TIP3    H138416   4.047   0.786   2.210
12825TIP3    H238417   4.028   0.772   2.359
12826TIP3   OH238418   6.203   6.645   6.145
12826TIP3    H138419   6.296   6.626   6.148
12826TIP3    H238420   6.171   6.601   6.066
12827TIP3   OH238421   0.856   5.482   0.125
12827TIP3    H138422   0.908   5.559   0.100
12827TIP3    H238423   0.912   5.407   0.105
12828TIP3   OH238424   3.540   4.305   4.105
12828TIP3    H138425   3.598   4.299   4.181
12828TIP3    H238426   3.540   4.217   4.068
12829TIP3   OH238427   7.880   5.353   5.641
12829TIP3    H138428   7.970   5.376   5.616
12829TIP3    H238429   7.886   5.329   5.733
12830TIP3   OH238430   4.071   4.824   3.198
12830TIP3    H138431   4.123   4.811   3.118
12830TIP3    H238432   3.991   4.867   3.167
12831TIP3   OH238433   0.547   3.000   4.527
12831TIP3    H138434   0.624   2.980   4.474
12831TIP3    H238435   0.504   2.916   4.541
12832TIP3   OH238436   0.953   1.136   0.607
12832TIP3    H138437   0.914   1.066   0.659
12832TIP3    H238438   0.925   1.216   0.651
12833TIP3   OH238439   0.023   1.496   1.330
12833TIP3    H138440  -0.006   1.410   1.360
12833TIP3    H238441   0.090   1.477   1.264
12834TIP3   OH238442   5.692   0.354   1.061
12834TIP3    H138443   5.726   0.286   1.002
12834TIP3    H238444   5.721   0.436   1.021
12835TIP3   OH238445   2.590   7.182   6.318
12835TIP3    H138446   2.505   7.139   6.315
12835TIP3    H238447   2.628   7.155   6.402
12836TIP3   OH238448   3.861   0.522   6.596
12836TIP3    H138449   3.790   0.542   6.535
12836TIP3    H238450   3.929   0.481   6.542
12837TIP3   OH238451   5.583   2.861   1.861
12837TIP3    H138452   5.553   2.951   1.874
12837TIP3    H238453   5.674   2.869   1.833
12838TIP3   OH238454   7.375   1.250   2.087
12838TIP3    H138455   7.373   1.294   2.002
12838TIP3    H238456   7.314   1.301   2.141
12839TIP3   OH238457   0.892   0.354   4.502
12839TIP3    H138458   0.969   0.316   4.460
12839TIP3    H238459   0.927   0.419   4.563
12840TIP3   OH238460   4.055   2.841   6.122
12840TIP3    H138461   4.138   2.849   6.170
12840TIP3    H238462   4.072   2.774   6.056
12841TIP3   OH238463   1.277   0.463   6.307
12841TIP3    H138464   1.282   0.367   6.310
12841TIP3    H238465   1.278   0.484   6.213
12842TIP3   OH238466   3.932   7.013   4.852
12842TIP3    H138467   3.939   7.050   4.764
12842TIP3    H238468   3.837   7.007   4.867
12843TIP3   OH238469   1.039   4.510   2.743
12843TIP3    H138470   1.057   4.520   2.650
12843TIP3    H238471   0.990   4.428   2.750
12844TIP3   OH238472   6.520   7.357   1.969
12844TIP3    H138473   6.471   7.421   2.021
12844TIP3    H238474   6.490   7.371   1.879
12845TIP3   OH238475   7.350   4.309   6.298
12845TIP3    H138476   7.309   4.251   6.233
12845TIP3    H238477   7.400   4.372   6.245
12846TIP3   OH238478   0.975   0.242   0.438
12846TIP3    H138479   1.042   0.206   0.496
12846TIP3    H238480   0.988   0.336   0.441
12847TIP3   OH238481   1.337   3.376   3.863
12847TIP3    H138482   1.250   3.383   3.824
12847TIP3    H238483   1.392   3.436   3.812
12848TIP3   OH238484   2.644   6.462   5.365
12848TIP3    H138485   2.734   6.475   5.335
12848TIP3    H238486   2.595   6.438   5.286
12849TIP3   OH238487   3.156   6.051   1.017
12849TIP3    H138488   3.159   6.011   1.104
12849TIP3    H238489   3.146   5.978   0.957
12850TIP3   OH238490   6.092   6.229   4.378
12850TIP3    H138491   6.148   6.184   4.442
12850TIP3    H238492   6.126   6.200   4.293
12851TIP3   OH238493   0.126   3.059   0.494
12851TIP3    H138494   0.084   3.144   0.481
12851TIP3    H238495   0.055   3.001   0.523
12852TIP3   OH238496   0.851   5.895   4.453
12852TIP3    H138497   0.841   5.908   4.359
12852TIP3    H238498   0.945   5.905   4.469
12853TIP3   OH238499   2.149   5.321   6.547
12853TIP3    H138500   2.160   5.267   6.625
12853TIP3    H238501   2.061   5.302   6.516
12854TIP3   OH238502   5.358   5.713   5.282
12854TIP3    H138503   5.358   5.677   5.193
12854TIP3    H238504   5.366   5.637   5.339
12855TIP3   OH238505   6.006   3.024   3.953
12855TIP3    H138506   5.957   2.951   3.915
12855TIP3    H238507   5.943   3.096   3.954
12856TIP3   OH238508   7.260   4.562   0.020
12856TIP3    H138509   7.337   4.534  -0.028
12856TIP3    H238510   7.295   4.604   0.099
12857TIP3   OH238511   4.983   5.930   6.133
12857TIP3    H138512   4.928   6.003   6.105
12857TIP3    H238513   4.994   5.877   6.054
12858TIP3   OH238514   2.468   5.679   4.478
12858TIP3    H138515   2.464   5.609   4.544
12858TIP3    H238516   2.471   5.633   4.394
12859TIP3   OH238517   7.443   6.691   2.103
12859TIP3    H138518   7.503   6.616   2.098
12859TIP3    H238519   7.499   6.767   2.116
12860TIP3   OH238520   0.744   0.319   2.999
12860TIP3    H138521   0.826   0.304   3.046
12860TIP3    H238522   0.712   0.403   3.034
12861TIP3   OH238523   5.453   6.979   6.691
12861TIP3    H138524   5.454   7.053   6.630
12861TIP3    H238525   5.361   6.967   6.714
12862TIP3   OH238526   7.998   3.558   4.202
12862TIP3    H138527   7.930   3.612   4.243
12862TIP3    H238528   7.996   3.475   4.250
12863TIP3   OH238529   1.322   1.010   3.725
12863TIP3    H138530   1.286   1.099   3.729
12863TIP3    H238531   1.367   0.998   3.809
12864TIP3   OH238532   2.491   3.914   0.351
12864TIP3    H138533   2.529   3.856   0.417
12864TIP3    H238534   2.528   3.883   0.268
12865TIP3   OH238535   6.172   0.442   4.758
12865TIP3    H138536   6.118   0.363   4.750
12865TIP3    H238537   6.259   0.410   4.783
12866TIP3   OH238538   1.272   6.189   0.687
12866TIP3    H138539   1.283   6.255   0.619
12866TIP3    H238540   1.207   6.128   0.651
12867TIP3   OH238541   3.277   0.969   4.271
12867TIP3    H138542   3.323   0.992   4.190
12867TIP3    H238543   3.346   0.941   4.331
12868TIP3   OH238544   1.810   5.689   0.765
12868TIP3    H138545   1.866   5.667   0.840
12868TIP3    H238546   1.783   5.779   0.781
12869TIP3   OH238547   7.996   2.048   1.929
12869TIP3    H138548   8.086   2.022   1.950
12869TIP3    H238549   8.004   2.137   1.894
12870TIP3   OH238550   5.343   5.364   4.501
12870TIP3    H138551   5.399   5.289   4.519
12870TIP3    H238552   5.300   5.343   4.417
12871TIP3   OH238553   3.443   7.779   4.630
12871TIP3    H138554   3.469   7.833   4.555
12871TIP3    H238555   3.366   7.731   4.599
12872TIP3   OH238556   2.362   7.650   6.614
12872TIP3    H138557   2.323   7.691   6.536
12872TIP3    H238558   2.315   7.690   6.687
12873TIP3   OH238559   7.719   3.507   6.344
12873TIP3    H138560   7.773   3.537   6.270
12873TIP3    H238561   7.782   3.472   6.406
12874TIP3   OH238562   4.224   4.744   6.811
12874TIP3    H138563   4.314   4.772   6.794
12874TIP3    H238564   4.183   4.819   6.854
12875TIP3   OH238565   4.670   1.256   4.543
12875TIP3    H138566   4.586   1.211   4.540
12875TIP3    H238567   4.707   1.233   4.628
12876TIP3   OH238568   2.773   3.317   6.550
12876TIP3    H138569   2.812   3.268   6.478
12876TIP3    H238570   2.848   3.354   6.597
12877TIP3   OH238571   0.642   7.131   6.380
12877TIP3    H138572   0.583   7.111   6.453
12877TIP3    H238573   0.727   7.147   6.421
12878TIP3   OH238574   2.039   6.381   6.701
12878TIP3    H138575   1.945   6.385   6.718
12878TIP3    H238576   2.070   6.307   6.753
12879TIP3   OH238577   6.083   5.031   4.344
12879TIP3    H138578   6.130   5.018   4.427
12879TIP3    H238579   6.109   5.118   4.315
12880TIP3   OH238580   0.247   5.395   2.512
12880TIP3    H138581   0.250   5.300   2.519
12880TIP3    H238582   0.295   5.427   2.589
12881TIP3   OH238583   0.445   7.942   0.157
12881TIP3    H138584   0.535   7.915   0.176
12881TIP3    H238585   0.402   7.942   0.242
12882TIP3   OH238586   7.803   0.148   1.242
12882TIP3    H138587   7.881   0.148   1.186
12882TIP3    H238588   7.802   0.060   1.280
12883TIP3   OH238589   7.361   6.288   3.671
12883TIP3    H138590   7.376   6.356   3.605
12883TIP3    H238591   7.272   6.302   3.701
12884TIP3   OH238592   3.866   1.298   4.653
12884TIP3    H138593   3.903   1.263   4.572
12884TIP3    H238594   3.820   1.377   4.626
12885TIP3   OH238595   0.735   7.140   1.593
12885TIP3    H138596   0.705   7.052   1.615
12885TIP3    H238597   0.693   7.159   1.509
12886TIP3   OH238598   2.508   1.163   4.049
12886TIP3    H138599   2.437   1.217   4.085
12886TIP3    H238600   2.477   1.140   3.962
12887TIP3   OH238601   4.427   0.051   0.130
12887TIP3    H138602   4.358   0.110   0.100
12887TIP3    H238603   4.464   0.095   0.206
12888TIP3   OH238604   1.248   3.265   5.609
12888TIP3    H138605   1.343   3.255   5.604
12888TIP3    H238606   1.229   3.344   5.559
12889TIP3   OH238607   7.980   3.926   4.411
12889TIP3    H138608   8.004   3.930   4.504
12889TIP3    H238609   7.968   3.833   4.393
12890TIP3   OH238610   7.010   2.162   0.691
12890TIP3    H138611   6.990   2.225   0.761
12890TIP3    H238612   7.070   2.099   0.732
12891TIP3   OH238613   3.982   1.000   4.694
12891TIP3    H138614   4.057   1.040   4.739
12891TIP3    H238615   4.012   0.987   4.604
12892TIP3   OH238616   7.702   3.079   5.126
12892TIP3    H138617   7.623   3.025   5.125
12892TIP3    H238618   7.679   3.156   5.075
12893TIP3   OH238619   5.988   0.233   4.719
12893TIP3    H138620   6.004   0.270   4.632
12893TIP3    H238621   5.904   0.271   4.746
12894TIP3   OH238622   3.874   3.522   0.874
12894TIP3    H138623   3.924   3.600   0.901
12894TIP3    H238624   3.921   3.489   0.798
12895TIP3   OH238625   8.348   7.270   4.280
12895TIP3    H138626   8.312   7.340   4.335
12895TIP3    H238627   8.272   7.218   4.254
12896TIP3   OH238628   7.074   2.686   3.600
12896TIP3    H138629   7.156   2.698   3.647
12896TIP3    H238630   7.056   2.592   3.606
12897TIP3   OH238631   3.572   3.181   5.951
12897TIP3    H138632   3.547   3.211   6.039
12897TIP3    H238633   3.494   3.139   5.917
12898TIP3   OH238634   3.013   4.156   2.981
12898TIP3    H138635   3.019   4.221   3.051
12898TIP3    H238636   2.927   4.116   2.993
12899TIP3   OH238637   0.808   0.753   1.381
12899TIP3    H138638   0.887   0.710   1.349
12899TIP3    H238639   0.827   0.774   1.472
12900TIP3   OH238640   0.518   6.763   0.406
12900TIP3    H138641   0.542   6.852   0.381
12900TIP3    H238642   0.506   6.718   0.323
12901TIP3   OH238643   0.378   5.877   4.556
12901TIP3    H138644   0.451   5.911   4.504
12901TIP3    H238645   0.311   5.853   4.491
12902TIP3   OH238646   1.728   5.686   4.438
12902TIP3    H138647   1.647   5.645   4.468
12902TIP3    H238648   1.758   5.736   4.514
12903TIP3   OH238649   0.062   0.715   4.102
12903TIP3    H138650   0.156   0.718   4.121
12903TIP3    H238651   0.021   0.699   4.187
12904TIP3   OH238652   3.834   6.318   2.255
12904TIP3    H138653   3.780   6.370   2.195
12904TIP3    H238654   3.817   6.227   2.231
12905TIP3   OH238655   6.205   3.143   1.400
12905TIP3    H138656   6.163   3.078   1.344
12905TIP3    H238657   6.296   3.144   1.371
12906TIP3   OH238658   0.646   0.354   4.349
12906TIP3    H138659   0.716   0.352   4.414
12906TIP3    H238660   0.672   0.288   4.285
12907TIP3   OH238661   2.023   2.895   3.827
12907TIP3    H138662   2.012   2.902   3.732
12907TIP3    H238663   1.981   2.812   3.850
12908TIP3   OH238664   8.168   3.159   4.978
12908TIP3    H138665   8.142   3.250   4.994
12908TIP3    H238666   8.204   3.130   5.062
12909TIP3   OH238667   4.791   5.131   3.145
12909TIP3    H138668   4.864   5.154   3.088
12909TIP3    H238669   4.723   5.099   3.086
12910TIP3   OH238670   1.507   6.734   5.656
12910TIP3    H138671   1.451   6.787   5.599
12910TIP3    H238672   1.596   6.767   5.640
12911TIP3   OH238673   4.267   6.726   0.988
12911TIP3    H138674   4.249   6.648   1.041
12911TIP3    H238675   4.362   6.736   0.991
12912TIP3   OH238676   7.710   1.718   5.279
12912TIP3    H138677   7.751   1.742   5.362
12912TIP3    H238678   7.775   1.663   5.236
12913TIP3   OH238679   1.086   5.635   5.675
12913TIP3    H138680   1.072   5.544   5.649
12913TIP3    H238681   1.059   5.638   5.766
12914TIP3   OH238682   6.171   6.910   6.077
12914TIP3    H138683   6.105   6.880   6.014
12914TIP3    H238684   6.187   6.835   6.133
12915TIP3   OH238685   0.205   4.339   6.119
12915TIP3    H138686   0.287   4.308   6.157
12915TIP3    H238687   0.205   4.305   6.030
12916TIP3   OH238688   6.601   5.150   1.543
12916TIP3    H138689   6.531   5.146   1.478
12916TIP3    H238690   6.671   5.200   1.500
12917TIP3   OH238691   5.513   2.379   5.162
12917TIP3    H138692   5.557   2.295   5.178
12917TIP3    H238693   5.566   2.443   5.208
12918TIP3   OH238694   0.458   3.190   6.796
12918TIP3    H138695   0.510   3.156   6.869
12918TIP3    H238696   0.386   3.128   6.787
12919TIP3   OH238697   7.213   6.308   1.417
12919TIP3    H138698   7.289   6.343   1.464
12919TIP3    H238699   7.169   6.386   1.382
12920TIP3   OH238700   7.818   6.313   4.511
12920TIP3    H138701   7.737   6.303   4.459
12920TIP3    H238702   7.839   6.223   4.538
12921TIP3   OH238703   7.775   7.746   1.135
12921TIP3    H138704   7.839   7.710   1.197
12921TIP3    H238705   7.711   7.791   1.190
12922TIP3   OH238706   7.646   3.368   5.723
12922TIP3    H138707   7.555   3.387   5.747
12922TIP3    H238708   7.639   3.321   5.640
12923TIP3   OH238709   1.430   7.136   4.956
12923TIP3    H138710   1.413   7.122   4.863
12923TIP3    H238711   1.403   7.227   4.972
12924TIP3   OH238712   3.738   3.652   4.759
12924TIP3    H138713   3.677   3.617   4.824
12924TIP3    H238714   3.794   3.711   4.808
12925TIP3   OH238715   0.478   7.154   1.957
12925TIP3    H138716   0.454   7.062   1.963
12925TIP3    H238717   0.402   7.196   1.916
12926TIP3   OH238718   1.986   3.457   2.964
12926TIP3    H138719   2.060   3.506   2.928
12926TIP3    H238720   2.023   3.373   2.992
12927TIP3   OH238721   6.327   7.132   6.164
12927TIP3    H138722   6.323   7.228   6.162
12927TIP3    H238723   6.287   7.104   6.082
12928TIP3   OH238724   4.657   6.747   1.999
12928TIP3    H138725   4.686   6.671   1.948
12928TIP3    H238726   4.580   6.717   2.046
12929TIP3   OH238727   3.876   7.884   2.876
12929TIP3    H138728   3.854   7.795   2.903
12929TIP3    H238729   3.794   7.933   2.885
12930TIP3   OH238730   4.845   6.166   6.089
12930TIP3    H138731   4.773   6.103   6.085
12930TIP3    H238732   4.837   6.218   6.009
12931TIP3   OH238733   0.116   1.872   3.053
12931TIP3    H138734   0.158   1.885   3.138
12931TIP3    H238735   0.130   1.954   3.006
12932TIP3   OH238736   4.241   0.340   6.639
12932TIP3    H138737   4.239   0.424   6.685
12932TIP3    H238738   4.328   0.305   6.656
12933TIP3   OH238739   3.562   3.648   0.968
12933TIP3    H138740   3.630   3.631   1.034
12933TIP3    H238741   3.575   3.580   0.902
12934TIP3   OH238742   0.497   3.470   3.918
12934TIP3    H138743   0.412   3.495   3.956
12934TIP3    H238744   0.516   3.385   3.959
12935TIP3   OH238745   2.282   4.577   2.034
12935TIP3    H138746   2.200   4.559   2.080
12935TIP3    H238747   2.277   4.526   1.954
12936TIP3   OH238748   2.864   4.370   5.062
12936TIP3    H138749   2.909   4.302   5.012
12936TIP3    H238750   2.870   4.341   5.153
12937TIP3   OH238751   7.143   6.516   3.900
12937TIP3    H138752   7.101   6.444   3.852
12937TIP3    H238753   7.092   6.593   3.877
12938TIP3   OH238754   7.442   7.061   5.291
12938TIP3    H138755   7.465   7.005   5.364
12938TIP3    H238756   7.385   7.128   5.329
12939TIP3   OH238757   7.981   0.908   5.521
12939TIP3    H138758   8.011   0.957   5.598
12939TIP3    H238759   7.922   0.968   5.476
12940TIP3   OH238760   2.527   7.247   4.784
12940TIP3    H138761   2.561   7.196   4.711
12940TIP3    H238762   2.521   7.336   4.750
12941TIP3   OH238763   7.944   0.784   3.293
12941TIP3    H138764   7.909   0.732   3.221
12941TIP3    H238765   7.873   0.844   3.316
12942TIP3   OH238766   1.196   3.816   6.334
12942TIP3    H138767   1.111   3.785   6.365
12942TIP3    H238768   1.260   3.769   6.388
12943TIP3   OH238769   2.078   7.243   0.139
12943TIP3    H138770   2.130   7.167   0.165
12943TIP3    H238771   1.995   7.231   0.185
12944TIP3   OH238772   5.080   4.132   1.877
12944TIP3    H138773   5.060   4.094   1.792
12944TIP3    H238774   5.116   4.219   1.857
12945TIP3   OH238775   6.352   4.530   3.922
12945TIP3    H138776   6.421   4.476   3.961
12945TIP3    H238777   6.385   4.552   3.835
12946TIP3   OH238778   4.029   5.666   0.983
12946TIP3    H138779   4.035   5.756   1.016
12946TIP3    H238780   4.115   5.628   1.001
12947TIP3   OH238781   8.348   2.762   2.214
12947TIP3    H138782   8.368   2.682   2.263
12947TIP3    H238783   8.259   2.784   2.241
12948TIP3   OH238784   5.681   2.514   0.189
12948TIP3    H138785   5.762   2.468   0.213
12948TIP3    H238786   5.615   2.479   0.249
12949TIP3   OH238787   0.772   1.687   4.051
12949TIP3    H138788   0.699   1.743   4.024
12949TIP3    H238789   0.730   1.605   4.078
12950TIP3   OH238790   2.311   5.371   2.793
12950TIP3    H138791   2.329   5.387   2.886
12950TIP3    H238792   2.273   5.454   2.761
12951TIP3   OH238793   3.396   2.223   6.714
12951TIP3    H138794   3.331   2.220   6.644
12951TIP3    H238795   3.406   2.132   6.742
12952TIP3   OH238796   1.416   7.444   2.375
12952TIP3    H138797   1.396   7.368   2.430
12952TIP3    H238798   1.506   7.466   2.397
12953TIP3   OH238799   5.839   5.904   0.674
12953TIP3    H138800   5.798   5.981   0.715
12953TIP3    H238801   5.766   5.848   0.650
12954TIP3   OH238802   3.033   0.829   0.880
12954TIP3    H138803   3.108   0.776   0.851
12954TIP3    H238804   2.995   0.862   0.799
12955TIP3   OH238805   1.640   0.736   2.228
12955TIP3    H138806   1.587   0.811   2.257
12955TIP3    H238807   1.717   0.776   2.188
12956TIP3   OH238808   0.143   7.385   2.764
12956TIP3    H138809   0.170   7.295   2.744
12956TIP3    H238810   0.049   7.387   2.748
12957TIP3   OH238811   6.879   3.490   6.334
12957TIP3    H138812   6.829   3.442   6.267
12957TIP3    H238813   6.958   3.437   6.347
12958TIP3   OH238814   4.650   3.135   5.067
12958TIP3    H138815   4.641   3.099   5.155
12958TIP3    H238816   4.569   3.108   5.022
12959TIP3   OH238817   5.018   0.001   4.411
12959TIP3    H138818   5.065   0.050   4.344
12959TIP3    H238819   4.964   0.066   4.456
12960TIP3   OH238820   3.103   7.159   1.510
12960TIP3    H138821   3.031   7.201   1.558
12960TIP3    H238822   3.132   7.226   1.448
12961TIP3   OH238823   4.978   1.975   3.041
12961TIP3    H138824   5.067   1.977   3.078
12961TIP3    H238825   4.966   1.884   3.015
12962TIP3   OH238826   5.427   4.257   2.965
12962TIP3    H138827   5.425   4.298   3.052
12962TIP3    H238828   5.520   4.258   2.941
12963TIP3   OH238829   7.702   0.713   4.860
12963TIP3    H138830   7.606   0.713   4.868
12963TIP3    H238831   7.722   0.794   4.812
12964TIP3   OH238832   4.371   1.677   1.743
12964TIP3    H138833   4.393   1.675   1.836
12964TIP3    H238834   4.318   1.756   1.733
12965TIP3   OH238835   0.433   0.641   3.685
12965TIP3    H138836   0.419   0.615   3.776
12965TIP3    H238837   0.346   0.668   3.654
12966TIP3   OH238838   8.323   3.277   2.780
12966TIP3    H138839   8.332   3.322   2.696
12966TIP3    H238840   8.302   3.346   2.842
12967TIP3   OH238841   7.468   0.068   5.730
12967TIP3    H138842   7.531   0.118   5.678
12967TIP3    H238843   7.510   0.059   5.815
12968TIP3   OH238844   3.698   7.433   6.721
12968TIP3    H138845   3.778   7.393   6.754
12968TIP3    H238846   3.628   7.391   6.771
12969TIP3   OH238847   0.430   1.650   6.085
12969TIP3    H138848   0.381   1.570   6.105
12969TIP3    H238849   0.486   1.664   6.161
12970TIP3   OH238850   3.376   0.278   4.370
12970TIP3    H138851   3.360   0.190   4.405
12970TIP3    H238852   3.343   0.274   4.281
12971TIP3   OH238853   1.029   3.695   4.275
12971TIP3    H138854   1.065   3.612   4.243
12971TIP3    H238855   0.993   3.674   4.361
12972TIP3   OH238856   4.651   5.458   2.492
12972TIP3    H138857   4.694   5.448   2.407
12972TIP3    H238858   4.649   5.553   2.506
12973TIP3   OH238859   6.079   6.565   5.464
12973TIP3    H138860   6.107   6.497   5.403
12973TIP3    H238861   5.983   6.559   5.465
12974TIP3   OH238862   5.795   4.919   5.596
12974TIP3    H138863   5.882   4.881   5.582
12974TIP3    H238864   5.808   5.013   5.583
12975TIP3   OH238865   8.127   3.238   1.951
12975TIP3    H138866   8.034   3.217   1.938
12975TIP3    H238867   8.128   3.304   2.019
12976TIP3   OH238868   2.524   3.990   4.713
12976TIP3    H138869   2.513   4.073   4.758
12976TIP3    H238870   2.575   3.937   4.774
12977TIP3   OH238871   5.267   1.132   4.290
12977TIP3    H138872   5.306   1.185   4.220
12977TIP3    H238873   5.328   1.059   4.302
12978TIP3   OH238874   4.371   6.104   0.468
12978TIP3    H138875   4.332   6.095   0.381
12978TIP3    H238876   4.303   6.147   0.520
12979TIP3   OH238877   0.706   6.607   6.642
12979TIP3    H138878   0.673   6.531   6.595
12979TIP3    H238879   0.795   6.619   6.610
12980TIP3   OH238880   7.594   4.773   0.543
12980TIP3    H138881   7.668   4.820   0.504
12980TIP3    H238882   7.609   4.681   0.520
12981TIP3   OH238883   7.603   7.327   6.514
12981TIP3    H138884   7.657   7.321   6.435
12981TIP3    H238885   7.632   7.408   6.556
12982TIP3   OH238886   3.262   6.199   4.863
12982TIP3    H138887   3.241   6.209   4.956
12982TIP3    H238888   3.182   6.224   4.817
12983TIP3   OH238889   1.880   6.663   1.911
12983TIP3    H138890   1.906   6.748   1.947
12983TIP3    H238891   1.816   6.629   1.974
12984TIP3   OH238892   6.857   7.292   4.405
12984TIP3    H138893   6.907   7.371   4.426
12984TIP3    H238894   6.873   7.277   4.312
12985TIP3   OH238895   8.149   4.227   3.459
12985TIP3    H138896   8.059   4.257   3.446
12985TIP3    H238897   8.193   4.249   3.377
12986TIP3   OH238898   5.695   1.914   3.787
12986TIP3    H138899   5.626   1.974   3.815
12986TIP3    H238900   5.649   1.844   3.742
12987TIP3   OH238901   6.378   7.539   1.812
12987TIP3    H138902   6.287   7.532   1.782
12987TIP3    H238903   6.430   7.538   1.732
12988TIP3   OH238904   4.997   1.166   0.625
12988TIP3    H138905   4.969   1.109   0.554
12988TIP3    H238906   4.917   1.208   0.656
12989TIP3   OH238907   8.133   2.057   6.130
12989TIP3    H138908   8.181   2.005   6.066
12989TIP3    H238909   8.194   2.069   6.203
12990TIP3   OH238910   4.797   5.415   4.759
12990TIP3    H138911   4.795   5.336   4.705
12990TIP3    H238912   4.803   5.487   4.697
12991TIP3   OH238913   4.641   2.111   5.626
12991TIP3    H138914   4.595   2.027   5.634
12991TIP3    H238915   4.578   2.176   5.659
12992TIP3   OH238916   1.808   1.985   4.463
12992TIP3    H138917   1.724   1.961   4.503
12992TIP3    H238918   1.849   1.901   4.441
12993TIP3   OH238919   5.924   2.448   6.085
12993TIP3    H138920   6.002   2.424   6.035
12993TIP3    H238921   5.959   2.483   6.167
12994TIP3   OH238922   4.771   6.921   3.453
12994TIP3    H138923   4.855   6.913   3.498
12994TIP3    H238924   4.713   6.861   3.500
12995TIP3   OH238925   4.434   3.332   3.315
12995TIP3    H138926   4.415   3.416   3.356
12995TIP3    H238927   4.380   3.331   3.236
12996TIP3   OH238928   7.768   2.559   2.793
12996TIP3    H138929   7.801   2.611   2.867
12996TIP3    H238930   7.802   2.605   2.716
12997TIP3   OH238931   7.326   0.991   2.011
12997TIP3    H138932   7.324   1.086   2.021
12997TIP3    H238933   7.248   0.961   2.058
12998TIP3   OH238934   5.629   4.411   0.242
12998TIP3    H138935   5.589   4.327   0.263
12998TIP3    H238936   5.655   4.403   0.151
12999TIP3   OH238937   5.579   6.760   5.491
12999TIP3    H138938   5.554   6.851   5.475
12999TIP3    H238939   5.579   6.752   5.587
13000TIP3   OH238940   4.635   5.474   5.357
13000TIP3    H138941   4.687   5.394   5.354
13000TIP3    H238942   4.624   5.499   5.265
13001TIP3   OH238943   0.212   7.715   4.406
13001TIP3    H138944   0.235   7.622   4.403
13001TIP3    H238945   0.195   7.738   4.315
13002TIP3   OH238946   3.471   3.791   2.243
13002TIP3    H138947   3.546   3.830   2.287
13002TIP3    H238948   3.469   3.833   2.157
13003TIP3   OH238949   4.808   5.610   6.032
13003TIP3    H138950   4.725   5.608   6.080
13003TIP3    H238951   4.787   5.647   5.947
13004TIP3   OH238952   6.145   1.601   5.327
13004TIP3    H138953   6.220   1.575   5.274
13004TIP3    H238954   6.180   1.663   5.391
13005TIP3   OH238955   7.105   3.760   3.370
13005TIP3    H138956   7.020   3.718   3.357
13005TIP3    H238957   7.136   3.780   3.282
13006TIP3   OH238958   7.415   0.936   2.267
13006TIP3    H138959   7.420   0.978   2.181
13006TIP3    H238960   7.490   0.971   2.316
13007TIP3   OH238961   5.564   3.958   2.647
13007TIP3    H138962   5.613   3.885   2.686
13007TIP3    H238963   5.623   4.032   2.651
13008TIP3   OH238964   2.399   7.148   0.365
13008TIP3    H138965   2.391   7.159   0.460
13008TIP3    H238966   2.485   7.185   0.344
13009TIP3   OH238967   0.390   2.563   5.684
13009TIP3    H138968   0.413   2.492   5.624
13009TIP3    H238969   0.349   2.519   5.759
13010TIP3   OH238970   1.791   2.208   0.542
13010TIP3    H138971   1.735   2.263   0.488
13010TIP3    H238972   1.872   2.258   0.552
13011TIP3   OH238973   6.062   0.680   1.816
13011TIP3    H138974   6.071   0.605   1.874
13011TIP3    H238975   5.967   0.696   1.811
13012TIP3   OH238976   3.290   0.080   1.317
13012TIP3    H138977   3.282   0.055   1.409
13012TIP3    H238978   3.346   0.158   1.319
13013TIP3   OH238979   5.887   7.279   2.007
13013TIP3    H138980   5.878   7.316   1.919
13013TIP3    H238981   5.815   7.216   2.014
13014TIP3   OH238982   7.841   2.497   6.014
13014TIP3    H138983   7.814   2.589   6.009
13014TIP3    H238984   7.870   2.486   6.104
13015TIP3   OH238985   8.174   3.109   2.432
13015TIP3    H138986   8.083   3.139   2.422
13015TIP3    H238987   8.227   3.181   2.399
13016TIP3   OH238988   2.065   2.303   0.561
13016TIP3    H138989   2.150   2.342   0.543
13016TIP3    H238990   2.084   2.232   0.623
13017TIP3   OH238991   4.845   6.495   0.753
13017TIP3    H138992   4.802   6.413   0.779
13017TIP3    H238993   4.779   6.541   0.701
13018TIP3   OH238994   6.411   2.628   1.530
13018TIP3    H138995   6.357   2.551   1.513
13018TIP3    H238996   6.495   2.608   1.488
13019TIP3   OH238997   2.510   4.101   6.495
13019TIP3    H138998   2.526   4.016   6.536
13019TIP3    H238999   2.459   4.150   6.559
13020TIP3   OH239000   4.272   4.896   2.278
13020TIP3    H139001   4.272   4.883   2.373
13020TIP3    H239002   4.356   4.938   2.260
13021TIP3   OH239003   1.168   3.301   2.369
13021TIP3    H139004   1.154   3.326   2.278
13021TIP3    H239005   1.123   3.217   2.378
13022TIP3   OH239006   3.189   0.391   3.156
13022TIP3    H139007   3.241   0.323   3.112
13022TIP3    H239008   3.135   0.343   3.218
13023TIP3   OH239009   4.952   0.120   1.296
13023TIP3    H139010   5.001   0.039   1.311
13023TIP3    H239011   4.986   0.154   1.214
13024TIP3   OH239012   0.588   1.740   6.311
13024TIP3    H139013   0.666   1.688   6.291
13024TIP3    H239014   0.622   1.820   6.351
13025TIP3   OH239015   7.072   0.913   6.065
13025TIP3    H139016   7.142   0.855   6.096
13025TIP3    H239017   7.006   0.854   6.030
13026TIP3   OH239018   0.966   4.419   4.475
13026TIP3    H139019   1.039   4.463   4.518
13026TIP3    H239020   0.986   4.325   4.485
13027TIP3   OH239021   0.371   6.399   1.671
13027TIP3    H139022   0.421   6.426   1.748
13027TIP3    H239023   0.352   6.306   1.686
13028TIP3   OH239024   5.270   7.268   4.537
13028TIP3    H139025   5.191   7.233   4.495
13028TIP3    H239026   5.296   7.200   4.599
13029TIP3   OH239027   4.596   3.147   6.773
13029TIP3    H139028   4.553   3.126   6.691
13029TIP3    H239029   4.565   3.080   6.834
13030TIP3   OH239030   0.691   7.320   4.985
13030TIP3    H139031   0.600   7.328   4.955
13030TIP3    H239032   0.737   7.282   4.910
13031TIP3   OH239033   5.353   2.729   6.278
13031TIP3    H139034   5.326   2.729   6.186
13031TIP3    H239035   5.285   2.679   6.323
13032TIP3   OH239036   0.003   2.578   3.312
13032TIP3    H139037   0.084   2.603   3.268
13032TIP3    H239038   0.032   2.526   3.387
13033TIP3   OH239039   3.295   0.413   0.774
13033TIP3    H139040   3.243   0.489   0.799
13033TIP3    H239041   3.270   0.345   0.836
13034TIP3   OH239042   5.506   7.716   0.377
13034TIP3    H139043   5.569   7.645   0.389
13034TIP3    H239044   5.461   7.694   0.295
13035TIP3   OH239045   3.605   5.125   2.669
13035TIP3    H139046   3.512   5.150   2.671
13035TIP3    H239047   3.618   5.090   2.581
13036TIP3   OH239048   3.408   6.140   0.941
13036TIP3    H139049   3.324   6.111   0.975
13036TIP3    H239050   3.395   6.233   0.919
13037TIP3   OH239051   6.320   0.137   1.884
13037TIP3    H139052   6.327   0.066   1.821
13037TIP3    H239053   6.296   0.214   1.832
13038TIP3   OH239054   0.188   1.074   5.574
13038TIP3    H139055   0.157   0.994   5.616
13038TIP3    H239056   0.194   1.138   5.644
13039TIP3   OH239057   6.733   1.744   3.014
13039TIP3    H139058   6.660   1.796   3.050
13039TIP3    H239059   6.696   1.656   3.004
13040TIP3   OH239060   0.973   1.133   2.550
13040TIP3    H139061   0.884   1.165   2.569
13040TIP3    H239062   0.986   1.154   2.458
13041TIP3   OH239063   6.033   3.089   4.853
13041TIP3    H139064   6.110   3.032   4.851
13041TIP3    H239065   5.958   3.030   4.849
13042TIP3   OH239066   7.582   4.854   5.752
13042TIP3    H139067   7.595   4.837   5.659
13042TIP3    H239068   7.508   4.798   5.777
13043TIP3   OH239069   0.079   6.296   5.156
13043TIP3    H139070   0.152   6.269   5.100
13043TIP3    H239071   0.033   6.363   5.105
13044TIP3   OH239072   1.462   2.145   4.167
13044TIP3    H139073   1.443   2.089   4.242
13044TIP3    H239074   1.523   2.095   4.113
13045TIP3   OH239075   4.415   3.027   3.112
13045TIP3    H139076   4.494   3.079   3.130
13045TIP3    H239077   4.448   2.938   3.102
13046TIP3   OH239078   4.448   6.416   5.775
13046TIP3    H139079   4.518   6.480   5.787
13046TIP3    H239080   4.469   6.345   5.836
13047TIP3   OH239081   1.422   6.542   3.760
13047TIP3    H139082   1.458   6.518   3.675
13047TIP3    H239083   1.396   6.634   3.750
13048TIP3   OH239084   5.075   1.792   5.487
13048TIP3    H139085   5.097   1.769   5.577
13048TIP3    H239086   5.008   1.860   5.496
13049TIP3   OH239087   5.261   2.924   5.706
13049TIP3    H139088   5.175   2.889   5.681
13049TIP3    H239089   5.311   2.923   5.624
13050TIP3   OH239090   7.374   3.418   3.893
13050TIP3    H139091   7.397   3.458   3.977
13050TIP3    H239092   7.359   3.492   3.834
13051TIP3   OH239093   1.623   6.572   2.708
13051TIP3    H139094   1.661   6.648   2.752
13051TIP3    H239095   1.613   6.600   2.617
13052TIP3   OH239096   7.505   4.117   6.109
13052TIP3    H139097   7.411   4.117   6.127
13052TIP3    H239098   7.528   4.024   6.101
13053TIP3   OH239099   1.726   2.119   5.463
13053TIP3    H139100   1.710   2.199   5.411
13053TIP3    H239101   1.728   2.150   5.553
13054TIP3   OH239102   2.973   5.412   0.121
13054TIP3    H139103   2.957   5.399   0.028
13054TIP3    H239104   2.887   5.434   0.157
13055TIP3   OH239105   5.496   5.878   4.975
13055TIP3    H139106   5.496   5.961   4.927
13055TIP3    H239107   5.513   5.904   5.066
13056TIP3   OH239108   5.278   5.156   2.469
13056TIP3    H139109   5.325   5.086   2.424
13056TIP3    H239110   5.320   5.236   2.437
13057TIP3   OH239111   2.210   0.713   2.948
13057TIP3    H139112   2.147   0.657   2.904
13057TIP3    H239113   2.294   0.667   2.938
13058TIP3   OH239114   2.225   2.595   4.421
13058TIP3    H139115   2.271   2.645   4.489
13058TIP3    H239116   2.238   2.504   4.445
13059TIP3   OH239117   1.382   5.540   2.250
13059TIP3    H139118   1.371   5.547   2.345
13059TIP3    H239119   1.318   5.474   2.223
13060TIP3   OH239120   6.450   0.429   5.257
13060TIP3    H139121   6.410   0.482   5.188
13060TIP3    H239122   6.432   0.339   5.232
13061TIP3   OH239123   1.391   6.405   5.570
13061TIP3    H139124   1.418   6.314   5.583
13061TIP3    H239125   1.380   6.440   5.658
13062TIP3   OH239126   0.078   3.744   3.060
13062TIP3    H139127   0.075   3.795   3.141
13062TIP3    H239128   0.108   3.805   2.993
13063TIP3   OH239129   3.837   4.205   2.115
13063TIP3    H139130   3.759   4.232   2.164
13063TIP3    H239131   3.861   4.283   2.064
13064TIP3   OH239132   6.882   2.324   4.393
13064TIP3    H139133   6.832   2.337   4.313
13064TIP3    H239134   6.965   2.368   4.377
13065TIP3   OH239135   4.264   7.270   3.907
13065TIP3    H139136   4.179   7.285   3.949
13065TIP3    H239137   4.327   7.312   3.965
13066TIP3   OH239138   0.879   7.088   5.685
13066TIP3    H139139   0.938   7.092   5.760
13066TIP3    H239140   0.934   7.058   5.612
13067TIP3   OH239141   5.754   4.111   0.506
13067TIP3    H139142   5.811   4.140   0.576
13067TIP3    H239143   5.716   4.030   0.538
13068TIP3   OH239144   6.609   7.169   3.317
13068TIP3    H139145   6.678   7.230   3.343
13068TIP3    H239146   6.554   7.160   3.394
13069TIP3   OH239147   4.853   5.550   5.152
13069TIP3    H139148   4.841   5.643   5.172
13069TIP3    H239149   4.935   5.547   5.102
13070TIP3   OH239150   4.207   3.588   6.582
13070TIP3    H139151   4.274   3.570   6.647
13070TIP3    H239152   4.157   3.662   6.617
13071TIP3   OH239153   7.586   3.873   2.513
13071TIP3    H139154   7.575   3.801   2.576
13071TIP3    H239155   7.566   3.834   2.428
13072TIP3   OH239156   0.694   4.314   4.669
13072TIP3    H139157   0.642   4.382   4.712
13072TIP3    H239158   0.783   4.348   4.669
13073TIP3   OH239159   0.891   5.018   3.104
13073TIP3    H139160   0.929   4.947   3.155
13073TIP3    H239161   0.876   5.088   3.168
13074TIP3   OH239162   3.827   2.807   3.192
13074TIP3    H139163   3.886   2.878   3.167
13074TIP3    H239164   3.739   2.840   3.174
13075TIP3   OH239165   6.867   0.997   5.873
13075TIP3    H139166   6.777   1.006   5.842
13075TIP3    H239167   6.908   0.939   5.809
13076TIP3   OH239168   1.206   5.154   4.395
13076TIP3    H139169   1.221   5.164   4.489
13076TIP3    H239170   1.290   5.177   4.355
13077TIP3   OH239171   1.898   4.685   6.011
13077TIP3    H139172   1.987   4.664   6.040
13077TIP3    H239173   1.865   4.602   5.976
13078TIP3   OH239174   4.330   7.025   6.428
13078TIP3    H139175   4.240   6.995   6.430
13078TIP3    H239176   4.376   6.961   6.373
13079TIP3   OH239177   3.790   2.853   0.124
13079TIP3    H139178   3.814   2.923   0.185
13079TIP3    H239179   3.811   2.773   0.171
13080TIP3   OH239180   7.654   1.017   1.973
13080TIP3    H139181   7.655   1.111   1.991
13080TIP3    H239182   7.587   1.007   1.905
13081TIP3   OH239183   6.155   1.028   6.722
13081TIP3    H139184   6.214   1.033   6.798
13081TIP3    H239185   6.086   1.092   6.741
13082TIP3   OH239186   3.201   2.972   6.135
13082TIP3    H139187   3.136   3.032   6.174
13082TIP3    H239188   3.184   2.977   6.041
13083TIP3   OH239189   0.271   5.014   5.901
13083TIP3    H139190   0.242   4.925   5.882
13083TIP3    H239191   0.273   5.057   5.815
13084TIP3   OH239192   5.147   1.162   4.549
13084TIP3    H139193   5.168   1.146   4.457
13084TIP3    H239194   5.085   1.235   4.547
13085TIP3   OH239195   0.176   0.804   2.382
13085TIP3    H139196   0.253   0.846   2.343
13085TIP3    H239197   0.140   0.870   2.441
13086TIP3   OH239198   6.901   5.865   4.189
13086TIP3    H139199   6.942   5.947   4.216
13086TIP3    H239200   6.858   5.832   4.268
13087TIP3   OH239201   2.512   5.615   2.213
13087TIP3    H139202   2.511   5.649   2.303
13087TIP3    H239203   2.474   5.684   2.160
13088TIP3   OH239204   0.527   6.992   4.526
13088TIP3    H139205   0.474   6.913   4.539
13088TIP3    H239206   0.536   6.999   4.431
13089TIP3   OH239207   8.313   1.677   2.004
13089TIP3    H139208   8.355   1.622   2.071
13089TIP3    H239209   8.353   1.649   1.922
13090TIP3   OH239210   5.922   5.166   6.659
13090TIP3    H139211   5.837   5.150   6.618
13090TIP3    H239212   5.937   5.260   6.645
13091TIP3   OH239213   7.948   6.020   3.414
13091TIP3    H139214   8.030   6.054   3.379
13091TIP3    H239215   7.914   5.964   3.344
13092TIP3   OH239216   7.719   3.002   4.404
13092TIP3    H139217   7.639   2.993   4.457
13092TIP3    H239218   7.773   3.063   4.454
13093TIP3   OH239219   4.882   5.535   6.366
13093TIP3    H139220   4.891   5.608   6.427
13093TIP3    H239221   4.798   5.551   6.322
13094TIP3   OH239222   2.967   1.421   1.986
13094TIP3    H139223   2.874   1.396   1.984
13094TIP3    H239224   2.980   1.467   1.902
13095TIP3   OH239225   7.575   0.639   5.212
13095TIP3    H139226   7.615   0.560   5.176
13095TIP3    H239227   7.482   0.631   5.192
13096TIP3   OH239228   0.259   4.749   5.858
13096TIP3    H139229   0.345   4.718   5.884
13096TIP3    H239230   0.198   4.700   5.914
13097TIP3   OH239231   4.113   7.524   4.769
13097TIP3    H139232   4.018   7.512   4.771
13097TIP3    H239233   4.144   7.484   4.851
13098TIP3   OH239234   0.609   4.747   5.601
13098TIP3    H139235   0.531   4.733   5.548
13098TIP3    H239236   0.674   4.687   5.565
13099TIP3   OH239237   6.041   5.072   2.530
13099TIP3    H139238   6.122   5.021   2.533
13099TIP3    H239239   5.977   5.014   2.488
13100TIP3   OH239240   8.056   7.163   0.488
13100TIP3    H139241   8.024   7.244   0.530
13100TIP3    H239242   7.977   7.122   0.453
13101TIP3   OH239243   1.260   1.239   0.213
13101TIP3    H139244   1.194   1.305   0.194
13101TIP3    H239245   1.236   1.203   0.298
13102TIP3   OH239246   3.357   5.690   6.236
13102TIP3    H139247   3.320   5.606   6.263
13102TIP3    H239248   3.374   5.680   6.142
13103TIP3   OH239249   6.795   0.297   2.798
13103TIP3    H139250   6.816   0.206   2.781
13103TIP3    H239251   6.844   0.346   2.731
13104TIP3   OH239252   4.726   0.672   4.889
13104TIP3    H139253   4.740   0.708   4.977
13104TIP3    H239254   4.693   0.746   4.838
13105TIP3   OH239255   1.335   4.887   3.746
13105TIP3    H139256   1.356   4.956   3.808
13105TIP3    H239257   1.384   4.811   3.778
13106TIP3   OH239258   6.635   4.510   4.274
13106TIP3    H139259   6.721   4.490   4.239
13106TIP3    H239260   6.592   4.425   4.283
13107TIP3   OH239261   1.468   2.355   1.573
13107TIP3    H139262   1.488   2.419   1.504
13107TIP3    H239263   1.483   2.403   1.655
13108TIP3   OH239264   2.012   6.253   2.595
13108TIP3    H139265   1.992   6.299   2.676
13108TIP3    H239266   2.077   6.309   2.551
13109TIP3   OH239267   0.432   7.739   5.616
13109TIP3    H139268   0.424   7.713   5.708
13109TIP3    H239269   0.435   7.656   5.569
13110TIP3   OH239270   4.244   4.829   0.393
13110TIP3    H139271   4.165   4.781   0.416
13110TIP3    H239272   4.291   4.840   0.476
13111TIP3   OH239273   5.717   7.562   3.213
13111TIP3    H139274   5.704   7.655   3.233
13111TIP3    H239275   5.640   7.537   3.162
13112TIP3   OH239276   8.266   0.566   5.673
13112TIP3    H139277   8.255   0.648   5.625
13112TIP3    H239278   8.252   0.498   5.607
13113TIP3   OH239279   0.821   1.684   3.769
13113TIP3    H139280   0.755   1.751   3.753
13113TIP3    H239281   0.806   1.657   3.860
13114TIP3   OH239282   0.303   0.303   5.794
13114TIP3    H139283   0.325   0.303   5.701
13114TIP3    H239284   0.299   0.211   5.818
13115TIP3   OH239285   1.428   1.771   4.030
13115TIP3    H139286   1.523   1.784   4.031
13115TIP3    H239287   1.416   1.678   4.051
13116TIP3   OH239288   7.124   0.106   1.460
13116TIP3    H139289   7.033   0.081   1.443
13116TIP3    H239290   7.132   0.194   1.424
13117TIP3   OH239291   6.982   0.520   6.765
13117TIP3    H139292   6.994   0.586   6.834
13117TIP3    H239293   7.056   0.461   6.775
13118TIP3   OH239294   1.638   7.344   1.058
13118TIP3    H139295   1.552   7.316   1.089
13118TIP3    H239296   1.627   7.437   1.038
13119TIP3   OH239297   5.737   7.108   3.086
13119TIP3    H139298   5.776   7.041   3.029
13119TIP3    H239299   5.669   7.149   3.032
13120TIP3   OH239300   4.364   0.665   1.379
13120TIP3    H139301   4.369   0.576   1.346
13120TIP3    H239302   4.430   0.669   1.448
13121TIP3   OH239303   3.351   4.575   0.993
13121TIP3    H139304   3.270   4.571   1.045
13121TIP3    H239305   3.418   4.602   1.056
13122TIP3   OH239306   5.611   1.884   6.317
13122TIP3    H139307   5.543   1.950   6.304
13122TIP3    H239308   5.667   1.921   6.386
13123TIP3   OH239309   6.451   4.715   2.406
13123TIP3    H139310   6.389   4.646   2.427
13123TIP3    H239311   6.519   4.708   2.473
13124TIP3   OH239312   8.085   6.992   6.735
13124TIP3    H139313   7.997   7.025   6.755
13124TIP3    H239314   8.144   7.059   6.770
13125TIP3   OH239315   3.074   5.393   3.619
13125TIP3    H139316   3.007   5.452   3.585
13125TIP3    H239317   3.097   5.337   3.545
13126TIP3   OH239318   4.090   2.744   5.182
13126TIP3    H139319   4.104   2.694   5.262
13126TIP3    H239320   3.995   2.756   5.178
13127TIP3   OH239321   8.142   3.879   5.766
13127TIP3    H139322   8.180   3.893   5.680
13127TIP3    H239323   8.151   3.785   5.782
13128TIP3   OH239324   3.997   0.676   2.062
13128TIP3    H139325   3.903   0.691   2.068
13128TIP3    H239326   4.010   0.589   2.102
13129TIP3   OH239327   3.359   6.201   0.585
13129TIP3    H139328   3.357   6.113   0.622
13129TIP3    H239329   3.428   6.246   0.634
13130TIP3   OH239330   0.384   0.909   4.347
13130TIP3    H139331   0.476   0.890   4.365
13130TIP3    H239332   0.349   0.941   4.430
13131TIP3   OH239333   4.208   1.296   5.755
13131TIP3    H139334   4.286   1.315   5.703
13131TIP3    H239335   4.230   1.326   5.843
13132TIP3   OH239336   4.870   4.229   2.079
13132TIP3    H139337   4.876   4.175   2.158
13132TIP3    H239338   4.917   4.178   2.012
13133TIP3   OH239339   0.660   2.254   0.702
13133TIP3    H139340   0.626   2.175   0.658
13133TIP3    H239341   0.585   2.288   0.750
13134TIP3   OH239342   3.392   0.402   2.608
13134TIP3    H139343   3.463   0.434   2.663
13134TIP3    H239344   3.407   0.308   2.601
13135TIP3   OH239345   1.706   5.946   0.737
13135TIP3    H139346   1.623   5.982   0.768
13135TIP3    H239347   1.766   6.021   0.735
13136TIP3   OH239348   8.265   0.361   4.337
13136TIP3    H139349   8.277   0.312   4.256
13136TIP3    H239350   8.228   0.297   4.398
13137TIP3   OH239351   1.547   0.075   0.086
13137TIP3    H139352   1.592   0.088   0.170
13137TIP3    H239353   1.456   0.098   0.104
13138TIP3   OH239354   1.689   4.807   2.193
13138TIP3    H139355   1.660   4.720   2.165
13138TIP3    H239356   1.780   4.813   2.164
13139TIP3   OH239357   7.888   1.178   2.174
13139TIP3    H139358   7.895   1.274   2.179
13139TIP3    H239359   7.793   1.162   2.170
13140TIP3   OH239360   5.053   0.508   2.049
13140TIP3    H139361   5.068   0.458   2.129
13140TIP3    H239362   4.960   0.530   2.051
13141TIP3   OH239363   6.526   7.824   4.264
13141TIP3    H139364   6.599   7.856   4.212
13141TIP3    H239365   6.531   7.728   4.257
13142TIP3   OH239366   3.404   2.799   4.966
13142TIP3    H139367   3.371   2.720   4.923
13142TIP3    H239368   3.491   2.773   4.998
13143TIP3   OH239369   7.850   7.864   6.788
13143TIP3    H139370   7.763   7.871   6.750
13143TIP3    H239371   7.884   7.954   6.789
13144TIP3   OH239372   3.133   5.540   5.197
13144TIP3    H139373   3.078   5.615   5.175
13144TIP3    H239374   3.074   5.477   5.239
13145TIP3   OH239375   6.508   7.154   1.353
13145TIP3    H139376   6.562   7.124   1.280
13145TIP3    H239377   6.502   7.078   1.411
13146TIP3   OH239378   4.924   4.165   0.235
13146TIP3    H139379   4.952   4.089   0.286
13146TIP3    H239380   4.830   4.170   0.248
13147TIP3   OH239381   7.498   7.503   3.483
13147TIP3    H139382   7.493   7.438   3.413
13147TIP3    H239383   7.576   7.554   3.463
13148TIP3   OH239384   4.001   3.447   6.425
13148TIP3    H139385   4.002   3.357   6.455
13148TIP3    H239386   4.066   3.492   6.479
13149TIP3   OH239387   3.040   4.627   2.797
13149TIP3    H139388   3.062   4.698   2.857
13149TIP3    H239389   3.006   4.558   2.853
13150TIP3   OH239390   1.361   6.279   5.237
13150TIP3    H139391   1.374   6.355   5.180
13150TIP3    H239392   1.384   6.312   5.325
13151TIP3   OH239393   0.238   3.026   6.711
13151TIP3    H139394   0.189   2.944   6.702
13151TIP3    H239395   0.171   3.091   6.732
13152TIP3   OH239396   5.363   0.465   2.432
13152TIP3    H139397   5.350   0.418   2.349
13152TIP3    H239398   5.315   0.547   2.421
13153TIP3   OH239399   0.768   6.999   6.649
13153TIP3    H139400   0.846   7.020   6.598
13153TIP3    H239401   0.761   7.069   6.713
13154TIP3   OH239402   1.003   4.310   6.323
13154TIP3    H139403   0.971   4.238   6.269
13154TIP3    H239404   1.070   4.353   6.269
13155TIP3   OH239405   3.059   0.060   4.840
13155TIP3    H139406   3.024   0.147   4.862
13155TIP3    H239407   3.064   0.061   4.744
13156TIP3   OH239408   5.772   0.570   6.341
13156TIP3    H139409   5.845   0.618   6.380
13156TIP3    H239410   5.706   0.637   6.323
13157TIP3   OH239411   0.998   6.849   4.187
13157TIP3    H139412   0.980   6.916   4.122
13157TIP3    H239413   0.956   6.880   4.267
13158TIP3   OH239414   7.480   2.198   3.531
13158TIP3    H139415   7.483   2.274   3.589
13158TIP3    H239416   7.558   2.207   3.476
13159TIP3   OH239417   4.214   1.243   6.040
13159TIP3    H139418   4.145   1.184   6.009
13159TIP3    H239419   4.174   1.330   6.040
13160TIP3   OH239420   8.255   6.940   0.440
13160TIP3    H139421   8.201   6.962   0.517
13160TIP3    H239422   8.309   6.867   0.469
13161TIP3   OH239423   4.768   6.379   6.648
13161TIP3    H139424   4.681   6.392   6.686
13161TIP3    H239425   4.752   6.332   6.566
13162TIP3   OH239426   3.508   5.547   6.762
13162TIP3    H139427   3.537   5.457   6.748
13162TIP3    H239428   3.416   5.538   6.788
13163TIP3   OH239429   8.273   7.680   5.065
13163TIP3    H139430   8.286   7.597   5.111
13163TIP3    H239431   8.179   7.695   5.071
13164TIP3   OH239432   2.230   3.858   5.607
13164TIP3    H139433   2.207   3.941   5.565
13164TIP3    H239434   2.292   3.881   5.675
13165TIP3   OH239435   7.353   6.695   0.498
13165TIP3    H139436   7.374   6.637   0.425
13165TIP3    H239437   7.270   6.663   0.532
13166TIP3   OH239438   6.386   3.081   2.857
13166TIP3    H139439   6.475   3.049   2.843
13166TIP3    H239440   6.395   3.148   2.925
13167TIP3   OH239441   2.871   0.485   1.153
13167TIP3    H139442   2.834   0.562   1.110
13167TIP3    H239443   2.819   0.412   1.122
13168TIP3   OH239444   1.539   3.837   2.312
13168TIP3    H139445   1.597   3.871   2.244
13168TIP3    H239446   1.467   3.797   2.263
13169TIP3   OH239447   1.788   6.346   1.351
13169TIP3    H139448   1.759   6.358   1.261
13169TIP3    H239449   1.774   6.431   1.393
13170TIP3   OH239450   6.607   2.188   0.985
13170TIP3    H139451   6.567   2.256   0.931
13170TIP3    H239452   6.533   2.147   1.030
13171TIP3   OH239453   2.757   7.103   3.356
13171TIP3    H139454   2.772   7.168   3.287
13171TIP3    H239455   2.703   7.036   3.314
13172TIP3   OH239456   4.775   4.783   6.131
13172TIP3    H139457   4.766   4.855   6.068
13172TIP3    H239458   4.854   4.805   6.181
13173TIP3   OH239459   1.515   1.032   0.472
13173TIP3    H139460   1.435   1.068   0.432
13173TIP3    H239461   1.540   1.096   0.538
13174TIP3   OH239462   7.782   1.275   0.810
13174TIP3    H139463   7.847   1.301   0.744
13174TIP3    H239464   7.700   1.314   0.779
13175TIP3   OH239465   5.915   7.410   5.188
13175TIP3    H139466   5.970   7.387   5.114
13175TIP3    H239467   5.862   7.484   5.157
13176TIP3   OH239468   2.931   6.024   3.279
13176TIP3    H139469   2.889   5.946   3.244
13176TIP3    H239470   2.883   6.043   3.359
13177TIP3   OH239471   6.727   4.897   6.209
13177TIP3    H139472   6.672   4.843   6.266
13177TIP3    H239473   6.701   4.987   6.229
13178TIP3   OH239474   2.304   7.594   5.866
13178TIP3    H139475   2.381   7.603   5.922
13178TIP3    H239476   2.262   7.513   5.895
13179TIP3   OH239477   3.688   3.153   6.396
13179TIP3    H139478   3.765   3.118   6.352
13179TIP3    H239479   3.632   3.076   6.412
13180TIP3   OH239480   0.095   5.437   1.377
13180TIP3    H139481   0.024   5.487   1.336
13180TIP3    H239482   0.066   5.346   1.374
13181TIP3   OH239483   6.169   0.698   5.406
13181TIP3    H139484   6.220   0.776   5.386
13181TIP3    H239485   6.161   0.653   5.322
13182TIP3   OH239486   3.275   3.390   6.234
13182TIP3    H139487   3.190   3.359   6.204
13182TIP3    H239488   3.255   3.459   6.298
13183TIP3   OH239489   2.274   0.026   1.677
13183TIP3    H139490   2.325  -0.049   1.644
13183TIP3    H239491   2.185  -0.008   1.688
13184TIP3   OH239492   6.206   5.877   3.119
13184TIP3    H139493   6.267   5.805   3.101
13184TIP3    H239494   6.231   5.909   3.206
13185TIP3   OH239495   3.707   7.422   0.862
13185TIP3    H139496   3.715   7.340   0.813
13185TIP3    H239497   3.764   7.410   0.938
13186TIP3   OH239498   5.433   7.802   5.024
13186TIP3    H139499   5.388   7.886   5.033
13186TIP3    H239500   5.421   7.777   4.933
13187TIP3   OH239501   2.414   5.854   0.199
13187TIP3    H139502   2.445   5.770   0.166
13187TIP3    H239503   2.415   5.912   0.123
13188TIP3   OH239504   4.055   0.601   3.505
13188TIP3    H139505   4.031   0.646   3.586
13188TIP3    H239506   3.983   0.540   3.489
13189TIP3   OH239507   5.117   6.337   2.474
13189TIP3    H139508   5.082   6.248   2.481
13189TIP3    H239509   5.159   6.353   2.559
13190TIP3   OH239510   1.100   0.341   2.994
13190TIP3    H139511   1.183   0.332   3.039
13190TIP3    H239512   1.066   0.251   2.988
13191TIP3   OH239513   7.993   1.478   5.420
13191TIP3    H139514   8.071   1.423   5.428
13191TIP3    H239515   7.979   1.486   5.326
13192TIP3   OH239516   8.180   5.433   4.901
13192TIP3    H139517   8.258   5.469   4.860
13192TIP3    H239518   8.208   5.347   4.934
13193TIP3   OH239519   3.104   4.057   1.049
13193TIP3    H139520   3.170   4.011   1.101
13193TIP3    H239521   3.052   3.987   1.009
13194TIP3   OH239522   4.909   2.225   5.724
13194TIP3    H139523   4.935   2.242   5.815
13194TIP3    H239524   4.819   2.195   5.730
13195TIP3   OH239525   5.792   6.256   4.688
13195TIP3    H139526   5.850   6.325   4.655
13195TIP3    H239527   5.704   6.293   4.680
13196TIP3   OH239528   8.388   1.578   1.759
13196TIP3    H139529   8.451   1.591   1.688
13196TIP3    H239530   8.371   1.484   1.761
13197TIP3   OH239531   0.305   0.362   2.802
13197TIP3    H139532   0.277   0.353   2.893
13197TIP3    H239533   0.384   0.309   2.795
13198TIP3   OH239534   5.039   0.911   6.037
13198TIP3    H139535   5.079   0.851   6.099
13198TIP3    H239536   4.955   0.870   6.014
13199TIP3   OH239537   5.653   4.699   3.574
13199TIP3    H139538   5.727   4.702   3.636
13199TIP3    H239539   5.626   4.790   3.565
13200TIP3   OH239540   4.164   6.175   5.385
13200TIP3    H139541   4.153   6.210   5.473
13200TIP3    H239542   4.231   6.230   5.345
13201TIP3   OH239543   7.621   1.817   5.988
13201TIP3    H139544   7.690   1.786   5.930
13201TIP3    H239545   7.572   1.881   5.936
13202TIP3   OH239546   5.931   0.196   3.617
13202TIP3    H139547   6.021   0.226   3.625
13202TIP3    H239548   5.896   0.243   3.541
13203TIP3   OH239549   1.770   1.632   4.455
13203TIP3    H139550   1.717   1.624   4.375
13203TIP3    H239551   1.848   1.681   4.427
13204TIP3   OH239552   2.484   5.047   6.635
13204TIP3    H139553   2.526   5.054   6.721
13204TIP3    H239554   2.504   5.130   6.592
13205TIP3   OH239555   4.567   6.042   4.797
13205TIP3    H139556   4.515   5.967   4.827
13205TIP3    H239557   4.626   6.061   4.870
13206TIP3   OH239558   6.569   0.449   2.788
13206TIP3    H139559   6.624   0.371   2.794
13206TIP3    H239560   6.603   0.497   2.713
13207TIP3   OH239561   1.830   6.782   5.004
13207TIP3    H139562   1.788   6.855   4.957
13207TIP3    H239563   1.770   6.762   5.076
13208TIP3   OH239564   1.561   3.823   5.230
13208TIP3    H139565   1.520   3.908   5.217
13208TIP3    H239566   1.488   3.763   5.242
13209TIP3   OH239567   6.932   0.552   2.825
13209TIP3    H139568   6.964   0.622   2.882
13209TIP3    H239569   6.873   0.501   2.881
13210TIP3   OH239570   7.301   4.385   5.432
13210TIP3    H139571   7.357   4.309   5.420
13210TIP3    H239572   7.212   4.352   5.421
13211TIP3   OH239573   7.071   7.905   3.342
13211TIP3    H139574   6.983   7.871   3.359
13211TIP3    H239575   7.075   7.989   3.387
13212TIP3   OH239576   5.014   7.416   2.892
13212TIP3    H139577   4.958   7.396   2.817
13212TIP3    H239578   4.974   7.368   2.965
13213TIP3   OH239579   0.349   3.471   0.383
13213TIP3    H139580   0.303   3.553   0.362
13213TIP3    H239581   0.333   3.415   0.308
13214TIP3   OH239582   0.929   6.682   3.740
13214TIP3    H139583   0.930   6.588   3.722
13214TIP3    H239584   0.927   6.689   3.835
13215TIP3   OH239585   7.659   2.448   6.558
13215TIP3    H139586   7.639   2.384   6.626
13215TIP3    H239587   7.632   2.405   6.476
13216TIP3   OH239588   0.982   5.397   0.911
13216TIP3    H139589   0.946   5.464   0.852
13216TIP3    H239590   0.973   5.315   0.862
13217TIP3   OH239591   0.985   2.023   5.184
13217TIP3    H139592   0.912   1.982   5.230
13217TIP3    H239593   1.062   1.971   5.210
13218TIP3   OH239594   1.398   5.859   5.742
13218TIP3    H139595   1.390   5.821   5.829
13218TIP3    H239596   1.488   5.839   5.715
13219TIP3   OH239597   5.183   0.536   6.642
13219TIP3    H139598   5.161   0.614   6.591
13219TIP3    H239599   5.118   0.534   6.712
13220TIP3   OH239600   4.921   5.910   5.851
13220TIP3    H139601   4.912   5.990   5.800
13220TIP3    H239602   4.982   5.857   5.801
13221TIP3   OH239603   7.151   6.455   4.152
13221TIP3    H139604   7.057   6.445   4.165
13221TIP3    H239605   7.160   6.480   4.060
13222TIP3   OH239606   6.644   6.347   2.777
13222TIP3    H139607   6.672   6.425   2.728
13222TIP3    H239608   6.724   6.314   2.817
13223TIP3   OH239609   0.852   6.928   4.927
13223TIP3    H139610   0.834   6.995   4.862
13223TIP3    H239611   0.912   6.970   4.989
13224TIP3   OH239612   6.085   2.394   0.079
13224TIP3    H139613   6.134   2.316   0.052
13224TIP3    H239614   6.144   2.467   0.062
13225TIP3   OH239615   3.090   2.823   5.793
13225TIP3    H139616   3.110   2.735   5.760
13225TIP3    H239617   3.137   2.881   5.734
13226TIP3   OH239618   7.644   3.228   2.009
13226TIP3    H139619   7.715   3.203   2.069
13226TIP3    H239620   7.564   3.214   2.060
13227TIP3   OH239621   4.200   1.990   0.583
13227TIP3    H139622   4.120   2.014   0.630
13227TIP3    H239623   4.270   2.004   0.647
13228TIP3   OH239624   3.211   7.770   2.722
13228TIP3    H139625   3.139   7.724   2.763
13228TIP3    H239626   3.183   7.862   2.718
13229TIP3   OH239627   8.368   3.904   3.383
13229TIP3    H139628   8.383   3.970   3.315
13229TIP3    H239629   8.292   3.935   3.431
13230TIP3   OH239630   1.513   3.190   4.705
13230TIP3    H139631   1.572   3.257   4.739
13230TIP3    H239632   1.460   3.164   4.780
13231TIP3   OH239633   7.532   1.882   1.645
13231TIP3    H139634   7.626   1.866   1.643
13231TIP3    H239635   7.522   1.973   1.616
13232TIP3   OH239636   6.734   3.368   3.087
13232TIP3    H139637   6.644   3.399   3.099
13232TIP3    H239638   6.787   3.448   3.089
13233TIP3   OH239639   4.029   1.961   3.529
13233TIP3    H139640   4.054   2.002   3.446
13233TIP3    H239641   3.965   1.895   3.505
13234TIP3   OH239642   5.048   4.561   6.561
13234TIP3    H139643   5.083   4.583   6.648
13234TIP3    H239644   5.026   4.646   6.522
13235TIP3   OH239645   2.344   6.522   5.338
13235TIP3    H139646   2.402   6.519   5.414
13235TIP3    H239647   2.301   6.436   5.337
13236TIP3   OH239648   8.138   5.293   6.087
13236TIP3    H139649   8.102   5.333   6.166
13236TIP3    H239650   8.151   5.201   6.111
13237TIP3   OH239651   1.244   4.580   0.745
13237TIP3    H139652   1.194   4.527   0.807
13237TIP3    H239653   1.335   4.565   0.770
13238TIP3   OH239654   1.258   1.167   5.220
13238TIP3    H139655   1.220   1.194   5.136
13238TIP3    H239656   1.302   1.245   5.253
13239TIP3   OH239657   7.388   1.547   4.598
13239TIP3    H139658   7.360   1.483   4.663
13239TIP3    H239659   7.483   1.548   4.605
13240TIP3   OH239660   4.457   2.332   4.353
13240TIP3    H139661   4.485   2.393   4.420
13240TIP3    H239662   4.535   2.281   4.332
13241TIP3   OH239663   7.701   1.454   5.557
13241TIP3    H139664   7.728   1.545   5.574
13241TIP3    H239665   7.630   1.438   5.619
13242TIP3   OH239666   3.743   0.525   1.181
13242TIP3    H139667   3.831   0.555   1.200
13242TIP3    H239668   3.697   0.531   1.265
13243TIP3   OH239669   3.329   5.209   0.506
13243TIP3    H139670   3.342   5.141   0.572
13243TIP3    H239671   3.367   5.288   0.546
13244TIP3   OH239672   3.463   5.236   1.217
13244TIP3    H139673   3.468   5.214   1.310
13244TIP3    H239674   3.504   5.322   1.211
13245TIP3   OH239675   7.595   6.161   4.055
13245TIP3    H139676   7.530   6.217   4.012
13245TIP3    H239677   7.554   6.075   4.060
13246TIP3   OH239678   5.852   4.141   5.543
13246TIP3    H139679   5.856   4.166   5.451
13246TIP3    H239680   5.770   4.179   5.575
13247TIP3   OH239681   2.302   1.338   2.112
13247TIP3    H139682   2.307   1.347   2.207
13247TIP3    H239683   2.238   1.403   2.084
13248TIP3   OH239684   6.410   2.663   1.828
13248TIP3    H139685   6.496   2.688   1.861
13248TIP3    H239686   6.424   2.646   1.735
13249TIP3   OH239687   7.618   1.877   3.245
13249TIP3    H139688   7.710   1.903   3.246
13249TIP3    H239689   7.618   1.788   3.212
13250TIP3   OH239690   2.018   1.769   0.456
13250TIP3    H139691   2.110   1.748   0.471
13250TIP3    H239692   1.998   1.732   0.370
13251TIP3   OH239693   8.226   0.556   2.106
13251TIP3    H139694   8.152   0.571   2.047
13251TIP3    H239695   8.250   0.465   2.091
13252TIP3   OH239696   1.793   6.985   5.868
13252TIP3    H139697   1.791   7.022   5.956
13252TIP3    H239698   1.875   7.016   5.830
13253TIP3   OH239699   6.940   7.725   5.040
13253TIP3    H139700   6.944   7.818   5.020
13253TIP3    H239701   6.847   7.703   5.034
13254TIP3   OH239702   3.155   5.482   1.222
13254TIP3    H139703   3.084   5.423   1.245
13254TIP3    H239704   3.205   5.492   1.303
13255TIP3   OH239705   1.887   2.603   3.601
13255TIP3    H139706   1.819   2.648   3.551
13255TIP3    H239707   1.882   2.643   3.688
13256TIP3   OH239708   1.399   2.324   6.495
13256TIP3    H139709   1.323   2.266   6.503
13256TIP3    H239710   1.449   2.306   6.575
13257TIP3   OH239711   7.550   2.376   3.090
13257TIP3    H139712   7.503   2.296   3.113
13257TIP3    H239713   7.489   2.426   3.036
13258TIP3   OH239714   6.514   1.387   4.939
13258TIP3    H139715   6.569   1.310   4.952
13258TIP3    H239716   6.445   1.358   4.880
13259TIP3   OH239717   1.001   5.366   2.244
13259TIP3    H139718   1.066   5.296   2.238
13259TIP3    H239719   1.034   5.433   2.184
13260TIP3   OH239720   3.162   4.401   1.545
13260TIP3    H139721   3.219   4.411   1.621
13260TIP3    H239722   3.132   4.311   1.549
13261TIP3   OH239723   4.424   0.397   1.330
13261TIP3    H139724   4.415   0.302   1.338
13261TIP3    H239725   4.508   0.416   1.372
13262TIP3   OH239726   6.775   6.613   2.061
13262TIP3    H139727   6.781   6.536   2.118
13262TIP3    H239728   6.789   6.687   2.120
13263TIP3   OH239729   5.015   4.558   2.768
13263TIP3    H139730   4.976   4.484   2.814
13263TIP3    H239731   4.948   4.587   2.706
13264TIP3   OH239732   1.022   6.641   0.851
13264TIP3    H139733   1.087   6.678   0.910
13264TIP3    H239734   0.945   6.625   0.907
13265TIP3   OH239735   3.227   7.831   1.741
13265TIP3    H139736   3.211   7.882   1.661
13265TIP3    H239737   3.320   7.845   1.759
13266TIP3   OH239738   5.652   5.627   4.448
13266TIP3    H139739   5.668   5.560   4.383
13266TIP3    H239740   5.572   5.671   4.419
13267TIP3   OH239741   2.315   1.227   0.442
13267TIP3    H139742   2.304   1.168   0.517
13267TIP3    H239743   2.227   1.261   0.426
13268TIP3   OH239744   8.407   5.697   1.001
13268TIP3    H139745   8.317   5.695   0.970
13268TIP3    H239746   8.429   5.790   1.004
13269TIP3   OH239747   6.471   0.413   4.121
13269TIP3    H139748   6.405   0.481   4.135
13269TIP3    H239749   6.553   0.454   4.149
13270TIP3   OH239750   5.284   7.945   3.022
13270TIP3    H139751   5.239   7.862   3.007
13270TIP3    H239752   5.250   7.975   3.106
13271TIP3   OH239753   7.355   2.850   1.704
13271TIP3    H139754   7.322   2.931   1.744
13271TIP3    H239755   7.451   2.861   1.705
13272TIP3   OH239756   4.449   4.428   0.850
13272TIP3    H139757   4.504   4.434   0.773
13272TIP3    H239758   4.472   4.345   0.890
13273TIP3   OH239759   3.345   0.895   5.967
13273TIP3    H139760   3.282   0.867   5.902
13273TIP3    H239761   3.430   0.869   5.931
13274TIP3   OH239762   5.296   5.180   5.946
13274TIP3    H139763   5.369   5.122   5.923
13274TIP3    H239764   5.226   5.155   5.886
13275TIP3   OH239765   1.385   1.403   5.248
13275TIP3    H139766   1.478   1.427   5.249
13275TIP3    H239767   1.352   1.437   5.165
13276TIP3   OH239768   4.670   6.370   3.807
13276TIP3    H139769   4.641   6.311   3.877
13276TIP3    H239770   4.756   6.335   3.780
13277TIP3   OH239771   6.452   1.954   6.219
13277TIP3    H139772   6.525   1.978   6.161
13277TIP3    H239773   6.494   1.931   6.302
13278TIP3   OH239774   6.809   0.411   3.039
13278TIP3    H139775   6.797   0.374   2.952
13278TIP3    H239776   6.806   0.336   3.098
13279TIP3   OH239777   0.379   2.494   4.497
13279TIP3    H139778   0.302   2.477   4.550
13279TIP3    H239779   0.432   2.414   4.505
13280TIP3   OH239780   4.006   4.510   0.353
13280TIP3    H139781   3.939   4.445   0.373
13280TIP3    H239782   4.026   4.497   0.260
13281TIP3   OH239783   2.234   5.916   2.831
13281TIP3    H139784   2.275   5.921   2.918
13281TIP3    H239785   2.305   5.934   2.770
13282TIP3   OH239786   0.430   3.098   0.641
13282TIP3    H139787   0.408   3.005   0.642
13282TIP3    H239788   0.360   3.140   0.691
13283TIP3   OH239789   5.315   7.668   4.788
13283TIP3    H139790   5.255   7.741   4.773
13283TIP3    H239791   5.347   7.645   4.700
13284TIP3   OH239792   6.824   6.924   5.438
13284TIP3    H139793   6.849   6.966   5.521
13284TIP3    H239794   6.842   6.831   5.452
13285TIP3   OH239795   3.714   4.573   3.781
13285TIP3    H139796   3.672   4.590   3.697
13285TIP3    H239797   3.640   4.561   3.842
13286TIP3   OH239798   3.840   3.941   6.818
13286TIP3    H139799   3.806   3.990   6.894
13286TIP3    H239800   3.872   4.009   6.759
13287TIP3   OH239801   1.025   2.275   2.692
13287TIP3    H139802   1.083   2.280   2.767
13287TIP3    H239803   1.012   2.181   2.678
13288TIP3   OH239804   0.601   1.955   4.679
13288TIP3    H139805   0.525   2.013   4.688
13288TIP3    H239806   0.653   1.972   4.758
13289TIP3   OH239807   2.536   4.065   2.235
13289TIP3    H139808   2.442   4.069   2.220
13289TIP3    H239809   2.564   3.986   2.187
13290TIP3   OH239810   0.433   1.286   2.381
13290TIP3    H139811   0.423   1.381   2.374
13290TIP3    H239812   0.403   1.265   2.469
13291TIP3   OH239813   0.574   1.018   2.622
13291TIP3    H139814   0.635   0.974   2.682
13291TIP3    H239815   0.522   0.947   2.584
13292TIP3   OH239816   5.896   4.247   3.661
13292TIP3    H139817   5.978   4.289   3.636
13292TIP3    H239818   5.872   4.289   3.744
13293TIP3   OH239819   5.825   3.802   6.273
13293TIP3    H139820   5.803   3.883   6.319
13293TIP3    H239821   5.763   3.737   6.308
13294TIP3   OH239822   6.280   3.239   5.580
13294TIP3    H139823   6.337   3.212   5.508
13294TIP3    H239824   6.194   3.205   5.558
13295TIP3   OH239825   8.254   7.706   6.609
13295TIP3    H139826   8.161   7.730   6.604
13295TIP3    H239827   8.285   7.747   6.689
13296TIP3   OH239828   2.450   3.447   4.612
13296TIP3    H139829   2.498   3.482   4.687
13296TIP3    H239830   2.516   3.401   4.560
13297TIP3   OH239831   0.395   2.479   6.429
13297TIP3    H139832   0.314   2.480   6.378
13297TIP3    H239833   0.403   2.569   6.462
13298TIP3   OH239834   5.660   3.899   4.580
13298TIP3    H139835   5.597   3.946   4.527
13298TIP3    H239836   5.741   3.901   4.529
13299TIP3   OH239837   4.430   3.865   6.384
13299TIP3    H139838   4.446   3.889   6.293
13299TIP3    H239839   4.512   3.887   6.430
13300TIP3   OH239840   7.126   1.152   6.747
13300TIP3    H139841   7.189   1.170   6.817
13300TIP3    H239842   7.144   1.062   6.721
13301TIP3   OH239843   0.095   3.413   1.992
13301TIP3    H139844   0.076   3.319   1.984
13301TIP3    H239845   0.190   3.419   1.982
13302TIP3   OH239846   7.910   2.638   3.039
13302TIP3    H139847   7.954   2.722   3.047
13302TIP3    H239848   7.868   2.625   3.124
13303TIP3   OH239849   3.163   7.024   2.765
13303TIP3    H139850   3.172   7.114   2.797
13303TIP3    H239851   3.069   7.012   2.754
13304TIP3   OH239852   1.637   1.168   5.290
13304TIP3    H139853   1.569   1.102   5.276
13304TIP3    H239854   1.653   1.205   5.203
13305TIP3   OH239855   2.605   3.290   4.418
13305TIP3    H139856   2.653   3.224   4.469
13305TIP3    H239857   2.673   3.338   4.371
13306TIP3   OH239858   0.936   7.791   4.854
13306TIP3    H139859   0.913   7.868   4.802
13306TIP3    H239860   1.020   7.813   4.893
13307TIP3   OH239861   1.658   4.763   6.120
13307TIP3    H139862   1.719   4.708   6.071
13307TIP3    H239863   1.713   4.830   6.160
13308TIP3   OH239864   4.163   7.640   6.190
13308TIP3    H139865   4.239   7.613   6.138
13308TIP3    H239866   4.199   7.689   6.263
13309TIP3   OH239867   5.867   3.405   2.578
13309TIP3    H139868   5.939   3.363   2.532
13309TIP3    H239869   5.902   3.488   2.609
13310TIP3   OH239870   0.253   3.936   4.029
13310TIP3    H139871   0.289   4.025   4.029
13310TIP3    H239872   0.232   3.919   3.938
13311TIP3   OH239873   3.240   5.551   0.946
13311TIP3    H139874   3.222   5.525   1.036
13311TIP3    H239875   3.329   5.519   0.928
13312TIP3   OH239876   1.627   5.188   3.741
13312TIP3    H139877   1.626   5.126   3.668
13312TIP3    H239878   1.673   5.264   3.707
13313TIP3   OH239879   3.698   7.625   0.443
13313TIP3    H139880   3.714   7.587   0.356
13313TIP3    H239881   3.782   7.614   0.489
13314TIP3   OH239882   4.297   6.798   4.636
13314TIP3    H139883   4.310   6.809   4.730
13314TIP3    H239884   4.383   6.771   4.603
13315TIP3   OH239885   4.178   5.470   5.984
13315TIP3    H139886   4.170   5.390   5.932
13315TIP3    H239887   4.158   5.541   5.923
13316TIP3   OH239888   5.646   3.471   0.085
13316TIP3    H139889   5.638   3.548   0.029
13316TIP3    H239890   5.738   3.446   0.080
13317TIP3   OH239891   7.895   2.287   4.048
13317TIP3    H139892   7.969   2.259   3.994
13317TIP3    H239893   7.894   2.226   4.122
13318TIP3   OH239894   1.201   6.630   5.883
13318TIP3    H139895   1.268   6.563   5.871
13318TIP3    H239896   1.118   6.583   5.880
13319TIP3   OH239897   5.637   1.184   4.313
13319TIP3    H139898   5.629   1.127   4.236
13319TIP3    H239899   5.629   1.272   4.278
13320TIP3   OH239900   1.965   0.722   0.484
13320TIP3    H139901   1.902   0.776   0.532
13320TIP3    H239902   2.020   0.684   0.553
13321TIP3   OH239903   1.103   5.918   4.572
13321TIP3    H139904   1.178   5.914   4.631
13321TIP3    H239905   1.048   5.988   4.607
13322TIP3   OH239906   3.362   3.729   0.431
13322TIP3    H139907   3.348   3.652   0.375
13322TIP3    H239908   3.435   3.705   0.487
13323TIP3   OH239909   5.909   7.304   1.736
13323TIP3    H139910   5.820   7.313   1.703
13323TIP3    H239911   5.946   7.231   1.688
13324TIP3   OH239912   4.457   0.062   2.737
13324TIP3    H139913   4.535   0.105   2.702
13324TIP3    H239914   4.386   0.092   2.680
13325TIP3   OH239915   2.026   7.771   2.117
13325TIP3    H139916   1.944   7.730   2.142
13325TIP3    H239917   2.055   7.723   2.039
13326TIP3   OH239918   2.955   5.614   2.361
13326TIP3    H139919   2.872   5.598   2.406
13326TIP3    H239920   3.018   5.631   2.432
13327TIP3   OH239921   7.329   0.440   5.475
13327TIP3    H139922   7.287   0.357   5.456
13327TIP3    H239923   7.410   0.417   5.521
13328TIP3   OH239924   5.297   3.258   1.047
13328TIP3    H139925   5.333   3.208   0.974
13328TIP3    H239926   5.234   3.318   1.006
13329TIP3   OH239927   1.826   7.192   6.076
13329TIP3    H139928   1.809   7.267   6.133
13329TIP3    H239929   1.840   7.231   5.989
13330TIP3   OH239930   3.626   3.432   5.797
13330TIP3    H139931   3.615   3.462   5.887
13330TIP3    H239932   3.571   3.354   5.791
13331TIP3   OH239933   6.591   3.765   1.708
13331TIP3    H139934   6.501   3.789   1.729
13331TIP3    H239935   6.587   3.738   1.616
13332TIP3   OH239936   5.611   3.885   0.557
13332TIP3    H139937   5.656   3.801   0.561
13332TIP3    H239938   5.537   3.870   0.498
13333TIP3   OH239939   4.324   1.105   3.017
13333TIP3    H139940   4.244   1.139   2.977
13333TIP3    H239941   4.337   1.021   2.975
13334TIP3   OH239942   5.164   6.375   1.523
13334TIP3    H139943   5.191   6.411   1.438
13334TIP3    H239944   5.089   6.318   1.502
13335TIP3   OH239945   0.214   6.891   1.020
13335TIP3    H139946   0.240   6.828   0.953
13335TIP3    H239947   0.188   6.837   1.095
13336TIP3   OH239948   5.359   6.126   5.889
13336TIP3    H139949   5.267   6.138   5.913
13336TIP3    H239950   5.407   6.143   5.970
13337TIP3   OH239951   6.111   2.112   1.292
13337TIP3    H139952   6.185   2.059   1.264
13337TIP3    H239953   6.113   2.188   1.233
13338TIP3   OH239954   7.545   5.220   0.692
13338TIP3    H139955   7.496   5.152   0.645
13338TIP3    H239956   7.478   5.283   0.718
13339TIP3   OH239957   4.361   4.394   5.004
13339TIP3    H139958   4.424   4.389   4.931
13339TIP3    H239959   4.349   4.303   5.031
13340TIP3   OH239960   5.792   2.561   5.844
13340TIP3    H139961   5.840   2.534   5.922
13340TIP3    H239962   5.795   2.656   5.845
13341TIP3   OH239963   4.900   1.202   2.643
13341TIP3    H139964   4.975   1.255   2.671
13341TIP3    H239965   4.823   1.249   2.676
13342TIP3   OH239966   5.908   2.833   4.883
13342TIP3    H139967   5.976   2.825   4.951
13342TIP3    H239968   5.870   2.745   4.878
13343TIP3   OH239969   4.455   5.867   1.129
13343TIP3    H139970   4.438   5.869   1.035
13343TIP3    H239971   4.550   5.867   1.136
13344TIP3   OH239972   4.701   2.197   4.789
13344TIP3    H139973   4.732   2.286   4.810
13344TIP3    H239974   4.692   2.196   4.694
13345TIP3   OH239975   6.342   0.496   0.021
13345TIP3    H139976   6.354   0.413   0.067
13345TIP3    H239977   6.431   0.530   0.009
13346TIP3   OH239978   7.433   4.469   4.229
13346TIP3    H139979   7.360   4.458   4.290
13346TIP3    H239980   7.443   4.564   4.220
13347TIP3   OH239981   3.346   6.794   2.011
13347TIP3    H139982   3.391   6.743   2.079
13347TIP3    H239983   3.371   6.884   2.028
13348TIP3   OH239984   1.147   6.980   3.974
13348TIP3    H139985   1.158   7.061   4.023
13348TIP3    H239986   1.234   6.941   3.972
13349TIP3   OH239987   0.447   7.769   1.952
13349TIP3    H139988   0.512   7.762   1.881
13349TIP3    H239989   0.391   7.692   1.941
13350TIP3   OH239990   0.474   4.750   3.464
13350TIP3    H139991   0.472   4.793   3.378
13350TIP3    H239992   0.548   4.790   3.509
13351TIP3   OH239993   0.542   0.283   1.529
13351TIP3    H139994   0.516   0.309   1.440
13351TIP3    H239995   0.521   0.358   1.583
13352TIP3   OH239996   5.597   7.512   6.014
13352TIP3    H139997   5.587   7.422   5.983
13352TIP3    H239998   5.648   7.555   5.945
13353TIP3   OH239999   5.451   2.347   0.349
13353TIP3    H140000   5.397   2.276   0.383
13353TIP3    H240001   5.444   2.416   0.415
13354TIP3   OH240002   2.234   3.625   2.846
13354TIP3    H140003   2.293   3.673   2.788
13354TIP3    H240004   2.292   3.567   2.896
13355TIP3   OH240005   1.490   6.084   1.047
13355TIP3    H140006   1.426   6.151   1.022
13355TIP3    H240007   1.537   6.065   0.966
13356TIP3   OH240008   2.245   0.521   6.826
13356TIP3    H140009   2.165   0.541   6.874
13356TIP3    H240010   2.278   0.606   6.797
13357TIP3   OH240011   3.679   7.829   5.873
13357TIP3    H140012   3.633   7.912   5.879
13357TIP3    H240013   3.665   7.787   5.958
13358TIP3   OH240014   3.883   6.459   5.357
13358TIP3    H140015   3.853   6.402   5.428
13358TIP3    H240016   3.971   6.428   5.337
13359TIP3   OH240017   2.493   4.256   2.022
13359TIP3    H140018   2.404   4.279   2.048
13359TIP3    H240019   2.524   4.196   2.090
13360TIP3   OH240020   0.071   5.652   3.230
13360TIP3    H140021   0.078   5.719   3.161
13360TIP3    H240022   0.158   5.615   3.236
13361TIP3   OH240023   3.924   4.028   3.593
13361TIP3    H140024   3.881   4.026   3.679
13361TIP3    H240025   4.017   4.025   3.612
13362TIP3   OH240026   7.099   3.351   5.777
13362TIP3    H140027   7.085   3.445   5.794
13362TIP3    H240028   7.193   3.338   5.790
13363TIP3   OH240029   0.480   1.132   4.732
13363TIP3    H140030   0.540   1.196   4.695
13363TIP3    H240031   0.430   1.100   4.657
13364TIP3   OH240032   6.728   0.031   2.603
13364TIP3    H140033   6.737   0.000   2.693
13364TIP3    H240034   6.816   0.024   2.566
13365TIP3   OH240035   6.586   5.091   3.059
13365TIP3    H140036   6.523   5.067   2.991
13365TIP3    H240037   6.665   5.043   3.036
13366TIP3   OH240038   6.530   5.041   0.292
13366TIP3    H140039   6.492   5.099   0.359
13366TIP3    H240040   6.593   5.097   0.246
13367TIP3   OH240041   1.575   2.643   2.754
13367TIP3    H140042   1.596   2.556   2.787
13367TIP3    H240043   1.486   2.634   2.720
13368TIP3   OH240044   1.042   3.834   4.738
13368TIP3    H140045   1.038   3.928   4.720
13368TIP3    H240046   1.082   3.828   4.825
13369TIP3   OH240047   7.182   3.603   1.986
13369TIP3    H140048   7.205   3.582   1.895
13369TIP3    H240049   7.194   3.697   1.993
13370TIP3   OH240050   5.290   1.063   2.636
13370TIP3    H140051   5.290   1.140   2.693
13370TIP3    H240052   5.376   1.024   2.648
13371TIP3   OH240053   8.154   2.648   5.605
13371TIP3    H140054   8.131   2.643   5.698
13371TIP3    H240055   8.224   2.583   5.594
13372TIP3   OH240056   1.823   4.956   0.633
13372TIP3    H140057   1.901   5.004   0.606
13372TIP3    H240058   1.753   5.022   0.632
13373TIP3   OH240059   6.985   5.695   3.955
13373TIP3    H140060   6.946   5.754   4.019
13373TIP3    H240061   6.923   5.695   3.881
13374TIP3   OH240062   0.112   6.013   0.035
13374TIP3    H140063   0.176   6.055  -0.023
13374TIP3    H240064   0.165   5.971   0.103
13375TIP3   OH240065   7.552   1.643   2.512
13375TIP3    H140066   7.530   1.696   2.589
13375TIP3    H240067   7.535   1.553   2.539
13376TIP3   OH240068   4.865   4.638   1.360
13376TIP3    H140069   4.878   4.730   1.337
13376TIP3    H240070   4.787   4.612   1.310
13377TIP3   OH240071   2.062   1.154   4.384
13377TIP3    H140072   2.037   1.102   4.307
13377TIP3    H240073   2.025   1.241   4.366
13378TIP3   OH240074   8.025   7.717   1.601
13378TIP3    H140075   8.116   7.703   1.625
13378TIP3    H240076   7.981   7.636   1.626
13379TIP3   OH240077   8.357   0.978   1.947
13379TIP3    H140078   8.357   1.072   1.969
13379TIP3    H240079   8.268   0.949   1.966
13380TIP3   OH240080   0.839   0.699   5.570
13380TIP3    H140081   0.841   0.638   5.496
13380TIP3    H240082   0.780   0.658   5.634
13381TIP3   OH240083   2.406   3.129   1.787
13381TIP3    H140084   2.463   3.052   1.776
13381TIP3    H240085   2.408   3.172   1.701
13382TIP3   OH240086   7.368   3.022   3.710
13382TIP3    H140087   7.310   3.097   3.722
13382TIP3    H240088   7.400   3.002   3.798
13383TIP3   OH240089   6.614   6.720   0.350
13383TIP3    H140090   6.577   6.636   0.378
13383TIP3    H240091   6.583   6.783   0.416
13384TIP3   OH240092   2.002   6.836   6.711
13384TIP3    H140093   2.017   6.882   6.793
13384TIP3    H240094   1.906   6.831   6.704
13385TIP3   OH240095   8.098   1.104   1.200
13385TIP3    H140096   8.159   1.031   1.186
13385TIP3    H240097   8.131   1.148   1.278
13386TIP3   OH240098   5.555   2.139   0.750
13386TIP3    H140099   5.486   2.204   0.737
13386TIP3    H240100   5.553   2.086   0.671
13387TIP3   OH240101   2.656   7.263   5.422
13387TIP3    H140102   2.622   7.222   5.343
13387TIP3    H240103   2.671   7.189   5.482
13388TIP3   OH240104   7.894   4.366   2.366
13388TIP3    H140105   7.877   4.386   2.274
13388TIP3    H240106   7.937   4.280   2.365
13389TIP3   OH240107   5.771   0.385   0.413
13389TIP3    H140108   5.772   0.421   0.324
13389TIP3    H240109   5.858   0.406   0.448
13390TIP3   OH240110   4.485   7.275   2.198
13390TIP3    H140111   4.524   7.191   2.177
13390TIP3    H240112   4.402   7.254   2.240
13391TIP3   OH240113   2.453   2.953   4.944
13391TIP3    H140114   2.495   2.886   4.890
13391TIP3    H240115   2.374   2.977   4.896
13392TIP3   OH240116   4.116   2.643   5.439
13392TIP3    H140117   4.099   2.567   5.495
13392TIP3    H240118   4.127   2.716   5.500
13393TIP3   OH240119   0.402   6.423   4.945
13393TIP3    H140120   0.331   6.473   4.904
13393TIP3    H240121   0.410   6.460   5.033
13394TIP3   OH240122   6.740   3.053   2.030
13394TIP3    H140123   6.826   3.023   2.062
13394TIP3    H240124   6.741   3.147   2.046
13395TIP3   OH240125   2.507   4.735   5.148
13395TIP3    H140126   2.441   4.669   5.126
13395TIP3    H240127   2.591   4.688   5.143
13396TIP3   OH240128   6.168   6.351   1.579
13396TIP3    H140129   6.099   6.415   1.560
13396TIP3    H240130   6.247   6.389   1.541
13397TIP3   OH240131   0.015   4.188   1.692
13397TIP3    H140132   0.100   4.169   1.732
13397TIP3    H240133   0.013   4.135   1.612
13398TIP3   OH240134   0.815   5.396   0.410
13398TIP3    H140135   0.724   5.369   0.423
13398TIP3    H240136   0.820   5.419   0.317
13399TIP3   OH240137   4.805   5.244   0.169
13399TIP3    H140138   4.867   5.223   0.099
13399TIP3    H240139   4.794   5.339   0.163
13400TIP3   OH240140   7.177   7.547   1.931
13400TIP3    H140141   7.138   7.485   1.869
13400TIP3    H240142   7.148   7.517   2.017
13401TIP3   OH240143   6.299  -0.009   4.398
13401TIP3    H140144   6.288  -0.049   4.311
13401TIP3    H240145   6.300   0.085   4.381
13402TIP3   OH240146   6.800   7.513   6.803
13402TIP3    H140147   6.753   7.443   6.757
13402TIP3    H240148   6.881   7.473   6.832
13403TIP3   OH240149   5.567   5.149   5.237
13403TIP3    H140150   5.658   5.176   5.226
13403TIP3    H240151   5.541   5.114   5.152
13404TIP3   OH240152   5.320   2.501   2.304
13404TIP3    H140153   5.384   2.446   2.348
13404TIP3    H240154   5.373   2.569   2.261
13405TIP3   OH240155   3.927   1.304   2.667
13405TIP3    H140156   4.010   1.301   2.716
13405TIP3    H240157   3.906   1.211   2.653
13406TIP3   OH240158   5.946   5.088   0.603
13406TIP3    H140159   6.020   5.031   0.627
13406TIP3    H240160   5.869   5.043   0.638
13407TIP3   OH240161   1.617   1.141   6.360
13407TIP3    H140162   1.656   1.146   6.273
13407TIP3    H240163   1.674   1.082   6.409
13408TIP3   OH240164   2.871   0.619   5.123
13408TIP3    H140165   2.796   0.671   5.094
13408TIP3    H240166   2.940   0.684   5.139
13409TIP3   OH240167   1.888   6.489   0.890
13409TIP3    H140168   1.942   6.540   0.829
13409TIP3    H240169   1.809   6.469   0.840
13410TIP3   OH240170   0.237   5.421   5.401
13410TIP3    H140171   0.250   5.326   5.403
13410TIP3    H240172   0.313   5.454   5.354
13411TIP3   OH240173   3.290   1.144   6.797
13411TIP3    H140174   3.349   1.100   6.857
13411TIP3    H240175   3.346   1.205   6.749
13412TIP3   OH240176   0.350   0.571   2.075
13412TIP3    H140177   0.290   0.558   2.148
13412TIP3    H240178   0.396   0.487   2.066
13413TIP3   OH240179   3.194   4.984   6.083
13413TIP3    H140180   3.103   5.009   6.099
13413TIP3    H240181   3.243   5.066   6.086
13414TIP3   OH240182   1.881   7.000   4.218
13414TIP3    H140183   1.855   7.007   4.126
13414TIP3    H240184   1.975   7.013   4.217
13415TIP3   OH240185   7.630   0.874   3.590
13415TIP3    H140186   7.630   0.782   3.563
13415TIP3    H240187   7.568   0.878   3.662
13416TIP3   OH240188   2.779   5.578   1.650
13416TIP3    H140189   2.726   5.609   1.576
13416TIP3    H240190   2.786   5.484   1.636
13417TIP3   OH240191   3.771   2.838   1.656
13417TIP3    H140192   3.761   2.835   1.561
13417TIP3    H240193   3.688   2.871   1.688
13418TIP3   OH240194   7.497   0.467   4.562
13418TIP3    H140195   7.425   0.529   4.554
13418TIP3    H240196   7.549   0.479   4.483
13419TIP3   OH240197   4.297   5.438   1.622
13419TIP3    H140198   4.297   5.377   1.548
13419TIP3    H240199   4.383   5.479   1.620
13420TIP3   OH240200   1.105   2.097   1.641
13420TIP3    H140201   1.094   2.133   1.553
13420TIP3    H240202   1.184   2.138   1.675
13421TIP3   OH240203   4.491   2.442   1.139
13421TIP3    H140204   4.498   2.517   1.197
13421TIP3    H240205   4.437   2.473   1.066
13422TIP3   OH240206   6.406   3.895   0.789
13422TIP3    H140207   6.315   3.912   0.813
13422TIP3    H240208   6.417   3.940   0.705
13423TIP3   OH240209   3.297   1.823   5.857
13423TIP3    H140210   3.342   1.793   5.779
13423TIP3    H240211   3.308   1.918   5.856
13424TIP3   OH240212   2.865   3.842   3.874
13424TIP3    H140213   2.858   3.795   3.958
13424TIP3    H240214   2.859   3.773   3.808
13425TIP3   OH240215   1.095   7.048   2.900
13425TIP3    H140216   1.041   7.056   2.821
13425TIP3    H240217   1.035   7.064   2.972
13426TIP3   OH240218   6.607   3.465   4.062
13426TIP3    H140219   6.621   3.536   3.999
13426TIP3    H240220   6.546   3.406   4.018
13427TIP3   OH240221   3.206   3.811   4.859
13427TIP3    H140222   3.238   3.721   4.854
13427TIP3    H240223   3.254   3.850   4.932
13428TIP3   OH240224   8.347   7.011   1.332
13428TIP3    H140225   8.407   6.937   1.342
13428TIP3    H240226   8.342   7.025   1.237
13429TIP3   OH240227   7.081   2.423   1.566
13429TIP3    H140228   7.139   2.396   1.495
13429TIP3    H240229   7.128   2.494   1.611
13430TIP3   OH240230   0.064   1.071   5.115
13430TIP3    H140231   0.085   1.146   5.059
13430TIP3    H240232   0.072   1.105   5.204
13431TIP3   OH240233   4.970   2.767   0.790
13431TIP3    H140234   4.925   2.822   0.853
13431TIP3    H240235   4.907   2.697   0.770
13432TIP3   OH240236   6.454   0.714   2.548
13432TIP3    H140237   6.449   0.628   2.507
13432TIP3    H240238   6.519   0.762   2.498
13433TIP3   OH240239   6.235   4.320   4.853
13433TIP3    H140240   6.144   4.292   4.848
13433TIP3    H240241   6.241   4.370   4.934
13434TIP3   OH240242   1.364   2.924   0.495
13434TIP3    H140243   1.439   2.959   0.448
13434TIP3    H240244   1.322   3.000   0.534
13435TIP3   OH240245   7.259   7.436   1.112
13435TIP3    H140246   7.277   7.345   1.087
13435TIP3    H240247   7.330   7.459   1.171
13436TIP3   OH240248   5.196   2.626   0.661
13436TIP3    H140249   5.221   2.630   0.753
13436TIP3    H240250   5.102   2.609   0.662
13437TIP3   OH240251   4.296   3.295   3.078
13437TIP3    H140252   4.291   3.200   3.085
13437TIP3    H240253   4.300   3.312   2.983
13438TIP3   OH240254   8.175   5.247   4.431
13438TIP3    H140255   8.155   5.169   4.482
13438TIP3    H240256   8.249   5.287   4.476
13439TIP3   OH240257   5.259   5.191   0.129
13439TIP3    H140258   5.301   5.272   0.102
13439TIP3    H240259   5.211   5.213   0.209
13440TIP3   OH240260   1.403   3.868   3.266
13440TIP3    H140261   1.334   3.925   3.301
13440TIP3    H240262   1.426   3.908   3.182
13441TIP3   OH240263   1.198   7.349   3.884
13441TIP3    H140264   1.278   7.401   3.894
13441TIP3    H240265   1.202   7.285   3.954
13442TIP3   OH240266   2.370   5.347   3.775
13442TIP3    H140267   2.453   5.391   3.760
13442TIP3    H240268   2.384   5.294   3.854
13443TIP3   OH240269   6.763   7.713   3.839
13443TIP3    H140270   6.773   7.618   3.847
13443TIP3    H240271   6.756   7.745   3.929
13444TIP3   OH240272   0.639   6.682   4.354
13444TIP3    H140273   0.545   6.668   4.359
13444TIP3    H240274   0.672   6.655   4.441
13445TIP3   OH240275   1.906   0.883   3.189
13445TIP3    H140276   1.820   0.854   3.159
13445TIP3    H240277   1.913   0.973   3.156
13446TIP3   OH240278   6.719   7.721   4.103
13446TIP3    H140279   6.685   7.636   4.075
13446TIP3    H240280   6.779   7.700   4.174
13447TIP3   OH240281   5.194   5.717   4.304
13447TIP3    H140282   5.143   5.792   4.334
13447TIP3    H240283   5.141   5.641   4.326
13448TIP3   OH240284   3.083   1.147   5.789
13448TIP3    H140285   3.142   1.113   5.856
13448TIP3    H240286   3.031   1.072   5.762
13449TIP3   OH240287   8.071   1.459   1.540
13449TIP3    H140288   8.073   1.550   1.568
13449TIP3    H240289   8.019   1.460   1.459
13450TIP3   OH240290   3.335   3.443   4.581
13450TIP3    H140291   3.320   3.405   4.494
13450TIP3    H240292   3.390   3.519   4.565
13451TIP3   OH240293   2.884   6.267   2.806
13451TIP3    H140294   2.951   6.333   2.822
13451TIP3    H240295   2.833   6.301   2.733
13452TIP3   OH240296   5.746   3.302   4.831
13452TIP3    H140297   5.679   3.266   4.890
13452TIP3    H240298   5.817   3.237   4.834
13453TIP3   OH240299   2.048   0.293   1.432
13453TIP3    H140300   2.117   0.236   1.399
13453TIP3    H240301   2.005   0.243   1.501
13454TIP3   OH240302   6.085   4.871   0.961
13454TIP3    H140303   6.088   4.852   0.867
13454TIP3    H240304   6.120   4.792   1.002
13455TIP3   OH240305   3.238   0.491   2.395
13455TIP3    H140306   3.324   0.472   2.434
13455TIP3    H240307   3.182   0.421   2.426
13456TIP3   OH240308   3.858   5.163   4.703
13456TIP3    H140309   3.886   5.100   4.637
13456TIP3    H240310   3.778   5.125   4.740
13457TIP3   OH240311   1.436   7.493   3.803
13457TIP3    H140312   1.522   7.526   3.775
13457TIP3    H240313   1.374   7.557   3.769
13458TIP3   OH240314   7.219   5.599   1.289
13458TIP3    H140315   7.288   5.532   1.295
13458TIP3    H240316   7.153   5.559   1.233
13459TIP3   OH240317   8.261   2.200   0.183
13459TIP3    H140318   8.329   2.265   0.166
13459TIP3    H240319   8.301   2.139   0.244
13460TIP3   OH240320   6.965   7.777   2.192
13460TIP3    H140321   6.909   7.702   2.209
13460TIP3    H240322   6.906   7.852   2.192
13461TIP3   OH240323   8.254   4.013   5.531
13461TIP3    H140324   8.328   4.016   5.471
13461TIP3    H240325   8.233   4.105   5.548
13462TIP3   OH240326   0.606   3.510   5.564
13462TIP3    H140327   0.558   3.482   5.487
13462TIP3    H240328   0.683   3.555   5.530
13463TIP3   OH240329   7.595   3.117   0.052
13463TIP3    H140330   7.551   3.123  -0.033
13463TIP3    H240331   7.529   3.145   0.115
13464TIP3   OH240332   8.316   6.633   5.242
13464TIP3    H140333   8.280   6.550   5.209
13464TIP3    H240334   8.384   6.607   5.303
13465TIP3   OH240335   1.548   6.064   0.457
13465TIP3    H140336   1.503   6.006   0.395
13465TIP3    H240337   1.479   6.092   0.517
13466TIP3   OH240338   5.144   7.506   2.581
13466TIP3    H140339   5.054   7.495   2.551
13466TIP3    H240340   5.190   7.542   2.505
13467TIP3   OH240341   3.364   2.059   4.991
13467TIP3    H140342   3.406   2.027   5.070
13467TIP3    H240343   3.270   2.058   5.011
13468TIP3   OH240344   2.070   3.486   4.783
13468TIP3    H140345   2.146   3.538   4.757
13468TIP3    H240346   2.010   3.550   4.822
13469TIP3   OH240347   2.566   6.815   6.837
13469TIP3    H140348   2.613   6.815   6.919
13469TIP3    H240349   2.493   6.876   6.850
13470TIP3   OH240350   7.427   5.927   5.193
13470TIP3    H140351   7.493   5.988   5.158
13470TIP3    H240352   7.371   5.907   5.119
13471TIP3   OH240353   1.618   0.419   1.040
13471TIP3    H140354   1.564   0.398   1.117
13471TIP3    H240355   1.687   0.475   1.074
13472TIP3   OH240356   5.674   5.912   1.002
13472TIP3    H140357   5.585   5.877   0.993
13472TIP3    H240358   5.690   5.958   0.919
13473TIP3   OH240359   3.823   0.429   3.448
13473TIP3    H140360   3.858   0.340   3.439
13473TIP3    H240361   3.757   0.436   3.380
13474TIP3   OH240362   4.811   0.981   2.050
13474TIP3    H140363   4.780   0.905   2.000
13474TIP3    H240364   4.736   1.009   2.101
13475TIP3   OH240365   7.732   2.628   1.765
13475TIP3    H140366   7.679   2.683   1.823
13475TIP3    H240367   7.797   2.589   1.823
13476TIP3   OH240368   7.591   5.428   3.155
13476TIP3    H140369   7.653   5.442   3.083
13476TIP3    H240370   7.523   5.494   3.141
13477TIP3   OH240371   3.741   0.469   6.865
13477TIP3    H140372   3.781   0.502   6.785
13477TIP3    H240373   3.647   0.483   6.852
13478TIP3   OH240374   5.803   2.952   1.596
13478TIP3    H140375   5.879   2.908   1.557
13478TIP3    H240376   5.729   2.921   1.543
13479TIP3   OH240377   8.160   5.462   1.761
13479TIP3    H140378   8.123   5.548   1.738
13479TIP3    H240379   8.252   5.478   1.777
13480TIP3   OH240380   7.699   2.153   1.074
13480TIP3    H140381   7.616   2.125   1.036
13480TIP3    H240382   7.739   2.072   1.107
13481TIP3   OH240383   5.869   2.333   3.663
13481TIP3    H140384   5.892   2.425   3.680
13481TIP3    H240385   5.783   2.322   3.703
13482TIP3   OH240386   3.675   5.134   3.508
13482TIP3    H140387   3.700   5.043   3.490
13482TIP3    H240388   3.579   5.134   3.505
13483TIP3   OH240389   6.566   0.421   1.238
13483TIP3    H140390   6.562   0.516   1.254
13483TIP3    H240391   6.476   0.392   1.245
13484TIP3   OH240392   8.407   2.576   3.855
13484TIP3    H140393   8.329   2.562   3.907
13484TIP3    H240394   8.375   2.599   3.768
13485TIP3   OH240395   0.707   4.214   3.358
13485TIP3    H140396   0.787   4.258   3.386
13485TIP3    H240397   0.693   4.147   3.425
13486TIP3   OH240398   3.873   1.144   0.196
13486TIP3    H140399   3.915   1.201   0.260
13486TIP3    H240400   3.940   1.130   0.129
13487TIP3   OH240401   1.161   1.222   3.647
13487TIP3    H140402   1.117   1.293   3.694
13487TIP3    H240403   1.096   1.190   3.585
13488TIP3   OH240404   7.168   6.384   6.623
13488TIP3    H140405   7.075   6.366   6.619
13488TIP3    H240406   7.206   6.305   6.662
13489TIP3   OH240407   1.741   7.269   6.680
13489TIP3    H140408   1.710   7.359   6.693
13489TIP3    H240409   1.834   7.279   6.661
13490TIP3   OH240410   0.184   2.149   6.485
13490TIP3    H140411   0.214   2.206   6.556
13490TIP3    H240412   0.246   2.076   6.485
13491TIP3   OH240413   2.982   1.006   4.660
13491TIP3    H140414   3.063   1.033   4.618
13491TIP3    H240415   2.934   0.958   4.593
13492TIP3   OH240416   2.186   1.310   6.242
13492TIP3    H140417   2.236   1.356   6.175
13492TIP3    H240418   2.098   1.302   6.204
13493TIP3   OH240419   5.018   1.343   5.439
13493TIP3    H140420   5.020   1.369   5.531
13493TIP3    H240421   4.927   1.358   5.412
13494TIP3   OH240422   6.494   3.494   3.150
13494TIP3    H140423   6.430   3.491   3.222
13494TIP3    H240424   6.535   3.580   3.159
13495TIP3   OH240425   4.712   2.436   4.075
13495TIP3    H140426   4.711   2.422   3.980
13495TIP3    H240427   4.800   2.410   4.102
13496TIP3   OH240428   8.332   1.589   0.332
13496TIP3    H140429   8.400   1.614   0.269
13496TIP3    H240430   8.344   1.495   0.343
13497TIP3   OH240431   0.620   7.027   5.807
13497TIP3    H140432   0.635   7.046   5.899
13497TIP3    H240433   0.697   7.063   5.762
13498TIP3   OH240434   7.217   2.971   0.221
13498TIP3    H140435   7.207   2.956   0.315
13498TIP3    H240436   7.285   3.039   0.215
13499TIP3   OH240437   6.152   1.589   2.094
13499TIP3    H140438   6.234   1.638   2.101
13499TIP3    H240439   6.134   1.587   2.000
13500TIP3   OH240440   1.211   5.526   4.300
13500TIP3    H140441   1.196   5.529   4.394
13500TIP3    H240442   1.218   5.617   4.274
13501TIP3   OH240443   7.826   2.553   4.084
13501TIP3    H140444   7.853   2.462   4.071
13501TIP3    H240445   7.900   2.594   4.128
13502TIP3   OH240446   4.521   3.560   3.643
13502TIP3    H140447   4.579   3.630   3.674
13502TIP3    H240448   4.568   3.479   3.663
13503TIP3   OH240449   1.495   5.307   0.290
13503TIP3    H140450   1.421   5.257   0.256
13503TIP3    H240451   1.530   5.353   0.214
13504TIP3   OH240452   6.627   5.551   1.875
13504TIP3    H140453   6.627   5.502   1.793
13504TIP3    H240454   6.542   5.596   1.876
13505TIP3   OH240455   7.357   5.228   4.591
13505TIP3    H140456   7.444   5.190   4.602
13505TIP3    H240457   7.302   5.155   4.563
13506TIP3   OH240458   5.249   3.335   3.075
13506TIP3    H140459   5.177   3.306   3.018
13506TIP3    H240460   5.313   3.372   3.014
13507TIP3   OH240461   5.626   3.363   2.417
13507TIP3    H140462   5.577   3.437   2.454
13507TIP3    H240463   5.708   3.363   2.466
13508TIP3   OH240464   5.659   3.659   2.777
13508TIP3    H140465   5.624   3.571   2.766
13508TIP3    H240466   5.618   3.691   2.858
13509TIP3   OH240467   5.106   2.504   3.082
13509TIP3    H140468   5.042   2.497   3.012
13509TIP3    H240469   5.061   2.469   3.159
13510TIP3   OH240470   5.007   0.540   4.564
13510TIP3    H140471   4.915   0.522   4.546
13510TIP3    H240472   5.019   0.513   4.655
13511TIP3   OH240473   1.202   5.596   0.726
13511TIP3    H140474   1.288   5.575   0.689
13511TIP3    H240475   1.203   5.691   0.736
13512TIP3   OH240476   4.954   5.423   5.489
13512TIP3    H140477   4.995   5.497   5.445
13512TIP3    H240478   5.009   5.408   5.566
13513TIP3   OH240479   7.706   4.331   5.235
13513TIP3    H140480   7.766   4.261   5.261
13513TIP3    H240481   7.763   4.404   5.212
13514TIP3   OH240482   2.974   2.362   3.953
13514TIP3    H140483   3.040   2.296   3.932
13514TIP3    H240484   2.951   2.345   4.044
13515TIP3   OH240485   0.686   3.445   6.087
13515TIP3    H140486   0.691   3.369   6.146
13515TIP3    H240487   0.616   3.499   6.125
13516TIP3   OH240488   0.584   3.964   3.213
13516TIP3    H140489   0.571   4.059   3.214
13516TIP3    H240490   0.652   3.948   3.278
13517TIP3   OH240491   8.357   6.524   5.788
13517TIP3    H140492   8.435   6.568   5.755
13517TIP3    H240493   8.354   6.546   5.881
13518TIP3   OH240494   4.093   6.088   6.365
13518TIP3    H140495   4.070   6.027   6.435
13518TIP3    H240496   4.073   6.174   6.401
13519TIP3   OH240497   0.589   3.437   3.501
13519TIP3    H140498   0.658   3.477   3.449
13519TIP3    H240499   0.533   3.394   3.436
13520TIP3   OH240500   5.244   3.668   4.855
13520TIP3    H140501   5.155   3.700   4.836
13520TIP3    H240502   5.302   3.734   4.817
13521TIP3   OH240503   4.734   3.787   0.408
13521TIP3    H140504   4.704   3.829   0.489
13521TIP3    H240505   4.735   3.694   0.428
13522TIP3   OH240506   7.120   4.226   3.918
13522TIP3    H140507   7.059   4.291   3.953
13522TIP3    H240508   7.181   4.208   3.989
13523TIP3   OH240509   1.137   7.172   0.070
13523TIP3    H140510   1.207   7.134   0.123
13523TIP3    H240511   1.070   7.103   0.066
13524TIP3   OH240512   7.705   0.331   6.267
13524TIP3    H140513   7.793   0.332   6.305
13524TIP3    H240514   7.687   0.239   6.250
13525TIP3   OH240515   2.185   2.441   1.070
13525TIP3    H140516   2.166   2.449   0.977
13525TIP3    H240517   2.248   2.512   1.088
13526TIP3   OH240518   3.437   7.426   0.346
13526TIP3    H140519   3.504   7.373   0.390
13526TIP3    H240520   3.405   7.485   0.414
13527TIP3   OH240521   6.235   7.660   5.830
13527TIP3    H140522   6.266   7.570   5.823
13527TIP3    H240523   6.146   7.658   5.794
13528TIP3   OH240524   5.824   2.317   5.625
13528TIP3    H140525   5.875   2.338   5.547
13528TIP3    H240526   5.811   2.402   5.668
13529TIP3   OH240527   0.420   1.414   5.396
13529TIP3    H140528   0.452   1.502   5.416
13529TIP3    H240529   0.328   1.427   5.372
13530TIP3   OH240530   0.361   0.742   4.128
13530TIP3    H140531   0.356   0.813   4.192
13530TIP3    H240532   0.436   0.689   4.156
13531TIP3   OH240533   6.192   0.936   6.452
13531TIP3    H140534   6.205   0.996   6.526
13531TIP3    H240535   6.170   0.994   6.378
13532TIP3   OH240536   7.890   4.274   3.377
13532TIP3    H140537   7.833   4.325   3.436
13532TIP3    H240538   7.870   4.183   3.398
13533TIP3   OH240539   6.694   2.259   5.367
13533TIP3    H140540   6.704   2.353   5.382
13533TIP3    H240541   6.712   2.220   5.452
13534TIP3   OH240542   5.017   0.972   5.174
13534TIP3    H140543   5.060   0.894   5.138
13534TIP3    H240544   5.083   1.009   5.233
13535TIP3   OH240545   0.539   3.629   5.851
13535TIP3    H140546   0.541   3.589   5.764
13535TIP3    H240547   0.626   3.667   5.862
13536TIP3   OH240548   7.557   4.276   5.650
13536TIP3    H140549   7.532   4.229   5.570
13536TIP3    H240550   7.479   4.271   5.705
13537TIP3   OH240551   0.108   1.697   4.558
13537TIP3    H140552   0.153   1.628   4.511
13537TIP3    H240553   0.159   1.710   4.638
13538TIP3   OH240554   0.725   3.241   4.241
13538TIP3    H140555   0.688   3.326   4.263
13538TIP3    H240556   0.820   3.253   4.251
13539TIP3   OH240557   5.664   4.452   1.700
13539TIP3    H140558   5.594   4.518   1.706
13539TIP3    H240559   5.702   4.451   1.788
13540TIP3   OH240560   4.703   3.650   5.855
13540TIP3    H140561   4.775   3.692   5.903
13540TIP3    H240562   4.685   3.570   5.904
13541TIP3   OH240563   0.054   7.846   2.182
13541TIP3    H140564  -0.036   7.819   2.168
13541TIP3    H240565   0.093   7.847   2.094
13542TIP3   OH240566   5.232   3.137   5.850
13542TIP3    H140567   5.213   3.049   5.817
13542TIP3    H240568   5.225   3.194   5.774
13543TIP3   OH240569   2.368   4.445   5.487
13543TIP3    H140570   2.353   4.351   5.496
13543TIP3    H240571   2.462   4.452   5.470
13544TIP3   OH240572   5.019   2.045   4.997
13544TIP3    H140573   5.015   2.120   4.938
13544TIP3    H240574   5.077   2.073   5.068
13545TIP3   OH240575   3.719   0.234   3.714
13545TIP3    H140576   3.810   0.226   3.744
13545TIP3    H240577   3.679   0.297   3.774
13546TIP3   OH240578   7.883   7.565   0.868
13546TIP3    H140579   7.873   7.537   0.959
13546TIP3    H240580   7.978   7.570   0.856
13547TIP3   OH240581   0.209   2.420   0.321
13547TIP3    H140582   0.208   2.511   0.351
13547TIP3    H240583   0.152   2.419   0.244
13548TIP3   OH240584   4.824   6.617   4.670
13548TIP3    H140585   4.782   6.533   4.688
13548TIP3    H240586   4.841   6.654   4.757
13549TIP3   OH240587   3.869   0.911   6.752
13549TIP3    H140588   3.801   0.895   6.817
13549TIP3    H240589   3.822   0.951   6.678
13550TIP3   OH240590   2.244   7.416   6.673
13550TIP3    H140591   2.314   7.377   6.726
13550TIP3    H240592   2.259   7.511   6.680
13551TIP3   OH240593   3.955   5.874   2.147
13551TIP3    H140594   3.954   5.839   2.058
13551TIP3    H240595   3.998   5.959   2.139
13552TIP3   OH240596   2.156   7.336   5.906
13552TIP3    H140597   2.062   7.320   5.899
13552TIP3    H240598   2.196   7.257   5.870
13553TIP3   OH240599   3.696   0.671   1.478
13553TIP3    H140600   3.613   0.714   1.499
13553TIP3    H240601   3.697   0.593   1.534
13554TIP3   OH240602   2.339   7.823   0.955
13554TIP3    H140603   2.274   7.825   0.884
13554TIP3    H240604   2.418   7.788   0.915
13555TIP3   OH240605   3.976   0.126   3.953
13555TIP3    H140606   4.037   0.131   3.879
13555TIP3    H240607   3.904   0.071   3.920
13556TIP3   OH240608   3.671   0.895   1.126
13556TIP3    H140609   3.589   0.898   1.176
13556TIP3    H240610   3.696   0.987   1.116
13557TIP3   OH240611   6.321   2.976   4.900
13557TIP3    H140612   6.334   3.051   4.958
13557TIP3    H240613   6.353   2.901   4.951
13558TIP3   OH240614   2.292   5.010   0.618
13558TIP3    H140615   2.208   4.984   0.580
13558TIP3    H240616   2.269   5.074   0.685
13559TIP3   OH240617   7.953   6.708   2.179
13559TIP3    H140618   7.966   6.780   2.241
13559TIP3    H240619   7.958   6.629   2.232
13560TIP3   OH240620   7.376   1.377   4.121
13560TIP3    H140621   7.404   1.426   4.043
13560TIP3    H240622   7.336   1.298   4.086
13561TIP3   OH240623   3.045   6.219   4.253
13561TIP3    H140624   3.101   6.223   4.330
13561TIP3    H240625   2.984   6.291   4.262
13562TIP3   OH240626   1.743   2.333   0.779
13562TIP3    H140627   1.786   2.289   0.706
13562TIP3    H240628   1.650   2.332   0.756
13563TIP3   OH240629   2.122   0.666   5.409
13563TIP3    H140630   2.106   0.724   5.334
13563TIP3    H240631   2.195   0.707   5.456
13564TIP3   OH240632   5.333   3.721   5.283
13564TIP3    H140633   5.420   3.712   5.322
13564TIP3    H240634   5.303   3.808   5.309
13565TIP3   OH240635   3.975   1.884   4.910
13565TIP3    H140636   3.938   1.906   4.825
13565TIP3    H240637   4.068   1.903   4.902
13566TIP3   OH240638   1.797   0.550   2.786
13566TIP3    H140639   1.769   0.469   2.742
13566TIP3    H240640   1.872   0.524   2.838
13567TIP3   OH240641   3.833   5.081   5.744
13567TIP3    H140642   3.856   4.994   5.711
13567TIP3    H240643   3.917   5.122   5.764
13568TIP3   OH240644   5.133   7.586   2.101
13568TIP3    H140645   5.149   7.678   2.121
13568TIP3    H240646   5.220   7.546   2.102
13569TIP3   OH240647   7.196   3.894   5.240
13569TIP3    H140648   7.177   3.827   5.175
13569TIP3    H240649   7.112   3.937   5.256
13570TIP3   OH240650   1.135   3.463   2.622
13570TIP3    H140651   1.140   3.404   2.547
13570TIP3    H240652   1.086   3.414   2.688
13571TIP3   OH240653   4.532   1.814   2.004
13571TIP3    H140654   4.602   1.770   2.052
13571TIP3    H240655   4.578   1.873   1.944
13572TIP3   OH240656   3.788   0.078   5.924
13572TIP3    H140657   3.797   0.090   5.829
13572TIP3    H240658   3.863   0.123   5.961
13573TIP3   OH240659   4.250   5.241   4.471
13573TIP3    H140660   4.163   5.201   4.461
13573TIP3    H240661   4.275   5.266   4.382
13574TIP3   OH240662   4.321   6.589   5.193
13574TIP3    H140663   4.386   6.627   5.134
13574TIP3    H240664   4.296   6.661   5.251
13575TIP3   OH240665   1.490   0.399   0.145
13575TIP3    H140666   1.455   0.314   0.117
13575TIP3    H240667   1.517   0.385   0.236
13576TIP3   OH240668   2.174   6.166   4.597
13576TIP3    H140669   2.176   6.237   4.661
13576TIP3    H240670   2.250   6.182   4.542
13577TIP3   OH240671   5.790   3.205   2.968
13577TIP3    H140672   5.796   3.288   3.016
13577TIP3    H240673   5.854   3.215   2.897
13578TIP3   OH240674   6.709   7.707   2.759
13578TIP3    H140675   6.636   7.673   2.811
13578TIP3    H240676   6.753   7.768   2.817
13579TIP3   OH240677   2.156   1.390   1.206
13579TIP3    H140678   2.175   1.445   1.282
13579TIP3    H240679   2.145   1.302   1.241
13580TIP3   OH240680   7.879   1.016   2.415
13580TIP3    H140681   7.876   1.065   2.333
13580TIP3    H240682   7.917   0.932   2.391
13581TIP3   OH240683   1.433   5.095   3.235
13581TIP3    H140684   1.473   5.095   3.148
13581TIP3    H240685   1.401   5.006   3.248
13582TIP3   OH240686   5.184   6.351   1.794
13582TIP3    H140687   5.202   6.339   1.700
13582TIP3    H240688   5.262   6.317   1.838
13583TIP3   OH240689   3.035   6.478   6.431
13583TIP3    H140690   3.036   6.485   6.336
13583TIP3    H240691   3.106   6.417   6.452
13584TIP3   OH240692   3.077   2.129   3.035
13584TIP3    H140693   3.112   2.120   3.124
13584TIP3    H240694   3.128   2.068   2.983
13585TIP3   OH240695   5.856   1.385   5.988
13585TIP3    H140696   5.876   1.413   5.898
13585TIP3    H240697   5.779   1.436   6.012
13586TIP3   OH240698   8.081   1.818   2.220
13586TIP3    H140699   8.134   1.846   2.146
13586TIP3    H240700   7.992   1.847   2.199
13587TIP3   OH240701   3.000   1.664   3.878
13587TIP3    H140702   2.959   1.683   3.962
13587TIP3    H240703   2.946   1.710   3.814
13588TIP3   OH240704   7.908   5.151   4.110
13588TIP3    H140705   7.831   5.108   4.149
13588TIP3    H240706   7.971   5.080   4.099
13589TIP3   OH240707   3.662   2.068   1.079
13589TIP3    H140708   3.716   1.996   1.047
13589TIP3    H240709   3.624   2.107   1.000
13590TIP3   OH240710   6.823   0.497   1.861
13590TIP3    H140711   6.771   0.504   1.781
13590TIP3    H240712   6.896   0.559   1.848
13591TIP3   OH240713   6.998   2.412   3.601
13591TIP3    H140714   6.971   2.384   3.514
13591TIP3    H240715   6.945   2.360   3.661
13592TIP3   OH240716   6.350   6.049   6.342
13592TIP3    H140717   6.265   6.068   6.302
13592TIP3    H240718   6.331   5.981   6.407
13593TIP3   OH240719   1.449   1.776   5.626
13593TIP3    H140720   1.391   1.707   5.594
13593TIP3    H240721   1.517   1.730   5.675
13594TIP3   OH240722   6.144   5.962   5.086
13594TIP3    H140723   6.208   5.970   5.016
13594TIP3    H240724   6.196   5.935   5.162
13595TIP3   OH240725   2.286   7.424   4.607
13595TIP3    H140726   2.369   7.465   4.633
13595TIP3    H240727   2.224   7.497   4.605
13596TIP3   OH240728   2.435   0.438   4.196
13596TIP3    H140729   2.451   0.532   4.205
13596TIP3    H240730   2.340   0.430   4.201
13597TIP3   OH240731   6.891   4.153   3.576
13597TIP3    H140732   6.921   4.105   3.499
13597TIP3    H240733   6.832   4.093   3.621
13598TIP3   OH240734   7.954   3.465   3.922
13598TIP3    H140735   7.993   3.494   4.004
13598TIP3    H240736   7.883   3.407   3.948
13599TIP3   OH240737   2.243   5.616   1.435
13599TIP3    H140738   2.170   5.675   1.448
13599TIP3    H240739   2.214   5.533   1.473
13600TIP3   OH240740   0.296   7.467   4.069
13600TIP3    H140741   0.284   7.487   3.976
13600TIP3    H240742   0.217   7.503   4.111
13601TIP3   OH240743   2.818   7.337   0.180
13601TIP3    H140744   2.835   7.420   0.136
13601TIP3    H240745   2.835   7.271   0.114
13602TIP3   OH240746   0.754   3.942   5.721
13602TIP3    H140747   0.758   3.862   5.774
13602TIP3    H240748   0.732   3.912   5.633
13603TIP3   OH240749   7.433   0.429   5.008
13603TIP3    H140750   7.495   0.417   4.936
13603TIP3    H240751   7.463   0.369   5.076
13604TIP3   OH240752   5.393   4.806   4.898
13604TIP3    H140753   5.455   4.859   4.848
13604TIP3    H240754   5.434   4.796   4.984
13605TIP3   OH240755   0.025   0.341   2.357
13605TIP3    H140756   0.081   0.417   2.341
13605TIP3    H240757   0.032   0.326   2.451
13606TIP3   OH240758   4.828   7.407   1.232
13606TIP3    H140759   4.836   7.439   1.142
13606TIP3    H240760   4.918   7.389   1.259
13607TIP3   OH240761   1.564   6.489   3.554
13607TIP3    H140762   1.581   6.582   3.536
13607TIP3    H240763   1.528   6.455   3.471
13608TIP3   OH240764   0.698   1.275   3.288
13608TIP3    H140765   0.724   1.365   3.270
13608TIP3    H240766   0.670   1.241   3.203
13609TIP3   OH240767   2.458   2.909   3.317
13609TIP3    H140768   2.465   2.911   3.221
13609TIP3    H240769   2.376   2.955   3.335
13610TIP3   OH240770   4.672   6.932   6.885
13610TIP3    H140771   4.592   6.913   6.933
13610TIP3    H240772   4.678   6.862   6.819
13611TIP3   OH240773   2.623   4.489   5.136
13611TIP3    H140774   2.711   4.453   5.124
13611TIP3    H240775   2.568   4.412   5.152
13612TIP3   OH240776   1.276   4.372   1.270
13612TIP3    H140777   1.237   4.457   1.294
13612TIP3    H240778   1.365   4.393   1.245
13613TIP3   OH240779   1.451   4.386   3.831
13613TIP3    H140780   1.544   4.378   3.814
13613TIP3    H240781   1.410   4.319   3.776
13614TIP3   OH240782   1.257   4.256   4.990
13614TIP3    H140783   1.332   4.201   5.013
13614TIP3    H240784   1.274   4.283   4.899
13615TIP3   OH240785   5.314   6.667   3.243
13615TIP3    H140786   5.340   6.668   3.335
13615TIP3    H240787   5.251   6.738   3.235
13616TIP3   OH240788   6.020   7.283   3.503
13616TIP3    H140789   6.001   7.250   3.415
13616TIP3    H240790   5.974   7.224   3.562
13617TIP3   OH240791   5.125   1.534   6.664
13617TIP3    H140792   5.174   1.505   6.741
13617TIP3    H240793   5.074   1.458   6.637
13618TIP3   OH240794   7.455   7.404   5.675
13618TIP3    H140795   7.526   7.467   5.685
13618TIP3    H240796   7.475   7.334   5.737
13619TIP3   OH240797   4.506   4.638   2.147
13619TIP3    H140798   4.437   4.704   2.148
13619TIP3    H240799   4.501   4.599   2.059
13620TIP3   OH240800   2.558   0.483   6.273
13620TIP3    H140801   2.634   0.491   6.330
13620TIP3    H240802   2.553   0.390   6.252
13621TIP3   OH240803   5.385   5.459   3.220
13621TIP3    H140804   5.438   5.526   3.263
13621TIP3    H240805   5.428   5.446   3.135
13622TIP3   OH240806   2.898   2.926   5.520
13622TIP3    H140807   2.987   2.957   5.539
13622TIP3    H240808   2.891   2.931   5.425
13623TIP3   OH240809   2.481   4.852   2.400
13623TIP3    H140810   2.480   4.941   2.364
13623TIP3    H240811   2.494   4.795   2.324
13624TIP3   OH240812   3.121   6.829   5.659
13624TIP3    H140813   3.064   6.891   5.704
13624TIP3    H240814   3.116   6.750   5.712
13625TIP3   OH240815   2.923   6.931   2.278
13625TIP3    H140816   2.840   6.969   2.306
13625TIP3    H240817   2.988   6.967   2.338
13626TIP3   OH240818   7.843   0.388   0.097
13626TIP3    H140819   7.898   0.466   0.092
13626TIP3    H240820   7.905   0.315   0.089
13627TIP3   OH240821   6.338   6.830   4.440
13627TIP3    H140822   6.274   6.872   4.498
13627TIP3    H240823   6.284   6.786   4.373
13628TIP3   OH240824   2.859   5.135   2.443
13628TIP3    H140825   2.764   5.142   2.437
13628TIP3    H240826   2.879   5.049   2.407
13629TIP3   OH240827   3.986   6.625   3.668
13629TIP3    H140828   3.892   6.619   3.681
13629TIP3    H240829   4.024   6.610   3.755
13630TIP3   OH240830   3.407   3.237   4.093
13630TIP3    H140831   3.328   3.183   4.092
13630TIP3    H240832   3.437   3.236   4.002
13631TIP3   OH240833   1.632   6.300   2.761
13631TIP3    H140834   1.615   6.274   2.670
13631TIP3    H240835   1.630   6.395   2.760
13632TIP3   OH240836   3.383   6.889   2.840
13632TIP3    H140837   3.303   6.920   2.798
13632TIP3    H240838   3.377   6.922   2.930
13633TIP3   OH240839   7.836   5.644   6.563
13633TIP3    H140840   7.899   5.715   6.551
13633TIP3    H240841   7.889   5.568   6.585
13634TIP3   OH240842   1.575  -0.032   2.349
13634TIP3    H140843   1.512  -0.045   2.278
13634TIP3    H240844   1.566   0.059   2.374
13635TIP3   OH240845   7.534   5.253   0.218
13635TIP3    H140846   7.584   5.181   0.180
13635TIP3    H240847   7.544   5.324   0.154
13636TIP3   OH240848   1.354   5.319   4.192
13636TIP3    H140849   1.416   5.361   4.133
13636TIP3    H240850   1.331   5.387   4.255
13637TIP3   OH240851   0.418   0.101   6.323
13637TIP3    H140852   0.425   0.187   6.280
13637TIP3    H240853   0.380   0.120   6.408
13638TIP3   OH240854   3.203   7.291   4.775
13638TIP3    H140855   3.172   7.283   4.865
13638TIP3    H240856   3.251   7.209   4.759
13639TIP3   OH240857   6.388   4.176   0.236
13639TIP3    H140858   6.424   4.119   0.168
13639TIP3    H240859   6.342   4.245   0.187
13640TIP3   OH240860   4.720   6.646   5.360
13640TIP3    H140861   4.658   6.602   5.417
13640TIP3    H240862   4.792   6.672   5.417
13641TIP3   OH240863   6.407   7.313   3.769
13641TIP3    H140864   6.478   7.377   3.765
13641TIP3    H240865   6.345   7.342   3.703
13642TIP3   OH240866   5.881   2.553   6.728
13642TIP3    H140867   5.975   2.546   6.744
13642TIP3    H240868   5.874   2.581   6.637
13643TIP3   OH240869   3.709   7.003   0.197
13643TIP3    H140870   3.749   6.936   0.142
13643TIP3    H240871   3.780   7.066   0.212
13644TIP3   OH240872   6.734   4.810   4.737
13644TIP3    H140873   6.666   4.758   4.694
13644TIP3    H240874   6.687   4.884   4.775
13645TIP3   OH240875   5.188   3.576   3.731
13645TIP3    H140876   5.212   3.483   3.742
13645TIP3    H240877   5.261   3.613   3.682
13646TIP3   OH240878   3.792   4.315   6.576
13646TIP3    H140879   3.802   4.409   6.593
13646TIP3    H240880   3.837   4.272   6.649
13647TIP3   OH240881   7.707   7.628   3.077
13647TIP3    H140882   7.692   7.557   3.015
13647TIP3    H240883   7.624   7.675   3.081
13648TIP3   OH240884   1.242   7.582   3.544
13648TIP3    H140885   1.246   7.587   3.640
13648TIP3    H240886   1.244   7.673   3.515
13649TIP3   OH240887   2.833   2.714   4.177
13649TIP3    H140888   2.885   2.698   4.098
13649TIP3    H240889   2.753   2.757   4.144
13650TIP3   OH240890   5.776   2.941   2.971
13650TIP3    H140891   5.797   3.034   2.960
13650TIP3    H240892   5.799   2.902   2.887
13651TIP3   OH240893   0.549   1.433   2.105
13651TIP3    H140894   0.517   1.347   2.079
13651TIP3    H240895   0.590   1.419   2.191
13652TIP3   OH240896   4.034   0.634   1.237
13652TIP3    H140897   3.995   0.715   1.268
13652TIP3    H240898   4.063   0.654   1.148
13653TIP3   OH240899   0.299   5.099   4.409
13653TIP3    H140900   0.274   5.070   4.497
13653TIP3    H240901   0.343   5.023   4.371
13654TIP3   OH240902   6.779   1.603   5.532
13654TIP3    H140903   6.764   1.656   5.454
13654TIP3    H240904   6.834   1.530   5.501
13655TIP3   OH240905   7.743   2.383   5.571
13655TIP3    H140906   7.734   2.467   5.615
13655TIP3    H240907   7.667   2.377   5.513
13656TIP3   OH240908   5.302   3.089   4.001
13656TIP3    H140909   5.268   3.093   4.091
13656TIP3    H240910   5.336   3.178   3.985
13657TIP3   OH240911   3.364   0.264   5.269
13657TIP3    H140912   3.355   0.300   5.181
13657TIP3    H240913   3.358   0.169   5.257
13658TIP3   OH240914   7.533   0.124   0.574
13658TIP3    H140915   7.487   0.187   0.630
13658TIP3    H240916   7.512   0.153   0.485
13659TIP3   OH240917   7.357   5.402   4.837
13659TIP3    H140918   7.403   5.356   4.907
13659TIP3    H240919   7.373   5.348   4.759
13660TIP3   OH240920   3.095   5.240   6.442
13660TIP3    H140921   3.172   5.297   6.438
13660TIP3    H240922   3.126   5.156   6.409
13661TIP3   OH240923   5.764   1.117   3.210
13661TIP3    H140924   5.674   1.114   3.242
13661TIP3    H240925   5.762   1.182   3.140
13662TIP3   OH240926   1.110   0.120   4.091
13662TIP3    H140927   1.043   0.185   4.069
13662TIP3    H240928   1.106   0.056   4.020
13663TIP3   OH240929   2.335   0.736   2.057
13663TIP3    H140930   2.371   0.811   2.104
13663TIP3    H240931   2.412   0.683   2.034
13664TIP3   OH240932   3.040   5.342   4.724
13664TIP3    H140933   2.971   5.393   4.766
13664TIP3    H240934   2.994   5.268   4.684
13665TIP3   OH240935   0.551   0.430   0.995
13665TIP3    H140936   0.490   0.455   0.926
13665TIP3    H240937   0.525   0.341   1.019
13666TIP3   OH240938   4.224   5.625   4.225
13666TIP3    H140939   4.175   5.704   4.249
13666TIP3    H240940   4.297   5.623   4.287
13667TIP3   OH240941   5.262   7.067   5.974
13667TIP3    H140942   5.204   7.014   6.028
13667TIP3    H240943   5.342   7.075   6.026
13668TIP3   OH240944   4.597   3.812   4.006
13668TIP3    H140945   4.621   3.743   4.068
13668TIP3    H240946   4.652   3.795   3.929
13669TIP3   OH240947   5.049   6.168   0.103
13669TIP3    H140948   5.025   6.226   0.176
13669TIP3    H240949   5.033   6.220   0.025
13670TIP3   OH240950   2.892   6.538   1.007
13670TIP3    H140951   2.988   6.546   1.008
13670TIP3    H240952   2.861   6.623   0.977
13671TIP3   OH240953   2.026   0.470   1.902
13671TIP3    H140954   2.118   0.451   1.883
13671TIP3    H240955   1.984   0.472   1.816
13672TIP3   OH240956   4.747   2.619   0.076
13672TIP3    H140957   4.720   2.550   0.016
13672TIP3    H240958   4.665   2.656   0.109
13673TIP3   OH240959   6.141   4.410   6.201
13673TIP3    H140960   6.188   4.486   6.235
13673TIP3    H240961   6.102   4.439   6.119
13674TIP3   OH240962   2.028   6.854   5.181
13674TIP3    H140963   2.079   6.928   5.148
13674TIP3    H240964   1.959   6.843   5.116
13675TIP3   OH240965   8.282   2.239   2.765
13675TIP3    H140966   8.296   2.144   2.754
13675TIP3    H240967   8.188   2.249   2.770
13676TIP3   OH240968   2.692   2.123   2.134
13676TIP3    H140969   2.780   2.155   2.155
13676TIP3    H240970   2.691   2.033   2.166
13677TIP3   OH240971   5.947   1.249   4.231
13677TIP3    H140972   5.853   1.246   4.245
13677TIP3    H240973   5.968   1.342   4.227
13678TIP3   OH240974   2.912   1.459   1.343
13678TIP3    H140975   2.844   1.526   1.353
13678TIP3    H240976   2.864   1.379   1.321
13679TIP3   OH240977   4.650   1.625   2.215
13679TIP3    H140978   4.561   1.625   2.251
13679TIP3    H240979   4.705   1.649   2.290
13680TIP3   OH240980   0.672   4.287   3.938
13680TIP3    H140981   0.621   4.272   3.858
13680TIP3    H240982   0.740   4.348   3.911
13681TIP3   OH240983   4.079   6.705   2.081
13681TIP3    H140984   4.013   6.667   2.023
13681TIP3    H240985   4.051   6.795   2.094
13682TIP3   OH240986   6.167   6.216   1.055
13682TIP3    H140987   6.252   6.242   1.020
13682TIP3    H240988   6.140   6.143   1.000
13683TIP3   OH240989   2.532   6.012   2.127
13683TIP3    H140990   2.602   6.041   2.185
13683TIP3    H240991   2.574   5.952   2.065
13684TIP3   OH240992   6.700   6.375   5.125
13684TIP3    H140993   6.705   6.439   5.196
13684TIP3    H240994   6.719   6.291   5.167
13685TIP3   OH240995   1.303   6.346   1.234
13685TIP3    H140996   1.303   6.304   1.148
13685TIP3    H240997   1.295   6.274   1.296
13686TIP3   OH240998   6.302   3.848   1.718
13686TIP3    H140999   6.279   3.829   1.627
13686TIP3    H241000   6.263   3.777   1.769
13687TIP3   OH241001   0.106   6.306   3.896
13687TIP3    H141002   0.133   6.396   3.915
13687TIP3    H241003   0.133   6.257   3.974
13688TIP3   OH241004   4.880   7.709   1.161
13688TIP3    H141005   4.973   7.721   1.142
13688TIP3    H241006   4.853   7.637   1.104
13689TIP3   OH241007   5.609   2.623   6.259
13689TIP3    H141008   5.615   2.589   6.170
13689TIP3    H241009   5.529   2.675   6.260
13690TIP3   OH241010   4.946   4.161   0.861
13690TIP3    H141011   4.885   4.234   0.870
13690TIP3    H241012   4.960   4.153   0.767
13691TIP3   OH241013   5.619   7.685   4.623
13691TIP3    H141014   5.590   7.595   4.631
13691TIP3    H241015   5.540   7.738   4.637
13692TIP3   OH241016   1.801   5.453   3.324
13692TIP3    H141017   1.876   5.493   3.280
13692TIP3    H241018   1.766   5.391   3.261
13693TIP3   OH241019   3.546   6.264   3.722
13693TIP3    H141020   3.459   6.276   3.683
13693TIP3    H241021   3.545   6.322   3.799
13694TIP3   OH241022   6.551   3.383   4.532
13694TIP3    H141023   6.637   3.412   4.563
13694TIP3    H241024   6.488   3.431   4.586
13695TIP3   OH241025   7.991   7.694   5.014
13695TIP3    H141026   8.002   7.599   5.011
13695TIP3    H241027   7.917   7.712   4.956
13696TIP3   OH241028   0.181   1.431   5.164
13696TIP3    H141029   0.158   1.479   5.084
13696TIP3    H241030   0.204   1.343   5.135
13697TIP3   OH241031   8.317   6.444   3.258
13697TIP3    H141032   8.362   6.510   3.205
13697TIP3    H241033   8.387   6.387   3.290
13698TIP3   OH241034   6.363   5.349   0.122
13698TIP3    H141035   6.303   5.345   0.196
13698TIP3    H241036   6.316   5.306   0.050
13699TIP3   OH241037   3.731   1.462   4.833
13699TIP3    H141038   3.700   1.509   4.911
13699TIP3    H241039   3.709   1.371   4.849
13700TIP3   OH241040   0.714   1.193   2.018
13700TIP3    H141041   0.696   1.193   1.924
13700TIP3    H241042   0.665   1.118   2.051
13701TIP3   OH241043   6.412   1.747   2.154
13701TIP3    H141044   6.467   1.739   2.076
13701TIP3    H241045   6.469   1.722   2.226
13702TIP3   OH241046   4.394   5.379   1.270
13702TIP3    H141047   4.397   5.354   1.178
13702TIP3    H241048   4.485   5.391   1.295
13703TIP3   OH241049   6.996   6.537   2.981
13703TIP3    H141050   6.914   6.564   3.022
13703TIP3    H241051   7.043   6.619   2.964
13704TIP3   OH241052   1.334   1.803   5.938
13704TIP3    H141053   1.273   1.775   5.869
13704TIP3    H241054   1.351   1.895   5.918
13705TIP3   OH241055   0.416   0.208   1.075
13705TIP3    H141056   0.362   0.199   0.997
13705TIP3    H241057   0.394   0.133   1.129
13706TIP3   OH241058   7.564   6.625   2.696
13706TIP3    H141059   7.576   6.700   2.753
13706TIP3    H241060   7.645   6.575   2.704
13707TIP3   OH241061   2.243   2.764   1.592
13707TIP3    H141062   2.213   2.827   1.657
13707TIP3    H241063   2.195   2.786   1.512
13708TIP3   OH241064   0.230   2.448   2.961
13708TIP3    H141065   0.156   2.508   2.974
13708TIP3    H241066   0.303   2.505   2.937
13709TIP3   OH241067   5.532   7.704   1.430
13709TIP3    H141068   5.454   7.753   1.459
13709TIP3    H241069   5.520   7.616   1.467
13710TIP3   OH241070   2.520   5.583   4.221
13710TIP3    H141071   2.497   5.653   4.160
13710TIP3    H241072   2.495   5.503   4.176
13711TIP3   OH241073   2.092   1.049   6.093
13711TIP3    H141074   2.187   1.044   6.101
13711TIP3    H241075   2.059   1.000   6.168
13712TIP3   OH241076   7.848   2.022   5.892
13712TIP3    H141077   7.836   2.029   5.797
13712TIP3    H241078   7.826   2.109   5.925
13713TIP3   OH241079   0.376   1.487   4.709
13713TIP3    H141080   0.322   1.525   4.778
13713TIP3    H241081   0.410   1.563   4.661
13714TIP3   OH241082   1.460   5.975   3.543
13714TIP3    H141083   1.518   5.937   3.477
13714TIP3    H241084   1.517   6.031   3.595
13715TIP3   OH241085   2.824   2.634   3.081
13715TIP3    H141086   2.850   2.550   3.042
13715TIP3    H241087   2.877   2.640   3.161
13716TIP3   OH241088   7.838   3.589   6.679
13716TIP3    H141089   7.800   3.663   6.632
13716TIP3    H241090   7.874   3.628   6.759
13717TIP3   OH241091   0.041   6.322   0.887
13717TIP3    H141092  -0.029   6.277   0.933
13717TIP3    H241093   0.116   6.263   0.893
13718TIP3   OH241094   2.402   1.789   0.892
13718TIP3    H141095   2.343   1.722   0.857
13718TIP3    H241096   2.354   1.871   0.880
13719TIP3   OH241097   2.807   4.846   6.698
13719TIP3    H141098   2.724   4.801   6.718
13719TIP3    H241099   2.832   4.813   6.612
13720TIP3   OH241100   5.456   6.634   0.007
13720TIP3    H141101   5.454   6.553   0.058
13720TIP3    H241102   5.365   6.664   0.008
13721TIP3   OH241103   1.788   3.954   5.112
13721TIP3    H141104   1.838   3.896   5.055
13721TIP3    H241105   1.726   3.896   5.157
13722TIP3   OH241106   6.470   7.236   0.932
13722TIP3    H141107   6.520   7.230   1.014
13722TIP3    H241108   6.423   7.153   0.927
13723TIP3   OH241109   5.775   5.988   3.104
13723TIP3    H141110   5.712   5.923   3.073
13723TIP3    H241111   5.724   6.068   3.115
13724TIP3   OH241112   5.857   4.774   1.619
13724TIP3    H141113   5.817   4.806   1.539
13724TIP3    H241114   5.907   4.697   1.593
13725TIP3   OH241115   0.463   0.126   0.794
13725TIP3    H141116   0.501   0.062   0.733
13725TIP3    H241117   0.534   0.188   0.811
13726TIP3   OH241118   0.535   6.979   2.554
13726TIP3    H141119   0.626   7.009   2.550
13726TIP3    H241120   0.540   6.886   2.529
13727TIP3   OH241121   7.660   6.127   6.454
13727TIP3    H141122   7.666   6.031   6.458
13727TIP3    H241123   7.600   6.150   6.526
13728TIP3   OH241124   7.347   5.421   2.988
13728TIP3    H141125   7.338   5.328   3.008
13728TIP3    H241126   7.396   5.422   2.905
13729TIP3   OH241127   0.029   1.556   2.239
13729TIP3    H141128   0.105   1.517   2.282
13729TIP3    H241129   0.010   1.634   2.291
13730TIP3   OH241130   0.919   0.670   0.085
13730TIP3    H141131   0.967   0.721   0.150
13730TIP3    H241132   0.869   0.736   0.036
13731TIP3   OH241133   5.367   1.431   5.875
13731TIP3    H141134   5.312   1.374   5.822
13731TIP3    H241135   5.367   1.515   5.829
13732TIP3   OH241136   3.127   1.354   0.038
13732TIP3    H141137   3.057   1.402  -0.007
13732TIP3    H241138   3.137   1.274  -0.013
13733TIP3   OH241139   0.583   3.529   3.177
13733TIP3    H141140   0.645   3.563   3.242
13733TIP3    H241141   0.556   3.606   3.127
13734TIP3   OH241142   3.173   7.816   6.350
13734TIP3    H141143   3.099   7.770   6.390
13734TIP3    H241144   3.158   7.908   6.372
13735TIP3   OH241145   7.753   3.325   3.018
13735TIP3    H141146   7.840   3.364   3.010
13735TIP3    H241147   7.745   3.305   3.112
13736TIP3   OH241148   0.381   4.772   3.772
13736TIP3    H141149   0.449   4.778   3.705
13736TIP3    H241150   0.305   4.816   3.733
13737TIP3   OH241151   6.549   5.871   3.620
13737TIP3    H141152   6.501   5.864   3.703
13737TIP3    H241153   6.544   5.783   3.583
13738TIP3   OH241154   2.470   2.413   1.667
13738TIP3    H141155   2.531   2.464   1.720
13738TIP3    H241156   2.396   2.395   1.725
13739TIP3   OH241157   3.030   3.435   6.619
13739TIP3    H141158   3.010   3.528   6.634
13739TIP3    H241159   3.118   3.436   6.581
13740TIP3   OH241160   1.408   1.895   2.912
13740TIP3    H141161   1.411   1.863   3.002
13740TIP3    H241162   1.317   1.886   2.886
13741TIP3   OH241163   1.440   4.285   2.266
13741TIP3    H141164   1.386   4.212   2.297
13741TIP3    H241165   1.403   4.308   2.180
13742TIP3   OH241166   7.466   5.343   5.098
13742TIP3    H141167   7.529   5.409   5.069
13742TIP3    H241168   7.422   5.384   5.173
13743TIP3   OH241169   2.753   6.091   1.865
13743TIP3    H141170   2.844   6.115   1.882
13743TIP3    H241171   2.711   6.172   1.836
13744TIP3   OH241172   0.701   6.216   0.974
13744TIP3    H141173   0.725   6.305   0.945
13744TIP3    H241174   0.606   6.214   0.969
13745TIP3   OH241175   3.772   6.097   3.649
13745TIP3    H141176   3.798   6.137   3.566
13745TIP3    H241177   3.700   6.151   3.680
13746TIP3   OH241178   1.063   4.399   2.208
13746TIP3    H141179   1.019   4.405   2.124
13746TIP3    H241180   1.157   4.399   2.186
13747TIP3   OH241181   7.756   4.378   3.591
13747TIP3    H141182   7.776   4.455   3.645
13747TIP3    H241183   7.740   4.308   3.654
13748TIP3   OH241184   0.673   3.496   6.564
13748TIP3    H141185   0.711   3.507   6.476
13748TIP3    H241186   0.598   3.439   6.550
13749TIP3   OH241187   1.291   7.423   6.681
13749TIP3    H141188   1.310   7.332   6.702
13749TIP3    H241189   1.196   7.426   6.668
13750TIP3   OH241190   2.396   2.115   2.079
13750TIP3    H141191   2.478   2.083   2.116
13750TIP3    H241192   2.381   2.199   2.123
13751TIP3   OH241193   6.423   3.050   0.898
13751TIP3    H141194   6.424   2.968   0.848
13751TIP3    H241195   6.332   3.061   0.924
13752TIP3   OH241196   2.446   2.568   1.941
13752TIP3    H141197   2.373   2.521   1.900
13752TIP3    H241198   2.516   2.502   1.947
13753TIP3   OH241199   2.257   6.634   6.204
13753TIP3    H141200   2.298   6.605   6.286
13753TIP3    H241201   2.164   6.616   6.215
13754TIP3   OH241202   4.314   1.878   2.419
13754TIP3    H141203   4.236   1.933   2.417
13754TIP3    H241204   4.373   1.918   2.355
13755TIP3   OH241205   6.756   5.199   6.109
13755TIP3    H141206   6.776   5.195   6.203
13755TIP3    H241207   6.755   5.293   6.089
13756TIP3   OH241208   7.595   3.702   3.562
13756TIP3    H141209   7.512   3.667   3.531
13756TIP3    H241210   7.655   3.689   3.488
13757TIP3   OH241211   6.854   7.506   3.190
13757TIP3    H141212   6.944   7.529   3.214
13757TIP3    H241213   6.812   7.590   3.173
13758TIP3   OH241214   7.618   6.825   4.891
13758TIP3    H141215   7.613   6.847   4.798
13758TIP3    H241216   7.579   6.901   4.936
13759TIP3   OH241217   1.758   1.969   3.019
13759TIP3    H141218   1.806   1.890   3.043
13759TIP3    H241219   1.722   1.951   2.932
13760TIP3   OH241220   3.578   5.344   4.143
13760TIP3    H141221   3.655   5.354   4.199
13760TIP3    H241222   3.506   5.381   4.194
13761TIP3   OH241223   5.960   2.073   2.976
13761TIP3    H141224   5.920   1.987   2.969
13761TIP3    H241225   5.899   2.124   3.029
13762TIP3   OH241226   4.399   0.954   4.910
13762TIP3    H141227   4.441   0.913   4.835
13762TIP3    H241228   4.438   0.912   4.986
13763TIP3   OH241229   6.309   5.031   5.882
13763TIP3    H141230   6.329   5.118   5.848
13763TIP3    H241231   6.285   5.045   5.973
13764TIP3   OH241232   1.463   3.553   5.579
13764TIP3    H141233   1.368   3.554   5.567
13764TIP3    H241234   1.489   3.645   5.575
13765TIP3   OH241235   6.951   0.705   2.075
13765TIP3    H141236   7.037   0.696   2.034
13765TIP3    H241237   6.959   0.655   2.157
13766TIP3   OH241238   1.945   6.099   5.095
13766TIP3    H141239   1.997   6.169   5.133
13766TIP3    H241240   2.002   6.059   5.029
13767TIP3   OH241241   5.069   6.598   4.480
13767TIP3    H141242   5.029   6.680   4.509
13767TIP3    H241243   4.995   6.547   4.444
13768TIP3   OH241244   5.375   0.214   0.722
13768TIP3    H141245   5.366   0.276   0.794
13768TIP3    H241246   5.453   0.243   0.675
13769TIP3   OH241247   5.305   4.296   5.171
13769TIP3    H141248   5.288   4.391   5.176
13769TIP3    H241249   5.320   4.270   5.262
13770TIP3   OH241250   2.134   4.084   5.509
13770TIP3    H141251   2.073   4.047   5.445
13770TIP3    H241252   2.080   4.144   5.560
13771TIP3   OH241253   0.138   4.174   5.518
13771TIP3    H141254   0.162   4.081   5.521
13771TIP3    H241255   0.172   4.210   5.599
13772TIP3   OH241256   3.664   3.779   1.574
13772TIP3    H141257   3.634   3.785   1.484
13772TIP3    H241258   3.658   3.686   1.595
13773TIP3   OH241259   0.722   5.796   1.749
13773TIP3    H141260   0.680   5.711   1.760
13773TIP3    H241261   0.672   5.838   1.678
13774TIP3   OH241262   5.326   0.144   3.461
13774TIP3    H141263   5.334   0.049   3.466
13774TIP3    H241264   5.264   0.166   3.530
13775TIP3   OH241265   8.118   3.883   1.874
13775TIP3    H141266   8.074   3.959   1.836
13775TIP3    H241267   8.143   3.829   1.800
13776TIP3   OH241268   1.262   5.856   6.779
13776TIP3    H141269   1.251   5.791   6.710
13776TIP3    H241270   1.338   5.907   6.752
13777TIP3   OH241271   1.984   2.749   2.771
13777TIP3    H141272   2.047   2.794   2.715
13777TIP3    H241273   1.980   2.660   2.736
13778TIP3   OH241274   4.917   5.292   5.260
13778TIP3    H141275   4.897   5.355   5.191
13778TIP3    H241276   4.909   5.342   5.342
13779TIP3   OH241277   1.440   6.984   2.644
13779TIP3    H141278   1.445   6.948   2.733
13779TIP3    H241279   1.486   6.920   2.590
13780TIP3   OH241280   8.052   2.910   0.889
13780TIP3    H141281   8.132   2.918   0.941
13780TIP3    H241282   8.055   2.821   0.853
13781TIP3   OH241283   7.301   5.288   1.363
13781TIP3    H141284   7.224   5.259   1.312
13781TIP3    H241285   7.343   5.354   1.308
13782TIP3   OH241286   1.708   2.213   1.552
13782TIP3    H141287   1.774   2.280   1.536
13782TIP3    H241288   1.624   2.257   1.536
13783TIP3   OH241289   3.046   4.275   0.494
13783TIP3    H141290   3.136   4.273   0.462
13783TIP3    H241291   2.993   4.290   0.415
13784TIP3   OH241292   5.228   3.672   0.798
13784TIP3    H141293   5.272   3.731   0.858
13784TIP3    H241294   5.295   3.648   0.734
13785TIP3   OH241295   4.986   5.528   2.354
13785TIP3    H141296   4.901   5.520   2.311
13785TIP3    H241297   5.049   5.522   2.282
13786TIP3   OH241298   3.962   7.907   4.247
13786TIP3    H141299   4.003   7.834   4.201
13786TIP3    H241300   4.000   7.905   4.335
13787TIP3   OH241301   5.115   4.692   4.257
13787TIP3    H141302   5.060   4.647   4.193
13787TIP3    H241303   5.199   4.646   4.253
13788TIP3   OH241304   2.109   5.638   4.178
13788TIP3    H141305   2.156   5.701   4.124
13788TIP3    H241306   2.043   5.690   4.224
13789TIP3   OH241307   2.297   1.613   4.614
13789TIP3    H141308   2.385   1.597   4.650
13789TIP3    H241309   2.299   1.573   4.527
13790TIP3   OH241310   2.439   0.828   5.253
13790TIP3    H141311   2.429   0.827   5.158
13790TIP3    H241312   2.532   0.845   5.267
13791TIP3   OH241313   3.744   6.198   0.814
13791TIP3    H141314   3.719   6.111   0.783
13791TIP3    H241315   3.832   6.212   0.777
13792TIP3   OH241316   7.669   7.535   5.804
13792TIP3    H141317   7.712   7.607   5.757
13792TIP3    H241318   7.741   7.488   5.846
13793TIP3   OH241319   0.205   6.496   1.470
13793TIP3    H141320   0.263   6.456   1.535
13793TIP3    H241321   0.118   6.494   1.511
13794TIP3   OH241322   6.097   7.707   3.861
13794TIP3    H141323   6.136   7.664   3.936
13794TIP3    H241324   6.020   7.654   3.839
13795TIP3   OH241325   5.516   0.993   2.836
13795TIP3    H141326   5.568   0.972   2.758
13795TIP3    H241327   5.549   1.078   2.865
13796TIP3   OH241328   1.351   4.747   3.215
13796TIP3    H141329   1.307   4.666   3.242
13796TIP3    H241330   1.441   4.736   3.246
13797TIP3   OH241331   3.164   2.790   5.175
13797TIP3    H141332   3.257   2.773   5.191
13797TIP3    H241333   3.147   2.750   5.090
13798TIP3   OH241334   4.930   2.987   3.047
13798TIP3    H141335   5.015   2.948   3.064
13798TIP3    H241336   4.890   2.996   3.134
13799TIP3   OH241337   0.234   4.231   2.692
13799TIP3    H141338   0.228   4.213   2.786
13799TIP3    H241339   0.159   4.185   2.654
13800TIP3   OH241340   0.186   5.026   4.668
13800TIP3    H141341   0.234   5.042   4.749
13800TIP3    H241342   0.168   4.932   4.670
13801TIP3   OH241343   0.039   3.064   0.966
13801TIP3    H141344   0.083   3.111   1.037
13801TIP3    H241345   0.110   3.033   0.910
13802TIP3   OH241346   5.710   0.461   3.203
13802TIP3    H141347   5.687   0.553   3.218
13802TIP3    H241348   5.763   0.463   3.123
13803TIP3   OH241349   4.672   3.934   6.512
13803TIP3    H141350   4.729   3.955   6.586
13803TIP3    H241351   4.722   3.962   6.435
13804TIP3   OH241352   3.907   4.858   1.777
13804TIP3    H141353   3.884   4.919   1.846
13804TIP3    H241354   3.823   4.827   1.742
13805TIP3   OH241355   1.074   2.624   0.604
13805TIP3    H141356   1.018   2.695   0.572
13805TIP3    H241357   1.163   2.653   0.584
13806TIP3   OH241358   5.051   3.540   5.299
13806TIP3    H141359   5.034   3.604   5.230
13806TIP3    H241360   5.111   3.585   5.359
13807TIP3   OH241361   1.808   2.899   4.070
13807TIP3    H141362   1.869   2.894   4.143
13807TIP3    H241363   1.752   2.974   4.090
13808TIP3   OH241364   1.062   5.434   1.576
13808TIP3    H141365   1.003   5.455   1.648
13808TIP3    H241366   1.137   5.493   1.589
13809TIP3   OH241367   3.869   4.624   4.025
13809TIP3    H141368   3.904   4.711   4.008
13809TIP3    H241369   3.826   4.599   3.943
13810TIP3   OH241370   5.991   3.911   3.188
13810TIP3    H141371   6.021   3.959   3.111
13810TIP3    H241372   6.056   3.931   3.256
13811TIP3   OH241373   7.887   1.081   2.881
13811TIP3    H141374   7.917   1.155   2.934
13811TIP3    H241375   7.904   1.107   2.791
13812TIP3   OH241376   0.865   0.365   3.689
13812TIP3    H141377   0.806   0.427   3.647
13812TIP3    H241378   0.877   0.296   3.625
13813TIP3   OH241379   0.106   6.076   5.727
13813TIP3    H141380   0.149   6.088   5.642
13813TIP3    H241381   0.021   6.039   5.705
13814TIP3   OH241382   4.627   6.739   3.600
13814TIP3    H141383   4.681   6.732   3.679
13814TIP3    H241384   4.564   6.667   3.608
13815TIP3   OH241385   5.064   4.608   3.453
13815TIP3    H141386   5.024   4.694   3.444
13815TIP3    H241387   5.097   4.587   3.365
13816TIP3   OH241388   4.381   7.465   5.354
13816TIP3    H141389   4.311   7.409   5.321
13816TIP3    H241390   4.360   7.478   5.446
13817TIP3   OH241391   2.951   0.409   1.653
13817TIP3    H141392   2.918   0.403   1.743
13817TIP3    H241393   3.020   0.475   1.657
13818TIP3   OH241394   5.904   1.480   6.753
13818TIP3    H141395   5.963   1.547   6.786
13818TIP3    H241396   5.908   1.488   6.657
13819TIP3   OH241397   0.554   2.193   1.601
13819TIP3    H141398   0.636   2.145   1.616
13819TIP3    H241399   0.489   2.124   1.587
13820TIP3   OH241400   5.892   7.657   6.410
13820TIP3    H141401   5.901   7.730   6.472
13820TIP3    H241402   5.825   7.686   6.348
13821TIP3   OH241403   5.741   6.029   4.827
13821TIP3    H141404   5.780   6.072   4.751
13821TIP3    H241405   5.689   5.958   4.791
13822TIP3   OH241406   0.012   4.190   1.987
13822TIP3    H141407   0.021   4.119   1.924
13822TIP3    H241408   0.043   4.268   1.941
13823TIP3   OH241409   6.525   5.742   6.671
13823TIP3    H141410   6.584   5.720   6.599
13823TIP3    H241411   6.504   5.659   6.712
13824TIP3   OH241412   6.881   1.225   0.176
13824TIP3    H141413   6.888   1.130   0.182
13824TIP3    H241414   6.882   1.244   0.082
13825TIP3   OH241415   6.369   1.095   4.301
13825TIP3    H141416   6.435   1.155   4.265
13825TIP3    H241417   6.304   1.085   4.231
13826TIP3   OH241418   7.085   5.622   5.062
13826TIP3    H141419   7.114   5.634   5.153
13826TIP3    H241420   7.066   5.529   5.055
13827TIP3   OH241421   0.064   4.630   5.644
13827TIP3    H141422  -0.020   4.627   5.691
13827TIP3    H241423   0.046   4.584   5.562
13828TIP3   OH241424   7.550   2.439   1.612
13828TIP3    H141425   7.591   2.501   1.672
13828TIP3    H241426   7.490   2.492   1.560
13829TIP3   OH241427   8.105   3.908   4.023
13829TIP3    H141428   8.021   3.881   4.059
13829TIP3    H241429   8.170   3.856   4.070
13830TIP3   OH241430   8.287   0.950   3.172
13830TIP3    H141431   8.303   0.939   3.078
13830TIP3    H241432   8.303   0.863   3.209
13831TIP3   OH241433   3.385   4.465   4.897
13831TIP3    H141434   3.368   4.461   4.991
13831TIP3    H241435   3.297   4.468   4.858
13832TIP3   OH241436   7.011   2.743   5.345
13832TIP3    H141437   6.998   2.755   5.250
13832TIP3    H241438   7.091   2.791   5.365
13833TIP3   OH241439   2.335   3.810   4.262
13833TIP3    H141440   2.429   3.797   4.273
13833TIP3    H241441   2.294   3.749   4.323
13834TIP3   OH241442   2.368   0.676   4.351
13834TIP3    H141443   2.430   0.611   4.383
13834TIP3    H241444   2.410   0.760   4.368
13835TIP3   OH241445   5.728   7.088   0.904
13835TIP3    H141446   5.753   7.116   0.992
13835TIP3    H241447   5.652   7.142   0.882
13836TIP3   OH241448   1.805   3.493   6.422
13836TIP3    H141449   1.793   3.515   6.329
13836TIP3    H241450   1.776   3.571   6.469
13837TIP3   OH241451   6.573   6.471   0.464
13837TIP3    H141452   6.495   6.422   0.440
13837TIP3    H241453   6.600   6.434   0.548
13838TIP3   OH241454   5.133   6.706   5.226
13838TIP3    H141455   5.136   6.728   5.319
13838TIP3    H241456   5.186   6.773   5.183
13839TIP3   OH241457   1.773   2.379   4.024
13839TIP3    H141458   1.751   2.451   4.083
13839TIP3    H241459   1.809   2.312   4.082
13840TIP3   OH241460   7.951   3.749   4.691
13840TIP3    H141461   8.001   3.678   4.651
13840TIP3    H241462   8.014   3.820   4.700
13841TIP3   OH241463   7.340   2.731   0.663
13841TIP3    H141464   7.401   2.757   0.594
13841TIP3    H241465   7.348   2.798   0.730
13842TIP3   OH241466   0.662   7.027   0.296
13842TIP3    H141467   0.581   7.079   0.295
13842TIP3    H241468   0.705   7.050   0.378
13843TIP3   OH241469   0.448   7.305   3.607
13843TIP3    H141470   0.454   7.218   3.648
13843TIP3    H241471   0.539   7.334   3.601
13844TIP3   OH241472   6.073   2.134   3.382
13844TIP3    H141473   6.127   2.190   3.326
13844TIP3    H241474   6.109   2.046   3.368
13845TIP3   OH241475   0.717   5.171   1.026
13845TIP3    H141476   0.738   5.187   1.118
13845TIP3    H241477   0.784   5.109   0.997
13846TIP3   OH241478   0.953   5.564   2.020
13846TIP3    H141479   0.965   5.652   2.054
13846TIP3    H241480   1.042   5.531   2.007
13847TIP3   OH241481   6.378   6.493   0.112
13847TIP3    H141482   6.453   6.517   0.058
13847TIP3    H241483   6.356   6.573   0.159
13848TIP3   OH241484   6.457   7.551   4.214
13848TIP3    H141485   6.499   7.554   4.128
13848TIP3    H241486   6.501   7.480   4.260
13849TIP3   OH241487   2.070   0.813   4.411
13849TIP3    H141488   1.982   0.844   4.389
13849TIP3    H241489   2.120   0.824   4.330
13850TIP3   OH241490   1.012   1.920   3.067
13850TIP3    H141491   1.050   1.970   2.995
13850TIP3    H241492   1.045   1.831   3.055
13851TIP3   OH241493   6.883   1.435   2.214
13851TIP3    H141494   6.883   1.366   2.280
13851TIP3    H241495   6.976   1.450   2.196
13852TIP3   OH241496   6.600   2.326   6.009
13852TIP3    H141497   6.555   2.341   5.925
13852TIP3    H241498   6.677   2.274   5.986
13853TIP3   OH241499   2.215   0.343   6.573
13853TIP3    H141500   2.135   0.291   6.581
13853TIP3    H241501   2.206   0.411   6.640
13854TIP3   OH241502   4.152   4.330   3.138
13854TIP3    H141503   4.166   4.323   3.043
13854TIP3    H241504   4.092   4.259   3.158
13855TIP3   OH241505   6.055   5.267   1.768
13855TIP3    H141506   5.977   5.313   1.736
13855TIP3    H241507   6.019   5.193   1.817
13856TIP3   OH241508   0.705   3.136   6.625
13856TIP3    H141509   0.613   3.149   6.603
13856TIP3    H241510   0.712   3.161   6.717
13857TIP3   OH241511   3.794   3.266   6.750
13857TIP3    H141512   3.743   3.250   6.830
13857TIP3    H241513   3.830   3.181   6.727
13858TIP3   OH241514   1.639   6.285   1.704
13858TIP3    H141515   1.699   6.358   1.686
13858TIP3    H241516   1.639   6.277   1.799
13859TIP3   OH241517   0.813   1.103   6.600
13859TIP3    H141518   0.900   1.121   6.636
13859TIP3    H241519   0.762   1.071   6.675
13860TIP3   OH241520   6.800   2.055   0.241
13860TIP3    H141521   6.861   2.036   0.312
13860TIP3    H241522   6.856   2.077   0.166
13861TIP3   OH241523   6.971   7.063   2.685
13861TIP3    H141524   6.903   7.072   2.752
13861TIP3    H241525   6.923   7.053   2.603
13862TIP3   OH241526   1.978   0.971   2.626
13862TIP3    H141527   2.059   0.945   2.669
13862TIP3    H241528   1.931   1.021   2.693
13863TIP3   OH241529   0.594   1.854   3.938
13863TIP3    H141530   0.566   1.808   3.860
13863TIP3    H241531   0.537   1.931   3.942
13864TIP3   OH241532   6.109   3.359   0.882
13864TIP3    H141533   6.112   3.301   0.958
13864TIP3    H241534   6.183   3.419   0.894
13865TIP3   OH241535   6.972   3.077   3.366
13865TIP3    H141536   6.989   3.077   3.272
13865TIP3    H241537   6.935   2.990   3.383
13866TIP3   OH241538   7.860   2.748   2.621
13866TIP3    H141539   7.873   2.804   2.698
13866TIP3    H241540   7.787   2.788   2.573
13867TIP3   OH241541   3.823   5.778   5.265
13867TIP3    H141542   3.888   5.776   5.195
13867TIP3    H241543   3.739   5.769   5.221
13868TIP3   OH241544   6.201   2.338   3.806
13868TIP3    H141545   6.169   2.390   3.880
13868TIP3    H241546   6.268   2.281   3.844
13869TIP3   OH241547   3.893   6.263   4.557
13869TIP3    H141548   3.917   6.318   4.632
13869TIP3    H241549   3.977   6.239   4.517
13870TIP3   OH241550   2.788   0.901   1.569
13870TIP3    H141551   2.716   0.847   1.599
13870TIP3    H241552   2.858   0.839   1.549
13871TIP3   OH241553   2.856   2.886   5.930
13871TIP3    H141554   2.935   2.849   5.891
13871TIP3    H241555   2.814   2.933   5.857
13872TIP3   OH241556   4.167   6.689   6.041
13872TIP3    H141557   4.180   6.619   5.977
13872TIP3    H241558   4.082   6.727   6.019
13873TIP3   OH241559   6.408   3.159   3.179
13873TIP3    H141560   6.421   3.103   3.255
13873TIP3    H241561   6.400   3.247   3.216
13874TIP3   OH241562   7.222   3.207   3.845
13874TIP3    H141563   7.258   3.286   3.886
13874TIP3    H241564   7.129   3.227   3.833
13875TIP3   OH241565   7.495   5.470   5.822
13875TIP3    H141566   7.495   5.374   5.821
13875TIP3    H241567   7.551   5.495   5.749
13876TIP3   OH241568   5.163   2.734   6.537
13876TIP3    H141569   5.130   2.822   6.520
13876TIP3    H241570   5.242   2.747   6.590
13877TIP3   OH241571   5.571   2.298   4.778
13877TIP3    H141572   5.614   2.371   4.824
13877TIP3    H241573   5.527   2.340   4.704
13878TIP3   OH241574   1.963   4.777   2.184
13878TIP3    H141575   2.001   4.832   2.253
13878TIP3    H241576   2.014   4.797   2.106
13879TIP3   OH241577   5.908   0.058   6.670
13879TIP3    H141578   5.968   0.072   6.596
13879TIP3    H241579   5.914   0.139   6.722
13880TIP3   OH241580   7.340   1.987   5.957
13880TIP3    H141581   7.390   2.065   5.981
13880TIP3    H241582   7.252   2.003   5.991
13881TIP3   OH241583   1.848   3.405   4.478
13881TIP3    H141584   1.795   3.422   4.556
13881TIP3    H241585   1.891   3.321   4.495
13882TIP3   OH241586   7.562   5.375   2.156
13882TIP3    H141587   7.575   5.323   2.076
13882TIP3    H241588   7.535   5.311   2.222
13883TIP3   OH241589   2.145   4.437   3.283
13883TIP3    H141590   2.187   4.501   3.224
13883TIP3    H241591   2.120   4.365   3.225
13884TIP3   OH241592   7.307   0.668   2.154
13884TIP3    H141593   7.317   0.584   2.199
13884TIP3    H241594   7.359   0.729   2.207
13885TIP3   OH241595   1.610   3.184   2.401
13885TIP3    H141596   1.678   3.208   2.338
13885TIP3    H241597   1.544   3.139   2.349
13886TIP3   OH241598   1.228   4.785   6.099
13886TIP3    H141599   1.259   4.729   6.170
13886TIP3    H241600   1.135   4.800   6.119
13887TIP3   OH241601   2.280   3.279   1.978
13887TIP3    H141602   2.324   3.234   1.906
13887TIP3    H241603   2.252   3.209   2.037
13888TIP3   OH241604   2.336   1.723   3.651
13888TIP3    H141605   2.424   1.753   3.627
13888TIP3    H241606   2.286   1.803   3.662
13889TIP3   OH241607   6.993   4.212   1.919
13889TIP3    H141608   7.002   4.280   1.853
13889TIP3    H241609   6.899   4.205   1.934
13890TIP3   OH241610   0.862   0.067   3.345
13890TIP3    H141611   0.851  -0.026   3.328
13890TIP3    H241612   0.782   0.107   3.312
13891TIP3   OH241613   7.705   4.626   4.321
13891TIP3    H141614   7.635   4.683   4.291
13891TIP3    H241615   7.711   4.641   4.415
13892TIP3   OH241616   3.953   6.369   1.500
13892TIP3    H141617   3.899   6.448   1.513
13892TIP3    H241618   4.032   6.385   1.552
13893TIP3   OH241619   4.316   3.705   0.542
13893TIP3    H141620   4.342   3.734   0.454
13893TIP3    H241621   4.351   3.773   0.600
13894TIP3   OH241622   2.028   6.768   5.916
13894TIP3    H141623   2.051   6.855   5.947
13894TIP3    H241624   1.950   6.744   5.965
13895TIP3   OH241625   8.143   7.612   0.584
13895TIP3    H141626   8.229   7.635   0.549
13895TIP3    H241627   8.082   7.672   0.540
13896TIP3   OH241628   7.252   4.675   6.104
13896TIP3    H141629   7.177   4.648   6.051
13896TIP3    H241630   7.214   4.731   6.172
13897TIP3   OH241631   2.889   1.280   4.275
13897TIP3    H141632   2.879   1.364   4.320
13897TIP3    H241633   2.942   1.227   4.334
13898TIP3   OH241634   5.886   2.362   3.222
13898TIP3    H141635   5.946   2.397   3.288
13898TIP3    H241636   5.836   2.295   3.269
13899TIP3   OH241637   4.678   4.160   0.337
13899TIP3    H141638   4.658   4.082   0.387
13899TIP3    H241639   4.595   4.185   0.296
13900TIP3   OH241640   7.359   0.804   1.181
13900TIP3    H141641   7.441   0.790   1.133
13900TIP3    H241642   7.387   0.826   1.270
13901TIP3   OH241643   1.335   6.625   1.441
13901TIP3    H141644   1.349   6.536   1.408
13901TIP3    H241645   1.423   6.655   1.466
13902TIP3   OH241646   0.867   2.945   3.449
13902TIP3    H141647   0.926   2.982   3.383
13902TIP3    H241648   0.780   2.975   3.422
13903TIP3   OH241649   4.006   7.750   6.783
13903TIP3    H141650   3.999   7.750   6.687
13903TIP3    H241651   3.965   7.832   6.810
13904TIP3   OH241652   7.843   1.083   1.325
13904TIP3    H141653   7.804   1.123   1.247
13904TIP3    H241654   7.937   1.096   1.314
13905TIP3   OH241655   5.453   0.004   0.935
13905TIP3    H141656   5.419   0.087   0.901
13905TIP3    H241657   5.420   0.000   1.025
13906TIP3   OH241658   5.601   5.815   1.818
13906TIP3    H141659   5.652   5.887   1.781
13906TIP3    H241660   5.516   5.854   1.840
13907TIP3   OH241661   7.465   3.687   2.286
13907TIP3    H141662   7.387   3.634   2.272
13907TIP3    H241663   7.537   3.634   2.254
13908TIP3   OH241664   7.367   3.406   0.542
13908TIP3    H141665   7.295   3.373   0.487
13908TIP3    H241666   7.334   3.399   0.632
13909TIP3   OH241667   4.273   6.827   3.599
13909TIP3    H141668   4.283   6.775   3.679
13909TIP3    H241669   4.253   6.915   3.631
13910TIP3   OH241670   2.783   3.617   6.771
13910TIP3    H141671   2.797   3.557   6.845
13910TIP3    H241672   2.692   3.601   6.746
13911TIP3   OH241673   6.765   6.979   1.548
13911TIP3    H141674   6.700   6.949   1.612
13911TIP3    H241675   6.849   6.968   1.592
13912TIP3   OH241676   0.701   6.808   5.305
13912TIP3    H141677   0.701   6.882   5.244
13912TIP3    H241678   0.707   6.850   5.391
13913TIP3   OH241679   6.076   1.534   0.833
13913TIP3    H141680   6.158   1.566   0.871
13913TIP3    H241681   6.008   1.579   0.882
13914TIP3   OH241682   1.303   0.987   1.279
13914TIP3    H141683   1.324   0.893   1.279
13914TIP3    H241684   1.302   1.011   1.186
13915TIP3   OH241685   3.344   2.681   5.522
13915TIP3    H141686   3.266   2.647   5.565
13915TIP3    H241687   3.366   2.761   5.570
13916TIP3   OH241688   3.480   1.088   3.744
13916TIP3    H141689   3.511   1.138   3.668
13916TIP3    H241690   3.533   1.118   3.817
13917TIP3   OH241691   1.154   4.633   5.398
13917TIP3    H141692   1.072   4.675   5.372
13917TIP3    H241693   1.197   4.697   5.455
13918TIP3   OH241694   6.857   7.310   4.149
13918TIP3    H141695   6.774   7.344   4.115
13918TIP3    H241696   6.918   7.319   4.077
13919TIP3   OH241697   2.010   4.853   6.625
13919TIP3    H141698   2.064   4.860   6.704
13919TIP3    H241699   1.920   4.860   6.657
13920TIP3   OH241700   3.733   7.268   1.942
13920TIP3    H141701   3.667   7.209   1.906
13920TIP3    H241702   3.686   7.351   1.956
13921TIP3   OH241703   6.336   7.865   2.387
13921TIP3    H141704   6.413   7.824   2.426
13921TIP3    H241705   6.268   7.798   2.390
13922TIP3   OH241706   0.623   1.498   3.512
13922TIP3    H141707   0.690   1.553   3.553
13922TIP3    H241708   0.646   1.498   3.419
13923TIP3   OH241709   2.285   5.077   5.123
13923TIP3    H141710   2.338   5.027   5.185
13923TIP3    H241711   2.344   5.094   5.049
13924TIP3   OH241712   4.947   6.193   1.503
13924TIP3    H141713   4.852   6.201   1.499
13924TIP3    H241714   4.965   6.159   1.591
13925TIP3   OH241715   6.601   3.969   3.106
13925TIP3    H141716   6.618   3.913   3.182
13925TIP3    H241717   6.686   4.007   3.085
13926TIP3   OH241718   4.848   2.940   5.851
13926TIP3    H141719   4.770   2.955   5.905
13926TIP3    H241720   4.920   2.981   5.900
13927TIP3   OH241721   3.642   6.808   1.556
13927TIP3    H141722   3.625   6.747   1.627
13927TIP3    H241723   3.588   6.884   1.575
13928TIP3   OH241724   6.621   1.532   2.263
13928TIP3    H141725   6.715   1.514   2.260
13928TIP3    H241726   6.586   1.499   2.181
13929TIP3   OH241727   8.092   7.106   3.447
13929TIP3    H141728   8.152   7.041   3.410
13929TIP3    H241729   8.005   7.069   3.433
13930TIP3   OH241730   5.308   7.678   0.149
13930TIP3    H141731   5.312   7.621   0.072
13930TIP3    H241732   5.214   7.692   0.164
13931TIP3   OH241733   7.298   0.434   1.537
13931TIP3    H141734   7.257   0.396   1.459
13931TIP3    H241735   7.366   0.372   1.561
13932TIP3   OH241736   1.003   2.258   5.375
13932TIP3    H141737   0.996   2.238   5.282
13932TIP3    H241738   1.095   2.240   5.396
13933TIP3   OH241739   3.811   4.748   4.738
13933TIP3    H141740   3.895   4.717   4.772
13933TIP3    H241741   3.749   4.678   4.762
13934TIP3   OH241742   3.138   5.408   5.944
13934TIP3    H141743   3.054   5.434   5.907
13934TIP3    H241744   3.123   5.405   6.039
13935TIP3   OH241745   5.726   6.384   3.210
13935TIP3    H141746   5.740   6.445   3.282
13935TIP3    H241747   5.813   6.353   3.187
13936TIP3   OH241748   3.485   3.962   0.364
13936TIP3    H141749   3.432   3.883   0.369
13936TIP3    H241750   3.496   3.990   0.455
13937TIP3   OH241751   0.743   6.497   2.768
13937TIP3    H141752   0.835   6.514   2.745
13937TIP3    H241753   0.702   6.473   2.685
13938TIP3   OH241754   8.075   3.290   1.469
13938TIP3    H141755   8.087   3.319   1.378
13938TIP3    H241756   7.982   3.268   1.475
13939TIP3   OH241757   6.093   2.696   0.770
13939TIP3    H141758   6.047   2.619   0.737
13939TIP3    H241759   6.048   2.718   0.851
13940TIP3   OH241760   8.393   1.196   1.094
13940TIP3    H141761   8.421   1.150   1.174
13940TIP3    H241762   8.352   1.129   1.040
13941TIP3   OH241763   5.549   5.369   2.980
13941TIP3    H141764   5.600   5.334   3.052
13941TIP3    H241765   5.608   5.366   2.905
13942TIP3   OH241766   8.367   7.240   4.004
13942TIP3    H141767   8.370   7.145   4.011
13942TIP3    H241768   8.384   7.271   4.093
13943TIP3   OH241769   1.803   1.509   2.761
13943TIP3    H141770   1.752   1.455   2.700
13943TIP3    H241771   1.748   1.517   2.838
13944TIP3   OH241772   6.776   1.655   1.417
13944TIP3    H141773   6.789   1.571   1.373
13944TIP3    H241774   6.847   1.710   1.386
13945TIP3   OH241775   5.291   3.974   2.634
13945TIP3    H141776   5.385   3.982   2.650
13945TIP3    H241777   5.269   3.885   2.662
13946TIP3   OH241778   5.276   0.621   5.860
13946TIP3    H141779   5.210   0.552   5.855
13946TIP3    H241780   5.283   0.641   5.953
13947TIP3   OH241781   5.319   6.315   0.431
13947TIP3    H141782   5.280   6.359   0.506
13947TIP3    H241783   5.405   6.287   0.462
13948TIP3   OH241784   3.488   4.404   1.413
13948TIP3    H141785   3.424   4.463   1.373
13948TIP3    H241786   3.485   4.325   1.360
13949TIP3   OH241787   7.343   5.153   3.053
13949TIP3    H141788   7.416   5.092   3.037
13949TIP3    H241789   7.314   5.134   3.142
13950TIP3   OH241790   4.834   5.807   3.517
13950TIP3    H141791   4.805   5.751   3.445
13950TIP3    H241792   4.753   5.843   3.553
13951TIP3   OH241793   7.612   2.073   2.167
13951TIP3    H141794   7.523   2.095   2.140
13951TIP3    H241795   7.646   2.154   2.205
13952TIP3   OH241796   3.742   2.448   3.580
13952TIP3    H141797   3.801   2.384   3.620
13952TIP3    H241798   3.667   2.452   3.640
13953TIP3   OH241799   8.268   1.090   4.820
13953TIP3    H141800   8.205   1.157   4.793
13953TIP3    H241801   8.342   1.140   4.855
13954TIP3   OH241802   4.913   0.008   0.766
13954TIP3    H141803   4.901  -0.076   0.721
13954TIP3    H241804   4.960   0.062   0.702
13955TIP3   OH241805   5.355   4.550   4.250
13955TIP3    H141806   5.449   4.549   4.265
13955TIP3    H241807   5.344   4.506   4.165
13956TIP3   OH241808   2.423   5.396   0.152
13956TIP3    H141809   2.495   5.459   0.140
13956TIP3    H241810   2.388   5.418   0.239
13957TIP3   OH241811   7.461   2.707   2.093
13957TIP3    H141812   7.423   2.641   2.035
13957TIP3    H241813   7.389   2.769   2.109
13958TIP3   OH241814   3.876   3.814   4.918
13958TIP3    H141815   3.808   3.830   4.984
13958TIP3    H241816   3.958   3.833   4.964
13959TIP3   OH241817   0.983   2.521   4.463
13959TIP3    H141818   1.059   2.535   4.519
13959TIP3    H241819   0.924   2.466   4.515
13960TIP3   OH241820   7.016   5.529   6.573
13960TIP3    H141821   6.983   5.445   6.606
13960TIP3    H241822   6.970   5.595   6.625
13961TIP3   OH241823   7.822   4.525   3.827
13961TIP3    H141824   7.738   4.500   3.865
13961TIP3    H241825   7.849   4.602   3.878
13962TIP3   OH241826   8.363   4.729   1.873
13962TIP3    H141827   8.353   4.803   1.812
13962TIP3    H241828   8.453   4.735   1.903
13963TIP3   OH241829   0.289   6.822   3.708
13963TIP3    H141830   0.303   6.908   3.748
13963TIP3    H241831   0.235   6.840   3.631
13964TIP3   OH241832   7.772   5.665   3.219
13964TIP3    H141833   7.758   5.633   3.308
13964TIP3    H241834   7.816   5.593   3.174
13965TIP3   OH241835   7.421   1.787   2.287
13965TIP3    H141836   7.361   1.840   2.339
13965TIP3    H241837   7.485   1.753   2.350
13966TIP3   OH241838   2.781   1.871   2.774
13966TIP3    H141839   2.746   1.961   2.773
13966TIP3    H241840   2.720   1.823   2.831
13967TIP3   OH241841   4.405  -0.004   5.198
13967TIP3    H141842   4.464   0.044   5.139
13967TIP3    H241843   4.391   0.055   5.271
13968TIP3   OH241844   5.194   1.266   5.645
13968TIP3    H141845   5.178   1.228   5.559
13968TIP3    H241846   5.114   1.248   5.695
13969TIP3   OH241847   8.008   5.690   2.574
13969TIP3    H141848   8.094   5.720   2.602
13969TIP3    H241849   7.960   5.677   2.656
13970TIP3   OH241850   1.828   1.426   1.352
13970TIP3    H141851   1.781   1.426   1.269
13970TIP3    H241852   1.832   1.334   1.378
13971TIP3   OH241853   6.175   3.590   3.723
13971TIP3    H141854   6.181   3.645   3.645
13971TIP3    H241855   6.176   3.500   3.689
13972TIP3   OH241856   0.726   2.166   4.044
13972TIP3    H141857   0.765   2.094   3.992
13972TIP3    H241858   0.756   2.245   4.000
13973TIP3   OH241859   0.763   6.942   3.924
13973TIP3    H141860   0.768   6.853   3.958
13973TIP3    H241861   0.677   6.947   3.882
13974TIP3   OH241862   6.114   5.891   1.348
13974TIP3    H141863   6.202   5.903   1.312
13974TIP3    H241864   6.056   5.916   1.277
13975TIP3   OH241865   2.720   2.161   3.104
13975TIP3    H141866   2.788   2.149   3.037
13975TIP3    H241867   2.733   2.089   3.165
13976TIP3   OH241868   4.517   7.467   3.901
13976TIP3    H141869   4.480   7.464   3.989
13976TIP3    H241870   4.537   7.375   3.881
13977TIP3   OH241871   3.620   0.526   4.784
13977TIP3    H141872   3.596   0.467   4.856
13977TIP3    H241873   3.583   0.484   4.706
13978TIP3   OH241874   2.203   0.295   0.114
13978TIP3    H141875   2.148   0.239   0.170
13978TIP3    H241876   2.144   0.363   0.084
13979TIP3   OH241877   3.673   5.271   5.895
13979TIP3    H141878   3.729   5.304   5.825
13979TIP3    H241879   3.610   5.213   5.850
13980TIP3   OH241880   2.650   5.423   3.055
13980TIP3    H141881   2.694   5.408   3.138
13980TIP3    H241882   2.634   5.335   3.020
13981TIP3   OH241883   4.708   2.420   3.787
13981TIP3    H141884   4.771   2.410   3.716
13981TIP3    H241885   4.643   2.352   3.772
13982TIP3   OH241886   6.966   5.455   1.823
13982TIP3    H141887   7.022   5.504   1.764
13982TIP3    H241888   6.939   5.518   1.889
13983TIP3   OH241889   4.171   0.238   1.781
13983TIP3    H141890   4.111   0.178   1.825
13983TIP3    H241891   4.172   0.316   1.836
13984TIP3   OH241892   1.813   5.779   3.401
13984TIP3    H141893   1.853   5.716   3.342
13984TIP3    H241894   1.735   5.811   3.354
13985TIP3   OH241895   2.167   1.266   3.028
13985TIP3    H141896   2.236   1.212   2.989
13985TIP3    H241897   2.214   1.328   3.083
13986TIP3   OH241898   0.686   3.533   0.667
13986TIP3    H141899   0.765   3.481   0.652
13986TIP3    H241900   0.617   3.468   0.678
13987TIP3   OH241901   4.013   5.072   3.557
13987TIP3    H141902   3.952   5.063   3.484
13987TIP3    H241903   3.957   5.069   3.635
13988TIP3   OH241904   0.846   7.545   4.747
13988TIP3    H141905   0.893   7.474   4.790
13988TIP3    H241906   0.877   7.624   4.791
13989TIP3   OH241907   3.664   4.155   2.407
13989TIP3    H141908   3.651   4.061   2.418
13989TIP3    H241909   3.732   4.178   2.471
13990TIP3   OH241910   7.147   1.492   4.251
13990TIP3    H141911   7.218   1.440   4.212
13990TIP3    H241912   7.191   1.570   4.284
13991TIP3   OH241913   4.738   0.910   0.035
13991TIP3    H141914   4.772   0.999   0.029
13991TIP3    H241915   4.755   0.872  -0.052
13992TIP3   OH241916   5.362   7.723   0.606
13992TIP3    H141917   5.416   7.732   0.528
13992TIP3    H241918   5.418   7.678   0.669
13993TIP3   OH241919   2.164   6.479   1.766
13993TIP3    H141920   2.224   6.408   1.745
13993TIP3    H241921   2.220   6.554   1.785
13994TIP3   OH241922   5.328   6.948   3.873
13994TIP3    H141923   5.285   6.870   3.839
13994TIP3    H241924   5.421   6.926   3.873
13995TIP3   OH241925   3.100   6.990   0.969
13995TIP3    H141926   3.048   7.021   1.043
13995TIP3    H241927   3.091   7.058   0.902
13996TIP3   OH241928   5.364   7.489   3.434
13996TIP3    H141929   5.401   7.566   3.392
13996TIP3    H241930   5.309   7.523   3.504
13997TIP3   OH241931   6.393   6.371   6.071
13997TIP3    H141932   6.312   6.365   6.019
13997TIP3    H241933   6.381   6.309   6.142
13998TIP3   OH241934   0.791   0.335   5.918
13998TIP3    H141935   0.717   0.281   5.944
13998TIP3    H241936   0.755   0.395   5.852
13999TIP3   OH241937   4.379   4.094   2.573
13999TIP3    H141938   4.392   4.067   2.663
13999TIP3    H241939   4.284   4.100   2.562
14000TIP3   OH241940   6.784   6.232   0.776
14000TIP3    H141941   6.795   6.159   0.836
14000TIP3    H241942   6.869   6.276   0.775
14001TIP3   OH241943   7.854   3.694   3.399
14001TIP3    H141944   7.881   3.722   3.312
14001TIP3    H241945   7.863   3.599   3.397
14002TIP3   OH241946   7.477   4.777   4.239
14002TIP3    H141947   7.492   4.860   4.194
14002TIP3    H241948   7.382   4.774   4.250
14003TIP3   OH241949   6.808   3.528   2.770
14003TIP3    H141950   6.832   3.595   2.707
14003TIP3    H241951   6.785   3.577   2.849
14004TIP3   OH241952   6.146   1.797   3.119
14004TIP3    H141953   6.113   1.708   3.110
14004TIP3    H241954   6.177   1.802   3.210
14005TIP3   OH241955   7.048   2.002   6.055
14005TIP3    H141956   7.080   2.081   6.099
14005TIP3    H241957   6.993   1.959   6.120
14006TIP3   OH241958   7.988   5.981   4.802
14006TIP3    H141959   7.970   5.927   4.879
14006TIP3    H241960   8.071   5.946   4.768
14007TIP3   OH241961   7.734   7.602   3.372
14007TIP3    H141962   7.732   7.611   3.277
14007TIP3    H241963   7.823   7.628   3.397
14008TIP3   OH241964   2.377   0.167   4.247
14008TIP3    H141965   2.442   0.224   4.206
14008TIP3    H241966   2.385   0.186   4.341
14009TIP3   OH241967   3.408   4.612   4.506
14009TIP3    H141968   3.390   4.658   4.589
14009TIP3    H241969   3.403   4.519   4.530
14010TIP3   OH241970   1.808   4.080   3.373
14010TIP3    H141971   1.789   3.992   3.339
14010TIP3    H241972   1.726   4.127   3.366
14011TIP3   OH241973   3.792   1.410   3.255
14011TIP3    H141974   3.790   1.457   3.338
14011TIP3    H241975   3.762   1.474   3.190
14012TIP3   OH241976   7.365   0.680   2.486
14012TIP3    H141977   7.399   0.697   2.574
14012TIP3    H241978   7.295   0.744   2.475
14013TIP3   OH241979   0.851   6.415   3.743
14013TIP3    H141980   0.828   6.380   3.829
14013TIP3    H241981   0.770   6.457   3.712
14014TIP3   OH241982   2.115   3.858   2.051
14014TIP3    H141983   2.122   3.766   2.078
14014TIP3    H241984   2.042   3.892   2.102
14015TIP3   OH241985   4.567   2.127   6.592
14015TIP3    H141986   4.656   2.158   6.612
14015TIP3    H241987   4.558   2.139   6.498
14016TIP3   OH241988   1.710   2.156   6.040
14016TIP3    H141989   1.688   2.178   6.131
14016TIP3    H241990   1.627   2.129   6.001
14017TIP3   OH241991   0.651   6.820   0.673
14017TIP3    H141992   0.577   6.793   0.619
14017TIP3    H241993   0.654   6.916   0.663
14018TIP3   OH241994  -0.032   0.293   3.166
14018TIP3    H141995  -0.046   0.337   3.250
14018TIP3    H241996   0.057   0.258   3.172
14019TIP3   OH241997   6.003   6.990   5.732
14019TIP3    H141998   6.030   6.905   5.696
14019TIP3    H241999   5.922   7.011   5.685
14020TIP3   OH242000   2.694   7.504   2.892
14020TIP3    H142001   2.611   7.550   2.903
14020TIP3    H242002   2.669   7.411   2.887
14021TIP3   OH242003   2.933   6.583   1.837
14021TIP3    H142004   2.983   6.632   1.772
14021TIP3    H242005   2.952   6.628   1.920
14022TIP3   OH242006   5.900   0.517   0.185
14022TIP3    H142007   5.883   0.611   0.179
14022TIP3    H242008   5.948   0.496   0.104
14023TIP3   OH242009   8.344   4.349   0.277
14023TIP3    H142010   8.298   4.377   0.357
14023TIP3    H242011   8.436   4.366   0.295
14024TIP3   OH242012   6.862   5.967   5.004
14024TIP3    H142013   6.912   6.038   4.965
14024TIP3    H242014   6.808   6.009   5.071
14025TIP3   OH242015   1.610   6.789   3.538
14025TIP3    H142016   1.697   6.768   3.571
14025TIP3    H242017   1.574   6.851   3.601
14026TIP3   OH242018   6.451   6.937   6.765
14026TIP3    H142019   6.504   6.885   6.826
14026TIP3    H242020   6.515   6.985   6.713
14027TIP3   OH242021   6.470   6.447   1.220
14027TIP3    H142022   6.381   6.415   1.231
14027TIP3    H242023   6.463   6.541   1.236
14028TIP3   OH242024   6.831   4.364   3.397
14028TIP3    H142025   6.918   4.376   3.358
14028TIP3    H242026   6.845   4.301   3.468
14029TIP3   OH242027   2.840   2.391   3.709
14029TIP3    H142028   2.840   2.484   3.687
14029TIP3    H242029   2.856   2.388   3.803
14030TIP3   OH242030   3.451   1.278   2.331
14030TIP3    H142031   3.532   1.235   2.357
14030TIP3    H242032   3.384   1.211   2.342
14031TIP3   OH242033   7.583   7.305   3.649
14031TIP3    H142034   7.545   7.387   3.620
14031TIP3    H242035   7.617   7.264   3.569
14032TIP3   OH242036   1.113   6.952   4.537
14032TIP3    H142037   1.188   6.896   4.519
14032TIP3    H242038   1.039   6.891   4.542
14033TIP3   OH242039   2.773   6.480   4.785
14033TIP3    H142040   2.692   6.428   4.784
14033TIP3    H242041   2.745   6.568   4.810
14034TIP3   OH242042   3.646   0.172   5.394
14034TIP3    H142043   3.555   0.178   5.364
14034TIP3    H242044   3.697   0.210   5.322
14035TIP3   OH242045   5.541   3.597   3.974
14035TIP3    H142046   5.624   3.620   4.016
14035TIP3    H242047   5.567   3.560   3.890
14036TIP3   OH242048   1.358   0.010   3.755
14036TIP3    H142049   1.443  -0.016   3.720
14036TIP3    H242050   1.320  -0.071   3.789
14037TIP3   OH242051   4.555   6.477   5.523
14037TIP3    H142052   4.509   6.470   5.607
14037TIP3    H242053   4.504   6.423   5.463
14038TIP3   OH242054   0.183   1.301   3.441
14038TIP3    H142055   0.143   1.356   3.374
14038TIP3    H242056   0.232   1.362   3.496
14039TIP3   OH242057   6.988   6.179   5.759
14039TIP3    H142058   6.911   6.124   5.773
14039TIP3    H242059   6.997   6.229   5.840
14040TIP3   OH242060   5.872   3.936   4.398
14040TIP3    H142061   5.936   3.949   4.328
14040TIP3    H242062   5.860   4.023   4.436
14041TIP3   OH242063   5.549   7.493   2.756
14041TIP3    H142064   5.463   7.451   2.750
14041TIP3    H242065   5.535   7.581   2.722
14042TIP3   OH242066   2.239   7.620   3.587
14042TIP3    H142067   2.150   7.586   3.582
14042TIP3    H242068   2.280   7.593   3.505
14043TIP3   OH242069   7.010   1.830   1.395
14043TIP3    H142070   7.098   1.824   1.432
14043TIP3    H242071   6.963   1.889   1.454
14044TIP3   OH242072   6.592   3.307   5.123
14044TIP3    H142073   6.549   3.391   5.107
14044TIP3    H242074   6.682   3.320   5.095
14045TIP3   OH242075   3.564   5.489   2.543
14045TIP3    H142076   3.598   5.564   2.494
14045TIP3    H242077   3.553   5.421   2.477
14046TIP3   OH242078   0.455   0.943   1.947
14046TIP3    H142079   0.446   0.982   2.034
14046TIP3    H242080   0.468   1.017   1.889
14047TIP3   OH242081   0.486   0.397   2.327
14047TIP3    H142082   0.541   0.335   2.279
14047TIP3    H242083   0.544   0.472   2.344
14048TIP3   OH242084   1.019   5.122   0.853
14048TIP3    H142085   1.110   5.099   0.873
14048TIP3    H242086   0.992   5.058   0.787
14049TIP3   OH242087   1.295   5.261   2.269
14049TIP3    H142088   1.285   5.177   2.224
14049TIP3    H242089   1.349   5.241   2.346
14050TIP3   OH242090   5.419   2.651   4.822
14050TIP3    H142091   5.457   2.603   4.749
14050TIP3    H242092   5.387   2.732   4.784
14051TIP3   OH242093   1.722   4.615   1.448
14051TIP3    H142094   1.647   4.638   1.394
14051TIP3    H242095   1.783   4.572   1.388
14052TIP3   OH242096   5.682   0.798   1.829
14052TIP3    H142097   5.730   0.877   1.805
14052TIP3    H242098   5.593   0.829   1.846
14053TIP3   OH242099   6.567   5.100   1.078
14053TIP3    H142100   6.649   5.114   1.031
14053TIP3    H242101   6.516   5.041   1.022
14054TIP3   OH242102   0.187   6.948   3.433
14054TIP3    H142103   0.154   6.866   3.396
14054TIP3    H242104   0.218   6.997   3.357
14055TIP3   OH242105   7.595   4.338   0.876
14055TIP3    H142106   7.659   4.407   0.856
14055TIP3    H242107   7.567   4.306   0.790
14056TIP3   OH242108   4.770   7.038   6.115
14056TIP3    H142109   4.775   7.042   6.210
14056TIP3    H242110   4.677   7.052   6.095
14057TIP3   OH242111   4.588   2.027   4.578
14057TIP3    H142112   4.677   1.998   4.564
14057TIP3    H242113   4.552   2.040   4.491
14058TIP3   OH242114   5.551   5.913   2.584
14058TIP3    H142115   5.572   5.822   2.606
14058TIP3    H242116   5.609   5.934   2.511
14059TIP3   OH242117   1.773   0.236   2.893
14059TIP3    H142118   1.849   0.243   2.950
14059TIP3    H242119   1.698   0.243   2.953
14060TIP3   OH242120   8.329   7.341   3.590
14060TIP3    H142121   8.299   7.253   3.613
14060TIP3    H242122   8.263   7.373   3.528
14061TIP3   OH242123   5.055   5.673   5.397
14061TIP3    H142124   5.058   5.760   5.435
14061TIP3    H242125   5.105   5.681   5.315
14062TIP3   OH242126   6.078   6.817   2.030
14062TIP3    H142127   6.172   6.830   2.023
14062TIP3    H242128   6.041   6.881   1.969
14063TIP3   OH242129   6.139   0.243   2.933
14063TIP3    H142130   6.203   0.173   2.923
14063TIP3    H242131   6.095   0.225   3.016
14064TIP3   OH242132   6.133   7.356   3.934
14064TIP3    H142133   6.068   7.305   3.886
14064TIP3    H242134   6.217   7.329   3.895
14065TIP3   OH242135   2.800   3.331   4.664
14065TIP3    H142136   2.726   3.304   4.719
14065TIP3    H242137   2.872   3.345   4.725
14066TIP3   OH242138   1.644   2.012   2.742
14066TIP3    H142139   1.612   1.925   2.717
14066TIP3    H242140   1.580   2.044   2.805
14067TIP3   OH242141   7.202   0.988   4.333
14067TIP3    H142142   7.280   1.027   4.373
14067TIP3    H242143   7.150   0.959   4.408
14068TIP3   OH242144   5.906   4.876   0.306
14068TIP3    H142145   5.884   4.878   0.213
14068TIP3    H242146   5.942   4.962   0.324
14069TIP3   OH242147   3.645   6.258   2.828
14069TIP3    H142148   3.640   6.225   2.917
14069TIP3    H242149   3.738   6.266   2.809
14070TIP3   OH242150   0.076   4.377   6.659
14070TIP3    H142151   0.012   4.442   6.687
14070TIP3    H242152   0.055   4.299   6.711
14071TIP3   OH242153   1.695   3.903   2.082
14071TIP3    H142154   1.691   3.888   1.988
14071TIP3    H242155   1.786   3.926   2.099
14072TIP3   OH242156   4.762   1.287   0.716
14072TIP3    H142157   4.675   1.249   0.704
14072TIP3    H242158   4.769   1.300   0.810
14073TIP3   OH242159   6.430   0.161   2.140
14073TIP3    H142160   6.385   0.167   2.056
14073TIP3    H242161   6.515   0.204   2.125
14074TIP3   OH242162   4.268   7.041   3.754
14074TIP3    H142163   4.286   7.122   3.802
14074TIP3    H242164   4.207   6.993   3.810
14075TIP3   OH242165   6.996   5.372   1.398
14075TIP3    H142166   7.046   5.303   1.354
14075TIP3    H242167   7.059   5.415   1.455
14076TIP3   OH242168   5.192   5.574   6.265
14076TIP3    H142169   5.164   5.638   6.329
14076TIP3    H242170   5.287   5.572   6.271
14077TIP3   OH242171   0.152   0.839   2.708
14077TIP3    H142172   0.231   0.835   2.653
14077TIP3    H242173   0.153   0.757   2.757
14078TIP3   OH242174   3.477   7.812   2.511
14078TIP3    H142175   3.420   7.889   2.501
14078TIP3    H242176   3.529   7.831   2.590
14079TIP3   OH242177   2.370   1.551   3.895
14079TIP3    H142178   2.394   1.578   3.807
14079TIP3    H242179   2.334   1.463   3.884
14080TIP3   OH242180   2.552   0.276   0.987
14080TIP3    H142181   2.628   0.270   1.045
14080TIP3    H242182   2.494   0.204   1.015
14081TIP3   OH242183   0.442   6.978   5.407
14081TIP3    H142184   0.402   7.014   5.485
14081TIP3    H242185   0.535   7.001   5.415
14082TIP3   OH242186   7.757   6.576   5.642
14082TIP3    H142187   7.696   6.638   5.681
14082TIP3    H242188   7.748   6.496   5.695
14083TIP3   OH242189   0.873   5.542   6.299
14083TIP3    H142190   0.868   5.629   6.259
14083TIP3    H242191   0.879   5.482   6.224
14084TIP3   OH242192   0.614   4.516   6.162
14084TIP3    H142193   0.595   4.610   6.168
14084TIP3    H242194   0.644   4.492   6.250
14085TIP3   OH242195   0.204   7.141   5.304
14085TIP3    H142196   0.175   7.157   5.394
14085TIP3    H242197   0.232   7.050   5.304
14086TIP3   OH242198   0.760   2.305   0.243
14086TIP3    H142199   0.816   2.357   0.300
14086TIP3    H242200   0.735   2.229   0.297
14087TIP3   OH242201   2.037   6.722   4.788
14087TIP3    H142202   2.112   6.707   4.845
14087TIP3    H242203   1.972   6.766   4.843
14088TIP3   OH242204   4.129   4.520   0.113
14088TIP3    H142205   4.210   4.533   0.063
14088TIP3    H242206   4.071   4.589   0.080
14089TIP3   OH242207   7.014   3.949   4.631
14089TIP3    H142208   6.926   3.962   4.597
14089TIP3    H242209   7.025   3.854   4.633
14090TIP3   OH242210   6.364   3.416   3.370
14090TIP3    H142211   6.418   3.358   3.423
14090TIP3    H242212   6.330   3.481   3.432
14091TIP3   OH242213   6.387   3.823   5.906
14091TIP3    H142214   6.421   3.905   5.941
14091TIP3    H242215   6.357   3.844   5.818
14092TIP3   OH242216   0.480   1.200   1.201
14092TIP3    H142217   0.493   1.274   1.259
14092TIP3    H242218   0.394   1.165   1.224
14093TIP3   OH242219   7.576   5.524   1.916
14093TIP3    H142220   7.564   5.493   2.006
14093TIP3    H242221   7.670   5.539   1.908
14094TIP3   OH242222   2.866   7.507   4.957
14094TIP3    H142223   2.940   7.520   4.898
14094TIP3    H242224   2.902   7.525   5.044
14095TIP3   OH242225   1.883   3.811   3.529
14095TIP3    H142226   1.878   3.905   3.511
14095TIP3    H242227   1.876   3.770   3.442
14096TIP3   OH242228   4.326   2.014   5.810
14096TIP3    H142229   4.367   2.082   5.757
14096TIP3    H242230   4.280   1.959   5.747
14097TIP3   OH242231   3.482   0.924   2.811
14097TIP3    H142232   3.421   0.995   2.793
14097TIP3    H242233   3.548   0.931   2.742
14098TIP3   OH242234   6.297   3.770   2.725
14098TIP3    H142235   6.211   3.801   2.696
14098TIP3    H242236   6.359   3.818   2.670
14099TIP3   OH242237   5.048   7.719   5.184
14099TIP3    H142238   5.105   7.680   5.118
14099TIP3    H242239   5.088   7.695   5.268
14100TIP3   OH242240   7.953   5.617   3.752
14100TIP3    H142241   7.907   5.671   3.689
14100TIP3    H242242   8.041   5.655   3.757
14101TIP3   OH242243   7.798   1.380   3.872
14101TIP3    H142244   7.827   1.426   3.794
14101TIP3    H242245   7.746   1.307   3.839
14102TIP3   OH242246   1.041   3.889   2.782
14102TIP3    H142247   0.993   3.813   2.815
14102TIP3    H242248   1.112   3.851   2.730
14103TIP3   OH242249   2.775   0.156   3.960
14103TIP3    H142250   2.745   0.071   3.992
14103TIP3    H242251   2.751   0.217   4.030
14104TIP3   OH242252   0.382   1.210   2.640
14104TIP3    H142253   0.376   1.245   2.729
14104TIP3    H242254   0.456   1.150   2.644
14105TIP3   OH242255   2.822   1.115   2.518
14105TIP3    H142256   2.765   1.055   2.470
14105TIP3    H242257   2.818   1.083   2.609
14106TIP3   OH242258   3.598   6.299   4.559
14106TIP3    H142259   3.584   6.272   4.650
14106TIP3    H242260   3.530   6.253   4.510
14107TIP3   OH242261   2.987   0.142   5.747
14107TIP3    H142262   3.050   0.149   5.675
14107TIP3    H242263   2.916   0.201   5.722
14108TIP3   OH242264   1.530   5.361   2.040
14108TIP3    H142265   1.483   5.300   2.097
14108TIP3    H242266   1.538   5.442   2.091
14109TIP3   OH242267   7.801   4.877   0.189
14109TIP3    H142268   7.823   4.831   0.270
14109TIP3    H242269   7.823   4.815   0.120
14110TIP3   OH242270   8.385   1.802   2.396
14110TIP3    H142271   8.477   1.814   2.421
14110TIP3    H242272   8.336   1.845   2.465
14111TIP3   OH242273   5.635   2.907   4.864
14111TIP3    H142274   5.721   2.873   4.886
14111TIP3    H242275   5.585   2.902   4.945
14112TIP3   OH242276   6.869   4.989   3.344
14112TIP3    H142277   6.871   4.896   3.321
14112TIP3    H242278   6.958   5.020   3.327
14113TIP3   OH242279   5.087   2.850   4.313
14113TIP3    H142280   5.094   2.824   4.221
14113TIP3    H242281   5.004   2.814   4.342
14114TIP3   OH242282   3.049   4.685   2.264
14114TIP3    H142283   3.060   4.633   2.344
14114TIP3    H242284   3.004   4.626   2.204
14115TIP3   OH242285   1.670   7.647   6.474
14115TIP3    H142286   1.623   7.729   6.455
14115TIP3    H242287   1.762   7.673   6.475
14116TIP3   OH242288   5.658   1.554   4.727
14116TIP3    H142289   5.739   1.602   4.746
14116TIP3    H242290   5.677   1.507   4.646
14117TIP3   OH242291   3.936   4.199   6.214
14117TIP3    H142292   3.846   4.220   6.191
14117TIP3    H242293   3.949   4.110   6.180
14118TIP3   OH242294   6.061   1.078   5.392
14118TIP3    H142295   6.091   1.046   5.478
14118TIP3    H242296   5.966   1.066   5.395
14119TIP3   OH242297   3.696   6.713   3.901
14119TIP3    H142298   3.791   6.710   3.912
14119TIP3    H242299   3.671   6.624   3.878
14120TIP3   OH242300   2.312   7.642   2.652
14120TIP3    H142301   2.403   7.644   2.683
14120TIP3    H242302   2.310   7.570   2.589
14121TIP3   OH242303   2.067   7.040   2.405
14121TIP3    H142304   2.109   6.993   2.476
14121TIP3    H242305   1.976   7.010   2.407
14122TIP3   OH242306   6.236   6.594   2.634
14122TIP3    H142307   6.184   6.550   2.567
14122TIP3    H242308   6.267   6.524   2.690
14123TIP3   OH242309   4.779   3.015   0.552
14123TIP3    H142310   4.778   2.938   0.494
14123TIP3    H242311   4.687   3.040   0.559
14124TIP3   OH242312   4.348   6.618   4.157
14124TIP3    H142313   4.271   6.608   4.101
14124TIP3    H242314   4.407   6.549   4.129
14125TIP3   OH242315   0.619   4.604   1.297
14125TIP3    H142316   0.659   4.640   1.217
14125TIP3    H242317   0.542   4.558   1.266
14126TIP3   OH242318   8.224   5.205   0.314
14126TIP3    H142319   8.253   5.216   0.405
14126TIP3    H242320   8.214   5.294   0.282
14127TIP3   OH242321   5.136   2.773   0.122
14127TIP3    H142322   5.228   2.773   0.150
14127TIP3    H242323   5.135   2.715   0.046
14128TIP3   OH242324   5.247   6.683   3.713
14128TIP3    H142325   5.196   6.632   3.650
14128TIP3    H242326   5.211   6.659   3.798
14129TIP3   OH242327   6.127   2.172   6.218
14129TIP3    H142328   6.085   2.210   6.295
14129TIP3    H242329   6.208   2.221   6.207
14130TIP3   OH242330   0.725   4.084   5.957
14130TIP3    H142331   0.632   4.105   5.950
14130TIP3    H242332   0.745   4.039   5.875
14131TIP3   OH242333   2.921   7.943   0.971
14131TIP3    H142334   2.830   7.915   0.963
14131TIP3    H242335   2.948   7.960   0.880
14132TIP3   OH242336   3.008   2.813   3.444
14132TIP3    H142337   3.006   2.818   3.540
14132TIP3    H242338   2.922   2.844   3.416
14133TIP3   OH242339   3.931   6.983   6.562
14133TIP3    H142340   3.888   6.901   6.587
14133TIP3    H242341   4.019   6.956   6.536
14134TIP3   OH242342   2.391   2.358   2.874
14134TIP3    H142343   2.409   2.293   2.942
14134TIP3    H242344   2.396   2.442   2.919
14135TIP3   OH242345   2.056   5.889   5.657
14135TIP3    H142346   2.018   5.959   5.604
14135TIP3    H242347   2.069   5.817   5.596
14136TIP3   OH242348   0.231   1.073   1.269
14136TIP3    H142349   0.207   1.148   1.323
14136TIP3    H242350   0.209   0.996   1.322
14137TIP3   OH242351   4.240   5.384   5.464
14137TIP3    H142352   4.322   5.335   5.473
14137TIP3    H242353   4.254   5.440   5.388
14138TIP3   OH242354   1.235   1.971   3.322
14138TIP3    H142355   1.320   1.934   3.347
14138TIP3    H242356   1.257   2.033   3.251
14139TIP3   OH242357   6.652   3.775   0.789
14139TIP3    H142358   6.674   3.769   0.696
14139TIP3    H242359   6.563   3.812   0.790
14140TIP3   OH242360   2.751   3.917   1.790
14140TIP3    H142361   2.725   3.936   1.700
14140TIP3    H242362   2.802   3.836   1.784
14141TIP3   OH242363   1.452   1.247   6.062
14141TIP3    H142364   1.495   1.164   6.083
14141TIP3    H242365   1.497   1.278   5.984
14142TIP3   OH242366   4.904   0.630   6.095
14142TIP3    H142367   4.977   0.582   6.134
14142TIP3    H242368   4.829   0.607   6.149
14143TIP3   OH242369   3.201   3.408   3.797
14143TIP3    H142370   3.265   3.447   3.856
14143TIP3    H242371   3.248   3.396   3.714
14144TIP3   OH242372   5.940   6.799   5.937
14144TIP3    H142373   5.930   6.868   5.871
14144TIP3    H242374   5.868   6.739   5.920
14145TIP3   OH242375   4.092   2.947   0.694
14145TIP3    H142376   4.071   3.037   0.669
14145TIP3    H242377   4.187   2.945   0.700
14146TIP3   OH242378   7.636   7.627   1.464
14146TIP3    H142379   7.699   7.562   1.436
14146TIP3    H242380   7.552   7.596   1.430
14147TIP3   OH242381   5.525   4.650   1.354
14147TIP3    H142382   5.483   4.693   1.428
14147TIP3    H242383   5.481   4.565   1.347
14148TIP3   OH242384   7.014   6.005   3.777
14148TIP3    H142385   6.986   5.955   3.854
14148TIP3    H242386   6.943   5.994   3.714
14149TIP3   OH242387   6.753   1.228   4.117
14149TIP3    H142388   6.659   1.243   4.104
14149TIP3    H242389   6.789   1.316   4.130
14150TIP3   OH242390   4.764   1.888   1.015
14150TIP3    H142391   4.720   1.899   1.099
14150TIP3    H242392   4.735   1.962   0.962
14151TIP3   OH242393   0.946   0.072   3.033
14151TIP3    H142394   0.871   0.044   2.981
14151TIP3    H242395   0.926   0.044   3.122
14152TIP3   OH242396   6.090   5.726   2.677
14152TIP3    H142397   6.144   5.774   2.739
14152TIP3    H242398   6.035   5.793   2.636
14153TIP3   OH242399   1.348   6.392   2.817
14153TIP3    H142400   1.304   6.442   2.886
14153TIP3    H242401   1.433   6.434   2.807
14154TIP3   OH242402   6.416   0.483   4.466
14154TIP3    H142403   6.370   0.564   4.442
14154TIP3    H242404   6.408   0.478   4.561
14155TIP3   OH242405   4.147   3.153   5.244
14155TIP3    H142406   4.093   3.160   5.166
14155TIP3    H242407   4.213   3.221   5.234
14156TIP3   OH242408   4.839   6.907   4.029
14156TIP3    H142409   4.751   6.944   4.022
14156TIP3    H242410   4.898   6.983   4.022
14157TIP3   OH242411   3.499   4.850   3.663
14157TIP3    H142412   3.523   4.758   3.651
14157TIP3    H242413   3.443   4.871   3.588
14158TIP3   OH242414   7.622   7.546   6.671
14158TIP3    H142415   7.643   7.564   6.763
14158TIP3    H242416   7.621   7.632   6.630
14159TIP3   OH242417   3.488   3.121   0.836
14159TIP3    H142418   3.413   3.103   0.894
14159TIP3    H242419   3.559   3.143   0.896
14160TIP3   OH242420   3.204   1.229   1.979
14160TIP3    H142421   3.290   1.271   1.976
14160TIP3    H242422   3.144   1.294   1.942
14161TIP3   OH242423   6.797   6.166   2.590
14161TIP3    H142424   6.738   6.241   2.599
14161TIP3    H242425   6.839   6.158   2.676
14162TIP3   OH242426   1.450   4.707   1.381
14162TIP3    H142427   1.357   4.688   1.365
14162TIP3    H242428   1.457   4.802   1.371
14163TIP3   OH242429   8.304   1.008   0.929
14163TIP3    H142430   8.310   0.989   0.836
14163TIP3    H242431   8.321   0.924   0.973
14164TIP3   OH242432   5.169   7.066   5.678
14164TIP3    H142433   5.227   7.130   5.718
14164TIP3    H242434   5.125   7.024   5.752
14165TIP3   OH242435   1.995   5.821   4.915
14165TIP3    H142436   2.054   5.893   4.894
14165TIP3    H242437   2.054   5.748   4.935
14166TIP3   OH242438   6.782   1.219   5.368
14166TIP3    H142439   6.807   1.284   5.433
14166TIP3    H242440   6.858   1.161   5.363
14167TIP3   OH242441   7.853   7.011   3.289
14167TIP3    H142442   7.825   6.929   3.249
14167TIP3    H242443   7.914   7.049   3.226
14168TIP3   OH242444   3.379   4.405   2.644
14168TIP3    H142445   3.399   4.337   2.579
14168TIP3    H242446   3.462   4.451   2.655
14169TIP3   OH242447   7.263   2.322   5.364
14169TIP3    H142448   7.248   2.271   5.444
14169TIP3    H242449   7.357   2.313   5.347
14170TIP3   OH242450   1.672   2.376   3.539
14170TIP3    H142451   1.592   2.417   3.506
14170TIP3    H242452   1.712   2.444   3.593
14171TIP3   OH242453   5.486   1.783   4.723
14171TIP3    H142454   5.529   1.858   4.765
14171TIP3    H242455   5.557   1.720   4.709
14172TIP3   OH242456   5.930   0.897   6.312
14172TIP3    H142457   6.013   0.854   6.335
14172TIP3    H242458   5.889   0.918   6.396
14173TIP3   OH242459   4.400   7.042   1.580
14173TIP3    H142460   4.395   6.964   1.635
14173TIP3    H242461   4.470   7.095   1.619
14174TIP3   OH242462   4.138   6.933   5.216
14174TIP3    H142463   4.161   6.885   5.295
14174TIP3    H242464   4.213   6.991   5.200
14175TIP3   OH242465   2.778   7.270   1.039
14175TIP3    H142466   2.705   7.232   1.088
14175TIP3    H242467   2.740   7.294   0.954
14176TIP3   OH242468   6.084   2.583   2.774
14176TIP3    H142469   6.126   2.669   2.781
14176TIP3    H242470   6.148   2.530   2.726
14177TIP3   OH242471   1.881   1.563   1.791
14177TIP3    H142472   1.790   1.588   1.776
14177TIP3    H242473   1.921   1.566   1.703
14178TIP3   OH242474   4.250   2.992   3.362
14178TIP3    H142475   4.301   2.981   3.282
14178TIP3    H242476   4.227   2.903   3.389
14179TIP3   OH242477   3.306   5.000   5.539
14179TIP3    H142478   3.378   5.001   5.477
14179TIP3    H242479   3.348   4.992   5.625
14180TIP3   OH242480   4.205   5.329   3.920
14180TIP3    H142481   4.184   5.259   3.981
14180TIP3    H242482   4.285   5.299   3.877
14181TIP3   OH242483   5.014   5.390   6.175
14181TIP3    H142484   4.941   5.411   6.233
14181TIP3    H242485   5.081   5.455   6.196
14182TIP3   OH242486   6.819   5.841   6.000
14182TIP3    H142487   6.821   5.906   6.070
14182TIP3    H242488   6.815   5.891   5.919
14183TIP3   OH242489   8.104   6.557   3.460
14183TIP3    H142490   8.139   6.527   3.376
14183TIP3    H242491   8.174   6.539   3.522
14184TIP3   OH242492   6.987   2.135   2.267
14184TIP3    H142493   7.055   2.191   2.305
14184TIP3    H242494   6.944   2.191   2.202
14185TIP3   OH242495   3.505   1.748   0.523
14185TIP3    H142496   3.501   1.843   0.530
14185TIP3    H242497   3.474   1.716   0.608
14186TIP3   OH242498   0.730   1.872   6.550
14186TIP3    H142499   0.822   1.861   6.527
14186TIP3    H242500   0.707   1.791   6.595
14187TIP3   OH242501   6.084   5.702   1.582
14187TIP3    H142502   6.130   5.640   1.526
14187TIP3    H242503   6.101   5.788   1.542
14188TIP3   OH242504   3.075   7.663   4.800
14188TIP3    H142505   3.076   7.604   4.725
14188TIP3    H242506   3.077   7.751   4.762
14189TIP3   OH242507   4.171   6.074   0.677
14189TIP3    H142508   4.117   6.002   0.709
14189TIP3    H242509   4.118   6.153   0.691
14190TIP3   OH242510   2.015   4.268   4.766
14190TIP3    H142511   2.024   4.354   4.808
14190TIP3    H242512   2.105   4.236   4.759
14191TIP3   OH242513   6.962   0.655   4.491
14191TIP3    H142514   6.946   0.725   4.428
14191TIP3    H242515   6.929   0.576   4.448
14192TIP3   OH242516   6.836   6.972   3.459
14192TIP3    H142517   6.880   7.025   3.525
14192TIP3    H242518   6.753   7.017   3.443
14193TIP3   OH242519   6.694   2.819   4.104
14193TIP3    H142520   6.749   2.806   4.027
14193TIP3    H242521   6.754   2.809   4.178
14194TIP3   OH242522   2.624   4.671   6.388
14194TIP3    H142523   2.711   4.704   6.409
14194TIP3    H242524   2.615   4.592   6.441
14195TIP3   OH242525   3.346   1.316   2.930
14195TIP3    H142526   3.430   1.321   2.976
14195TIP3    H242527   3.304   1.400   2.949
14196TIP3   OH242528   7.267   7.773   2.790
14196TIP3    H142529   7.288   7.843   2.729
14196TIP3    H242530   7.219   7.817   2.861
14197TIP3   OH242531   6.845   0.440   3.718
14197TIP3    H142532   6.886   0.468   3.800
14197TIP3    H242533   6.809   0.353   3.738
14198TIP3   OH242534   7.345   2.091   3.939
14198TIP3    H142535   7.397   2.016   3.966
14198TIP3    H242536   7.325   2.075   3.847
14199TIP3   OH242537   7.266   3.991   1.660
14199TIP3    H142538   7.238   4.037   1.581
14199TIP3    H242539   7.188   3.943   1.688
14200TIP3   OH242540   2.922   4.789   6.434
14200TIP3    H142541   3.012   4.800   6.405
14200TIP3    H242542   2.872   4.851   6.380
14201TIP3   OH242543   8.233   6.122   2.280
14201TIP3    H142544   8.307   6.101   2.222
14201TIP3    H242545   8.252   6.073   2.360
14202TIP3   OH242546   8.237   0.026   6.393
14202TIP3    H142547   8.182  -0.038   6.347
14202TIP3    H242548   8.201   0.111   6.367
14203TIP3   OH242549   8.342   4.970   4.096
14203TIP3    H142550   8.373   5.046   4.146
14203TIP3    H242551   8.366   4.895   4.150
14204TIP3   OH242552   1.753   3.915   1.806
14204TIP3    H142553   1.713   3.954   1.728
14204TIP3    H242554   1.811   3.847   1.772
14205TIP3   OH242555   2.487   3.560   2.453
14205TIP3    H142556   2.525   3.562   2.365
14205TIP3    H242557   2.560   3.586   2.510
14206TIP3   OH242558   1.425   0.572   1.922
14206TIP3    H142559   1.381   0.582   2.007
14206TIP3    H242560   1.395   0.488   1.889
14207TIP3   OH242561   0.042   4.990   6.827
14207TIP3    H142562   0.001   4.959   6.746
14207TIP3    H242563  -0.021   5.052   6.864
14208TIP3   OH242564   2.362   3.507   1.447
14208TIP3    H142565   2.361   3.512   1.352
14208TIP3    H242566   2.345   3.597   1.476
14209TIP3   OH242567   3.377   4.440   1.973
14209TIP3    H142568   3.416   4.480   2.051
14209TIP3    H242569   3.449   4.393   1.932
14210TIP3   OH242570   4.434   3.494   2.441
14210TIP3    H142571   4.505   3.556   2.426
14210TIP3    H242572   4.478   3.410   2.454
14211TIP3   OH242573   6.936   4.418   1.690
14211TIP3    H142574   6.865   4.470   1.652
14211TIP3    H242575   6.940   4.339   1.636
14212TIP3   OH242576   7.045   6.811   2.435
14212TIP3    H142577   7.118   6.764   2.396
14212TIP3    H242578   6.985   6.828   2.363
14213TIP3   OH242579   3.484   6.752   4.635
14213TIP3    H142580   3.485   6.846   4.653
14213TIP3    H242581   3.412   6.718   4.689
14214TIP3   OH242582   8.385   7.725   3.213
14214TIP3    H142583   8.452   7.717   3.280
14214TIP3    H242584   8.330   7.647   3.225
14215TIP3   OH242585   8.355   4.046   3.141
14215TIP3    H142586   8.384   4.136   3.128
14215TIP3    H242587   8.306   4.025   3.062
14216TIP3   OH242588   6.776   7.563   1.395
14216TIP3    H142589   6.848   7.501   1.402
14216TIP3    H242590   6.752   7.563   1.302
14217TIP3   OH242591   7.593   1.082   3.423
14217TIP3    H142592   7.593   0.993   3.460
14217TIP3    H242593   7.503   1.112   3.435
14218TIP3   OH242594   6.524   5.513   0.277
14218TIP3    H142595   6.566   5.442   0.327
14218TIP3    H242596   6.479   5.468   0.205
14219TIP3   OH242597   5.616   7.396   2.217
14219TIP3    H142598   5.543   7.386   2.278
14219TIP3    H242599   5.651   7.308   2.206
14220TIP3   OH242600   2.668   0.234   2.919
14220TIP3    H142601   2.708   0.319   2.936
14220TIP3    H242602   2.603   0.223   2.989
14221TIP3   OH242603   7.985   4.092   0.686
14221TIP3    H142604   7.971   4.096   0.591
14221TIP3    H242605   7.898   4.071   0.721
14222TIP3   OH242606   0.680   4.147   6.349
14222TIP3    H142607   0.669   4.060   6.388
14222TIP3    H242608   0.756   4.138   6.292
14223TIP3   OH242609   3.159   0.257   4.163
14223TIP3    H142610   3.220   0.325   4.137
14223TIP3    H242611   3.093   0.302   4.217
14224TIP3   OH242612   5.646   4.916   2.681
14224TIP3    H142613   5.682   4.912   2.593
14224TIP3    H242614   5.551   4.910   2.669
14225TIP3   OH242615  -0.014   5.325   5.275
14225TIP3    H142616  -0.058   5.277   5.344
14225TIP3    H242617   0.040   5.390   5.320
14226TIP3   OH242618   1.365   5.356   1.362
14226TIP3    H142619   1.372   5.281   1.303
14226TIP3    H242620   1.304   5.416   1.319
14227TIP3   OH242621   0.108   4.419   1.828
14227TIP3    H142622   0.076   4.472   1.756
14227TIP3    H242623   0.189   4.380   1.796
14228TIP3   OH242624   7.822   3.877   5.719
14228TIP3    H142625   7.864   3.866   5.634
14228TIP3    H242626   7.851   3.800   5.769
14229TIP3   OH242627   4.689   5.782   3.068
14229TIP3    H142628   4.720   5.850   3.008
14229TIP3    H242629   4.671   5.828   3.149
14230TIP3   OH242630   5.866   6.455   2.768
14230TIP3    H142631   5.804   6.451   2.841
14230TIP3    H242632   5.913   6.373   2.773
14231TIP3   OH242633   1.355   0.714   1.265
14231TIP3    H142634   1.301   0.718   1.344
14231TIP3    H242635   1.335   0.629   1.226
14232TIP3   OH242636   4.969   5.562   0.657
14232TIP3    H142637   5.003   5.646   0.690
14232TIP3    H242638   4.960   5.576   0.563
14233TIP3   OH242639   3.101   2.422   5.011
14233TIP3    H142640   3.172   2.442   5.072
14233TIP3    H242641   3.115   2.330   4.989
14234TIP3   OH242642   3.269   3.027   3.655
14234TIP3    H142643   3.291   3.048   3.564
14234TIP3    H242644   3.280   3.109   3.702
14235TIP3   OH242645   2.750   3.986   1.112
14235TIP3    H142646   2.794   3.970   1.028
14235TIP3    H242647   2.657   3.988   1.089
14236TIP3   OH242648   4.784   0.589   2.867
14236TIP3    H142649   4.745   0.647   2.801
14236TIP3    H242650   4.711   0.563   2.922
14237TIP3   OH242651   4.814   6.563   1.539
14237TIP3    H142652   4.726   6.600   1.533
14237TIP3    H242653   4.804   6.471   1.513
14238TIP3   OH242654   7.189   0.355   3.983
14238TIP3    H142655   7.194   0.447   3.958
14238TIP3    H242656   7.163   0.309   3.902
14239TIP3   OH242657   1.521   7.372   5.257
14239TIP3    H142658   1.540   7.416   5.340
14239TIP3    H242659   1.429   7.393   5.239
14240TIP3   OH242660   0.522   1.098   3.422
14240TIP3    H142661   0.579   1.161   3.378
14240TIP3    H242662   0.436   1.109   3.380
14241TIP3   OH242663   3.318   5.782   5.710
14241TIP3    H142664   3.352   5.751   5.626
14241TIP3    H242665   3.305   5.702   5.761
14242TIP3   OH242666   1.212   0.190   5.430
14242TIP3    H142667   1.306   0.173   5.431
14242TIP3    H242668   1.197   0.232   5.345
14243TIP3   OH242669   2.282   1.012   3.578
14243TIP3    H142670   2.196   1.050   3.565
14243TIP3    H242671   2.310   0.984   3.491
14244TIP3   OH242672   5.883   1.806   3.981
14244TIP3    H142673   5.821   1.838   3.916
14244TIP3    H242674   5.887   1.877   4.046
14245TIP3   OH242675   1.142   1.943   2.803
14245TIP3    H142676   1.142   1.861   2.754
14245TIP3    H242677   1.156   2.011   2.736
14246TIP3   OH242678   7.226   0.426   6.893
14246TIP3    H142679   7.307   0.378   6.906
14246TIP3    H242680   7.244   0.485   6.820
14247TIP3   OH242681   7.759   0.677   2.857
14247TIP3    H142682   7.824   0.671   2.787
14247TIP3    H242683   7.691   0.615   2.832
14248TIP3   OH242684   3.000   0.320   6.254
14248TIP3    H142685   2.980   0.276   6.171
14248TIP3    H242686   3.095   0.319   6.259
14249TIP3   OH242687   0.998   3.555   4.934
14249TIP3    H142688   1.066   3.490   4.917
14249TIP3    H242689   0.949   3.519   5.008
14250TIP3   OH242690   7.756   5.483   3.447
14250TIP3    H142691   7.840   5.465   3.487
14250TIP3    H242692   7.738   5.406   3.392
14251TIP3   OH242693   5.885   1.099   0.516
14251TIP3    H142694   5.969   1.124   0.555
14251TIP3    H242695   5.829   1.079   0.590
14252TIP3   OH242696   3.117   5.573   0.399
14252TIP3    H142697   3.098   5.521   0.478
14252TIP3    H242698   3.042   5.557   0.342
14253TIP3   OH242699   2.341   6.799   4.397
14253TIP3    H142700   2.404   6.856   4.440
14253TIP3    H242701   2.336   6.722   4.454
14254TIP3   OH242702   4.199   5.007   4.888
14254TIP3    H142703   4.201   4.948   4.812
14254TIP3    H242704   4.290   5.032   4.902
14255TIP3   OH242705   4.194   1.560   3.770
14255TIP3    H142706   4.133   1.558   3.843
14255TIP3    H242707   4.273   1.602   3.805
14256TIP3   OH242708   7.170   2.402   3.943
14256TIP3    H142709   7.260   2.402   3.910
14256TIP3    H242710   7.164   2.320   3.994
14257TIP3   OH242711   0.472   0.070   4.715
14257TIP3    H142712   0.497   0.086   4.624
14257TIP3    H242713   0.513   0.141   4.765
14258TIP3   OH242714   4.377   7.484   4.873
14258TIP3    H142715   4.430   7.512   4.798
14258TIP3    H242716   4.335   7.564   4.904
14259TIP3   OH242717   5.407   6.543   6.622
14259TIP3    H142718   5.394   6.452   6.646
14259TIP3    H242719   5.495   6.546   6.586
14260TIP3   OH242720   3.503   4.111   5.082
14260TIP3    H142721   3.535   4.187   5.034
14260TIP3    H242722   3.574   4.089   5.143
14261TIP3   OH242723   8.294   3.254   5.567
14261TIP3    H142724   8.200   3.270   5.563
14261TIP3    H242725   8.313   3.248   5.661
14262TIP3   OH242726   0.032   5.866   4.129
14262TIP3    H142727  -0.013   5.781   4.123
14262TIP3    H242728   0.076   5.864   4.214
14263TIP3   OH242729   6.377   1.817   0.642
14263TIP3    H142730   6.382   1.912   0.641
14263TIP3    H242731   6.337   1.795   0.558
14264TIP3   OH242732   6.228   6.843   3.423
14264TIP3    H142733   6.313   6.844   3.466
14264TIP3    H242734   6.224   6.927   3.376
14265TIP3   OH242735   6.394   7.029   3.777
14265TIP3    H142736   6.419   7.110   3.823
14265TIP3    H242737   6.298   7.032   3.774
14266TIP3   OH242738   2.364   2.653   3.292
14266TIP3    H142739   2.416   2.732   3.308
14266TIP3    H242740   2.288   2.662   3.349
14267TIP3   OH242741   5.549   5.805   5.788
14267TIP3    H142742   5.505   5.770   5.866
14267TIP3    H242743   5.624   5.854   5.824
14268TIP3   OH242744   4.301   5.917   5.692
14268TIP3    H142745   4.276   5.926   5.784
14268TIP3    H242746   4.396   5.907   5.693
14269TIP3   OH242747   1.180   4.269   2.601
14269TIP3    H142748   1.132   4.309   2.528
14269TIP3    H242749   1.177   4.175   2.582
14270TIP3   OH242750   4.170   1.813   6.732
14270TIP3    H142751   4.171   1.800   6.826
14270TIP3    H242752   4.089   1.863   6.715
14271TIP3   OH242753   5.259   6.714   5.497
14271TIP3    H142754   5.324   6.781   5.474
14271TIP3    H242755   5.238   6.732   5.588
14272TIP3   OH242756   6.745   4.550   1.593
14272TIP3    H142757   6.731   4.581   1.503
14272TIP3    H242758   6.734   4.628   1.647
14273TIP3   OH242759   6.813   7.408   5.115
14273TIP3    H142760   6.896   7.378   5.078
14273TIP3    H242761   6.795   7.346   5.186
14274TIP3   OH242762   4.412   4.186   3.322
14274TIP3    H142763   4.445   4.274   3.302
14274TIP3    H242764   4.441   4.133   3.248
14275TIP3   OH242765   4.525   5.439   2.975
14275TIP3    H142766   4.492   5.526   2.955
14275TIP3    H242767   4.609   5.433   2.929
14276TIP3   OH242768   4.869   0.435   3.570
14276TIP3    H142769   4.861   0.341   3.586
14276TIP3    H242770   4.952   0.444   3.522
14277TIP3   OH242771   2.186   7.013   0.246
14277TIP3    H142772   2.238   6.996   0.167
14277TIP3    H242773   2.250   7.041   0.311
14278TIP3   OH242774   5.625   7.838   5.506
14278TIP3    H142775   5.607   7.745   5.488
14278TIP3    H242776   5.631   7.879   5.420
14279TIP3   OH242777   8.326   3.647   0.303
14279TIP3    H142778   8.411   3.643   0.348
14279TIP3    H242779   8.333   3.583   0.232
14280TIP3   OH242780   6.989   1.816   6.704
14280TIP3    H142781   7.014   1.837   6.794
14280TIP3    H242782   7.066   1.840   6.652
14281TIP3   OH242783   7.021   1.223   1.763
14281TIP3    H142784   7.063   1.241   1.848
14281TIP3    H242785   7.075   1.271   1.700
14282TIP3   OH242786   6.084   4.053   2.980
14282TIP3    H142787   6.179   4.058   2.989
14282TIP3    H242788   6.054   4.144   2.990
14283TIP3   OH242789   6.017   3.512   5.224
14283TIP3    H142790   5.943   3.486   5.168
14283TIP3    H242791   5.986   3.591   5.268
14284TIP3   OH242792   4.376   7.222   3.216
14284TIP3    H142793   4.358   7.130   3.198
14284TIP3    H242794   4.316   7.244   3.287
14285TIP3   OH242795   3.546   0.543   5.330
14285TIP3    H142796   3.556   0.574   5.420
14285TIP3    H242797   3.509   0.455   5.338
14286TIP3   OH242798   1.562   0.835   4.938
14286TIP3    H142799   1.593   0.761   4.990
14286TIP3    H242800   1.510   0.794   4.868
14287TIP3   OH242801   5.247   0.847   2.194
14287TIP3    H142802   5.339   0.836   2.171
14287TIP3    H242803   5.207   0.885   2.116
14288TIP3   OH242804   4.834   0.226   4.501
14288TIP3    H142805   4.819   0.317   4.477
14288TIP3    H242806   4.811   0.221   4.593
14289TIP3   OH242807   2.954   3.581   2.381
14289TIP3    H142808   2.859   3.574   2.379
14289TIP3    H242809   2.973   3.672   2.361
14290TIP3   OH242810   1.390   7.677   4.121
14290TIP3    H142811   1.393   7.738   4.194
14290TIP3    H242812   1.303   7.690   4.083
14291TIP3   OH242813   5.063   5.663   5.975
14291TIP3    H142814   4.971   5.640   5.987
14291TIP3    H242815   5.106   5.629   6.054
14292TIP3   OH242816   1.032   2.753   3.147
14292TIP3    H142817   1.051   2.778   3.238
14292TIP3    H242818   0.940   2.777   3.135
14293TIP3   OH242819   6.728   2.148   0.740
14293TIP3    H142820   6.821   2.128   0.735
14293TIP3    H242821   6.707   2.144   0.834
14294TIP3   OH242822   5.666   4.623   0.025
14294TIP3    H142823   5.722   4.551  -0.003
14294TIP3    H242824   5.578   4.597  -0.002
14295TIP3   OH242825   4.790   4.004   3.619
14295TIP3    H142826   4.849   4.035   3.688
14295TIP3    H242827   4.831   3.925   3.585
14296TIP3   OH242828   6.271   3.708   5.117
14296TIP3    H142829   6.244   3.762   5.043
14296TIP3    H242830   6.231   3.749   5.194
14297TIP3   OH242831   2.185   0.919   2.774
14297TIP3    H142832   2.268   0.966   2.763
14297TIP3    H242833   2.201   0.857   2.844
14298TIP3   OH242834   7.113   5.369   6.011
14298TIP3    H142835   7.057   5.444   5.994
14298TIP3    H242836   7.105   5.315   5.932
14299TIP3   OH242837   6.678   2.838   6.503
14299TIP3    H142838   6.616   2.802   6.567
14299TIP3    H242839   6.726   2.905   6.551
14300TIP3   OH242840   2.184   2.083   4.293
14300TIP3    H142841   2.266   2.094   4.246
14300TIP3    H242842   2.202   2.012   4.356
14301TIP3   OH242843   0.208   2.434   2.484
14301TIP3    H142844   0.178   2.441   2.575
14301TIP3    H242845   0.240   2.343   2.477
14302TIP3   OH242846   0.233   6.142   0.843
14302TIP3    H142847   0.159   6.091   0.810
14302TIP3    H242848   0.310   6.089   0.821
14303TIP3   OH242849   3.997   5.931   6.600
14303TIP3    H142850   3.960   6.016   6.625
14303TIP3    H242851   3.940   5.900   6.530
14304TIP3   OH242852   5.355   1.220   4.721
14304TIP3    H142853   5.394   1.145   4.765
14304TIP3    H242854   5.327   1.187   4.636
14305TIP3   OH242855   0.012   6.066   2.709
14305TIP3    H142856   0.007   6.136   2.643
14305TIP3    H242857   0.090   6.017   2.686
14306TIP3   OH242858   5.395   5.778   3.688
14306TIP3    H142859   5.454   5.711   3.654
14306TIP3    H242860   5.451   5.831   3.745
14307TIP3   OH242861   4.258   6.456   4.409
14307TIP3    H142862   4.306   6.488   4.332
14307TIP3    H242863   4.182   6.514   4.416
14308TIP3   OH242864   6.149  -0.031   1.259
14308TIP3    H142865   6.175  -0.002   1.171
14308TIP3    H242866   6.209   0.014   1.318
14309TIP3   OH242867   6.662   1.171   4.398
14309TIP3    H142868   6.682   1.078   4.409
14309TIP3    H242869   6.605   1.192   4.472
14310TIP3   OH242870   3.311   7.365   3.366
14310TIP3    H142871   3.364   7.445   3.367
14310TIP3    H242872   3.357   7.306   3.426
14311TIP3   OH242873   4.088   0.237   5.770
14311TIP3    H142874   4.181   0.234   5.751
14311TIP3    H242875   4.046   0.248   5.685
14312TIP3   OH242876   6.135   3.048   5.952
14312TIP3    H142877   6.204   3.061   5.886
14312TIP3    H242878   6.129   2.953   5.961
14313TIP3   OH242879   3.308   2.056   0.849
14313TIP3    H142880   3.312   2.002   0.927
14313TIP3    H242881   3.217   2.085   0.845
14314TIP3   OH242882   1.984   2.231   0.075
14314TIP3    H142883   1.946   2.231  -0.013
14314TIP3    H242884   2.049   2.301   0.073
14315TIP3   OH242885   2.269   3.075   4.776
14315TIP3    H142886   2.279   3.153   4.831
14315TIP3    H242887   2.286   3.106   4.687
14316TIP3   OH242888   2.491   7.456   2.354
14316TIP3    H142889   2.456   7.458   2.265
14316TIP3    H242890   2.516   7.546   2.373
14317TIP3   OH242891   6.274   1.171   0.111
14317TIP3    H142892   6.364   1.162   0.143
14317TIP3    H242893   6.225   1.202   0.188
14318TIP3   OH242894   7.750   1.724   2.003
14318TIP3    H142895   7.707   1.763   2.079
14318TIP3    H242896   7.842   1.717   2.028
14319TIP3   OH242897   1.944   3.945   2.232
14319TIP3    H142898   1.967   3.871   2.287
14319TIP3    H242899   1.903   4.008   2.292
14320TIP3   OH242900   5.518   2.041   2.474
14320TIP3    H142901   5.563   2.111   2.427
14320TIP3    H242902   5.436   2.081   2.504
14321TIP3   OH242903   5.350   7.134   2.961
14321TIP3    H142904   5.338   7.111   3.053
14321TIP3    H242905   5.383   7.224   2.963
14322TIP3   OH242906   0.004   2.739   1.259
14322TIP3    H142907   0.042   2.652   1.250
14322TIP3    H242908   0.046   2.776   1.337
14323TIP3   OH242909   6.939   1.599   0.629
14323TIP3    H142910   6.934   1.623   0.722
14323TIP3    H242911   6.911   1.507   0.627
14324TIP3   OH242912   0.546   5.534   0.695
14324TIP3    H142913   0.583   5.448   0.714
14324TIP3    H242914   0.583   5.558   0.610
14325TIP3   OH242915   1.564   3.816   0.344
14325TIP3    H142916   1.520   3.786   0.424
14325TIP3    H242917   1.585   3.735   0.297
14326TIP3   OH242918   2.815   0.388   4.562
14326TIP3    H142919   2.900   0.345   4.573
14326TIP3    H242920   2.808   0.447   4.637
14327TIP3   OH242921   7.749   6.838   2.516
14327TIP3    H142922   7.808   6.869   2.447
14327TIP3    H242923   7.675   6.898   2.514
14328TIP3   OH242924   4.861   5.545   1.199
14328TIP3    H142925   4.953   5.556   1.222
14328TIP3    H242926   4.853   5.583   1.112
14329TIP3   OH242927   6.224   1.008   3.463
14329TIP3    H142928   6.174   0.969   3.391
14329TIP3    H242929   6.165   1.005   3.538
14330TIP3   OH242930   3.170   5.760   3.022
14330TIP3    H142931   3.160   5.775   3.116
14330TIP3    H242932   3.259   5.788   3.002
14331TIP3   OH242933   4.816   4.420   2.398
14331TIP3    H142934   4.772   4.460   2.324
14331TIP3    H242935   4.870   4.490   2.435
14332TIP3   OH242936   3.468   3.620   3.088
14332TIP3    H142937   3.434   3.561   3.020
14332TIP3    H242938   3.467   3.707   3.047
14333TIP3   OH242939   3.735   0.288   3.080
14333TIP3    H142940   3.824   0.320   3.094
14333TIP3    H242941   3.731   0.265   2.988
14334TIP3   OH242942   4.142   5.725   1.567
14334TIP3    H142943   4.199   5.652   1.592
14334TIP3    H242944   4.098   5.695   1.488
14335TIP3   OH242945   1.671   7.836   0.771
14335TIP3    H142946   1.642   7.925   0.747
14335TIP3    H242947   1.740   7.816   0.707
14336TIP3   OH242948   7.705   0.753   4.084
14336TIP3    H142949   7.744   0.837   4.057
14336TIP3    H242950   7.754   0.688   4.033
14337TIP3   OH242951   0.700   0.415   0.315
14337TIP3    H142952   0.769   0.465   0.270
14337TIP3    H242953   0.644   0.382   0.244
14338TIP3   OH242954   1.249   5.918   1.818
14338TIP3    H142955   1.259   6.010   1.842
14338TIP3    H242956   1.336   5.881   1.828
14339TIP3   OH242957   3.049   6.486   5.549
14339TIP3    H142958   3.127   6.501   5.496
14339TIP3    H242959   2.979   6.531   5.502
14340TIP3   OH242960   3.095   0.432   1.315
14340TIP3    H142961   3.164   0.415   1.252
14340TIP3    H242962   3.022   0.466   1.263
14341TIP3   OH242963   5.479   6.582   3.987
14341TIP3    H142964   5.425   6.628   3.923
14341TIP3    H242965   5.416   6.548   4.051
14342TIP3   OH242966   3.680   1.976   1.849
14342TIP3    H142967   3.623   2.053   1.845
14342TIP3    H242968   3.631   1.909   1.801
14343TIP3   OH242969   4.363   7.505   0.832
14343TIP3    H142970   4.419   7.505   0.755
14343TIP3    H242971   4.386   7.584   0.879
14344TIP3   OH242972   4.957   6.161   4.802
14344TIP3    H142973   4.893   6.123   4.862
14344TIP3    H242974   5.040   6.117   4.823
14345TIP3   OH242975   3.219   6.532   2.020
14345TIP3    H142976   3.125   6.525   2.039
14345TIP3    H242977   3.240   6.624   2.033
14346TIP3   OH242978   7.034   4.076   4.324
14346TIP3    H142979   7.014   4.152   4.378
14346TIP3    H242980   7.106   4.104   4.268
14347TIP3   OH242981   0.558   5.650   6.261
14347TIP3    H142982   0.622   5.702   6.310
14347TIP3    H242983   0.481   5.647   6.317
14348TIP3   OH242984   4.737   4.366   5.384
14348TIP3    H142985   4.745   4.379   5.478
14348TIP3    H242986   4.669   4.429   5.357
14349TIP3   OH242987   2.357   6.456   1.513
14349TIP3    H142988   2.399   6.430   1.431
14349TIP3    H242989   2.414   6.524   1.549
14350TIP3   OH242990   1.408   2.728   1.499
14350TIP3    H142991   1.427   2.722   1.593
14350TIP3    H242992   1.453   2.653   1.461
14351TIP3   OH242993   0.068   6.780   0.513
14351TIP3    H142994   0.067   6.717   0.585
14351TIP3    H242995   0.053   6.727   0.434
14352TIP3   OH242996   7.714   7.880   0.208
14352TIP3    H142997   7.696   7.849   0.119
14352TIP3    H242998   7.809   7.882   0.215
14353TIP3   OH242999   6.512   0.244   5.942
14353TIP3    H143000   6.523   0.300   5.865
14353TIP3    H243001   6.601   0.229   5.974
14354TIP3   OH243002   3.338   3.888   5.079
14354TIP3    H143003   3.366   3.836   5.155
14354TIP3    H243004   3.400   3.961   5.076
14355TIP3   OH243005   0.882   7.860   3.573
14355TIP3    H143006   0.943   7.918   3.619
14355TIP3    H243007   0.822   7.829   3.641
14356TIP3   OH243008   6.373   5.945   4.933
14356TIP3    H143009   6.445   5.884   4.918
14356TIP3    H243010   6.416   6.031   4.936
14357TIP3   OH243011   3.724   3.348   2.277
14357TIP3    H143012   3.672   3.267   2.285
14357TIP3    H243013   3.661   3.413   2.245
14358TIP3   OH243014   8.349   6.224   6.164
14358TIP3    H143015   8.401   6.268   6.231
14358TIP3    H243016   8.404   6.225   6.086
14359TIP3   OH243017   2.499   1.387   0.298
14359TIP3    H143018   2.584   1.356   0.328
14359TIP3    H243019   2.436   1.341   0.353
14360TIP3   OH243020   1.664   6.769   1.279
14360TIP3    H143021   1.645   6.775   1.373
14360TIP3    H243022   1.640   6.679   1.256
14361TIP3   OH243023   5.143   3.232   6.399
14361TIP3    H143024   5.108   3.320   6.414
14361TIP3    H243025   5.235   3.246   6.377
14362TIP3   OH243026   4.823   3.923   6.278
14362TIP3    H143027   4.901   3.873   6.300
14362TIP3    H243028   4.805   3.902   6.187
14363TIP3   OH243029   6.461   6.621   6.671
14363TIP3    H143030   6.478   6.592   6.760
14363TIP3    H243031   6.528   6.687   6.654
14364TIP3   OH243032   4.151   3.233   4.467
14364TIP3    H143033   4.079   3.291   4.488
14364TIP3    H243034   4.218   3.253   4.532
14365TIP3   OH243035   3.281   1.411   4.357
14365TIP3    H143036   3.212   1.473   4.334
14365TIP3    H243037   3.257   1.381   4.445
14366TIP3   OH243038   8.031   3.467   3.311
14366TIP3    H143039   8.049   3.470   3.405
14366TIP3    H243040   8.104   3.513   3.271
14367TIP3   OH243041   1.231   3.673   3.332
14367TIP3    H143042   1.233   3.600   3.270
14367TIP3    H243043   1.303   3.730   3.305
14368TIP3   OH243044   8.365   4.921   2.716
14368TIP3    H143045   8.347   5.005   2.759
14368TIP3    H243046   8.424   4.943   2.643
14369TIP3   OH243047   2.653   3.639   1.140
14369TIP3    H143048   2.685   3.682   1.061
14369TIP3    H243049   2.580   3.585   1.111
14370TIP3   OH243050   2.292   6.190   2.690
14370TIP3    H143051   2.293   6.180   2.595
14370TIP3    H243052   2.207   6.155   2.717
14371TIP3   OH243053   1.732   3.434   4.216
14371TIP3    H143054   1.779   3.445   4.299
14371TIP3    H243055   1.793   3.386   4.160
14372TIP3   OH243056   7.804   3.202   1.574
14372TIP3    H143057   7.710   3.208   1.554
14372TIP3    H243058   7.829   3.114   1.545
14373TIP3   OH243059   3.465   6.377   2.283
14373TIP3    H143060   3.443   6.414   2.368
14373TIP3    H243061   3.503   6.291   2.303
14374TIP3   OH243062   8.227   5.184   1.792
14374TIP3    H143063   8.208   5.277   1.807
14374TIP3    H243064   8.144   5.149   1.758
14375TIP3   OH243065   8.144   6.890   0.185
14375TIP3    H143066   8.129   6.978   0.150
14375TIP3    H243067   8.183   6.905   0.271
14376TIP3   OH243068   0.054   2.415   0.094
14376TIP3    H143069  -0.002   2.477   0.047
14376TIP3    H243070   0.132   2.406   0.040
14377TIP3   OH243071   0.449   4.695   4.904
14377TIP3    H143072   0.406   4.771   4.865
14377TIP3    H243073   0.390   4.668   4.975
14378TIP3   OH243074   7.709   3.584   1.417
14378TIP3    H143075   7.749   3.511   1.369
14378TIP3    H243076   7.630   3.546   1.455
14379TIP3   OH243077   5.687   7.129   1.432
14379TIP3    H143078   5.750   7.076   1.481
14379TIP3    H243079   5.701   7.218   1.465
14380TIP3   OH243080   6.806   5.098   2.747
14380TIP3    H143081   6.898   5.122   2.747
14380TIP3    H243082   6.800   5.027   2.812
14381TIP3   OH243083   2.380   0.658   1.349
14381TIP3    H143084   2.381   0.590   1.281
14381TIP3    H243085   2.328   0.620   1.420
14382TIP3   OH243086   4.641   6.861   5.216
14382TIP3    H143087   4.656   6.779   5.263
14382TIP3    H243088   4.728   6.896   5.199
14383TIP3   OH243089   2.070   4.253   0.472
14383TIP3    H143090   2.082   4.268   0.378
14383TIP3    H243091   2.145   4.199   0.498
14384TIP3   OH243092   0.420   5.895   1.984
14384TIP3    H143093   0.399   5.802   1.977
14384TIP3    H243094   0.437   5.910   2.077
14385TIP3   OH243095   6.691   3.693   1.055
14385TIP3    H143096   6.681   3.724   0.965
14385TIP3    H243097   6.698   3.598   1.047
14386TIP3   OH243098   1.141   0.302  -0.050
14386TIP3    H143099   1.090   0.305   0.031
14386TIP3    H243100   1.185   0.387  -0.053
14387TIP3   OH243101   7.140   4.596   2.838
14387TIP3    H143102   7.133   4.690   2.819
14387TIP3    H243103   7.207   4.591   2.906
14388TIP3   OH243104   1.985   2.834   4.301
14388TIP3    H143105   2.025   2.747   4.302
14388TIP3    H243106   1.927   2.835   4.377
14389TIP3   OH243107   5.941   2.277   2.377
14389TIP3    H143108   6.030   2.293   2.346
14389TIP3    H243109   5.929   2.339   2.449
14390TIP3   OH243110   5.343   0.221   0.043
14390TIP3    H143111   5.320   0.214  -0.049
14390TIP3    H243112   5.438   0.232   0.044
14391TIP3   OH243113   2.275   6.251   5.324
14391TIP3    H143114   2.272   6.164   5.285
14391TIP3    H243115   2.216   6.245   5.399
14392TIP3   OH243116   7.584   3.258   2.816
14392TIP3    H143117   7.508   3.228   2.866
14392TIP3    H243118   7.650   3.279   2.883
14393TIP3   OH243119   7.109   6.403   2.455
14393TIP3    H143120   7.202   6.381   2.452
14393TIP3    H243121   7.097   6.450   2.538
14394TIP3   OH243122   5.993   3.384   2.186
14394TIP3    H143123   6.029   3.449   2.247
14394TIP3    H243124   5.917   3.427   2.147
14395TIP3   OH243125   0.945   4.401   1.142
14395TIP3    H143126   0.992   4.384   1.224
14395TIP3    H243127   0.883   4.329   1.134
14396TIP3   OH243128   0.023   0.174   3.796
14396TIP3    H143129   0.067   0.232   3.734
14396TIP3    H243130   0.049   0.086   3.769
14397TIP3   OH243131   6.529   0.272   6.527
14397TIP3    H143132   6.447   0.262   6.576
14397TIP3    H243133   6.591   0.306   6.592
14398TIP3   OH243134   1.664   6.471   2.440
14398TIP3    H143135   1.646   6.379   2.422
14398TIP3    H243136   1.759   6.475   2.453
14399TIP3   OH243137   2.955   4.503   3.846
14399TIP3    H143138   2.939   4.593   3.818
14399TIP3    H243139   2.959   4.453   3.765
14400TIP3   OH243140   6.361   1.235   3.449
14400TIP3    H143141   6.286   1.295   3.442
14400TIP3    H243142   6.322   1.148   3.442
14401TIP3   OH243143   3.404   6.560   4.905
14401TIP3    H143144   3.488   6.591   4.939
14401TIP3    H243145   3.349   6.638   4.904
14402TIP3   OH243146   5.367   4.820   2.043
14402TIP3    H143147   5.272   4.825   2.039
14402TIP3    H243148   5.385   4.740   2.092
14403TIP3   OH243149   7.241   0.113   1.043
14403TIP3    H143150   7.236   0.208   1.040
14403TIP3    H243151   7.323   0.095   1.088
14404TIP3   OH243152   7.898   3.178   1.850
14404TIP3    H143153   7.867   3.184   1.759
14404TIP3    H243154   7.818   3.167   1.901
14405TIP3   OH243155   0.843   3.959   0.364
14405TIP3    H143156   0.829   3.866   0.346
14405TIP3    H243157   0.856   3.964   0.459
14406TIP3   OH243158   7.690   2.730   5.056
14406TIP3    H143159   7.627   2.802   5.047
14406TIP3    H243160   7.763   2.755   4.999
14407TIP3   OH243161   6.629   4.064   0.330
14407TIP3    H143162   6.583   4.026   0.256
14407TIP3    H243163   6.598   4.155   0.333
14408TIP3   OH243164   2.641   0.179   2.196
14408TIP3    H143165   2.628   0.086   2.176
14408TIP3    H243166   2.656   0.181   2.291
14409TIP3   OH243167   7.505   0.388   1.294
14409TIP3    H143168   7.472   0.462   1.244
14409TIP3    H243169   7.528   0.322   1.228
14410TIP3   OH243170   3.503   5.424   0.949
14410TIP3    H143171   3.470   5.338   0.924
14410TIP3    H243172   3.579   5.405   1.004
14411TIP3   OH243173   6.450   3.386   1.519
14411TIP3    H143174   6.469   3.293   1.515
14411TIP3    H243175   6.367   3.392   1.568
14412TIP3   OH243176   2.883   3.673   3.651
14412TIP3    H143177   2.977   3.664   3.632
14412TIP3    H243178   2.851   3.583   3.653
14413TIP3   OH243179   5.809   2.034   5.571
14413TIP3    H143180   5.809   2.130   5.577
14413TIP3    H243181   5.881   2.006   5.628
14414TIP3   OH243182   5.501   3.096   6.174
14414TIP3    H143183   5.467   3.031   6.236
14414TIP3    H243184   5.472   3.180   6.210
14415TIP3   OH243185   0.569   6.086   1.863
14415TIP3    H143186   0.493   6.135   1.833
14415TIP3    H243187   0.534   6.012   1.911
14416TIP3   OH243188   7.048   5.152   1.250
14416TIP3    H143189   7.008   5.136   1.165
14416TIP3    H243190   7.088   5.068   1.275
14417TIP3   OH243191   1.138   0.813   0.748
14417TIP3    H143192   1.120   0.812   0.841
14417TIP3    H243193   1.064   0.767   0.708
14418TIP3   OH243194   7.050   4.754   4.844
14418TIP3    H143195   7.033   4.715   4.930
14418TIP3    H243196   7.105   4.690   4.800
14419TIP3   OH243197   0.278   4.463   5.101
14419TIP3    H143198   0.280   4.521   5.177
14419TIP3    H243199   0.189   4.471   5.067
14420TIP3   OH243200   1.492   1.744   5.014
14420TIP3    H143201   1.480   1.650   5.003
14420TIP3    H243202   1.586   1.755   5.028
14421TIP3   OH243203   4.892   3.570   6.157
14421TIP3    H143204   4.941   3.578   6.239
14421TIP3    H243205   4.931   3.496   6.112
14422TIP3   OH243206   6.522   4.261   2.286
14422TIP3    H143207   6.543   4.177   2.327
14422TIP3    H243208   6.478   4.311   2.354
14423TIP3   OH243209   0.229   4.941   2.989
14423TIP3    H143210   0.312   4.924   2.945
14423TIP3    H243211   0.228   5.035   3.004
14424TIP3   OH243212   3.614   4.664   2.373
14424TIP3    H143213   3.703   4.677   2.343
14424TIP3    H243214   3.622   4.645   2.467
14425TIP3   OH243215   4.933   3.372   5.943
14425TIP3    H143216   4.876   3.329   5.880
14425TIP3    H243217   4.967   3.448   5.895
14426TIP3   OH243218   5.318   4.344   0.818
14426TIP3    H143219   5.393   4.355   0.761
14426TIP3    H243220   5.262   4.419   0.799
14427TIP3   OH243221   2.215   1.734   2.473
14427TIP3    H143222   2.160   1.758   2.548
14427TIP3    H243223   2.294   1.698   2.512
14428TIP3   OH243224   3.805   6.164   0.159
14428TIP3    H143225   3.805   6.243   0.106
14428TIP3    H243226   3.821   6.093   0.096
14429TIP3   OH243227   3.654   3.120   3.129
14429TIP3    H143228   3.699   3.131   3.213
14429TIP3    H243229   3.637   3.209   3.099
14430TIP3   OH243230   2.445   2.131   4.210
14430TIP3    H143231   2.485   2.201   4.159
14430TIP3    H243232   2.461   2.155   4.301
14431TIP3   OH243233   0.206   6.544   1.995
14431TIP3    H143234   0.125   6.587   1.969
14431TIP3    H243235   0.223   6.480   1.926
14432TIP3   OH243236   3.628   5.926   3.314
14432TIP3    H143237   3.677   5.859   3.362
14432TIP3    H243238   3.559   5.953   3.374
14433TIP3   OH243239   0.437   3.275   1.124
14433TIP3    H143240   0.511   3.330   1.098
14433TIP3    H243241   0.477   3.200   1.168
14434TIP3   OH243242   5.019   4.829   5.019
14434TIP3    H143243   5.006   4.921   4.995
14434TIP3    H243244   5.085   4.832   5.089
14435TIP3   OH243245   4.622   6.547   2.239
14435TIP3    H143246   4.547   6.505   2.198
14435TIP3    H243247   4.619   6.517   2.330
14436TIP3   OH243248   7.001   6.859   2.966
14436TIP3    H143249   7.081   6.898   2.931
14436TIP3    H243250   6.993   6.894   3.055
14437TIP3   OH243251   0.285   4.680   6.757
14437TIP3    H143252   0.256   4.590   6.770
14437TIP3    H243253   0.321   4.706   6.842
14438TIP3   OH243254   7.186   7.704   4.443
14438TIP3    H143255   7.214   7.748   4.523
14438TIP3    H243256   7.257   7.719   4.380
14439TIP3   OH243257   7.327   7.883   5.872
14439TIP3    H143258   7.300   7.975   5.872
14439TIP3    H243259   7.410   7.883   5.920
14440TIP3   OH243260   5.769   7.494   3.459
14440TIP3    H143261   5.784   7.506   3.365
14440TIP3    H243262   5.785   7.401   3.475
14441TIP3   OH243263   5.317   2.232   2.531
14441TIP3    H143264   5.298   2.308   2.587
14441TIP3    H243265   5.264   2.162   2.569
14442TIP3   OH243266   5.558   5.329   1.415
14442TIP3    H143267   5.493   5.396   1.440
14442TIP3    H243268   5.557   5.330   1.319
14443TIP3   OH243269   2.794   7.206   2.506
14443TIP3    H143270   2.747   7.236   2.583
14443TIP3    H243271   2.784   7.278   2.443
14444TIP3   OH243272   6.849   6.197   2.875
14444TIP3    H143273   6.812   6.127   2.928
14444TIP3    H243274   6.941   6.201   2.900
14445TIP3   OH243275   3.030   7.403   2.450
14445TIP3    H143276   2.951   7.405   2.396
14445TIP3    H243277   3.100   7.380   2.389
14446TIP3   OH243278   7.663   5.920   4.916
14446TIP3    H143279   7.736   5.858   4.921
14446TIP3    H243280   7.661   5.962   5.002
14447TIP3   OH243281   1.551   6.974   3.721
14447TIP3    H143282   1.581   6.963   3.811
14447TIP3    H243283   1.530   7.068   3.715
14448TIP3   OH243284   4.570   4.554   2.947
14448TIP3    H143285   4.634   4.605   2.997
14448TIP3    H243286   4.508   4.620   2.915
14449TIP3   OH243287   1.069   0.860   1.006
14449TIP3    H143288   0.985   0.895   1.035
14449TIP3    H243289   1.126   0.937   0.999
14450TIP3   OH243290   3.911   0.980   1.881
14450TIP3    H143291   3.938   0.937   1.800
14450TIP3    H243292   3.829   0.938   1.905
14451TIP3   OH243293   5.263   3.833   1.839
14451TIP3    H143294   5.326   3.782   1.787
14451TIP3    H243295   5.221   3.891   1.776
14452TIP3   OH243296   8.217   4.482   0.841
14452TIP3    H143297   8.226   4.390   0.817
14452TIP3    H243298   8.141   4.485   0.899
14453TIP3   OH243299   4.714   7.170   0.328
14453TIP3    H143300   4.803   7.164   0.292
14453TIP3    H243301   4.680   7.252   0.292
14454TIP3   OH243302   0.412   3.292   3.368
14454TIP3    H143303   0.345   3.318   3.431
14454TIP3    H243304   0.386   3.204   3.340
14455TIP3   OH243305   5.099   2.606   5.211
14455TIP3    H143306   5.163   2.609   5.283
14455TIP3    H243307   5.028   2.662   5.240
14456TIP3   OH243308   0.666   6.006   4.628
14456TIP3    H143309   0.712   5.957   4.696
14456TIP3    H243310   0.699   5.970   4.546
14457TIP3   OH243311   1.513   6.440   4.387
14457TIP3    H143312   1.498   6.357   4.432
14457TIP3    H243313   1.436   6.453   4.332
14458TIP3   OH243314   2.621   1.555   2.166
14458TIP3    H143315   2.638   1.509   2.084
14458TIP3    H243316   2.683   1.517   2.228
14459TIP3   OH243317   3.634   6.436   2.057
14459TIP3    H143318   3.596   6.438   2.145
14459TIP3    H243319   3.574   6.380   2.007
14460TIP3   OH243320   8.332   1.336   2.850
14460TIP3    H143321   8.326   1.258   2.796
14460TIP3    H243322   8.395   1.313   2.919
14461TIP3   OH243323   0.347   4.251   3.018
14461TIP3    H143324   0.370   4.253   3.111
14461TIP3    H243325   0.322   4.341   2.997
14462TIP3   OH243326   0.447   2.034   3.400
14462TIP3    H143327   0.498   1.955   3.383
14462TIP3    H243328   0.499   2.105   3.360
14463TIP3   OH243329   5.929   3.448   1.863
14463TIP3    H143330   5.859   3.469   1.801
14463TIP3    H243331   5.884   3.418   1.941
14464TIP3   OH243332   2.688   4.952   0.208
14464TIP3    H143333   2.654   5.032   0.249
14464TIP3    H243334   2.775   4.941   0.247
14465TIP3   OH243335   3.075   7.023   1.922
14465TIP3    H143336   3.146   7.013   1.858
14465TIP3    H243337   3.040   7.111   1.906
14466TIP3   OH243338   1.319   1.453   2.449
14466TIP3    H143339   1.386   1.521   2.452
14466TIP3    H243340   1.368   1.371   2.457
14467TIP3   OH243341   5.084   3.972   2.948
14467TIP3    H143342   5.051   4.061   2.939
14467TIP3    H243343   5.006   3.918   2.958
14468TIP3   OH243344   5.406   0.274   1.159
14468TIP3    H143345   5.395   0.252   1.251
14468TIP3    H243346   5.501   0.276   1.146
14469TIP3   OH243347   2.964   4.315   0.753
14469TIP3    H143348   3.006   4.293   0.670
14469TIP3    H243349   2.873   4.331   0.731
14470TIP3   OH243350   4.258   2.117   0.200
14470TIP3    H143351   4.219   2.195   0.161
14470TIP3    H243352   4.340   2.103   0.151
14471TIP3   OH243353   1.360   4.961   2.251
14471TIP3    H143354   1.330   4.956   2.160
14471TIP3    H243355   1.310   4.893   2.296
14472TIP3   OH243356   8.082   3.419   5.579
14472TIP3    H143357   8.060   3.390   5.490
14472TIP3    H243358   8.003   3.464   5.609
14473TIP3   OH243359   6.952   3.806   6.079
14473TIP3    H143360   6.912   3.749   6.146
14473TIP3    H243361   6.878   3.846   6.034
14474TIP3   OH243362   2.160   0.022   6.027
14474TIP3    H143363   2.142   0.075   6.105
14474TIP3    H243364   2.248   0.049   6.000
14475TIP3   OH243365   4.377   6.031   2.352
14475TIP3    H143366   4.363   6.053   2.444
14475TIP3    H243367   4.424   6.105   2.316
14476TIP3   OH243368   0.981   4.797   0.354
14476TIP3    H143369   1.054   4.746   0.390
14476TIP3    H243370   0.909   4.734   0.349
14477TIP3   OH243371   1.162   6.285   3.389
14477TIP3    H143372   1.131   6.268   3.478
14477TIP3    H243373   1.252   6.253   3.389
14478TIP3   OH243374   1.789   2.938   3.159
14478TIP3    H143375   1.871   2.907   3.197
14478TIP3    H243376   1.806   2.942   3.065
14479TIP3   OH243377   2.057   1.179   1.899
14479TIP3    H143378   2.006   1.183   1.979
14479TIP3    H243379   2.095   1.266   1.889
14480TIP3   OH243380   5.318   1.732   6.353
14480TIP3    H143381   5.326   1.709   6.445
14480TIP3    H243382   5.349   1.655   6.306
14481TIP3   OH243383   3.059   3.874   2.353
14481TIP3    H143384   3.060   3.873   2.257
14481TIP3    H243385   3.138   3.923   2.377
14482TIP3   OH243386   5.062   3.008   4.557
14482TIP3    H143387   5.087   2.935   4.499
14482TIP3    H243388   4.973   2.987   4.585
14483TIP3   OH243389   0.789   4.245   5.411
14483TIP3    H143390   0.812   4.251   5.504
14483TIP3    H243391   0.705   4.199   5.410
14484TIP3   OH243392   5.651   0.098   0.353
14484TIP3    H143393   5.689   0.029   0.298
14484TIP3    H243394   5.725   0.158   0.369
14485TIP3   OH243395   7.117   3.672   2.519
14485TIP3    H143396   7.109   3.599   2.457
14485TIP3    H243397   7.204   3.709   2.501
14486TIP3   OH243398   6.045   6.463   2.492
14486TIP3    H143399   5.959   6.494   2.518
14486TIP3    H243400   6.063   6.510   2.411
14487TIP3   OH243401   5.307   3.614   0.268
14487TIP3    H143402   5.299   3.534   0.320
14487TIP3    H243403   5.397   3.644   0.284
14488TIP3   OH243404   6.834   0.307   0.647
14488TIP3    H143405   6.853   0.312   0.741
14488TIP3    H243406   6.780   0.229   0.638
14489TIP3   OH243407   1.968   3.852   6.791
14489TIP3    H143408   1.952   3.759   6.810
14489TIP3    H243409   1.886   3.896   6.813
14490TIP3   OH243410   4.861   4.038   5.250
14490TIP3    H143411   4.805   4.055   5.174
14490TIP3    H243412   4.847   4.113   5.307
14491TIP3   OH243413   3.268   7.363   0.669
14491TIP3    H143414   3.223   7.383   0.751
14491TIP3    H243415   3.359   7.348   0.694
14492TIP3   OH243416   0.886   1.323   6.323
14492TIP3    H143417   0.916   1.233   6.335
14492TIP3    H243418   0.851   1.326   6.234
14493TIP3   OH243419   5.106   1.376   2.678
14493TIP3    H143420   5.075   1.465   2.689
14493TIP3    H243421   5.146   1.375   2.591
14494TIP3   OH243422   6.278   5.452   4.972
14494TIP3    H143423   6.311   5.468   4.883
14494TIP3    H243424   6.274   5.357   4.979
14495TIP3   OH243425   2.902   1.140   6.198
14495TIP3    H143426   2.942   1.123   6.283
14495TIP3    H243427   2.965   1.104   6.135
14496TIP3   OH243428   2.790   1.456   6.702
14496TIP3    H143429   2.817   1.519   6.635
14496TIP3    H243430   2.850   1.382   6.692
14497TIP3   OH243431   7.242   2.393   0.927
14497TIP3    H143432   7.300   2.362   0.857
14497TIP3    H243433   7.296   2.386   1.006
14498TIP3   OH243434   2.594   5.639   0.131
14498TIP3    H143435   2.641   5.623   0.050
14498TIP3    H243436   2.639   5.585   0.196
14499TIP3   OH243437   0.401   1.675   1.369
14499TIP3    H143438   0.448   1.757   1.354
14499TIP3    H243439   0.383   1.674   1.463
14500TIP3   OH243440   4.889   0.865   0.770
14500TIP3    H143441   4.929   0.805   0.707
14500TIP3    H243442   4.935   0.948   0.756
14501TIP3   OH243443   1.600   7.573   3.253
14501TIP3    H143444   1.688   7.565   3.289
14501TIP3    H243445   1.612   7.576   3.159
14502TIP3   OH243446   3.499   7.558   3.402
14502TIP3    H143447   3.575   7.591   3.353
14502TIP3    H243448   3.534   7.532   3.487
14503TIP3   OH243449   4.618   2.786   5.643
14503TIP3    H143450   4.679   2.768   5.715
14503TIP3    H243451   4.546   2.835   5.683
14504TIP3   OH243452   0.217   3.854   3.499
14504TIP3    H143453   0.140   3.834   3.445
14504TIP3    H243454   0.211   3.947   3.516
14505TIP3   OH243455   0.429   7.728   3.024
14505TIP3    H143456   0.429   7.738   3.119
14505TIP3    H243457   0.351   7.676   3.005
14506TIP3   OH243458   5.124   2.939   5.401
14506TIP3    H143459   5.120   2.996   5.325
14506TIP3    H243460   5.217   2.917   5.410
14507TIP3   OH243461   1.734   7.382   0.591
14507TIP3    H143462   1.780   7.413   0.512
14507TIP3    H243463   1.765   7.440   0.661
14508TIP3   OH243464   8.160   7.618   4.167
14508TIP3    H143465   8.124   7.553   4.227
14508TIP3    H243466   8.093   7.686   4.161
14509TIP3   OH243467   3.750   4.461   1.379
14509TIP3    H143468   3.755   4.517   1.456
14509TIP3    H243469   3.656   4.448   1.364
14510TIP3   OH243470   5.295   4.440   4.013
14510TIP3    H143471   5.285   4.351   3.978
14510TIP3    H243472   5.210   4.482   3.995
14511TIP3   OH243473   2.814   6.041   5.309
14511TIP3    H143474   2.908   6.032   5.322
14511TIP3    H243475   2.780   6.065   5.395
14512TIP3   OH243476   8.065   4.989   0.424
14512TIP3    H143477   8.113   5.045   0.363
14512TIP3    H243478   8.035   5.049   0.492
14513TIP3   OH243479   0.160   3.280   1.105
14513TIP3    H143480   0.152   3.320   1.192
14513TIP3    H243481   0.253   3.259   1.096
14514TIP3   OH243482   7.968   4.731   3.965
14514TIP3    H143483   8.024   4.807   3.949
14514TIP3    H243484   8.003   4.693   4.046
14515TIP3   OH243485   2.218   2.424   1.363
14515TIP3    H143486   2.289   2.473   1.403
14515TIP3    H243487   2.225   2.442   1.270
14516TIP3   OH243488   5.617   5.329   6.835
14516TIP3    H143489   5.608   5.333   6.740
14516TIP3    H243490   5.552   5.264   6.863
14517TIP3   OH243491   5.624   7.870   5.210
14517TIP3    H143492   5.636   7.964   5.224
14517TIP3    H243493   5.578   7.864   5.127
14518TIP3   OH243494   0.607   3.562   0.397
14518TIP3    H143495   0.644   3.573   0.485
14518TIP3    H243496   0.514   3.545   0.413
14519TIP3   OH243497   7.878   4.523   0.226
14519TIP3    H143498   7.801   4.503   0.172
14519TIP3    H243499   7.842   4.540   0.313
14520TIP3   OH243500   5.514   5.441   4.231
14520TIP3    H143501   5.431   5.400   4.254
14520TIP3    H243502   5.558   5.375   4.177
14521TIP3   OH243503   3.600   1.718   0.173
14521TIP3    H143504   3.520   1.702   0.123
14521TIP3    H243505   3.632   1.630   0.195
14522TIP3   OH243506   1.560   5.659   5.230
14522TIP3    H143507   1.648   5.629   5.206
14522TIP3    H243508   1.540   5.611   5.310
14523TIP3   OH243509   2.383   5.531   5.466
14523TIP3    H143510   2.425   5.607   5.506
14523TIP3    H243511   2.455   5.468   5.455
14524TIP3   OH243512   2.519   0.752   4.764
14524TIP3    H143513   2.540   0.774   4.673
14524TIP3    H243514   2.464   0.674   4.758
14525TIP3   OH243515   2.704   1.986   6.083
14525TIP3    H143516   2.788   1.970   6.040
14525TIP3    H243517   2.686   1.906   6.132
14526TIP3   OH243518   0.482   5.638   3.809
14526TIP3    H143519   0.422   5.607   3.877
14526TIP3    H243520   0.429   5.696   3.755
14527TIP3   OH243521   0.906   4.387   6.583
14527TIP3    H143522   0.971   4.361   6.517
14527TIP3    H243523   0.917   4.323   6.654
14528TIP3   OH243524   7.991   5.047   5.679
14528TIP3    H143525   7.966   5.139   5.670
14528TIP3    H243526   8.049   5.045   5.754
14529TIP3   OH243527   4.534   2.802   0.203
14529TIP3    H143528   4.520   2.868   0.134
14529TIP3    H243529   4.454   2.751   0.204
14530TIP3   OH243530   4.190   0.128   3.747
14530TIP3    H143531   4.219   0.038   3.761
14530TIP3    H243532   4.268   0.174   3.717
14531TIP3   OH243533   1.410   0.880   4.009
14531TIP3    H143534   1.440   0.888   4.099
14531TIP3    H243535   1.486   0.844   3.962
14532TIP3   OH243536   2.278   3.578   5.493
14532TIP3    H143537   2.258   3.667   5.523
14532TIP3    H243538   2.226   3.567   5.414
14533TIP3   OH243539   7.303   1.169   2.919
14533TIP3    H143540   7.344   1.229   2.858
14533TIP3    H243541   7.328   1.201   3.005
14534TIP3   OH243542   6.601   5.765   4.877
14534TIP3    H143543   6.664   5.734   4.943
14534TIP3    H243544   6.650   5.829   4.825
14535TIP3   OH243545   1.163   0.984   2.052
14535TIP3    H143546   1.177   1.060   2.108
14535TIP3    H243547   1.229   0.920   2.080
14536TIP3   OH243548   3.902   4.471   2.631
14536TIP3    H143549   3.939   4.401   2.578
14536TIP3    H243550   3.967   4.541   2.628
14537TIP3   OH243551   6.809   1.782   0.186
14537TIP3    H143552   6.787   1.860   0.238
14537TIP3    H243553   6.830   1.817   0.099
14538TIP3   OH243554   3.204   2.651   4.880
14538TIP3    H143555   3.197   2.556   4.887
14538TIP3    H243556   3.115   2.683   4.895
14539TIP3   OH243557   1.078   1.127   6.783
14539TIP3    H143558   1.150   1.180   6.819
14539TIP3    H243559   1.119   1.075   6.715
14540TIP3   OH243560   6.991   6.689   0.830
14540TIP3    H143561   7.035   6.661   0.749
14540TIP3    H243562   6.931   6.617   0.850
14541TIP3   OH243563   1.347   3.167   3.654
14541TIP3    H143564   1.338   3.209   3.740
14541TIP3    H243565   1.258   3.144   3.629
14542TIP3   OH243566   2.687   6.844   1.989
14542TIP3    H143567   2.782   6.834   1.984
14542TIP3    H243568   2.667   6.920   1.936
14543TIP3   OH243569   2.240   4.010   1.388
14543TIP3    H143570   2.331   4.035   1.370
14543TIP3    H243571   2.225   4.039   1.478
14544TIP3   OH243572   5.026   2.372   0.546
14544TIP3    H143573   5.118   2.346   0.533
14544TIP3    H243574   4.975   2.296   0.519
14545TIP3   OH243575   6.241   4.324   2.378
14545TIP3    H143576   6.263   4.347   2.287
14545TIP3    H243577   6.171   4.260   2.370
14546TIP3   OH243578   1.237   5.829   5.550
14546TIP3    H143579   1.290   5.857   5.625
14546TIP3    H243580   1.183   5.758   5.583
14547TIP3   OH243581   4.140   6.158   2.229
14547TIP3    H143582   4.155   6.242   2.272
14547TIP3    H243583   4.205   6.099   2.268
14548TIP3   OH243584   7.175   2.020   0.163
14548TIP3    H143585   7.205   2.013   0.073
14548TIP3    H243586   7.159   1.930   0.190
14549TIP3   OH243587   2.428   5.955   5.132
14549TIP3    H143588   2.386   5.992   5.210
14549TIP3    H243589   2.358   5.907   5.087
14550TIP3   OH243590   2.225   7.644   2.927
14550TIP3    H143591   2.203   7.649   2.834
14550TIP3    H243592   2.321   7.641   2.928
14551TIP3   OH243593   4.238   5.874   5.956
14551TIP3    H143594   4.307   5.810   5.977
14551TIP3    H243595   4.165   5.848   6.013
14552TIP3   OH243596   8.158   6.770   2.564
14552TIP3    H143597   8.140   6.821   2.485
14552TIP3    H243598   8.072   6.749   2.600
14553TIP3   OH243599   0.326   0.770   0.274
14553TIP3    H143600   0.302   0.692   0.325
14553TIP3    H243601   0.310   0.744   0.183
14554TIP3   OH243602   4.978   1.823   2.589
14554TIP3    H143603   4.999   1.911   2.621
14554TIP3    H243604   5.034   1.811   2.512
14555TIP3   OH243605   0.541   7.772   4.152
14555TIP3    H143606   0.552   7.679   4.169
14555TIP3    H243607   0.498   7.776   4.066
14556TIP3   OH243608   7.320   5.418   6.171
14556TIP3    H143609   7.271   5.450   6.247
14556TIP3    H243610   7.255   5.409   6.102
14557TIP3   OH243611   4.293   7.267   0.946
14557TIP3    H143612   4.327   7.260   1.035
14557TIP3    H243613   4.341   7.341   0.908
14558TIP3   OH243614   1.508   0.432   5.005
14558TIP3    H143615   1.567   0.360   4.982
14558TIP3    H243616   1.448   0.438   4.931
14559TIP3   OH243617   2.988   6.564   0.027
14559TIP3    H143618   2.945   6.580   0.111
14559TIP3    H243619   3.032   6.479   0.038
14560TIP3   OH243620   1.723   0.749   3.439
14560TIP3    H143621   1.663   0.808   3.485
14560TIP3    H243622   1.692   0.748   3.349
14561TIP3   OH243623   4.856   7.800   0.370
14561TIP3    H143624   4.794   7.782   0.440
14561TIP3    H243625   4.830   7.884   0.334
14562TIP3   OH243626   3.981   2.319   4.480
14562TIP3    H143627   3.998   2.283   4.568
14562TIP3    H243628   4.036   2.397   4.475
14563TIP3   OH243629   6.767   6.226   3.422
14563TIP3    H143630   6.857   6.258   3.426
14563TIP3    H243631   6.718   6.285   3.478
14564TIP3   OH243632   5.633   6.868   0.725
14564TIP3    H143633   5.720   6.827   0.725
14564TIP3    H243634   5.643   6.944   0.784
14565TIP3   OH243635   0.727   5.271   3.049
14565TIP3    H143636   0.743   5.351   3.000
14565TIP3    H243637   0.698   5.208   2.982
14566TIP3   OH243638   1.957   7.890   3.932
14566TIP3    H143639   2.020   7.832   3.890
14566TIP3    H243640   1.908   7.930   3.860
14567TIP3   OH243641   7.511   7.148   4.463
14567TIP3    H143642   7.418   7.132   4.479
14567TIP3    H243643   7.523   7.129   4.370
14568TIP3   OH243644   2.206   2.163   0.367
14568TIP3    H143645   2.132   2.213   0.400
14568TIP3    H243646   2.230   2.104   0.439
14569TIP3   OH243647   4.886   0.575   3.808
14569TIP3    H143648   4.862   0.512   3.876
14569TIP3    H243649   4.882   0.524   3.727
14570TIP3   OH243650   3.283   1.741   6.315
14570TIP3    H143651   3.320   1.707   6.233
14570TIP3    H243652   3.269   1.664   6.370
14571TIP3   OH243653   6.611   5.388   5.226
14571TIP3    H143654   6.677   5.364   5.161
14571TIP3    H243655   6.660   5.406   5.306
14572TIP3   OH243656   1.827   0.999   1.792
14572TIP3    H143657   1.864   0.950   1.866
14572TIP3    H243658   1.831   1.091   1.820
14573TIP3   OH243659   0.726   5.223   4.733
14573TIP3    H143660   0.642   5.194   4.696
14573TIP3    H243661   0.784   5.228   4.657
14574TIP3   OH243662   6.782   6.330   3.746
14574TIP3    H143663   6.720   6.257   3.744
14574TIP3    H243664   6.775   6.366   3.834
14575TIP3   OH243665   4.844   7.556   1.561
14575TIP3    H143666   4.888   7.584   1.641
14575TIP3    H243667   4.914   7.519   1.507
14576TIP3   OH243668   6.924   4.294   6.465
14576TIP3    H143669   6.972   4.371   6.436
14576TIP3    H243670   6.992   4.228   6.482
14577TIP3   OH243671   3.015   4.309   3.614
14577TIP3    H143672   3.092   4.331   3.667
14577TIP3    H243673   3.014   4.213   3.611
14578TIP3   OH243674   4.682   1.360   2.662
14578TIP3    H143675   4.623   1.347   2.588
14578TIP3    H243676   4.640   1.314   2.734
14579TIP3   OH243677   7.087   5.881   5.814
14579TIP3    H143678   7.133   5.946   5.867
14579TIP3    H243679   7.136   5.800   5.829
14580TIP3   OH243680   0.775   2.489   3.068
14580TIP3    H143681   0.776   2.492   2.972
14580TIP3    H243682   0.711   2.555   3.094
14581TIP3   OH243683   1.236   2.125   3.987
14581TIP3    H143684   1.162   2.130   4.047
14581TIP3    H243685   1.313   2.136   4.043
14582TIP3   OH243686   1.155   1.540   3.755
14582TIP3    H143687   1.132   1.516   3.845
14582TIP3    H243688   1.077   1.584   3.721
14583TIP3   OH243689   5.788   1.779   6.730
14583TIP3    H143690   5.859   1.772   6.666
14583TIP3    H243691   5.828   1.822   6.805
14584TIP3   OH243692   6.257   3.423   2.408
14584TIP3    H143693   6.262   3.372   2.327
14584TIP3    H243694   6.187   3.487   2.392
14585TIP3   OH243695   1.683   2.610   4.157
14585TIP3    H143696   1.592   2.587   4.175
14585TIP3    H243697   1.698   2.690   4.207
14586TIP3   OH243698   2.879   6.676   3.922
14586TIP3    H143699   2.853   6.643   3.836
14586TIP3    H243700   2.966   6.638   3.937
14587TIP3   OH243701   2.890   6.573   5.308
14587TIP3    H143702   2.939   6.651   5.335
14587TIP3    H243703   2.945   6.531   5.242
14588TIP3   OH243704   6.220   5.965   3.380
14588TIP3    H143705   6.246   5.890   3.433
14588TIP3    H243706   6.272   6.038   3.413
14589TIP3   OH243707   5.935   3.747   4.922
14589TIP3    H143708   5.897   3.661   4.901
14589TIP3    H243709   5.870   3.788   4.979
14590TIP3   OH243710   5.951   6.687   6.630
14590TIP3    H143711   5.995   6.605   6.651
14590TIP3    H243712   5.865   6.680   6.672
14591TIP3   OH243713   4.495   7.024   3.588
14591TIP3    H143714   4.410   7.027   3.634
14591TIP3    H243715   4.536   6.944   3.619
14592TIP3   OH243716   4.154   1.606   4.837
14592TIP3    H143717   4.126   1.536   4.896
14592TIP3    H243718   4.087   1.607   4.768
14593TIP3   OH243719   5.476   4.089   4.479
14593TIP3    H143720   5.412   4.024   4.506
14593TIP3    H243721   5.424   4.159   4.438
14594TIP3   OH243722   7.073   0.367   1.349
14594TIP3    H143723   7.087   0.426   1.275
14594TIP3    H243724   6.995   0.401   1.393
14595TIP3   OH243725   3.118   6.406   0.777
14595TIP3    H143726   3.113   6.442   0.866
14595TIP3    H243727   3.188   6.456   0.736
14596TIP3   OH243728   3.298   1.896   2.302
14596TIP3    H143729   3.379   1.900   2.251
14596TIP3    H243730   3.325   1.859   2.386
14597TIP3   OH243731   4.203   4.645   6.219
14597TIP3    H143732   4.222   4.591   6.296
14597TIP3    H243733   4.266   4.716   6.223
14598TIP3   OH243734   6.018   1.992   5.753
14598TIP3    H143735   5.955   1.984   5.825
14598TIP3    H243736   6.099   2.021   5.795
14599TIP3   OH243737   7.388   1.336   1.106
14599TIP3    H143738   7.479   1.359   1.087
14599TIP3    H243739   7.336   1.392   1.048
14600TIP3   OH243740   3.949   2.633   2.094
14600TIP3    H143741   3.995   2.554   2.067
14600TIP3    H243742   3.888   2.603   2.161
14601TIP3   OH243743   4.687   0.213   1.272
14601TIP3    H143744   4.775   0.174   1.271
14601TIP3    H243745   4.670   0.231   1.365
14602TIP3   OH243746   1.420   5.930   3.990
14602TIP3    H143747   1.467   5.914   3.909
14602TIP3    H243748   1.435   6.023   4.009
14603TIP3   OH243749   1.451   0.674   0.699
14603TIP3    H143750   1.509   0.740   0.661
14603TIP3    H243751   1.464   0.683   0.794
14604TIP3   OH243752   4.830   1.446   1.192
14604TIP3    H143753   4.880   1.492   1.126
14604TIP3    H243754   4.784   1.515   1.241
14605TIP3   OH243755   2.204   5.592   3.145
14605TIP3    H143756   2.261   5.536   3.093
14605TIP3    H243757   2.240   5.587   3.234
14606TIP3   OH243758   3.963   3.377   2.913
14606TIP3    H143759   4.056   3.356   2.919
14606TIP3    H243760   3.920   3.292   2.901
14607TIP3   OH243761   3.786   1.041   3.080
14607TIP3    H143762   3.812   1.061   3.170
14607TIP3    H243763   3.869   1.038   3.031
14608TIP3   OH243764   0.676   2.505   3.487
14608TIP3    H143765   0.736   2.532   3.417
14608TIP3    H243766   0.684   2.574   3.553
14609TIP3   OH243767   6.857   1.964   1.594
14609TIP3    H143768   6.907   1.922   1.664
14609TIP3    H243769   6.792   1.899   1.568
14610TIP3   OH243770   8.270   1.444   4.950
14610TIP3    H143771   8.334   1.507   4.919
14610TIP3    H243772   8.266   1.456   5.045
14611TIP3   OH243773   1.752   6.288   3.499
14611TIP3    H143774   1.705   6.352   3.552
14611TIP3    H243775   1.685   6.246   3.446
14612TIP3   OH243776   3.275   7.907   5.674
14612TIP3    H143777   3.366   7.921   5.648
14612TIP3    H243778   3.238   7.852   5.605
14613TIP3   OH243779   0.216   3.273   0.180
14613TIP3    H143780   0.263   3.336   0.126
14613TIP3    H243781   0.213   3.193   0.127
14614TIP3   OH243782   4.027   4.118   1.600
14614TIP3    H143783   3.942   4.155   1.624
14614TIP3    H243784   4.091   4.174   1.642
14615TIP3   OH243785   4.779   4.070   5.935
14615TIP3    H143786   4.777   3.989   5.986
14615TIP3    H243787   4.871   4.097   5.936
14616TIP3   OH243788   7.158   3.896   0.442
14616TIP3    H143789   7.071   3.915   0.406
14616TIP3    H243790   7.159   3.801   0.454
14617TIP3   OH243791   7.255   2.420   3.003
14617TIP3    H143792   7.220   2.472   2.930
14617TIP3    H243793   7.185   2.421   3.068
14618TIP3   OH243794   1.681   4.734   3.665
14618TIP3    H143795   1.593   4.698   3.660
14618TIP3    H243796   1.739   4.660   3.650
14619TIP3   OH243797   5.269   4.946   4.181
14619TIP3    H143798   5.187   4.910   4.146
14619TIP3    H243799   5.330   4.944   4.107
14620TIP3   OH243800   6.462   3.366   6.733
14620TIP3    H143801   6.440   3.354   6.826
14620TIP3    H243802   6.402   3.307   6.687
14621TIP3   OH243803   5.890   1.153   2.457
14621TIP3    H143804   5.851   1.079   2.410
14621TIP3    H243805   5.962   1.181   2.400
14622TIP3   OH243806   2.725   0.529   0.330
14622TIP3    H143807   2.750   0.437   0.322
14622TIP3    H243808   2.798   0.577   0.290
14623TIP3   OH243809   5.404   3.535   2.513
14623TIP3    H143810   5.345   3.557   2.441
14623TIP3    H243811   5.347   3.513   2.586
14624TIP3   OH243812   4.620   0.121   3.732
14624TIP3    H143813   4.540   0.172   3.744
14624TIP3    H243814   4.661   0.160   3.654
14625TIP3   OH243815   7.029   2.800   5.964
14625TIP3    H143816   7.118   2.830   5.948
14625TIP3    H243817   6.976   2.851   5.903
14626TIP3   OH243818   0.461   0.292   5.376
14626TIP3    H143819   0.462   0.206   5.418
14626TIP3    H243820   0.498   0.276   5.289
14627TIP3   OH243821   6.432   2.597   2.790
14627TIP3    H143822   6.482   2.657   2.734
14627TIP3    H243823   6.352   2.645   2.811
14628TIP3   OH243824   2.272   7.750   5.087
14628TIP3    H143825   2.359   7.746   5.049
14628TIP3    H243826   2.278   7.698   5.168
14629TIP3   OH243827   4.322   3.335   2.043
14629TIP3    H143828   4.273   3.289   2.111
14629TIP3    H243829   4.315   3.428   2.066
14630TIP3   OH243830   2.137   2.188   1.484
14630TIP3    H143831   2.086   2.145   1.415
14630TIP3    H243832   2.200   2.243   1.437
14631TIP3   OH243833   7.381   4.613   2.965
14631TIP3    H143834   7.434   4.611   2.885
14631TIP3    H243835   7.421   4.547   3.021
14632TIP3   OH243836   4.853   5.727   5.591
14632TIP3    H143837   4.942   5.752   5.615
14632TIP3    H243838   4.864   5.669   5.516
14633TIP3   OH243839   6.113   2.261   5.068
14633TIP3    H143840   6.095   2.350   5.039
14633TIP3    H243841   6.031   2.214   5.053
14634TIP3   OH243842   8.010   7.811   1.342
14634TIP3    H143843   8.007   7.764   1.426
14634TIP3    H243844   8.103   7.816   1.321
14635TIP3   OH243845   1.370   3.267   5.994
14635TIP3    H143846   1.405   3.180   5.976
14635TIP3    H243847   1.422   3.326   5.939
14636TIP3   OH243848   3.375   4.015   2.742
14636TIP3    H143849   3.320   4.094   2.741
14636TIP3    H243850   3.361   3.975   2.656
14637TIP3   OH243851   4.300   1.938   3.900
14637TIP3    H143852   4.316   2.032   3.905
14637TIP3    H243853   4.226   1.923   3.959
14638TIP3   OH243854   7.449   2.396   4.606
14638TIP3    H143855   7.465   2.377   4.698
14638TIP3    H243856   7.448   2.310   4.563
14639TIP3   OH243857   7.968   7.632   0.129
14639TIP3    H143858   7.924   7.680   0.060
14639TIP3    H243859   8.042   7.688   0.155
14640TIP3   OH243860   4.927   6.750   0.585
14640TIP3    H143861   4.918   6.838   0.547
14640TIP3    H243862   4.844   6.707   0.564
14641TIP3   OH243863   4.102   5.313   6.748
14641TIP3    H143864   4.012   5.339   6.768
14641TIP3    H243865   4.151   5.395   6.744
14642TIP3   OH243866   7.293   1.691   4.381
14642TIP3    H143867   7.358   1.761   4.375
14642TIP3    H243868   7.324   1.635   4.453
14643TIP3   OH243869   7.539   1.858   2.687
14643TIP3    H143870   7.585   1.916   2.748
14643TIP3    H243871   7.518   1.913   2.613
14644TIP3   OH243872   8.385   2.984   5.582
14644TIP3    H143873   8.369   3.077   5.597
14644TIP3    H243874   8.307   2.940   5.616
14645TIP3   OH243875   3.153   6.286   3.313
14645TIP3    H143876   3.114   6.203   3.287
14645TIP3    H243877   3.086   6.351   3.293
14646TIP3   OH243878   8.377   2.626   6.068
14646TIP3    H143879   8.296   2.664   6.034
14646TIP3    H243880   8.372   2.534   6.042
14647TIP3   OH243881   0.273   6.973   6.099
14647TIP3    H143882   0.268   6.958   6.004
14647TIP3    H243883   0.363   6.949   6.121
14648TIP3   OH243884   3.025   2.378   0.197
14648TIP3    H143885   3.002   2.290   0.228
14648TIP3    H243886   2.989   2.437   0.263
14649TIP3   OH243887   0.183   0.011   2.731
14649TIP3    H143888   0.205  -0.041   2.653
14649TIP3    H243889   0.103  -0.029   2.764
14650TIP3   OH243890   7.839   7.350   3.444
14650TIP3    H143891   7.811   7.436   3.473
14650TIP3    H243892   7.758   7.303   3.423
14651TIP3   OH243893   5.674   2.250   2.397
14651TIP3    H143894   5.656   2.299   2.316
14651TIP3    H243895   5.769   2.249   2.403
14652TIP3   OH243896   2.127   1.986   3.901
14652TIP3    H143897   2.041   2.018   3.873
14652TIP3    H243898   2.172   1.965   3.819
14653TIP3   OH243899   7.975   3.366   4.678
14653TIP3    H143900   8.027   3.438   4.640
14653TIP3    H243901   7.935   3.404   4.756
14654TIP3   OH243902   1.029   0.552   4.672
14654TIP3    H143903   0.983   0.543   4.755
14654TIP3    H243904   1.002   0.637   4.638
14655TIP3   OH243905   3.582   7.852   0.664
14655TIP3    H143906   3.640   7.800   0.608
14655TIP3    H243907   3.624   7.849   0.750
14656TIP3   OH243908   2.493   6.475   0.604
14656TIP3    H143909   2.525   6.419   0.675
14656TIP3    H243910   2.408   6.439   0.581
14657TIP3   OH243911   0.600   1.137   5.016
14657TIP3    H143912   0.591   1.069   5.082
14657TIP3    H243913   0.518   1.135   4.967
14658TIP3   OH243914   3.906   4.844   2.977
14658TIP3    H143915   3.951   4.767   2.943
14658TIP3    H243916   3.824   4.847   2.927
14659TIP3   OH243917   3.136   5.863   2.331
14659TIP3    H143918   3.103   5.791   2.278
14659TIP3    H243919   3.226   5.875   2.301
14660TIP3   OH243920   1.332   0.482   2.548
14660TIP3    H143921   1.250   0.528   2.567
14660TIP3    H243922   1.399   0.550   2.557
14661TIP3   OH243923   3.284   2.410   0.077
14661TIP3    H143924   3.315   2.322   0.054
14661TIP3    H243925   3.188   2.403   0.071
14662TIP3   OH243926   5.406   3.977   4.165
14662TIP3    H143927   5.334   3.964   4.226
14662TIP3    H243928   5.484   3.947   4.212
14663TIP3   OH243929   7.184   7.533   5.743
14663TIP3    H143930   7.160   7.549   5.652
14663TIP3    H243931   7.269   7.489   5.738
14664TIP3   OH243932   6.092   0.500   2.166
14664TIP3    H143933   6.034   0.424   2.159
14664TIP3    H243934   6.107   0.510   2.260
14665TIP3   OH243935   2.951   3.052   0.274
14665TIP3    H143936   3.029   3.075   0.222
14665TIP3    H243937   2.908   3.136   0.291
14666TIP3   OH243938   4.135   5.646   5.744
14666TIP3    H143939   4.169   5.735   5.730
14666TIP3    H243940   4.044   5.659   5.770
14667TIP3   OH243941   2.017   4.921   2.736
14667TIP3    H143942   2.105   4.903   2.770
14667TIP3    H243943   2.010   5.016   2.739
14668TIP3   OH243944   0.720   2.215   3.046
14668TIP3    H143945   0.733   2.306   3.019
14668TIP3    H243946   0.628   2.210   3.073
14669TIP3   OH243947   0.045   5.724   2.037
14669TIP3    H143948   0.084   5.718   2.124
14669TIP3    H243949   0.009   5.637   2.020
14670TIP3   OH243950   5.012   6.452   6.203
14670TIP3    H143951   4.938   6.509   6.225
14670TIP3    H243952   5.055   6.496   6.130
14671TIP3   OH243953   0.447   3.292   6.542
14671TIP3    H143954   0.369   3.244   6.514
14671TIP3    H243955   0.443   3.291   6.637
14672TIP3   OH243956   6.009   3.912   5.561
14672TIP3    H143957   5.972   3.999   5.575
14672TIP3    H243958   5.987   3.864   5.641
14673TIP3   OH243959   5.420   1.583   4.160
14673TIP3    H143960   5.326   1.592   4.143
14673TIP3    H243961   5.433   1.489   4.170
14674TIP3   OH243962   4.059   5.398   2.949
14674TIP3    H143963   4.109   5.417   2.870
14674TIP3    H243964   4.123   5.401   3.020
14675TIP3   OH243965   7.050   7.550   1.641
14675TIP3    H143966   7.052   7.467   1.594
14675TIP3    H243967   6.961   7.556   1.675
14676TIP3   OH243968   3.975   4.868   0.670
14676TIP3    H143969   3.944   4.857   0.580
14676TIP3    H243970   4.057   4.819   0.674
14677TIP3   OH243971   7.871   2.487   5.170
14677TIP3    H143972   7.786   2.444   5.159
14677TIP3    H243973   7.879   2.543   5.093
14678TIP3   OH243974   7.420   2.598   4.998
14678TIP3    H143975   7.420   2.666   4.931
14678TIP3    H243976   7.497   2.616   5.051
14679TIP3   OH243977   0.376   2.101   4.762
14679TIP3    H143978   0.356   2.193   4.780
14679TIP3    H243979   0.290   2.059   4.754
14680TIP3   OH243980   5.128   1.044   6.426
14680TIP3    H143981   5.208   1.050   6.477
14680TIP3    H243982   5.143   1.102   6.351
14681TIP3   OH243983   7.704   0.990   0.930
14681TIP3    H143984   7.724   0.983   0.836
14681TIP3    H243985   7.744   1.074   0.956
14682TIP3   OH243986   7.143   0.585   2.631
14682TIP3    H143987   7.076   0.591   2.699
14682TIP3    H243988   7.187   0.502   2.648
14683TIP3   OH243989   8.237   4.793   6.379
14683TIP3    H143990   8.279   4.708   6.387
14683TIP3    H243991   8.144   4.775   6.390
14684TIP3   OH243992   3.987   0.276   6.042
14684TIP3    H143993   4.021   0.271   5.952
14684TIP3    H243994   3.982   0.369   6.060
14685TIP3   OH243995   4.613   0.049   4.731
14685TIP3    H143996   4.618   0.059   4.636
14685TIP3    H243997   4.701   0.073   4.762
14686TIP3   OH243998   5.581   6.518   1.821
14686TIP3    H143999   5.554   6.586   1.759
14686TIP3    H244000   5.549   6.436   1.783
14687TIP3   OH244001   5.844   0.863   5.688
14687TIP3    H144002   5.793   0.872   5.608
14687TIP3    H244003   5.886   0.777   5.681
14688TIP3   OH244004   5.730   2.853   4.603
14688TIP3    H144005   5.689   2.899   4.676
14688TIP3    H244006   5.658   2.835   4.542
14689TIP3   OH244007   0.309   7.905   0.393
14689TIP3    H144008   0.355   7.906   0.477
14689TIP3    H244009   0.217   7.923   0.416
14690TIP3   OH244010   1.056   7.213   6.905
14690TIP3    H144011   1.047   7.132   6.854
14690TIP3    H244012   0.966   7.238   6.927
14691TIP3   OH244013   7.078   4.429   6.711
14691TIP3    H144014   7.102   4.522   6.711
14691TIP3    H244015   7.143   4.388   6.654
14692TIP3   OH244016   4.946   4.140   5.664
14692TIP3    H144017   4.922   4.230   5.641
14692TIP3    H244018   4.875   4.086   5.628
14693TIP3   OH244019   1.881   6.290   2.853
14693TIP3    H144020   1.866   6.259   2.942
14693TIP3    H244021   1.793   6.290   2.813
14694TIP3   OH244022   1.836   0.622   6.349
14694TIP3    H144023   1.918   0.667   6.331
14694TIP3    H244024   1.840   0.602   6.443
14695TIP3   OH244025   7.841   5.606   1.920
14695TIP3    H144026   7.909   5.564   1.972
14695TIP3    H244027   7.885   5.627   1.837
14696TIP3   OH244028   3.615   5.963   4.920
14696TIP3    H144029   3.591   5.871   4.925
14696TIP3    H244030   3.640   5.987   5.010
14697TIP3   OH244031   5.871   6.536   1.886
14697TIP3    H144032   5.931   6.566   1.817
14697TIP3    H244033   5.785   6.562   1.855
14698TIP3   OH244034   7.247   7.035   2.414
14698TIP3    H144035   7.271   7.084   2.492
14698TIP3    H244036   7.161   6.997   2.435
14699TIP3   OH244037   6.492   7.040   2.384
14699TIP3    H144038   6.549   7.117   2.396
14699TIP3    H244039   6.433   7.042   2.459
14700TIP3   OH244040   5.105   7.817   4.084
14700TIP3    H144041   5.028   7.825   4.140
14700TIP3    H244042   5.165   7.883   4.117
14701TIP3   OH244043   1.647   5.140   4.081
14701TIP3    H144044   1.570   5.116   4.029
14701TIP3    H244045   1.614   5.146   4.171
14702TIP3   OH244046   5.185   3.486   2.714
14702TIP3    H144047   5.106   3.478   2.767
14702TIP3    H244048   5.256   3.490   2.778
14703TIP3   OH244049   3.270   1.768   4.610
14703TIP3    H144050   3.227   1.769   4.696
14703TIP3    H244051   3.204   1.804   4.551
14704TIP3   OH244052   6.712   6.767   1.151
14704TIP3    H144053   6.618   6.760   1.165
14704TIP3    H244054   6.751   6.732   1.232
14705TIP3   OH244055   2.892   7.232   6.589
14705TIP3    H144056   2.835   7.158   6.564
14705TIP3    H244057   2.958   7.235   6.520
14706TIP3   OH244058   3.294   1.496   6.534
14706TIP3    H144059   3.300   1.565   6.600
14706TIP3    H244060   3.203   1.467   6.538
14707TIP3   OH244061   5.563   6.309   3.913
14707TIP3    H144062   5.620   6.241   3.949
14707TIP3    H244063   5.519   6.345   3.990
14708TIP3   OH244064   7.180   7.809   0.591
14708TIP3    H144065   7.164   7.884   0.649
14708TIP3    H244066   7.264   7.773   0.620
14709TIP3   OH244067   0.874   1.392   5.253
14709TIP3    H144068   0.855   1.347   5.335
14709TIP3    H244069   0.838   1.480   5.265
14710TIP3   OH244070   5.911   5.672   4.541
14710TIP3    H144071   5.943   5.757   4.510
14710TIP3    H244072   5.818   5.673   4.522
14711TIP3   OH244073   7.621   3.185   0.844
14711TIP3    H144074   7.704   3.149   0.876
14711TIP3    H244075   7.591   3.122   0.778
14712TIP3   OH244076   8.020   3.346   6.791
14712TIP3    H144077   8.070   3.406   6.736
14712TIP3    H244078   7.930   3.379   6.788
14713TIP3   OH244079   3.354   3.934   6.116
14713TIP3    H144080   3.323   3.983   6.040
14713TIP3    H244081   3.339   3.994   6.190
14714TIP3   OH244082   2.986   7.068   1.199
14714TIP3    H144083   2.938   7.042   1.277
14714TIP3    H244084   3.064   7.113   1.232
14715TIP3   OH244085   3.332   3.417   4.307
14715TIP3    H144086   3.333   3.507   4.275
14715TIP3    H244087   3.391   3.370   4.249
14716TIP3   OH244088   7.035   3.465   2.382
14716TIP3    H144089   6.948   3.504   2.383
14716TIP3    H244090   7.020   3.373   2.361
14717TIP3   OH244091   6.356   2.896   1.982
14717TIP3    H144092   6.375   2.802   1.975
14717TIP3    H244093   6.289   2.912   1.916
14718TIP3   OH244094   8.304   5.647   6.792
14718TIP3    H144095   8.264   5.575   6.744
14718TIP3    H244096   8.397   5.642   6.770
14719TIP3   OH244097   6.017   7.232   5.946
14719TIP3    H144098   6.018   7.192   5.859
14719TIP3    H244099   5.985   7.321   5.930
14720TIP3   OH244100   2.707   3.621   2.639
14720TIP3    H144101   2.775   3.686   2.656
14720TIP3    H244102   2.721   3.553   2.706
14721TIP3   OH244103   6.469   5.619   3.561
14721TIP3    H144104   6.506   5.536   3.532
14721TIP3    H244105   6.438   5.601   3.650
14722TIP3   OH244106   0.229   2.931   6.170
14722TIP3    H144107   0.222   2.881   6.089
14722TIP3    H244108   0.140   2.932   6.205
14723TIP3   OH244109   1.383   7.235   1.100
14723TIP3    H144110   1.335   7.158   1.132
14723TIP3    H244111   1.335   7.264   1.023
14724TIP3   OH244112   2.342   3.115   3.816
14724TIP3    H144113   2.384   3.195   3.847
14724TIP3    H244114   2.408   3.074   3.760
14725TIP3   OH244115   4.542   6.429   0.017
14725TIP3    H144116   4.607   6.359   0.027
14725TIP3    H244117   4.593   6.507  -0.005
14726TIP3   OH244118   3.314   6.831   4.302
14726TIP3    H144119   3.253   6.813   4.373
14726TIP3    H244120   3.280   6.910   4.260
14727TIP3   OH244121   4.774   6.707   0.194
14727TIP3    H144122   4.868   6.689   0.204
14727TIP3    H244123   4.756   6.776   0.258
14728TIP3   OH244124   4.568   4.245   1.426
14728TIP3    H144125   4.603   4.267   1.513
14728TIP3    H244126   4.614   4.165   1.401
14729TIP3   OH244127   6.727   3.428   4.739
14729TIP3    H144128   6.663   3.474   4.794
14729TIP3    H244129   6.788   3.388   4.801
14730TIP3   OH244130   3.063   0.697   2.446
14730TIP3    H144131   3.090   0.769   2.502
14730TIP3    H244132   3.144   0.648   2.429
14731TIP3   OH244133   7.581   5.238   1.914
14731TIP3    H144134   7.550   5.148   1.911
14731TIP3    H244135   7.631   5.249   1.833
14732TIP3   OH244136   7.977   1.369   0.475
14732TIP3    H144137   8.013   1.404   0.394
14732TIP3    H244138   8.054   1.345   0.527
14733TIP3   OH244139   6.491   0.072   5.100
14733TIP3    H144140   6.472  -0.021   5.103
14733TIP3    H244141   6.405   0.114   5.094
14734TIP3   OH244142   0.419   0.206   4.056
14734TIP3    H144143   0.396   0.120   4.021
14734TIP3    H244144   0.489   0.237   3.998
14735TIP3   OH244145   7.804   2.940   3.329
14735TIP3    H144146   7.849   2.955   3.412
14735TIP3    H244147   7.753   2.860   3.343
14736TIP3   OH244148   5.707   2.292   6.044
14736TIP3    H144149   5.691   2.273   5.951
14736TIP3    H244150   5.777   2.357   6.044
14737TIP3   OH244151   1.561   7.826   1.740
14737TIP3    H144152   1.531   7.777   1.817
14737TIP3    H244153   1.484   7.874   1.710
14738TIP3   OH244154   4.847   2.027   4.451
14738TIP3    H144155   4.921   2.087   4.451
14738TIP3    H244156   4.882   1.945   4.414
14739TIP3   OH244157   0.200   6.897   0.119
14739TIP3    H144158   0.145   6.967   0.152
14739TIP3    H244159   0.140   6.838   0.074
14740TIP3   OH244160   6.116   5.856   0.571
14740TIP3    H144161   6.024   5.833   0.584
14740TIP3    H244162   6.126   5.938   0.619
14741TIP3   OH244163   1.211   3.100   1.616
14741TIP3    H144164   1.121   3.127   1.635
14741TIP3    H244165   1.240   3.055   1.695
14742TIP3   OH244166   4.686   1.673   1.306
14742TIP3    H144167   4.621   1.742   1.320
14742TIP3    H244168   4.656   1.600   1.359
14743TIP3   OH244169   0.524   7.914   6.628
14743TIP3    H144170   0.611   7.920   6.588
14743TIP3    H244171   0.484   7.837   6.587
14744TIP3   OH244172   8.059   2.879   3.108
14744TIP3    H144173   8.053   2.967   3.145
14744TIP3    H244174   8.084   2.823   3.182
14745TIP3   OH244175   7.669   6.756   5.235
14745TIP3    H144176   7.656   6.684   5.297
14745TIP3    H244177   7.600   6.744   5.170
14746TIP3   OH244178   7.137   1.225   1.125
14746TIP3    H144179   7.221   1.265   1.149
14746TIP3    H244180   7.103   1.280   1.055
14747TIP3   OH244181   3.410   0.362   0.315
14747TIP3    H144182   3.402   0.457   0.305
14747TIP3    H244183   3.383   0.346   0.406
14748TIP3   OH244184   0.554   4.572   4.677
14748TIP3    H144185   0.475   4.541   4.633
14748TIP3    H244186   0.525   4.596   4.765
14749TIP3   OH244187   3.085   5.344   1.813
14749TIP3    H144188   3.112   5.436   1.817
14749TIP3    H244189   3.113   5.315   1.726
14750TIP3   OH244190   5.403   7.420   1.433
14750TIP3    H144191   5.340   7.426   1.362
14750TIP3    H244192   5.466   7.354   1.404
14751TIP3   OH244193   6.816   6.375   1.479
14751TIP3    H144194   6.756   6.310   1.515
14751TIP3    H244195   6.831   6.436   1.551
14752TIP3   OH244196   1.107   0.910   2.438
14752TIP3    H144197   1.051   0.981   2.471
14752TIP3    H244198   1.094   0.840   2.501
14753TIP3   OH244199   0.227   2.040   2.760
14753TIP3    H144200   0.318   2.060   2.781
14753TIP3    H244201   0.176   2.085   2.827
14754TIP3   OH244202   3.692   2.672   2.901
14754TIP3    H144203   3.603   2.640   2.914
14754TIP3    H244204   3.747   2.611   2.950
14755TIP3   OH244205   5.444   4.400   3.254
14755TIP3    H144206   5.465   4.469   3.318
14755TIP3    H244207   5.357   4.423   3.222
14756TIP3   OH244208   6.576   5.007   3.696
14756TIP3    H144209   6.665   5.030   3.670
14756TIP3    H244210   6.587   4.948   3.770
14757TIP3   OH244211   7.528   6.937   3.949
14757TIP3    H144212   7.603   6.977   3.993
14757TIP3    H244213   7.453   6.963   4.001
14758TIP3   OH244214   5.185   0.868   5.464
14758TIP3    H144215   5.216   0.946   5.417
14758TIP3    H244216   5.159   0.901   5.550
14759TIP3   OH244217   5.948   7.458   5.798
14759TIP3    H144218   5.964   7.436   5.706
14759TIP3    H244219   5.929   7.551   5.797
14760TIP3   OH244220   1.464   6.656   4.204
14760TIP3    H144221   1.520   6.716   4.253
14760TIP3    H244222   1.525   6.591   4.169
14761TIP3   OH244223   4.287   6.321   3.122
14761TIP3    H144224   4.338   6.244   3.096
14761TIP3    H244225   4.349   6.377   3.168
14762TIP3   OH244226   1.203   2.145   6.498
14762TIP3    H144227   1.134   2.153   6.564
14762TIP3    H244228   1.180   2.066   6.449
14763TIP3   OH244229   6.867   2.376   0.379
14763TIP3    H144230   6.826   2.326   0.308
14763TIP3    H244231   6.956   2.343   0.383
14764TIP3   OH244232   1.429   4.328   2.734
14764TIP3    H144233   1.348   4.313   2.686
14764TIP3    H244234   1.496   4.281   2.685
14765TIP3   OH244235   1.098   1.435   5.766
14765TIP3    H144236   1.170   1.467   5.820
14765TIP3    H244237   1.111   1.340   5.762
14766TIP3   OH244238   0.485   0.964   0.525
14766TIP3    H144239   0.422   0.932   0.460
14766TIP3    H244240   0.431   1.001   0.595
14767TIP3   OH244241   0.046   1.814   5.138
14767TIP3    H144242  -0.015   1.768   5.195
14767TIP3    H244243   0.061   1.754   5.065
14768TIP3   OH244244   7.145   2.873   3.822
14768TIP3    H144245   7.209   2.902   3.758
14768TIP3    H244246   7.197   2.831   3.890
14769TIP3   OH244247   6.838   2.490   1.833
14769TIP3    H144248   6.831   2.572   1.784
14769TIP3    H244249   6.764   2.437   1.803
14770TIP3   OH244250   4.126   1.678   2.236
14770TIP3    H144251   4.132   1.769   2.206
14770TIP3    H244252   4.110   1.628   2.156
14771TIP3   OH244253   0.754   6.355   6.269
14771TIP3    H144254   0.845   6.384   6.272
14771TIP3    H244255   0.705   6.423   6.316
14772TIP3   OH244256   1.317   7.060   5.290
14772TIP3    H144257   1.334   6.967   5.300
14772TIP3    H244258   1.391   7.092   5.237
14773TIP3   OH244259   2.896   5.126   4.668
14773TIP3    H144260   2.875   5.035   4.689
14773TIP3    H244261   2.812   5.164   4.640
14774TIP3   OH244262   5.253   2.786   6.038
14774TIP3    H144263   5.331   2.830   6.005
14774TIP3    H244264   5.216   2.741   5.961
14775TIP3   OH244265   7.972   6.342   3.602
14775TIP3    H144266   7.915   6.310   3.532
14775TIP3    H244267   8.026   6.409   3.560
14776TIP3   OH244268   5.911   2.192   0.481
14776TIP3    H144269   5.853   2.169   0.553
14776TIP3    H244270   5.995   2.152   0.505
14777TIP3   OH244271   6.835   2.962   5.446
14777TIP3    H144272   6.843   2.941   5.539
14777TIP3    H244273   6.876   2.887   5.402
14778TIP3   OH244274   3.492   7.137   4.279
14778TIP3    H144275   3.405   7.156   4.243
14778TIP3    H244276   3.540   7.219   4.269
14779TIP3   OH244277   1.448   3.032   1.205
14779TIP3    H144278   1.357   3.005   1.222
14779TIP3    H244279   1.466   3.002   1.116
14780TIP3   OH244280   0.682   5.302   6.155
14780TIP3    H144281   0.669   5.340   6.242
14780TIP3    H244282   0.610   5.337   6.102
14781TIP3   OH244283   5.114   6.061   2.222
14781TIP3    H144284   5.171   5.985   2.238
14781TIP3    H244285   5.051   6.059   2.294
14782TIP3   OH244286   8.207   3.755   1.639
14782TIP3    H144287   8.263   3.681   1.615
14782TIP3    H244288   8.200   3.806   1.559
14783TIP3   OH244289   1.270   4.216   3.714
14783TIP3    H144290   1.272   4.247   3.624
14783TIP3    H244291   1.179   4.190   3.729
14784TIP3   OH244292   4.467   4.574   4.587
14784TIP3    H144293   4.395   4.635   4.571
14784TIP3    H244294   4.544   4.618   4.551
14785TIP3   OH244295   5.002   5.101   2.316
14785TIP3    H144296   4.968   5.176   2.364
14785TIP3    H244297   4.925   5.060   2.277
14786TIP3   OH244298   4.635   0.907   6.396
14786TIP3    H144299   4.597   0.830   6.437
14786TIP3    H244300   4.675   0.956   6.468
14787TIP3   OH244301   2.710   0.038   0.910
14787TIP3    H144302   2.627   0.041   0.861
14787TIP3    H244303   2.684   0.060   1.000
14788TIP3   OH244304   6.225   5.763   2.377
14788TIP3    H144305   6.163   5.781   2.448
14788TIP3    H244306   6.170   5.745   2.301
14789TIP3   OH244307   1.928   2.684   6.796
14789TIP3    H144308   1.918   2.695   6.891
14789TIP3    H244309   1.891   2.764   6.759
14790TIP3   OH244310   1.379   0.872   5.888
14790TIP3    H144311   1.408   0.836   5.804
14790TIP3    H244312   1.459   0.887   5.937
14791TIP3   OH244313   2.390   1.532   5.528
14791TIP3    H144314   2.477   1.532   5.487
14791TIP3    H244315   2.363   1.624   5.524
14792TIP3   OH244316   4.117   6.988   2.088
14792TIP3    H144317   4.149   7.016   2.002
14792TIP3    H244318   4.072   7.064   2.123
14793TIP3   OH244319   6.807   4.912   2.954
14793TIP3    H144320   6.884   4.878   2.909
14793TIP3    H244321   6.760   4.835   2.985
14794TIP3   OH244322   7.178   4.983   5.879
14794TIP3    H144323   7.186   5.071   5.844
14794TIP3    H244324   7.098   4.986   5.932
14795TIP3   OH244325   1.687   7.216   4.214
14795TIP3    H144326   1.732   7.215   4.298
14795TIP3    H244327   1.636   7.297   4.215
14796TIP3   OH244328   7.098   4.072   2.599
14796TIP3    H144329   7.135   4.157   2.625
14796TIP3    H244330   7.084   4.081   2.504
14797TIP3   OH244331   2.324   2.909   6.813
14797TIP3    H144332   2.353   2.839   6.872
14797TIP3    H244333   2.360   2.885   6.728
14798TIP3   OH244334   2.855   7.251   2.885
14798TIP3    H144335   2.849   7.177   2.825
14798TIP3    H244336   2.896   7.321   2.833
14799TIP3   OH244337   0.988   3.281   4.209
14799TIP3    H144338   0.986   3.342   4.135
14799TIP3    H244339   1.073   3.295   4.250
14800TIP3   OH244340   3.159   4.823   6.315
14800TIP3    H144341   3.229   4.763   6.339
14800TIP3    H244342   3.194   4.873   6.242
14801TIP3   OH244343   1.758   6.157   0.308
14801TIP3    H144344   1.697   6.111   0.365
14801TIP3    H244345   1.780   6.237   0.355
14802TIP3   OH244346   0.549   3.759   5.031
14802TIP3    H144347   0.644   3.754   5.026
14802TIP3    H244348   0.522   3.790   4.944
14803TIP3   OH244349   6.054   6.547   3.874
14803TIP3    H144350   6.110   6.528   3.798
14803TIP3    H244351   5.965   6.539   3.841
14804TIP3   OH244352   5.554   3.449   3.335
14804TIP3    H144353   5.522   3.535   3.305
14804TIP3    H244354   5.483   3.414   3.388
14805TIP3   OH244355   1.873   0.794   0.748
14805TIP3    H144356   1.898   0.873   0.796
14805TIP3    H244357   1.798   0.821   0.695
14806TIP3   OH244358   2.284   1.708   1.650
14806TIP3    H144359   2.258   1.715   1.742
14806TIP3    H244360   2.362   1.653   1.652
14807TIP3   OH244361   5.293   7.622   2.347
14807TIP3    H144362   5.316   7.652   2.259
14807TIP3    H244363   5.350   7.546   2.362
14808TIP3   OH244364   0.416   6.799   3.355
14808TIP3    H144365   0.365   6.868   3.398
14808TIP3    H244366   0.357   6.724   3.352
14809TIP3   OH244367   1.680   5.646   1.628
14809TIP3    H144368   1.591   5.615   1.613
14809TIP3    H244369   1.671   5.740   1.640
14810TIP3   OH244370   8.183   3.112   6.790
14810TIP3    H144371   8.130   3.188   6.813
14810TIP3    H244372   8.131   3.065   6.725
14811TIP3   OH244373   5.422   0.949   6.112
14811TIP3    H144374   5.493   1.011   6.096
14811TIP3    H244375   5.342   0.999   6.091
14812TIP3   OH244376   7.268   7.818   6.153
14812TIP3    H144377   7.361   7.824   6.178
14812TIP3    H244378   7.270   7.817   6.057
14813TIP3   OH244379   8.080   1.483   3.178
14813TIP3    H144380   8.053   1.566   3.217
14813TIP3    H244381   8.173   1.476   3.200
14814TIP3   OH244382   0.422   1.817   4.170
14814TIP3    H144383   0.469   1.897   4.149
14814TIP3    H244384   0.488   1.760   4.211
14815TIP3   OH244385   1.021   6.480   1.229
14815TIP3    H144386   0.978   6.396   1.211
14815TIP3    H244387   1.112   6.456   1.246
14816TIP3   OH244388   5.481   4.876   5.701
14816TIP3    H144389   5.542   4.941   5.736
14816TIP3    H244390   5.514   4.792   5.735
14817TIP3   OH244391   2.735   7.710   3.848
14817TIP3    H144392   2.745   7.805   3.836
14817TIP3    H244393   2.641   7.695   3.836
14818TIP3   OH244394   2.933   3.132   6.812
14818TIP3    H144395   2.861   3.070   6.830
14818TIP3    H244396   2.968   3.104   6.727
14819TIP3   OH244397   2.836   3.148   1.948
14819TIP3    H144398   2.892   3.123   2.021
14819TIP3    H244399   2.777   3.214   1.984
14820TIP3   OH244400   2.136   0.158   5.098
14820TIP3    H144401   2.197   0.089   5.125
14820TIP3    H244402   2.150   0.228   5.162
14821TIP3   OH244403   2.530   7.543   6.077
14821TIP3    H144404   2.504   7.632   6.101
14821TIP3    H244405   2.510   7.491   6.155
14822TIP3   OH244406   7.078   0.576   3.366
14822TIP3    H144407   7.147   0.550   3.428
14822TIP3    H244408   7.125   0.597   3.285
14823TIP3   OH244409   1.969   5.743   1.468
14823TIP3    H144410   1.887   5.693   1.467
14823TIP3    H244411   1.950   5.820   1.414
14824TIP3   OH244412   7.721   1.498   1.458
14824TIP3    H144413   7.756   1.412   1.484
14824TIP3    H244414   7.766   1.560   1.514
14825TIP3   OH244415   6.308   0.950   5.835
14825TIP3    H144416   6.262   1.030   5.861
14825TIP3    H244417   6.252   0.879   5.865
14826TIP3   OH244418   1.834   0.524   4.471
14826TIP3    H144419   1.855   0.588   4.538
14826TIP3    H244420   1.915   0.476   4.456
14827TIP3   OH244421   5.672   4.229   6.191
14827TIP3    H144422   5.662   4.281   6.271
14827TIP3    H244423   5.596   4.253   6.137
14828TIP3   OH244424   5.989   2.053   2.169
14828TIP3    H144425   5.982   2.137   2.214
14828TIP3    H244426   6.081   2.046   2.144
14829TIP3   OH244427   5.097   1.196   3.523
14829TIP3    H144428   5.063   1.242   3.599
14829TIP3    H244429   5.176   1.153   3.554
14830TIP3   OH244430   5.302   3.932   6.860
14830TIP3    H144431   5.304   4.026   6.838
14830TIP3    H244432   5.299   3.889   6.775
14831TIP3   OH244433   7.750   3.693   0.655
14831TIP3    H144434   7.767   3.604   0.686
14831TIP3    H244435   7.655   3.702   0.659
14832TIP3   OH244436   7.858   4.114   4.288
14832TIP3    H144437   7.901   4.043   4.335
14832TIP3    H244438   7.824   4.171   4.356
14833TIP3   OH244439   1.119   0.439   0.878
14833TIP3    H144440   1.210   0.431   0.850
14833TIP3    H244441   1.087   0.349   0.879
14834TIP3   OH244442   5.024   4.377   0.422
14834TIP3    H144443   5.003   4.320   0.348
14834TIP3    H244444   5.042   4.317   0.494
14835TIP3   OH244445   4.445   6.522   3.690
14835TIP3    H144446   4.416   6.577   3.762
14835TIP3    H244447   4.517   6.471   3.726
14836TIP3   OH244448   0.644   6.395   4.841
14836TIP3    H144449   0.681   6.361   4.923
14836TIP3    H244450   0.556   6.425   4.866
14837TIP3   OH244451   1.414   6.745   6.739
14837TIP3    H144452   1.466   6.705   6.670
14837TIP3    H244453   1.454   6.715   6.821
14838TIP3   OH244454   1.289   5.937   4.923
14838TIP3    H144455   1.198   5.918   4.944
14838TIP3    H244456   1.332   5.946   5.008
14839TIP3   OH244457   2.978   5.594   6.389
14839TIP3    H144458   2.919   5.534   6.433
14839TIP3    H244459   3.060   5.588   6.438
14840TIP3   OH244460   5.148   2.805   3.532
14840TIP3    H144461   5.071   2.824   3.479
14840TIP3    H244462   5.204   2.752   3.475
14841TIP3   OH244463   4.027   2.686   5.895
14841TIP3    H144464   4.062   2.605   5.931
14841TIP3    H244465   3.993   2.661   5.809
14842TIP3   OH244466   7.373   7.079   3.668
14842TIP3    H144467   7.370   7.124   3.583
14842TIP3    H244468   7.373   7.150   3.732
14843TIP3   OH244469   3.703   1.906   2.925
14843TIP3    H144470   3.646   1.844   2.880
14843TIP3    H244471   3.677   1.992   2.890
14844TIP3   OH244472   6.458   6.083   2.961
14844TIP3    H144473   6.415   6.157   3.005
14844TIP3    H244474   6.504   6.037   3.031
14845TIP3   OH244475   0.778   3.813   2.453
14845TIP3    H144476   0.778   3.726   2.495
14845TIP3    H244477   0.796   3.874   2.525
14846TIP3   OH244478   6.848   0.198   6.499
14846TIP3    H144479   6.797   0.278   6.514
14846TIP3    H244480   6.787   0.127   6.520
14847TIP3   OH244481   4.052   3.643   2.413
14847TIP3    H144482   4.079   3.734   2.422
14847TIP3    H244483   4.071   3.621   2.322
14848TIP3   OH244484  -0.003   2.355   0.474
14848TIP3    H144485   0.033   2.429   0.425
14848TIP3    H244486   0.037   2.278   0.433
14849TIP3   OH244487   2.072   7.444   2.409
14849TIP3    H144488   2.085   7.426   2.316
14849TIP3    H244489   2.043   7.361   2.446
14850TIP3   OH244490   0.533   4.679   5.886
14850TIP3    H144491   0.595   4.714   5.822
14850TIP3    H244492   0.555   4.725   5.968
14851TIP3   OH244493   2.994   1.568   1.771
14851TIP3    H144494   3.016   1.632   1.703
14851TIP3    H244495   2.938   1.504   1.726
14852TIP3   OH244496   4.225   1.008   2.463
14852TIP3    H144497   4.159   1.011   2.394
14852TIP3    H244498   4.204   1.082   2.520
14853TIP3   OH244499   1.571   4.994   4.875
14853TIP3    H144500   1.666   5.001   4.891
14853TIP3    H244501   1.552   4.900   4.881
14854TIP3   OH244502   6.366   6.048   2.005
14854TIP3    H144503   6.430   6.119   2.010
14854TIP3    H244504   6.350   6.024   2.097
14855TIP3   OH244505   1.001   0.395   6.771
14855TIP3    H144506   1.081   0.445   6.751
14855TIP3    H244507   1.032   0.321   6.823
14856TIP3   OH244508   3.470   5.912   0.813
14856TIP3    H144509   3.532   5.929   0.742
14856TIP3    H244510   3.465   5.994   0.862
14857TIP3   OH244511   1.657   7.029   0.290
14857TIP3    H144512   1.651   6.946   0.338
14857TIP3    H244513   1.650   7.004   0.198
14858TIP3   OH244514   0.740   0.757   3.307
14858TIP3    H144515   0.654   0.785   3.276
14858TIP3    H244516   0.793   0.836   3.308
14859TIP3   OH244517   7.376   2.054   0.608
14859TIP3    H144518   7.341   2.107   0.536
14859TIP3    H244519   7.299   2.022   0.654
14860TIP3   OH244520   7.101   3.331   5.112
14860TIP3    H144521   7.166   3.401   5.105
14860TIP3    H244522   7.031   3.367   5.166
14861TIP3   OH244523   4.125   4.150   1.290
14861TIP3    H144524   4.203   4.108   1.327
14861TIP3    H244525   4.055   4.085   1.300
14862TIP3   OH244526   8.220   7.527   4.443
14862TIP3    H144527   8.246   7.616   4.468
14862TIP3    H244528   8.180   7.490   4.522
14863TIP3   OH244529   2.082   1.456   2.799
14863TIP3    H144530   1.988   1.435   2.794
14863TIP3    H244531   2.121   1.381   2.844
14864TIP3   OH244532   3.651   2.532   4.367
14864TIP3    H144533   3.708   2.461   4.338
14864TIP3    H244534   3.630   2.511   4.458
14865TIP3   OH244535   7.122   0.257   6.601
14865TIP3    H144536   7.114   0.347   6.571
14865TIP3    H244537   7.036   0.218   6.586
14866TIP3   OH244538   2.839   2.279   4.464
14866TIP3    H144539   2.872   2.310   4.379
14866TIP3    H244540   2.861   2.349   4.525
14867TIP3   OH244541   6.141   1.098   6.213
14867TIP3    H144542   6.131   1.185   6.176
14867TIP3    H244543   6.058   1.055   6.195
14868TIP3   OH244544   8.097   0.409   3.808
14868TIP3    H144545   8.125   0.324   3.843
14868TIP3    H244546   8.126   0.473   3.873
14869TIP3   OH244547   3.989   5.701   1.898
14869TIP3    H144548   4.009   5.611   1.872
14869TIP3    H244549   3.908   5.722   1.852
14870TIP3   OH244550   6.581   2.926   1.386
14870TIP3    H144551   6.511   2.878   1.342
14870TIP3    H244552   6.621   2.861   1.444
14871TIP3   OH244553   6.982   3.393   5.515
14871TIP3    H144554   6.905   3.349   5.550
14871TIP3    H244555   7.026   3.429   5.592
14872TIP3   OH244556   2.655   2.215   3.539
14872TIP3    H144557   2.581   2.274   3.551
14872TIP3    H244558   2.724   2.250   3.595
14873TIP3   OH244559   4.350   5.261   2.858
14873TIP3    H144560   4.423   5.303   2.903
14873TIP3    H244561   4.302   5.334   2.818
14874TIP3   OH244562   0.834   3.769   4.091
14874TIP3    H144563   0.894   3.733   4.157
14874TIP3    H244564   0.785   3.836   4.138
14875TIP3   OH244565   8.241   0.550   2.602
14875TIP3    H144566   8.229   0.585   2.513
14875TIP3    H244567   8.319   0.494   2.594
14876TIP3   OH244568   6.893   0.980   1.748
14876TIP3    H144569   6.937   1.065   1.742
14876TIP3    H244570   6.810   0.993   1.701
14877TIP3   OH244571   1.859   1.257   2.364
14877TIP3    H144572   1.922   1.328   2.371
14877TIP3    H244573   1.907   1.179   2.392
14878TIP3   OH244574   6.947   3.842   2.250
14878TIP3    H144575   7.004   3.918   2.241
14878TIP3    H244576   7.005   3.774   2.286
14879TIP3   OH244577   1.325   0.167   0.190
14879TIP3    H144578   1.320   0.177   0.285
14879TIP3    H244579   1.234   0.158   0.162
14880TIP3   OH244580   5.576   3.841   5.697
14880TIP3    H144581   5.547   3.929   5.720
14880TIP3    H244582   5.567   3.837   5.601
14881TIP3   OH244583   5.607   0.133   5.379
14881TIP3    H144584   5.590   0.105   5.289
14881TIP3    H244585   5.700   0.114   5.392
14882TIP3   OH244586   6.433   6.261   5.214
14882TIP3    H144587   6.453   6.339   5.266
14882TIP3    H244588   6.348   6.231   5.248
14883TIP3   OH244589   8.459   0.513   0.613
14883TIP3    H144590   8.487   0.428   0.648
14883TIP3    H244591   8.366   0.500   0.592
14884TIP3   OH244592   2.251   7.286   2.663
14884TIP3    H144593   2.320   7.253   2.605
14884TIP3    H244594   2.298   7.308   2.744
14885TIP3   OH244595   6.797   6.176   5.520
14885TIP3    H144596   6.783   6.246   5.583
14885TIP3    H244597   6.855   6.213   5.454
14886TIP3   OH244598   8.085   1.473   2.823
14886TIP3    H144599   8.173   1.446   2.848
14886TIP3    H244600   8.027   1.417   2.876
14887TIP3   OH244601   1.122   3.313   3.319
14887TIP3    H144602   1.157   3.361   3.244
14887TIP3    H244603   1.195   3.258   3.349
14888TIP3   OH244604   1.782   2.730   5.030
14888TIP3    H144605   1.839   2.793   5.074
14888TIP3    H244606   1.838   2.688   4.965
14889TIP3   OH244607   8.025   3.866   6.240
14889TIP3    H144608   7.948   3.907   6.201
14889TIP3    H244609   8.037   3.785   6.191
14890TIP3   OH244610   1.567   4.336   2.993
14890TIP3    H144611   1.493   4.294   2.950
14890TIP3    H244612   1.641   4.278   2.977
14891TIP3   OH244613   2.983   2.313   4.223
14891TIP3    H144614   3.031   2.395   4.234
14891TIP3    H244615   3.047   2.244   4.238
14892TIP3   OH244616   7.164   6.428   1.711
14892TIP3    H144617   7.249   6.408   1.751
14892TIP3    H244618   7.100   6.379   1.764
14893TIP3   OH244619   6.579   4.391   4.586
14893TIP3    H144620   6.619   4.367   4.502
14893TIP3    H244621   6.643   4.365   4.652
14894TIP3   OH244622   5.936   5.447   5.501
14894TIP3    H144623   5.863   5.454   5.439
14894TIP3    H244624   5.926   5.522   5.559
14895TIP3   OH244625   2.182   0.846   0.800
14895TIP3    H144626   2.162   0.769   0.747
14895TIP3    H244627   2.125   0.839   0.876
14896TIP3   OH244628   8.291   5.139   0.596
14896TIP3    H144629   8.364   5.166   0.652
14896TIP3    H244630   8.277   5.047   0.618
14897TIP3   OH244631   2.545   1.463   5.101
14897TIP3    H144632   2.518   1.531   5.039
14897TIP3    H244633   2.525   1.381   5.057
14898TIP3   OH244634   3.749   0.335   0.484
14898TIP3    H144635   3.704   0.277   0.423
14898TIP3    H244636   3.681   0.361   0.546
14899TIP3   OH244637   1.739   6.323   4.242
14899TIP3    H144638   1.711   6.234   4.221
14899TIP3    H244639   1.659   6.368   4.267
14900TIP3   OH244640   0.954   5.078   1.111
14900TIP3    H144641   0.979   5.149   1.169
14900TIP3    H244642   0.976   5.110   1.023
14901TIP3   OH244643   4.406   4.017   0.390
14901TIP3    H144644   4.390   4.106   0.358
14901TIP3    H244645   4.383   4.020   0.483
14902TIP3   OH244646   2.677   3.808   2.358
14902TIP3    H144647   2.703   3.809   2.450
14902TIP3    H244648   2.760   3.805   2.309
14903TIP3   OH244649   5.462   6.030   1.598
14903TIP3    H144650   5.417   5.999   1.677
14903TIP3    H244651   5.549   6.054   1.627
14904TIP3   OH244652   5.052   4.823   2.050
14904TIP3    H144653   4.978   4.855   2.102
14904TIP3    H244654   5.016   4.811   1.962
14905TIP3   OH244655   7.135   7.381   3.059
14905TIP3    H144656   7.160   7.457   3.112
14905TIP3    H244657   7.062   7.342   3.108
14906TIP3   OH244658   0.941   2.643   1.047
14906TIP3    H144659   0.892   2.722   1.070
14906TIP3    H244660   0.917   2.626   0.955
14907TIP3   OH244661   4.351   2.483   6.574
14907TIP3    H144662   4.430   2.478   6.628
14907TIP3    H244663   4.338   2.576   6.559
14908TIP3   OH244664   4.834   2.953   6.464
14908TIP3    H144665   4.828   2.908   6.548
14908TIP3    H244666   4.924   2.986   6.461
14909TIP3   OH244667   5.229   1.106   3.169
14909TIP3    H144668   5.196   1.047   3.237
14909TIP3    H244669   5.152   1.154   3.139
14910TIP3   OH244670   5.737   2.610   4.013
14910TIP3    H144671   5.682   2.680   4.049
14910TIP3    H244672   5.825   2.646   4.014
14911TIP3   OH244673   6.837   5.224   0.621
14911TIP3    H144674   6.794   5.279   0.555
14911TIP3    H244675   6.900   5.172   0.572
14912TIP3   OH244676   7.735   4.963   4.524
14912TIP3    H144677   7.802   5.028   4.546
14912TIP3    H244678   7.785   4.886   4.496
14913TIP3   OH244679   1.257   7.701   6.309
14913TIP3    H144680   1.336   7.655   6.282
14913TIP3    H244681   1.262   7.786   6.264
14914TIP3   OH244682   2.984   5.293   6.859
14914TIP3    H144683   3.053   5.286   6.925
14914TIP3    H244684   2.960   5.203   6.839
14915TIP3   OH244685   4.265   5.763   6.544
14915TIP3    H144686   4.240   5.838   6.597
14915TIP3    H244687   4.360   5.758   6.553
14916TIP3   OH244688   6.780   6.948   6.267
14916TIP3    H144689   6.807   6.899   6.344
14916TIP3    H244690   6.694   6.982   6.289
14917TIP3   OH244691   7.290   2.161   0.380
14917TIP3    H144692   7.262   2.117   0.299
14917TIP3    H244693   7.226   2.231   0.392
14918TIP3   OH244694   0.743   3.269   1.035
14918TIP3    H144695   0.832   3.297   1.015
14918TIP3    H244696   0.728   3.299   1.125
14919TIP3   OH244697   0.984   1.773   6.444
14919TIP3    H144698   0.982   1.682   6.475
14919TIP3    H244699   1.077   1.796   6.443
14920TIP3   OH244700   4.038   2.852   1.767
14920TIP3    H144701   3.950   2.856   1.728
14920TIP3    H244702   4.053   2.941   1.800
14921TIP3   OH244703   5.228   4.581   4.919
14921TIP3    H144704   5.266   4.668   4.917
14921TIP3    H244705   5.222   4.559   5.012
14922TIP3   OH244706   1.267   0.120   0.780
14922TIP3    H144707   1.329   0.120   0.854
14922TIP3    H244708   1.292   0.197   0.729
14923TIP3   OH244709   1.000   0.189   0.852
14923TIP3    H144710   1.072   0.147   0.806
14923TIP3    H244711   0.979   0.129   0.924
14924TIP3   OH244712   6.708   5.685   3.122
14924TIP3    H144713   6.682   5.596   3.148
14924TIP3    H244714   6.800   5.676   3.097
14925TIP3   OH244715   0.666   2.099   0.373
14925TIP3    H144716   0.624   2.014   0.369
14925TIP3    H244717   0.595   2.161   0.390
14926TIP3   OH244718   4.428   2.447   2.626
14926TIP3    H144719   4.402   2.536   2.650
14926TIP3    H244720   4.367   2.390   2.672
14927TIP3   OH244721   5.888   6.285   0.848
14927TIP3    H144722   5.977   6.320   0.837
14927TIP3    H244723   5.836   6.361   0.874
14928TIP3   OH244724   4.582   3.527   3.062
14928TIP3    H144725   4.674   3.537   3.038
14928TIP3    H244726   4.576   3.567   3.149
14929TIP3   OH244727   7.816   0.069   6.497
14929TIP3    H144728   7.903   0.067   6.537
14929TIP3    H244729   7.770   0.139   6.543
14930TIP3   OH244730   7.746   3.219   3.270
14930TIP3    H144731   7.779   3.130   3.283
14930TIP3    H244732   7.697   3.239   3.349
14931TIP3   OH244733   1.158   4.460   6.170
14931TIP3    H144734   1.229   4.524   6.162
14931TIP3    H244735   1.095   4.486   6.103
14932TIP3   OH244736   1.019   3.022   2.445
14932TIP3    H144737   0.926   3.002   2.454
14932TIP3    H244738   1.057   2.996   2.530
14933TIP3   OH244739   7.916   0.800   1.024
14933TIP3    H144740   7.990   0.782   0.967
14933TIP3    H244741   7.878   0.881   0.989
14934TIP3   OH244742   1.521   5.617   5.674
14934TIP3    H144743   1.467   5.617   5.753
14934TIP3    H244744   1.596   5.563   5.696
14935TIP3   OH244745   3.764   1.295   6.484
14935TIP3    H144746   3.715   1.217   6.509
14935TIP3    H244747   3.697   1.357   6.455
14936TIP3   OH244748   2.182   2.911   2.636
14936TIP3    H144749   2.261   2.925   2.689
14936TIP3    H244750   2.214   2.904   2.546
14937TIP3   OH244751   6.890   2.641   4.945
14937TIP3    H144752   6.903   2.589   5.023
14937TIP3    H244753   6.963   2.704   4.945
14938TIP3   OH244754   5.025   7.089   1.505
14938TIP3    H144755   5.039   7.075   1.411
14938TIP3    H244756   5.097   7.042   1.547
14939TIP3   OH244757   7.950   6.166   4.097
14939TIP3    H144758   7.997   6.230   4.044
14939TIP3    H244759   7.859   6.194   4.094
14940TIP3   OH244760   0.128   1.784   0.954
14940TIP3    H144761   0.039   1.817   0.949
14940TIP3    H244762   0.162   1.821   1.036
14941TIP3   OH244763   7.717   1.658   3.129
14941TIP3    H144764   7.708   1.565   3.107
14941TIP3    H244765   7.805   1.682   3.102
14942TIP3   OH244766   6.503   3.971   0.081
14942TIP3    H144767   6.414   3.945   0.057
14942TIP3    H244768   6.559   3.928   0.016
14943TIP3   OH244769   8.124   2.388   6.544
14943TIP3    H144770   8.201   2.344   6.509
14943TIP3    H244771   8.155   2.430   6.625
14944TIP3   OH244772   3.246   2.324   2.826
14944TIP3    H144773   3.249   2.372   2.908
14944TIP3    H244774   3.300   2.246   2.840
14945TIP3   OH244775   2.280   6.722   4.901
14945TIP3    H144776   2.342   6.772   4.848
14945TIP3    H244777   2.319   6.722   4.989
14946TIP3   OH244778   2.213   4.440   3.786
14946TIP3    H144779   2.225   4.421   3.880
14946TIP3    H244780   2.301   4.451   3.753
14947TIP3   OH244781   1.350   6.366   2.401
14947TIP3    H144782   1.353   6.441   2.459
14947TIP3    H244783   1.267   6.323   2.420
14948TIP3   OH244784   0.686   1.235   0.964
14948TIP3    H144785   0.597   1.208   0.940
14948TIP3    H244786   0.686   1.237   1.060
14949TIP3   OH244787   0.699   2.632   1.816
14949TIP3    H144788   0.776   2.587   1.852
14949TIP3    H244789   0.644   2.650   1.892
14950TIP3   OH244790   5.429   7.818   1.098
14950TIP3    H144791   5.358   7.801   1.036
14950TIP3    H244792   5.408   7.903   1.136
14951TIP3   OH244793   6.737   3.583   5.268
14951TIP3    H144794   6.646   3.582   5.237
14951TIP3    H244795   6.730   3.597   5.362
14952TIP3   OH244796   0.167   4.912   3.280
14952TIP3    H144797   0.191   4.924   3.188
14952TIP3    H244798   0.101   4.980   3.296
14953TIP3   OH244799   0.515   3.386   5.344
14953TIP3    H144800   0.606   3.417   5.339
14953TIP3    H244801   0.472   3.429   5.270
14954TIP3   OH244802   5.443   5.974   3.396
14954TIP3    H144803   5.478   6.039   3.335
14954TIP3    H244804   5.463   6.009   3.483
14955TIP3   OH244805   1.228   5.102   2.830
14955TIP3    H144806   1.215   5.109   2.736
14955TIP3    H244807   1.140   5.102   2.867
14956TIP3   OH244808   1.197   5.377   5.329
14956TIP3    H144809   1.266   5.433   5.365
14956TIP3    H244810   1.209   5.293   5.375
14957TIP3   OH244811   1.110   4.005   5.981
14957TIP3    H144812   1.186   4.064   5.981
14957TIP3    H244813   1.088   3.993   5.889
14958TIP3   OH244814   0.689   6.853   0.022
14958TIP3    H144815   0.628   6.886  -0.044
14958TIP3    H244816   0.634   6.836   0.099
14959TIP3   OH244817   8.016   1.075   3.249
14959TIP3    H144818   8.102   1.039   3.230
14959TIP3    H244819   7.958   0.999   3.253
14960TIP3   OH244820   3.408   5.970   5.311
14960TIP3    H144821   3.365   5.899   5.358
14960TIP3    H244822   3.441   5.930   5.231
14961TIP3   OH244823   5.561   6.361   0.730
14961TIP3    H144824   5.648   6.378   0.692
14961TIP3    H244825   5.575   6.363   0.824
14962TIP3   OH244826   6.293   2.711   5.314
14962TIP3    H144827   6.313   2.761   5.394
14962TIP3    H244828   6.329   2.624   5.331
14963TIP3   OH244829   3.133   1.539   6.094
14963TIP3    H144830   3.212   1.486   6.104
14963TIP3    H244831   3.092   1.507   6.013
14964TIP3   OH244832   0.808   3.480   6.799
14964TIP3    H144833   0.782   3.392   6.825
14964TIP3    H244834   0.773   3.490   6.710
14965TIP3   OH244835   2.623   2.368   2.001
14965TIP3    H144836   2.595   2.281   1.973
14965TIP3    H244837   2.648   2.357   2.092
14966TIP3   OH244838   4.295   2.954   2.129
14966TIP3    H144839   4.278   2.865   2.162
14966TIP3    H244840   4.349   2.941   2.052
14967TIP3   OH244841   4.583   3.921   1.355
14967TIP3    H144842   4.564   3.888   1.443
14967TIP3    H244843   4.677   3.912   1.346
14968TIP3   OH244844   1.519   3.606   6.102
14968TIP3    H144845   1.492   3.606   6.194
14968TIP3    H244846   1.615   3.605   6.105
14969TIP3   OH244847   6.108   7.095   4.135
14969TIP3    H144848   6.181   7.139   4.179
14969TIP3    H244849   6.142   7.008   4.113
14970TIP3   OH244850   7.006   6.883   3.260
14970TIP3    H144851   6.952   6.923   3.328
14970TIP3    H244852   7.060   6.819   3.307
14971TIP3   OH244853   6.857   0.157   3.868
14971TIP3    H144854   6.864   0.062   3.881
14971TIP3    H244855   6.808   0.187   3.944
14972TIP3   OH244856   4.546   4.069   4.071
14972TIP3    H144857   4.585   4.116   3.997
14972TIP3    H244858   4.564   3.976   4.052
14973TIP3   OH244859   0.376   4.404   4.187
14973TIP3    H144860   0.353   4.463   4.116
14973TIP3    H244861   0.468   4.382   4.170
14974TIP3   OH244862   4.507   1.656   0.309
14974TIP3    H144863   4.460   1.733   0.341
14974TIP3    H244864   4.530   1.607   0.388
14975TIP3   OH244865   8.346   7.477   1.901
14975TIP3    H144866   8.307   7.558   1.933
14975TIP3    H244867   8.407   7.451   1.970
14976TIP3   OH244868   0.981   6.155   4.622
14976TIP3    H144869   0.927   6.196   4.689
14976TIP3    H244870   1.071   6.179   4.646
14977TIP3   OH244871   5.086   1.918   1.861
14977TIP3    H144872   5.146   1.910   1.787
14977TIP3    H244873   5.001   1.889   1.827
14978TIP3   OH244874   1.325   1.268   6.718
14978TIP3    H144875   1.361   1.279   6.630
14978TIP3    H244876   1.396   1.229   6.769
14979TIP3   OH244877   5.326   7.115   4.747
14979TIP3    H144878   5.396   7.051   4.737
14979TIP3    H244879   5.245   7.063   4.745
14980TIP3   OH244880   1.791   7.661   3.959
14980TIP3    H144881   1.820   7.629   4.044
14980TIP3    H244882   1.837   7.744   3.948
14981TIP3   OH244883   0.656   5.588   1.001
14981TIP3    H144884   0.701   5.668   1.028
14981TIP3    H244885   0.681   5.577   0.909
14982TIP3   OH244886   1.647   0.852   3.124
14982TIP3    H144887   1.632   0.845   3.030
14982TIP3    H244888   1.560   0.845   3.163
14983TIP3   OH244889   5.559   3.441   5.217
14983TIP3    H144890   5.578   3.481   5.302
14983TIP3    H244891   5.533   3.513   5.161
14984TIP3   OH244892   0.808   1.608   6.224
14984TIP3    H144893   0.884   1.573   6.271
14984TIP3    H244894   0.763   1.532   6.189
14985TIP3   OH244895   4.931   4.212   4.507
14985TIP3    H144896   4.985   4.257   4.441
14985TIP3    H244897   4.856   4.179   4.457
14986TIP3   OH244898   7.734   4.069   4.961
14986TIP3    H144899   7.770   4.083   5.049
14986TIP3    H244900   7.743   4.154   4.918
14987TIP3   OH244901   6.331   0.439   2.003
14987TIP3    H144902   6.247   0.443   2.048
14987TIP3    H244903   6.393   0.409   2.069
14988TIP3   OH244904   4.232   6.390   6.135
14988TIP3    H144905   4.281   6.395   6.217
14988TIP3    H244906   4.246   6.300   6.104
14989TIP3   OH244907   3.738   5.554   3.271
14989TIP3    H144908   3.646   5.581   3.278
14989TIP3    H244909   3.766   5.540   3.362
14990TIP3   OH244910   7.717   0.038   3.414
14990TIP3    H144911   7.653  -0.033   3.399
14990TIP3    H244912   7.690   0.077   3.497
14991TIP3   OH244913   2.260   5.468   0.426
14991TIP3    H144914   2.190   5.506   0.479
14991TIP3    H244915   2.237   5.375   0.419
14992TIP3   OH244916   2.016   7.622   3.094
14992TIP3    H144917   2.095   7.662   3.058
14992TIP3    H244918   1.946   7.649   3.034
14993TIP3   OH244919   6.811   2.621   2.411
14993TIP3    H144920   6.893   2.665   2.387
14993TIP3    H244921   6.746   2.692   2.415
14994TIP3   OH244922   6.187   0.278   3.641
14994TIP3    H144923   6.268   0.296   3.689
14994TIP3    H244924   6.201   0.194   3.599
14995TIP3   OH244925   1.854   5.716   5.181
14995TIP3    H144926   1.890   5.733   5.094
14995TIP3    H244927   1.909   5.648   5.218
14996TIP3   OH244928   1.255   6.163   0.087
14996TIP3    H144929   1.300   6.111   0.020
14996TIP3    H244930   1.194   6.217   0.037
14997TIP3   OH244931   6.689   6.078   4.421
14997TIP3    H144932   6.689   5.984   4.435
14997TIP3    H244933   6.753   6.112   4.483
14998TIP3   OH244934   3.908   2.887   5.524
14998TIP3    H144935   3.993   2.877   5.567
14998TIP3    H244936   3.886   2.980   5.535
14999TIP3   OH244937   7.497   0.229   0.322
14999TIP3    H144938   7.544   0.175   0.258
14999TIP3    H244939   7.444   0.289   0.269
15000TIP3   OH244940   6.528   1.809   3.430
15000TIP3    H144941   6.618   1.789   3.455
15000TIP3    H244942   6.492   1.857   3.504
15001TIP3   OH244943   4.460   2.628   1.348
15001TIP3    H144944   4.478   2.690   1.418
15001TIP3    H244945   4.364   2.629   1.339
15002TIP3   OH244946   1.034   3.069   0.972
15002TIP3    H144947   1.079   3.128   1.031
15002TIP3    H244948   0.971   3.124   0.925
15003TIP3   OH244949   3.709   0.976   1.504
15003TIP3    H144950   3.632   0.960   1.450
15003TIP3    H244951   3.780   0.930   1.459
15004TIP3   OH244952   4.244   0.943   0.306
15004TIP3    H144953   4.200   0.859   0.296
15004TIP3    H244954   4.334   0.928   0.277
15005TIP3   OH244955   2.046   0.221   3.307
15005TIP3    H144956   1.995   0.157   3.257
15005TIP3    H244957   2.017   0.306   3.275
15006TIP3   OH244958   6.580   5.889   4.102
15006TIP3    H144959   6.674   5.885   4.114
15006TIP3    H244960   6.544   5.830   4.169
15007TIP3   OH244961   7.904   4.489   2.114
15007TIP3    H144962   7.873   4.578   2.098
15007TIP3    H244963   7.936   4.459   2.029
15008TIP3   OH244964   7.211   5.275   3.329
15008TIP3    H144965   7.183   5.184   3.317
15008TIP3    H244966   7.280   5.270   3.395
15009TIP3   OH244967   7.489   2.300   5.720
15009TIP3    H144968   7.514   2.268   5.633
15009TIP3    H244969   7.394   2.301   5.719
15010TIP3   OH244970   2.020   6.324   5.509
15010TIP3    H144971   2.019   6.231   5.534
15010TIP3    H244972   2.052   6.369   5.587
15011TIP3   OH244973   5.995   5.635   1.865
15011TIP3    H144974   5.962   5.716   1.904
15011TIP3    H244975   6.044   5.665   1.788
15012TIP3   OH244976   6.416   7.675   2.639
15012TIP3    H144977   6.383   7.588   2.618
15012TIP3    H244978   6.430   7.673   2.734
15013TIP3   OH244979   1.403   0.405   4.374
15013TIP3    H144980   1.385   0.323   4.327
15013TIP3    H244981   1.493   0.427   4.350
15014TIP3   OH244982   7.668   0.086   0.165
15014TIP3    H144983   7.759   0.109   0.152
15014TIP3    H244984   7.635   0.065   0.078
15015TIP3   OH244985   5.234   1.532   6.090
15015TIP3    H144986   5.158   1.493   6.133
15015TIP3    H244987   5.273   1.460   6.041
15016TIP3   OH244988   6.198   2.861   0.413
15016TIP3    H144989   6.148   2.911   0.348
15016TIP3    H244990   6.286   2.855   0.376
15017TIP3   OH244991   3.291   1.989   3.775
15017TIP3    H144992   3.251   2.076   3.768
15017TIP3    H244993   3.221   1.933   3.810
15018TIP3   OH244994   1.037   2.035   2.104
15018TIP3    H144995   1.028   1.941   2.120
15018TIP3    H244996   0.988   2.077   2.175
15019TIP3   OH244997   0.697   0.918   4.408
15019TIP3    H144998   0.696   0.924   4.312
15019TIP3    H244999   0.777   0.869   4.428
15020TIP3   OH245000   2.273   7.759   1.207
15020TIP3    H145001   2.293   7.794   1.120
15020TIP3    H245002   2.184   7.725   1.200
15021TIP3   OH245003   1.835   4.951   5.003
15021TIP3    H145004   1.809   4.889   5.070
15021TIP3    H245005   1.900   5.007   5.045
15022TIP3   OH245006   7.215   1.481   1.297
15022TIP3    H145007   7.241   1.513   1.211
15022TIP3    H245008   7.280   1.413   1.317
15023TIP3   OH245009   2.139   1.339   6.784
15023TIP3    H145010   2.232   1.359   6.768
15023TIP3    H245011   2.105   1.313   6.699
15024TIP3   OH245012   6.430   7.150   4.930
15024TIP3    H145013   6.353   7.130   4.983
15024TIP3    H245014   6.477   7.217   4.981
15025TIP3   OH245015   4.791   7.882   4.608
15025TIP3    H145016   4.751   7.901   4.692
15025TIP3    H245017   4.748   7.941   4.546
15026TIP3   OH245018   4.915   0.302   6.668
15026TIP3    H145019   4.970   0.267   6.738
15026TIP3    H245020   4.911   0.232   6.603
15027TIP3   OH245021   1.188   2.928   3.583
15027TIP3    H145022   1.201   2.922   3.489
15027TIP3    H245023   1.261   2.880   3.621
15028TIP3   OH245024   6.080   2.488   3.382
15028TIP3    H145025   6.050   2.567   3.426
15028TIP3    H245026   6.118   2.434   3.451
15029TIP3   OH245027   6.574   1.633   6.282
15029TIP3    H145028   6.549   1.685   6.358
15029TIP3    H245029   6.494   1.625   6.231
15030TIP3   OH245030   5.677   0.162   4.083
15030TIP3    H145031   5.699   0.102   4.012
15030TIP3    H245032   5.746   0.228   4.082
15031TIP3   OH245033   8.293   1.441   3.541
15031TIP3    H145034   8.323   1.379   3.608
15031TIP3    H245035   8.200   1.455   3.562
15032TIP3   OH245036   6.027   5.430   6.262
15032TIP3    H145037   6.087   5.408   6.191
15032TIP3    H245038   5.981   5.348   6.281
15033TIP3   OH245039   7.998   7.240   3.665
15033TIP3    H145040   8.073   7.189   3.634
15033TIP3    H245041   7.938   7.242   3.591
15034TIP3   OH245042   3.966   6.291   0.668
15034TIP3    H145043   3.974   6.310   0.575
15034TIP3    H245044   3.995   6.371   0.711
15035TIP3   OH245045   3.300   5.654   0.200
15035TIP3    H145046   3.224   5.652   0.142
15035TIP3    H245047   3.265   5.636   0.287
15036TIP3   OH245048   1.865   3.243   4.071
15036TIP3    H145049   1.807   3.201   4.007
15036TIP3    H245050   1.945   3.191   4.069
15037TIP3   OH245051   0.199   7.269   0.424
15037TIP3    H145052   0.291   7.261   0.448
15037TIP3    H245053   0.199   7.273   0.329
15038TIP3   OH245054   1.656   0.941   5.524
15038TIP3    H145055   1.589   0.998   5.487
15038TIP3    H245056   1.660   0.867   5.462
15039TIP3   OH245057   8.252   4.132   5.833
15039TIP3    H145058   8.214   4.045   5.846
15039TIP3    H245059   8.223   4.182   5.909
15040TIP3   OH245060   8.177   1.717   2.596
15040TIP3    H145061   8.189   1.679   2.508
15040TIP3    H245062   8.084   1.739   2.600
15041TIP3   OH245063   4.383   0.785   6.015
15041TIP3    H145064   4.390   0.875   5.985
15041TIP3    H245065   4.312   0.787   6.079
15042TIP3   OH245066   0.184   4.504   0.380
15042TIP3    H145067   0.186   4.592   0.344
15042TIP3    H245068   0.128   4.512   0.458
15043TIP3   OH245069   5.907   6.462   2.149
15043TIP3    H145070   5.892   6.480   2.056
15043TIP3    H245071   5.997   6.489   2.165
15044TIP3   OH245072   3.625   6.586   5.998
15044TIP3    H145073   3.545   6.605   6.047
15044TIP3    H245074   3.695   6.628   6.049
15045TIP3   OH245075   8.102   3.218   4.135
15045TIP3    H145076   8.129   3.303   4.101
15045TIP3    H245077   8.184   3.173   4.155
15046TIP3   OH245078   3.562   7.413   3.855
15046TIP3    H145079   3.589   7.336   3.804
15046TIP3    H245080   3.494   7.380   3.914
15047TIP3   OH245081   7.191   5.854   1.358
15047TIP3    H145082   7.187   5.759   1.348
15047TIP3    H245083   7.220   5.885   1.272
15048TIP3   OH245084   3.310   2.335   3.572
15048TIP3    H145085   3.306   2.429   3.589
15048TIP3    H245086   3.221   2.311   3.545
15049TIP3   OH245087   4.111   1.239   6.811
15049TIP3    H145088   4.127   1.205   6.723
15049TIP3    H245089   4.148   1.327   6.809
15050TIP3   OH245090   5.307   1.811   3.781
15050TIP3    H145091   5.350   1.894   3.799
15050TIP3    H245092   5.280   1.778   3.867
15051TIP3   OH245093   2.442   3.576   6.159
15051TIP3    H145094   2.457   3.665   6.192
15051TIP3    H245095   2.422   3.524   6.236
15052TIP3   OH245096   5.980   0.370   6.303
15052TIP3    H145097   5.901   0.424   6.304
15052TIP3    H245098   5.982   0.332   6.216
15053TIP3   OH245099   4.300   5.513   0.133
15053TIP3    H145100   4.311   5.500   0.228
15053TIP3    H245101   4.361   5.451   0.093
15054TIP3   OH245102   3.868   4.269   1.234
15054TIP3    H145103   3.832   4.343   1.283
15054TIP3    H245104   3.944   4.241   1.285
15055TIP3   OH245105   0.187   1.929   1.984
15055TIP3    H145106   0.141   1.966   2.058
15055TIP3    H245107   0.130   1.946   1.909
15056TIP3   OH245108   4.187   3.645   4.138
15056TIP3    H145109   4.119   3.705   4.108
15056TIP3    H245110   4.265   3.670   4.088
15057TIP3   OH245111   6.939   4.776   6.764
15057TIP3    H145112   6.872   4.730   6.712
15057TIP3    H245113   6.890   4.839   6.816
15058TIP3   OH245114   2.740   6.793   1.341
15058TIP3    H145115   2.823   6.768   1.382
15058TIP3    H245116   2.728   6.885   1.367
15059TIP3   OH245117   5.921   7.823   2.229
15059TIP3    H145118   5.869   7.743   2.218
15059TIP3    H245119   5.875   7.872   2.298
15060TIP3   OH245120   5.281   2.384   6.117
15060TIP3    H145121   5.340   2.328   6.066
15060TIP3    H245122   5.329   2.467   6.125
15061TIP3   OH245123   4.233   3.704   4.420
15061TIP3    H145124   4.226   3.656   4.338
15061TIP3    H245125   4.270   3.789   4.395
15062TIP3   OH245126   1.413   4.596   2.375
15062TIP3    H145127   1.342   4.631   2.321
15062TIP3    H245128   1.422   4.505   2.348
15063TIP3   OH245129   2.098   5.247   1.256
15063TIP3    H145130   2.080   5.208   1.341
15063TIP3    H245131   2.020   5.228   1.204
15064TIP3   OH245132   1.691   7.127   2.653
15064TIP3    H145133   1.693   7.218   2.684
15064TIP3    H245134   1.599   7.101   2.663
15065TIP3   OH245135   5.280   0.802   2.853
15065TIP3    H145136   5.254   0.815   2.944
15065TIP3    H245137   5.340   0.874   2.834
15066TIP3   OH245138   1.189   7.489   3.149
15066TIP3    H145139   1.254   7.536   3.096
15066TIP3    H245140   1.111   7.544   3.145
15067TIP3   OH245141   0.658   1.184   4.509
15067TIP3    H145142   0.623   1.169   4.421
15067TIP3    H245143   0.681   1.096   4.541
15068TIP3   OH245144   2.568   5.915   2.735
15068TIP3    H145145   2.546   5.822   2.742
15068TIP3    H245146   2.633   5.918   2.664
15069TIP3   OH245147   8.018   3.437   2.996
15069TIP3    H145148   8.018   3.437   3.091
15069TIP3    H245149   8.110   3.445   2.971
15070TIP3   OH245150   4.391   0.198   0.647
15070TIP3    H145151   4.305   0.237   0.633
15070TIP3    H245152   4.434   0.257   0.710
15071TIP3   OH245153   6.966   1.499   5.367
15071TIP3    H145154   6.976   1.433   5.298
15071TIP3    H245155   7.029   1.567   5.344
15072TIP3   OH245156   2.209   5.535   1.834
15072TIP3    H145157   2.299   5.502   1.841
15072TIP3    H245158   2.159   5.481   1.896
15073TIP3   OH245159   7.266   7.692   1.555
15073TIP3    H145160   7.290   7.741   1.634
15073TIP3    H245161   7.190   7.640   1.581
15074TIP3   OH245162   2.681   4.584   1.602
15074TIP3    H145163   2.752   4.526   1.631
15074TIP3    H245164   2.725   4.664   1.576
15075TIP3   OH245165   4.229   3.368   2.791
15075TIP3    H145166   4.172   3.373   2.715
15075TIP3    H245167   4.285   3.292   2.774
15076TIP3   OH245168   4.737   1.227   4.811
15076TIP3    H145169   4.814   1.201   4.860
15076TIP3    H245170   4.663   1.204   4.867
15077TIP3   OH245171   7.476   6.533   6.550
15077TIP3    H145172   7.428   6.544   6.469
15077TIP3    H245173   7.424   6.579   6.616
15078TIP3   OH245174   1.038   2.194   0.354
15078TIP3    H145175   1.037   2.143   0.273
15078TIP3    H245176   1.109   2.257   0.342
15079TIP3   OH245177   1.266   7.806   5.717
15079TIP3    H145178   1.349   7.766   5.745
15079TIP3    H245179   1.282   7.900   5.721
15080TIP3   OH245180   5.256   5.261   6.217
15080TIP3    H145181   5.167   5.295   6.207
15080TIP3    H245182   5.275   5.220   6.133
15081TIP3   OH245183   2.776   0.517   4.815
15081TIP3    H145184   2.698   0.504   4.869
15081TIP3    H245185   2.808   0.604   4.841
15082TIP3   OH245186   7.523   6.281   6.631
15082TIP3    H145187   7.433   6.249   6.635
15082TIP3    H245188   7.516   6.368   6.592
15083TIP3   OH245189   3.855   6.971   5.217
15083TIP3    H145190   3.949   6.987   5.217
15083TIP3    H245191   3.825   7.003   5.302
15084TIP3   OH245192   8.042   7.226   5.956
15084TIP3    H145193   7.948   7.237   5.964
15084TIP3    H245194   8.072   7.210   6.046
15085TIP3   OH245195   8.157   3.410   1.721
15085TIP3    H145196   8.152   3.339   1.784
15085TIP3    H245197   8.139   3.368   1.636
15086TIP3   OH245198   8.403   4.941   5.753
15086TIP3    H145199   8.365   4.898   5.676
15086TIP3    H245200   8.444   4.870   5.802
15087TIP3   OH245201   0.878   5.248   3.276
15087TIP3    H145202   0.810   5.282   3.335
15087TIP3    H245203   0.851   5.276   3.189
15088TIP3   OH245204   4.122   0.696   0.293
15088TIP3    H145205   4.184   0.624   0.303
15088TIP3    H245206   4.036   0.657   0.309
15089TIP3   OH245207   3.719   0.597   3.643
15089TIP3    H145208   3.642   0.545   3.667
15089TIP3    H245209   3.764   0.545   3.576
15090TIP3   OH245210   8.104   2.899   3.819
15090TIP3    H145211   8.059   2.821   3.785
15090TIP3    H245212   8.035   2.965   3.827
15091TIP3   OH245213   4.908   1.652   1.007
15091TIP3    H145214   4.856   1.732   0.997
15091TIP3    H245215   4.944   1.636   0.920
15092TIP3   OH245216   0.221   7.610   0.310
15092TIP3    H145217   0.212   7.702   0.286
15092TIP3    H245218   0.312   7.589   0.290
15093TIP3   OH245219   6.339   1.994   5.198
15093TIP3    H145220   6.375   1.936   5.265
15093TIP3    H245221   6.389   2.074   5.206
15094TIP3   OH245222   3.736   6.735   5.207
15094TIP3    H145223   3.677   6.753   5.134
15094TIP3    H245224   3.798   6.807   5.207
15095TIP3   OH245225   0.682   6.860   5.574
15095TIP3    H145226   0.628   6.783   5.592
15095TIP3    H245227   0.752   6.857   5.639
15096TIP3   OH245228   3.315   7.543   2.464
15096TIP3    H145229   3.333   7.623   2.512
15096TIP3    H245230   3.353   7.474   2.518
15097TIP3   OH245231   3.644   7.158   3.068
15097TIP3    H145232   3.646   7.140   2.974
15097TIP3    H245233   3.720   7.213   3.083
15098TIP3   OH245234   6.056   4.623   4.874
15098TIP3    H145235   6.027   4.548   4.927
15098TIP3    H245236   5.977   4.649   4.826
15099TIP3   OH245237   3.987   1.157   3.976
15099TIP3    H145238   3.966   1.227   4.038
15099TIP3    H245239   3.982   1.198   3.890
15100TIP3   OH245240   6.547   6.122   6.634
15100TIP3    H145241   6.586   6.105   6.720
15100TIP3    H245242   6.556   6.040   6.587
15101TIP3   OH245243   0.259   3.160   6.413
15101TIP3    H145244   0.214   3.126   6.336
15101TIP3    H245245   0.201   3.140   6.486
15102TIP3   OH245246   0.878   6.341   4.011
15102TIP3    H145247   0.921   6.256   4.016
15102TIP3    H245248   0.944   6.403   4.040
15103TIP3   OH245249   1.202   2.163   3.539
15103TIP3    H145250   1.249   2.118   3.468
15103TIP3    H245251   1.118   2.117   3.544
15104TIP3   OH245252   1.414   3.067   2.242
15104TIP3    H145253   1.422   2.998   2.176
15104TIP3    H245254   1.335   3.115   2.218
15105TIP3   OH245255   3.010   4.113   5.673
15105TIP3    H145256   3.035   4.049   5.740
15105TIP3    H245257   3.082   4.176   5.672
15106TIP3   OH245258   4.616   7.354   3.263
15106TIP3    H145259   4.523   7.337   3.246
15106TIP3    H245260   4.646   7.275   3.309
15107TIP3   OH245261   3.691   4.701   0.763
15107TIP3    H145262   3.732   4.751   0.833
15107TIP3    H245263   3.764   4.656   0.720
15108TIP3   OH245264   3.701   1.161   1.096
15108TIP3    H145265   3.742   1.200   1.019
15108TIP3    H245266   3.695   1.233   1.159
15109TIP3   OH245267   0.409   2.820   0.633
15109TIP3    H145268   0.453   2.738   0.654
15109TIP3    H245269   0.362   2.801   0.551
15110TIP3   OH245270   2.565   7.873   4.625
15110TIP3    H145271   2.658   7.861   4.606
15110TIP3    H245272   2.562   7.936   4.696
15111TIP3   OH245273   0.377   2.195   5.472
15111TIP3    H145274   0.351   2.281   5.439
15111TIP3    H245275   0.445   2.214   5.536
15112TIP3   OH245276   6.985   5.835   0.601
15112TIP3    H145277   6.890   5.842   0.590
15112TIP3    H245278   7.014   5.925   0.615
15113TIP3   OH245279   5.352   5.942   5.681
15113TIP3    H145280   5.331   6.002   5.753
15113TIP3    H245281   5.437   5.905   5.705
15114TIP3   OH245282   1.440   2.645   0.199
15114TIP3    H145283   1.416   2.626   0.289
15114TIP3    H245284   1.358   2.639   0.150
15115TIP3   OH245285   4.322   1.417   1.242
15115TIP3    H145286   4.236   1.437   1.280
15115TIP3    H245287   4.335   1.324   1.259
15116TIP3   OH245288   1.136   2.049   0.995
15116TIP3    H145289   1.221   2.085   1.020
15116TIP3    H245290   1.082   2.060   1.073
15117TIP3   OH245291   2.549   4.736   1.092
15117TIP3    H145292   2.548   4.656   1.144
15117TIP3    H245293   2.518   4.709   1.006
15118TIP3   OH245294   7.897   3.037   0.661
15118TIP3    H145295   7.914   3.007   0.750
15118TIP3    H245296   7.848   2.966   0.620
15119TIP3   OH245297   6.379   7.230   4.062
15119TIP3    H145298   6.437   7.287   4.011
15119TIP3    H245299   6.415   7.233   4.151
15120TIP3   OH245300   3.620   7.844   0.940
15120TIP3    H145301   3.701   7.891   0.960
15120TIP3    H245302   3.551   7.908   0.955
15121TIP3   OH245303   4.596   0.209   4.037
15121TIP3    H145304   4.509   0.171   4.048
15121TIP3    H245305   4.651   0.135   4.013
15122TIP3   OH245306   4.937   3.021   5.582
15122TIP3    H145307   5.016   2.996   5.534
15122TIP3    H245308   4.936   2.965   5.659
15123TIP3   OH245309   3.378   5.107   1.464
15123TIP3    H145310   3.463   5.106   1.509
15123TIP3    H245311   3.343   5.019   1.478
15124TIP3   OH245312   4.324   0.039   5.545
15124TIP3    H145313   4.237   0.052   5.506
15124TIP3    H245314   4.308  -0.013   5.624
15125TIP3   OH245315   1.727   3.371   3.004
15125TIP3    H145316   1.798   3.428   2.975
15125TIP3    H245317   1.732   3.294   2.947
15126TIP3   OH245318   2.474   3.826   6.277
15126TIP3    H145319   2.533   3.900   6.266
15126TIP3    H245320   2.469   3.813   6.372
15127TIP3   OH245321   4.704   7.469   0.257
15127TIP3    H145322   4.649   7.540   0.222
15127TIP3    H245323   4.736   7.423   0.179
15128TIP3   OH245324   1.042   2.546   4.183
15128TIP3    H145325   1.118   2.488   4.185
15128TIP3    H245326   1.005   2.540   4.271
15129TIP3   OH245327   8.164   0.162   4.973
15129TIP3    H145328   8.137   0.204   5.055
15129TIP3    H245329   8.252   0.196   4.957
15130TIP3   OH245330   5.531   3.228   1.189
15130TIP3    H145331   5.601   3.223   1.124
15130TIP3    H245332   5.455   3.260   1.139
15131TIP3   OH245333   6.606   4.577   1.359
15131TIP3    H145334   6.605   4.482   1.372
15131TIP3    H245335   6.655   4.589   1.277
15132TIP3   OH245336   7.420   3.291   0.990
15132TIP3    H145337   7.496   3.247   0.951
15132TIP3    H245338   7.458   3.359   1.046
15133TIP3   OH245339   6.646   3.565   5.886
15133TIP3    H145340   6.561   3.528   5.860
15133TIP3    H245341   6.652   3.648   5.838
15134TIP3   OH245342   4.521   6.915   5.962
15134TIP3    H145343   4.517   6.819   5.972
15134TIP3    H245344   4.564   6.928   5.878
15135TIP3   OH245345   1.715   7.789   0.373
15135TIP3    H145346   1.676   7.876   0.371
15135TIP3    H245347   1.777   7.792   0.446
15136TIP3   OH245348   2.270   7.205   3.647
15136TIP3    H145349   2.326   7.270   3.690
15136TIP3    H245350   2.280   7.126   3.700
15137TIP3   OH245351   7.546   3.862   4.856
15137TIP3    H145352   7.602   3.930   4.894
15137TIP3    H245353   7.487   3.909   4.798
15138TIP3   OH245354   3.095   7.594   1.794
15138TIP3    H145355   3.164   7.544   1.838
15138TIP3    H245356   3.137   7.677   1.772
15139TIP3   OH245357   5.418   6.720   5.792
15139TIP3    H145358   5.325   6.740   5.788
15139TIP3    H245359   5.443   6.739   5.882
15140TIP3   OH245360   6.365   1.639   1.810
15140TIP3    H145361   6.313   1.601   1.739
15140TIP3    H245362   6.317   1.717   1.836
15141TIP3   OH245363   5.145   4.287   6.580
15141TIP3    H145364   5.095   4.368   6.565
15141TIP3    H245365   5.093   4.219   6.537
15142TIP3   OH245366   1.508   6.591   2.210
15142TIP3    H145367   1.473   6.678   2.190
15142TIP3    H245368   1.507   6.586   2.306
15143TIP3   OH245369   5.925   1.086   5.849
15143TIP3    H145370   5.897   1.064   5.938
15143TIP3    H245371   5.919   1.003   5.801
15144TIP3   OH245372   3.092   2.705   1.040
15144TIP3    H145373   3.041   2.786   1.037
15144TIP3    H245374   3.087   2.669   0.952
15145TIP3   OH245375   5.067   2.545   3.891
15145TIP3    H145376   5.114   2.536   3.808
15145TIP3    H245377   4.982   2.581   3.867
15146TIP3   OH245378   1.078   5.099   2.120
15146TIP3    H145379   1.105   5.014   2.084
15146TIP3    H245380   1.056   5.151   2.042
15147TIP3   OH245381   1.846   1.890   0.996
15147TIP3    H145382   1.861   1.866   1.087
15147TIP3    H245383   1.834   1.985   0.997
15148TIP3   OH245384   0.641   2.924   4.804
15148TIP3    H145385   0.596   2.844   4.829
15148TIP3    H245386   0.706   2.896   4.740
15149TIP3   OH245387   5.957   7.103   0.468
15149TIP3    H145388   5.947   7.179   0.410
15149TIP3    H245389   5.872   7.059   0.465
15150TIP3   OH245390   6.555   3.566   4.311
15150TIP3    H145391   6.518   3.487   4.351
15150TIP3    H245392   6.560   3.546   4.218
15151TIP3   OH245393   4.027   3.434   4.176
15151TIP3    H145394   4.059   3.371   4.112
15151TIP3    H245395   4.082   3.511   4.165
15152TIP3   OH245396   3.901   5.732   3.157
15152TIP3    H145397   3.841   5.665   3.191
15152TIP3    H245398   3.962   5.748   3.228
15153TIP3   OH245399   4.256   0.684   2.078
15153TIP3    H145400   4.261   0.624   2.003
15153TIP3    H245401   4.174   0.732   2.065
15154TIP3   OH245402   7.063   4.410   5.796
15154TIP3    H145403   7.058   4.430   5.703
15154TIP3    H245404   7.014   4.328   5.806
15155TIP3   OH245405   0.621   3.853   5.466
15155TIP3    H145406   0.544   3.799   5.450
15155TIP3    H245407   0.591   3.943   5.453
15156TIP3   OH245408   6.199   7.488   2.796
15156TIP3    H145409   6.228   7.447   2.878
15156TIP3    H245410   6.160   7.571   2.823
15157TIP3   OH245411   4.400   6.354   5.330
15157TIP3    H145412   4.383   6.437   5.287
15157TIP3    H245413   4.464   6.310   5.275
15158TIP3   OH245414   7.500   0.633   0.572
15158TIP3    H145415   7.557   0.655   0.498
15158TIP3    H245416   7.440   0.707   0.579
15159TIP3   OH245417   5.374   2.813   6.779
15159TIP3    H145418   5.345   2.722   6.792
15159TIP3    H245419   5.336   2.861   6.852
15160TIP3   OH245420   6.149   3.614   1.162
15160TIP3    H145421   6.173   3.646   1.076
15160TIP3    H245422   6.053   3.613   1.161
15161TIP3   OH245423   2.649   1.865   3.976
15161TIP3    H145424   2.681   1.908   4.055
15161TIP3    H245425   2.559   1.841   3.996
15162TIP3   OH245426   7.127   1.908   2.488
15162TIP3    H145427   7.039   1.940   2.470
15162TIP3    H245428   7.121   1.813   2.474
15163TIP3   OH245429   0.862   5.047   2.302
15163TIP3    H145430   0.945   5.083   2.271
15163TIP3    H245431   0.865   5.061   2.397
15164TIP3   OH245432   5.676   3.910   0.207
15164TIP3    H145433   5.640   3.835   0.254
15164TIP3    H245434   5.756   3.933   0.255
15165TIP3   OH245435   7.660   2.708   3.567
15165TIP3    H145436   7.628   2.797   3.554
15165TIP3    H245437   7.748   2.719   3.604
15166TIP3   OH245438   8.039   6.024   4.341
15166TIP3    H145439   7.989   6.029   4.422
15166TIP3    H245440   8.017   6.104   4.293
15167TIP3   OH245441   5.202   4.695   2.349
15167TIP3    H145442   5.295   4.671   2.357
15167TIP3    H245443   5.192   4.769   2.409
15168TIP3   OH245444   0.450   1.043   3.692
15168TIP3    H145445   0.498   1.045   3.609
15168TIP3    H245446   0.358   1.037   3.667
15169TIP3   OH245447   4.982   2.135   2.823
15169TIP3    H145448   4.897   2.113   2.786
15169TIP3    H245449   4.985   2.091   2.908
15170TIP3   OH245450   0.841   7.112   4.700
15170TIP3    H145451   0.809   7.043   4.642
15170TIP3    H245452   0.817   7.194   4.657
15171TIP3   OH245453   0.816   7.047   0.520
15171TIP3    H145454   0.856   7.133   0.508
15171TIP3    H245455   0.864   7.009   0.594
15172TIP3   OH245456   3.648   0.479   3.264
15172TIP3    H145457   3.648   0.411   3.197
15172TIP3    H245458   3.556   0.486   3.290
15173TIP3   OH245459   1.550   6.301   2.053
15173TIP3    H145460   1.575   6.242   2.125
15173TIP3    H245461   1.503   6.373   2.097
15174TIP3   OH245462   5.250   5.612   0.046
15174TIP3    H145463   5.308   5.536   0.050
15174TIP3    H245464   5.189   5.592  -0.025
15175TIP3   OH245465   0.686   3.993   2.880
15175TIP3    H145466   0.607   3.945   2.855
15175TIP3    H245467   0.664   4.033   2.964
15176TIP3   OH245468   5.155   0.942   6.757
15176TIP3    H145469   5.208   0.940   6.677
15176TIP3    H245470   5.219   0.936   6.828
15177TIP3   OH245471   1.581   1.245   1.945
15177TIP3    H145472   1.546   1.324   1.904
15177TIP3    H245473   1.671   1.238   1.911
15178TIP3   OH245474   1.857   5.788   4.674
15178TIP3    H145475   1.930   5.844   4.646
15178TIP3    H245476   1.873   5.773   4.767
15179TIP3   OH245477   6.718   4.550   1.107
15179TIP3    H145478   6.781   4.479   1.122
15179TIP3    H245479   6.684   4.532   1.019
15180TIP3   OH245480   1.314   7.048   5.717
15180TIP3    H145481   1.269   7.071   5.636
15180TIP3    H245482   1.351   7.131   5.748
15181TIP3   OH245483   4.432   2.860   3.546
15181TIP3    H145484   4.405   2.945   3.511
15181TIP3    H245485   4.406   2.863   3.638
15182TIP3   OH245486   8.331   4.288   1.423
15182TIP3    H145487   8.250   4.240   1.434
15182TIP3    H245488   8.342   4.295   1.328
15183TIP3   OH245489   1.228   7.750   4.386
15183TIP3    H145490   1.199   7.687   4.320
15183TIP3    H245491   1.174   7.827   4.370
15184TIP3   OH245492   6.291   4.879   6.752
15184TIP3    H145493   6.316   4.870   6.844
15184TIP3    H245494   6.304   4.791   6.715
15185TIP3   OH245495   8.310   7.003   6.528
15185TIP3    H145496   8.350   7.079   6.570
15185TIP3    H245497   8.249   6.969   6.593
15186TIP3   OH245498   6.494   4.176   2.567
15186TIP3    H145499   6.570   4.235   2.574
15186TIP3    H245500   6.480   4.145   2.656
15187TIP3   OH245501   2.877   3.268   2.534
15187TIP3    H145502   2.807   3.281   2.470
15187TIP3    H245503   2.896   3.174   2.530
15188TIP3   OH245504   5.597   0.752   6.263
15188TIP3    H145505   5.537   0.768   6.336
15188TIP3    H245506   5.592   0.832   6.210
15189TIP3   OH245507   0.947   0.833   4.022
15189TIP3    H145508   0.946   0.878   3.937
15189TIP3    H245509   1.008   0.760   4.009
15190TIP3   OH245510   6.236   4.230   6.494
15190TIP3    H145511   6.277   4.301   6.445
15190TIP3    H245512   6.285   4.151   6.469
15191TIP3   OH245513   6.450   4.158   4.803
15191TIP3    H145514   6.373   4.190   4.849
15191TIP3    H245515   6.468   4.224   4.736
15192TIP3   OH245516   3.908   4.706   6.351
15192TIP3    H145517   3.980   4.720   6.411
15192TIP3    H245518   3.945   4.722   6.264
15193TIP3   OH245519   0.572   0.262   2.800
15193TIP3    H145520   0.634   0.274   2.872
15193TIP3    H245521   0.586   0.172   2.771
15194TIP3   OH245522   2.935   0.107   3.603
15194TIP3    H145523   2.960   0.053   3.528
15194TIP3    H245524   3.015   0.116   3.655
15195TIP3   OH245525   0.132   3.906   1.844
15195TIP3    H145526   0.185   3.984   1.862
15195TIP3    H245527   0.139   3.893   1.750
15196TIP3   OH245528   5.963   1.591   3.225
15196TIP3    H145529   5.920   1.564   3.143
15196TIP3    H245530   6.021   1.519   3.246
15197TIP3   OH245531   7.224   7.857   1.023
15197TIP3    H145532   7.129   7.869   1.016
15197TIP3    H245533   7.241   7.775   0.977
15198TIP3   OH245534   7.842   3.227   6.194
15198TIP3    H145535   7.915   3.198   6.248
15198TIP3    H245536   7.866   3.315   6.165
15199TIP3   OH245537   7.101   5.093   2.064
15199TIP3    H145538   7.171   5.142   2.107
15199TIP3    H245539   7.023   5.113   2.116
15200TIP3   OH245540   5.969   5.540   4.285
15200TIP3    H145541   5.988   5.582   4.369
15200TIP3    H245542   5.898   5.592   4.248
15201TIP3   OH245543   0.669   6.831   2.884
15201TIP3    H145544   0.703   6.776   2.955
15201TIP3    H245545   0.724   6.809   2.809
15202TIP3   OH245546   7.836   6.734   3.199
15202TIP3    H145547   7.908   6.724   3.138
15202TIP3    H245548   7.774   6.665   3.175
15203TIP3   OH245549   5.360   5.473   5.936
15203TIP3    H145550   5.319   5.389   5.955
15203TIP3    H245551   5.385   5.467   5.843
15204TIP3   OH245552   2.519   5.704   0.561
15204TIP3    H145553   2.442   5.649   0.576
15204TIP3    H245554   2.568   5.699   0.643
15205TIP3   OH245555   6.012   1.349   2.109
15205TIP3    H145556   6.029   1.285   2.178
15205TIP3    H245557   6.081   1.414   2.119
15206TIP3   OH245558   7.958   2.102   2.604
15206TIP3    H145559   7.911   2.186   2.609
15206TIP3    H245560   8.007   2.098   2.686
15207TIP3   OH245561   1.842   1.151   6.082
15207TIP3    H145562   1.933   1.124   6.073
15207TIP3    H245563   1.792   1.082   6.037
15208TIP3   OH245564   7.185   6.578   2.033
15208TIP3    H145565   7.260   6.632   2.007
15208TIP3    H245566   7.223   6.507   2.084
15209TIP3   OH245567   1.066   6.495   5.145
15209TIP3    H145568   1.087   6.579   5.105
15209TIP3    H245569   1.109   6.498   5.230
15210TIP3   OH245570   2.682   0.796   4.997
15210TIP3    H145571   2.684   0.891   4.994
15210TIP3    H245572   2.632   0.771   4.919
15211TIP3   OH245573   7.637   7.814   2.859
15211TIP3    H145574   7.634   7.904   2.892
15211TIP3    H245575   7.726   7.785   2.877
15212TIP3   OH245576   7.526   5.492   2.804
15212TIP3    H145577   7.546   5.469   2.713
15212TIP3    H245578   7.526   5.588   2.805
15213TIP3   OH245579   0.121   2.366   1.497
15213TIP3    H145580   0.167   2.304   1.440
15213TIP3    H245581   0.031   2.334   1.500
15214TIP3   OH245582   1.625   4.268   2.465
15214TIP3    H145583   1.623   4.354   2.508
15214TIP3    H245584   1.559   4.274   2.396
15215TIP3   OH245585   5.238   0.530   3.093
15215TIP3    H145586   5.165   0.482   3.054
15215TIP3    H245587   5.313   0.509   3.038
15216TIP3   OH245588   7.909   2.971   4.989
15216TIP3    H145589   7.835   3.007   5.038
15216TIP3    H245590   7.978   3.037   4.997
15217TIP3   OH245591   7.087   2.805   5.068
15217TIP3    H145592   7.034   2.883   5.083
15217TIP3    H245593   7.163   2.817   5.125
15218TIP3   OH245594   3.126   6.530   3.974
15218TIP3    H145595   3.169   6.542   3.890
15218TIP3    H245596   3.194   6.548   4.039
15219TIP3   OH245597   4.578   5.088   1.168
15219TIP3    H145598   4.573   5.145   1.091
15219TIP3    H245599   4.650   5.124   1.220
15220TIP3   OH245600   0.664   2.850   2.774
15220TIP3    H145601   0.624   2.778   2.727
15220TIP3    H245602   0.590   2.901   2.807
15221TIP3   OH245603   0.666   0.009   6.812
15221TIP3    H145604   0.657   0.072   6.740
15221TIP3    H245605   0.587   0.020   6.864
15222TIP3   OH245606   4.456   3.781   5.071
15222TIP3    H145607   4.507   3.726   5.010
15222TIP3    H245608   4.482   3.870   5.050
15223TIP3   OH245609   1.630   5.479   0.945
15223TIP3    H145610   1.591   5.559   0.909
15223TIP3    H245611   1.684   5.445   0.874
15224TIP3   OH245612   1.193   4.802   2.995
15224TIP3    H145613   1.247   4.783   2.919
15224TIP3    H245614   1.252   4.791   3.070
15225TIP3   OH245615   6.652   0.675   6.831
15225TIP3    H145616   6.690   0.666   6.743
15225TIP3    H245617   6.562   0.704   6.815
15226TIP3   OH245618   7.693   0.625   0.357
15226TIP3    H145619   7.712   0.534   0.380
15226TIP3    H245620   7.648   0.619   0.272
15227TIP3   OH245621   5.561   4.954   6.482
15227TIP3    H145622   5.532   4.944   6.573
15227TIP3    H245623   5.484   4.988   6.437
15228TIP3   OH245624   2.641   0.277   1.941
15228TIP3    H145625   2.732   0.275   1.912
15228TIP3    H245626   2.644   0.250   2.033
15229TIP3   OH245627   6.190   1.973   3.829
15229TIP3    H145628   6.134   2.050   3.817
15229TIP3    H245629   6.243   1.994   3.906
15230TIP3   OH245630   6.905   3.286   6.723
15230TIP3    H145631   6.842   3.294   6.651
15230TIP3    H245632   6.854   3.252   6.796
15231TIP3   OH245633   2.839   0.976   1.855
15231TIP3    H145634   2.786   0.987   1.776
15231TIP3    H245635   2.787   1.015   1.925
15232TIP3   OH245636   5.528   0.312   5.929
15232TIP3    H145637   5.494   0.321   5.840
15232TIP3    H245638   5.471   0.246   5.970
15233TIP3   OH245639   1.520   2.836   4.284
15233TIP3    H145640   1.542   2.928   4.301
15233TIP3    H245641   1.513   2.830   4.189
15234TIP3   OH245642   1.746   2.973   1.106
15234TIP3    H145643   1.741   2.930   1.021
15234TIP3    H245644   1.667   2.944   1.152
15235TIP3   OH245645   6.882   4.542   5.348
15235TIP3    H145646   6.899   4.609   5.414
15235TIP3    H245647   6.788   4.546   5.334
15236TIP3   OH245648   2.550   5.482   1.483
15236TIP3    H145649   2.467   5.525   1.461
15236TIP3    H245650   2.539   5.392   1.453
15237TIP3   OH245651   4.270   2.012   1.931
15237TIP3    H145652   4.350   1.971   1.964
15237TIP3    H245653   4.228   1.943   1.879
15238TIP3   OH245654   3.783   6.519   6.472
15238TIP3    H145655   3.696   6.508   6.435
15238TIP3    H245656   3.843   6.488   6.404
15239TIP3   OH245657   2.120   7.244   2.209
15239TIP3    H145658   2.101   7.198   2.127
15239TIP3    H245659   2.106   7.178   2.277
15240TIP3   OH245660   0.062   1.309   1.940
15240TIP3    H145661   0.126   1.280   2.004
15240TIP3    H245662   0.044   1.400   1.963
15241TIP3   OH245663   3.316   3.017   0.286
15241TIP3    H145664   3.336   3.079   0.356
15241TIP3    H245665   3.283   3.071   0.215
15242TIP3   OH245666   6.667   1.227   2.278
15242TIP3    H145667   6.719   1.173   2.219
15242TIP3    H245668   6.677   1.316   2.243
15243TIP3   OH245669   5.669   6.969   2.610
15243TIP3    H145670   5.764   6.956   2.616
15243TIP3    H245671   5.658   7.050   2.562
15244TIP3   OH245672   0.128   4.108   6.482
15244TIP3    H145673   0.062   4.090   6.550
15244TIP3    H245674   0.194   4.040   6.494
15245TIP3   OH245675   6.370   6.824   6.519
15245TIP3    H145676   6.341   6.747   6.568
15245TIP3    H245677   6.343   6.898   6.573
15246TIP3   OH245678   1.094   1.624   1.880
15246TIP3    H145679   1.069   1.539   1.843
15246TIP3    H245680   1.137   1.669   1.808
15247TIP3   OH245681   2.790   3.623   5.118
15247TIP3    H145682   2.869   3.593   5.163
15247TIP3    H245683   2.821   3.652   5.032
15248TIP3   OH245684   2.365   1.877   1.439
15248TIP3    H145685   2.371   1.850   1.347
15248TIP3    H245686   2.384   1.798   1.489
15249TIP3   OH245687   1.893   7.336   1.161
15249TIP3    H145688   1.811   7.344   1.112
15249TIP3    H245689   1.890   7.407   1.225
15250TIP3   OH245690   0.115   3.922   1.590
15250TIP3    H145691   0.204   3.936   1.560
15250TIP3    H245692   0.092   3.834   1.559
15251TIP3   OH245693   2.395   4.176   5.447
15251TIP3    H145694   2.305   4.145   5.454
15251TIP3    H245695   2.440   4.139   5.523
15252TIP3   OH245696   7.195   5.596   1.991
15252TIP3    H145697   7.223   5.517   1.946
15252TIP3    H245698   7.200   5.574   2.084
15253TIP3   OH245699   7.018   6.692   3.557
15253TIP3    H145700   7.042   6.753   3.627
15253TIP3    H245701   7.097   6.683   3.505
15254TIP3   OH245702   3.614   6.688   4.354
15254TIP3    H145703   3.549   6.711   4.421
15254TIP3    H245704   3.631   6.770   4.308
15255TIP3   OH245705   6.266   3.767   2.409
15255TIP3    H145706   6.360   3.756   2.424
15255TIP3    H245707   6.252   3.862   2.414
15256TIP3   OH245708   4.321   2.599   6.115
15256TIP3    H145709   4.294   2.520   6.161
15256TIP3    H245710   4.298   2.671   6.174
15257TIP3   OH245711   7.425   1.010   5.201
15257TIP3    H145712   7.498   1.066   5.227
15257TIP3    H245713   7.398   1.044   5.116
15258TIP3   OH245714   3.076   4.089   6.295
15258TIP3    H145715   3.168   4.082   6.320
15258TIP3    H245716   3.030   4.113   6.375
15259TIP3   OH245717   5.166   5.991   3.719
15259TIP3    H145718   5.184   6.074   3.765
15259TIP3    H245719   5.150   5.928   3.790
15260TIP3   OH245720   4.074   1.926   2.117
15260TIP3    H145721   4.128   1.978   2.057
15260TIP3    H245722   4.001   1.896   2.063
15261TIP3   OH245723   3.374   6.848   2.485
15261TIP3    H145724   3.343   6.939   2.488
15261TIP3    H245725   3.436   6.841   2.557
15262TIP3   OH245726   1.692   6.149   2.297
15262TIP3    H145727   1.787   6.158   2.296
15262TIP3    H245728   1.675   6.060   2.265
15263TIP3   OH245729   4.803   4.828   0.053
15263TIP3    H145730   4.870   4.833  -0.014
15263TIP3    H245731   4.765   4.916   0.057
15264TIP3   OH245732   0.194   3.752   2.350
15264TIP3    H145733   0.136   3.689   2.308
15264TIP3    H245734   0.208   3.819   2.283
15265TIP3   OH245735   6.917   1.026   4.489
15265TIP3    H145736   6.854   0.967   4.448
15265TIP3    H245737   6.951   1.079   4.417
15266TIP3   OH245738   2.299   2.441   0.515
15266TIP3    H145739   2.303   2.534   0.495
15266TIP3    H245740   2.345   2.399   0.443
15267TIP3   OH245741   4.007   5.887   5.093
15267TIP3    H145742   4.049   5.845   5.168
15267TIP3    H245743   3.975   5.971   5.128
15268TIP3   OH245744   2.301   3.458   0.066
15268TIP3    H145745   2.341   3.376   0.036
15268TIP3    H245746   2.207   3.446   0.050
15269TIP3   OH245747   7.711   4.270   6.092
15269TIP3    H145748   7.673   4.357   6.105
15269TIP3    H245749   7.635   4.212   6.081
15270TIP3   OH245750   4.070   7.900   0.833
15270TIP3    H145751   4.136   7.911   0.764
15270TIP3    H245752   4.119   7.904   0.915
15271TIP3   OH245753   4.778   0.415   4.029
15271TIP3    H145754   4.856   0.364   4.053
15271TIP3    H245755   4.711   0.349   4.012
15272TIP3   OH245756   6.877   6.662   5.578
15272TIP3    H145757   6.963   6.630   5.551
15272TIP3    H245758   6.896   6.730   5.642
15273TIP3   OH245759   4.315   7.778   3.749
15273TIP3    H145760   4.277   7.697   3.716
15273TIP3    H245761   4.408   7.772   3.727
15274TIP3   OH245762   7.959   0.517   2.370
15274TIP3    H145763   7.989   0.606   2.350
15274TIP3    H245764   7.887   0.502   2.309
15275TIP3   OH245765   1.343   3.299   0.888
15275TIP3    H145766   1.315   3.209   0.901
15275TIP3    H245767   1.433   3.291   0.854
15276TIP3   OH245768   4.103   2.357   2.486
15276TIP3    H145769   4.165   2.421   2.452
15276TIP3    H245770   4.094   2.380   2.579
15277TIP3   OH245771   1.986   6.600   6.249
15277TIP3    H145772   1.991   6.682   6.300
15277TIP3    H245773   1.904   6.609   6.200
15278TIP3   OH245774   3.721   3.193   0.983
15278TIP3    H145775   3.812   3.223   0.987
15278TIP3    H245776   3.687   3.210   1.071
15279TIP3   OH245777   7.874   7.793   0.723
15279TIP3    H145778   7.852   7.743   0.802
15279TIP3    H245779   7.896   7.726   0.658
15280TIP3   OH245780   0.930   3.003   1.942
15280TIP3    H145781   0.961   3.013   2.032
15280TIP3    H245782   0.842   2.966   1.952
15281TIP3   OH245783   7.841   0.038   1.624
15281TIP3    H145784   7.822   0.131   1.620
15281TIP3    H245785   7.816   0.004   1.538
15282TIP3   OH245786   5.897   6.479   5.720
15282TIP3    H145787   5.875   6.548   5.657
15282TIP3    H245788   5.826   6.483   5.785
15283TIP3   OH245789   7.319   0.427   2.322
15283TIP3    H145790   7.320   0.480   2.402
15283TIP3    H245791   7.260   0.354   2.342
15284TIP3   OH245792   6.002   7.853   0.127
15284TIP3    H145793   6.088   7.862   0.084
15284TIP3    H245794   5.943   7.905   0.073
15285TIP3   OH245795   4.680   1.399   6.405
15285TIP3    H145796   4.585   1.411   6.408
15285TIP3    H245797   4.695   1.348   6.325
15286TIP3   OH245798   5.232   6.784   6.258
15286TIP3    H145799   5.186   6.799   6.176
15286TIP3    H245800   5.164   6.780   6.325
15287TIP3   OH245801   2.355   6.427   4.262
15287TIP3    H145802   2.310   6.346   4.284
15287TIP3    H245803   2.415   6.403   4.191
15288TIP3   OH245804   7.315   3.849   5.703
15288TIP3    H145805   7.267   3.799   5.637
15288TIP3    H245806   7.349   3.782   5.763
15289TIP3   OH245807   5.470   3.866   3.885
15289TIP3    H145808   5.499   3.956   3.898
15289TIP3    H245809   5.478   3.825   3.971
15290TIP3   OH245810   5.212   3.573   5.605
15290TIP3    H145811   5.195   3.639   5.538
15290TIP3    H245812   5.307   3.561   5.604
15291TIP3   OH245813   2.165   3.280   2.804
15291TIP3    H145814   2.121   3.215   2.859
15291TIP3    H245815   2.257   3.256   2.808
15292TIP3   OH245816   2.301   6.380   0.897
15292TIP3    H145817   2.385   6.349   0.863
15292TIP3    H245818   2.306   6.475   0.887
15293TIP3   OH245819   5.109   5.479   2.818
15293TIP3    H145820   5.061   5.545   2.767
15293TIP3    H245821   5.169   5.530   2.873
15294TIP3   OH245822   4.063   6.316   0.405
15294TIP3    H145823   4.014   6.337   0.326
15294TIP3    H245824   4.146   6.363   0.395
15295TIP3   OH245825   2.968   6.026   4.050
15295TIP3    H145826   3.011   6.089   4.107
15295TIP3    H245827   2.881   6.014   4.087
15296TIP3   OH245828   0.556   6.784   3.794
15296TIP3    H145829   0.468   6.812   3.767
15296TIP3    H245830   0.565   6.696   3.757
15297TIP3   OH245831   3.188   3.632   2.504
15297TIP3    H145832   3.179   3.544   2.541
15297TIP3    H245833   3.112   3.642   2.447
15298TIP3   OH245834   0.321   3.370   2.854
15298TIP3    H145835   0.374   3.295   2.880
15298TIP3    H245836   0.273   3.394   2.933
15299TIP3   OH245837   4.965   3.721   5.095
15299TIP3    H145838   5.018   3.799   5.079
15299TIP3    H245839   4.880   3.755   5.124
15300TIP3   OH245840   3.623   2.385   3.827
15300TIP3    H145841   3.581   2.347   3.904
15300TIP3    H245842   3.690   2.444   3.862
15301TIP3   OH245843   1.004   7.586   6.274
15301TIP3    H145844   1.096   7.614   6.271
15301TIP3    H245845   0.989   7.544   6.190
15302TIP3   OH245846   1.573   3.834   6.313
15302TIP3    H145847   1.646   3.857   6.370
15302TIP3    H245848   1.605   3.760   6.262
15303TIP3   OH245849   1.687   6.948   6.266
15303TIP3    H145850   1.598   6.912   6.270
15303TIP3    H245851   1.744   6.873   6.280
15304TIP3   OH245852   2.056   3.235   4.593
15304TIP3    H145853   2.058   3.318   4.640
15304TIP3    H245854   2.145   3.223   4.561
15305TIP3   OH245855   4.693   1.369   3.633
15305TIP3    H145856   4.625   1.327   3.580
15305TIP3    H245857   4.723   1.442   3.578
15306TIP3   OH245858   4.904   0.423   5.074
15306TIP3    H145859   4.875   0.497   5.127
15306TIP3    H245860   4.930   0.357   5.138
15307TIP3   OH245861   3.243   6.277   6.560
15307TIP3    H145862   3.287   6.204   6.604
15307TIP3    H245863   3.293   6.292   6.480
15308TIP3   OH245864   4.640   2.704   2.652
15308TIP3    H145865   4.625   2.630   2.711
15308TIP3    H245866   4.569   2.765   2.673
15309TIP3   OH245867   1.599   4.558   4.320
15309TIP3    H145868   1.588   4.551   4.225
15309TIP3    H245869   1.534   4.499   4.357
15310TIP3   OH245870   1.048   0.870   6.559
15310TIP3    H145871   0.993   0.930   6.509
15310TIP3    H245872   1.111   0.836   6.495
15311TIP3   OH245873   1.545   3.034   5.956
15311TIP3    H145874   1.531   2.967   5.889
15311TIP3    H245875   1.639   3.049   5.956
15312TIP3   OH245876   8.067   0.804   2.955
15312TIP3    H145877   8.007   0.878   2.940
15312TIP3    H245878   8.137   0.817   2.890
15313TIP3   OH245879   5.098   4.254   4.253
15313TIP3    H145880   5.034   4.309   4.208
15313TIP3    H245881   5.112   4.180   4.193
15314TIP3   OH245882   5.034   3.525   2.487
15314TIP3    H145883   5.077   3.472   2.554
15314TIP3    H245884   5.045   3.476   2.406
15315TIP3   OH245885   4.649   0.478   1.477
15315TIP3    H145886   4.643   0.537   1.553
15315TIP3    H245887   4.722   0.513   1.425
15316TIP3   OH245888   6.972   7.854   5.415
15316TIP3    H145889   6.879   7.851   5.394
15316TIP3    H245890   7.008   7.772   5.381
15317TIP3   OH245891   0.122   1.757   5.674
15317TIP3    H145892   0.156   1.759   5.763
15317TIP3    H245893   0.156   1.836   5.633
15318TIP3   OH245894   2.100   6.362   0.212
15318TIP3    H145895   2.193   6.342   0.200
15318TIP3    H245896   2.095   6.400   0.300
15319TIP3   OH245897   7.024   0.565   2.302
15319TIP3    H145898   7.055   0.534   2.387
15319TIP3    H245899   7.102   0.599   2.258
15320TIP3   OH245900   5.076   0.037   3.069
15320TIP3    H145901   5.084  -0.008   3.153
15320TIP3    H245902   5.157   0.087   3.061
15321TIP3   OH245903   3.281   7.933   5.358
15321TIP3    H145904   3.201   7.962   5.403
15321TIP3    H245905   3.299   7.846   5.394
15322TIP3   OH245906   4.549   7.838   4.186
15322TIP3    H145907   4.612   7.824   4.115
15322TIP3    H245908   4.480   7.891   4.146
15323TIP3   OH245909   6.864   2.071   1.108
15323TIP3    H145910   6.879   2.141   1.171
15323TIP3    H245911   6.776   2.088   1.073
15324TIP3   OH245912   6.394   4.834   4.359
15324TIP3    H145913   6.482   4.800   4.374
15324TIP3    H245914   6.364   4.789   4.280
15325TIP3   OH245915   2.565   3.707   3.108
15325TIP3    H145916   2.553   3.661   3.025
15325TIP3    H245917   2.660   3.709   3.121
15326TIP3   OH245918   2.190   4.400   4.060
15326TIP3    H145919   2.246   4.336   4.103
15326TIP3    H245920   2.101   4.368   4.074
15327TIP3   OH245921   6.352   3.229  -0.002
15327TIP3    H145922   6.319   3.239   0.088
15327TIP3    H245923   6.355   3.319  -0.036
15328TIP3   OH245924   4.762   3.242   3.134
15328TIP3    H145925   4.681   3.280   3.167
15328TIP3    H245926   4.757   3.150   3.159
15329TIP3   OH245927   4.146   2.335   6.391
15329TIP3    H145928   4.075   2.286   6.431
15329TIP3    H245929   4.103   2.405   6.342
15330TIP3   OH245930   3.281   0.437   5.462
15330TIP3    H145931   3.311   0.380   5.391
15330TIP3    H245932   3.313   0.395   5.542
15331TIP3   OH245933   0.408   5.571   4.915
15331TIP3    H145934   0.486   5.522   4.939
15331TIP3    H245935   0.440   5.647   4.867
15332TIP3   OH245936   2.138   2.410   5.022
15332TIP3    H145937   2.043   2.409   5.034
15332TIP3    H245938   2.153   2.351   4.949
15333TIP3   OH245939   4.845   7.585   4.581
15333TIP3    H145940   4.815   7.676   4.582
15333TIP3    H245941   4.902   7.580   4.504
15334TIP3   OH245942   3.925   2.263   3.004
15334TIP3    H145943   3.879   2.191   3.046
15334TIP3    H245944   4.002   2.223   2.965
15335TIP3   OH245945   5.331   0.686   6.151
15335TIP3    H145946   5.377   0.769   6.161
15335TIP3    H245947   5.400   0.619   6.158
15336TIP3   OH245948   0.050   6.698   3.145
15336TIP3    H145949   0.132   6.670   3.105
15336TIP3    H245950   0.015   6.763   3.083
15337TIP3   OH245951   0.453   1.556   3.168
15337TIP3    H145952   0.402   1.547   3.248
15337TIP3    H245953   0.417   1.633   3.125
15338TIP3   OH245954   3.126   3.122   4.122
15338TIP3    H145955   3.090   3.187   4.183
15338TIP3    H245956   3.079   3.041   4.143
15339TIP3   OH245957   1.197   0.611   1.465
15339TIP3    H145958   1.125   0.661   1.505
15339TIP3    H245959   1.183   0.522   1.495
15340TIP3   OH245960   0.948   3.487   6.054
15340TIP3    H145961   0.853   3.481   6.055
15340TIP3    H245962   0.974   3.451   5.970
15341TIP3   OH245963   6.143   1.356   3.896
15341TIP3    H145964   6.183   1.384   3.814
15341TIP3    H245965   6.137   1.436   3.949
15342TIP3   OH245966   2.121   2.898   5.346
15342TIP3    H145967   2.083   2.934   5.266
15342TIP3    H245968   2.067   2.933   5.417
15343TIP3   OH245969   7.590   5.597   5.108
15343TIP3    H145970   7.682   5.570   5.106
15343TIP3    H245971   7.587   5.666   5.174
15344TIP3   OH245972   7.878   5.599   4.021
15344TIP3    H145973   7.895   5.621   3.929
15344TIP3    H245974   7.909   5.676   4.069
15345TIP3   OH245975   2.082   1.963   4.995
15345TIP3    H145976   2.099   2.027   5.064
15345TIP3    H245977   2.023   2.008   4.935
15346TIP3   OH245978   3.651   2.495   0.060
15346TIP3    H145979   3.602   2.538   0.129
15346TIP3    H245980   3.659   2.404   0.089
15347TIP3   OH245981   2.986   1.950   0.671
15347TIP3    H145982   3.065   1.946   0.617
15347TIP3    H245983   2.927   2.007   0.621
15348TIP3   OH245984   7.556   4.063   0.685
15348TIP3    H145985   7.630   4.017   0.726
15348TIP3    H245986   7.509   3.995   0.637
15349TIP3   OH245987   1.327   7.657   2.565
15349TIP3    H145988   1.364   7.575   2.531
15349TIP3    H245989   1.359   7.662   2.655
15350TIP3   OH245990   4.623   6.958   0.104
15350TIP3    H145991   4.605   6.865   0.092
15350TIP3    H245992   4.709   6.961   0.145
15351TIP3   OH245993   5.106   5.694   1.236
15351TIP3    H145994   5.107   5.677   1.330
15351TIP3    H245995   5.140   5.783   1.227
15352TIP3   OH245996   0.627   2.912   0.308
15352TIP3    H145997   0.575   2.987   0.336
15352TIP3    H245998   0.564   2.855   0.263
15353TIP3   OH245999   0.102   1.399   6.709
15353TIP3    H146000   0.067   1.310   6.696
15353TIP3    H246001   0.108   1.436   6.621
15354TIP3   OH246002   3.837   0.726   2.701
15354TIP3    H146003   3.743   0.737   2.687
15354TIP3    H246004   3.844   0.683   2.786
15355TIP3   OH246005   4.169   7.079   4.205
15355TIP3    H146006   4.243   7.138   4.220
15355TIP3    H246007   4.092   7.137   4.209
15356TIP3   OH246008   1.748   5.190   0.052
15356TIP3    H146009   1.832   5.173   0.008
15356TIP3    H246010   1.740   5.285   0.053
15357TIP3   OH246011   5.264   3.836   2.377
15357TIP3    H146012   5.359   3.844   2.378
15357TIP3    H246013   5.234   3.905   2.437
15358TIP3   OH246014   3.728   3.291   1.262
15358TIP3    H146015   3.754   3.364   1.318
15358TIP3    H246016   3.768   3.214   1.302
15359TIP3   OH246017   0.540   5.464   4.121
15359TIP3    H146018   0.465   5.487   4.176
15359TIP3    H246019   0.603   5.534   4.135
15360TIP3   OH246020   3.974   2.468   5.199
15360TIP3    H146021   4.043   2.405   5.178
15360TIP3    H246022   3.985   2.485   5.292
15361TIP3   OH246023   6.538   3.661   4.834
15361TIP3    H146024   6.496   3.736   4.875
15361TIP3    H246025   6.466   3.613   4.793
15362TIP3   OH246026   6.108   6.176   2.124
15362TIP3    H146027   6.136   6.268   2.131
15362TIP3    H246028   6.176   6.127   2.171
15363TIP3   OH246029   2.664   3.159   0.529
15363TIP3    H146030   2.598   3.190   0.467
15363TIP3    H246031   2.746   3.199   0.500
15364TIP3   OH246032   3.276   1.456   0.925
15364TIP3    H146033   3.327   1.375   0.935
15364TIP3    H246034   3.209   1.449   0.993
15365TIP3   OH246035   0.916   4.591   3.424
15365TIP3    H146036   0.946   4.613   3.336
15365TIP3    H246037   0.919   4.495   3.427
15366TIP3   OH246038   7.278   6.846   5.004
15366TIP3    H146039   7.353   6.906   5.013
15366TIP3    H246040   7.312   6.761   5.033
15367TIP3   OH246041   3.093   3.776   0.558
15367TIP3    H146042   3.098   3.866   0.592
15367TIP3    H246043   3.162   3.771   0.492
15368TIP3   OH246044   2.078   0.102   4.482
15368TIP3    H146045   2.138   0.028   4.470
15368TIP3    H246046   2.135   0.173   4.513
15369TIP3   OH246047   1.329   6.872   5.925
15369TIP3    H146048   1.300   6.781   5.911
15369TIP3    H246049   1.295   6.919   5.849
15370TIP3   OH246050   5.282   6.038   4.373
15370TIP3    H146051   5.284   6.129   4.404
15370TIP3    H246052   5.212   5.998   4.424
15371TIP3   OH246053   1.422   5.491   5.434
15371TIP3    H146054   1.446   5.405   5.470
15371TIP3    H246055   1.449   5.553   5.502
   8.39298   7.91298   6.85284   0.00000   0.00000  -2.79766   0.00000  -2.79766  -3.95649
