       101  EXT
         1         1  GLY       N              -8.0110000000      -16.3790000000      -25.0730000000  PROA      1              97.8500000000
         2         1  GLY       CA             -8.8070000000      -15.6280000000      -24.1150000000  PROA      1              98.1600000000
         3         1  GLY       C              -8.1140000000      -14.3740000000      -23.6170000000  PROA      1              98.3500000000
         4         1  GLY       O              -6.9300000000      -14.1630000000      -23.8880000000  PROA      1              98.0800000000
         5         2  PRO       N              -8.7620000000      -13.3430000000      -22.9310000000  PROA      2              98.6200000000
         6         2  PRO       CA             -8.1450000000      -12.1420000000      -22.3620000000  PROA      2              98.6400000000
         7         2  PRO       C              -7.1740000000      -12.4600000000      -21.2270000000  PROA      2              98.6900000000
         8         2  PRO       CB             -9.3420000000      -11.3390000000      -21.8480000000  PROA      2              98.5600000000
         9         2  PRO       O              -7.2750000000      -13.5190000000      -20.6020000000  PROA      2              98.6100000000
        10         2  PRO       CG            -10.4710000000      -12.3180000000      -21.8100000000  PROA      2              97.8800000000
        11         2  PRO       CD            -10.0710000000      -13.5380000000      -22.5890000000  PROA      2              96.1500000000
        12         3  GLY       N              -6.0530000000      -11.5140000000      -21.1130000000  PROA      3              98.5900000000
        13         3  GLY       CA             -5.1080000000      -11.6560000000      -20.0170000000  PROA      3              98.5800000000
        14         3  GLY       C              -5.7590000000      -11.5550000000      -18.6510000000  PROA      3              98.6800000000
        15         3  GLY       O              -6.8990000000      -11.1000000000      -18.5330000000  PROA      3              98.6200000000
        16         4  ALA       N              -5.1180000000      -11.9490000000      -17.6390000000  PROA      4              98.4500000000
        17         4  ALA       CA             -5.5800000000      -11.8150000000      -16.2600000000  PROA      4              98.4300000000
        18         4  ALA       C              -5.5730000000      -10.3550000000      -15.8190000000  PROA      4              98.5600000000
        19         4  ALA       CB             -4.7130000000      -12.6550000000      -15.3250000000  PROA      4              98.2500000000
        20         4  ALA       O              -4.8220000000       -9.5400000000      -16.3600000000  PROA      4              98.4800000000
        21         5  PRO       N              -6.3900000000       -9.9360000000      -14.8310000000  PROA      5              98.3600000000
        22         5  PRO       CA             -6.3480000000       -8.5760000000      -14.2880000000  PROA      5              98.3500000000
        23         5  PRO       C              -4.9960000000       -8.2290000000      -13.6700000000  PROA      5              98.5300000000
        24         5  PRO       CB             -7.4480000000       -8.5880000000      -13.2230000000  PROA      5              98.2900000000
        25         5  PRO       O              -4.2540000000       -9.1240000000      -13.2570000000  PROA      5              98.4800000000
        26         5  PRO       CG             -8.2940000000       -9.7730000000      -13.5600000000  PROA      5              97.6700000000
        27         5  PRO       CD             -7.5050000000      -10.6820000000      -14.4590000000  PROA      5              97.1400000000
        28         6  GLY       N              -4.6990000000       -7.0200000000      -13.7540000000  PROA      6              98.6200000000
        29         6  GLY       CA             -3.4790000000       -6.5380000000      -13.1260000000  PROA      6              98.5900000000
        30         6  GLY       C              -3.4670000000       -6.7290000000      -11.6210000000  PROA      6              98.7000000000
        31         6  GLY       O              -4.4880000000       -7.0800000000      -11.0260000000  PROA      6              98.6400000000
        32         7  SER       N              -2.4030000000       -6.4550000000      -11.1900000000  PROA      7              98.6200000000
        33         7  SER       CA             -2.2710000000       -6.4840000000       -9.7370000000  PROA      7              98.5900000000
        34         7  SER       C              -3.0350000000       -5.3340000000       -9.0900000000  PROA      7              98.7100000000
        35         7  SER       CB             -0.7980000000       -6.4200000000       -9.3310000000  PROA      7              98.4400000000
        36         7  SER       O              -3.2660000000       -4.3010000000       -9.7230000000  PROA      7              98.6600000000
        37         7  SER       OG             -0.0720000000       -7.4940000000       -9.9040000000  PROA      7              95.6300000000
        38         8  GLY       N              -3.5280000000       -5.6020000000       -7.8260000000  PROA      8              98.4300000000
        39         8  GLY       CA             -4.1890000000       -4.5180000000       -7.1170000000  PROA      8              98.3600000000
        40         8  GLY       C              -3.2360000000       -3.4240000000       -6.6770000000  PROA      8              98.5000000000
        41         8  GLY       O              -2.0200000000       -3.5530000000       -6.8320000000  PROA      8              98.3800000000
        42         9  PRO       N              -3.6960000000       -2.4570000000       -6.1710000000  PROA      9              98.7000000000
        43         9  PRO       CA             -2.8960000000       -1.3500000000       -5.6420000000  PROA      9              98.7000000000
        44         9  PRO       C              -2.0990000000       -1.7390000000       -4.3990000000  PROA      9              98.8000000000
        45         9  PRO       CB             -3.9440000000       -0.2860000000       -5.3080000000  PROA      9              98.6800000000
        46         9  PRO       O              -2.4580000000       -2.6930000000       -3.7040000000  PROA      9              98.7700000000
        47         9  PRO       CG             -5.1920000000       -1.0570000000       -5.0170000000  PROA      9              98.3900000000
        48         9  PRO       CD             -5.1010000000       -2.3880000000       -5.7060000000  PROA      9              98.1600000000
        49        10  GLY       N              -1.0280000000       -0.9930000000       -4.2270000000  PROA      10             98.6000000000
        50        10  GLY       CA             -0.2110000000       -1.2360000000       -3.0490000000  PROA      10             98.5600000000
        51        10  GLY       C              -0.8990000000       -0.8470000000       -1.7550000000  PROA      10             98.6900000000
        52        10  GLY       O              -1.9180000000       -0.1540000000       -1.7720000000  PROA      10             98.6500000000
        53        11  ALA       N              -0.4630000000       -1.2590000000       -0.6770000000  PROA      11             98.6500000000
        54        11  ALA       CA             -0.9710000000       -0.9200000000        0.6490000000  PROA      11             98.6300000000
        55        11  ALA       C              -0.7030000000        0.5450000000        0.9810000000  PROA      11             98.7500000000
        56        11  ALA       CB             -0.3430000000       -1.8250000000        1.7070000000  PROA      11             98.5200000000
        57        11  ALA       O               0.2240000000        1.1520000000        0.4390000000  PROA      11             98.7200000000
        58        12  PRO       N              -1.5840000000        1.1220000000        1.9780000000  PROA      12             98.7000000000
        59        12  PRO       CA             -1.2950000000        2.4910000000        2.4110000000  PROA      12             98.6800000000
        60        12  PRO       C               0.0400000000        2.6090000000        3.1440000000  PROA      12             98.7800000000
        61        12  PRO       CB             -2.4620000000        2.8200000000        3.3460000000  PROA      12             98.6700000000
        62        12  PRO       O               0.5350000000        1.6220000000        3.6940000000  PROA      12             98.7500000000
        63        12  PRO       CG             -3.4590000000        1.7320000000        3.1080000000  PROA      12             98.3300000000
        64        12  PRO       CD             -2.7690000000        0.5970000000        2.4080000000  PROA      12             97.9500000000
        65        13  GLY       N               0.6170000000        3.7780000000        3.0120000000  PROA      13             98.6000000000
        66        13  GLY       CA              1.8570000000        4.0310000000        3.7280000000  PROA      13             98.5900000000
        67        13  GLY       C               1.7060000000        3.9430000000        5.2350000000  PROA      13             98.7200000000
        68        13  GLY       O               0.5870000000        3.8880000000        5.7490000000  PROA      13             98.6900000000
        69        14  SER       N               2.8120000000        4.0080000000        5.8840000000  PROA      14             98.6600000000
        70        14  SER       CA              2.7780000000        4.0560000000        7.3420000000  PROA      14             98.6200000000
        71        14  SER       C               2.2560000000        5.3990000000        7.8400000000  PROA      14             98.7500000000
        72        14  SER       CB              4.1700000000        3.7950000000        7.9190000000  PROA      14             98.5300000000
        73        14  SER       O               2.3700000000        6.4110000000        7.1450000000  PROA      14             98.7100000000
        74        14  SER       OG              4.6860000000        2.5610000000        7.4490000000  PROA      14             96.4600000000
        75        15  GLY       N               1.4590000000        5.3900000000        8.9550000000  PROA      15             98.4400000000
        76        15  GLY       CA              1.0130000000        6.6440000000        9.5410000000  PROA      15             98.4100000000
        77        15  GLY       C               2.1550000000        7.5120000000       10.0340000000  PROA      15             98.5500000000
        78        15  GLY       O               3.3090000000        7.0770000000       10.0530000000  PROA      15             98.4800000000
        79        16  PRO       N               2.0910000000        8.6550000000       10.3410000000  PROA      16             98.6800000000
        80        16  PRO       CA              3.0980000000        9.5390000000       10.9320000000  PROA      16             98.6700000000
        81        16  PRO       C               3.5570000000        9.0710000000       12.3110000000  PROA      16             98.7700000000
        82        16  PRO       CB              2.3760000000       10.8850000000       11.0240000000  PROA      16             98.6600000000
        83        16  PRO       O               2.8280000000        8.3490000000       12.9960000000  PROA      16             98.7500000000
        84        16  PRO       CG              0.9300000000       10.5340000000       11.1720000000  PROA      16             98.3300000000
        85        16  PRO       CD              0.6750000000        9.2480000000       10.4400000000  PROA      16             97.9200000000
        86        17  GLY       N               4.9540000000        9.3780000000       12.7480000000  PROA      17             98.6300000000
        87        17  GLY       CA              5.4730000000        9.0930000000       14.0760000000  PROA      17             98.6300000000
        88        17  GLY       C               4.7490000000        9.8480000000       15.1740000000  PROA      17             98.7300000000
        89        17  GLY       O               4.0400000000       10.8190000000       14.9040000000  PROA      17             98.7200000000
        90        18  ALA       N               4.7360000000        9.5270000000       16.2350000000  PROA      18             98.6800000000
        91        18  ALA       CA              4.1490000000       10.1820000000       17.4010000000  PROA      18             98.6400000000
        92        18  ALA       C               4.8890000000       11.4750000000       17.7340000000  PROA      18             98.7100000000
        93        18  ALA       CB              4.1620000000        9.2410000000       18.6030000000  PROA      18             98.5400000000
        94        18  ALA       O               6.0710000000       11.6220000000       17.4130000000  PROA      18             98.6600000000
        95        19  PRO       N               4.0150000000       12.6910000000       18.1150000000  PROA      19             98.5200000000
        96        19  PRO       CA              4.5970000000       13.9910000000       18.4560000000  PROA      19             98.4000000000
        97        19  PRO       C               5.5090000000       13.9270000000       19.6790000000  PROA      19             98.4100000000
        98        19  PRO       CB              3.3710000000       14.8650000000       18.7330000000  PROA      19             98.3600000000
        99        19  PRO       O               5.4150000000       12.9880000000       20.4740000000  PROA      19             98.1500000000
       100        19  PRO       CG              2.2000000000       13.9810000000       18.4470000000  PROA      19             97.8500000000
       101        19  PRO       CD              2.7040000000       12.5890000000       18.1920000000  PROA      19             97.4300000000
