* SET NIONTYPES = 1
* SET NPOSTOT = 65
* SET NNEGTOT = 65
* SET NIONTOT = 130
*  DATE:     6/13/26      5:56:32      CREATED BY USER: charmm-gui
*
       130  EXT
         1         1  LIT       LIT           -48.5461658728      -24.5276704951       -0.6185233461  IONS      1               1.0000000000
         2         2  LIT       LIT            18.1295590780      -28.6044571031        1.1952809222  IONS      2               1.0000000000
         3         3  LIT       LIT           -37.2041512792       26.1732749207      -32.0785047593  IONS      3               1.0000000000
         4         4  LIT       LIT             5.6758630855      -19.6320570303      -16.7288803016  IONS      4               1.0000000000
         5         5  LIT       LIT            10.2059581927       20.5335121943       39.2343472392  IONS      5               1.0000000000
         6         6  LIT       LIT            31.8366275343       -4.0803969967       30.2437328017  IONS      6               1.0000000000
         7         7  LIT       LIT            20.4080781463       -5.0554173641       48.4743917767  IONS      7               1.0000000000
         8         8  LIT       LIT           -32.1850465841      -14.6933768530      -32.9458237892  IONS      8               1.0000000000
         9         9  LIT       LIT            28.7429127271       12.1052553968       11.7373029311  IONS      9               1.0000000000
        10        10  LIT       LIT           -17.4302162943      -27.4690782881      -31.1523915417  IONS      10              1.0000000000
        11        11  LIT       LIT            12.9433401213       11.1518934509       21.0466248634  IONS      11              1.0000000000
        12        12  LIT       LIT            15.0983219715       18.8744599829      -12.6233319866  IONS      12              1.0000000000
        13        13  LIT       LIT            11.6078751184      -46.2382919676      -12.1746671124  IONS      13              1.0000000000
        14        14  LIT       LIT           -47.4403590540       20.9714525152      -16.4664261407  IONS      14              1.0000000000
        15        15  LIT       LIT            47.5383888122       24.8387495267      -23.4819035547  IONS      15              1.0000000000
        16        16  LIT       LIT            -0.9426376795       34.4633269922       23.7077725116  IONS      16              1.0000000000
        17        17  LIT       LIT           -21.0656687327       31.5411300366      -26.6327429202  IONS      17              1.0000000000
        18        18  LIT       LIT            21.0680468386       -7.1828771773      -46.1494690888  IONS      18              1.0000000000
        19        19  LIT       LIT            15.4152297009      -31.0163538212       46.8972764526  IONS      19              1.0000000000
        20        20  LIT       LIT           -22.3904710287      -48.8031444819        1.7309382005  IONS      20              1.0000000000
        21        21  LIT       LIT           -28.8250276747      -30.7981324731      -19.2704780989  IONS      21              1.0000000000
        22        22  LIT       LIT            -1.4529850944       22.7980448523      -32.7312536219  IONS      22              1.0000000000
        23        23  LIT       LIT            38.3606167793      -21.8637829231      -13.7992867087  IONS      23              1.0000000000
        24        24  LIT       LIT             7.2299867268       -4.5409066482       -0.1275827013  IONS      24              1.0000000000
        25        25  LIT       LIT           -19.1504509281      -22.8662763454      -10.7851384835  IONS      25              1.0000000000
        26        26  LIT       LIT           -14.5965761369      -45.7870055078      -23.3669079522  IONS      26              1.0000000000
        27        27  LIT       LIT             6.3072883733       -6.9234271095       13.9299301575  IONS      27              1.0000000000
        28        28  LIT       LIT            49.7915619600       12.7383764184       14.4498843718  IONS      28              1.0000000000
        29        29  LIT       LIT           -11.0781679529       39.1707414936       22.7013747708  IONS      29              1.0000000000
        30        30  LIT       LIT           -46.9327359301      -29.1138085086       -0.1223434062  IONS      30              1.0000000000
        31        31  LIT       LIT            34.8341751542       13.0062567935       -4.9521341871  IONS      31              1.0000000000
        32        32  LIT       LIT             6.0282427876       26.6575655969      -13.7920076800  IONS      32              1.0000000000
        33        33  LIT       LIT            12.5063204795       43.1239739958       17.2071034310  IONS      33              1.0000000000
        34        34  LIT       LIT           -11.7854158752        2.6164649988       13.9624601726  IONS      34              1.0000000000
        35        35  LIT       LIT            39.4000985870       18.8131585311       11.2078323748  IONS      35              1.0000000000
        36        36  LIT       LIT             6.5033988585       35.1404603475      -11.5293077057  IONS      36              1.0000000000
        37        37  LIT       LIT            -3.0399127854      -48.5629080765      -12.8701025931  IONS      37              1.0000000000
        38        38  LIT       LIT             9.1017467722      -48.3500309654      -24.7330796446  IONS      38              1.0000000000
        39        39  LIT       LIT             9.4819735884       26.8906171331       22.7059491245  IONS      39              1.0000000000
        40        40  LIT       LIT            34.1166268021       35.6314181658      -20.6839357749  IONS      40              1.0000000000
        41        41  LIT       LIT           -45.8104413346      -12.2761295390       35.7578090800  IONS      41              1.0000000000
        42        42  LIT       LIT            17.0491707841      -39.7099715974      -27.4942224134  IONS      42              1.0000000000
        43        43  LIT       LIT           -21.3988115976      -12.1369324979      -30.1501591934  IONS      43              1.0000000000
        44        44  LIT       LIT            49.7150421663       32.3544166544        0.3314900218  IONS      44              1.0000000000
        45        45  LIT       LIT            30.2041251275       13.9619746697       31.3429112827  IONS      45              1.0000000000
        46        46  LIT       LIT            -0.7522050971      -32.7200646018       -3.1409971697  IONS      46              1.0000000000
        47        47  LIT       LIT           -38.8173953406       26.2324970275       24.2959879830  IONS      47              1.0000000000
        48        48  LIT       LIT             0.6699436226       29.1888304038       51.0965039338  IONS      48              1.0000000000
        49        49  LIT       LIT           -47.5333009094       11.4681066031       -4.5555992443  IONS      49              1.0000000000
        50        50  LIT       LIT           -14.2445258075      -20.1565483235       -4.2719670182  IONS      50              1.0000000000
        51        51  LIT       LIT            35.6536136663      -24.8554295299      -41.2003524053  IONS      51              1.0000000000
        52        52  LIT       LIT           -12.6848837744      -14.1780858761       33.5265950647  IONS      52              1.0000000000
        53        53  LIT       LIT           -29.0337608634       25.9375609044      -37.1949963380  IONS      53              1.0000000000
        54        54  LIT       LIT            35.0123044334       -1.6409681265       17.1881976747  IONS      54              1.0000000000
        55        55  LIT       LIT           -15.3105474371      -23.3748871015      -41.3127379983  IONS      55              1.0000000000
        56        56  LIT       LIT            38.7483040659        7.9243278931      -23.3340072785  IONS      56              1.0000000000
        57        57  LIT       LIT           -10.4751923868       -5.1284816997      -38.3279085323  IONS      57              1.0000000000
        58        58  LIT       LIT            -5.0536990860      -40.7696040083       33.3583129956  IONS      58              1.0000000000
        59        59  LIT       LIT            30.9318088430        2.8165048283       36.2902339543  IONS      59              1.0000000000
        60        60  LIT       LIT            -7.7679229577      -20.7143774161       44.5982263661  IONS      60              1.0000000000
        61        61  LIT       LIT            -8.3517928285       11.2972973509      -37.8823853222  IONS      61              1.0000000000
        62        62  LIT       LIT           -15.2482719885       -5.9993984247      -52.1964994140  IONS      62              1.0000000000
        63        63  LIT       LIT            20.8513715091       33.0908139119        6.6767325550  IONS      63              1.0000000000
        64        64  LIT       LIT           -11.7889161951       23.3830839302      -47.5628855835  IONS      64              1.0000000000
        65        65  LIT       LIT           -47.9120168807       -6.0825425015       11.3864232956  IONS      65              1.0000000000
        66        66  CLA       CLA            35.2451445228        9.3366747918        9.8560776077  IONS      66             -1.0000000000
        67        67  CLA       CLA            44.2625735224      -17.1829345241       29.8553035143  IONS      67             -1.0000000000
        68        68  CLA       CLA            26.8386725998       27.2005354157        9.9449153308  IONS      68             -1.0000000000
        69        69  CLA       CLA            36.3761666911      -28.0482115318       20.7208784679  IONS      69             -1.0000000000
        70        70  CLA       CLA            -6.3558115916      -14.4898405163       23.3501145731  IONS      70             -1.0000000000
        71        71  CLA       CLA           -29.1663708064      -21.5728185363       12.7120890235  IONS      71             -1.0000000000
        72        72  CLA       CLA           -27.5987123478       19.7963749908      -42.1149626689  IONS      72             -1.0000000000
        73        73  CLA       CLA           -28.9384814912      -31.7565041179      -21.9634783259  IONS      73             -1.0000000000
        74        74  CLA       CLA            27.6937062677        6.4832849969       50.3588407903  IONS      74             -1.0000000000
        75        75  CLA       CLA            15.2905014091       37.8712785479      -33.6270282176  IONS      75             -1.0000000000
        76        76  CLA       CLA             1.4319995866      -30.3649543252       16.5911557188  IONS      76             -1.0000000000
        77        77  CLA       CLA            15.9754434151      -15.1239905179       48.1286829281  IONS      77             -1.0000000000
        78        78  CLA       CLA            -4.3996486673      -34.2303436950       31.2847641079  IONS      78             -1.0000000000
        79        79  CLA       CLA           -27.0296616300       13.8617269610      -28.5252381607  IONS      79             -1.0000000000
        80        80  CLA       CLA            16.2592579646      -49.2628959328      -14.7162073807  IONS      80             -1.0000000000
        81        81  CLA       CLA           -12.8594377630        4.0344671678      -39.2370646551  IONS      81             -1.0000000000
        82        82  CLA       CLA           -47.6106217967       16.9644972742       -2.6556123007  IONS      82             -1.0000000000
        83        83  CLA       CLA           -38.8032156605        1.8638940614       32.0705267759  IONS      83             -1.0000000000
        84        84  CLA       CLA             7.8469089359       40.8660565159       33.9853429871  IONS      84             -1.0000000000
        85        85  CLA       CLA            14.0278262635       44.8931811525       19.5280241189  IONS      85             -1.0000000000
        86        86  CLA       CLA            12.9823742848       10.7954178738      -17.2667492528  IONS      86             -1.0000000000
        87        87  CLA       CLA            -1.0096636534       -0.8471342461        5.7898068747  IONS      87             -1.0000000000
        88        88  CLA       CLA            27.6246214970       -9.7660843079       13.4755372134  IONS      88             -1.0000000000
        89        89  CLA       CLA            -3.1379284454      -25.6187635946      -48.9613955138  IONS      89             -1.0000000000
        90        90  CLA       CLA            31.7390842881      -10.7891817389       22.1010390938  IONS      90             -1.0000000000
        91        91  CLA       CLA           -17.9258802031        4.1712414902      -51.0345517450  IONS      91             -1.0000000000
        92        92  CLA       CLA           -25.9249233574       24.9337155964       13.6032637321  IONS      92             -1.0000000000
        93        93  CLA       CLA            -0.4986229521      -46.8835012937       -2.1103875526  IONS      93             -1.0000000000
        94        94  CLA       CLA            30.0547982030      -16.4963268538       46.4380490005  IONS      94             -1.0000000000
        95        95  CLA       CLA           -43.3861196107      -27.4595886529       -8.8145896014  IONS      95             -1.0000000000
        96        96  CLA       CLA           -11.5372589594      -12.4559595967      -47.6261724950  IONS      96             -1.0000000000
        97        97  CLA       CLA             9.5587023716      -37.6282228190       -6.8354504854  IONS      97             -1.0000000000
        98        98  CLA       CLA             4.1049834662       19.0705868562       27.9300434166  IONS      98             -1.0000000000
        99        99  CLA       CLA            10.9608953256       17.1530407833      -15.6839332174  IONS      99             -1.0000000000
       100       100  CLA       CLA           -16.4781764002      -12.9168151384       -9.9147160916  IONS      100            -1.0000000000
       101       101  CLA       CLA            44.6914022101      -22.7819771848       17.0572329620  IONS      101            -1.0000000000
       102       102  CLA       CLA            27.1246153383       22.5977704130      -23.5942226832  IONS      102            -1.0000000000
       103       103  CLA       CLA             6.8047368483       43.0657935134       -9.1776944122  IONS      103            -1.0000000000
       104       104  CLA       CLA            41.5874596461       37.2711492330        0.4094043197  IONS      104            -1.0000000000
       105       105  CLA       CLA           -16.9746857913      -40.5880669212       28.8304921335  IONS      105            -1.0000000000
       106       106  CLA       CLA            31.2748391890       -3.7409587188      -27.5497641365  IONS      106            -1.0000000000
       107       107  CLA       CLA            41.3639419126        0.0169069838       13.3933370523  IONS      107            -1.0000000000
       108       108  CLA       CLA            17.2218550819      -11.7390554744      -47.0248788769  IONS      108            -1.0000000000
       109       109  CLA       CLA            -2.6847772014      -52.4826760604      -20.0843995607  IONS      109            -1.0000000000
       110       110  CLA       CLA           -25.6035599071      -41.9425734952      -16.6934664978  IONS      110            -1.0000000000
       111       111  CLA       CLA           -11.8617294354       19.3885344063       18.8969080949  IONS      111            -1.0000000000
       112       112  CLA       CLA           -36.5386363064       34.5225713258       -3.9262310106  IONS      112            -1.0000000000
       113       113  CLA       CLA            31.7439724993       34.2846982103      -23.4259832126  IONS      113            -1.0000000000
       114       114  CLA       CLA           -11.8910346400       47.7335784633       17.4318142936  IONS      114            -1.0000000000
       115       115  CLA       CLA            35.2795341185       25.9651272706       22.0673924088  IONS      115            -1.0000000000
       116       116  CLA       CLA           -20.2910522872      -18.3237225099       -4.7745304093  IONS      116            -1.0000000000
       117       117  CLA       CLA           -11.7334294931        1.7154949100      -34.5046839667  IONS      117            -1.0000000000
       118       118  CLA       CLA            18.8296137795      -27.5987877433      -29.8792544131  IONS      118            -1.0000000000
       119       119  CLA       CLA           -11.1196074862      -47.9418268958      -15.3129220133  IONS      119            -1.0000000000
       120       120  CLA       CLA           -51.3016310653      -29.6457878204        4.3839681957  IONS      120            -1.0000000000
       121       121  CLA       CLA           -43.4621823782      -29.3198266281       -4.3637380921  IONS      121            -1.0000000000
       122       122  CLA       CLA            27.7908898087       15.3110218932      -40.3580014533  IONS      122            -1.0000000000
       123       123  CLA       CLA            16.0466945307        7.8786259958       39.2983139771  IONS      123            -1.0000000000
       124       124  CLA       CLA            41.7561017493       -1.1135435859       -0.5905665958  IONS      124            -1.0000000000
       125       125  CLA       CLA            12.3345392424      -43.3609988892      -29.6279896084  IONS      125            -1.0000000000
       126       126  CLA       CLA           -19.8155314958       33.0221095913       22.8931348590  IONS      126            -1.0000000000
       127       127  CLA       CLA           -12.2923722722      -23.8420094041      -27.4608559836  IONS      127            -1.0000000000
       128       128  CLA       CLA            36.6767735058        9.0528164148       -3.1329985341  IONS      128            -1.0000000000
       129       129  CLA       CLA           -31.4214613891      -43.8852470362        0.4319973800  IONS      129            -1.0000000000
       130       130  CLA       CLA           -28.3045816332       -3.5407830174      -10.6770158907  IONS      130            -1.0000000000
