Title t=  75.00000 step= 37500
44389
    1GLY      N    1   5.872   3.858   1.530
    1GLY    HT1    2   5.814   3.902   1.456
    1GLY    HT2    3   5.887   3.758   1.507
    1GLY    HT3    4   5.959   3.915   1.532
    1GLY     CA    5   5.791   3.859   1.656
    1GLY    HA1    6   5.738   3.953   1.655
    1GLY    HA2    7   5.865   3.852   1.734
    1GLY      C    8   5.679   3.752   1.681
    1GLY      O    9   5.667   3.654   1.612
    2PRO      N   10   5.609   3.769   1.796
    2PRO     CD   11   5.632   3.883   1.885
    2PRO    HD1   12   5.592   3.975   1.837
    2PRO    HD2   13   5.739   3.900   1.908
    2PRO     CA   14   5.492   3.687   1.837
    2PRO     HA   15   5.539   3.600   1.879
    2PRO     CB   16   5.433   3.773   1.948
    2PRO    HB1   17   5.395   3.708   2.029
    2PRO    HB2   18   5.357   3.845   1.912
    2PRO     CG   19   5.550   3.843   2.009
    2PRO    HG1   20   5.501   3.930   2.059
    2PRO    HG2   21   5.601   3.770   2.075
    2PRO      C   22   5.400   3.616   1.745
    2PRO      O   23   5.378   3.652   1.632
    3GLY      N   24   5.340   3.504   1.802
    3GLY     HN   25   5.358   3.478   1.896
    3GLY     CA   26   5.263   3.409   1.723
    3GLY    HA1   27   5.189   3.449   1.656
    3GLY    HA2   28   5.218   3.334   1.787
    3GLY      C   29   5.346   3.329   1.625
    3GLY      O   30   5.470   3.321   1.624
    4ASP      N   31   5.272   3.261   1.537
    4ASP     HN   32   5.173   3.271   1.540
    4ASP     CA   33   5.312   3.169   1.430
    4ASP     HA   34   5.378   3.107   1.489
    4ASP     CB   35   5.190   3.081   1.386
    4ASP    HB1   36   5.223   3.002   1.315
    4ASP    HB2   37   5.131   3.152   1.324
    4ASP     CG   38   5.117   3.024   1.501
    4ASP    OD1   39   5.145   2.902   1.532
    4ASP    OD2   40   5.040   3.087   1.574
    4ASP      C   41   5.388   3.236   1.310
    4ASP      O   42   5.352   3.349   1.266
    5PRO      N   43   5.496   3.173   1.252
    5PRO     CD   44   5.571   3.065   1.309
    5PRO    HD1   45   5.510   2.973   1.300
    5PRO    HD2   46   5.595   3.095   1.414
    5PRO     CA   47   5.548   3.209   1.120
    5PRO     HA   48   5.575   3.313   1.134
    5PRO     CB   49   5.659   3.106   1.091
    5PRO    HB1   50   5.742   3.145   1.029
    5PRO    HB2   51   5.623   3.018   1.033
    5PRO     CG   52   5.698   3.053   1.230
    5PRO    HG1   53   5.738   2.950   1.236
    5PRO    HG2   54   5.772   3.125   1.272
    5PRO      C   55   5.435   3.210   1.014
    5PRO      O   56   5.346   3.130   1.015
    6GLY      N   57   5.445   3.305   0.917
    6GLY     HN   58   5.535   3.348   0.915
    6GLY     CA   59   5.342   3.340   0.821
    6GLY    HA1   60   5.325   3.247   0.769
    6GLY    HA2   61   5.372   3.413   0.747
    6GLY      C   62   5.214   3.391   0.885
    6GLY      O   63   5.215   3.492   0.962
    7SER      N   64   5.098   3.337   0.849
    7SER     HN   65   5.084   3.251   0.801
    7SER     CA   66   4.968   3.405   0.872
    7SER     HA   67   4.975   3.508   0.842
    7SER     CB   68   4.839   3.343   0.802
    7SER    HB1   69   4.747   3.394   0.839
    7SER    HB2   70   4.825   3.234   0.816
    7SER     OG   71   4.843   3.366   0.665
    7SER    HG1   72   4.911   3.310   0.628
    7SER      C   73   4.928   3.399   1.023
    7SER      O   74   4.980   3.305   1.090
    8GLY      N   75   4.848   3.498   1.085
    8GLY     HN   76   4.814   3.568   1.024
    8GLY     CA   77   4.803   3.488   1.221
    8GLY    HA1   78   4.761   3.585   1.244
    8GLY    HA2   79   4.892   3.458   1.274
    8GLY      C   80   4.699   3.378   1.238
    8GLY      O   81   4.647   3.314   1.144
    9ASN      N   82   4.654   3.358   1.362
    9ASN     HN   83   4.701   3.405   1.436
    9ASN     CA   84   4.556   3.252   1.397
    9ASN     HA   85   4.513   3.200   1.313
    9ASN     CB   86   4.619   3.150   1.493
    9ASN    HB1   87   4.631   3.180   1.599
    9ASN    HB2   88   4.719   3.143   1.444
    9ASN     CG   89   4.557   3.006   1.485
    9ASN    OD1   90   4.476   2.973   1.401
    9ASN    ND2   91   4.631   2.915   1.552
    9ASN   HD21   92   4.613   2.820   1.527
    9ASN   HD22   93   4.711   2.945   1.604
    9ASN      C   94   4.435   3.322   1.473
    9ASN      O   95   4.455   3.408   1.561
   10PRO      N   96   4.307   3.300   1.430
   10PRO     CD   97   4.263   3.201   1.330
   10PRO    HD1   98   4.286   3.098   1.365
   10PRO    HD2   99   4.315   3.219   1.233
   10PRO     CA  100   4.188   3.387   1.473
   10PRO     HA  101   4.192   3.482   1.422
   10PRO     CB  102   4.067   3.302   1.438
   10PRO    HB1  103   3.974   3.362   1.424
   10PRO    HB2  104   4.037   3.225   1.512
   10PRO     CG  105   4.108   3.221   1.314
   10PRO    HG1  106   4.057   3.125   1.290
   10PRO    HG2  107   4.102   3.276   1.217
   10PRO      C  108   4.183   3.426   1.621
   10PRO      O  109   4.187   3.345   1.713
   11GLY      N  110   4.167   3.553   1.663
   11GLY     HN  111   4.148   3.630   1.603
   11GLY     CA  112   4.145   3.587   1.801
   11GLY    HA1  113   4.241   3.579   1.850
   11GLY    HA2  114   4.067   3.528   1.845
   11GLY      C  115   4.086   3.728   1.813
   11GLY      O  116   4.161   3.828   1.815
   12SER      N  117   3.949   3.745   1.806
   12SER     HN  118   3.887   3.669   1.788
   12SER     CA  119   3.888   3.882   1.797
   12SER     HA  120   3.939   3.942   1.724
   12SER     CB  121   3.745   3.880   1.721
   12SER    HB1  122   3.765   3.824   1.627
   12SER    HB2  123   3.710   3.984   1.700
   12SER     OG  124   3.637   3.810   1.794
   12SER    HG1  125   3.597   3.864   1.862
   12SER      C  126   3.868   3.952   1.931
   12SER      O  127   3.816   4.065   1.929
   13GLY      N  128   3.897   3.889   2.042
   13GLY     HN  129   3.923   3.793   2.033
   13GLY     CA  130   3.896   3.943   2.178
   13GLY    HA1  131   3.910   4.049   2.169
   13GLY    HA2  132   3.977   3.892   2.228
   13GLY      C  133   3.771   3.918   2.248
   13GLY      O  134   3.665   3.934   2.189
   14ASP      N  135   3.778   3.878   2.376
   14ASP     HN  136   3.869   3.865   2.415
   14ASP     CA  137   3.670   3.852   2.477
   14ASP     HA  138   3.627   3.764   2.431
   14ASP     CB  139   3.725   3.804   2.622
   14ASP    HB1  140   3.643   3.787   2.696
   14ASP    HB2  141   3.791   3.879   2.671
   14ASP     CG  142   3.800   3.676   2.623
   14ASP    OD1  143   3.800   3.596   2.524
   14ASP    OD2  144   3.861   3.650   2.735
   14ASP      C  145   3.571   3.971   2.485
   14ASP      O  146   3.612   4.089   2.466
   15PRO      N  147   3.441   3.941   2.505
   15PRO     CD  148   3.379   3.809   2.492
   15PRO    HD1  149   3.394   3.760   2.590
   15PRO    HD2  150   3.426   3.743   2.415
   15PRO     CA  151   3.344   4.044   2.532
   15PRO     HA  152   3.342   4.109   2.446
   15PRO     CB  153   3.211   3.964   2.553
   15PRO    HB1  154   3.123   4.022   2.519
   15PRO    HB2  155   3.190   3.931   2.657
   15PRO     CG  156   3.231   3.839   2.464
   15PRO    HG1  157   3.162   3.759   2.500
   15PRO    HG2  158   3.229   3.860   2.355
   15PRO      C  159   3.369   4.138   2.654
   15PRO    OT1  160   3.364   4.102   2.769
   15PRO    OT2  161   3.409   4.251   2.624
   16SOD    SOD  162   4.752   4.126   1.005
   17SOD    SOD  163   1.906   3.531   1.427
   18SOD    SOD  164   2.526   5.589   3.959
   19SOD    SOD  165   6.886   3.915   4.704
   20SOD    SOD  166   3.627   1.498   2.423
   21SOD    SOD  167   6.468   1.132   5.732
   22SOD    SOD  168   5.450   4.704   5.458
   23SOD    SOD  169   1.933   0.462   4.436
   24SOD    SOD  170   0.222   6.544   0.829
   25SOD    SOD  171   5.707   6.223   5.552
   26SOD    SOD  172   0.909   3.473   4.832
   27SOD    SOD  173   0.267   3.929   5.847
   28SOD    SOD  174   8.218   1.253   5.525
   29SOD    SOD  175   5.490   3.570   6.696
   30SOD    SOD  176   7.667   7.717   3.868
   31SOD    SOD  177   3.552   3.773   0.200
   32SOD    SOD  178   4.737   0.302   5.191
   33SOD    SOD  179   6.311   4.617   2.467
   34SOD    SOD  180   5.705   1.604   0.276
   35SOD    SOD  181   7.422   5.169   1.177
   36SOD    SOD  182   1.610   3.152   0.345
   37SOD    SOD  183   7.300   4.415   3.563
   38SOD    SOD  184   7.600   0.983   4.865
   39SOD    SOD  185   3.317   3.731   3.021
   40SOD    SOD  186   2.845   4.187   6.520
   41SOD    SOD  187   7.423   1.306   2.054
   42SOD    SOD  188   0.184   5.845   2.913
   43SOD    SOD  189   5.860   2.786   4.848
   44SOD    SOD  190   2.930   5.148   0.173
   45SOD    SOD  191   3.566   2.990   0.863
   46SOD    SOD  192   2.596   3.073   4.810
   47SOD    SOD  193   5.214   6.218   2.401
   48SOD    SOD  194   2.624   1.210   4.784
   49SOD    SOD  195   7.814   0.631   1.537
   50SOD    SOD  196   4.431   3.719   5.378
   51SOD    SOD  197   2.546   0.208   5.559
   52SOD    SOD  198   4.818   5.257   6.161
   53SOD    SOD  199   5.043   0.747   0.112
   54SOD    SOD  200   0.128   4.009   4.170
   55SOD    SOD  201   1.445   5.516   3.781
   56SOD    SOD  202   2.214   2.713   3.775
   57SOD    SOD  203   6.279   0.043   4.917
   58SOD    SOD  204   2.483   0.100   0.830
   59SOD    SOD  205   2.727   4.708   2.563
   60CLA    CLA  206   3.868   0.625   2.519
   61CLA    CLA  207   5.352   0.252   4.328
   62CLA    CLA  208   1.386   1.717   6.537
   63CLA    CLA  209   3.329   0.655   0.060
   64CLA    CLA  210   6.954   3.232   5.636
   65CLA    CLA  211   8.063   5.050   6.444
   66CLA    CLA  212   1.286   6.801   2.101
   67CLA    CLA  213   5.848   0.429   5.226
   68CLA    CLA  214   4.560   5.052   5.797
   69CLA    CLA  215   3.441   4.704   1.156
   70CLA    CLA  216   0.911   0.788   3.058
   71CLA    CLA  217   5.279   0.042   5.605
   72CLA    CLA  218   2.872   3.553   0.956
   73CLA    CLA  219   0.628   5.391   4.287
   74CLA    CLA  220   5.992   5.043   5.201
   75CLA    CLA  221   0.172   7.824   5.309
   76CLA    CLA  222   6.755   1.210   0.846
   77CLA    CLA  223   6.175   7.445   0.269
   78CLA    CLA  224   3.873   2.480   5.374
   79CLA    CLA  225   4.331   4.490   1.153
   80CLA    CLA  226   1.675   3.950   5.922
   81CLA    CLA  227   3.117   1.767   3.779
   82CLA    CLA  228   8.188   4.089   4.817
   83CLA    CLA  229   7.844   6.506   5.193
   84CLA    CLA  230   6.965   3.989   4.134
   85CLA    CLA  231   2.329   0.322   6.362
   86CLA    CLA  232   7.656   7.206   3.001
   87CLA    CLA  233   2.884   5.941   0.266
   88CLA    CLA  234   0.186   6.412   3.350
   89CLA    CLA  235   3.685   2.399   3.035
   90CLA    CLA  236   4.242   4.687   1.679
   91CLA    CLA  237   5.963   6.391   0.817
   92CLA    CLA  238   6.702   0.659   2.482
   93CLA    CLA  239   6.687   4.841   2.928
   94CLA    CLA  240   4.360   4.806   6.544
   95CLA    CLA  241   1.374   4.397   3.563
   96CLA    CLA  242   1.594   6.548   3.744
   97CLA    CLA  243   6.151   7.491   4.338
   98CLA    CLA  244   7.080   6.624   3.992
   99CLA    CLA  245   3.490   4.721   4.234
  100CLA    CLA  246   3.087   6.862   4.321
  101CLA    CLA  247   6.868   0.659   4.570
  102TIP3   OH2  248   6.061   5.545   2.946
  102TIP3    H1  249   6.134   5.489   2.920
  102TIP3    H2  250   6.100   5.608   3.007
  103TIP3   OH2  251   3.638   2.596   5.188
  103TIP3    H1  252   3.716   2.566   5.235
  103TIP3    H2  253   3.566   2.549   5.229
  104TIP3   OH2  254   3.741   6.824   5.767
  104TIP3    H1  255   3.762   6.906   5.721
  104TIP3    H2  256   3.802   6.760   5.730
  105TIP3   OH2  257   1.564   2.953   4.743
  105TIP3    H1  258   1.632   2.999   4.792
  105TIP3    H2  259   1.575   2.982   4.653
  106TIP3   OH2  260   6.463   4.414   2.450
  106TIP3    H1  261   6.531   4.424   2.383
  106TIP3    H2  262   6.511   4.417   2.533
  107TIP3   OH2  263   6.310   2.719   4.747
  107TIP3    H1  264   6.404   2.728   4.759
  107TIP3    H2  265   6.284   2.654   4.813
  108TIP3   OH2  266   6.131   0.277   2.032
  108TIP3    H1  267   6.080   0.353   2.061
  108TIP3    H2  268   6.145   0.226   2.111
  109TIP3   OH2  269   4.966   2.616   0.916
  109TIP3    H1  270   4.884   2.636   0.963
  109TIP3    H2  271   4.947   2.535   0.869
  110TIP3   OH2  272   5.112   7.085   3.367
  110TIP3    H1  273   5.103   6.989   3.363
  110TIP3    H2  274   5.085   7.108   3.455
  111TIP3   OH2  275   5.073   3.766   0.565
  111TIP3    H1  276   5.018   3.813   0.628
  111TIP3    H2  277   5.018   3.692   0.537
  112TIP3   OH2  278   3.337   2.706   3.535
  112TIP3    H1  279   3.396   2.686   3.608
  112TIP3    H2  280   3.309   2.796   3.551
  113TIP3   OH2  281   4.030   2.850   1.014
  113TIP3    H1  282   4.103   2.905   0.986
  113TIP3    H2  283   3.953   2.893   0.976
  114TIP3   OH2  284   6.065   1.567   4.157
  114TIP3    H1  285   6.033   1.543   4.244
  114TIP3    H2  286   6.082   1.484   4.113
  115TIP3   OH2  287   1.279   0.280   5.887
  115TIP3    H1  288   1.257   0.354   5.943
  115TIP3    H2  289   1.375   0.278   5.886
  116TIP3   OH2  290   2.437   4.934   6.050
  116TIP3    H1  291   2.420   4.945   5.957
  116TIP3    H2  292   2.529   4.908   6.055
  117TIP3   OH2  293   3.301   7.403   0.969
  117TIP3    H1  294   3.246   7.468   0.926
  117TIP3    H2  295   3.322   7.340   0.900
  118TIP3   OH2  296   5.804   2.210   2.621
  118TIP3    H1  297   5.838   2.222   2.533
  118TIP3    H2  298   5.710   2.227   2.613
  119TIP3   OH2  299   6.482   6.312   0.138
  119TIP3    H1  300   6.403   6.289   0.186
  119TIP3    H2  301   6.451   6.349   0.056
  120TIP3   OH2  302   3.959   3.313   1.971
  120TIP3    H1  303   3.900   3.347   1.904
  120TIP3    H2  304   3.982   3.226   1.941
  121TIP3   OH2  305   1.130   4.820   1.961
  121TIP3    H1  306   1.169   4.760   2.023
  121TIP3    H2  307   1.142   4.779   1.875
  122TIP3   OH2  308   1.669   2.585   1.843
  122TIP3    H1  309   1.650   2.498   1.876
  122TIP3    H2  310   1.593   2.638   1.869
  123TIP3   OH2  311   5.977   1.362   1.928
  123TIP3    H1  312   5.961   1.335   2.018
  123TIP3    H2  313   6.037   1.297   1.893
  124TIP3   OH2  314   8.242   4.261   1.741
  124TIP3    H1  315   8.209   4.315   1.669
  124TIP3    H2  316   8.176   4.194   1.754
  125TIP3   OH2  317   3.842   2.922   4.408
  125TIP3    H1  318   3.767   2.976   4.385
  125TIP3    H2  319   3.846   2.926   4.504
  126TIP3   OH2  320   0.981   5.717   6.392
  126TIP3    H1  321   0.896   5.762   6.387
  126TIP3    H2  322   1.020   5.750   6.473
  127TIP3   OH2  323  -0.012   3.482   3.684
  127TIP3    H1  324  -0.069   3.489   3.761
  127TIP3    H2  325   0.040   3.563   3.686
  128TIP3   OH2  326   0.588   6.106   3.121
  128TIP3    H1  327   0.520   6.125   3.185
  128TIP3    H2  328   0.563   6.157   3.044
  129TIP3   OH2  329   4.644   2.039   1.418
  129TIP3    H1  330   4.611   2.077   1.499
  129TIP3    H2  331   4.738   2.060   1.418
  130TIP3   OH2  332   6.787   7.624   1.437
  130TIP3    H1  333   6.769   7.669   1.520
  130TIP3    H2  334   6.826   7.690   1.381
  131TIP3   OH2  335   5.666   6.868   4.208
  131TIP3    H1  336   5.628   6.843   4.292
  131TIP3    H2  337   5.696   6.958   4.221
  132TIP3   OH2  338   6.120   0.528   6.477
  132TIP3    H1  339   6.192   0.517   6.539
  132TIP3    H2  340   6.102   0.439   6.447
  133TIP3   OH2  341   1.806   7.253   1.948
  133TIP3    H1  342   1.865   7.275   1.877
  133TIP3    H2  343   1.848   7.289   2.026
  134TIP3   OH2  344   5.609   2.645   2.214
  134TIP3    H1  345   5.651   2.619   2.132
  134TIP3    H2  346   5.644   2.583   2.279
  135TIP3   OH2  347   3.253   5.931   1.945
  135TIP3    H1  348   3.278   6.020   1.970
  135TIP3    H2  349   3.312   5.909   1.873
  136TIP3   OH2  350   2.084   6.463   1.484
  136TIP3    H1  351   2.064   6.385   1.432
  136TIP3    H2  352   2.178   6.458   1.498
  137TIP3   OH2  353   4.232   0.389   6.242
  137TIP3    H1  354   4.214   0.349   6.327
  137TIP3    H2  355   4.258   0.316   6.186
  138TIP3   OH2  356   4.615   0.846   3.256
  138TIP3    H1  357   4.674   0.911   3.294
  138TIP3    H2  358   4.551   0.897   3.207
  139TIP3   OH2  359   4.329   4.505   3.289
  139TIP3    H1  360   4.271   4.580   3.305
  139TIP3    H2  361   4.340   4.464   3.375
  140TIP3   OH2  362   1.956   3.407   2.386
  140TIP3    H1  363   1.879   3.400   2.329
  140TIP3    H2  364   1.968   3.501   2.399
  141TIP3   OH2  365   2.696   5.057   4.196
  141TIP3    H1  366   2.622   4.996   4.198
  141TIP3    H2  367   2.683   5.115   4.271
  142TIP3   OH2  368   1.430   5.848   1.980
  142TIP3    H1  369   1.413   5.897   1.899
  142TIP3    H2  370   1.372   5.888   2.045
  143TIP3   OH2  371   6.077   1.421   5.789
  143TIP3    H1  372   5.992   1.404   5.747
  143TIP3    H2  373   6.055   1.470   5.869
  144TIP3   OH2  374   3.266   2.607   4.665
  144TIP3    H1  375   3.263   2.512   4.654
  144TIP3    H2  376   3.358   2.630   4.648
  145TIP3   OH2  377   6.906   2.882   1.710
  145TIP3    H1  378   6.847   2.868   1.636
  145TIP3    H2  379   6.869   2.829   1.780
  146TIP3   OH2  380   4.685   6.906   2.442
  146TIP3    H1  381   4.703   6.821   2.483
  146TIP3    H2  382   4.764   6.924   2.391
  147TIP3   OH2  383   0.898   7.013   0.108
  147TIP3    H1  384   0.920   6.925   0.137
  147TIP3    H2  385   0.867   7.058   0.187
  148TIP3   OH2  386   7.699   1.542   1.806
  148TIP3    H1  387   7.721   1.558   1.898
  148TIP3    H2  388   7.735   1.618   1.760
  149TIP3   OH2  389   3.148   4.275   6.225
  149TIP3    H1  390   3.201   4.201   6.255
  149TIP3    H2  391   3.079   4.284   6.291
  150TIP3   OH2  392   7.832   2.990   3.956
  150TIP3    H1  393   7.862   3.029   3.873
  150TIP3    H2  394   7.739   2.975   3.943
  151TIP3   OH2  395   6.085   4.885   0.894
  151TIP3    H1  396   6.009   4.941   0.910
  151TIP3    H2  397   6.054   4.797   0.912
  152TIP3   OH2  398   1.539   1.300   4.702
  152TIP3    H1  399   1.578   1.240   4.639
  152TIP3    H2  400   1.612   1.354   4.732
  153TIP3   OH2  401   2.770   6.633   6.121
  153TIP3    H1  402   2.719   6.704   6.159
  153TIP3    H2  403   2.857   6.642   6.160
  154TIP3   OH2  404   4.932   7.115   5.097
  154TIP3    H1  405   4.842   7.092   5.076
  154TIP3    H2  406   4.927   7.153   5.185
  155TIP3   OH2  407   2.163   3.623   4.777
  155TIP3    H1  408   2.224   3.572   4.831
  155TIP3    H2  409   2.078   3.581   4.791
  156TIP3   OH2  410   5.306   3.275   2.432
  156TIP3    H1  411   5.292   3.194   2.481
  156TIP3    H2  412   5.401   3.281   2.422
  157TIP3   OH2  413   0.327   5.186   2.931
  157TIP3    H1  414   0.350   5.093   2.934
  157TIP3    H2  415   0.411   5.231   2.943
  158TIP3   OH2  416   6.654   5.341   4.495
  158TIP3    H1  417   6.610   5.270   4.447
  158TIP3    H2  418   6.681   5.403   4.427
  159TIP3   OH2  419   7.583   4.038   0.203
  159TIP3    H1  420   7.604   3.944   0.196
  159TIP3    H2  421   7.634   4.068   0.278
  160TIP3   OH2  422   4.470   4.930   0.895
  160TIP3    H1  423   4.460   5.023   0.913
  160TIP3    H2  424   4.469   4.924   0.799
  161TIP3   OH2  425   7.522   6.171   3.827
  161TIP3    H1  426   7.614   6.162   3.802
  161TIP3    H2  427   7.484   6.085   3.811
  162TIP3   OH2  428   7.946   6.968   1.401
  162TIP3    H1  429   7.902   7.032   1.345
  162TIP3    H2  430   7.889   6.891   1.398
  163TIP3   OH2  431   7.030   5.947   3.375
  163TIP3    H1  432   7.092   5.972   3.444
  163TIP3    H2  433   7.032   6.020   3.313
  164TIP3   OH2  434   2.481   5.152   1.790
  164TIP3    H1  435   2.483   5.209   1.866
  164TIP3    H2  436   2.545   5.083   1.810
  165TIP3   OH2  437   1.539   4.849   2.372
  165TIP3    H1  438   1.591   4.818   2.446
  165TIP3    H2  439   1.448   4.843   2.402
  166TIP3   OH2  440   1.965   0.000   2.866
  166TIP3    H1  441   2.053  -0.027   2.891
  166TIP3    H2  442   1.926  -0.078   2.826
  167TIP3   OH2  443   4.686   3.009   5.500
  167TIP3    H1  444   4.743   3.048   5.566
  167TIP3    H2  445   4.704   3.058   5.420
  168TIP3   OH2  446   4.107   1.571   3.363
  168TIP3    H1  447   4.186   1.594   3.412
  168TIP3    H2  448   4.035   1.587   3.425
  169TIP3   OH2  449   7.327   5.890   2.305
  169TIP3    H1  450   7.234   5.866   2.304
  169TIP3    H2  451   7.327   5.986   2.298
  170TIP3   OH2  452   3.013   2.975   2.959
  170TIP3    H1  453   2.958   3.023   2.897
  170TIP3    H2  454   3.102   3.002   2.938
  171TIP3   OH2  455   2.656   7.682   6.054
  171TIP3    H1  456   2.645   7.772   6.085
  171TIP3    H2  457   2.679   7.690   5.962
  172TIP3   OH2  458   5.923   1.249   4.565
  172TIP3    H1  459   5.945   1.210   4.650
  172TIP3    H2  460   5.922   1.343   4.582
  173TIP3   OH2  461   8.174   4.678   5.479
  173TIP3    H1  462   8.143   4.764   5.449
  173TIP3    H2  463   8.142   4.616   5.414
  174TIP3   OH2  464   4.341   1.413   4.668
  174TIP3    H1  465   4.351   1.505   4.693
  174TIP3    H2  466   4.262   1.412   4.614
  175TIP3   OH2  467   6.410   6.842   3.295
  175TIP3    H1  468   6.475   6.910   3.312
  175TIP3    H2  469   6.434   6.771   3.354
  176TIP3   OH2  470   7.654   1.689   3.330
  176TIP3    H1  471   7.606   1.713   3.251
  176TIP3    H2  472   7.719   1.625   3.301
  177TIP3   OH2  473   6.040   0.721   4.241
  177TIP3    H1  474   5.998   0.737   4.326
  177TIP3    H2  475   6.070   0.631   4.246
  178TIP3   OH2  476   6.933   2.422   0.234
  178TIP3    H1  477   6.981   2.431   0.151
  178TIP3    H2  478   6.856   2.477   0.223
  179TIP3   OH2  479   3.446   5.775   0.029
  179TIP3    H1  480   3.438   5.772   0.124
  179TIP3    H2  481   3.358   5.795  -0.002
  180TIP3   OH2  482   2.894   2.352   1.390
  180TIP3    H1  483   2.935   2.383   1.470
  180TIP3    H2  484   2.887   2.257   1.401
  181TIP3   OH2  485   7.133   5.232   6.261
  181TIP3    H1  486   7.219   5.241   6.221
  181TIP3    H2  487   7.071   5.260   6.194
  182TIP3   OH2  488   4.148   2.462   2.539
  182TIP3    H1  489   4.239   2.431   2.534
  182TIP3    H2  490   4.150   2.530   2.607
  183TIP3   OH2  491   5.532   6.497   6.003
  183TIP3    H1  492   5.465   6.469   5.940
  183TIP3    H2  493   5.537   6.426   6.066
  184TIP3   OH2  494   5.139   2.834   2.437
  184TIP3    H1  495   5.119   2.793   2.353
  184TIP3    H2  496   5.054   2.863   2.470
  185TIP3   OH2  497   3.794   0.310   3.258
  185TIP3    H1  498   3.853   0.352   3.321
  185TIP3    H2  499   3.821   0.218   3.259
  186TIP3   OH2  500   4.067   4.395   2.817
  186TIP3    H1  501   4.160   4.385   2.799
  186TIP3    H2  502   4.027   4.404   2.730
  187TIP3   OH2  503   1.877   6.639   2.634
  187TIP3    H1  504   1.878   6.735   2.634
  187TIP3    H2  505   1.862   6.616   2.542
  188TIP3   OH2  506   7.221   7.789   2.211
  188TIP3    H1  507   7.227   7.879   2.178
  188TIP3    H2  508   7.187   7.798   2.300
  189TIP3   OH2  509   3.372   4.860   4.592
  189TIP3    H1  510   3.309   4.925   4.624
  189TIP3    H2  511   3.365   4.866   4.496
  190TIP3   OH2  512   2.869   2.040   0.313
  190TIP3    H1  513   2.788   2.089   0.323
  190TIP3    H2  514   2.844   1.949   0.327
  191TIP3   OH2  515   6.736   2.004   6.269
  191TIP3    H1  516   6.805   1.994   6.204
  191TIP3    H2  517   6.742   1.924   6.322
  192TIP3   OH2  518   0.390   3.703   4.055
  192TIP3    H1  519   0.386   3.761   4.130
  192TIP3    H2  520   0.469   3.651   4.069
  193TIP3   OH2  521   4.491   7.605   4.127
  193TIP3    H1  522   4.563   7.556   4.165
  193TIP3    H2  523   4.481   7.682   4.183
  194TIP3   OH2  524   6.080   4.540   2.449
  194TIP3    H1  525   6.013   4.559   2.516
  194TIP3    H2  526   6.091   4.445   2.452
  195TIP3   OH2  527   6.586   3.324   0.142
  195TIP3    H1  528   6.575   3.342   0.235
  195TIP3    H2  529   6.511   3.270   0.119
  196TIP3   OH2  530   5.323   6.021   1.427
  196TIP3    H1  531   5.381   6.029   1.351
  196TIP3    H2  532   5.356   6.086   1.489
  197TIP3   OH2  533   6.369   1.974   2.967
  197TIP3    H1  534   6.383   2.047   3.026
  197TIP3    H2  535   6.282   1.941   2.989
  198TIP3   OH2  536   7.492   1.355   2.736
  198TIP3    H1  537   7.572   1.303   2.736
  198TIP3    H2  538   7.522   1.445   2.722
  199TIP3   OH2  539   5.901   5.763   1.282
  199TIP3    H1  540   5.845   5.829   1.322
  199TIP3    H2  541   5.989   5.786   1.309
  200TIP3   OH2  542   7.756   2.250   3.108
  200TIP3    H1  543   7.686   2.305   3.074
  200TIP3    H2  544   7.725   2.160   3.095
  201TIP3   OH2  545   8.191   5.862   0.760
  201TIP3    H1  546   8.199   5.781   0.810
  201TIP3    H2  547   8.097   5.874   0.747
  202TIP3   OH2  548   5.889   0.966   5.417
  202TIP3    H1  549   5.917   0.944   5.328
  202TIP3    H2  550   5.835   0.892   5.444
  203TIP3   OH2  551   0.338   6.048   3.979
  203TIP3    H1  552   0.377   5.980   3.924
  203TIP3    H2  553   0.308   6.001   4.057
  204TIP3   OH2  554   7.808   6.229   3.779
  204TIP3    H1  555   7.786   6.322   3.780
  204TIP3    H2  556   7.867   6.218   3.853
  205TIP3   OH2  557   1.861   4.401   4.487
  205TIP3    H1  558   1.804   4.456   4.434
  205TIP3    H2  559   1.945   4.448   4.489
  206TIP3   OH2  560   1.777   2.245   3.998
  206TIP3    H1  561   1.862   2.284   3.978
  206TIP3    H2  562   1.757   2.274   4.087
  207TIP3   OH2  563   7.566   3.869   5.875
  207TIP3    H1  564   7.606   3.877   5.789
  207TIP3    H2  565   7.574   3.956   5.914
  208TIP3   OH2  566   5.946   7.673   0.299
  208TIP3    H1  567   5.907   7.658   0.385
  208TIP3    H2  568   6.015   7.607   0.292
  209TIP3   OH2  569   1.992   1.946   1.586
  209TIP3    H1  570   2.064   1.889   1.560
  209TIP3    H2  571   1.920   1.886   1.606
  210TIP3   OH2  572   6.869   5.309   4.985
  210TIP3    H1  573   6.787   5.314   4.935
  210TIP3    H2  574   6.911   5.229   4.953
  211TIP3   OH2  575   7.561   6.622   1.896
  211TIP3    H1  576   7.554   6.626   1.801
  211TIP3    H2  577   7.554   6.528   1.917
  212TIP3   OH2  578   5.379   5.319   3.418
  212TIP3    H1  579   5.347   5.409   3.420
  212TIP3    H2  580   5.444   5.314   3.488
  213TIP3   OH2  581   1.584   6.248   3.743
  213TIP3    H1  582   1.531   6.218   3.816
  213TIP3    H2  583   1.579   6.344   3.748
  214TIP3   OH2  584   3.568   7.341  -0.054
  214TIP3    H1  585   3.640   7.291  -0.092
  214TIP3    H2  586   3.527   7.282   0.008
  215TIP3   OH2  587   3.706   5.432   4.699
  215TIP3    H1  588   3.694   5.491   4.773
  215TIP3    H2  589   3.658   5.353   4.724
  216TIP3   OH2  590   0.398   1.911   1.108
  216TIP3    H1  591   0.408   2.006   1.108
  216TIP3    H2  592   0.363   1.890   1.022
  217TIP3   OH2  593   0.741   5.537   3.384
  217TIP3    H1  594   0.828   5.510   3.356
  217TIP3    H2  595   0.757   5.605   3.450
  218TIP3   OH2  596   7.346   6.447   2.682
  218TIP3    H1  597   7.348   6.527   2.630
  218TIP3    H2  598   7.253   6.430   2.697
  219TIP3   OH2  599   1.190   7.674   1.701
  219TIP3    H1  600   1.265   7.614   1.700
  219TIP3    H2  601   1.162   7.678   1.609
  220TIP3   OH2  602   8.146   2.127   2.249
  220TIP3    H1  603   8.076   2.089   2.197
  220TIP3    H2  604   8.208   2.162   2.184
  221TIP3   OH2  605   2.887   2.657   2.917
  221TIP3    H1  606   2.888   2.748   2.946
  221TIP3    H2  607   2.980   2.631   2.918
  222TIP3   OH2  608   2.547   1.291   1.510
  222TIP3    H1  609   2.546   1.256   1.599
  222TIP3    H2  610   2.541   1.214   1.454
  223TIP3   OH2  611   5.273   2.488   3.885
  223TIP3    H1  612   5.347   2.441   3.846
  223TIP3    H2  613   5.196   2.440   3.855
  224TIP3   OH2  614   2.239   6.718   2.206
  224TIP3    H1  615   2.235   6.636   2.157
  224TIP3    H2  616   2.165   6.713   2.267
  225TIP3   OH2  617   4.172   4.669   4.002
  225TIP3    H1  618   4.155   4.735   3.935
  225TIP3    H2  619   4.092   4.615   4.004
  226TIP3   OH2  620   7.975   6.311   3.989
  226TIP3    H1  621   8.009   6.375   4.051
  226TIP3    H2  622   7.954   6.235   4.043
  227TIP3   OH2  623   3.781   0.165   5.938
  227TIP3    H1  624   3.869   0.193   5.910
  227TIP3    H2  625   3.793   0.075   5.968
  228TIP3   OH2  626   6.279   0.258   6.481
  228TIP3    H1  627   6.234   0.230   6.561
  228TIP3    H2  628   6.234   0.212   6.411
  229TIP3   OH2  629   4.638   3.342   6.194
  229TIP3    H1  630   4.659   3.376   6.107
  229TIP3    H2  631   4.699   3.388   6.253
  230TIP3   OH2  632   7.669   5.229   3.233
  230TIP3    H1  633   7.733   5.162   3.256
  230TIP3    H2  634   7.720   5.299   3.193
  231TIP3   OH2  635   1.533   0.638   0.025
  231TIP3    H1  636   1.601   0.673  -0.032
  231TIP3    H2  637   1.570   0.558   0.062
  232TIP3   OH2  638   6.877   0.321   1.199
  232TIP3    H1  639   6.836   0.238   1.174
  232TIP3    H2  640   6.946   0.335   1.134
  233TIP3   OH2  641   2.449   3.448   0.639
  233TIP3    H1  642   2.506   3.443   0.715
  233TIP3    H2  643   2.365   3.477   0.674
  234TIP3   OH2  644   0.048   1.978   2.409
  234TIP3    H1  645   0.128   1.987   2.358
  234TIP3    H2  646  -0.016   2.034   2.365
  235TIP3   OH2  647   1.522   3.703   3.837
  235TIP3    H1  648   1.512   3.787   3.792
  235TIP3    H2  649   1.563   3.725   3.920
  236TIP3   OH2  650   4.059   2.454   4.213
  236TIP3    H1  651   4.079   2.547   4.205
  236TIP3    H2  652   3.964   2.449   4.217
  237TIP3   OH2  653   3.462   5.380   4.290
  237TIP3    H1  654   3.537   5.411   4.341
  237TIP3    H2  655   3.386   5.418   4.335
  238TIP3   OH2  656   8.156   4.388   5.575
  238TIP3    H1  657   8.130   4.458   5.634
  238TIP3    H2  658   8.136   4.421   5.488
  239TIP3   OH2  659   6.981   4.621   0.898
  239TIP3    H1  660   7.006   4.661   0.981
  239TIP3    H2  661   7.064   4.615   0.849
  240TIP3   OH2  662   7.810   2.709   0.084
  240TIP3    H1  663   7.754   2.687   0.010
  240TIP3    H2  664   7.803   2.804   0.093
  241TIP3   OH2  665   3.698   2.435   0.111
  241TIP3    H1  666   3.605   2.444   0.089
  241TIP3    H2  667   3.724   2.521   0.143
  242TIP3   OH2  668   0.565   6.780   3.488
  242TIP3    H1  669   0.655   6.773   3.518
  242TIP3    H2  670   0.552   6.873   3.470
  243TIP3   OH2  671   3.022   2.405   1.666
  243TIP3    H1  672   3.032   2.347   1.742
  243TIP3    H2  673   3.041   2.492   1.699
  244TIP3   OH2  674   1.011   2.961   0.217
  244TIP3    H1  675   0.994   2.872   0.249
  244TIP3    H2  676   1.095   2.955   0.172
  245TIP3   OH2  677   5.897   5.157   2.598
  245TIP3    H1  678   5.932   5.081   2.644
  245TIP3    H2  679   5.969   5.221   2.601
  246TIP3   OH2  680   4.831   0.243   1.853
  246TIP3    H1  681   4.829   0.319   1.911
  246TIP3    H2  682   4.791   0.275   1.771
  247TIP3   OH2  683   7.251   5.559   5.129
  247TIP3    H1  684   7.311   5.621   5.088
  247TIP3    H2  685   7.299   5.476   5.130
  248TIP3   OH2  686   7.212   0.239   0.752
  248TIP3    H1  687   7.293   0.284   0.726
  248TIP3    H2  688   7.237   0.147   0.758
  249TIP3   OH2  689   4.500   2.043   3.992
  249TIP3    H1  690   4.484   2.133   4.020
  249TIP3    H2  691   4.436   1.991   4.040
  250TIP3   OH2  692   2.645   0.498   4.161
  250TIP3    H1  693   2.634   0.407   4.131
  250TIP3    H2  694   2.581   0.548   4.111
  251TIP3   OH2  695   7.078   5.166   0.133
  251TIP3    H1  696   7.059   5.098   0.197
  251TIP3    H2  697   7.016   5.151   0.062
  252TIP3   OH2  698   3.520   6.332   1.179
  252TIP3    H1  699   3.442   6.355   1.229
  252TIP3    H2  700   3.592   6.341   1.241
  253TIP3   OH2  701   6.149   3.408   3.981
  253TIP3    H1  702   6.185   3.332   3.935
  253TIP3    H2  703   6.091   3.449   3.917
  254TIP3   OH2  704   4.012   0.120   2.681
  254TIP3    H1  705   4.038   0.212   2.688
  254TIP3    H2  706   3.928   0.122   2.635
  255TIP3   OH2  707   0.910   1.755   5.504
  255TIP3    H1  708   0.893   1.761   5.409
  255TIP3    H2  709   0.954   1.837   5.525
  256TIP3   OH2  710   7.426   4.971   4.934
  256TIP3    H1  711   7.438   5.055   4.890
  256TIP3    H2  712   7.372   4.992   5.011
  257TIP3   OH2  713   4.870   2.100   6.659
  257TIP3    H1  714   4.858   2.188   6.623
  257TIP3    H2  715   4.962   2.095   6.683
  258TIP3   OH2  716   4.849   6.665   1.759
  258TIP3    H1  717   4.908   6.658   1.684
  258TIP3    H2  718   4.799   6.583   1.757
  259TIP3   OH2  719   2.437   7.584   4.555
  259TIP3    H1  720   2.439   7.554   4.646
  259TIP3    H2  721   2.509   7.646   4.549
  260TIP3   OH2  722   3.224   2.344   2.486
  260TIP3    H1  723   3.163   2.270   2.496
  260TIP3    H2  724   3.261   2.355   2.574
  261TIP3   OH2  725   2.307   0.594   1.925
  261TIP3    H1  726   2.367   0.654   1.970
  261TIP3    H2  727   2.310   0.513   1.976
  262TIP3   OH2  728   7.927   6.067   1.914
  262TIP3    H1  729   7.869   5.990   1.919
  262TIP3    H2  730   7.886   6.122   1.848
  263TIP3   OH2  731   6.862   5.194   4.647
  263TIP3    H1  732   6.840   5.165   4.558
  263TIP3    H2  733   6.848   5.289   4.645
  264TIP3   OH2  734   6.041   2.779   2.240
  264TIP3    H1  735   6.003   2.692   2.249
  264TIP3    H2  736   6.135   2.763   2.232
  265TIP3   OH2  737   2.500   3.664   5.286
  265TIP3    H1  738   2.414   3.639   5.253
  265TIP3    H2  739   2.494   3.652   5.381
  266TIP3   OH2  740   5.639   3.591   6.233
  266TIP3    H1  741   5.685   3.645   6.298
  266TIP3    H2  742   5.602   3.654   6.171
  267TIP3   OH2  743   0.667   6.482   5.274
  267TIP3    H1  744   0.647   6.470   5.182
  267TIP3    H2  745   0.746   6.536   5.275
  268TIP3   OH2  746   0.933   5.009   5.077
  268TIP3    H1  747   0.905   4.965   4.997
  268TIP3    H2  748   0.964   5.095   5.048
  269TIP3   OH2  749   8.176   2.726   5.835
  269TIP3    H1  750   8.098   2.680   5.867
  269TIP3    H2  751   8.242   2.710   5.903
  270TIP3   OH2  752   1.379   5.308   4.366
  270TIP3    H1  753   1.329   5.235   4.330
  270TIP3    H2  754   1.454   5.318   4.307
  271TIP3   OH2  755   1.782   4.160   3.636
  271TIP3    H1  756   1.765   4.211   3.557
  271TIP3    H2  757   1.703   4.173   3.690
  272TIP3   OH2  758   5.321   7.530   6.657
  272TIP3    H1  759   5.305   7.622   6.677
  272TIP3    H2  760   5.334   7.488   6.742
  273TIP3   OH2  761   4.559   6.660   5.297
  273TIP3    H1  762   4.542   6.738   5.350
  273TIP3    H2  763   4.507   6.591   5.339
  274TIP3   OH2  764   2.117   5.003   6.710
  274TIP3    H1  765   2.133   5.039   6.797
  274TIP3    H2  766   2.029   5.034   6.687
  275TIP3   OH2  767   3.549   4.578   5.481
  275TIP3    H1  768   3.488   4.505   5.484
  275TIP3    H2  769   3.494   4.656   5.482
  276TIP3   OH2  770   2.284   5.742   2.444
  276TIP3    H1  771   2.317   5.668   2.393
  276TIP3    H2  772   2.280   5.709   2.534
  277TIP3   OH2  773   2.138   5.695   6.054
  277TIP3    H1  774   2.179   5.727   5.973
  277TIP3    H2  775   2.208   5.700   6.119
  278TIP3   OH2  776   5.999   1.559   6.669
  278TIP3    H1  777   5.966   1.550   6.759
  278TIP3    H2  778   6.092   1.582   6.680
  279TIP3   OH2  779   1.809   5.267   6.406
  279TIP3    H1  780   1.794   5.330   6.335
  279TIP3    H2  781   1.894   5.292   6.442
  280TIP3   OH2  782   2.539   2.469   4.536
  280TIP3    H1  783   2.629   2.497   4.522
  280TIP3    H2  784   2.487   2.527   4.480
  281TIP3   OH2  785   7.485   1.432   4.183
  281TIP3    H1  786   7.545   1.452   4.112
  281TIP3    H2  787   7.476   1.515   4.231
  282TIP3   OH2  788   4.016   6.176   0.714
  282TIP3    H1  789   3.974   6.103   0.667
  282TIP3    H2  790   4.029   6.243   0.647
  283TIP3   OH2  791   5.880   5.119   6.380
  283TIP3    H1  792   5.865   5.211   6.360
  283TIP3    H2  793   5.941   5.090   6.313
  284TIP3   OH2  794   7.677   3.374   4.294
  284TIP3    H1  795   7.621   3.379   4.371
  284TIP3    H2  796   7.617   3.385   4.220
  285TIP3   OH2  797   6.648   2.382   4.459
  285TIP3    H1  798   6.729   2.362   4.413
  285TIP3    H2  799   6.629   2.473   4.439
  286TIP3   OH2  800   1.892   3.601   5.871
  286TIP3    H1  801   1.986   3.598   5.891
  286TIP3    H2  802   1.886   3.568   5.781
  287TIP3   OH2  803   2.599   6.384   3.938
  287TIP3    H1  804   2.581   6.336   4.019
  287TIP3    H2  805   2.644   6.464   3.967
  288TIP3   OH2  806   0.940   0.940   4.445
  288TIP3    H1  807   1.009   0.895   4.396
  288TIP3    H2  808   0.958   1.033   4.431
  289TIP3   OH2  809   0.662   1.427   4.017
  289TIP3    H1  810   0.695   1.517   4.016
  289TIP3    H2  811   0.631   1.411   3.928
  290TIP3   OH2  812   7.054   3.620   3.111
  290TIP3    H1  813   7.121   3.685   3.133
  290TIP3    H2  814   7.038   3.574   3.193
  291TIP3   OH2  815   7.052   0.350   0.974
  291TIP3    H1  816   7.064   0.276   0.915
  291TIP3    H2  817   7.135   0.356   1.022
  292TIP3   OH2  818   1.065   6.909   3.178
  292TIP3    H1  819   1.130   6.840   3.190
  292TIP3    H2  820   1.112   6.990   3.198
  293TIP3   OH2  821   6.113   2.201   6.629
  293TIP3    H1  822   6.027   2.242   6.636
  293TIP3    H2  823   6.150   2.236   6.549
  294TIP3   OH2  824   5.993   5.682   6.089
  294TIP3    H1  825   5.982   5.588   6.078
  294TIP3    H2  826   5.960   5.700   6.177
  295TIP3   OH2  827   1.168   4.310   2.703
  295TIP3    H1  828   1.243   4.348   2.749
  295TIP3    H2  829   1.134   4.382   2.649
  296TIP3   OH2  830   0.978   4.766   5.504
  296TIP3    H1  831   0.905   4.765   5.566
  296TIP3    H2  832   0.968   4.849   5.457
  297TIP3   OH2  833   2.230   0.086   2.396
  297TIP3    H1  834   2.271   0.050   2.475
  297TIP3    H2  835   2.202   0.009   2.347
  298TIP3   OH2  836   7.771   6.213   5.687
  298TIP3    H1  837   7.713   6.275   5.732
  298TIP3    H2  838   7.816   6.266   5.621
  299TIP3   OH2  839   1.942   2.356   4.520
  299TIP3    H1  840   1.875   2.347   4.588
  299TIP3    H2  841   1.918   2.290   4.454
  300TIP3   OH2  842   0.958   4.647   1.525
  300TIP3    H1  843   0.937   4.567   1.479
  300TIP3    H2  844   0.956   4.715   1.458
  301TIP3   OH2  845   0.038   1.070   4.024
  301TIP3    H1  846   0.125   1.033   4.013
  301TIP3    H2  847   0.001   1.024   4.099
  302TIP3   OH2  848   0.820   2.868   1.446
  302TIP3    H1  849   0.903   2.880   1.399
  302TIP3    H2  850   0.845   2.868   1.538
  303TIP3   OH2  851   7.587   4.825   3.999
  303TIP3    H1  852   7.643   4.789   4.068
  303TIP3    H2  853   7.510   4.859   4.046
  304TIP3   OH2  854   4.131   5.268   5.768
  304TIP3    H1  855   4.209   5.278   5.823
  304TIP3    H2  856   4.094   5.184   5.795
  305TIP3   OH2  857   2.199   7.584   0.307
  305TIP3    H1  858   2.181   7.589   0.214
  305TIP3    H2  859   2.288   7.548   0.312
  306TIP3   OH2  860   2.171   5.738   0.928
  306TIP3    H1  861   2.193   5.682   1.001
  306TIP3    H2  862   2.239   5.806   0.928
  307TIP3   OH2  863   5.922   1.789   1.215
  307TIP3    H1  864   5.998   1.824   1.170
  307TIP3    H2  865   5.957   1.717   1.267
  308TIP3   OH2  866   6.284   6.706   1.587
  308TIP3    H1  867   6.197   6.737   1.562
  308TIP3    H2  868   6.291   6.620   1.546
  309TIP3   OH2  869   4.777   0.280   5.776
  309TIP3    H1  870   4.746   0.193   5.752
  309TIP3    H2  871   4.872   0.274   5.769
  310TIP3   OH2  872   2.917   7.183   3.460
  310TIP3    H1  873   2.949   7.271   3.441
  310TIP3    H2  874   2.966   7.125   3.402
  311TIP3   OH2  875   3.545   4.151   6.564
  311TIP3    H1  876   3.636   4.122   6.576
  311TIP3    H2  877   3.551   4.222   6.500
  312TIP3   OH2  878   7.329   0.398   3.984
  312TIP3    H1  879   7.339   0.365   3.895
  312TIP3    H2  880   7.417   0.424   4.011
  313TIP3   OH2  881   6.071   6.866   2.717
  313TIP3    H1  882   6.101   6.785   2.757
  313TIP3    H2  883   5.996   6.893   2.771
  314TIP3   OH2  884   1.330   5.785   4.532
  314TIP3    H1  885   1.288   5.852   4.586
  314TIP3    H2  886   1.421   5.814   4.525
  315TIP3   OH2  887   1.171   2.330   5.231
  315TIP3    H1  888   1.102   2.368   5.177
  315TIP3    H2  889   1.199   2.252   5.183
  316TIP3   OH2  890   6.741   7.033   2.148
  316TIP3    H1  891   6.815   7.088   2.122
  316TIP3    H2  892   6.766   6.998   2.234
  317TIP3   OH2  893   2.220   7.233   1.547
  317TIP3    H1  894   2.136   7.277   1.533
  317TIP3    H2  895   2.209   7.148   1.506
  318TIP3   OH2  896   7.544   4.509   2.504
  318TIP3    H1  897   7.587   4.425   2.489
  318TIP3    H2  898   7.542   4.519   2.599
  319TIP3   OH2  899   5.898   2.060   3.704
  319TIP3    H1  900   5.924   2.151   3.691
  319TIP3    H2  901   5.971   2.021   3.753
  320TIP3   OH2  902   4.790   6.256   4.273
  320TIP3    H1  903   4.752   6.178   4.231
  320TIP3    H2  904   4.721   6.322   4.268
  321TIP3   OH2  905   6.953   6.720   5.256
  321TIP3    H1  906   6.971   6.787   5.190
  321TIP3    H2  907   7.040   6.691   5.285
  322TIP3   OH2  908   4.231   1.356   5.199
  322TIP3    H1  909   4.295   1.423   5.221
  322TIP3    H2  910   4.254   1.330   5.110
  323TIP3   OH2  911   6.286   4.920   1.793
  323TIP3    H1  912   6.250   5.007   1.775
  323TIP3    H2  913   6.366   4.916   1.741
  324TIP3   OH2  914   5.546   6.265   3.808
  324TIP3    H1  915   5.451   6.278   3.797
  324TIP3    H2  916   5.570   6.326   3.878
  325TIP3   OH2  917   4.728   5.301   4.562
  325TIP3    H1  918   4.770   5.372   4.514
  325TIP3    H2  919   4.785   5.225   4.549
  326TIP3   OH2  920   8.082   3.271   1.262
  326TIP3    H1  921   8.031   3.240   1.337
  326TIP3    H2  922   8.087   3.196   1.203
  327TIP3   OH2  923   4.361   4.921   5.400
  327TIP3    H1  924   4.332   4.934   5.310
  327TIP3    H2  925   4.358   5.008   5.439
  328TIP3   OH2  926   0.338   0.179   2.315
  328TIP3    H1  927   0.366   0.215   2.231
  328TIP3    H2  928   0.254   0.136   2.297
  329TIP3   OH2  929   1.286   5.557   0.447
  329TIP3    H1  930   1.260   5.559   0.355
  329TIP3    H2  931   1.281   5.648   0.475
  330TIP3   OH2  932   2.778   2.543   4.911
  330TIP3    H1  933   2.852   2.516   4.966
  330TIP3    H2  934   2.731   2.461   4.893
  331TIP3   OH2  935   4.257   2.172   3.486
  331TIP3    H1  936   4.181   2.205   3.438
  331TIP3    H2  937   4.254   2.077   3.475
  332TIP3   OH2  938   7.612   4.238   0.585
  332TIP3    H1  939   7.696   4.283   0.592
  332TIP3    H2  940   7.622   4.182   0.508
  333TIP3   OH2  941   7.563   5.803   2.142
  333TIP3    H1  942   7.631   5.860   2.177
  333TIP3    H2  943   7.482   5.836   2.181
  334TIP3   OH2  944   2.992   2.730   3.431
  334TIP3    H1  945   3.016   2.771   3.514
  334TIP3    H2  946   3.033   2.643   3.435
  335TIP3   OH2  947   0.114   1.747   0.153
  335TIP3    H1  948   0.098   1.743   0.247
  335TIP3    H2  949   0.058   1.678   0.117
  336TIP3   OH2  950   0.994   6.013   4.542
  336TIP3    H1  951   1.082   5.988   4.570
  336TIP3    H2  952   0.963   5.939   4.491
  337TIP3   OH2  953   4.865   4.439   5.660
  337TIP3    H1  954   4.799   4.508   5.657
  337TIP3    H2  955   4.947   4.483   5.637
  338TIP3   OH2  956   7.667   2.104   4.671
  338TIP3    H1  957   7.699   2.167   4.606
  338TIP3    H2  958   7.576   2.127   4.685
  339TIP3   OH2  959   5.111   6.444   4.043
  339TIP3    H1  960   5.063   6.520   4.076
  339TIP3    H2  961   5.087   6.373   4.103
  340TIP3   OH2  962   6.294   6.837   2.044
  340TIP3    H1  963   6.238   6.819   1.968
  340TIP3    H2  964   6.240   6.892   2.101
  341TIP3   OH2  965   3.417   6.965   3.661
  341TIP3    H1  966   3.450   6.930   3.578
  341TIP3    H2  967   3.470   6.921   3.728
  342TIP3   OH2  968   5.709   7.780   2.253
  342TIP3    H1  969   5.714   7.695   2.297
  342TIP3    H2  970   5.715   7.758   2.160
  343TIP3   OH2  971   3.456   4.566   3.246
  343TIP3    H1  972   3.380   4.601   3.291
  343TIP3    H2  973   3.427   4.554   3.155
  344TIP3   OH2  974   3.910   2.422   6.201
  344TIP3    H1  975   3.964   2.470   6.264
  344TIP3    H2  976   3.932   2.461   6.117
  345TIP3   OH2  977   8.087   5.745   6.284
  345TIP3    H1  978   8.088   5.840   6.274
  345TIP3    H2  979   8.125   5.713   6.202
  346TIP3   OH2  980   5.753   1.525   6.355
  346TIP3    H1  981   5.794   1.454   6.404
  346TIP3    H2  982   5.826   1.580   6.325
  347TIP3   OH2  983   7.707   4.286   1.338
  347TIP3    H1  984   7.687   4.354   1.273
  347TIP3    H2  985   7.696   4.204   1.290
  348TIP3   OH2  986   1.319   5.992   6.177
  348TIP3    H1  987   1.360   6.078   6.165
  348TIP3    H2  988   1.388   5.936   6.211
  349TIP3   OH2  989   3.312   3.383   2.684
  349TIP3    H1  990   3.384   3.371   2.622
  349TIP3    H2  991   3.237   3.341   2.642
  350TIP3   OH2  992   6.699   4.405   2.608
  350TIP3    H1  993   6.738   4.326   2.572
  350TIP3    H2  994   6.708   4.395   2.703
  351TIP3   OH2  995   6.531   3.003   5.697
  351TIP3    H1  996   6.558   3.095   5.699
  351TIP3    H2  997   6.571   2.967   5.618
  352TIP3   OH2  998   3.833   5.187   6.720
  352TIP3    H1  999   3.862   5.104   6.758
  352TIP3    H2 1000   3.911   5.223   6.679
  353TIP3   OH2 1001   6.572   5.181   0.850
  353TIP3    H1 1002   6.536   5.250   0.795
  353TIP3    H2 1003   6.496   5.129   0.876
  354TIP3   OH2 1004   1.968   7.194   0.396
  354TIP3    H1 1005   1.964   7.287   0.376
  354TIP3    H2 1006   2.052   7.166   0.361
  355TIP3   OH2 1007   3.836   1.120   1.057
  355TIP3    H1 1008   3.858   1.146   0.968
  355TIP3    H2 1009   3.838   1.201   1.107
  356TIP3   OH2 1010   6.775   2.330   2.592
  356TIP3    H1 1011   6.832   2.332   2.515
  356TIP3    H2 1012   6.689   2.308   2.558
  357TIP3   OH2 1013   3.641   2.542   3.964
  357TIP3    H1 1014   3.625   2.633   3.992
  357TIP3    H2 1015   3.554   2.502   3.964
  358TIP3   OH2 1016   5.296   1.761   6.221
  358TIP3    H1 1017   5.360   1.710   6.171
  358TIP3    H2 1018   5.347   1.834   6.255
  359TIP3   OH2 1019   1.485   1.687   2.355
  359TIP3    H1 1020   1.491   1.598   2.388
  359TIP3    H2 1021   1.524   1.683   2.267
  360TIP3   OH2 1022   0.396   1.258   3.240
  360TIP3    H1 1023   0.305   1.229   3.238
  360TIP3    H2 1024   0.392   1.347   3.276
  361TIP3   OH2 1025   3.386   6.234   1.674
  361TIP3    H1 1026   3.395   6.175   1.599
  361TIP3    H2 1027   3.437   6.312   1.649
  362TIP3   OH2 1028   4.341   6.455   5.853
  362TIP3    H1 1029   4.269   6.391   5.851
  362TIP3    H2 1030   4.416   6.406   5.886
  363TIP3   OH2 1031   0.467   6.442   1.375
  363TIP3    H1 1032   0.508   6.483   1.299
  363TIP3    H2 1033   0.532   6.380   1.408
  364TIP3   OH2 1034   7.526   4.789   4.461
  364TIP3    H1 1035   7.468   4.791   4.536
  364TIP3    H2 1036   7.612   4.770   4.497
  365TIP3   OH2 1037   1.642   4.108   1.429
  365TIP3    H1 1038   1.568   4.046   1.423
  365TIP3    H2 1039   1.639   4.156   1.347
  366TIP3   OH2 1040   3.757   5.911   3.752
  366TIP3    H1 1041   3.695   5.968   3.708
  366TIP3    H2 1042   3.802   5.865   3.681
  367TIP3   OH2 1043   7.980   7.152   1.628
  367TIP3    H1 1044   8.037   7.122   1.698
  367TIP3    H2 1045   7.978   7.079   1.565
  368TIP3   OH2 1046   6.579   1.837   2.857
  368TIP3    H1 1047   6.555   1.749   2.888
  368TIP3    H2 1048   6.510   1.894   2.891
  369TIP3   OH2 1049   6.689   2.869   5.525
  369TIP3    H1 1050   6.771   2.819   5.529
  369TIP3    H2 1051   6.713   2.951   5.480
  370TIP3   OH2 1052   8.082   1.156   0.535
  370TIP3    H1 1053   8.136   1.135   0.611
  370TIP3    H2 1054   8.014   1.213   0.569
  371TIP3   OH2 1055   2.676   7.651   0.160
  371TIP3    H1 1056   2.643   7.735   0.191
  371TIP3    H2 1057   2.771   7.656   0.172
  372TIP3   OH2 1058   6.229   7.687   4.106
  372TIP3    H1 1059   6.195   7.621   4.165
  372TIP3    H2 1060   6.160   7.700   4.041
  373TIP3   OH2 1061   5.009   3.020   4.557
  373TIP3    H1 1062   5.040   3.089   4.616
  373TIP3    H2 1063   5.053   2.941   4.586
  374TIP3   OH2 1064   4.458   2.618   4.462
  374TIP3    H1 1065   4.528   2.609   4.526
  374TIP3    H2 1066   4.383   2.649   4.512
  375TIP3   OH2 1067   5.633   2.804   4.142
  375TIP3    H1 1068   5.646   2.873   4.077
  375TIP3    H2 1069   5.700   2.820   4.208
  376TIP3   OH2 1070   0.318   5.088   6.346
  376TIP3    H1 1071   0.284   5.113   6.260
  376TIP3    H2 1072   0.282   5.154   6.406
  377TIP3   OH2 1073   1.037   0.238   5.044
  377TIP3    H1 1074   1.021   0.295   5.120
  377TIP3    H2 1075   1.107   0.180   5.072
  378TIP3   OH2 1076   1.731   1.313   6.701
  378TIP3    H1 1077   1.706   1.281   6.788
  378TIP3    H2 1078   1.692   1.401   6.697
  379TIP3   OH2 1079   1.858   7.586   6.543
  379TIP3    H1 1080   1.841   7.680   6.537
  379TIP3    H2 1081   1.784   7.545   6.498
  380TIP3   OH2 1082   1.462   6.537   5.555
  380TIP3    H1 1083   1.512   6.601   5.606
  380TIP3    H2 1084   1.513   6.456   5.562
  381TIP3   OH2 1085   0.178   1.628   1.489
  381TIP3    H1 1086   0.172   1.581   1.573
  381TIP3    H2 1087   0.265   1.667   1.490
  382TIP3   OH2 1088   7.691   1.778   6.376
  382TIP3    H1 1089   7.635   1.835   6.430
  382TIP3    H2 1090   7.643   1.695   6.372
  383TIP3   OH2 1091   2.574   0.234   3.719
  383TIP3    H1 1092   2.657   0.237   3.671
  383TIP3    H2 1093   2.599   0.226   3.811
  384TIP3   OH2 1094   0.311   5.429   2.497
  384TIP3    H1 1095   0.252   5.370   2.543
  384TIP3    H2 1096   0.374   5.457   2.563
  385TIP3   OH2 1097   0.714   5.153   2.878
  385TIP3    H1 1098   0.778   5.085   2.896
  385TIP3    H2 1099   0.705   5.153   2.783
  386TIP3   OH2 1100   6.704   0.070   4.896
  386TIP3    H1 1101   6.728   0.102   4.810
  386TIP3    H2 1102   6.687   0.149   4.948
  387TIP3   OH2 1103   6.738   7.387   5.146
  387TIP3    H1 1104   6.763   7.424   5.062
  387TIP3    H2 1105   6.753   7.293   5.137
  388TIP3   OH2 1106   2.133   6.674   3.407
  388TIP3    H1 1107   2.063   6.733   3.434
  388TIP3    H2 1108   2.089   6.592   3.385
  389TIP3   OH2 1109   1.680   1.264   5.738
  389TIP3    H1 1110   1.647   1.334   5.794
  389TIP3    H2 1111   1.751   1.224   5.788
  390TIP3   OH2 1112   0.606   0.135   3.943
  390TIP3    H1 1113   0.521   0.151   3.984
  390TIP3    H2 1114   0.588   0.071   3.875
  391TIP3   OH2 1115   1.444   5.407   0.893
  391TIP3    H1 1116   1.380   5.337   0.884
  391TIP3    H2 1117   1.481   5.416   0.805
  392TIP3   OH2 1118   3.048   0.387   1.300
  392TIP3    H1 1119   3.039   0.468   1.351
  392TIP3    H2 1120   3.066   0.416   1.211
  393TIP3   OH2 1121   7.922   7.806   2.622
  393TIP3    H1 1122   7.902   7.714   2.638
  393TIP3    H2 1123   7.901   7.850   2.705
  394TIP3   OH2 1124   5.107   4.285   0.262
  394TIP3    H1 1125   5.053   4.281   0.183
  394TIP3    H2 1126   5.194   4.310   0.230
  395TIP3   OH2 1127   4.330   4.325   4.206
  395TIP3    H1 1128   4.422   4.318   4.182
  395TIP3    H2 1129   4.322   4.412   4.245
  396TIP3   OH2 1130   6.510   4.606   4.470
  396TIP3    H1 1131   6.547   4.517   4.469
  396TIP3    H2 1132   6.454   4.608   4.547
  397TIP3   OH2 1133   1.508   0.610   3.002
  397TIP3    H1 1134   1.467   0.639   2.921
  397TIP3    H2 1135   1.602   0.624   2.988
  398TIP3   OH2 1136   2.286   6.505   3.131
  398TIP3    H1 1137   2.307   6.574   3.194
  398TIP3    H2 1138   2.240   6.551   3.060
  399TIP3   OH2 1139   1.100   0.569   2.514
  399TIP3    H1 1140   1.098   0.656   2.475
  399TIP3    H2 1141   1.184   0.565   2.559
  400TIP3   OH2 1142   5.757   7.746   1.559
  400TIP3    H1 1143   5.681   7.688   1.561
  400TIP3    H2 1144   5.780   7.753   1.467
  401TIP3   OH2 1145   2.220   2.910   3.891
  401TIP3    H1 1146   2.195   2.984   3.837
  401TIP3    H2 1147   2.305   2.935   3.928
  402TIP3   OH2 1148   5.312   4.880   1.165
  402TIP3    H1 1149   5.292   4.911   1.253
  402TIP3    H2 1150   5.231   4.894   1.116
  403TIP3   OH2 1151   0.166   6.458   1.352
  403TIP3    H1 1152   0.113   6.476   1.429
  403TIP3    H2 1153   0.212   6.377   1.373
  404TIP3   OH2 1154   1.371   7.167   4.749
  404TIP3    H1 1155   1.313   7.092   4.760
  404TIP3    H2 1156   1.347   7.204   4.664
  405TIP3   OH2 1157   7.487   7.518   6.179
  405TIP3    H1 1158   7.427   7.472   6.120
  405TIP3    H2 1159   7.455   7.497   6.267
  406TIP3   OH2 1160   8.270   2.210   1.139
  406TIP3    H1 1161   8.248   2.193   1.047
  406TIP3    H2 1162   8.271   2.123   1.179
  407TIP3   OH2 1163   3.614   1.312   5.641
  407TIP3    H1 1164   3.689   1.252   5.636
  407TIP3    H2 1165   3.638   1.374   5.711
  408TIP3   OH2 1166   0.208   5.204   2.115
  408TIP3    H1 1167   0.160   5.240   2.190
  408TIP3    H2 1168   0.152   5.135   2.081
  409TIP3   OH2 1169   2.449   4.298   5.219
  409TIP3    H1 1170   2.353   4.294   5.222
  409TIP3    H2 1171   2.470   4.388   5.244
  410TIP3   OH2 1172   6.096   2.774   4.041
  410TIP3    H1 1173   6.069   2.712   4.109
  410TIP3    H2 1174   6.022   2.779   3.981
  411TIP3   OH2 1175   5.500   1.599   5.765
  411TIP3    H1 1176   5.433   1.635   5.823
  411TIP3    H2 1177   5.461   1.520   5.728
  412TIP3   OH2 1178   0.708   0.317   5.960
  412TIP3    H1 1179   0.640   0.354   5.903
  412TIP3    H2 1180   0.781   0.299   5.901
  413TIP3   OH2 1181   0.535   2.935   3.023
  413TIP3    H1 1182   0.597   2.862   3.021
  413TIP3    H2 1183   0.450   2.897   3.001
  414TIP3   OH2 1184   5.017   1.040   6.069
  414TIP3    H1 1185   5.044   0.964   6.121
  414TIP3    H2 1186   4.978   1.099   6.133
  415TIP3   OH2 1187   4.655   6.438   1.741
  415TIP3    H1 1188   4.681   6.353   1.778
  415TIP3    H2 1189   4.564   6.449   1.769
  416TIP3   OH2 1190   6.264   0.783   5.856
  416TIP3    H1 1191   6.347   0.792   5.809
  416TIP3    H2 1192   6.249   0.688   5.860
  417TIP3   OH2 1193   5.427   5.210   1.994
  417TIP3    H1 1194   5.353   5.233   2.051
  417TIP3    H2 1195   5.450   5.120   2.020
  418TIP3   OH2 1196   2.004   4.542   4.126
  418TIP3    H1 1197   2.030   4.504   4.210
  418TIP3    H2 1198   2.015   4.471   4.063
  419TIP3   OH2 1199   0.536   6.399   5.840
  419TIP3    H1 1200   0.589   6.401   5.760
  419TIP3    H2 1201   0.542   6.309   5.870
  420TIP3   OH2 1202   5.206   1.512   2.324
  420TIP3    H1 1203   5.142   1.461   2.275
  420TIP3    H2 1204   5.265   1.547   2.257
  421TIP3   OH2 1205   3.432   2.777   0.885
  421TIP3    H1 1206   3.340   2.766   0.859
  421TIP3    H2 1207   3.449   2.704   0.944
  422TIP3   OH2 1208   3.576   3.368   2.572
  422TIP3    H1 1209   3.662   3.338   2.602
  422TIP3    H2 1210   3.594   3.428   2.500
  423TIP3   OH2 1211   5.566   5.797   6.141
  423TIP3    H1 1212   5.477   5.785   6.108
  423TIP3    H2 1213   5.616   5.827   6.065
  424TIP3   OH2 1214   0.189   0.944   5.628
  424TIP3    H1 1215   0.279   0.977   5.637
  424TIP3    H2 1216   0.199   0.849   5.618
  425TIP3   OH2 1217   1.887   6.335   4.400
  425TIP3    H1 1218   1.902   6.363   4.491
  425TIP3    H2 1219   1.970   6.351   4.356
  426TIP3   OH2 1220   3.694   1.800   5.199
  426TIP3    H1 1221   3.652   1.753   5.127
  426TIP3    H2 1222   3.667   1.753   5.278
  427TIP3   OH2 1223   2.364   3.987   5.083
  427TIP3    H1 1224   2.384   3.912   5.138
  427TIP3    H2 1225   2.317   3.950   5.008
  428TIP3   OH2 1226   1.605   1.294   2.765
  428TIP3    H1 1227   1.576   1.348   2.692
  428TIP3    H2 1228   1.548   1.319   2.838
  429TIP3   OH2 1229   7.711   1.345   4.554
  429TIP3    H1 1230   7.738   1.369   4.642
  429TIP3    H2 1231   7.738   1.420   4.500
  430TIP3   OH2 1232   3.116   2.637   2.082
  430TIP3    H1 1233   3.145   2.565   2.138
  430TIP3    H2 1234   3.032   2.607   2.046
  431TIP3   OH2 1235   5.326   1.716   0.485
  431TIP3    H1 1236   5.285   1.631   0.471
  431TIP3    H2 1237   5.419   1.697   0.494
  432TIP3   OH2 1238   1.613   5.221   2.816
  432TIP3    H1 1239   1.694   5.179   2.788
  432TIP3    H2 1240   1.585   5.272   2.741
  433TIP3   OH2 1241   2.234   1.814   4.854
  433TIP3    H1 1242   2.237   1.784   4.763
  433TIP3    H2 1243   2.308   1.770   4.896
  434TIP3   OH2 1244   5.423   5.384   4.842
  434TIP3    H1 1245   5.337   5.400   4.802
  434TIP3    H2 1246   5.471   5.466   4.831
  435TIP3   OH2 1247   6.791   4.571   4.751
  435TIP3    H1 1248   6.775   4.658   4.716
  435TIP3    H2 1249   6.740   4.512   4.695
  436TIP3   OH2 1250   6.550   6.620   4.013
  436TIP3    H1 1251   6.555   6.529   4.041
  436TIP3    H2 1252   6.539   6.670   4.094
  437TIP3   OH2 1253   1.274   5.849   1.063
  437TIP3    H1 1254   1.313   5.896   1.136
  437TIP3    H2 1255   1.214   5.911   1.023
  438TIP3   OH2 1256   4.859   7.307   1.292
  438TIP3    H1 1257   4.953   7.315   1.277
  438TIP3    H2 1258   4.852   7.258   1.374
  439TIP3   OH2 1259   2.170   6.476   6.465
  439TIP3    H1 1260   2.245   6.515   6.420
  439TIP3    H2 1261   2.207   6.440   6.546
  440TIP3   OH2 1262   5.236   0.699   1.538
  440TIP3    H1 1263   5.231   0.641   1.462
  440TIP3    H2 1264   5.227   0.787   1.502
  441TIP3   OH2 1265   7.260   7.671   1.069
  441TIP3    H1 1266   7.214   7.682   1.152
  441TIP3    H2 1267   7.191   7.658   1.004
  442TIP3   OH2 1268   3.109   7.644   0.954
  442TIP3    H1 1269   3.038   7.584   0.932
  442TIP3    H2 1270   3.081   7.728   0.919
  443TIP3   OH2 1271   2.840   0.355   3.905
  443TIP3    H1 1272   2.907   0.312   3.958
  443TIP3    H2 1273   2.758   0.316   3.935
  444TIP3   OH2 1274   3.134   6.393   1.658
  444TIP3    H1 1275   3.204   6.327   1.658
  444TIP3    H2 1276   3.056   6.344   1.685
  445TIP3   OH2 1277   6.203   7.444   3.793
  445TIP3    H1 1278   6.250   7.371   3.833
  445TIP3    H2 1279   6.160   7.406   3.717
  446TIP3   OH2 1280   5.874   4.142   0.087
  446TIP3    H1 1281   5.969   4.148   0.085
  446TIP3    H2 1282   5.849   4.119  -0.003
  447TIP3   OH2 1283   2.262   0.066   3.403
  447TIP3    H1 1284   2.330   0.032   3.461
  447TIP3    H2 1285   2.265   0.161   3.414
  448TIP3   OH2 1286   1.570   4.318   3.779
  448TIP3    H1 1287   1.523   4.318   3.696
  448TIP3    H2 1288   1.596   4.409   3.792
  449TIP3   OH2 1289   5.962   6.139   5.273
  449TIP3    H1 1290   5.879   6.167   5.236
  449TIP3    H2 1291   5.947   6.134   5.367
  450TIP3   OH2 1292   5.240   3.007   2.109
  450TIP3    H1 1293   5.164   3.065   2.114
  450TIP3    H2 1294   5.226   2.944   2.180
  451TIP3   OH2 1295   0.296   1.410   1.950
  451TIP3    H1 1296   0.252   1.470   1.890
  451TIP3    H2 1297   0.386   1.405   1.917
  452TIP3   OH2 1298   3.507   4.799   2.442
  452TIP3    H1 1299   3.499   4.711   2.407
  452TIP3    H2 1300   3.502   4.788   2.537
  453TIP3   OH2 1301   0.480   5.874   5.831
  453TIP3    H1 1302   0.572   5.848   5.834
  453TIP3    H2 1303   0.436   5.799   5.792
  454TIP3   OH2 1304   3.244   2.335   4.728
  454TIP3    H1 1305   3.322   2.296   4.689
  454TIP3    H2 1306   3.266   2.345   4.821
  455TIP3   OH2 1307   1.001   2.270   1.975
  455TIP3    H1 1308   1.018   2.187   2.020
  455TIP3    H2 1309   0.939   2.316   2.031
  456TIP3   OH2 1310   1.622   0.107   0.424
  456TIP3    H1 1311   1.664   0.068   0.501
  456TIP3    H2 1312   1.549   0.158   0.459
  457TIP3   OH2 1313   1.775   0.780   1.649
  457TIP3    H1 1314   1.822   0.862   1.640
  457TIP3    H2 1315   1.843   0.713   1.647
  458TIP3   OH2 1316   3.482   2.663   5.685
  458TIP3    H1 1317   3.392   2.679   5.712
  458TIP3    H2 1318   3.492   2.568   5.688
  459TIP3   OH2 1319   2.159   6.901   0.132
  459TIP3    H1 1320   2.097   6.831   0.153
  459TIP3    H2 1321   2.150   6.914   0.038
  460TIP3   OH2 1322   1.178   0.338   5.309
  460TIP3    H1 1323   1.135   0.422   5.327
  460TIP3    H2 1324   1.137   0.276   5.369
  461TIP3   OH2 1325   7.070   7.055   5.119
  461TIP3    H1 1326   7.074   6.983   5.055
  461TIP3    H2 1327   7.145   7.039   5.177
  462TIP3   OH2 1328   8.047   2.033   6.653
  462TIP3    H1 1329   7.989   2.101   6.685
  462TIP3    H2 1330   8.135   2.068   6.666
  463TIP3   OH2 1331   6.645   1.527   4.400
  463TIP3    H1 1332   6.572   1.588   4.413
  463TIP3    H2 1333   6.607   1.454   4.351
  464TIP3   OH2 1334   6.452   6.576   2.829
  464TIP3    H1 1335   6.539   6.615   2.835
  464TIP3    H2 1336   6.419   6.580   2.919
  465TIP3   OH2 1337   2.138   0.674   2.705
  465TIP3    H1 1338   2.063   0.716   2.747
  465TIP3    H2 1339   2.120   0.580   2.714
  466TIP3   OH2 1340   5.742   3.371   5.505
  466TIP3    H1 1341   5.746   3.381   5.410
  466TIP3    H2 1342   5.781   3.452   5.539
  467TIP3   OH2 1343   6.153   6.865   0.895
  467TIP3    H1 1344   6.202   6.891   0.817
  467TIP3    H2 1345   6.081   6.812   0.861
  468TIP3   OH2 1346   1.637   0.801   2.362
  468TIP3    H1 1347   1.704   0.858   2.326
  468TIP3    H2 1348   1.666   0.713   2.338
  469TIP3   OH2 1349   2.333   4.649   4.903
  469TIP3    H1 1350   2.238   4.640   4.899
  469TIP3    H2 1351   2.355   4.630   4.994
  470TIP3   OH2 1352   2.076   1.181   4.315
  470TIP3    H1 1353   2.122   1.230   4.247
  470TIP3    H2 1354   1.998   1.146   4.271
  471TIP3   OH2 1355   0.279   2.391   6.137
  471TIP3    H1 1356   0.354   2.332   6.132
  471TIP3    H2 1357   0.317   2.478   6.146
  472TIP3   OH2 1358   3.471   3.559   1.765
  472TIP3    H1 1359   3.416   3.588   1.838
  472TIP3    H2 1360   3.518   3.638   1.738
  473TIP3   OH2 1361   2.974   2.779   5.879
  473TIP3    H1 1362   2.968   2.692   5.840
  473TIP3    H2 1363   3.059   2.813   5.849
  474TIP3   OH2 1364   0.315   3.741   0.296
  474TIP3    H1 1365   0.315   3.836   0.284
  474TIP3    H2 1366   0.271   3.707   0.218
  475TIP3   OH2 1367   0.125   1.130   3.228
  475TIP3    H1 1368   0.048   1.165   3.183
  475TIP3    H2 1369   0.100   1.131   3.321
  476TIP3   OH2 1370   2.317   2.323   2.150
  476TIP3    H1 1371   2.361   2.401   2.185
  476TIP3    H2 1372   2.380   2.285   2.089
  477TIP3   OH2 1373   3.711   7.729   4.837
  477TIP3    H1 1374   3.802   7.758   4.828
  477TIP3    H2 1375   3.685   7.705   4.749
  478TIP3   OH2 1376   1.159   5.159   4.316
  478TIP3    H1 1377   1.103   5.205   4.254
  478TIP3    H2 1378   1.131   5.190   4.402
  479TIP3   OH2 1379   4.415   5.269   3.795
  479TIP3    H1 1380   4.404   5.193   3.851
  479TIP3    H2 1381   4.481   5.242   3.731
  480TIP3   OH2 1382   5.887   2.972   2.120
  480TIP3    H1 1383   5.920   2.885   2.142
  480TIP3    H2 1384   5.949   3.005   2.054
  481TIP3   OH2 1385   3.134   3.213   6.499
  481TIP3    H1 1386   3.141   3.237   6.591
  481TIP3    H2 1387   3.211   3.254   6.458
  482TIP3   OH2 1388   5.208   4.504   2.758
  482TIP3    H1 1389   5.175   4.415   2.771
  482TIP3    H2 1390   5.155   4.558   2.816
  483TIP3   OH2 1391   2.593   4.065   5.295
  483TIP3    H1 1392   2.529   4.021   5.351
  483TIP3    H2 1393   2.551   4.148   5.272
  484TIP3   OH2 1394   2.366   1.630   5.214
  484TIP3    H1 1395   2.310   1.614   5.139
  484TIP3    H2 1396   2.306   1.652   5.285
  485TIP3   OH2 1397   4.200   5.232   1.534
  485TIP3    H1 1398   4.213   5.138   1.524
  485TIP3    H2 1399   4.270   5.260   1.593
  486TIP3   OH2 1400   2.202   3.831   4.954
  486TIP3    H1 1401   2.185   3.770   4.883
  486TIP3    H2 1402   2.116   3.847   4.993
  487TIP3   OH2 1403   2.034   4.641   1.379
  487TIP3    H1 1404   2.019   4.724   1.334
  487TIP3    H2 1405   2.033   4.575   1.310
  488TIP3   OH2 1406   6.847   5.916   1.203
  488TIP3    H1 1407   6.880   5.982   1.264
  488TIP3    H2 1408   6.831   5.963   1.121
  489TIP3   OH2 1409   1.592   5.471   2.655
  489TIP3    H1 1410   1.573   5.539   2.592
  489TIP3    H2 1411   1.520   5.477   2.719
  490TIP3   OH2 1412   6.015   6.114   1.326
  490TIP3    H1 1413   6.036   6.166   1.248
  490TIP3    H2 1414   6.048   6.026   1.306
  491TIP3   OH2 1415   6.354   4.537   2.722
  491TIP3    H1 1416   6.381   4.600   2.788
  491TIP3    H2 1417   6.377   4.451   2.759
  492TIP3   OH2 1418   6.357   3.296   5.818
  492TIP3    H1 1419   6.452   3.305   5.805
  492TIP3    H2 1420   6.349   3.243   5.897
  493TIP3   OH2 1421   3.634   7.529   0.923
  493TIP3    H1 1422   3.606   7.460   0.863
  493TIP3    H2 1423   3.720   7.556   0.890
  494TIP3   OH2 1424   0.424   5.252   5.056
  494TIP3    H1 1425   0.445   5.289   4.971
  494TIP3    H2 1426   0.389   5.165   5.036
  495TIP3   OH2 1427   3.043   4.210   1.994
  495TIP3    H1 1428   3.004   4.145   2.053
  495TIP3    H2 1429   3.117   4.245   2.043
  496TIP3   OH2 1430   0.538   2.814   5.525
  496TIP3    H1 1431   0.556   2.773   5.610
  496TIP3    H2 1432   0.469   2.760   5.486
  497TIP3   OH2 1433   3.333   7.056   6.347
  497TIP3    H1 1434   3.402   7.050   6.413
  497TIP3    H2 1435   3.375   7.028   6.265
  498TIP3   OH2 1436   7.608   3.570   2.636
  498TIP3    H1 1437   7.617   3.494   2.694
  498TIP3    H2 1438   7.696   3.584   2.601
  499TIP3   OH2 1439   6.465   3.531   6.014
  499TIP3    H1 1440   6.540   3.497   5.964
  499TIP3    H2 1441   6.444   3.460   6.075
  500TIP3   OH2 1442   7.547   0.494   0.922
  500TIP3    H1 1443   7.462   0.516   0.961
  500TIP3    H2 1444   7.595   0.577   0.920
  501TIP3   OH2 1445   7.421   2.996   1.680
  501TIP3    H1 1446   7.431   3.065   1.745
  501TIP3    H2 1447   7.326   2.986   1.670
  502TIP3   OH2 1448   7.099   6.787   0.069
  502TIP3    H1 1449   7.179   6.836   0.052
  502TIP3    H2 1450   7.035   6.822   0.007
  503TIP3   OH2 1451   1.567   1.540   6.719
  503TIP3    H1 1452   1.633   1.596   6.759
  503TIP3    H2 1453   1.529   1.594   6.649
  504TIP3   OH2 1454   7.846   2.523   5.599
  504TIP3    H1 1455   7.924   2.468   5.598
  504TIP3    H2 1456   7.796   2.494   5.676
  505TIP3   OH2 1457   8.047   1.668   4.330
  505TIP3    H1 1458   8.043   1.752   4.376
  505TIP3    H2 1459   7.980   1.614   4.372
  506TIP3   OH2 1460   0.590   0.205   5.644
  506TIP3    H1 1461   0.638   0.276   5.599
  506TIP3    H2 1462   0.526   0.251   5.698
  507TIP3   OH2 1463   1.922   6.450   3.710
  507TIP3    H1 1464   1.944   6.530   3.664
  507TIP3    H2 1465   1.829   6.459   3.731
  508TIP3   OH2 1466   5.256   0.585   4.932
  508TIP3    H1 1467   5.260   0.612   4.840
  508TIP3    H2 1468   5.171   0.542   4.941
  509TIP3   OH2 1469   2.162   1.371   3.835
  509TIP3    H1 1470   2.129   1.435   3.772
  509TIP3    H2 1471   2.255   1.360   3.813
  510TIP3   OH2 1472   6.698   7.767   4.385
  510TIP3    H1 1473   6.680   7.708   4.458
  510TIP3    H2 1474   6.628   7.749   4.321
  511TIP3   OH2 1475   0.705   0.318   0.206
  511TIP3    H1 1476   0.748   0.241   0.168
  511TIP3    H2 1477   0.748   0.393   0.164
  512TIP3   OH2 1478   3.386   2.895   0.251
  512TIP3    H1 1479   3.373   2.941   0.333
  512TIP3    H2 1480   3.481   2.887   0.243
  513TIP3   OH2 1481   6.582   5.073   4.637
  513TIP3    H1 1482   6.500   5.108   4.602
  513TIP3    H2 1483   6.651   5.118   4.587
  514TIP3   OH2 1484   3.971   4.588   5.334
  514TIP3    H1 1485   4.032   4.566   5.263
  514TIP3    H2 1486   3.889   4.610   5.289
  515TIP3   OH2 1487   7.316   7.402   3.015
  515TIP3    H1 1488   7.410   7.384   3.021
  515TIP3    H2 1489   7.279   7.356   3.090
  516TIP3   OH2 1490   1.704   6.930   2.625
  516TIP3    H1 1491   1.678   7.022   2.628
  516TIP3    H2 1492   1.787   6.930   2.576
  517TIP3   OH2 1493   4.102   5.274   2.961
  517TIP3    H1 1494   4.047   5.199   2.940
  517TIP3    H2 1495   4.190   5.238   2.967
  518TIP3   OH2 1496   5.553   0.951   4.508
  518TIP3    H1 1497   5.588   0.862   4.508
  518TIP3    H2 1498   5.463   0.942   4.479
  519TIP3   OH2 1499   1.213   3.033   2.113
  519TIP3    H1 1500   1.145   3.084   2.158
  519TIP3    H2 1501   1.249   2.976   2.181
  520TIP3   OH2 1502   1.148   7.712   6.406
  520TIP3    H1 1503   1.188   7.758   6.333
  520TIP3    H2 1504   1.126   7.625   6.371
  521TIP3   OH2 1505   1.872   2.438   0.038
  521TIP3    H1 1506   1.824   2.409  -0.039
  521TIP3    H2 1507   1.959   2.461   0.005
  522TIP3   OH2 1508   4.909   6.251   3.254
  522TIP3    H1 1509   4.929   6.181   3.193
  522TIP3    H2 1510   4.898   6.329   3.199
  523TIP3   OH2 1511   3.888   1.709   3.957
  523TIP3    H1 1512   3.823   1.642   3.973
  523TIP3    H2 1513   3.948   1.670   3.893
  524TIP3   OH2 1514   4.904   3.270   2.881
  524TIP3    H1 1515   4.862   3.254   2.797
  524TIP3    H2 1516   4.916   3.182   2.918
  525TIP3   OH2 1517   8.011   6.913   3.432
  525TIP3    H1 1518   8.103   6.891   3.450
  525TIP3    H2 1519   7.961   6.864   3.497
  526TIP3   OH2 1520   6.998   0.321   5.757
  526TIP3    H1 1521   6.969   0.229   5.753
  526TIP3    H2 1522   7.056   0.331   5.681
  527TIP3   OH2 1523   0.294   0.243   4.413
  527TIP3    H1 1524   0.296   0.314   4.349
  527TIP3    H2 1525   0.290   0.163   4.359
  528TIP3   OH2 1526   2.600   5.105   3.915
  528TIP3    H1 1527   2.520   5.081   3.868
  528TIP3    H2 1528   2.654   5.025   3.912
  529TIP3   OH2 1529   7.745   4.760   5.878
  529TIP3    H1 1530   7.792   4.754   5.961
  529TIP3    H2 1531   7.814   4.765   5.812
  530TIP3   OH2 1532   3.815   4.966   0.462
  530TIP3    H1 1533   3.772   4.881   0.453
  530TIP3    H2 1534   3.909   4.945   0.463
  531TIP3   OH2 1535   4.969   0.718   5.053
  531TIP3    H1 1536   5.019   0.751   5.127
  531TIP3    H2 1537   5.020   0.743   4.976
  532TIP3   OH2 1538   7.244   4.077   4.232
  532TIP3    H1 1539   7.158   4.061   4.195
  532TIP3    H2 1540   7.244   4.030   4.316
  533TIP3   OH2 1541   6.353   3.232   3.586
  533TIP3    H1 1542   6.441   3.256   3.616
  533TIP3    H2 1543   6.312   3.192   3.663
  534TIP3   OH2 1544   4.412   2.726   5.361
  534TIP3    H1 1545   4.435   2.811   5.324
  534TIP3    H2 1546   4.492   2.696   5.404
  535TIP3   OH2 1547   8.024   2.644   1.477
  535TIP3    H1 1548   8.083   2.596   1.419
  535TIP3    H2 1549   7.943   2.594   1.475
  536TIP3   OH2 1550   5.509   1.245   0.354
  536TIP3    H1 1551   5.569   1.312   0.387
  536TIP3    H2 1552   5.437   1.296   0.315
  537TIP3   OH2 1553   5.848   5.133   2.219
  537TIP3    H1 1554   5.833   5.214   2.268
  537TIP3    H2 1555   5.763   5.114   2.178
  538TIP3   OH2 1556   1.090   7.110   5.144
  538TIP3    H1 1557   1.166   7.112   5.085
  538TIP3    H2 1558   1.126   7.084   5.228
  539TIP3   OH2 1559   4.079   6.396   0.573
  539TIP3    H1 1560   4.044   6.474   0.616
  539TIP3    H2 1561   4.088   6.423   0.481
  540TIP3   OH2 1562   1.636   1.112   4.245
  540TIP3    H1 1563   1.632   1.201   4.209
  540TIP3    H2 1564   1.545   1.083   4.245
  541TIP3   OH2 1565   5.206   0.411   1.378
  541TIP3    H1 1566   5.116   0.392   1.405
  541TIP3    H2 1567   5.197   0.466   1.301
  542TIP3   OH2 1568   4.721   6.610   3.336
  542TIP3    H1 1569   4.773   6.627   3.415
  542TIP3    H2 1570   4.677   6.527   3.353
  543TIP3   OH2 1571   3.391   1.597   1.508
  543TIP3    H1 1572   3.297   1.587   1.490
  543TIP3    H2 1573   3.401   1.562   1.597
  544TIP3   OH2 1574   7.811   5.779   3.979
  544TIP3    H1 1575   7.902   5.749   3.980
  544TIP3    H2 1576   7.788   5.791   4.071
  545TIP3   OH2 1577   2.329   4.966   3.786
  545TIP3    H1 1578   2.291   4.878   3.789
  545TIP3    H2 1579   2.396   4.960   3.718
  546TIP3   OH2 1580   0.540   2.942   4.644
  546TIP3    H1 1581   0.547   2.983   4.731
  546TIP3    H2 1582   0.468   2.988   4.601
  547TIP3   OH2 1583   6.929   7.802   0.157
  547TIP3    H1 1584   7.004   7.819   0.213
  547TIP3    H2 1585   6.902   7.888   0.125
  548TIP3   OH2 1586   2.203   1.444   1.222
  548TIP3    H1 1587   2.264   1.486   1.161
  548TIP3    H2 1588   2.117   1.467   1.189
  549TIP3   OH2 1589   2.244   3.602   3.784
  549TIP3    H1 1590   2.259   3.695   3.770
  549TIP3    H2 1591   2.301   3.558   3.721
  550TIP3   OH2 1592   5.527   6.864   4.864
  550TIP3    H1 1593   5.494   6.941   4.910
  550TIP3    H2 1594   5.459   6.797   4.877
  551TIP3   OH2 1595   0.514   3.489   2.255
  551TIP3    H1 1596   0.505   3.472   2.162
  551TIP3    H2 1597   0.591   3.546   2.262
  552TIP3   OH2 1598   1.083   2.426   0.894
  552TIP3    H1 1599   1.067   2.514   0.929
  552TIP3    H2 1600   1.019   2.416   0.823
  553TIP3   OH2 1601   2.977   6.681   1.893
  553TIP3    H1 1602   2.968   6.634   1.976
  553TIP3    H2 1603   3.056   6.645   1.853
  554TIP3   OH2 1604   2.826   6.298   0.174
  554TIP3    H1 1605   2.797   6.213   0.206
  554TIP3    H2 1606   2.748   6.336   0.134
  555TIP3   OH2 1607   2.655   7.526   1.724
  555TIP3    H1 1608   2.616   7.559   1.805
  555TIP3    H2 1609   2.612   7.442   1.709
  556TIP3   OH2 1610   2.693   0.764   0.096
  556TIP3    H1 1611   2.668   0.763   0.189
  556TIP3    H2 1612   2.713   0.673   0.076
  557TIP3   OH2 1613   6.912   2.107   0.442
  557TIP3    H1 1614   6.942   2.133   0.355
  557TIP3    H2 1615   6.880   2.018   0.430
  558TIP3   OH2 1616   6.502   3.110   1.377
  558TIP3    H1 1617   6.453   3.048   1.432
  558TIP3    H2 1618   6.504   3.191   1.429
  559TIP3   OH2 1619   7.768   3.728   0.975
  559TIP3    H1 1620   7.702   3.793   0.998
  559TIP3    H2 1621   7.724   3.669   0.914
  560TIP3   OH2 1622   8.094   7.793   4.258
  560TIP3    H1 1623   8.165   7.834   4.309
  560TIP3    H2 1624   8.024   7.778   4.321
  561TIP3   OH2 1625   5.844   1.055   0.533
  561TIP3    H1 1626   5.786   1.127   0.559
  561TIP3    H2 1627   5.921   1.066   0.588
  562TIP3   OH2 1628   3.347   1.643   4.021
  562TIP3    H1 1629   3.347   1.737   4.036
  562TIP3    H2 1630   3.261   1.625   3.983
  563TIP3   OH2 1631   0.163   5.228   1.146
  563TIP3    H1 1632   0.247   5.269   1.125
  563TIP3    H2 1633   0.144   5.259   1.234
  564TIP3   OH2 1634   6.069   3.313   4.344
  564TIP3    H1 1635   6.134   3.376   4.375
  564TIP3    H2 1636   6.012   3.364   4.286
  565TIP3   OH2 1637   5.427   4.618   1.088
  565TIP3    H1 1638   5.456   4.619   0.997
  565TIP3    H2 1639   5.373   4.697   1.097
  566TIP3   OH2 1640   4.942   3.996   2.925
  566TIP3    H1 1641   4.902   3.916   2.892
  566TIP3    H2 1642   4.967   4.045   2.847
  567TIP3   OH2 1643   0.859   1.965   5.007
  567TIP3    H1 1644   0.871   2.043   4.953
  567TIP3    H2 1645   0.776   1.928   4.978
  568TIP3   OH2 1646   3.516   6.253   6.746
  568TIP3    H1 1647   3.481   6.168   6.721
  568TIP3    H2 1648   3.465   6.278   6.823
  569TIP3   OH2 1649   1.720   7.783   3.882
  569TIP3    H1 1650   1.726   7.805   3.790
  569TIP3    H2 1651   1.670   7.702   3.885
  570TIP3   OH2 1652   7.828   1.083   0.830
  570TIP3    H1 1653   7.871   1.010   0.785
  570TIP3    H2 1654   7.842   1.158   0.772
  571TIP3   OH2 1655   7.602   3.215   3.557
  571TIP3    H1 1656   7.520   3.171   3.578
  571TIP3    H2 1657   7.646   3.225   3.642
  572TIP3   OH2 1658   5.437   7.535   4.809
  572TIP3    H1 1659   5.528   7.565   4.804
  572TIP3    H2 1660   5.410   7.526   4.718
  573TIP3   OH2 1661   5.716   1.016   4.089
  573TIP3    H1 1662   5.712   0.932   4.042
  573TIP3    H2 1663   5.809   1.039   4.089
  574TIP3   OH2 1664   1.292   3.761   3.386
  574TIP3    H1 1665   1.269   3.772   3.294
  574TIP3    H2 1666   1.224   3.809   3.434
  575TIP3   OH2 1667   5.805   0.693   5.426
  575TIP3    H1 1668   5.772   0.650   5.505
  575TIP3    H2 1669   5.853   0.624   5.380
  576TIP3   OH2 1670   3.232   6.338   2.943
  576TIP3    H1 1671   3.145   6.373   2.960
  576TIP3    H2 1672   3.246   6.352   2.849
  577TIP3   OH2 1673   0.770   0.840   0.274
  577TIP3    H1 1674   0.771   0.755   0.320
  577TIP3    H2 1675   0.863   0.862   0.264
  578TIP3   OH2 1676   7.383   0.392   2.137
  578TIP3    H1 1677   7.404   0.428   2.223
  578TIP3    H2 1678   7.298   0.430   2.115
  579TIP3   OH2 1679   1.862   2.291   2.259
  579TIP3    H1 1680   1.826   2.298   2.171
  579TIP3    H2 1681   1.936   2.353   2.259
  580TIP3   OH2 1682   6.052   0.895   1.219
  580TIP3    H1 1683   6.003   0.840   1.280
  580TIP3    H2 1684   6.009   0.980   1.224
  581TIP3   OH2 1685   2.266   3.345   5.543
  581TIP3    H1 1686   2.226   3.327   5.458
  581TIP3    H2 1687   2.250   3.266   5.595
  582TIP3   OH2 1688   1.027   1.766   1.385
  582TIP3    H1 1689   1.036   1.842   1.326
  582TIP3    H2 1690   0.945   1.782   1.432
  583TIP3   OH2 1691   5.858   5.849   4.612
  583TIP3    H1 1692   5.915   5.835   4.687
  583TIP3    H2 1693   5.845   5.762   4.575
  584TIP3   OH2 1694   3.074   1.764   4.909
  584TIP3    H1 1695   3.035   1.846   4.880
  584TIP3    H2 1696   3.007   1.722   4.963
  585TIP3   OH2 1697   3.246   5.102   4.460
  585TIP3    H1 1698   3.245   5.032   4.395
  585TIP3    H2 1699   3.167   5.088   4.512
  586TIP3   OH2 1700   6.356   1.384   2.696
  586TIP3    H1 1701   6.411   1.309   2.719
  586TIP3    H2 1702   6.279   1.344   2.655
  587TIP3   OH2 1703   4.106   6.502   6.410
  587TIP3    H1 1704   4.084   6.544   6.494
  587TIP3    H2 1705   4.050   6.545   6.346
  588TIP3   OH2 1706   7.701   6.702   5.411
  588TIP3    H1 1707   7.780   6.714   5.463
  588TIP3    H2 1708   7.732   6.663   5.329
  589TIP3   OH2 1709   6.070   4.287   6.680
  589TIP3    H1 1710   6.069   4.359   6.743
  589TIP3    H2 1711   6.140   4.310   6.619
  590TIP3   OH2 1712   1.962   1.095   5.298
  590TIP3    H1 1713   1.907   1.045   5.237
  590TIP3    H2 1714   2.010   1.156   5.242
  591TIP3   OH2 1715   0.792   0.982   5.147
  591TIP3    H1 1716   0.778   0.929   5.069
  591TIP3    H2 1717   0.833   1.063   5.115
  592TIP3   OH2 1718   4.294   6.966   0.947
  592TIP3    H1 1719   4.373   6.992   0.994
  592TIP3    H2 1720   4.324   6.906   0.879
  593TIP3   OH2 1721   4.384   1.342   1.989
  593TIP3    H1 1722   4.381   1.264   1.934
  593TIP3    H2 1723   4.343   1.410   1.936
  594TIP3   OH2 1724   2.655   3.192   5.020
  594TIP3    H1 1725   2.613   3.271   5.056
  594TIP3    H2 1726   2.638   3.124   5.085
  595TIP3   OH2 1727   0.439   1.580   1.133
  595TIP3    H1 1728   0.406   1.513   1.073
  595TIP3    H2 1729   0.370   1.647   1.133
  596TIP3   OH2 1730   6.616   5.775   0.337
  596TIP3    H1 1731   6.631   5.773   0.431
  596TIP3    H2 1732   6.703   5.762   0.299
  597TIP3   OH2 1733   1.668   5.592   1.800
  597TIP3    H1 1734   1.716   5.545   1.868
  597TIP3    H2 1735   1.715   5.572   1.719
  598TIP3   OH2 1736   7.738   3.203   0.432
  598TIP3    H1 1737   7.650   3.167   0.438
  598TIP3    H2 1738   7.734   3.286   0.479
  599TIP3   OH2 1739   1.729   5.075   5.758
  599TIP3    H1 1740   1.801   5.076   5.821
  599TIP3    H2 1741   1.698   4.984   5.758
  600TIP3   OH2 1742   3.415   4.647   2.071
  600TIP3    H1 1743   3.417   4.737   2.039
  600TIP3    H2 1744   3.343   4.606   2.024
  601TIP3   OH2 1745   5.854   2.890   4.257
  601TIP3    H1 1746   5.901   2.808   4.240
  601TIP3    H2 1747   5.909   2.957   4.218
  602TIP3   OH2 1748   4.046   2.092   6.305
  602TIP3    H1 1749   4.089   2.015   6.344
  602TIP3    H2 1750   4.094   2.106   6.223
  603TIP3   OH2 1751   6.344   5.544   3.700
  603TIP3    H1 1752   6.293   5.481   3.648
  603TIP3    H2 1753   6.317   5.526   3.791
  604TIP3   OH2 1754   0.823   2.236   3.139
  604TIP3    H1 1755   0.745   2.269   3.185
  604TIP3    H2 1756   0.813   2.141   3.141
  605TIP3   OH2 1757   2.715   1.165   6.246
  605TIP3    H1 1758   2.642   1.202   6.296
  605TIP3    H2 1759   2.793   1.199   6.289
  606TIP3   OH2 1760   0.402   4.119   2.382
  606TIP3    H1 1761   0.412   4.214   2.371
  606TIP3    H2 1762   0.424   4.083   2.296
  607TIP3   OH2 1763   4.199   5.144   3.420
  607TIP3    H1 1764   4.288   5.178   3.429
  607TIP3    H2 1765   4.177   5.112   3.508
  608TIP3   OH2 1766   7.308   6.953   6.515
  608TIP3    H1 1767   7.392   6.982   6.481
  608TIP3    H2 1768   7.262   6.917   6.438
  609TIP3   OH2 1769   7.068   2.445   6.231
  609TIP3    H1 1770   7.025   2.526   6.203
  609TIP3    H2 1771   7.018   2.416   6.307
  610TIP3   OH2 1772   7.202   2.809   5.969
  610TIP3    H1 1773   7.189   2.807   6.064
  610TIP3    H2 1774   7.236   2.897   5.952
  611TIP3   OH2 1775   3.332   1.018   2.756
  611TIP3    H1 1776   3.301   1.016   2.847
  611TIP3    H2 1777   3.403   0.953   2.754
  612TIP3   OH2 1778   1.998   6.902   2.162
  612TIP3    H1 1779   1.907   6.889   2.186
  612TIP3    H2 1780   2.017   6.832   2.099
  613TIP3   OH2 1781   8.283  -0.025   4.395
  613TIP3    H1 1782   8.264   0.050   4.452
  613TIP3    H2 1783   8.371  -0.053   4.421
  614TIP3   OH2 1784   6.025   7.431   5.675
  614TIP3    H1 1785   6.016   7.472   5.762
  614TIP3    H2 1786   6.114   7.453   5.648
  615TIP3   OH2 1787   3.714   5.034   0.719
  615TIP3    H1 1788   3.792   5.021   0.773
  615TIP3    H2 1789   3.748   5.043   0.630
  616TIP3   OH2 1790   7.457   1.970   5.243
  616TIP3    H1 1791   7.495   1.944   5.159
  616TIP3    H2 1792   7.376   1.919   5.250
  617TIP3   OH2 1793   5.297   7.205   3.186
  617TIP3    H1 1794   5.247   7.236   3.110
  617TIP3    H2 1795   5.231   7.186   3.253
  618TIP3   OH2 1796   6.096   3.550   5.023
  618TIP3    H1 1797   6.147   3.581   4.949
  618TIP3    H2 1798   6.016   3.602   5.021
  619TIP3   OH2 1799   6.587   0.650   1.568
  619TIP3    H1 1800   6.635   0.586   1.621
  619TIP3    H2 1801   6.655   0.696   1.519
  620TIP3   OH2 1802   8.121   2.968   5.731
  620TIP3    H1 1803   8.150   2.887   5.772
  620TIP3    H2 1804   8.109   3.029   5.804
  621TIP3   OH2 1805   4.322   4.005   1.965
  621TIP3    H1 1806   4.404   3.988   2.011
  621TIP3    H2 1807   4.319   3.937   1.897
  622TIP3   OH2 1808   7.089   5.907   4.078
  622TIP3    H1 1809   7.086   5.962   4.156
  622TIP3    H2 1810   7.081   5.817   4.112
  623TIP3   OH2 1811   5.529   0.875   0.193
  623TIP3    H1 1812   5.602   0.917   0.238
  623TIP3    H2 1813   5.513   0.930   0.116
  624TIP3   OH2 1814   6.256   4.354   4.494
  624TIP3    H1 1815   6.296   4.422   4.549
  624TIP3    H2 1816   6.234   4.284   4.555
  625TIP3   OH2 1817   0.011   5.598   2.404
  625TIP3    H1 1818  -0.049   5.615   2.477
  625TIP3    H2 1819  -0.021   5.653   2.333
  626TIP3   OH2 1820   7.407   0.887   0.956
  626TIP3    H1 1821   7.344   0.842   0.900
  626TIP3    H2 1822   7.359   0.962   0.991
  627TIP3   OH2 1823   2.261   0.197   2.791
  627TIP3    H1 1824   2.291   0.252   2.864
  627TIP3    H2 1825   2.226   0.119   2.833
  628TIP3   OH2 1826   1.865   4.653   4.734
  628TIP3    H1 1827   1.770   4.652   4.721
  628TIP3    H2 1828   1.901   4.642   4.646
  629TIP3   OH2 1829   2.680   4.667   4.302
  629TIP3    H1 1830   2.637   4.693   4.221
  629TIP3    H2 1831   2.618   4.606   4.343
  630TIP3   OH2 1832   2.053   7.623   6.189
  630TIP3    H1 1833   1.966   7.592   6.215
  630TIP3    H2 1834   2.036   7.680   6.113
  631TIP3   OH2 1835   8.150   5.936   6.592
  631TIP3    H1 1836   8.059   5.933   6.622
  631TIP3    H2 1837   8.173   6.028   6.596
  632TIP3   OH2 1838   7.455   5.414   6.458
  632TIP3    H1 1839   7.534   5.462   6.434
  632TIP3    H2 1840   7.412   5.469   6.523
  633TIP3   OH2 1841   0.977   6.465   4.984
  633TIP3    H1 1842   0.935   6.460   4.898
  633TIP3    H2 1843   1.046   6.531   4.974
  634TIP3   OH2 1844   2.460   5.429   1.955
  634TIP3    H1 1845   2.524   5.496   1.928
  634TIP3    H2 1846   2.375   5.470   1.940
  635TIP3   OH2 1847   2.107   4.332   1.875
  635TIP3    H1 1848   2.187   4.381   1.856
  635TIP3    H2 1849   2.037   4.380   1.832
  636TIP3   OH2 1850   5.142   4.185   1.613
  636TIP3    H1 1851   5.229   4.221   1.595
  636TIP3    H2 1852   5.136   4.185   1.709
  637TIP3   OH2 1853   6.889   6.374   2.589
  637TIP3    H1 1854   6.862   6.306   2.527
  637TIP3    H2 1855   6.882   6.456   2.540
  638TIP3   OH2 1856   1.989   4.111   3.095
  638TIP3    H1 1857   1.896   4.093   3.082
  638TIP3    H2 1858   2.032   4.026   3.079
  639TIP3   OH2 1859   6.575   2.826   1.481
  639TIP3    H1 1860   6.645   2.775   1.522
  639TIP3    H2 1861   6.498   2.771   1.487
  640TIP3   OH2 1862   7.034   5.846   4.521
  640TIP3    H1 1863   7.123   5.873   4.497
  640TIP3    H2 1864   7.046   5.767   4.575
  641TIP3   OH2 1865   7.884   0.657   1.052
  641TIP3    H1 1866   7.846   0.727   0.998
  641TIP3    H2 1867   7.953   0.619   0.997
  642TIP3   OH2 1868   5.784   4.501   3.760
  642TIP3    H1 1869   5.863   4.453   3.782
  642TIP3    H2 1870   5.718   4.470   3.823
  643TIP3   OH2 1871   7.908   5.423   4.062
  643TIP3    H1 1872   7.955   5.346   4.032
  643TIP3    H2 1873   7.952   5.496   4.019
  644TIP3   OH2 1874   7.830   5.443   2.632
  644TIP3    H1 1875   7.866   5.492   2.559
  644TIP3    H2 1876   7.803   5.359   2.595
  645TIP3   OH2 1877   6.389   7.403   0.641
  645TIP3    H1 1878   6.432   7.333   0.592
  645TIP3    H2 1879   6.379   7.368   0.729
  646TIP3   OH2 1880   4.511   7.844   1.257
  646TIP3    H1 1881   4.492   7.754   1.230
  646TIP3    H2 1882   4.596   7.864   1.217
  647TIP3   OH2 1883   4.884   0.639   2.709
  647TIP3    H1 1884   4.952   0.575   2.729
  647TIP3    H2 1885   4.903   0.713   2.766
  648TIP3   OH2 1886   0.583   5.371   1.527
  648TIP3    H1 1887   0.627   5.432   1.467
  648TIP3    H2 1888   0.588   5.286   1.482
  649TIP3   OH2 1889   5.793   3.453   3.529
  649TIP3    H1 1890   5.889   3.460   3.529
  649TIP3    H2 1891   5.764   3.534   3.487
  650TIP3   OH2 1892   3.676   4.595   2.088
  650TIP3    H1 1893   3.729   4.675   2.095
  650TIP3    H2 1894   3.587   4.623   2.108
  651TIP3   OH2 1895   0.520   0.662   5.114
  651TIP3    H1 1896   0.533   0.722   5.041
  651TIP3    H2 1897   0.433   0.624   5.099
  652TIP3   OH2 1898   4.518   0.941   2.683
  652TIP3    H1 1899   4.476   0.906   2.605
  652TIP3    H2 1900   4.574   1.013   2.651
  653TIP3   OH2 1901   4.623   4.905   2.683
  653TIP3    H1 1902   4.579   4.906   2.598
  653TIP3    H2 1903   4.698   4.847   2.671
  654TIP3   OH2 1904   7.338   4.293   0.504
  654TIP3    H1 1905   7.345   4.208   0.547
  654TIP3    H2 1906   7.418   4.300   0.451
  655TIP3   OH2 1907   3.396   1.856   6.597
  655TIP3    H1 1908   3.472   1.904   6.563
  655TIP3    H2 1909   3.351   1.919   6.653
  656TIP3   OH2 1910   2.594   3.927   5.978
  656TIP3    H1 1911   2.539   4.004   5.991
  656TIP3    H2 1912   2.540   3.854   6.009
  657TIP3   OH2 1913   8.100   7.749   1.976
  657TIP3    H1 1914   8.086   7.793   2.060
  657TIP3    H2 1915   8.159   7.807   1.928
  658TIP3   OH2 1916   4.345   3.772   3.578
  658TIP3    H1 1917   4.373   3.797   3.666
  658TIP3    H2 1918   4.408   3.704   3.551
  659TIP3   OH2 1919   1.955   6.633   1.298
  659TIP3    H1 1920   1.988   6.564   1.356
  659TIP3    H2 1921   1.938   6.707   1.357
  660TIP3   OH2 1922   6.888   3.638   0.841
  660TIP3    H1 1923   6.815   3.579   0.860
  660TIP3    H2 1924   6.953   3.582   0.798
  661TIP3   OH2 1925   4.689   0.861   6.633
  661TIP3    H1 1926   4.662   0.948   6.605
  661TIP3    H2 1927   4.710   0.871   6.726
  662TIP3   OH2 1928   2.392   4.943   5.780
  662TIP3    H1 1929   2.386   4.860   5.732
  662TIP3    H2 1930   2.466   4.989   5.740
  663TIP3   OH2 1931   1.748   1.920   4.147
  663TIP3    H1 1932   1.666   1.872   4.142
  663TIP3    H2 1933   1.783   1.918   4.058
  664TIP3   OH2 1934   6.928   4.832   1.859
  664TIP3    H1 1935   6.834   4.827   1.844
  664TIP3    H2 1936   6.943   4.779   1.938
  665TIP3   OH2 1937   7.442   3.456   1.735
  665TIP3    H1 1938   7.453   3.551   1.741
  665TIP3    H2 1939   7.359   3.444   1.690
  666TIP3   OH2 1940   6.765   2.863   2.848
  666TIP3    H1 1941   6.702   2.833   2.912
  666TIP3    H2 1942   6.767   2.794   2.781
  667TIP3   OH2 1943   5.629   4.228   1.392
  667TIP3    H1 1944   5.613   4.306   1.338
  667TIP3    H2 1945   5.724   4.225   1.403
  668TIP3   OH2 1946   1.686   4.940   0.136
  668TIP3    H1 1947   1.628   4.922   0.210
  668TIP3    H2 1948   1.772   4.912   0.166
  669TIP3   OH2 1949   7.788   4.989   0.396
  669TIP3    H1 1950   7.702   4.994   0.355
  669TIP3    H2 1951   7.790   5.063   0.457
  670TIP3   OH2 1952   6.323   3.731   2.937
  670TIP3    H1 1953   6.330   3.699   2.847
  670TIP3    H2 1954   6.413   3.726   2.971
  671TIP3   OH2 1955   1.596   4.188   1.153
  671TIP3    H1 1956   1.568   4.173   1.063
  671TIP3    H2 1957   1.578   4.280   1.169
  672TIP3   OH2 1958   2.722   7.219   5.415
  672TIP3    H1 1959   2.726   7.301   5.366
  672TIP3    H2 1960   2.807   7.178   5.401
  673TIP3   OH2 1961   1.989   1.380   5.754
  673TIP3    H1 1962   2.043   1.458   5.769
  673TIP3    H2 1963   1.947   1.363   5.838
  674TIP3   OH2 1964   0.548   2.576   0.089
  674TIP3    H1 1965   0.528   2.524   0.011
  674TIP3    H2 1966   0.462   2.594   0.127
  675TIP3   OH2 1967   0.387   4.122   4.980
  675TIP3    H1 1968   0.385   4.152   4.889
  675TIP3    H2 1969   0.296   4.102   5.001
  676TIP3   OH2 1970   8.140   6.241   4.991
  676TIP3    H1 1971   8.078   6.175   4.959
  676TIP3    H2 1972   8.126   6.243   5.086
  677TIP3   OH2 1973   6.117   0.021   0.146
  677TIP3    H1 1974   6.059  -0.022   0.083
  677TIP3    H2 1975   6.076   0.107   0.160
  678TIP3   OH2 1976   0.473   1.584   4.361
  678TIP3    H1 1977   0.421   1.664   4.358
  678TIP3    H2 1978   0.557   1.608   4.323
  679TIP3   OH2 1979   0.087   4.600   1.113
  679TIP3    H1 1980   0.153   4.627   1.049
  679TIP3    H2 1981   0.046   4.523   1.074
  680TIP3   OH2 1982   4.333   0.653   2.741
  680TIP3    H1 1983   4.422   0.626   2.719
  680TIP3    H2 1984   4.290   0.664   2.657
  681TIP3   OH2 1985   2.949   7.778   3.229
  681TIP3    H1 1986   2.910   7.781   3.316
  681TIP3    H2 1987   3.043   7.786   3.245
  682TIP3   OH2 1988   5.161   0.383   1.925
  682TIP3    H1 1989   5.145   0.373   1.831
  682TIP3    H2 1990   5.100   0.320   1.966
  683TIP3   OH2 1991   3.034   7.001   6.763
  683TIP3    H1 1992   2.993   6.946   6.830
  683TIP3    H2 1993   2.993   6.973   6.681
  684TIP3   OH2 1994   4.196   3.913   6.482
  684TIP3    H1 1995   4.287   3.939   6.474
  684TIP3    H2 1996   4.200   3.821   6.509
  685TIP3   OH2 1997   2.483   6.138   2.586
  685TIP3    H1 1998   2.509   6.216   2.536
  685TIP3    H2 1999   2.438   6.082   2.522
  686TIP3   OH2 2000   5.680   2.010   3.527
  686TIP3    H1 2001   5.767   2.005   3.486
  686TIP3    H2 2002   5.662   2.104   3.533
  687TIP3   OH2 2003   3.260   7.356   6.585
  687TIP3    H1 2004   3.285   7.369   6.493
  687TIP3    H2 2005   3.248   7.261   6.593
  688TIP3   OH2 2006   3.094   2.234   3.214
  688TIP3    H1 2007   3.102   2.157   3.270
  688TIP3    H2 2008   3.184   2.265   3.202
  689TIP3   OH2 2009   6.059   2.474   1.947
  689TIP3    H1 2010   6.053   2.463   1.852
  689TIP3    H2 2011   6.126   2.541   1.960
  690TIP3   OH2 2012   1.985   4.969  -0.028
  690TIP3    H1 2013   1.906   5.008  -0.067
  690TIP3    H2 2014   1.982   4.997   0.064
  691TIP3   OH2 2015   1.360   0.767   3.208
  691TIP3    H1 2016   1.408   0.737   3.130
  691TIP3    H2 2017   1.386   0.705   3.277
  692TIP3   OH2 2018   6.650   5.393   0.134
  692TIP3    H1 2019   6.668   5.432   0.049
  692TIP3    H2 2020   6.711   5.435   0.194
  693TIP3   OH2 2021   1.109   7.416   2.916
  693TIP3    H1 2022   1.180   7.473   2.887
  693TIP3    H2 2023   1.039   7.431   2.852
  694TIP3   OH2 2024   5.553   6.472   6.617
  694TIP3    H1 2025   5.596   6.387   6.628
  694TIP3    H2 2026   5.507   6.486   6.700
  695TIP3   OH2 2027   7.152   5.092   0.852
  695TIP3    H1 2028   7.130   5.047   0.771
  695TIP3    H2 2029   7.068   5.123   0.886
  696TIP3   OH2 2030   4.260   2.795   6.250
  696TIP3    H1 2031   4.264   2.727   6.183
  696TIP3    H2 2032   4.221   2.752   6.326
  697TIP3   OH2 2033   0.382   5.680   1.817
  697TIP3    H1 2034   0.463   5.661   1.769
  697TIP3    H2 2035   0.357   5.596   1.855
  698TIP3   OH2 2036   3.809   3.063   2.686
  698TIP3    H1 2037   3.839   3.153   2.680
  698TIP3    H2 2038   3.801   3.034   2.595
  699TIP3   OH2 2039   6.849   7.048   0.554
  699TIP3    H1 2040   6.906   7.063   0.478
  699TIP3    H2 2041   6.766   7.021   0.517
  700TIP3   OH2 2042   2.382   6.798   1.482
  700TIP3    H1 2043   2.468   6.799   1.441
  700TIP3    H2 2044   2.398   6.820   1.573
  701TIP3   OH2 2045   1.872   2.387   3.717
  701TIP3    H1 2046   1.837   2.430   3.639
  701TIP3    H2 2047   1.814   2.415   3.788
  702TIP3   OH2 2048   0.203   6.341   2.648
  702TIP3    H1 2049   0.198   6.436   2.638
  702TIP3    H2 2050   0.170   6.324   2.735
  703TIP3   OH2 2051   2.493   5.270   5.669
  703TIP3    H1 2052   2.490   5.346   5.727
  703TIP3    H2 2053   2.583   5.269   5.636
  704TIP3   OH2 2054   5.740   1.801   6.193
  704TIP3    H1 2055   5.721   1.722   6.143
  704TIP3    H2 2056   5.654   1.836   6.216
  705TIP3   OH2 2057   0.256   1.395   0.542
  705TIP3    H1 2058   0.167   1.423   0.564
  705TIP3    H2 2059   0.274   1.325   0.605
  706TIP3   OH2 2060   2.578   1.469   0.099
  706TIP3    H1 2061   2.570   1.497   0.008
  706TIP3    H2 2062   2.488   1.459   0.129
  707TIP3   OH2 2063   5.029   3.162   0.596
  707TIP3    H1 2064   5.101   3.100   0.604
  707TIP3    H2 2065   5.016   3.172   0.501
  708TIP3   OH2 2066   4.299   2.292   5.766
  708TIP3    H1 2067   4.373   2.270   5.822
  708TIP3    H2 2068   4.252   2.361   5.812
  709TIP3   OH2 2069   4.858   2.080   4.506
  709TIP3    H1 2070   4.838   2.100   4.414
  709TIP3    H2 2071   4.949   2.051   4.504
  710TIP3   OH2 2072   5.188   2.281   0.158
  710TIP3    H1 2073   5.263   2.340   0.158
  710TIP3    H2 2074   5.226   2.194   0.175
  711TIP3   OH2 2075   0.125   6.745   5.935
  711TIP3    H1 2076   0.147   6.662   5.894
  711TIP3    H2 2077   0.087   6.797   5.864
  712TIP3   OH2 2078   7.139   4.228   6.192
  712TIP3    H1 2079   7.234   4.239   6.188
  712TIP3    H2 2080   7.104   4.313   6.165
  713TIP3   OH2 2081   0.134   1.190   2.626
  713TIP3    H1 2082   0.142   1.282   2.600
  713TIP3    H2 2083   0.204   1.177   2.689
  714TIP3   OH2 2084   1.353   2.077   4.018
  714TIP3    H1 2085   1.366   1.990   4.055
  714TIP3    H2 2086   1.266   2.104   4.048
  715TIP3   OH2 2087   5.009   7.036   2.525
  715TIP3    H1 2088   4.997   6.999   2.438
  715TIP3    H2 2089   5.051   7.121   2.510
  716TIP3   OH2 2090   7.787   6.139   5.157
  716TIP3    H1 2091   7.741   6.116   5.237
  716TIP3    H2 2092   7.846   6.210   5.183
  717TIP3   OH2 2093   1.101   1.575   2.257
  717TIP3    H1 2094   1.035   1.511   2.228
  717TIP3    H2 2095   1.141   1.535   2.334
  718TIP3   OH2 2096   6.451   6.395   5.594
  718TIP3    H1 2097   6.461   6.424   5.503
  718TIP3    H2 2098   6.537   6.408   5.633
  719TIP3   OH2 2099   1.730   0.377   3.735
  719TIP3    H1 2100   1.748   0.309   3.801
  719TIP3    H2 2101   1.815   0.399   3.699
  720TIP3   OH2 2102   2.060   7.773   4.910
  720TIP3    H1 2103   1.974   7.737   4.891
  720TIP3    H2 2104   2.122   7.707   4.878
  721TIP3   OH2 2105   7.743   6.827   0.671
  721TIP3    H1 2106   7.835   6.818   0.646
  721TIP3    H2 2107   7.699   6.852   0.589
  722TIP3   OH2 2108   4.280   0.572   5.252
  722TIP3    H1 2109   4.264   0.621   5.171
  722TIP3    H2 2110   4.269   0.480   5.227
  723TIP3   OH2 2111   6.945   7.373   1.359
  723TIP3    H1 2112   6.888   7.422   1.418
  723TIP3    H2 2113   6.896   7.369   1.277
  724TIP3   OH2 2114   4.092   3.310   6.088
  724TIP3    H1 2115   4.067   3.394   6.124
  724TIP3    H2 2116   4.172   3.328   6.039
  725TIP3   OH2 2117   7.041   4.994   3.554
  725TIP3    H1 2118   7.011   5.026   3.469
  725TIP3    H2 2119   6.964   4.951   3.592
  726TIP3   OH2 2120   5.257   2.746   6.328
  726TIP3    H1 2121   5.349   2.719   6.340
  726TIP3    H2 2122   5.246   2.752   6.233
  727TIP3   OH2 2123   6.190   2.302   5.413
  727TIP3    H1 2124   6.121   2.264   5.469
  727TIP3    H2 2125   6.154   2.296   5.325
  728TIP3   OH2 2126   0.321   5.583   1.176
  728TIP3    H1 2127   0.345   5.606   1.266
  728TIP3    H2 2128   0.255   5.648   1.151
  729TIP3   OH2 2129   5.514   3.342   0.242
  729TIP3    H1 2130   5.461   3.421   0.234
  729TIP3    H2 2131   5.565   3.355   0.322
  730TIP3   OH2 2132   7.880   3.454   6.772
  730TIP3    H1 2133   7.908   3.378   6.720
  730TIP3    H2 2134   7.917   3.439   6.859
  731TIP3   OH2 2135   1.208   4.943   6.391
  731TIP3    H1 2136   1.225   4.954   6.485
  731TIP3    H2 2137   1.220   4.849   6.375
  732TIP3   OH2 2138   6.229   6.488   0.709
  732TIP3    H1 2139   6.232   6.483   0.613
  732TIP3    H2 2140   6.141   6.457   0.731
  733TIP3   OH2 2141   0.972   7.256   4.910
  733TIP3    H1 2142   0.988   7.176   4.959
  733TIP3    H2 2143   0.903   7.232   4.847
  734TIP3   OH2 2144   1.041   3.622   0.037
  734TIP3    H1 2145   0.974   3.684   0.011
  734TIP3    H2 2146   1.104   3.673   0.087
  735TIP3   OH2 2147   2.863   1.809   6.156
  735TIP3    H1 2148   2.949   1.775   6.130
  735TIP3    H2 2149   2.810   1.731   6.169
  736TIP3   OH2 2150   6.506   5.204   6.176
  736TIP3    H1 2151   6.502   5.211   6.271
  736TIP3    H2 2152   6.565   5.274   6.149
  737TIP3   OH2 2153   5.148   7.499   5.291
  737TIP3    H1 2154   5.092   7.539   5.357
  737TIP3    H2 2155   5.092   7.486   5.215
  738TIP3   OH2 2156   2.468   7.349   2.764
  738TIP3    H1 2157   2.554   7.391   2.761
  738TIP3    H2 2158   2.479   7.269   2.713
  739TIP3   OH2 2159   1.824   2.245   1.094
  739TIP3    H1 2160   1.838   2.223   1.186
  739TIP3    H2 2161   1.891   2.310   1.074
  740TIP3   OH2 2162   5.398   5.703   1.722
  740TIP3    H1 2163   5.484   5.723   1.685
  740TIP3    H2 2164   5.357   5.646   1.657
  741TIP3   OH2 2165   6.241   2.671   1.949
  741TIP3    H1 2166   6.225   2.750   1.999
  741TIP3    H2 2167   6.290   2.700   1.872
  742TIP3   OH2 2168   3.601   6.668   5.094
  742TIP3    H1 2169   3.696   6.681   5.092
  742TIP3    H2 2170   3.565   6.751   5.060
  743TIP3   OH2 2171   2.435   7.241   4.857
  743TIP3    H1 2172   2.489   7.211   4.783
  743TIP3    H2 2173   2.348   7.208   4.838
  744TIP3   OH2 2174   7.517   6.066   0.178
  744TIP3    H1 2175   7.462   6.144   0.185
  744TIP3    H2 2176   7.475   6.013   0.112
  745TIP3   OH2 2177   3.625   7.297   1.387
  745TIP3    H1 2178   3.599   7.210   1.416
  745TIP3    H2 2179   3.623   7.292   1.291
  746TIP3   OH2 2180   0.937   4.784   0.557
  746TIP3    H1 2181   0.845   4.766   0.539
  746TIP3    H2 2182   0.985   4.728   0.497
  747TIP3   OH2 2183   0.337   0.120   1.343
  747TIP3    H1 2184   0.430   0.139   1.331
  747TIP3    H2 2185   0.328   0.027   1.324
  748TIP3   OH2 2186   5.894   1.279   1.536
  748TIP3    H1 2187   5.874   1.212   1.601
  748TIP3    H2 2188   5.978   1.252   1.499
  749TIP3   OH2 2189   6.096   0.995   3.101
  749TIP3    H1 2190   6.033   0.985   3.173
  749TIP3    H2 2191   6.046   1.039   3.032
  750TIP3   OH2 2192   3.035   4.021   6.292
  750TIP3    H1 2193   2.960   4.022   6.233
  750TIP3    H2 2194   3.012   3.958   6.360
  751TIP3   OH2 2195   6.302   7.711   0.975
  751TIP3    H1 2196   6.387   7.751   0.955
  751TIP3    H2 2197   6.240   7.784   0.970
  752TIP3   OH2 2198   5.925   6.500   0.534
  752TIP3    H1 2199   5.843   6.548   0.544
  752TIP3    H2 2200   5.943   6.464   0.621
  753TIP3   OH2 2201   2.104   7.754   6.691
  753TIP3    H1 2202   2.153   7.795   6.620
  753TIP3    H2 2203   2.032   7.815   6.708
  754TIP3   OH2 2204   8.195   6.002   1.029
  754TIP3    H1 2205   8.142   5.978   0.953
  754TIP3    H2 2206   8.261   6.062   0.993
  755TIP3   OH2 2207   4.971   2.385   6.413
  755TIP3    H1 2208   4.915   2.458   6.440
  755TIP3    H2 2209   5.042   2.385   6.476
  756TIP3   OH2 2210   3.752   0.929   2.070
  756TIP3    H1 2211   3.734   0.866   2.139
  756TIP3    H2 2212   3.698   0.900   1.996
  757TIP3   OH2 2213   7.290   4.510   4.533
  757TIP3    H1 2214   7.256   4.519   4.622
  757TIP3    H2 2215   7.329   4.422   4.531
  758TIP3   OH2 2216   6.172   3.377   6.491
  758TIP3    H1 2217   6.225   3.449   6.456
  758TIP3    H2 2218   6.178   3.385   6.586
  759TIP3   OH2 2219   4.309   5.104   6.592
  759TIP3    H1 2220   4.312   5.090   6.686
  759TIP3    H2 2221   4.322   5.017   6.554
  760TIP3   OH2 2222   0.875   2.486   2.846
  760TIP3    H1 2223   0.950   2.429   2.826
  760TIP3    H2 2224   0.864   2.539   2.767
  761TIP3   OH2 2225   3.272   0.774   0.359
  761TIP3    H1 2226   3.321   0.707   0.407
  761TIP3    H2 2227   3.271   0.743   0.269
  762TIP3   OH2 2228   3.497   5.701   6.749
  762TIP3    H1 2229   3.591   5.719   6.758
  762TIP3    H2 2230   3.480   5.630   6.811
  763TIP3   OH2 2231   4.997   4.495   3.470
  763TIP3    H1 2232   5.013   4.564   3.406
  763TIP3    H2 2233   4.904   4.501   3.491
  764TIP3   OH2 2234   0.955   5.511   1.641
  764TIP3    H1 2235   0.996   5.534   1.558
  764TIP3    H2 2236   0.912   5.591   1.669
  765TIP3   OH2 2237   5.913   1.511   4.704
  765TIP3    H1 2238   5.943   1.591   4.748
  765TIP3    H2 2239   5.830   1.535   4.664
  766TIP3   OH2 2240   7.298   1.528   0.335
  766TIP3    H1 2241   7.216   1.551   0.379
  766TIP3    H2 2242   7.286   1.561   0.245
  767TIP3   OH2 2243   0.125   7.802   2.250
  767TIP3    H1 2244   0.072   7.723   2.265
  767TIP3    H2 2245   0.138   7.839   2.337
  768TIP3   OH2 2246   5.789   4.674   6.084
  768TIP3    H1 2247   5.789   4.690   5.990
  768TIP3    H2 2248   5.881   4.677   6.109
  769TIP3   OH2 2249   4.092   6.453   4.843
  769TIP3    H1 2250   4.075   6.450   4.937
  769TIP3    H2 2251   4.005   6.452   4.803
  770TIP3   OH2 2252   4.365   4.307   2.832
  770TIP3    H1 2253   4.434   4.373   2.823
  770TIP3    H2 2254   4.330   4.321   2.920
  771TIP3   OH2 2255   6.138   0.138   2.273
  771TIP3    H1 2256   6.111   0.132   2.365
  771TIP3    H2 2257   6.201   0.066   2.262
  772TIP3   OH2 2258   0.540   3.839   3.376
  772TIP3    H1 2259   0.613   3.786   3.409
  772TIP3    H2 2260   0.582   3.910   3.327
  773TIP3   OH2 2261   1.788   5.610   6.288
  773TIP3    H1 2262   1.794   5.687   6.230
  773TIP3    H2 2263   1.751   5.542   6.233
  774TIP3   OH2 2264   1.429   6.150   5.923
  774TIP3    H1 2265   1.407   6.185   5.836
  774TIP3    H2 2266   1.497   6.085   5.906
  775TIP3   OH2 2267   0.074   0.411   3.577
  775TIP3    H1 2268   0.041   0.339   3.523
  775TIP3    H2 2269   0.168   0.395   3.584
  776TIP3   OH2 2270   1.085   6.214   5.471
  776TIP3    H1 2271   1.141   6.290   5.453
  776TIP3    H2 2272   1.098   6.156   5.396
  777TIP3   OH2 2273   6.264   2.204   3.444
  777TIP3    H1 2274   6.187   2.261   3.449
  777TIP3    H2 2275   6.338   2.264   3.434
  778TIP3   OH2 2276   7.204   0.634   1.285
  778TIP3    H1 2277   7.139   0.691   1.244
  778TIP3    H2 2278   7.286   0.682   1.279
  779TIP3   OH2 2279   4.460   4.103   0.621
  779TIP3    H1 2280   4.485   4.021   0.579
  779TIP3    H2 2281   4.369   4.090   0.647
  780TIP3   OH2 2282   1.231   2.247   3.184
  780TIP3    H1 2283   1.306   2.201   3.221
  780TIP3    H2 2284   1.249   2.340   3.202
  781TIP3   OH2 2285   1.323   3.333   1.105
  781TIP3    H1 2286   1.302   3.410   1.052
  781TIP3    H2 2287   1.285   3.259   1.056
  782TIP3   OH2 2288   5.519   6.933   0.913
  782TIP3    H1 2289   5.506   6.882   0.833
  782TIP3    H2 2290   5.443   6.911   0.968
  783TIP3   OH2 2291   5.969   4.195   0.364
  783TIP3    H1 2292   5.934   4.174   0.277
  783TIP3    H2 2293   5.995   4.110   0.400
  784TIP3   OH2 2294   8.098   3.982   0.102
  784TIP3    H1 2295   8.142   4.004   0.020
  784TIP3    H2 2296   8.072   4.067   0.139
  785TIP3   OH2 2297   4.047   5.053   3.651
  785TIP3    H1 2298   3.952   5.060   3.655
  785TIP3    H2 2299   4.078   5.098   3.730
  786TIP3   OH2 2300   0.652   7.821   1.242
  786TIP3    H1 2301   0.743   7.813   1.212
  786TIP3    H2 2302   0.622   7.904   1.204
  787TIP3   OH2 2303   5.616   5.277   2.567
  787TIP3    H1 2304   5.644   5.271   2.476
  787TIP3    H2 2305   5.690   5.245   2.618
  788TIP3   OH2 2306   2.343   5.142   4.468
  788TIP3    H1 2307   2.255   5.120   4.499
  788TIP3    H2 2308   2.401   5.111   4.538
  789TIP3   OH2 2309   1.968   3.998   0.335
  789TIP3    H1 2310   1.886   3.998   0.384
  789TIP3    H2 2311   2.028   3.946   0.389
  790TIP3   OH2 2312   0.381   6.197   1.626
  790TIP3    H1 2313   0.468   6.198   1.585
  790TIP3    H2 2314   0.378   6.114   1.674
  791TIP3   OH2 2315   0.157   6.483   3.656
  791TIP3    H1 2316   0.208   6.564   3.657
  791TIP3    H2 2317   0.148   6.462   3.563
  792TIP3   OH2 2318   6.387   7.717   4.429
  792TIP3    H1 2319   6.320   7.652   4.407
  792TIP3    H2 2320   6.439   7.726   4.349
  793TIP3   OH2 2321   5.177   1.915   0.602
  793TIP3    H1 2322   5.241   1.847   0.581
  793TIP3    H2 2323   5.097   1.888   0.556
  794TIP3   OH2 2324   1.911   1.733   0.939
  794TIP3    H1 2325   1.946   1.751   0.852
  794TIP3    H2 2326   1.979   1.764   0.999
  795TIP3   OH2 2327   3.044   0.327   2.291
  795TIP3    H1 2328   2.979   0.334   2.222
  795TIP3    H2 2329   3.093   0.247   2.270
  796TIP3   OH2 2330   6.690   2.644   4.327
  796TIP3    H1 2331   6.676   2.595   4.246
  796TIP3    H2 2332   6.783   2.632   4.346
  797TIP3   OH2 2333   6.190   7.355   2.899
  797TIP3    H1 2334   6.203   7.270   2.857
  797TIP3    H2 2335   6.239   7.417   2.844
  798TIP3   OH2 2336   8.005   0.794   2.180
  798TIP3    H1 2337   7.939   0.737   2.141
  798TIP3    H2 2338   8.043   0.741   2.250
  799TIP3   OH2 2339   3.463   4.329   6.229
  799TIP3    H1 2340   3.392   4.279   6.269
  799TIP3    H2 2341   3.526   4.342   6.299
  800TIP3   OH2 2342   1.919   5.857   3.423
  800TIP3    H1 2343   1.912   5.856   3.327
  800TIP3    H2 2344   1.938   5.948   3.444
  801TIP3   OH2 2345   1.884   5.689   3.033
  801TIP3    H1 2346   1.909   5.607   3.076
  801TIP3    H2 2347   1.910   5.677   2.942
  802TIP3   OH2 2348   2.765   6.488   3.382
  802TIP3    H1 2349   2.730   6.419   3.326
  802TIP3    H2 2350   2.715   6.480   3.464
  803TIP3   OH2 2351   3.300   6.032   5.774
  803TIP3    H1 2352   3.348   6.041   5.691
  803TIP3    H2 2353   3.358   5.978   5.828
  804TIP3   OH2 2354   2.492   6.769   2.595
  804TIP3    H1 2355   2.543   6.809   2.524
  804TIP3    H2 2356   2.545   6.694   2.623
  805TIP3   OH2 2357   6.504   2.129   1.387
  805TIP3    H1 2358   6.589   2.097   1.419
  805TIP3    H2 2359   6.444   2.113   1.460
  806TIP3   OH2 2360   5.938   7.125  -0.006
  806TIP3    H1 2361   5.926   7.036   0.027
  806TIP3    H2 2362   5.903   7.181   0.063
  807TIP3   OH2 2363   4.955   1.739   5.452
  807TIP3    H1 2364   4.864   1.717   5.471
  807TIP3    H2 2365   5.004   1.700   5.524
  808TIP3   OH2 2366   5.818   5.864   0.486
  808TIP3    H1 2367   5.898   5.856   0.434
  808TIP3    H2 2368   5.748   5.840   0.424
  809TIP3   OH2 2369   3.923   0.872   2.941
  809TIP3    H1 2370   3.926   0.931   2.865
  809TIP3    H2 2371   3.891   0.789   2.906
  810TIP3   OH2 2372   6.722   4.816   6.591
  810TIP3    H1 2373   6.722   4.819   6.495
  810TIP3    H2 2374   6.656   4.750   6.613
  811TIP3   OH2 2375   3.614   2.836   1.388
  811TIP3    H1 2376   3.527   2.820   1.424
  811TIP3    H2 2377   3.654   2.898   1.449
  812TIP3   OH2 2378   5.413   7.122   2.600
  812TIP3    H1 2379   5.509   7.128   2.599
  812TIP3    H2 2380   5.388   7.121   2.507
  813TIP3   OH2 2381   3.601   3.212   2.906
  813TIP3    H1 2382   3.691   3.208   2.938
  813TIP3    H2 2383   3.580   3.305   2.906
  814TIP3   OH2 2384   6.443   0.802   6.484
  814TIP3    H1 2385   6.501   0.747   6.536
  814TIP3    H2 2386   6.450   0.768   6.395
  815TIP3   OH2 2387   3.647   0.456   2.172
  815TIP3    H1 2388   3.743   0.457   2.176
  815TIP3    H2 2389   3.622   0.375   2.218
  816TIP3   OH2 2390   2.022   2.546   5.989
  816TIP3    H1 2391   1.985   2.462   5.962
  816TIP3    H2 2392   2.107   2.524   6.027
  817TIP3   OH2 2393   7.770   7.594   1.538
  817TIP3    H1 2394   7.797   7.543   1.613
  817TIP3    H2 2395   7.676   7.607   1.550
  818TIP3   OH2 2396   5.741   2.642   2.658
  818TIP3    H1 2397   5.722   2.736   2.659
  818TIP3    H2 2398   5.669   2.603   2.706
  819TIP3   OH2 2399   3.061   4.039   3.976
  819TIP3    H1 2400   3.156   4.049   3.975
  819TIP3    H2 2401   3.040   4.003   3.890
  820TIP3   OH2 2402   0.552   7.466   1.451
  820TIP3    H1 2403   0.581   7.421   1.372
  820TIP3    H2 2404   0.599   7.422   1.522
  821TIP3   OH2 2405   6.308   4.172   4.851
  821TIP3    H1 2406   6.384   4.123   4.883
  821TIP3    H2 2407   6.279   4.123   4.774
  822TIP3   OH2 2408   0.771   0.840   3.875
  822TIP3    H1 2409   0.731   0.800   3.797
  822TIP3    H2 2410   0.844   0.892   3.840
  823TIP3   OH2 2411   7.800   6.585   3.326
  823TIP3    H1 2412   7.876   6.529   3.338
  823TIP3    H2 2413   7.787   6.588   3.231
  824TIP3   OH2 2414   8.178   6.444   6.240
  824TIP3    H1 2415   8.216   6.415   6.157
  824TIP3    H2 2416   8.215   6.532   6.254
  825TIP3   OH2 2417   5.045   1.884   6.189
  825TIP3    H1 2418   5.131   1.848   6.212
  825TIP3    H2 2419   5.065   1.961   6.136
  826TIP3   OH2 2420   0.311   4.414   3.181
  826TIP3    H1 2421   0.356   4.373   3.107
  826TIP3    H2 2422   0.313   4.349   3.250
  827TIP3   OH2 2423   6.285   2.456   0.400
  827TIP3    H1 2424   6.265   2.475   0.492
  827TIP3    H2 2425   6.221   2.389   0.375
  828TIP3   OH2 2426   7.075   0.207   5.364
  828TIP3    H1 2427   7.132   0.215   5.440
  828TIP3    H2 2428   7.076   0.113   5.343
  829TIP3   OH2 2429   3.401   4.363   0.450
  829TIP3    H1 2430   3.456   4.366   0.372
  829TIP3    H2 2431   3.355   4.447   0.449
  830TIP3   OH2 2432   0.269   0.020   4.860
  830TIP3    H1 2433   0.346   0.047   4.910
  830TIP3    H2 2434   0.194   0.042   4.915
  831TIP3   OH2 2435   3.292   5.514   0.119
  831TIP3    H1 2436   3.362   5.521   0.183
  831TIP3    H2 2437   3.252   5.601   0.118
  832TIP3   OH2 2438   4.604   6.141   5.922
  832TIP3    H1 2439   4.578   6.146   5.830
  832TIP3    H2 2440   4.628   6.231   5.945
  833TIP3   OH2 2441   7.899   2.239   3.693
  833TIP3    H1 2442   7.811   2.219   3.725
  833TIP3    H2 2443   7.889   2.319   3.642
  834TIP3   OH2 2444   6.854   5.727   0.219
  834TIP3    H1 2445   6.878   5.655   0.160
  834TIP3    H2 2446   6.880   5.806   0.172
  835TIP3   OH2 2447   0.687   2.980   3.352
  835TIP3    H1 2448   0.606   2.931   3.335
  835TIP3    H2 2449   0.728   2.933   3.424
  836TIP3   OH2 2450   0.730   7.334   5.698
  836TIP3    H1 2451   0.778   7.399   5.648
  836TIP3    H2 2452   0.667   7.297   5.636
  837TIP3   OH2 2453   0.050   7.687   1.681
  837TIP3    H1 2454   0.024   7.772   1.645
  837TIP3    H2 2455   0.126   7.661   1.629
  838TIP3   OH2 2456   5.679   6.137   2.219
  838TIP3    H1 2457   5.625   6.081   2.162
  838TIP3    H2 2458   5.671   6.224   2.181
  839TIP3   OH2 2459   4.247   0.217   3.495
  839TIP3    H1 2460   4.268   0.237   3.586
  839TIP3    H2 2461   4.247   0.301   3.451
  840TIP3   OH2 2462   1.606   7.843   1.195
  840TIP3    H1 2463   1.638   7.865   1.282
  840TIP3    H2 2464   1.564   7.757   1.206
  841TIP3   OH2 2465   2.901   5.534   4.754
  841TIP3    H1 2466   2.818   5.527   4.801
  841TIP3    H2 2467   2.877   5.575   4.670
  842TIP3   OH2 2468   0.554   7.590   5.424
  842TIP3    H1 2469   0.589   7.502   5.430
  842TIP3    H2 2470   0.583   7.622   5.339
  843TIP3   OH2 2471   1.754   5.714   4.512
  843TIP3    H1 2472   1.699   5.667   4.449
  843TIP3    H2 2473   1.844   5.699   4.483
  844TIP3   OH2 2474   0.157   5.585   4.290
  844TIP3    H1 2475   0.139   5.561   4.199
  844TIP3    H2 2476   0.198   5.508   4.328
  845TIP3   OH2 2477   8.278   7.121   4.686
  845TIP3    H1 2478   8.218   7.092   4.617
  845TIP3    H2 2479   8.253   7.069   4.763
  846TIP3   OH2 2480   0.382   0.325   2.543
  846TIP3    H1 2481   0.359   0.415   2.522
  846TIP3    H2 2482   0.349   0.273   2.470
  847TIP3   OH2 2483   4.296   6.485   5.247
  847TIP3    H1 2484   4.331   6.421   5.184
  847TIP3    H2 2485   4.211   6.511   5.209
  848TIP3   OH2 2486   7.888   2.556   0.524
  848TIP3    H1 2487   7.873   2.547   0.430
  848TIP3    H2 2488   7.800   2.549   0.562
  849TIP3   OH2 2489   3.923   1.303   0.393
  849TIP3    H1 2490   3.830   1.320   0.411
  849TIP3    H2 2491   3.964   1.305   0.480
  850TIP3   OH2 2492   7.212   2.629   3.571
  850TIP3    H1 2493   7.131   2.590   3.604
  850TIP3    H2 2494   7.194   2.723   3.570
  851TIP3   OH2 2495   1.672   5.800   1.223
  851TIP3    H1 2496   1.605   5.734   1.205
  851TIP3    H2 2497   1.646   5.839   1.306
  852TIP3   OH2 2498   5.941   1.330   6.528
  852TIP3    H1 2499   5.998   1.297   6.459
  852TIP3    H2 2500   5.993   1.397   6.572
  853TIP3   OH2 2501   2.106   5.022   6.156
  853TIP3    H1 2502   2.061   4.965   6.218
  853TIP3    H2 2503   2.176   4.967   6.120
  854TIP3   OH2 2504   1.074   1.163   4.671
  854TIP3    H1 2505   1.082   1.142   4.578
  854TIP3    H2 2506   1.161   1.194   4.696
  855TIP3   OH2 2507   5.655   6.995   6.575
  855TIP3    H1 2508   5.563   7.004   6.550
  855TIP3    H2 2509   5.687   6.921   6.523
  856TIP3   OH2 2510   4.026   7.235   2.377
  856TIP3    H1 2511   3.948   7.227   2.433
  856TIP3    H2 2512   4.092   7.182   2.422
  857TIP3   OH2 2513   4.893   2.970   1.736
  857TIP3    H1 2514   4.934   3.025   1.670
  857TIP3    H2 2515   4.935   2.884   1.726
  858TIP3   OH2 2516   4.168   2.809   2.570
  858TIP3    H1 2517   4.252   2.762   2.576
  858TIP3    H2 2518   4.179   2.866   2.494
  859TIP3   OH2 2519   6.918   1.703   2.899
  859TIP3    H1 2520   6.893   1.652   2.976
  859TIP3    H2 2521   6.988   1.651   2.858
  860TIP3   OH2 2522   3.929   1.200   5.702
  860TIP3    H1 2523   3.976   1.276   5.736
  860TIP3    H2 2524   3.870   1.174   5.773
  861TIP3   OH2 2525   2.942   2.467   2.341
  861TIP3    H1 2526   2.874   2.431   2.284
  861TIP3    H2 2527   3.006   2.397   2.349
  862TIP3   OH2 2528   0.008   0.587   3.354
  862TIP3    H1 2529   0.059   0.540   3.420
  862TIP3    H2 2530   0.040   0.678   3.359
  863TIP3   OH2 2531   8.207   4.222   0.930
  863TIP3    H1 2532   8.208   4.126   0.939
  863TIP3    H2 2533   8.237   4.254   1.015
  864TIP3   OH2 2534   6.006   4.537   5.162
  864TIP3    H1 2535   6.101   4.523   5.163
  864TIP3    H2 2536   5.969   4.448   5.163
  865TIP3   OH2 2537   5.168   4.738   6.408
  865TIP3    H1 2538   5.184   4.829   6.434
  865TIP3    H2 2539   5.165   4.691   6.491
  866TIP3   OH2 2540   1.141   1.850   2.892
  866TIP3    H1 2541   1.211   1.809   2.942
  866TIP3    H2 2542   1.136   1.939   2.927
  867TIP3   OH2 2543   1.546   1.043   1.865
  867TIP3    H1 2544   1.535   1.050   1.770
  867TIP3    H2 2545   1.477   1.099   1.901
  868TIP3   OH2 2546   3.460   4.898   2.180
  868TIP3    H1 2547   3.486   4.870   2.268
  868TIP3    H2 2548   3.430   4.988   2.192
  869TIP3   OH2 2549   6.300   5.689   4.294
  869TIP3    H1 2550   6.242   5.620   4.327
  869TIP3    H2 2551   6.331   5.734   4.372
  870TIP3   OH2 2552   8.016   2.906   2.776
  870TIP3    H1 2553   7.950   2.876   2.712
  870TIP3    H2 2554   7.978   2.884   2.861
  871TIP3   OH2 2555   4.280   0.310   4.015
  871TIP3    H1 2556   4.207   0.310   4.077
  871TIP3    H2 2557   4.311   0.401   4.014
  872TIP3   OH2 2558   6.969   6.182   1.130
  872TIP3    H1 2559   7.051   6.134   1.119
  872TIP3    H2 2560   6.950   6.177   1.223
  873TIP3   OH2 2561   6.641   0.862   5.204
  873TIP3    H1 2562   6.555   0.825   5.183
  873TIP3    H2 2563   6.699   0.829   5.135
  874TIP3   OH2 2564   4.850   0.993   1.522
  874TIP3    H1 2565   4.884   0.962   1.605
  874TIP3    H2 2566   4.811   1.079   1.542
  875TIP3   OH2 2567   8.257   5.675   4.786
  875TIP3    H1 2568   8.280   5.714   4.701
  875TIP3    H2 2569   8.217   5.747   4.835
  876TIP3   OH2 2570   3.937   2.281   2.551
  876TIP3    H1 2571   3.893   2.354   2.595
  876TIP3    H2 2572   4.024   2.315   2.532
  877TIP3   OH2 2573   1.414   4.541   4.338
  877TIP3    H1 2574   1.355   4.470   4.364
  877TIP3    H2 2575   1.484   4.498   4.289
  878TIP3   OH2 2576   3.625   5.311   3.657
  878TIP3    H1 2577   3.703   5.367   3.664
  878TIP3    H2 2578   3.591   5.308   3.746
  879TIP3   OH2 2579   4.947   4.281   4.525
  879TIP3    H1 2580   4.972   4.373   4.531
  879TIP3    H2 2581   4.982   4.251   4.442
  880TIP3   OH2 2582   0.037   0.151   6.596
  880TIP3    H1 2583   0.067   0.060   6.600
  880TIP3    H2 2584  -0.046   0.150   6.643
  881TIP3   OH2 2585   7.246   2.418   0.152
  881TIP3    H1 2586   7.198   2.500   0.136
  881TIP3    H2 2587   7.220   2.361   0.079
  882TIP3   OH2 2588   0.665   4.152   3.362
  882TIP3    H1 2589   0.713   4.224   3.405
  882TIP3    H2 2590   0.706   4.145   3.276
  883TIP3   OH2 2591   5.858   2.999   0.159
  883TIP3    H1 2592   5.788   2.938   0.181
  883TIP3    H2 2593   5.857   3.064   0.230
  884TIP3   OH2 2594   2.331   4.555   3.458
  884TIP3    H1 2595   2.352   4.515   3.542
  884TIP3    H2 2596   2.415   4.563   3.413
  885TIP3   OH2 2597   3.173   0.629   3.792
  885TIP3    H1 2598   3.130   0.637   3.877
  885TIP3    H2 2599   3.260   0.595   3.813
  886TIP3   OH2 2600   6.345   1.030   5.569
  886TIP3    H1 2601   6.325   0.942   5.537
  886TIP3    H2 2602   6.270   1.083   5.544
  887TIP3   OH2 2603   1.807   0.155   0.234
  887TIP3    H1 2604   1.836   0.067   0.257
  887TIP3    H2 2605   1.719   0.162   0.270
  888TIP3   OH2 2606   5.182   4.629   2.450
  888TIP3    H1 2607   5.214   4.582   2.373
  888TIP3    H2 2608   5.249   4.615   2.517
  889TIP3   OH2 2609   6.581   0.006   2.477
  889TIP3    H1 2610   6.504  -0.037   2.441
  889TIP3    H2 2611   6.549   0.055   2.552
  890TIP3   OH2 2612   3.098   2.037   3.432
  890TIP3    H1 2613   3.131   1.992   3.510
  890TIP3    H2 2614   3.010   2.002   3.419
  891TIP3   OH2 2615   5.473   7.068   0.427
  891TIP3    H1 2616   5.466   6.995   0.366
  891TIP3    H2 2617   5.498   7.143   0.372
  892TIP3   OH2 2618   4.564   3.180   2.868
  892TIP3    H1 2619   4.560   3.219   2.955
  892TIP3    H2 2620   4.512   3.100   2.875
  893TIP3   OH2 2621   1.252   0.960   3.045
  893TIP3    H1 2622   1.283   0.903   3.114
  893TIP3    H2 2623   1.222   0.901   2.976
  894TIP3   OH2 2624   1.304   4.542   3.079
  894TIP3    H1 2625   1.236   4.486   3.118
  894TIP3    H2 2626   1.274   4.553   2.988
  895TIP3   OH2 2627   5.227   3.556   6.086
  895TIP3    H1 2628   5.150   3.609   6.107
  895TIP3    H2 2629   5.205   3.514   6.003
  896TIP3   OH2 2630   6.930   5.483   1.168
  896TIP3    H1 2631   6.848   5.524   1.142
  896TIP3    H2 2632   6.944   5.512   1.258
  897TIP3   OH2 2633   1.508   2.252   2.698
  897TIP3    H1 2634   1.522   2.172   2.749
  897TIP3    H2 2635   1.581   2.254   2.636
  898TIP3   OH2 2636   2.670   6.873   6.715
  898TIP3    H1 2637   2.630   6.800   6.762
  898TIP3    H2 2638   2.615   6.948   6.736
  899TIP3   OH2 2639   5.895   0.064   2.656
  899TIP3    H1 2640   5.891   0.125   2.582
  899TIP3    H2 2641   5.983   0.074   2.691
  900TIP3   OH2 2642   3.231   7.381   5.454
  900TIP3    H1 2643   3.198   7.394   5.543
  900TIP3    H2 2644   3.214   7.464   5.409
  901TIP3   OH2 2645   3.625   2.903   1.740
  901TIP3    H1 2646   3.629   2.809   1.722
  901TIP3    H2 2647   3.709   2.937   1.711
  902TIP3   OH2 2648   1.163   0.996   5.542
  902TIP3    H1 2649   1.230   0.952   5.489
  902TIP3    H2 2650   1.171   1.089   5.517
  903TIP3   OH2 2651  -0.011   6.598   5.703
  903TIP3    H1 2652   0.021   6.536   5.769
  903TIP3    H2 2653   0.068   6.643   5.673
  904TIP3   OH2 2654   7.481   1.442   3.242
  904TIP3    H1 2655   7.575   1.448   3.226
  904TIP3    H2 2656   7.473   1.369   3.304
  905TIP3   OH2 2657   0.405   7.481   4.526
  905TIP3    H1 2658   0.317   7.449   4.546
  905TIP3    H2 2659   0.394   7.576   4.516
  906TIP3   OH2 2660   3.506   2.298   6.499
  906TIP3    H1 2661   3.468   2.222   6.455
  906TIP3    H2 2662   3.444   2.369   6.480
  907TIP3   OH2 2663   4.217   4.300   6.217
  907TIP3    H1 2664   4.180   4.247   6.146
  907TIP3    H2 2665   4.194   4.390   6.193
  908TIP3   OH2 2666   6.433   2.750   1.763
  908TIP3    H1 2667   6.497   2.688   1.730
  908TIP3    H2 2668   6.485   2.821   1.800
  909TIP3   OH2 2669   6.992   6.752   6.568
  909TIP3    H1 2670   6.929   6.813   6.529
  909TIP3    H2 2671   7.025   6.798   6.645
  910TIP3   OH2 2672   4.419   4.465   6.521
  910TIP3    H1 2673   4.416   4.551   6.480
  910TIP3    H2 2674   4.491   4.471   6.584
  911TIP3   OH2 2675   5.075   0.314   4.896
  911TIP3    H1 2676   5.144   0.260   4.859
  911TIP3    H2 2677   5.095   0.320   4.989
  912TIP3   OH2 2678   2.155   3.212   4.709
  912TIP3    H1 2679   2.096   3.287   4.720
  912TIP3    H2 2680   2.155   3.195   4.615
  913TIP3   OH2 2681   1.803   3.409   0.992
  913TIP3    H1 2682   1.760   3.425   0.907
  913TIP3    H2 2683   1.762   3.329   1.025
  914TIP3   OH2 2684   0.193   2.365   2.822
  914TIP3    H1 2685   0.153   2.346   2.737
  914TIP3    H2 2686   0.261   2.429   2.803
  915TIP3   OH2 2687   7.245   6.019   3.523
  915TIP3    H1 2688   7.267   5.993   3.612
  915TIP3    H2 2689   7.252   6.115   3.523
  916TIP3   OH2 2690   4.867   5.469   4.045
  916TIP3    H1 2691   4.862   5.545   4.103
  916TIP3    H2 2692   4.934   5.491   3.981
  917TIP3   OH2 2693   4.996   2.276   2.703
  917TIP3    H1 2694   4.962   2.302   2.789
  917TIP3    H2 2695   4.922   2.291   2.644
  918TIP3   OH2 2696   1.738   4.140   2.177
  918TIP3    H1 2697   1.827   4.138   2.142
  918TIP3    H2 2698   1.696   4.214   2.133
  919TIP3   OH2 2699   1.827   4.140   6.739
  919TIP3    H1 2700   1.769   4.216   6.733
  919TIP3    H2 2701   1.784   4.072   6.686
  920TIP3   OH2 2702   4.815   2.594   6.474
  920TIP3    H1 2703   4.741   2.580   6.532
  920TIP3    H2 2704   4.888   2.618   6.532
  921TIP3   OH2 2705   6.858   7.693   4.755
  921TIP3    H1 2706   6.819   7.635   4.689
  921TIP3    H2 2707   6.828   7.780   4.731
  922TIP3   OH2 2708   2.604   2.693   1.058
  922TIP3    H1 2709   2.649   2.746   0.993
  922TIP3    H2 2710   2.648   2.608   1.055
  923TIP3   OH2 2711   7.060   4.235   5.578
  923TIP3    H1 2712   7.089   4.293   5.508
  923TIP3    H2 2713   7.112   4.261   5.654
  924TIP3   OH2 2714   1.827   1.062   2.735
  924TIP3    H1 2715   1.904   1.104   2.697
  924TIP3    H2 2716   1.763   1.132   2.742
  925TIP3   OH2 2717   5.735   5.995   5.505
  925TIP3    H1 2718   5.645   5.962   5.511
  925TIP3    H2 2719   5.790   5.917   5.508
  926TIP3   OH2 2720   4.113   0.960   5.070
  926TIP3    H1 2721   4.191   0.936   5.120
  926TIP3    H2 2722   4.142   0.961   4.978
  927TIP3   OH2 2723   5.536   4.114   4.612
  927TIP3    H1 2724   5.549   4.201   4.576
  927TIP3    H2 2725   5.466   4.076   4.560
  928TIP3   OH2 2726   0.077   4.232   4.065
  928TIP3    H1 2727   0.018   4.300   4.032
  928TIP3    H2 2728   0.163   4.273   4.064
  929TIP3   OH2 2729   2.490   5.620   4.168
  929TIP3    H1 2730   2.539   5.568   4.231
  929TIP3    H2 2731   2.479   5.705   4.211
  930TIP3   OH2 2732   1.425   5.395   4.622
  930TIP3    H1 2733   1.358   5.388   4.554
  930TIP3    H2 2734   1.401   5.474   4.670
  931TIP3   OH2 2735   5.111   7.438   4.569
  931TIP3    H1 2736   5.096   7.492   4.492
  931TIP3    H2 2737   5.195   7.395   4.553
  932TIP3   OH2 2738   0.847   3.411   5.489
  932TIP3    H1 2739   0.900   3.337   5.518
  932TIP3    H2 2740   0.895   3.488   5.519
  933TIP3   OH2 2741   3.610   1.741   3.072
  933TIP3    H1 2742   3.598   1.685   2.996
  933TIP3    H2 2743   3.669   1.810   3.043
  934TIP3   OH2 2744   0.716   5.816   6.399
  934TIP3    H1 2745   0.678   5.850   6.318
  934TIP3    H2 2746   0.648   5.760   6.436
  935TIP3   OH2 2747   7.187   6.247   3.797
  935TIP3    H1 2748   7.091   6.254   3.801
  935TIP3    H2 2749   7.217   6.337   3.789
  936TIP3   OH2 2750   1.907   2.688   4.816
  936TIP3    H1 2751   1.814   2.705   4.829
  936TIP3    H2 2752   1.920   2.690   4.721
  937TIP3   OH2 2753   4.021   2.383   1.866
  937TIP3    H1 2754   3.950   2.368   1.803
  937TIP3    H2 2755   3.992   2.458   1.918
  938TIP3   OH2 2756   7.293   5.527   3.712
  938TIP3    H1 2757   7.359   5.474   3.668
  938TIP3    H2 2758   7.336   5.558   3.792
  939TIP3   OH2 2759   6.809   1.569   4.623
  939TIP3    H1 2760   6.740   1.573   4.557
  939TIP3    H2 2761   6.870   1.503   4.590
  940TIP3   OH2 2762   7.149   7.091   2.287
  940TIP3    H1 2763   7.128   6.998   2.280
  940TIP3    H2 2764   7.086   7.125   2.350
  941TIP3   OH2 2765   1.345   6.672   6.703
  941TIP3    H1 2766   1.347   6.616   6.625
  941TIP3    H2 2767   1.255   6.705   6.707
  942TIP3   OH2 2768   6.275   4.963   2.806
  942TIP3    H1 2769   6.348   4.902   2.815
  942TIP3    H2 2770   6.313   5.039   2.762
  943TIP3   OH2 2771   3.707   5.420   5.507
  943TIP3    H1 2772   3.670   5.346   5.458
  943TIP3    H2 2773   3.797   5.393   5.526
  944TIP3   OH2 2774   0.201   7.367   4.691
  944TIP3    H1 2775   0.136   7.435   4.709
  944TIP3    H2 2776   0.149   7.287   4.685
  945TIP3   OH2 2777   6.937   1.422   4.349
  945TIP3    H1 2778   6.929   1.516   4.368
  945TIP3    H2 2779   6.949   1.382   4.435
  946TIP3   OH2 2780   0.539   2.918   2.211
  946TIP3    H1 2781   0.560   2.997   2.161
  946TIP3    H2 2782   0.511   2.854   2.145
  947TIP3   OH2 2783   3.830   0.208   1.205
  947TIP3    H1 2784   3.899   0.144   1.219
  947TIP3    H2 2785   3.797   0.228   1.293
  948TIP3   OH2 2786   1.403   5.805   3.403
  948TIP3    H1 2787   1.400   5.848   3.488
  948TIP3    H2 2788   1.495   5.808   3.377
  949TIP3   OH2 2789   4.824   4.620   3.187
  949TIP3    H1 2790   4.907   4.651   3.224
  949TIP3    H2 2791   4.775   4.701   3.168
  950TIP3   OH2 2792   1.893   4.926   1.485
  950TIP3    H1 2793   1.860   4.893   1.569
  950TIP3    H2 2794   1.986   4.942   1.500
  951TIP3   OH2 2795   0.942   2.201   6.407
  951TIP3    H1 2796   0.902   2.133   6.461
  951TIP3    H2 2797   0.960   2.272   6.468
  952TIP3   OH2 2798   4.840   7.612   3.489
  952TIP3    H1 2799   4.921   7.649   3.453
  952TIP3    H2 2800   4.771   7.643   3.430
  953TIP3   OH2 2801   4.446   6.576   0.352
  953TIP3    H1 2802   4.518   6.539   0.301
  953TIP3    H2 2803   4.460   6.671   0.346
  954TIP3   OH2 2804   0.454   1.931   0.530
  954TIP3    H1 2805   0.424   1.841   0.522
  954TIP3    H2 2806   0.521   1.940   0.463
  955TIP3   OH2 2807   2.382   0.609   5.052
  955TIP3    H1 2808   2.362   0.557   4.974
  955TIP3    H2 2809   2.465   0.652   5.030
  956TIP3   OH2 2810  -0.044   2.318   6.511
  956TIP3    H1 2811   0.039   2.300   6.556
  956TIP3    H2 2812  -0.020   2.325   6.419
  957TIP3   OH2 2813   2.316   4.685   6.090
  957TIP3    H1 2814   2.372   4.763   6.088
  957TIP3    H2 2815   2.247   4.704   6.027
  958TIP3   OH2 2816   2.516   5.760   2.693
  958TIP3    H1 2817   2.423   5.776   2.709
  958TIP3    H2 2818   2.549   5.723   2.775
  959TIP3   OH2 2819   7.338   4.839   4.665
  959TIP3    H1 2820   7.296   4.759   4.699
  959TIP3    H2 2821   7.365   4.886   4.743
  960TIP3   OH2 2822   0.127   3.424   2.606
  960TIP3    H1 2823   0.059   3.404   2.541
  960TIP3    H2 2824   0.080   3.465   2.678
  961TIP3   OH2 2825   1.637   3.670   0.596
  961TIP3    H1 2826   1.602   3.684   0.508
  961TIP3    H2 2827   1.559   3.666   0.651
  962TIP3   OH2 2828   2.542   6.332   2.394
  962TIP3    H1 2829   2.471   6.383   2.355
  962TIP3    H2 2830   2.582   6.285   2.321
  963TIP3   OH2 2831   2.360   5.229   0.215
  963TIP3    H1 2832   2.360   5.156   0.153
  963TIP3    H2 2833   2.346   5.307   0.162
  964TIP3   OH2 2834   0.103   7.808   1.218
  964TIP3    H1 2835   0.092   7.847   1.304
  964TIP3    H2 2836   0.104   7.714   1.233
  965TIP3   OH2 2837   7.596   4.276   0.892
  965TIP3    H1 2838   7.595   4.245   0.802
  965TIP3    H2 2839   7.686   4.303   0.908
  966TIP3   OH2 2840   0.560   4.139   5.187
  966TIP3    H1 2841   0.513   4.152   5.104
  966TIP3    H2 2842   0.638   4.089   5.163
  967TIP3   OH2 2843   2.373   6.306   0.856
  967TIP3    H1 2844   2.304   6.310   0.922
  967TIP3    H2 2845   2.349   6.374   0.793
  968TIP3   OH2 2846   2.201   0.560   3.620
  968TIP3    H1 2847   2.199   0.618   3.696
  968TIP3    H2 2848   2.232   0.615   3.548
  969TIP3   OH2 2849   6.658   5.238   5.344
  969TIP3    H1 2850   6.591   5.175   5.314
  969TIP3    H2 2851   6.618   5.323   5.331
  970TIP3   OH2 2852   6.815   1.019   4.356
  970TIP3    H1 2853   6.856   0.978   4.433
  970TIP3    H2 2854   6.860   0.979   4.281
  971TIP3   OH2 2855   2.599   4.273   5.805
  971TIP3    H1 2856   2.542   4.234   5.871
  971TIP3    H2 2857   2.543   4.279   5.727
  972TIP3   OH2 2858   2.450   4.938   2.465
  972TIP3    H1 2859   2.462   5.030   2.489
  972TIP3    H2 2860   2.530   4.895   2.496
  973TIP3   OH2 2861   6.674   5.419   4.789
  973TIP3    H1 2862   6.629   5.387   4.710
  973TIP3    H2 2863   6.612   5.480   4.828
  974TIP3   OH2 2864   1.852   6.621   6.217
  974TIP3    H1 2865   1.793   6.607   6.291
  974TIP3    H2 2866   1.795   6.646   6.145
  975TIP3   OH2 2867   2.231   2.192   6.494
  975TIP3    H1 2868   2.215   2.104   6.460
  975TIP3    H2 2869   2.218   2.184   6.589
  976TIP3   OH2 2870   4.992   1.609   5.934
  976TIP3    H1 2871   4.940   1.632   6.011
  976TIP3    H2 2872   4.995   1.689   5.882
  977TIP3   OH2 2873   2.484   3.332   2.833
  977TIP3    H1 2874   2.410   3.298   2.783
  977TIP3    H2 2875   2.558   3.330   2.772
  978TIP3   OH2 2876   3.071   5.771   0.934
  978TIP3    H1 2877   2.994   5.823   0.909
  978TIP3    H2 2878   3.034   5.694   0.978
  979TIP3   OH2 2879   7.142   1.363   6.475
  979TIP3    H1 2880   7.222   1.368   6.423
  979TIP3    H2 2881   7.086   1.302   6.426
  980TIP3   OH2 2882   2.940   2.127   0.750
  980TIP3    H1 2883   2.937   2.147   0.844
  980TIP3    H2 2884   3.009   2.183   0.716
  981TIP3   OH2 2885   7.344   7.467   4.215
  981TIP3    H1 2886   7.309   7.378   4.218
  981TIP3    H2 2887   7.421   7.465   4.271
  982TIP3   OH2 2888   7.681   3.482   4.744
  982TIP3    H1 2889   7.752   3.545   4.753
  982TIP3    H2 2890   7.624   3.520   4.678
  983TIP3   OH2 2891   2.809   6.265   3.235
  983TIP3    H1 2892   2.875   6.219   3.288
  983TIP3    H2 2893   2.857   6.294   3.158
  984TIP3   OH2 2894   7.543   2.043   5.511
  984TIP3    H1 2895   7.537   1.959   5.467
  984TIP3    H2 2896   7.466   2.045   5.569
  985TIP3   OH2 2897   4.211   3.320   0.103
  985TIP3    H1 2898   4.139   3.332   0.164
  985TIP3    H2 2899   4.290   3.326   0.157
  986TIP3   OH2 2900   2.689   4.944   1.390
  986TIP3    H1 2901   2.651   5.028   1.416
  986TIP3    H2 2902   2.782   4.963   1.378
  987TIP3   OH2 2903   7.390   5.484   6.198
  987TIP3    H1 2904   7.395   5.453   6.289
  987TIP3    H2 2905   7.470   5.451   6.157
  988TIP3   OH2 2906   3.219   3.215   4.111
  988TIP3    H1 2907   3.257   3.163   4.182
  988TIP3    H2 2908   3.180   3.291   4.156
  989TIP3   OH2 2909   0.594   0.950   0.902
  989TIP3    H1 2910   0.619   0.865   0.939
  989TIP3    H2 2911   0.586   1.007   0.979
  990TIP3   OH2 2912   3.219   3.691   5.628
  990TIP3    H1 2913   3.257   3.737   5.553
  990TIP3    H2 2914   3.133   3.732   5.640
  991TIP3   OH2 2915   2.525   7.080   3.279
  991TIP3    H1 2916   2.609   7.035   3.272
  991TIP3    H2 2917   2.535   7.159   3.226
  992TIP3   OH2 2918   4.884   3.949   3.192
  992TIP3    H1 2919   4.790   3.934   3.200
  992TIP3    H2 2920   4.898   3.967   3.099
  993TIP3   OH2 2921   7.704   4.639   2.149
  993TIP3    H1 2922   7.757   4.678   2.218
  993TIP3    H2 2923   7.634   4.702   2.134
  994TIP3   OH2 2924   0.274   4.175   6.472
  994TIP3    H1 2925   0.306   4.126   6.397
  994TIP3    H2 2926   0.225   4.111   6.524
  995TIP3   OH2 2927   3.011   6.523   3.255
  995TIP3    H1 2928   2.983   6.613   3.274
  995TIP3    H2 2929   2.955   6.469   3.311
  996TIP3   OH2 2930   0.461   3.778   3.055
  996TIP3    H1 2931   0.469   3.683   3.051
  996TIP3    H2 2932   0.470   3.799   3.148
  997TIP3   OH2 2933   7.604   5.179   1.022
  997TIP3    H1 2934   7.636   5.264   0.991
  997TIP3    H2 2935   7.607   5.123   0.945
  998TIP3   OH2 2936   5.747   2.600   6.231
  998TIP3    H1 2937   5.763   2.506   6.243
  998TIP3    H2 2938   5.827   2.632   6.189
  999TIP3   OH2 2939   6.220   3.034   5.355
  999TIP3    H1 2940   6.218   3.129   5.364
  999TIP3    H2 2941   6.300   3.007   5.399
 1000TIP3   OH2 2942   2.864   6.324   6.247
 1000TIP3    H1 2943   2.827   6.405   6.284
 1000TIP3    H2 2944   2.880   6.345   6.155
 1001TIP3   OH2 2945   4.487   6.151   5.660
 1001TIP3    H1 2946   4.400   6.173   5.626
 1001TIP3    H2 2947   4.515   6.076   5.607
 1002TIP3   OH2 2948   1.158   2.377   6.546
 1002TIP3    H1 2949   1.126   2.376   6.636
 1002TIP3    H2 2950   1.210   2.458   6.540
 1003TIP3   OH2 2951   6.372   5.191   5.575
 1003TIP3    H1 2952   6.402   5.116   5.523
 1003TIP3    H2 2953   6.380   5.162   5.666
 1004TIP3   OH2 2954   3.412   6.631   3.444
 1004TIP3    H1 2955   3.334   6.612   3.495
 1004TIP3    H2 2956   3.383   6.631   3.353
 1005TIP3   OH2 2957   2.055   4.079   3.869
 1005TIP3    H1 2958   1.991   4.012   3.895
 1005TIP3    H2 2959   2.066   4.133   3.948
 1006TIP3   OH2 2960   1.455   2.007   0.346
 1006TIP3    H1 2961   1.535   2.038   0.388
 1006TIP3    H2 2962   1.443   1.918   0.377
 1007TIP3   OH2 2963   4.452   5.926   1.847
 1007TIP3    H1 2964   4.459   5.893   1.757
 1007TIP3    H2 2965   4.541   5.921   1.881
 1008TIP3   OH2 2966   0.608   3.362   1.532
 1008TIP3    H1 2967   0.661   3.284   1.515
 1008TIP3    H2 2968   0.518   3.332   1.521
 1009TIP3   OH2 2969   3.137   4.867   5.249
 1009TIP3    H1 2970   3.115   4.826   5.165
 1009TIP3    H2 2971   3.196   4.939   5.226
 1010TIP3   OH2 2972   4.173   6.643   3.821
 1010TIP3    H1 2973   4.132   6.594   3.892
 1010TIP3    H2 2974   4.263   6.656   3.849
 1011TIP3   OH2 2975   7.502   0.682   4.154
 1011TIP3    H1 2976   7.418   0.636   4.159
 1011TIP3    H2 2977   7.562   0.630   4.207
 1012TIP3   OH2 2978   3.560   1.049   4.116
 1012TIP3    H1 2979   3.645   1.061   4.073
 1012TIP3    H2 2980   3.570   0.967   4.165
 1013TIP3   OH2 2981   1.257   2.964   6.202
 1013TIP3    H1 2982   1.345   2.928   6.204
 1013TIP3    H2 2983   1.226   2.957   6.293
 1014TIP3   OH2 2984   5.217   5.887   3.921
 1014TIP3    H1 2985   5.275   5.963   3.930
 1014TIP3    H2 2986   5.173   5.881   4.006
 1015TIP3   OH2 2987   6.196   5.458   0.861
 1015TIP3    H1 2988   6.249   5.388   0.824
 1015TIP3    H2 2989   6.129   5.475   0.795
 1016TIP3   OH2 2990   4.241   6.923   2.715
 1016TIP3    H1 2991   4.208   6.855   2.774
 1016TIP3    H2 2992   4.272   6.992   2.773
 1017TIP3   OH2 2993   1.740   4.755   0.499
 1017TIP3    H1 2994   1.703   4.670   0.477
 1017TIP3    H2 2995   1.814   4.735   0.557
 1018TIP3   OH2 2996   2.341   7.807   1.419
 1018TIP3    H1 2997   2.257   7.827   1.460
 1018TIP3    H2 2998   2.371   7.727   1.461
 1019TIP3   OH2 2999   4.458   2.923   2.129
 1019TIP3    H1 3000   4.455   2.841   2.080
 1019TIP3    H2 3001   4.552   2.937   2.145
 1020TIP3   OH2 3002   1.120   1.480   0.620
 1020TIP3    H1 3003   1.151   1.568   0.598
 1020TIP3    H2 3004   1.048   1.494   0.682
 1021TIP3   OH2 3005   6.082   1.961   3.131
 1021TIP3    H1 3006   5.992   1.994   3.136
 1021TIP3    H2 3007   6.074   1.869   3.158
 1022TIP3   OH2 3008   2.105   7.454   3.241
 1022TIP3    H1 3009   2.038   7.518   3.267
 1022TIP3    H2 3010   2.066   7.409   3.166
 1023TIP3   OH2 3011   0.456   4.440   6.297
 1023TIP3    H1 3012   0.468   4.358   6.345
 1023TIP3    H2 3013   0.544   4.462   6.266
 1024TIP3   OH2 3014   6.560   3.001   3.477
 1024TIP3    H1 3015   6.602   2.931   3.528
 1024TIP3    H2 3016   6.467   2.988   3.490
 1025TIP3   OH2 3017   6.132   0.130   6.282
 1025TIP3    H1 3018   6.058   0.104   6.337
 1025TIP3    H2 3019   6.128   0.070   6.207
 1026TIP3   OH2 3020   3.322   5.032   0.511
 1026TIP3    H1 3021   3.273   5.114   0.504
 1026TIP3    H2 3022   3.401   5.046   0.459
 1027TIP3   OH2 3023   2.254   7.812   2.495
 1027TIP3    H1 3024   2.294   7.753   2.560
 1027TIP3    H2 3025   2.242   7.894   2.542
 1028TIP3   OH2 3026   2.542   1.245   5.529
 1028TIP3    H1 3027   2.563   1.338   5.541
 1028TIP3    H2 3028   2.476   1.244   5.460
 1029TIP3   OH2 3029   5.111   2.269   4.328
 1029TIP3    H1 3030   5.024   2.293   4.360
 1029TIP3    H2 3031   5.103   2.271   4.232
 1030TIP3   OH2 3032   5.996   2.586   4.850
 1030TIP3    H1 3033   6.058   2.554   4.915
 1030TIP3    H2 3034   5.944   2.509   4.826
 1031TIP3   OH2 3035   1.741   6.963   2.053
 1031TIP3    H1 3036   1.718   6.896   1.989
 1031TIP3    H2 3037   1.804   7.019   2.007
 1032TIP3   OH2 3038   1.800   2.922   3.369
 1032TIP3    H1 3039   1.746   2.848   3.397
 1032TIP3    H2 3040   1.869   2.883   3.315
 1033TIP3   OH2 3041   5.045   3.510   4.379
 1033TIP3    H1 3042   5.038   3.416   4.392
 1033TIP3    H2 3043   5.084   3.520   4.292
 1034TIP3   OH2 3044   7.914   6.248   6.638
 1034TIP3    H1 3045   7.837   6.199   6.607
 1034TIP3    H2 3046   7.907   6.245   6.734
 1035TIP3   OH2 3047   5.204   1.837   2.563
 1035TIP3    H1 3048   5.172   1.924   2.537
 1035TIP3    H2 3049   5.285   1.826   2.513
 1036TIP3   OH2 3050   7.917   1.807   3.670
 1036TIP3    H1 3051   7.942   1.741   3.734
 1036TIP3    H2 3052   7.913   1.760   3.587
 1037TIP3   OH2 3053   2.830   0.422   2.874
 1037TIP3    H1 3054   2.856   0.414   2.966
 1037TIP3    H2 3055   2.743   0.461   2.877
 1038TIP3   OH2 3056   3.475   2.477   1.976
 1038TIP3    H1 3057   3.521   2.396   1.955
 1038TIP3    H2 3058   3.440   2.463   2.064
 1039TIP3   OH2 3059   1.140   5.785   5.172
 1039TIP3    H1 3060   1.150   5.866   5.221
 1039TIP3    H2 3061   1.047   5.764   5.180
 1040TIP3   OH2 3062   1.649   0.704   5.505
 1040TIP3    H1 3063   1.565   0.661   5.525
 1040TIP3    H2 3064   1.667   0.758   5.581
 1041TIP3   OH2 3065   8.182   1.643   1.776
 1041TIP3    H1 3066   8.165   1.734   1.800
 1041TIP3    H2 3067   8.107   1.618   1.722
 1042TIP3   OH2 3068   8.127   6.490   4.880
 1042TIP3    H1 3069   8.048   6.469   4.829
 1042TIP3    H2 3070   8.143   6.411   4.932
 1043TIP3   OH2 3071   4.062   1.197   1.898
 1043TIP3    H1 3072   4.032   1.272   1.848
 1043TIP3    H2 3073   4.138   1.165   1.850
 1044TIP3   OH2 3074   3.633   4.704   2.952
 1044TIP3    H1 3075   3.622   4.768   2.881
 1044TIP3    H2 3076   3.711   4.734   2.998
 1045TIP3   OH2 3077   3.568   3.441   5.449
 1045TIP3    H1 3078   3.548   3.522   5.401
 1045TIP3    H2 3079   3.663   3.433   5.444
 1046TIP3   OH2 3080   0.987   3.010   1.169
 1046TIP3    H1 3081   1.014   3.009   1.261
 1046TIP3    H2 3082   0.975   2.917   1.147
 1047TIP3   OH2 3083   5.055   2.195   1.024
 1047TIP3    H1 3084   5.078   2.154   0.941
 1047TIP3    H2 3085   4.977   2.147   1.053
 1048TIP3   OH2 3086   4.747   2.039   3.633
 1048TIP3    H1 3087   4.754   2.013   3.725
 1048TIP3    H2 3088   4.669   1.994   3.602
 1049TIP3   OH2 3089   0.470   0.125   0.162
 1049TIP3    H1 3090   0.460   0.040   0.204
 1049TIP3    H2 3091   0.523   0.176   0.223
 1050TIP3   OH2 3092   3.547   1.859   5.879
 1050TIP3    H1 3093   3.568   1.914   5.954
 1050TIP3    H2 3094   3.464   1.893   5.846
 1051TIP3   OH2 3095   7.939   2.012   2.117
 1051TIP3    H1 3096   7.963   1.958   2.041
 1051TIP3    H2 3097   7.884   1.955   2.170
 1052TIP3   OH2 3098   8.038   5.681   1.278
 1052TIP3    H1 3099   7.950   5.674   1.241
 1052TIP3    H2 3100   8.073   5.592   1.274
 1053TIP3   OH2 3101   3.159   2.744   4.852
 1053TIP3    H1 3102   3.232   2.789   4.893
 1053TIP3    H2 3103   3.200   2.678   4.796
 1054TIP3   OH2 3104   0.956   1.201   4.406
 1054TIP3    H1 3105   1.035   1.250   4.382
 1054TIP3    H2 3106   0.885   1.264   4.397
 1055TIP3   OH2 3107   6.757   0.567   6.358
 1055TIP3    H1 3108   6.812   0.602   6.429
 1055TIP3    H2 3109   6.820   0.539   6.291
 1056TIP3   OH2 3110   2.939   0.470   2.498
 1056TIP3    H1 3111   2.974   0.415   2.429
 1056TIP3    H2 3112   2.886   0.411   2.552
 1057TIP3   OH2 3113   3.795   0.160   5.295
 1057TIP3    H1 3114   3.768   0.199   5.379
 1057TIP3    H2 3115   3.882   0.125   5.312
 1058TIP3   OH2 3116   2.086   2.798   6.212
 1058TIP3    H1 3117   2.119   2.733   6.151
 1058TIP3    H2 3118   2.109   2.764   6.299
 1059TIP3   OH2 3119   8.121   4.926   2.425
 1059TIP3    H1 3120   8.207   4.967   2.432
 1059TIP3    H2 3121   8.099   4.901   2.515
 1060TIP3   OH2 3122   0.245   4.913   6.564
 1060TIP3    H1 3123   0.244   4.817   6.563
 1060TIP3    H2 3124   0.248   4.938   6.472
 1061TIP3   OH2 3125   8.053   2.929   0.784
 1061TIP3    H1 3126   8.146   2.908   0.795
 1061TIP3    H2 3127   8.039   3.007   0.838
 1062TIP3   OH2 3128   6.709   5.236   0.517
 1062TIP3    H1 3129   6.713   5.164   0.581
 1062TIP3    H2 3130   6.666   5.198   0.440
 1063TIP3   OH2 3131   7.534   5.709   6.097
 1063TIP3    H1 3132   7.525   5.788   6.150
 1063TIP3    H2 3133   7.450   5.664   6.106
 1064TIP3   OH2 3134   3.083   5.310   5.719
 1064TIP3    H1 3135   3.128   5.393   5.734
 1064TIP3    H2 3136   3.018   5.305   5.789
 1065TIP3   OH2 3137   6.385   6.969   0.290
 1065TIP3    H1 3138   6.382   6.876   0.270
 1065TIP3    H2 3139   6.439   6.976   0.368
 1066TIP3   OH2 3140   4.625   1.729   2.035
 1066TIP3    H1 3141   4.684   1.762   2.102
 1066TIP3    H2 3142   4.591   1.647   2.071
 1067TIP3   OH2 3143   7.175   7.352   0.553
 1067TIP3    H1 3144   7.131   7.277   0.593
 1067TIP3    H2 3145   7.239   7.379   0.618
 1068TIP3   OH2 3146   8.136   7.578   3.290
 1068TIP3    H1 3147   8.056   7.551   3.336
 1068TIP3    H2 3148   8.208   7.543   3.343
 1069TIP3   OH2 3149   6.627   6.208   3.845
 1069TIP3    H1 3150   6.711   6.244   3.875
 1069TIP3    H2 3151   6.646   6.173   3.758
 1070TIP3   OH2 3152   4.467   2.529   6.364
 1070TIP3    H1 3153   4.410   2.555   6.436
 1070TIP3    H2 3154   4.515   2.609   6.341
 1071TIP3   OH2 3155   0.300   4.480   1.622
 1071TIP3    H1 3156   0.287   4.528   1.541
 1071TIP3    H2 3157   0.288   4.546   1.691
 1072TIP3   OH2 3158   0.049   0.455   2.393
 1072TIP3    H1 3159   0.116   0.519   2.368
 1072TIP3    H2 3160   0.033   0.405   2.313
 1073TIP3   OH2 3161   4.182   5.896   0.841
 1073TIP3    H1 3162   4.188   5.943   0.758
 1073TIP3    H2 3163   4.211   5.959   0.907
 1074TIP3   OH2 3164   7.070   0.980   2.165
 1074TIP3    H1 3165   7.058   1.038   2.090
 1074TIP3    H2 3166   6.989   0.929   2.168
 1075TIP3   OH2 3167   4.211   6.284   0.883
 1075TIP3    H1 3168   4.243   6.341   0.814
 1075TIP3    H2 3169   4.140   6.234   0.842
 1076TIP3   OH2 3170   8.086   1.911   4.466
 1076TIP3    H1 3171   8.122   1.998   4.446
 1076TIP3    H2 3172   8.113   1.894   4.556
 1077TIP3   OH2 3173   3.746   0.604   1.673
 1077TIP3    H1 3174   3.718   0.524   1.627
 1077TIP3    H2 3175   3.838   0.614   1.647
 1078TIP3   OH2 3176   2.607   1.873   2.312
 1078TIP3    H1 3177   2.540   1.856   2.246
 1078TIP3    H2 3178   2.662   1.941   2.273
 1079TIP3   OH2 3179   4.218   6.445   2.144
 1079TIP3    H1 3180   4.304   6.485   2.144
 1079TIP3    H2 3181   4.173   6.483   2.219
 1080TIP3   OH2 3182   4.545   7.723   6.181
 1080TIP3    H1 3183   4.479   7.734   6.113
 1080TIP3    H2 3184   4.599   7.802   6.174
 1081TIP3   OH2 3185   2.184   0.537   5.926
 1081TIP3    H1 3186   2.191   0.444   5.902
 1081TIP3    H2 3187   2.144   0.579   5.849
 1082TIP3   OH2 3188   2.398   1.773   3.075
 1082TIP3    H1 3189   2.489   1.747   3.062
 1082TIP3    H2 3190   2.373   1.815   2.993
 1083TIP3   OH2 3191   3.340   3.402   2.345
 1083TIP3    H1 3192   3.314   3.340   2.277
 1083TIP3    H2 3193   3.382   3.474   2.296
 1084TIP3   OH2 3194   7.308   1.504   4.446
 1084TIP3    H1 3195   7.353   1.450   4.511
 1084TIP3    H2 3196   7.351   1.589   4.451
 1085TIP3   OH2 3197   1.569   6.107   3.487
 1085TIP3    H1 3198   1.541   6.025   3.528
 1085TIP3    H2 3199   1.583   6.167   3.561
 1086TIP3   OH2 3200   6.317   0.759   5.519
 1086TIP3    H1 3201   6.356   0.771   5.605
 1086TIP3    H2 3202   6.272   0.675   5.524
 1087TIP3   OH2 3203   7.223   5.501   5.568
 1087TIP3    H1 3204   7.163   5.575   5.577
 1087TIP3    H2 3205   7.168   5.430   5.535
 1088TIP3   OH2 3206   6.207   2.715   5.613
 1088TIP3    H1 3207   6.120   2.731   5.576
 1088TIP3    H2 3208   6.264   2.775   5.566
 1089TIP3   OH2 3209   7.734   0.596   2.831
 1089TIP3    H1 3210   7.774   0.683   2.838
 1089TIP3    H2 3211   7.807   0.538   2.805
 1090TIP3   OH2 3212   8.077   5.818   0.275
 1090TIP3    H1 3213   8.030   5.899   0.295
 1090TIP3    H2 3214   8.163   5.848   0.244
 1091TIP3   OH2 3215   5.217   1.673   4.205
 1091TIP3    H1 3216   5.162   1.621   4.146
 1091TIP3    H2 3217   5.306   1.644   4.186
 1092TIP3   OH2 3218   0.756   2.595   5.288
 1092TIP3    H1 3219   0.826   2.602   5.223
 1092TIP3    H2 3220   0.796   2.549   5.362
 1093TIP3   OH2 3221   1.837   7.654   1.848
 1093TIP3    H1 3222   1.929   7.679   1.853
 1093TIP3    H2 3223   1.809   7.682   1.761
 1094TIP3   OH2 3224   6.627   7.602   4.587
 1094TIP3    H1 3225   6.592   7.662   4.653
 1094TIP3    H2 3226   6.550   7.558   4.552
 1095TIP3   OH2 3227   3.239   4.401   2.785
 1095TIP3    H1 3228   3.298   4.343   2.737
 1095TIP3    H2 3229   3.160   4.405   2.732
 1096TIP3   OH2 3230   0.875   2.883   3.793
 1096TIP3    H1 3231   0.864   2.843   3.879
 1096TIP3    H2 3232   0.963   2.857   3.765
 1097TIP3   OH2 3233   7.707   6.392   1.999
 1097TIP3    H1 3234   7.659   6.313   1.975
 1097TIP3    H2 3235   7.720   6.385   2.094
 1098TIP3   OH2 3236   7.141   7.673   0.311
 1098TIP3    H1 3237   7.075   7.618   0.352
 1098TIP3    H2 3238   7.146   7.751   0.365
 1099TIP3   OH2 3239   5.969   5.280   0.521
 1099TIP3    H1 3240   5.911   5.355   0.505
 1099TIP3    H2 3241   6.011   5.264   0.436
 1100TIP3   OH2 3242   5.318   2.325   2.481
 1100TIP3    H1 3243   5.337   2.250   2.424
 1100TIP3    H2 3244   5.364   2.398   2.439
 1101TIP3   OH2 3245   2.651   2.906   4.245
 1101TIP3    H1 3246   2.727   2.964   4.255
 1101TIP3    H2 3247   2.637   2.901   4.150
 1102TIP3   OH2 3248   3.066   4.597   0.149
 1102TIP3    H1 3249   3.117   4.516   0.158
 1102TIP3    H2 3250   3.004   4.595   0.223
 1103TIP3   OH2 3251   4.790   5.176   2.428
 1103TIP3    H1 3252   4.860   5.240   2.413
 1103TIP3    H2 3253   4.798   5.153   2.520
 1104TIP3   OH2 3254   6.176   5.288   3.683
 1104TIP3    H1 3255   6.203   5.274   3.774
 1104TIP3    H2 3256   6.257   5.277   3.632
 1105TIP3   OH2 3257   2.153   2.773   4.578
 1105TIP3    H1 3258   2.192   2.811   4.658
 1105TIP3    H2 3259   2.095   2.841   4.545
 1106TIP3   OH2 3260   7.118   0.485   2.215
 1106TIP3    H1 3261   7.100   0.393   2.235
 1106TIP3    H2 3262   7.096   0.532   2.295
 1107TIP3   OH2 3263   6.405   2.487   2.532
 1107TIP3    H1 3264   6.466   2.420   2.560
 1107TIP3    H2 3265   6.320   2.443   2.527
 1108TIP3   OH2 3266   3.868   6.394   2.417
 1108TIP3    H1 3267   3.797   6.439   2.371
 1108TIP3    H2 3268   3.903   6.333   2.352
 1109TIP3   OH2 3269   1.263   6.469   1.743
 1109TIP3    H1 3270   1.286   6.551   1.786
 1109TIP3    H2 3271   1.299   6.401   1.800
 1110TIP3   OH2 3272   5.100   5.361   0.502
 1110TIP3    H1 3273   5.125   5.325   0.587
 1110TIP3    H2 3274   5.017   5.317   0.481
 1111TIP3   OH2 3275   7.848   6.509   0.963
 1111TIP3    H1 3276   7.849   6.581   0.899
 1111TIP3    H2 3277   7.779   6.450   0.930
 1112TIP3   OH2 3278   2.375   4.688   5.692
 1112TIP3    H1 3279   2.291   4.707   5.650
 1112TIP3    H2 3280   2.361   4.605   5.737
 1113TIP3   OH2 3281   6.797   1.833   6.685
 1113TIP3    H1 3282   6.738   1.780   6.631
 1113TIP3    H2 3283   6.860   1.871   6.624
 1114TIP3   OH2 3284   3.744   4.467   6.674
 1114TIP3    H1 3285   3.824   4.515   6.695
 1114TIP3    H2 3286   3.705   4.448   6.759
 1115TIP3   OH2 3287   1.930   5.184   2.269
 1115TIP3    H1 3288   1.862   5.122   2.296
 1115TIP3    H2 3289   1.941   5.168   2.175
 1116TIP3   OH2 3290   7.075   5.015   5.749
 1116TIP3    H1 3291   7.114   5.007   5.836
 1116TIP3    H2 3292   6.986   5.046   5.765
 1117TIP3   OH2 3293   6.125   6.958   3.295
 1117TIP3    H1 3294   6.213   6.920   3.295
 1117TIP3    H2 3295   6.121   7.010   3.215
 1118TIP3   OH2 3296   5.014   3.085   5.097
 1118TIP3    H1 3297   5.079   3.117   5.034
 1118TIP3    H2 3298   5.023   2.989   5.095
 1119TIP3   OH2 3299   6.960   5.286   1.448
 1119TIP3    H1 3300   6.876   5.279   1.403
 1119TIP3    H2 3301   6.988   5.195   1.462
 1120TIP3   OH2 3302   0.957   0.961   6.525
 1120TIP3    H1 3303   1.026   1.003   6.576
 1120TIP3    H2 3304   0.896   0.926   6.590
 1121TIP3   OH2 3305   7.838   5.883   2.219
 1121TIP3    H1 3306   7.907   5.917   2.276
 1121TIP3    H2 3307   7.774   5.954   2.215
 1122TIP3   OH2 3308   4.809   1.312   3.389
 1122TIP3    H1 3309   4.783   1.396   3.352
 1122TIP3    H2 3310   4.899   1.325   3.417
 1123TIP3   OH2 3311   6.186   6.442   4.842
 1123TIP3    H1 3312   6.106   6.457   4.791
 1123TIP3    H2 3313   6.257   6.462   4.782
 1124TIP3   OH2 3314   1.397   4.536   4.657
 1124TIP3    H1 3315   1.395   4.495   4.571
 1124TIP3    H2 3316   1.378   4.466   4.718
 1125TIP3   OH2 3317   4.724   6.392   4.703
 1125TIP3    H1 3318   4.689   6.352   4.783
 1125TIP3    H2 3319   4.742   6.318   4.645
 1126TIP3   OH2 3320   3.119   6.891   3.568
 1126TIP3    H1 3321   3.135   6.851   3.483
 1126TIP3    H2 3322   3.062   6.828   3.613
 1127TIP3   OH2 3323   0.678   3.057   2.764
 1127TIP3    H1 3324   0.610   3.045   2.829
 1127TIP3    H2 3325   0.670   3.149   2.737
 1128TIP3   OH2 3326   6.498   4.119   2.356
 1128TIP3    H1 3327   6.539   4.033   2.344
 1128TIP3    H2 3328   6.499   4.133   2.450
 1129TIP3   OH2 3329  -0.015   5.984   4.214
 1129TIP3    H1 3330   0.072   5.950   4.193
 1129TIP3    H2 3331  -0.042   5.933   4.290
 1130TIP3   OH2 3332   0.519   6.997   2.690
 1130TIP3    H1 3333   0.604   7.025   2.658
 1130TIP3    H2 3334   0.527   7.000   2.785
 1131TIP3   OH2 3335   6.766   1.442   5.362
 1131TIP3    H1 3336   6.718   1.425   5.281
 1131TIP3    H2 3337   6.853   1.406   5.347
 1132TIP3   OH2 3338   4.393   5.637   0.378
 1132TIP3    H1 3339   4.405   5.590   0.461
 1132TIP3    H2 3340   4.317   5.693   0.393
 1133TIP3   OH2 3341   0.432   3.492   0.341
 1133TIP3    H1 3342   0.364   3.428   0.321
 1133TIP3    H2 3343   0.397   3.576   0.312
 1134TIP3   OH2 3344   6.054   7.338   1.419
 1134TIP3    H1 3345   6.134   7.370   1.462
 1134TIP3    H2 3346   6.010   7.287   1.487
 1135TIP3   OH2 3347   8.046   2.014   4.189
 1135TIP3    H1 3348   7.998   1.963   4.124
 1135TIP3    H2 3349   8.009   2.102   4.183
 1136TIP3   OH2 3350   1.924   0.447   4.664
 1136TIP3    H1 3351   1.855   0.494   4.712
 1136TIP3    H2 3352   1.995   0.438   4.728
 1137TIP3   OH2 3353   3.790   0.620   3.325
 1137TIP3    H1 3354   3.848   0.582   3.391
 1137TIP3    H2 3355   3.827   0.593   3.241
 1138TIP3   OH2 3356   0.736   3.572   6.208
 1138TIP3    H1 3357   0.795   3.545   6.137
 1138TIP3    H2 3358   0.751   3.507   6.277
 1139TIP3   OH2 3359   3.416   7.015   1.349
 1139TIP3    H1 3360   3.384   6.933   1.313
 1139TIP3    H2 3361   3.339   7.057   1.387
 1140TIP3   OH2 3362   8.145   7.079   1.904
 1140TIP3    H1 3363   8.105   7.076   1.990
 1140TIP3    H2 3364   8.229   7.034   1.915
 1141TIP3   OH2 3365   7.801   5.944   5.648
 1141TIP3    H1 3366   7.745   5.882   5.696
 1141TIP3    H2 3367   7.769   6.030   5.675
 1142TIP3   OH2 3368   8.225   1.488   4.556
 1142TIP3    H1 3369   8.311   1.451   4.535
 1142TIP3    H2 3370   8.195   1.527   4.475
 1143TIP3   OH2 3371   4.240   3.927   1.594
 1143TIP3    H1 3372   4.327   3.950   1.625
 1143TIP3    H2 3373   4.193   3.900   1.674
 1144TIP3   OH2 3374   0.413   3.744   0.660
 1144TIP3    H1 3375   0.406   3.839   0.669
 1144TIP3    H2 3376   0.453   3.730   0.575
 1145TIP3   OH2 3377   6.711   0.506   3.446
 1145TIP3    H1 3378   6.670   0.490   3.531
 1145TIP3    H2 3379   6.728   0.419   3.410
 1146TIP3   OH2 3380   4.468   3.145   6.244
 1146TIP3    H1 3381   4.508   3.232   6.247
 1146TIP3    H2 3382   4.426   3.140   6.158
 1147TIP3   OH2 3383   2.709   4.732   0.659
 1147TIP3    H1 3384   2.691   4.824   0.636
 1147TIP3    H2 3385   2.657   4.717   0.738
 1148TIP3   OH2 3386   4.426   1.900   2.236
 1148TIP3    H1 3387   4.362   1.945   2.182
 1148TIP3    H2 3388   4.399   1.808   2.234
 1149TIP3   OH2 3389   4.358   3.642   5.592
 1149TIP3    H1 3390   4.380   3.707   5.659
 1149TIP3    H2 3391   4.336   3.563   5.642
 1150TIP3   OH2 3392   5.066   0.682   2.444
 1150TIP3    H1 3393   4.978   0.702   2.476
 1150TIP3    H2 3394   5.101   0.620   2.508
 1151TIP3   OH2 3395   3.534   5.130   4.450
 1151TIP3    H1 3396   3.527   5.147   4.544
 1151TIP3    H2 3397   3.443   5.117   4.421
 1152TIP3   OH2 3398   4.960   2.626   0.423
 1152TIP3    H1 3399   4.916   2.562   0.479
 1152TIP3    H2 3400   5.042   2.645   0.468
 1153TIP3   OH2 3401   3.453   4.698   2.695
 1153TIP3    H1 3402   3.384   4.687   2.760
 1153TIP3    H2 3403   3.492   4.611   2.686
 1154TIP3   OH2 3404   2.195   4.831   1.148
 1154TIP3    H1 3405   2.275   4.857   1.194
 1154TIP3    H2 3406   2.137   4.906   1.156
 1155TIP3   OH2 3407   5.778   3.713   6.421
 1155TIP3    H1 3408   5.720   3.710   6.497
 1155TIP3    H2 3409   5.834   3.789   6.436
 1156TIP3   OH2 3410   1.647   5.943   0.277
 1156TIP3    H1 3411   1.578   6.009   0.269
 1156TIP3    H2 3412   1.663   5.915   0.187
 1157TIP3   OH2 3413   7.368   3.047   5.591
 1157TIP3    H1 3414   7.450   3.096   5.602
 1157TIP3    H2 3415   7.375   3.008   5.504
 1158TIP3   OH2 3416   7.643   0.717   5.378
 1158TIP3    H1 3417   7.555   0.680   5.373
 1158TIP3    H2 3418   7.630   0.806   5.410
 1159TIP3   OH2 3419   1.218   3.084   5.512
 1159TIP3    H1 3420   1.137   3.087   5.562
 1159TIP3    H2 3421   1.282   3.047   5.573
 1160TIP3   OH2 3422   1.067   4.409   0.131
 1160TIP3    H1 3423   1.036   4.368   0.212
 1160TIP3    H2 3424   1.034   4.498   0.135
 1161TIP3   OH2 3425   8.120   0.792   5.135
 1161TIP3    H1 3426   8.028   0.766   5.128
 1161TIP3    H2 3427   8.133   0.856   5.065
 1162TIP3   OH2 3428   4.325   3.983   1.026
 1162TIP3    H1 3429   4.282   3.975   1.112
 1162TIP3    H2 3430   4.385   3.909   1.022
 1163TIP3   OH2 3431   5.136   2.217   3.327
 1163TIP3    H1 3432   5.071   2.211   3.397
 1163TIP3    H2 3433   5.209   2.265   3.367
 1164TIP3   OH2 3434   6.257   5.808   1.565
 1164TIP3    H1 3435   6.324   5.873   1.545
 1164TIP3    H2 3436   6.305   5.735   1.604
 1165TIP3   OH2 3437   7.253   6.168   2.296
 1165TIP3    H1 3438   7.311   6.199   2.365
 1165TIP3    H2 3439   7.275   6.220   2.219
 1166TIP3   OH2 3440   6.250   2.942   3.239
 1166TIP3    H1 3441   6.226   2.954   3.146
 1166TIP3    H2 3442   6.301   2.861   3.240
 1167TIP3   OH2 3443   4.756   4.819   6.248
 1167TIP3    H1 3444   4.745   4.754   6.318
 1167TIP3    H2 3445   4.800   4.770   6.178
 1168TIP3   OH2 3446   5.859   3.317   0.269
 1168TIP3    H1 3447   5.864   3.393   0.328
 1168TIP3    H2 3448   5.832   3.245   0.325
 1169TIP3   OH2 3449   3.619   5.118   6.555
 1169TIP3    H1 3450   3.553   5.122   6.624
 1169TIP3    H2 3451   3.702   5.121   6.601
 1170TIP3   OH2 3452   4.671   6.998   6.695
 1170TIP3    H1 3453   4.673   6.963   6.606
 1170TIP3    H2 3454   4.720   7.081   6.690
 1171TIP3   OH2 3455   2.401   4.047   0.982
 1171TIP3    H1 3456   2.454   4.045   1.062
 1171TIP3    H2 3457   2.459   4.086   0.916
 1172TIP3   OH2 3458   1.822   0.521   0.933
 1172TIP3    H1 3459   1.760   0.558   0.996
 1172TIP3    H2 3460   1.876   0.596   0.906
 1173TIP3   OH2 3461   7.932   5.050   4.001
 1173TIP3    H1 3462   8.028   5.053   3.993
 1173TIP3    H2 3463   7.916   5.037   4.094
 1174TIP3   OH2 3464   6.065   3.261   5.773
 1174TIP3    H1 3465   6.009   3.336   5.791
 1174TIP3    H2 3466   6.154   3.293   5.792
 1175TIP3   OH2 3467   5.814   1.394   3.443
 1175TIP3    H1 3468   5.823   1.300   3.428
 1175TIP3    H2 3469   5.898   1.421   3.479
 1176TIP3   OH2 3470   5.344   6.979   1.134
 1176TIP3    H1 3471   5.289   7.030   1.193
 1176TIP3    H2 3472   5.285   6.915   1.095
 1177TIP3   OH2 3473   4.614   1.346   0.874
 1177TIP3    H1 3474   4.551   1.279   0.847
 1177TIP3    H2 3475   4.569   1.429   0.857
 1178TIP3   OH2 3476   1.669   6.520   2.838
 1178TIP3    H1 3477   1.673   6.427   2.861
 1178TIP3    H2 3478   1.729   6.529   2.763
 1179TIP3   OH2 3479   3.892   2.171   4.928
 1179TIP3    H1 3480   3.932   2.235   4.987
 1179TIP3    H2 3481   3.939   2.181   4.846
 1180TIP3   OH2 3482   7.446   5.836   3.380
 1180TIP3    H1 3483   7.481   5.893   3.312
 1180TIP3    H2 3484   7.404   5.895   3.442
 1181TIP3   OH2 3485   6.749   4.770   3.914
 1181TIP3    H1 3486   6.760   4.694   3.857
 1181TIP3    H2 3487   6.836   4.810   3.917
 1182TIP3   OH2 3488   3.063   3.010   4.736
 1182TIP3    H1 3489   3.134   2.953   4.708
 1182TIP3    H2 3490   3.099   3.098   4.733
 1183TIP3   OH2 3491   5.038   2.557   6.092
 1183TIP3    H1 3492   4.955   2.581   6.134
 1183TIP3    H2 3493   5.028   2.583   6.001
 1184TIP3   OH2 3494   7.809   5.924   0.558
 1184TIP3    H1 3495   7.792   5.874   0.637
 1184TIP3    H2 3496   7.733   5.907   0.502
 1185TIP3   OH2 3497   1.743   6.894   1.316
 1185TIP3    H1 3498   1.738   6.802   1.343
 1185TIP3    H2 3499   1.741   6.943   1.398
 1186TIP3   OH2 3500   2.324   5.002   5.026
 1186TIP3    H1 3501   2.324   4.987   4.932
 1186TIP3    H2 3502   2.232   4.996   5.052
 1187TIP3   OH2 3503   6.725   1.765   0.711
 1187TIP3    H1 3504   6.679   1.753   0.627
 1187TIP3    H2 3505   6.766   1.681   0.728
 1188TIP3   OH2 3506   2.190   7.413   2.347
 1188TIP3    H1 3507   2.213   7.420   2.254
 1188TIP3    H2 3508   2.239   7.338   2.379
 1189TIP3   OH2 3509   5.709   2.282   1.211
 1189TIP3    H1 3510   5.618   2.263   1.232
 1189TIP3    H2 3511   5.751   2.295   1.296
 1190TIP3   OH2 3512   2.147   5.852   5.801
 1190TIP3    H1 3513   2.120   5.940   5.828
 1190TIP3    H2 3514   2.216   5.867   5.737
 1191TIP3   OH2 3515   0.141   5.183   4.838
 1191TIP3    H1 3516   0.144   5.249   4.907
 1191TIP3    H2 3517   0.225   5.191   4.793
 1192TIP3   OH2 3518   7.220   3.474   0.554
 1192TIP3    H1 3519   7.266   3.467   0.471
 1192TIP3    H2 3520   7.212   3.568   0.571
 1193TIP3   OH2 3521   4.690   1.177   3.886
 1193TIP3    H1 3522   4.706   1.097   3.936
 1193TIP3    H2 3523   4.732   1.162   3.802
 1194TIP3   OH2 3524   4.617   6.532   5.568
 1194TIP3    H1 3525   4.669   6.609   5.593
 1194TIP3    H2 3526   4.530   6.567   5.549
 1195TIP3   OH2 3527   2.987   1.465   4.186
 1195TIP3    H1 3528   3.013   1.472   4.094
 1195TIP3    H2 3529   3.026   1.383   4.216
 1196TIP3   OH2 3530   1.565   2.469   3.330
 1196TIP3    H1 3531   1.594   2.385   3.293
 1196TIP3    H2 3532   1.525   2.515   3.257
 1197TIP3   OH2 3533   8.336   1.827   2.063
 1197TIP3    H1 3534   8.298   1.914   2.051
 1197TIP3    H2 3535   8.260   1.768   2.060
 1198TIP3   OH2 3536   0.424   3.356   2.021
 1198TIP3    H1 3537   0.417   3.427   1.958
 1198TIP3    H2 3538   0.335   3.321   2.029
 1199TIP3   OH2 3539   0.178   2.673   5.987
 1199TIP3    H1 3540   0.258   2.647   6.032
 1199TIP3    H2 3541   0.203   2.747   5.933
 1200TIP3   OH2 3542   6.433   7.423   4.463
 1200TIP3    H1 3543   6.391   7.443   4.547
 1200TIP3    H2 3544   6.365   7.439   4.398
 1201TIP3   OH2 3545   6.446   1.846   1.249
 1201TIP3    H1 3546   6.531   1.832   1.206
 1201TIP3    H2 3547   6.423   1.936   1.225
 1202TIP3   OH2 3548   6.261   0.226   5.443
 1202TIP3    H1 3549   6.333   0.163   5.448
 1202TIP3    H2 3550   6.184   0.174   5.421
 1203TIP3   OH2 3551   5.941   7.737   5.510
 1203TIP3    H1 3552   5.899   7.823   5.515
 1203TIP3    H2 3553   6.022   7.748   5.559
 1204TIP3   OH2 3554   0.194   6.052   6.750
 1204TIP3    H1 3555   0.153   6.135   6.726
 1204TIP3    H2 3556   0.221   6.014   6.666
 1205TIP3   OH2 3557   6.267   6.394   3.302
 1205TIP3    H1 3558   6.208   6.328   3.337
 1205TIP3    H2 3559   6.213   6.473   3.295
 1206TIP3   OH2 3560   0.587   6.053   2.632
 1206TIP3    H1 3561   0.672   6.061   2.675
 1206TIP3    H2 3562   0.564   6.143   2.608
 1207TIP3   OH2 3563   3.857   5.734   6.225
 1207TIP3    H1 3564   3.825   5.663   6.281
 1207TIP3    H2 3565   3.777   5.775   6.191
 1208TIP3   OH2 3566   3.639   4.984   5.173
 1208TIP3    H1 3567   3.662   4.894   5.196
 1208TIP3    H2 3568   3.673   4.995   5.084
 1209TIP3   OH2 3569   4.888   6.527   4.422
 1209TIP3    H1 3570   4.896   6.565   4.335
 1209TIP3    H2 3571   4.955   6.458   4.424
 1210TIP3   OH2 3572   1.278   2.393   0.559
 1210TIP3    H1 3573   1.188   2.415   0.534
 1210TIP3    H2 3574   1.317   2.358   0.479
 1211TIP3   OH2 3575   4.273   5.491   3.653
 1211TIP3    H1 3576   4.282   5.414   3.710
 1211TIP3    H2 3577   4.200   5.470   3.595
 1212TIP3   OH2 3578   1.413   4.322   0.949
 1212TIP3    H1 3579   1.411   4.386   1.021
 1212TIP3    H2 3580   1.486   4.350   0.894
 1213TIP3   OH2 3581   3.715   5.908   1.264
 1213TIP3    H1 3582   3.627   5.937   1.238
 1213TIP3    H2 3583   3.770   5.985   1.250
 1214TIP3   OH2 3584   7.898   5.679   6.495
 1214TIP3    H1 3585   7.846   5.601   6.477
 1214TIP3    H2 3586   7.936   5.702   6.410
 1215TIP3   OH2 3587   0.686   1.586   2.235
 1215TIP3    H1 3588   0.707   1.587   2.329
 1215TIP3    H2 3589   0.591   1.590   2.231
 1216TIP3   OH2 3590   2.610   4.099   0.439
 1216TIP3    H1 3591   2.703   4.074   0.439
 1216TIP3    H2 3592   2.569   4.038   0.378
 1217TIP3   OH2 3593   3.592   7.378   5.065
 1217TIP3    H1 3594   3.507   7.409   5.096
 1217TIP3    H2 3595   3.583   7.283   5.061
 1218TIP3   OH2 3596   3.148   3.274   4.621
 1218TIP3    H1 3597   3.192   3.338   4.677
 1218TIP3    H2 3598   3.211   3.255   4.552
 1219TIP3   OH2 3599   3.393   1.624   5.633
 1219TIP3    H1 3600   3.444   1.665   5.563
 1219TIP3    H2 3601   3.452   1.622   5.708
 1220TIP3   OH2 3602   5.479   1.898   5.734
 1220TIP3    H1 3603   5.541   1.970   5.746
 1220TIP3    H2 3604   5.530   1.819   5.754
 1221TIP3   OH2 3605   6.329   0.052   0.803
 1221TIP3    H1 3606   6.278  -0.003   0.743
 1221TIP3    H2 3607   6.262   0.104   0.849
 1222TIP3   OH2 3608   2.639   5.011   0.667
 1222TIP3    H1 3609   2.641   5.096   0.622
 1222TIP3    H2 3610   2.551   5.004   0.703
 1223TIP3   OH2 3611   6.388   5.875   3.347
 1223TIP3    H1 3612   6.449   5.948   3.335
 1223TIP3    H2 3613   6.322   5.909   3.408
 1224TIP3   OH2 3614   3.963   4.971   5.026
 1224TIP3    H1 3615   3.991   4.881   5.008
 1224TIP3    H2 3616   3.969   5.015   4.941
 1225TIP3   OH2 3617   7.949   7.279   2.673
 1225TIP3    H1 3618   8.039   7.275   2.640
 1225TIP3    H2 3619   7.935   7.194   2.714
 1226TIP3   OH2 3620   3.657   4.277   3.531
 1226TIP3    H1 3621   3.701   4.201   3.492
 1226TIP3    H2 3622   3.688   4.351   3.479
 1227TIP3   OH2 3623   6.940   7.490   3.308
 1227TIP3    H1 3624   6.872   7.476   3.242
 1227TIP3    H2 3625   6.927   7.580   3.337
 1228TIP3   OH2 3626   2.919   6.024   4.125
 1228TIP3    H1 3627   2.967   5.981   4.054
 1228TIP3    H2 3628   2.935   6.117   4.111
 1229TIP3   OH2 3629   1.363   6.019   1.298
 1229TIP3    H1 3630   1.434   6.057   1.350
 1229TIP3    H2 3631   1.292   6.004   1.361
 1230TIP3   OH2 3632   0.342   3.240   2.378
 1230TIP3    H1 3633   0.323   3.237   2.472
 1230TIP3    H2 3634   0.429   3.280   2.373
 1231TIP3   OH2 3635   3.598   5.725   1.950
 1231TIP3    H1 3636   3.651   5.783   2.005
 1231TIP3    H2 3637   3.656   5.652   1.930
 1232TIP3   OH2 3638   3.770   2.326   1.184
 1232TIP3    H1 3639   3.717   2.386   1.237
 1232TIP3    H2 3640   3.839   2.382   1.148
 1233TIP3   OH2 3641   0.944   1.627   4.688
 1233TIP3    H1 3642   1.008   1.596   4.624
 1233TIP3    H2 3643   0.905   1.548   4.724
 1234TIP3   OH2 3644   6.072   5.220   0.769
 1234TIP3    H1 3645   6.078   5.248   0.677
 1234TIP3    H2 3646   5.979   5.226   0.789
 1235TIP3   OH2 3647   6.236   0.797   3.864
 1235TIP3    H1 3648   6.207   0.706   3.867
 1235TIP3    H2 3649   6.271   0.813   3.951
 1236TIP3   OH2 3650   0.662   0.623   0.651
 1236TIP3    H1 3651   0.717   0.694   0.684
 1236TIP3    H2 3652   0.592   0.615   0.716
 1237TIP3   OH2 3653   3.447   5.466   2.723
 1237TIP3    H1 3654   3.451   5.388   2.668
 1237TIP3    H2 3655   3.501   5.531   2.676
 1238TIP3   OH2 3656   3.032   5.309   4.787
 1238TIP3    H1 3657   3.005   5.400   4.774
 1238TIP3    H2 3658   2.995   5.285   4.872
 1239TIP3   OH2 3659   1.825   1.792   2.101
 1239TIP3    H1 3660   1.751   1.732   2.109
 1239TIP3    H2 3661   1.858   1.800   2.191
 1240TIP3   OH2 3662   1.937   0.174   5.716
 1240TIP3    H1 3663   1.911   0.112   5.648
 1240TIP3    H2 3664   1.986   0.242   5.670
 1241TIP3   OH2 3665   3.156   1.611   3.244
 1241TIP3    H1 3666   3.179   1.619   3.337
 1241TIP3    H2 3667   3.203   1.533   3.214
 1242TIP3   OH2 3668   8.214   4.231   5.894
 1242TIP3    H1 3669   8.290   4.178   5.872
 1242TIP3    H2 3670   8.247   4.321   5.894
 1243TIP3   OH2 3671   2.837   0.756   2.812
 1243TIP3    H1 3672   2.840   0.751   2.908
 1243TIP3    H2 3673   2.912   0.705   2.782
 1244TIP3   OH2 3674   6.792   2.796   1.243
 1244TIP3    H1 3675   6.697   2.782   1.240
 1244TIP3    H2 3676   6.829   2.715   1.208
 1245TIP3   OH2 3677   6.586   3.859   2.263
 1245TIP3    H1 3678   6.646   3.794   2.300
 1245TIP3    H2 3679   6.550   3.816   2.186
 1246TIP3   OH2 3680   4.518   2.231   1.904
 1246TIP3    H1 3681   4.565   2.208   1.984
 1246TIP3    H2 3682   4.567   2.304   1.867
 1247TIP3   OH2 3683   7.849   5.230   3.446
 1247TIP3    H1 3684   7.775   5.254   3.501
 1247TIP3    H2 3685   7.903   5.309   3.441
 1248TIP3   OH2 3686   2.109   2.764   2.852
 1248TIP3    H1 3687   2.017   2.778   2.828
 1248TIP3    H2 3688   2.117   2.804   2.938
 1249TIP3   OH2 3689   7.997   1.518   5.199
 1249TIP3    H1 3690   8.057   1.591   5.184
 1249TIP3    H2 3691   7.934   1.552   5.263
 1250TIP3   OH2 3692   7.479   0.479   6.364
 1250TIP3    H1 3693   7.508   0.551   6.308
 1250TIP3    H2 3694   7.547   0.472   6.431
 1251TIP3   OH2 3695   7.497   5.202   6.722
 1251TIP3    H1 3696   7.494   5.153   6.640
 1251TIP3    H2 3697   7.462   5.288   6.701
 1252TIP3   OH2 3698   8.067   6.831   4.156
 1252TIP3    H1 3699   8.100   6.754   4.110
 1252TIP3    H2 3700   8.141   6.892   4.157
 1253TIP3   OH2 3701   0.554   1.447   5.296
 1253TIP3    H1 3702   0.560   1.462   5.201
 1253TIP3    H2 3703   0.515   1.359   5.303
 1254TIP3   OH2 3704   5.160   5.419   4.281
 1254TIP3    H1 3705   5.162   5.509   4.250
 1254TIP3    H2 3706   5.230   5.413   4.345
 1255TIP3   OH2 3707   2.248   4.502   2.525
 1255TIP3    H1 3708   2.161   4.511   2.486
 1255TIP3    H2 3709   2.236   4.527   2.616
 1256TIP3   OH2 3710   4.830   1.639   0.706
 1256TIP3    H1 3711   4.735   1.641   0.688
 1256TIP3    H2 3712   4.858   1.553   0.676
 1257TIP3   OH2 3713   4.676   6.027   4.179
 1257TIP3    H1 3714   4.626   5.982   4.248
 1257TIP3    H2 3715   4.654   5.979   4.099
 1258TIP3   OH2 3716   1.917   3.296   1.326
 1258TIP3    H1 3717   1.855   3.231   1.358
 1258TIP3    H2 3718   1.940   3.266   1.238
 1259TIP3   OH2 3719   2.182   1.030   4.540
 1259TIP3    H1 3720   2.186   1.084   4.462
 1259TIP3    H2 3721   2.214   1.086   4.611
 1260TIP3   OH2 3722   2.123   6.407   4.260
 1260TIP3    H1 3723   2.193   6.411   4.324
 1260TIP3    H2 3724   2.167   6.391   4.177
 1261TIP3   OH2 3725   1.165   0.708   0.145
 1261TIP3    H1 3726   1.233   0.763   0.185
 1261TIP3    H2 3727   1.197   0.691   0.056
 1262TIP3   OH2 3728   3.929   0.223   5.626
 1262TIP3    H1 3729   3.976   0.270   5.557
 1262TIP3    H2 3730   3.966   0.258   5.708
 1263TIP3   OH2 3731   5.778   4.370   0.771
 1263TIP3    H1 3732   5.748   4.350   0.683
 1263TIP3    H2 3733   5.868   4.401   0.760
 1264TIP3   OH2 3734   7.759   6.607   3.066
 1264TIP3    H1 3735   7.748   6.545   2.994
 1264TIP3    H2 3736   7.728   6.691   3.030
 1265TIP3   OH2 3737   7.124   3.870   1.282
 1265TIP3    H1 3738   7.185   3.796   1.284
 1265TIP3    H2 3739   7.050   3.839   1.230
 1266TIP3   OH2 3740   5.887   3.171   2.875
 1266TIP3    H1 3741   5.866   3.078   2.877
 1266TIP3    H2 3742   5.924   3.185   2.788
 1267TIP3   OH2 3743   6.022   3.444   3.349
 1267TIP3    H1 3744   6.078   3.497   3.406
 1267TIP3    H2 3745   6.082   3.386   3.302
 1268TIP3   OH2 3746   1.648   6.757   0.457
 1268TIP3    H1 3747   1.697   6.832   0.423
 1268TIP3    H2 3748   1.706   6.682   0.441
 1269TIP3   OH2 3749   1.445   4.472   1.166
 1269TIP3    H1 3750   1.393   4.551   1.148
 1269TIP3    H2 3751   1.406   4.436   1.246
 1270TIP3   OH2 3752   3.120   2.380   4.458
 1270TIP3    H1 3753   3.026   2.367   4.471
 1270TIP3    H2 3754   3.161   2.342   4.536
 1271TIP3   OH2 3755   6.678   2.722   0.330
 1271TIP3    H1 3756   6.653   2.683   0.246
 1271TIP3    H2 3757   6.611   2.790   0.345
 1272TIP3   OH2 3758   3.835   1.373   5.114
 1272TIP3    H1 3759   3.889   1.393   5.190
 1272TIP3    H2 3760   3.785   1.296   5.140
 1273TIP3   OH2 3761   5.753   1.857   2.886
 1273TIP3    H1 3762   5.770   1.846   2.980
 1273TIP3    H2 3763   5.659   1.840   2.876
 1274TIP3   OH2 3764   3.042   2.913   6.759
 1274TIP3    H1 3765   3.094   2.896   6.838
 1274TIP3    H2 3766   3.105   2.912   6.688
 1275TIP3   OH2 3767   6.880   5.480   2.615
 1275TIP3    H1 3768   6.813   5.500   2.679
 1275TIP3    H2 3769   6.915   5.566   2.590
 1276TIP3   OH2 3770   2.079   1.891   4.489
 1276TIP3    H1 3771   2.043   1.825   4.430
 1276TIP3    H2 3772   2.106   1.963   4.432
 1277TIP3   OH2 3773   6.282   0.455   1.733
 1277TIP3    H1 3774   6.214   0.388   1.729
 1277TIP3    H2 3775   6.314   0.452   1.823
 1278TIP3   OH2 3776   0.950   0.557   6.064
 1278TIP3    H1 3777   0.982   0.472   6.034
 1278TIP3    H2 3778   0.986   0.619   6.000
 1279TIP3   OH2 3779   0.789   3.454   5.217
 1279TIP3    H1 3780   0.852   3.391   5.181
 1279TIP3    H2 3781   0.774   3.424   5.307
 1280TIP3   OH2 3782   0.918   6.044   1.093
 1280TIP3    H1 3783   0.927   6.112   1.159
 1280TIP3    H2 3784   1.000   6.046   1.044
 1281TIP3   OH2 3785   3.275   2.451   2.206
 1281TIP3    H1 3786   3.253   2.371   2.159
 1281TIP3    H2 3787   3.254   2.432   2.298
 1282TIP3   OH2 3788   4.632   4.526   0.500
 1282TIP3    H1 3789   4.593   4.576   0.428
 1282TIP3    H2 3790   4.725   4.523   0.480
 1283TIP3   OH2 3791   5.292   1.025   2.932
 1283TIP3    H1 3792   5.269   0.994   3.020
 1283TIP3    H2 3793   5.365   1.085   2.947
 1284TIP3   OH2 3794   2.462   4.863   2.172
 1284TIP3    H1 3795   2.550   4.868   2.208
 1284TIP3    H2 3796   2.414   4.934   2.215
 1285TIP3   OH2 3797   4.488   3.877   5.205
 1285TIP3    H1 3798   4.448   3.914   5.127
 1285TIP3    H2 3799   4.577   3.853   5.178
 1286TIP3   OH2 3800   0.523   7.412   3.795
 1286TIP3    H1 3801   0.477   7.329   3.795
 1286TIP3    H2 3802   0.521   7.441   3.886
 1287TIP3   OH2 3803   6.525   5.975   2.080
 1287TIP3    H1 3804   6.566   5.933   2.004
 1287TIP3    H2 3805   6.593   5.977   2.146
 1288TIP3   OH2 3806   7.518   0.682   6.201
 1288TIP3    H1 3807   7.504   0.775   6.219
 1288TIP3    H2 3808   7.586   0.680   6.134
 1289TIP3   OH2 3809   3.058   4.284   4.290
 1289TIP3    H1 3810   3.095   4.340   4.359
 1289TIP3    H2 3811   3.091   4.321   4.209
 1290TIP3   OH2 3812   5.816   3.533   0.095
 1290TIP3    H1 3813   5.807   3.459   0.155
 1290TIP3    H2 3814   5.908   3.559   0.101
 1291TIP3   OH2 3815   4.421   7.544   2.836
 1291TIP3    H1 3816   4.485   7.576   2.772
 1291TIP3    H2 3817   4.445   7.452   2.849
 1292TIP3   OH2 3818   0.797   7.743   5.297
 1292TIP3    H1 3819   0.785   7.745   5.202
 1292TIP3    H2 3820   0.891   7.754   5.309
 1293TIP3   OH2 3821   6.652   5.715   0.616
 1293TIP3    H1 3822   6.558   5.730   0.611
 1293TIP3    H2 3823   6.690   5.802   0.630
 1294TIP3   OH2 3824   4.763   1.996   0.563
 1294TIP3    H1 3825   4.775   2.079   0.517
 1294TIP3    H2 3826   4.692   2.012   0.624
 1295TIP3   OH2 3827   5.703   4.544   4.430
 1295TIP3    H1 3828   5.796   4.523   4.432
 1295TIP3    H2 3829   5.677   4.549   4.522
 1296TIP3   OH2 3830   2.452   6.440   3.597
 1296TIP3    H1 3831   2.430   6.530   3.570
 1296TIP3    H2 3832   2.546   6.442   3.612
 1297TIP3   OH2 3833   7.322   6.744   0.940
 1297TIP3    H1 3834   7.403   6.766   0.894
 1297TIP3    H2 3835   7.282   6.829   0.961
 1298TIP3   OH2 3836   5.303   4.024   4.358
 1298TIP3    H1 3837   5.265   4.001   4.274
 1298TIP3    H2 3838   5.301   4.120   4.360
 1299TIP3   OH2 3839   1.403   4.263   5.756
 1299TIP3    H1 3840   1.319   4.308   5.767
 1299TIP3    H2 3841   1.410   4.248   5.662
 1300TIP3   OH2 3842   5.747   0.783   5.802
 1300TIP3    H1 3843   5.735   0.699   5.758
 1300TIP3    H2 3844   5.828   0.818   5.765
 1301TIP3   OH2 3845   0.496   1.079   5.102
 1301TIP3    H1 3846   0.523   1.106   5.014
 1301TIP3    H2 3847   0.549   1.002   5.121
 1302TIP3   OH2 3848   7.281   7.098   3.971
 1302TIP3    H1 3849   7.216   7.160   3.939
 1302TIP3    H2 3850   7.268   7.020   3.918
 1303TIP3   OH2 3851   6.303   4.118   3.490
 1303TIP3    H1 3852   6.277   4.091   3.402
 1303TIP3    H2 3853   6.338   4.206   3.478
 1304TIP3   OH2 3854   2.733   0.832   3.802
 1304TIP3    H1 3855   2.777   0.747   3.810
 1304TIP3    H2 3856   2.803   0.896   3.814
 1305TIP3   OH2 3857   0.523   6.811   6.138
 1305TIP3    H1 3858   0.506   6.747   6.069
 1305TIP3    H2 3859   0.488   6.893   6.105
 1306TIP3   OH2 3860   5.039   2.540   0.169
 1306TIP3    H1 3861   5.032   2.570   0.260
 1306TIP3    H2 3862   5.035   2.445   0.176
 1307TIP3   OH2 3863   3.519   3.636   3.098
 1307TIP3    H1 3864   3.582   3.602   3.035
 1307TIP3    H2 3865   3.510   3.566   3.163
 1308TIP3   OH2 3866   7.822   3.490   1.390
 1308TIP3    H1 3867   7.831   3.404   1.430
 1308TIP3    H2 3868   7.742   3.526   1.428
 1309TIP3   OH2 3869   2.774   1.193   4.613
 1309TIP3    H1 3870   2.768   1.105   4.576
 1309TIP3    H2 3871   2.837   1.238   4.556
 1310TIP3   OH2 3872   4.144   5.928   1.436
 1310TIP3    H1 3873   4.109   5.868   1.503
 1310TIP3    H2 3874   4.177   5.870   1.367
 1311TIP3   OH2 3875   8.034   1.570   0.229
 1311TIP3    H1 3876   7.998   1.654   0.257
 1311TIP3    H2 3877   7.968   1.505   0.256
 1312TIP3   OH2 3878   3.419   4.894   1.865
 1312TIP3    H1 3879   3.459   4.934   1.942
 1312TIP3    H2 3880   3.348   4.954   1.842
 1313TIP3   OH2 3881   7.387   1.738   2.285
 1313TIP3    H1 3882   7.369   1.696   2.369
 1313TIP3    H2 3883   7.471   1.782   2.298
 1314TIP3   OH2 3884   7.451   3.601   4.977
 1314TIP3    H1 3885   7.391   3.666   5.012
 1314TIP3    H2 3886   7.397   3.544   4.924
 1315TIP3   OH2 3887   6.015   4.867   4.631
 1315TIP3    H1 3888   5.959   4.841   4.704
 1315TIP3    H2 3889   6.018   4.962   4.635
 1316TIP3   OH2 3890   7.935   6.453   1.882
 1316TIP3    H1 3891   7.871   6.429   1.949
 1316TIP3    H2 3892   7.935   6.379   1.822
 1317TIP3   OH2 3893   2.265   0.852   2.969
 1317TIP3    H1 3894   2.182   0.892   2.995
 1317TIP3    H2 3895   2.277   0.878   2.878
 1318TIP3   OH2 3896   8.137   1.967   5.022
 1318TIP3    H1 3897   8.068   2.024   4.986
 1318TIP3    H2 3898   8.209   2.027   5.043
 1319TIP3   OH2 3899   4.838   0.111   5.295
 1319TIP3    H1 3900   4.816   0.019   5.281
 1319TIP3    H2 3901   4.924   0.109   5.336
 1320TIP3   OH2 3902   3.599   2.975   1.096
 1320TIP3    H1 3903   3.672   2.938   1.146
 1320TIP3    H2 3904   3.521   2.935   1.134
 1321TIP3   OH2 3905   3.706   6.272   3.743
 1321TIP3    H1 3906   3.761   6.304   3.815
 1321TIP3    H2 3907   3.624   6.321   3.751
 1322TIP3   OH2 3908   0.838   1.774   5.241
 1322TIP3    H1 3909   0.844   1.688   5.200
 1322TIP3    H2 3910   0.890   1.831   5.186
 1323TIP3   OH2 3911   3.054   4.638   2.084
 1323TIP3    H1 3912   3.076   4.669   1.996
 1323TIP3    H2 3913   3.110   4.689   2.142
 1324TIP3   OH2 3914   2.472   6.642   1.027
 1324TIP3    H1 3915   2.401   6.642   1.092
 1324TIP3    H2 3916   2.439   6.590   0.954
 1325TIP3   OH2 3917   4.780   6.831   6.495
 1325TIP3    H1 3918   4.809   6.747   6.532
 1325TIP3    H2 3919   4.849   6.856   6.434
 1326TIP3   OH2 3920   5.812   0.735   4.078
 1326TIP3    H1 3921   5.830   0.663   4.018
 1326TIP3    H2 3922   5.884   0.732   4.141
 1327TIP3   OH2 3923   1.845   6.147   3.769
 1327TIP3    H1 3924   1.753   6.172   3.780
 1327TIP3    H2 3925   1.879   6.208   3.704
 1328TIP3   OH2 3926   1.111   3.635   0.379
 1328TIP3    H1 3927   1.021   3.652   0.350
 1328TIP3    H2 3928   1.165   3.691   0.324
 1329TIP3   OH2 3929   3.591   4.539   0.796
 1329TIP3    H1 3930   3.651   4.563   0.867
 1329TIP3    H2 3931   3.643   4.482   0.739
 1330TIP3   OH2 3932   5.631   5.090   5.612
 1330TIP3    H1 3933   5.710   5.142   5.627
 1330TIP3    H2 3934   5.605   5.061   5.699
 1331TIP3   OH2 3935   0.677   5.127   2.587
 1331TIP3    H1 3936   0.601   5.104   2.534
 1331TIP3    H2 3937   0.709   5.209   2.550
 1332TIP3   OH2 3938   0.166   4.448   0.364
 1332TIP3    H1 3939   0.119   4.377   0.319
 1332TIP3    H2 3940   0.217   4.490   0.296
 1333TIP3   OH2 3941   6.203   7.563   1.732
 1333TIP3    H1 3942   6.247   7.505   1.670
 1333TIP3    H2 3943   6.242   7.541   1.817
 1334TIP3   OH2 3944   1.761   2.537   1.374
 1334TIP3    H1 3945   1.686   2.588   1.404
 1334TIP3    H2 3946   1.760   2.458   1.427
 1335TIP3   OH2 3947   6.650   3.532   6.571
 1335TIP3    H1 3948   6.665   3.459   6.632
 1335TIP3    H2 3949   6.647   3.609   6.627
 1336TIP3   OH2 3950   3.474   2.163   4.707
 1336TIP3    H1 3951   3.490   2.071   4.687
 1336TIP3    H2 3952   3.549   2.190   4.760
 1337TIP3   OH2 3953   3.646   1.602   4.987
 1337TIP3    H1 3954   3.706   1.656   4.935
 1337TIP3    H2 3955   3.703   1.542   5.035
 1338TIP3   OH2 3956   5.141   3.236   6.691
 1338TIP3    H1 3957   5.078   3.185   6.641
 1338TIP3    H2 3958   5.171   3.304   6.630
 1339TIP3   OH2 3959   3.236   2.636   6.061
 1339TIP3    H1 3960   3.159   2.644   6.117
 1339TIP3    H2 3961   3.246   2.723   6.022
 1340TIP3   OH2 3962   3.752   5.300   3.272
 1340TIP3    H1 3963   3.834   5.251   3.264
 1340TIP3    H2 3964   3.777   5.380   3.317
 1341TIP3   OH2 3965   5.159   5.962   0.651
 1341TIP3    H1 3966   5.079   5.953   0.702
 1341TIP3    H2 3967   5.227   5.924   0.705
 1342TIP3   OH2 3968   4.378   7.233   3.258
 1342TIP3    H1 3969   4.313   7.164   3.258
 1342TIP3    H2 3970   4.337   7.306   3.305
 1343TIP3   OH2 3971   1.209   7.734   3.638
 1343TIP3    H1 3972   1.225   7.712   3.729
 1343TIP3    H2 3973   1.292   7.717   3.593
 1344TIP3   OH2 3974   7.618   5.040   2.582
 1344TIP3    H1 3975   7.585   5.013   2.668
 1344TIP3    H2 3976   7.615   4.960   2.529
 1345TIP3   OH2 3977   0.731   5.715   5.758
 1345TIP3    H1 3978   0.733   5.763   5.675
 1345TIP3    H2 3979   0.823   5.706   5.783
 1346TIP3   OH2 3980   0.053   1.613   6.234
 1346TIP3    H1 3981   0.078   1.645   6.321
 1346TIP3    H2 3982  -0.042   1.614   6.235
 1347TIP3   OH2 3983   7.794   7.319   2.313
 1347TIP3    H1 3984   7.844   7.252   2.359
 1347TIP3    H2 3985   7.752   7.369   2.383
 1348TIP3   OH2 3986   3.757   0.602   6.044
 1348TIP3    H1 3987   3.727   0.536   5.982
 1348TIP3    H2 3988   3.728   0.570   6.130
 1349TIP3   OH2 3989   1.666   3.878   2.573
 1349TIP3    H1 3990   1.574   3.891   2.594
 1349TIP3    H2 3991   1.677   3.917   2.486
 1350TIP3   OH2 3992   3.876   0.937   6.598
 1350TIP3    H1 3993   3.923   0.853   6.605
 1350TIP3    H2 3994   3.853   0.958   6.688
 1351TIP3   OH2 3995   4.370   2.915   4.697
 1351TIP3    H1 3996   4.308   2.970   4.745
 1351TIP3    H2 3997   4.333   2.826   4.704
 1352TIP3   OH2 3998   4.789   3.306   1.752
 1352TIP3    H1 3999   4.823   3.273   1.835
 1352TIP3    H2 4000   4.728   3.375   1.777
 1353TIP3   OH2 4001   7.834   2.739   0.875
 1353TIP3    H1 4002   7.790   2.817   0.908
 1353TIP3    H2 4003   7.910   2.772   0.827
 1354TIP3   OH2 4004   3.982   5.456   0.486
 1354TIP3    H1 4005   3.902   5.501   0.460
 1354TIP3    H2 4006   3.981   5.374   0.437
 1355TIP3   OH2 4007   8.101   7.297   5.270
 1355TIP3    H1 4008   8.070   7.255   5.350
 1355TIP3    H2 4009   8.024   7.343   5.236
 1356TIP3   OH2 4010   1.919   0.479   0.002
 1356TIP3    H1 4011   1.879   0.564  -0.019
 1356TIP3    H2 4012   1.932   0.482   0.097
 1357TIP3   OH2 4013   8.239   4.422   4.799
 1357TIP3    H1 4014   8.225   4.328   4.810
 1357TIP3    H2 4015   8.323   4.438   4.843
 1358TIP3   OH2 4016   1.194   1.525   4.599
 1358TIP3    H1 4017   1.235   1.531   4.685
 1358TIP3    H2 4018   1.237   1.592   4.546
 1359TIP3   OH2 4019   3.960   0.966   0.400
 1359TIP3    H1 4020   3.901   0.981   0.326
 1359TIP3    H2 4021   3.950   1.043   0.456
 1360TIP3   OH2 4022   5.705   1.278   0.643
 1360TIP3    H1 4023   5.709   1.272   0.738
 1360TIP3    H2 4024   5.622   1.323   0.624
 1361TIP3   OH2 4025   1.658   1.362   1.918
 1361TIP3    H1 4026   1.575   1.332   1.882
 1361TIP3    H2 4027   1.719   1.358   1.845
 1362TIP3   OH2 4028   4.623   0.931   1.718
 1362TIP3    H1 4029   4.590   0.896   1.635
 1362TIP3    H2 4030   4.712   0.898   1.724
 1363TIP3   OH2 4031   2.622   0.748   0.358
 1363TIP3    H1 4032   2.678   0.674   0.380
 1363TIP3    H2 4033   2.548   0.741   0.417
 1364TIP3   OH2 4034   6.519   6.690   5.605
 1364TIP3    H1 4035   6.563   6.761   5.559
 1364TIP3    H2 4036   6.581   6.663   5.673
 1365TIP3   OH2 4037   5.711   3.505   2.103
 1365TIP3    H1 4038   5.731   3.504   2.197
 1365TIP3    H2 4039   5.786   3.549   2.063
 1366TIP3   OH2 4040   8.259   1.817   3.127
 1366TIP3    H1 4041   8.279   1.893   3.072
 1366TIP3    H2 4042   8.241   1.854   3.213
 1367TIP3   OH2 4043   5.897   6.086   4.454
 1367TIP3    H1 4044   5.956   6.034   4.399
 1367TIP3    H2 4045   5.849   6.021   4.505
 1368TIP3   OH2 4046   7.899   7.283   1.372
 1368TIP3    H1 4047   7.915   7.266   1.464
 1368TIP3    H2 4048   7.962   7.352   1.349
 1369TIP3   OH2 4049   8.236   1.240   3.040
 1369TIP3    H1 4050   8.254   1.326   3.002
 1369TIP3    H2 4051   8.141   1.232   3.035
 1370TIP3   OH2 4052   3.308   3.611   2.810
 1370TIP3    H1 4053   3.285   3.532   2.762
 1370TIP3    H2 4054   3.403   3.609   2.816
 1371TIP3   OH2 4055   1.413   2.541   2.520
 1371TIP3    H1 4056   1.500   2.544   2.561
 1371TIP3    H2 4057   1.386   2.450   2.527
 1372TIP3   OH2 4058   0.156   5.281   3.620
 1372TIP3    H1 4059   0.197   5.362   3.652
 1372TIP3    H2 4060   0.071   5.310   3.587
 1373TIP3   OH2 4061   1.420   7.715   2.160
 1373TIP3    H1 4062   1.384   7.628   2.177
 1373TIP3    H2 4063   1.344   7.770   2.144
 1374TIP3   OH2 4064   6.344   7.430   2.443
 1374TIP3    H1 4065   6.392   7.498   2.491
 1374TIP3    H2 4066   6.310   7.475   2.366
 1375TIP3   OH2 4067   1.730   4.249   1.708
 1375TIP3    H1 4068   1.685   4.294   1.636
 1375TIP3    H2 4069   1.823   4.264   1.691
 1376TIP3   OH2 4070   2.970   7.602   4.531
 1376TIP3    H1 4071   3.022   7.670   4.573
 1376TIP3    H2 4072   2.956   7.635   4.442
 1377TIP3   OH2 4073   8.014   1.580   1.060
 1377TIP3    H1 4074   7.953   1.551   1.128
 1377TIP3    H2 4075   8.072   1.643   1.104
 1378TIP3   OH2 4076   6.582   0.242   4.596
 1378TIP3    H1 4077   6.512   0.179   4.611
 1378TIP3    H2 4078   6.662   0.194   4.614
 1379TIP3   OH2 4079   8.120   3.304   0.419
 1379TIP3    H1 4080   8.053   3.350   0.370
 1379TIP3    H2 4081   8.075   3.268   0.496
 1380TIP3   OH2 4082   8.213   5.868   4.495
 1380TIP3    H1 4083   8.241   5.918   4.571
 1380TIP3    H2 4084   8.118   5.871   4.498
 1381TIP3   OH2 4085   2.944  -0.008   5.743
 1381TIP3    H1 4086   2.996  -0.026   5.665
 1381TIP3    H2 4087   2.998   0.050   5.795
 1382TIP3   OH2 4088   5.320   4.104   3.961
 1382TIP3    H1 4089   5.255   4.050   4.006
 1382TIP3    H2 4090   5.403   4.058   3.974
 1383TIP3   OH2 4091   6.441   3.979   5.552
 1383TIP3    H1 4092   6.456   4.042   5.622
 1383TIP3    H2 4093   6.377   4.022   5.494
 1384TIP3   OH2 4094   5.461   0.713   0.810
 1384TIP3    H1 4095   5.440   0.662   0.887
 1384TIP3    H2 4096   5.386   0.702   0.752
 1385TIP3   OH2 4097   2.923   7.545   5.396
 1385TIP3    H1 4098   2.860   7.551   5.325
 1385TIP3    H2 4099   2.884   7.484   5.458
 1386TIP3   OH2 4100   3.389   3.193   2.145
 1386TIP3    H1 4101   3.314   3.165   2.198
 1386TIP3    H2 4102   3.416   3.115   2.097
 1387TIP3   OH2 4103   6.153   4.742   5.777
 1387TIP3    H1 4104   6.059   4.749   5.794
 1387TIP3    H2 4105   6.181   4.666   5.828
 1388TIP3   OH2 4106   2.492   2.031   3.281
 1388TIP3    H1 4107   2.396   2.031   3.287
 1388TIP3    H2 4108   2.519   1.956   3.334
 1389TIP3   OH2 4109   4.756   2.933   3.847
 1389TIP3    H1 4110   4.749   2.929   3.942
 1389TIP3    H2 4111   4.735   2.845   3.817
 1390TIP3   OH2 4112   5.238   1.730   2.803
 1390TIP3    H1 4113   5.149   1.738   2.836
 1390TIP3    H2 4114   5.233   1.755   2.711
 1391TIP3   OH2 4115   0.777   6.502   6.040
 1391TIP3    H1 4116   0.701   6.514   5.983
 1391TIP3    H2 4117   0.807   6.413   6.020
 1392TIP3   OH2 4118   2.680   0.748   2.592
 1392TIP3    H1 4119   2.732   0.751   2.672
 1392TIP3    H2 4120   2.715   0.673   2.543
 1393TIP3   OH2 4121   5.255   0.942   4.481
 1393TIP3    H1 4122   5.215   0.858   4.461
 1393TIP3    H2 4123   5.218   0.967   4.566
 1394TIP3   OH2 4124   3.244   6.503   1.170
 1394TIP3    H1 4125   3.316   6.564   1.153
 1394TIP3    H2 4126   3.256   6.475   1.261
 1395TIP3   OH2 4127   4.682   4.739   0.703
 1395TIP3    H1 4128   4.636   4.672   0.653
 1395TIP3    H2 4129   4.648   4.822   0.670
 1396TIP3   OH2 4130   3.703   5.269   2.981
 1396TIP3    H1 4131   3.717   5.261   3.075
 1396TIP3    H2 4132   3.774   5.326   2.951
 1397TIP3   OH2 4133   2.925   2.882   0.583
 1397TIP3    H1 4134   2.834   2.900   0.609
 1397TIP3    H2 4135   2.974   2.960   0.611
 1398TIP3   OH2 4136   2.777   1.732   4.756
 1398TIP3    H1 4137   2.767   1.826   4.773
 1398TIP3    H2 4138   2.803   1.728   4.663
 1399TIP3   OH2 4139   3.880   2.326   5.910
 1399TIP3    H1 4140   3.860   2.273   5.987
 1399TIP3    H2 4141   3.871   2.267   5.836
 1400TIP3   OH2 4142   0.203   3.414   4.890
 1400TIP3    H1 4143   0.126   3.359   4.878
 1400TIP3    H2 4144   0.277   3.354   4.883
 1401TIP3   OH2 4145   4.165   0.132   3.009
 1401TIP3    H1 4146   4.209   0.134   2.925
 1401TIP3    H2 4147   4.169   0.222   3.041
 1402TIP3   OH2 4148  -0.017   4.718   2.109
 1402TIP3    H1 4149   0.033   4.711   2.191
 1402TIP3    H2 4150   0.001   4.636   2.063
 1403TIP3   OH2 4151   6.466   5.369   5.075
 1403TIP3    H1 4152   6.387   5.420   5.091
 1403TIP3    H2 4153   6.538   5.426   5.101
 1404TIP3   OH2 4154   1.043   6.178   4.169
 1404TIP3    H1 4155   1.000   6.097   4.142
 1404TIP3    H2 4156   1.118   6.149   4.221
 1405TIP3   OH2 4157   4.789   6.566   1.108
 1405TIP3    H1 4158   4.714   6.532   1.060
 1405TIP3    H2 4159   4.864   6.518   1.073
 1406TIP3   OH2 4160   2.913   3.963   6.570
 1406TIP3    H1 4161   2.894   3.874   6.542
 1406TIP3    H2 4162   3.005   3.960   6.596
 1407TIP3   OH2 4163   6.648   1.918   6.008
 1407TIP3    H1 4164   6.599   1.981   5.957
 1407TIP3    H2 4165   6.653   1.956   6.096
 1408TIP3   OH2 4166   1.047   6.643   5.889
 1408TIP3    H1 4167   1.012   6.578   5.829
 1408TIP3    H2 4168   0.983   6.647   5.960
 1409TIP3   OH2 4169   8.077   5.065   0.653
 1409TIP3    H1 4170   8.167   5.091   0.635
 1409TIP3    H2 4171   8.046   5.029   0.570
 1410TIP3   OH2 4172   6.736   2.559   6.069
 1410TIP3    H1 4173   6.670   2.628   6.080
 1410TIP3    H2 4174   6.750   2.553   5.975
 1411TIP3   OH2 4175   7.894   6.709   2.653
 1411TIP3    H1 4176   7.947   6.788   2.646
 1411TIP3    H2 4177   7.932   6.650   2.588
 1412TIP3   OH2 4178   0.954   4.290   6.708
 1412TIP3    H1 4179   1.024   4.293   6.773
 1412TIP3    H2 4180   0.919   4.201   6.714
 1413TIP3   OH2 4181   0.801   4.382   3.170
 1413TIP3    H1 4182   0.740   4.410   3.101
 1413TIP3    H2 4183   0.798   4.453   3.234
 1414TIP3   OH2 4184   8.204   3.742   2.943
 1414TIP3    H1 4185   8.112   3.745   2.968
 1414TIP3    H2 4186   8.251   3.770   3.021
 1415TIP3   OH2 4187   3.417   2.855   4.901
 1415TIP3    H1 4188   3.438   2.763   4.920
 1415TIP3    H2 4189   3.456   2.903   4.974
 1416TIP3   OH2 4190   7.551   2.655   3.841
 1416TIP3    H1 4191   7.537   2.646   3.746
 1416TIP3    H2 4192   7.544   2.749   3.857
 1417TIP3   OH2 4193   2.682   7.339   6.435
 1417TIP3    H1 4194   2.588   7.359   6.430
 1417TIP3    H2 4195   2.718   7.410   6.488
 1418TIP3   OH2 4196   3.532   6.909   0.297
 1418TIP3    H1 4197   3.467   6.956   0.350
 1418TIP3    H2 4198   3.608   6.901   0.354
 1419TIP3   OH2 4199   7.616   3.910   1.290
 1419TIP3    H1 4200   7.658   3.975   1.234
 1419TIP3    H2 4201   7.643   3.933   1.378
 1420TIP3   OH2 4202   6.899   5.703   1.827
 1420TIP3    H1 4203   6.886   5.657   1.910
 1420TIP3    H2 4204   6.963   5.649   1.780
 1421TIP3   OH2 4205   5.992   6.194   6.000
 1421TIP3    H1 4206   5.946   6.134   6.059
 1421TIP3    H2 4207   5.966   6.281   6.030
 1422TIP3   OH2 4208   6.576   2.477   6.362
 1422TIP3    H1 4209   6.518   2.450   6.433
 1422TIP3    H2 4210   6.519   2.522   6.299
 1423TIP3   OH2 4211   3.800   6.949   0.474
 1423TIP3    H1 4212   3.731   6.997   0.520
 1423TIP3    H2 4213   3.882   6.988   0.506
 1424TIP3   OH2 4214   7.092   2.915   6.571
 1424TIP3    H1 4215   7.136   2.886   6.651
 1424TIP3    H2 4216   7.099   2.841   6.511
 1425TIP3   OH2 4217   3.340   3.082   0.883
 1425TIP3    H1 4218   3.302   3.161   0.921
 1425TIP3    H2 4219   3.281   3.058   0.812
 1426TIP3   OH2 4220   7.098   1.007   4.442
 1426TIP3    H1 4221   7.141   1.092   4.445
 1426TIP3    H2 4222   7.135   0.964   4.365
 1427TIP3   OH2 4223   7.193   4.311   1.026
 1427TIP3    H1 4224   7.109   4.326   1.070
 1427TIP3    H2 4225   7.171   4.301   0.934
 1428TIP3   OH2 4226   7.581   7.292   3.305
 1428TIP3    H1 4227   7.632   7.221   3.345
 1428TIP3    H2 4228   7.619   7.303   3.218
 1429TIP3   OH2 4229   0.269   2.961   4.856
 1429TIP3    H1 4230   0.195   2.909   4.887
 1429TIP3    H2 4231   0.324   2.973   4.933
 1430TIP3   OH2 4232   6.325   1.282   6.419
 1430TIP3    H1 4233   6.357   1.316   6.503
 1430TIP3    H2 4234   6.241   1.240   6.440
 1431TIP3   OH2 4235   1.486   1.185   2.480
 1431TIP3    H1 4236   1.469   1.131   2.557
 1431TIP3    H2 4237   1.578   1.167   2.459
 1432TIP3   OH2 4238   1.105   7.391   6.703
 1432TIP3    H1 4239   1.129   7.465   6.759
 1432TIP3    H2 4240   1.101   7.316   6.763
 1433TIP3   OH2 4241   3.795   1.404   1.487
 1433TIP3    H1 4242   3.750   1.459   1.423
 1433TIP3    H2 4243   3.725   1.352   1.527
 1434TIP3   OH2 4244   3.746   1.132   3.092
 1434TIP3    H1 4245   3.822   1.174   3.132
 1434TIP3    H2 4246   3.758   1.146   2.998
 1435TIP3   OH2 4247   5.060   3.677   1.454
 1435TIP3    H1 4248   5.089   3.618   1.384
 1435TIP3    H2 4249   5.114   3.755   1.444
 1436TIP3   OH2 4250   2.341   1.823   1.848
 1436TIP3    H1 4251   2.429   1.792   1.870
 1436TIP3    H2 4252   2.294   1.824   1.932
 1437TIP3   OH2 4253   5.695   4.346   6.569
 1437TIP3    H1 4254   5.658   4.364   6.655
 1437TIP3    H2 4255   5.705   4.433   6.529
 1438TIP3   OH2 4256   0.056   5.517   5.311
 1438TIP3    H1 4257  -0.010   5.447   5.318
 1438TIP3    H2 4258   0.030   5.566   5.233
 1439TIP3   OH2 4259   7.508   3.191   1.838
 1439TIP3    H1 4260   7.475   3.195   1.928
 1439TIP3    H2 4261   7.531   3.281   1.817
 1440TIP3   OH2 4262   7.131   5.249   1.790
 1440TIP3    H1 4263   7.160   5.177   1.846
 1440TIP3    H2 4264   7.036   5.251   1.801
 1441TIP3   OH2 4265   7.710   4.561   6.692
 1441TIP3    H1 4266   7.620   4.533   6.711
 1441TIP3    H2 4267   7.707   4.591   6.601
 1442TIP3   OH2 4268   6.343   3.082   1.635
 1442TIP3    H1 4269   6.425   3.054   1.676
 1442TIP3    H2 4270   6.353   3.177   1.625
 1443TIP3   OH2 4271   4.937   1.357   0.175
 1443TIP3    H1 4272   5.011   1.314   0.132
 1443TIP3    H2 4273   4.860   1.328   0.126
 1444TIP3   OH2 4274   3.386   7.308   1.686
 1444TIP3    H1 4275   3.388   7.352   1.601
 1444TIP3    H2 4276   3.293   7.286   1.699
 1445TIP3   OH2 4277   5.919   5.831   3.921
 1445TIP3    H1 4278   5.977   5.887   3.869
 1445TIP3    H2 4279   5.846   5.812   3.862
 1446TIP3   OH2 4280   7.351   4.904   0.678
 1446TIP3    H1 4281   7.389   4.980   0.723
 1446TIP3    H2 4282   7.385   4.910   0.588
 1447TIP3   OH2 4283   4.137   7.609   4.638
 1447TIP3    H1 4284   4.099   7.641   4.557
 1447TIP3    H2 4285   4.232   7.621   4.626
 1448TIP3   OH2 4286   6.946   7.458   0.446
 1448TIP3    H1 4287   7.028   7.417   0.477
 1448TIP3    H2 4288   6.922   7.519   0.515
 1449TIP3   OH2 4289   3.374   4.770   3.481
 1449TIP3    H1 4290   3.458   4.812   3.497
 1449TIP3    H2 4291   3.359   4.715   3.559
 1450TIP3   OH2 4292   1.833   5.450   2.191
 1450TIP3    H1 4293   1.870   5.376   2.239
 1450TIP3    H2 4294   1.754   5.415   2.150
 1451TIP3   OH2 4295   1.733   3.325   4.888
 1451TIP3    H1 4296   1.729   3.315   4.983
 1451TIP3    H2 4297   1.722   3.237   4.853
 1452TIP3   OH2 4298   8.089   0.804   5.829
 1452TIP3    H1 4299   8.162   0.865   5.828
 1452TIP3    H2 4300   8.029   0.840   5.895
 1453TIP3   OH2 4301   4.608   7.704   6.668
 1453TIP3    H1 4302   4.539   7.704   6.601
 1453TIP3    H2 4303   4.676   7.646   6.633
 1454TIP3   OH2 4304   0.577   5.700   0.159
 1454TIP3    H1 4305   0.575   5.743   0.074
 1454TIP3    H2 4306   0.488   5.710   0.193
 1455TIP3   OH2 4307   3.891   2.023   0.197
 1455TIP3    H1 4308   3.986   2.018   0.203
 1455TIP3    H2 4309   3.862   1.933   0.212
 1456TIP3   OH2 4310   2.413   3.959   2.244
 1456TIP3    H1 4311   2.406   3.884   2.303
 1456TIP3    H2 4312   2.325   3.969   2.208
 1457TIP3   OH2 4313   0.866   2.888   4.187
 1457TIP3    H1 4314   0.790   2.902   4.130
 1457TIP3    H2 4315   0.828   2.878   4.275
 1458TIP3   OH2 4316   0.145   1.044   2.368
 1458TIP3    H1 4317   0.115   1.085   2.449
 1458TIP3    H2 4318   0.195   1.111   2.323
 1459TIP3   OH2 4319   1.827   0.240   0.626
 1459TIP3    H1 4320   1.790   0.254   0.713
 1459TIP3    H2 4321   1.832   0.145   0.618
 1460TIP3   OH2 4322   1.511   4.408   3.166
 1460TIP3    H1 4323   1.443   4.461   3.125
 1460TIP3    H2 4324   1.583   4.409   3.103
 1461TIP3   OH2 4325   4.550   4.363   0.688
 1461TIP3    H1 4326   4.586   4.427   0.626
 1461TIP3    H2 4327   4.538   4.284   0.635
 1462TIP3   OH2 4328   4.165   5.478   2.772
 1462TIP3    H1 4329   4.091   5.538   2.766
 1462TIP3    H2 4330   4.131   5.403   2.822
 1463TIP3   OH2 4331   1.821   0.189   3.916
 1463TIP3    H1 4332   1.872   0.173   3.996
 1463TIP3    H2 4333   1.752   0.123   3.918
 1464TIP3   OH2 4334   6.565   5.334   2.707
 1464TIP3    H1 4335   6.618   5.301   2.779
 1464TIP3    H2 4336   6.592   5.425   2.696
 1465TIP3   OH2 4337   7.708   2.078   3.889
 1465TIP3    H1 4338   7.690   1.992   3.851
 1465TIP3    H2 4339   7.631   2.130   3.867
 1466TIP3   OH2 4340   0.160   3.510   6.319
 1466TIP3    H1 4341   0.210   3.577   6.367
 1466TIP3    H2 4342   0.074   3.511   6.360
 1467TIP3   OH2 4343   7.316   7.282   2.192
 1467TIP3    H1 4344   7.328   7.309   2.283
 1467TIP3    H2 4345   7.244   7.219   2.195
 1468TIP3   OH2 4346   6.052   3.836   5.645
 1468TIP3    H1 4347   6.068   3.812   5.736
 1468TIP3    H2 4348   6.093   3.766   5.594
 1469TIP3   OH2 4349   2.394   7.610   5.881
 1469TIP3    H1 4350   2.431   7.549   5.817
 1469TIP3    H2 4351   2.323   7.561   5.922
 1470TIP3   OH2 4352   5.575   3.865   2.581
 1470TIP3    H1 4353   5.601   3.928   2.513
 1470TIP3    H2 4354   5.617   3.897   2.660
 1471TIP3   OH2 4355   0.073   0.021   0.190
 1471TIP3    H1 4356   0.049   0.078   0.263
 1471TIP3    H2 4357   0.108   0.080   0.124
 1472TIP3   OH2 4358   4.555   3.143   0.152
 1472TIP3    H1 4359   4.514   3.224   0.182
 1472TIP3    H2 4360   4.649   3.157   0.168
 1473TIP3   OH2 4361   3.639   6.742   0.895
 1473TIP3    H1 4362   3.603   6.728   0.807
 1473TIP3    H2 4363   3.717   6.687   0.898
 1474TIP3   OH2 4364   6.276   7.748   5.956
 1474TIP3    H1 4365   6.320   7.758   6.040
 1474TIP3    H2 4366   6.183   7.741   5.978
 1475TIP3   OH2 4367   3.217   6.468   2.392
 1475TIP3    H1 4368   3.257   6.536   2.337
 1475TIP3    H2 4369   3.281   6.452   2.461
 1476TIP3   OH2 4370   4.515   0.875   5.491
 1476TIP3    H1 4371   4.549   0.815   5.425
 1476TIP3    H2 4372   4.539   0.962   5.459
 1477TIP3   OH2 4373   6.005   0.414   3.717
 1477TIP3    H1 4374   6.087   0.366   3.724
 1477TIP3    H2 4375   5.957   0.370   3.646
 1478TIP3   OH2 4376   6.991   3.970   6.761
 1478TIP3    H1 4377   6.946   3.903   6.813
 1478TIP3    H2 4378   6.943   3.973   6.679
 1479TIP3   OH2 4379   5.891   5.486   0.165
 1479TIP3    H1 4380   5.899   5.509   0.073
 1479TIP3    H2 4381   5.817   5.538   0.197
 1480TIP3   OH2 4382   6.280   5.253   3.261
 1480TIP3    H1 4383   6.250   5.172   3.220
 1480TIP3    H2 4384   6.376   5.249   3.254
 1481TIP3   OH2 4385   2.101  -0.003   0.157
 1481TIP3    H1 4386   2.177  -0.031   0.207
 1481TIP3    H2 4387   2.101   0.093   0.164
 1482TIP3   OH2 4388   2.779   0.732   4.616
 1482TIP3    H1 4389   2.845   0.692   4.673
 1482TIP3    H2 4390   2.758   0.665   4.551
 1483TIP3   OH2 4391   2.578   3.473   0.872
 1483TIP3    H1 4392   2.529   3.532   0.930
 1483TIP3    H2 4393   2.670   3.497   0.884
 1484TIP3   OH2 4394   2.152   0.723   0.623
 1484TIP3    H1 4395   2.174   0.753   0.711
 1484TIP3    H2 4396   2.061   0.695   0.629
 1485TIP3   OH2 4397   4.304   4.587   0.339
 1485TIP3    H1 4398   4.315   4.525   0.411
 1485TIP3    H2 4399   4.390   4.625   0.326
 1486TIP3   OH2 4400   0.301   1.876   5.453
 1486TIP3    H1 4401   0.286   1.897   5.545
 1486TIP3    H2 4402   0.345   1.791   5.455
 1487TIP3   OH2 4403   4.501   5.882   0.933
 1487TIP3    H1 4404   4.513   5.964   0.886
 1487TIP3    H2 4405   4.588   5.841   0.932
 1488TIP3   OH2 4406   4.609   7.514   3.898
 1488TIP3    H1 4407   4.614   7.582   3.831
 1488TIP3    H2 4408   4.556   7.552   3.968
 1489TIP3   OH2 4409   4.603   0.794   2.903
 1489TIP3    H1 4410   4.583   0.866   2.963
 1489TIP3    H2 4411   4.569   0.822   2.819
 1490TIP3   OH2 4412   2.552   0.706   1.527
 1490TIP3    H1 4413   2.594   0.701   1.441
 1490TIP3    H2 4414   2.468   0.663   1.515
 1491TIP3   OH2 4415   2.633   2.440   1.533
 1491TIP3    H1 4416   2.559   2.500   1.535
 1491TIP3    H2 4417   2.700   2.487   1.483
 1492TIP3   OH2 4418   5.851   4.519   3.498
 1492TIP3    H1 4419   5.827   4.525   3.590
 1492TIP3    H2 4420   5.947   4.519   3.498
 1493TIP3   OH2 4421   6.316   5.233   2.725
 1493TIP3    H1 4422   6.274   5.282   2.795
 1493TIP3    H2 4423   6.402   5.273   2.716
 1494TIP3   OH2 4424   1.254   4.319   3.818
 1494TIP3    H1 4425   1.280   4.355   3.733
 1494TIP3    H2 4426   1.333   4.322   3.871
 1495TIP3   OH2 4427   7.578   3.581   6.081
 1495TIP3    H1 4428   7.653   3.578   6.140
 1495TIP3    H2 4429   7.558   3.489   6.064
 1496TIP3   OH2 4430   5.683   1.512   4.037
 1496TIP3    H1 4431   5.641   1.426   4.040
 1496TIP3    H2 4432   5.730   1.513   3.953
 1497TIP3   OH2 4433   7.623   1.534   3.565
 1497TIP3    H1 4434   7.548   1.556   3.621
 1497TIP3    H2 4435   7.636   1.612   3.511
 1498TIP3   OH2 4436   0.072   3.951   6.508
 1498TIP3    H1 4437   0.045   3.875   6.560
 1498TIP3    H2 4438  -0.009   4.000   6.493
 1499TIP3   OH2 4439   8.239   6.574   6.702
 1499TIP3    H1 4440   8.190   6.572   6.620
 1499TIP3    H2 4441   8.171   6.577   6.770
 1500TIP3   OH2 4442   3.536   2.547   1.007
 1500TIP3    H1 4443   3.521   2.496   1.087
 1500TIP3    H2 4444   3.626   2.576   1.013
 1501TIP3   OH2 4445   6.318   2.712   5.939
 1501TIP3    H1 4446   6.235   2.669   5.921
 1501TIP3    H2 4447   6.325   2.780   5.872
 1502TIP3   OH2 4448   8.096   2.437   0.975
 1502TIP3    H1 4449   8.098   2.476   0.888
 1502TIP3    H2 4450   8.019   2.379   0.973
 1503TIP3   OH2 4451   1.771   7.706   4.880
 1503TIP3    H1 4452   1.729   7.665   4.805
 1503TIP3    H2 4453   1.743   7.797   4.877
 1504TIP3   OH2 4454   5.631   0.313   2.279
 1504TIP3    H1 4455   5.665   0.229   2.246
 1504TIP3    H2 4456   5.564   0.338   2.215
 1505TIP3   OH2 4457   5.500   5.686   4.287
 1505TIP3    H1 4458   5.524   5.653   4.200
 1505TIP3    H2 4459   5.492   5.608   4.341
 1506TIP3   OH2 4460   5.112   7.580   2.806
 1506TIP3    H1 4461   5.165   7.657   2.784
 1506TIP3    H2 4462   5.173   7.506   2.796
 1507TIP3   OH2 4463   4.521   6.887   4.355
 1507TIP3    H1 4464   4.553   6.828   4.423
 1507TIP3    H2 4465   4.438   6.920   4.389
 1508TIP3   OH2 4466   3.608   2.995   3.714
 1508TIP3    H1 4467   3.669   2.999   3.640
 1508TIP3    H2 4468   3.609   3.083   3.751
 1509TIP3   OH2 4469   8.148   5.021   3.404
 1509TIP3    H1 4470   8.218   4.969   3.443
 1509TIP3    H2 4471   8.097   5.051   3.480
 1510TIP3   OH2 4472   1.006   1.768   0.002
 1510TIP3    H1 4473   1.035   1.847  -0.044
 1510TIP3    H2 4474   1.060   1.765   0.081
 1511TIP3   OH2 4475   4.919   7.006   5.729
 1511TIP3    H1 4476   4.996   7.039   5.682
 1511TIP3    H2 4477   4.954   6.972   5.811
 1512TIP3   OH2 4478   0.252   7.474   6.108
 1512TIP3    H1 4479   0.269   7.539   6.176
 1512TIP3    H2 4480   0.240   7.392   6.155
 1513TIP3   OH2 4481   2.097   2.891   5.210
 1513TIP3    H1 4482   2.105   2.820   5.146
 1513TIP3    H2 4483   2.148   2.862   5.285
 1514TIP3   OH2 4484   8.232   4.663   3.673
 1514TIP3    H1 4485   8.246   4.752   3.707
 1514TIP3    H2 4486   8.140   4.663   3.646
 1515TIP3   OH2 4487   6.753   0.193   6.246
 1515TIP3    H1 4488   6.812   0.127   6.283
 1515TIP3    H2 4489   6.680   0.141   6.211
 1516TIP3   OH2 4490   2.400   2.259   3.693
 1516TIP3    H1 4491   2.404   2.267   3.598
 1516TIP3    H2 4492   2.307   2.254   3.713
 1517TIP3   OH2 4493   3.401   4.896   6.433
 1517TIP3    H1 4494   3.459   4.832   6.476
 1517TIP3    H2 4495   3.383   4.961   6.502
 1518TIP3   OH2 4496   2.257   6.211   6.420
 1518TIP3    H1 4497   2.223   6.286   6.372
 1518TIP3    H2 4498   2.277   6.246   6.508
 1519TIP3   OH2 4499   3.897   4.208   6.220
 1519TIP3    H1 4500   3.862   4.277   6.276
 1519TIP3    H2 4501   3.918   4.137   6.280
 1520TIP3   OH2 4502   6.749   3.246   5.142
 1520TIP3    H1 4503   6.674   3.217   5.090
 1520TIP3    H2 4504   6.818   3.262   5.077
 1521TIP3   OH2 4505   7.496   1.932   2.820
 1521TIP3    H1 4506   7.494   1.886   2.904
 1521TIP3    H2 4507   7.568   1.994   2.829
 1522TIP3   OH2 4508   4.413   1.497   1.436
 1522TIP3    H1 4509   4.487   1.466   1.487
 1522TIP3    H2 4510   4.351   1.424   1.438
 1523TIP3   OH2 4511   7.075   4.036   4.739
 1523TIP3    H1 4512   7.140   4.041   4.808
 1523TIP3    H2 4513   7.081   4.121   4.694
 1524TIP3   OH2 4514   1.570   7.338   4.834
 1524TIP3    H1 4515   1.578   7.413   4.774
 1524TIP3    H2 4516   1.502   7.284   4.795
 1525TIP3   OH2 4517   3.689   7.367   5.748
 1525TIP3    H1 4518   3.770   7.335   5.787
 1525TIP3    H2 4519   3.709   7.376   5.655
 1526TIP3   OH2 4520   0.722   0.256   2.259
 1526TIP3    H1 4521   0.653   0.218   2.204
 1526TIP3    H2 4522   0.778   0.182   2.281
 1527TIP3   OH2 4523   6.659   4.402   4.566
 1527TIP3    H1 4524   6.628   4.334   4.626
 1527TIP3    H2 4525   6.754   4.386   4.559
 1528TIP3   OH2 4526   0.042   3.631   4.450
 1528TIP3    H1 4527   0.098   3.580   4.391
 1528TIP3    H2 4528   0.092   3.634   4.532
 1529TIP3   OH2 4529   4.837   4.696   5.813
 1529TIP3    H1 4530   4.885   4.664   5.889
 1529TIP3    H2 4531   4.749   4.713   5.845
 1530TIP3   OH2 4532   4.528   0.199   0.195
 1530TIP3    H1 4533   4.586   0.275   0.195
 1530TIP3    H2 4534   4.481   0.205   0.278
 1531TIP3   OH2 4535   5.423   5.676   1.406
 1531TIP3    H1 4536   5.423   5.719   1.320
 1531TIP3    H2 4537   5.340   5.629   1.410
 1532TIP3   OH2 4538   7.489   4.955   2.810
 1532TIP3    H1 4539   7.405   4.916   2.790
 1532TIP3    H2 4540   7.476   4.998   2.895
 1533TIP3   OH2 4541   2.474   1.481   5.919
 1533TIP3    H1 4542   2.564   1.449   5.916
 1533TIP3    H2 4543   2.466   1.537   5.843
 1534TIP3   OH2 4544   1.485   1.033   2.221
 1534TIP3    H1 4545   1.422   1.017   2.292
 1534TIP3    H2 4546   1.500   1.127   2.224
 1535TIP3   OH2 4547   4.495   0.415   1.180
 1535TIP3    H1 4548   4.501   0.399   1.274
 1535TIP3    H2 4549   4.417   0.470   1.170
 1536TIP3   OH2 4550   1.921   3.718   3.417
 1536TIP3    H1 4551   2.011   3.720   3.384
 1536TIP3    H2 4552   1.915   3.795   3.473
 1537TIP3   OH2 4553   0.400   5.901   0.500
 1537TIP3    H1 4554   0.313   5.862   0.509
 1537TIP3    H2 4555   0.442   5.886   0.585
 1538TIP3   OH2 4556   3.694   1.801   1.112
 1538TIP3    H1 4557   3.671   1.714   1.146
 1538TIP3    H2 4558   3.640   1.861   1.162
 1539TIP3   OH2 4559   2.322   2.494   6.520
 1539TIP3    H1 4560   2.373   2.415   6.499
 1539TIP3    H2 4561   2.381   2.566   6.500
 1540TIP3   OH2 4562   8.131   2.002   1.289
 1540TIP3    H1 4563   8.149   1.977   1.379
 1540TIP3    H2 4564   8.041   2.036   1.291
 1541TIP3   OH2 4565   5.835   7.224   0.693
 1541TIP3    H1 4566   5.813   7.191   0.606
 1541TIP3    H2 4567   5.921   7.265   0.681
 1542TIP3   OH2 4568   2.605   1.984   5.762
 1542TIP3    H1 4569   2.543   2.000   5.833
 1542TIP3    H2 4570   2.633   2.071   5.734
 1543TIP3   OH2 4571   7.233   2.622   3.942
 1543TIP3    H1 4572   7.291   2.603   4.016
 1543TIP3    H2 4573   7.177   2.545   3.935
 1544TIP3   OH2 4574   7.165   5.919   3.083
 1544TIP3    H1 4575   7.207   5.952   3.163
 1544TIP3    H2 4576   7.239   5.895   3.027
 1545TIP3   OH2 4577   6.573   3.644   4.607
 1545TIP3    H1 4578   6.583   3.582   4.679
 1545TIP3    H2 4579   6.479   3.641   4.586
 1546TIP3   OH2 4580   3.688   4.982   2.931
 1546TIP3    H1 4581   3.616   4.974   2.868
 1546TIP3    H2 4582   3.670   5.064   2.978
 1547TIP3   OH2 4583   7.145   0.775   1.971
 1547TIP3    H1 4584   7.103   0.826   2.040
 1547TIP3    H2 4585   7.106   0.688   1.978
 1548TIP3   OH2 4586   5.521   1.755   5.494
 1548TIP3    H1 4587   5.568   1.807   5.559
 1548TIP3    H2 4588   5.510   1.669   5.535
 1549TIP3   OH2 4589   5.165   0.361   5.165
 1549TIP3    H1 4590   5.177   0.277   5.209
 1549TIP3    H2 4591   5.185   0.426   5.232
 1550TIP3   OH2 4592   2.378   4.124   4.651
 1550TIP3    H1 4593   2.452   4.148   4.594
 1550TIP3    H2 4594   2.415   4.059   4.711
 1551TIP3   OH2 4595   0.710   5.442   1.025
 1551TIP3    H1 4596   0.758   5.428   0.944
 1551TIP3    H2 4597   0.762   5.507   1.073
 1552TIP3   OH2 4598   2.698   1.578   6.137
 1552TIP3    H1 4599   2.688   1.502   6.080
 1552TIP3    H2 4600   2.608   1.608   6.153
 1553TIP3   OH2 4601   5.624   5.795   2.030
 1553TIP3    H1 4602   5.550   5.733   2.030
 1553TIP3    H2 4603   5.584   5.880   2.049
 1554TIP3   OH2 4604   6.971   6.218   2.274
 1554TIP3    H1 4605   6.954   6.195   2.366
 1554TIP3    H2 4606   7.066   6.221   2.268
 1555TIP3   OH2 4607   0.276   7.270   5.252
 1555TIP3    H1 4608   0.220   7.344   5.274
 1555TIP3    H2 4609   0.241   7.237   5.169
 1556TIP3   OH2 4610   0.652   3.164   3.148
 1556TIP3    H1 4611   0.643   3.084   3.096
 1556TIP3    H2 4612   0.711   3.141   3.219
 1557TIP3   OH2 4613   7.264   7.175   5.844
 1557TIP3    H1 4614   7.287   7.106   5.781
 1557TIP3    H2 4615   7.169   7.184   5.835
 1558TIP3   OH2 4616   5.169   7.544   0.053
 1558TIP3    H1 4617   5.254   7.575   0.021
 1558TIP3    H2 4618   5.186   7.456   0.086
 1559TIP3   OH2 4619   3.076   7.072   1.979
 1559TIP3    H1 4620   3.010   7.028   1.925
 1559TIP3    H2 4621   3.039   7.072   2.067
 1560TIP3   OH2 4622   5.599   5.410   3.249
 1560TIP3    H1 4623   5.648   5.332   3.223
 1560TIP3    H2 4624   5.524   5.376   3.299
 1561TIP3   OH2 4625   4.407   1.148   5.772
 1561TIP3    H1 4626   4.357   1.098   5.836
 1561TIP3    H2 4627   4.497   1.145   5.805
 1562TIP3   OH2 4628   6.371   5.650   6.005
 1562TIP3    H1 4629   6.455   5.671   5.964
 1562TIP3    H2 4630   6.391   5.581   6.067
 1563TIP3   OH2 4631   5.547   5.526   0.893
 1563TIP3    H1 4632   5.624   5.503   0.945
 1563TIP3    H2 4633   5.563   5.484   0.808
 1564TIP3   OH2 4634   7.266   5.811   1.524
 1564TIP3    H1 4635   7.270   5.901   1.491
 1564TIP3    H2 4636   7.220   5.818   1.608
 1565TIP3   OH2 4637   2.725   5.601   6.248
 1565TIP3    H1 4638   2.730   5.617   6.342
 1565TIP3    H2 4639   2.805   5.551   6.228
 1566TIP3   OH2 4640   1.671   7.396   5.497
 1566TIP3    H1 4641   1.716   7.391   5.581
 1566TIP3    H2 4642   1.587   7.354   5.513
 1567TIP3   OH2 4643   2.554   7.058   5.967
 1567TIP3    H1 4644   2.575   7.151   5.979
 1567TIP3    H2 4645   2.470   7.058   5.922
 1568TIP3   OH2 4646   5.568   0.339   2.682
 1568TIP3    H1 4647   5.601   0.345   2.771
 1568TIP3    H2 4648   5.475   0.318   2.691
 1569TIP3   OH2 4649   6.524   4.149   6.252
 1569TIP3    H1 4650   6.495   4.057   6.250
 1569TIP3    H2 4651   6.545   4.166   6.343
 1570TIP3   OH2 4652   0.121   3.935   2.740
 1570TIP3    H1 4653   0.097   4.016   2.784
 1570TIP3    H2 4654   0.158   3.880   2.810
 1571TIP3   OH2 4655   6.709   0.505   5.820
 1571TIP3    H1 4656   6.730   0.452   5.897
 1571TIP3    H2 4657   6.791   0.548   5.797
 1572TIP3   OH2 4658   0.248   7.092   2.294
 1572TIP3    H1 4659   0.285   7.178   2.273
 1572TIP3    H2 4660   0.298   7.031   2.240
 1573TIP3   OH2 4661   2.177   6.290   1.083
 1573TIP3    H1 4662   2.171   6.195   1.090
 1573TIP3    H2 4663   2.218   6.318   1.166
 1574TIP3   OH2 4664   4.119   0.118   3.848
 1574TIP3    H1 4665   4.191   0.166   3.806
 1574TIP3    H2 4666   4.065   0.187   3.887
 1575TIP3   OH2 4667   4.816   3.098   6.277
 1575TIP3    H1 4668   4.745   3.155   6.248
 1575TIP3    H2 4669   4.834   3.042   6.201
 1576TIP3   OH2 4670   0.498   1.284   2.719
 1576TIP3    H1 4671   0.483   1.267   2.812
 1576TIP3    H2 4672   0.484   1.200   2.676
 1577TIP3   OH2 4673   7.627   7.158   2.467
 1577TIP3    H1 4674   7.637   7.131   2.558
 1577TIP3    H2 4675   7.700   7.117   2.421
 1578TIP3   OH2 4676   0.761   3.776   3.746
 1578TIP3    H1 4677   0.771   3.830   3.667
 1578TIP3    H2 4678   0.736   3.690   3.713
 1579TIP3   OH2 4679   7.757   3.235   1.148
 1579TIP3    H1 4680   7.688   3.301   1.157
 1579TIP3    H2 4681   7.774   3.207   1.238
 1580TIP3   OH2 4682   7.518   1.246   4.391
 1580TIP3    H1 4683   7.537   1.273   4.301
 1580TIP3    H2 4684   7.602   1.255   4.436
 1581TIP3   OH2 4685   8.090   0.240   2.470
 1581TIP3    H1 4686   8.159   0.221   2.534
 1581TIP3    H2 4687   8.133   0.235   2.385
 1582TIP3   OH2 4688   2.617   2.621   4.201
 1582TIP3    H1 4689   2.706   2.609   4.167
 1582TIP3    H2 4690   2.625   2.692   4.264
 1583TIP3   OH2 4691   1.086   6.215   4.992
 1583TIP3    H1 4692   1.160   6.250   4.941
 1583TIP3    H2 4693   1.025   6.289   4.999
 1584TIP3   OH2 4694   7.124   3.183   6.508
 1584TIP3    H1 4695   7.162   3.221   6.587
 1584TIP3    H2 4696   7.102   3.093   6.533
 1585TIP3   OH2 4697   0.958   3.551   3.539
 1585TIP3    H1 4698   1.001   3.504   3.610
 1585TIP3    H2 4699   1.027   3.566   3.475
 1586TIP3   OH2 4700   7.454   0.761   1.216
 1586TIP3    H1 4701   7.541   0.753   1.254
 1586TIP3    H2 4702   7.468   0.801   1.130
 1587TIP3   OH2 4703   3.768   3.823   2.942
 1587TIP3    H1 4704   3.755   3.915   2.921
 1587TIP3    H2 4705   3.783   3.781   2.857
 1588TIP3   OH2 4706   8.118   7.286   3.935
 1588TIP3    H1 4707   8.086   7.359   3.883
 1588TIP3    H2 4708   8.047   7.268   3.997
 1589TIP3   OH2 4709   6.403   2.382   3.680
 1589TIP3    H1 4710   6.361   2.436   3.747
 1589TIP3    H2 4711   6.385   2.292   3.708
 1590TIP3   OH2 4712   3.916   7.651   3.640
 1590TIP3    H1 4713   3.861   7.720   3.677
 1590TIP3    H2 4714   3.876   7.630   3.556
 1591TIP3   OH2 4715   2.612   4.546   6.278
 1591TIP3    H1 4716   2.559   4.626   6.272
 1591TIP3    H2 4717   2.692   4.567   6.229
 1592TIP3   OH2 4718   4.203   6.282   6.534
 1592TIP3    H1 4719   4.179   6.372   6.511
 1592TIP3    H2 4720   4.172   6.229   6.461
 1593TIP3   OH2 4721   2.726   2.215   4.265
 1593TIP3    H1 4722   2.715   2.140   4.324
 1593TIP3    H2 4723   2.677   2.190   4.186
 1594TIP3   OH2 4724   5.397   0.507   3.534
 1594TIP3    H1 4725   5.451   0.561   3.477
 1594TIP3    H2 4726   5.376   0.430   3.481
 1595TIP3   OH2 4727   5.240   1.635   0.173
 1595TIP3    H1 4728   5.314   1.677   0.129
 1595TIP3    H2 4729   5.187   1.707   0.205
 1596TIP3   OH2 4730   6.008   4.400   4.761
 1596TIP3    H1 4731   6.064   4.468   4.799
 1596TIP3    H2 4732   6.009   4.417   4.667
 1597TIP3   OH2 4733   2.853   4.975   6.759
 1597TIP3    H1 4734   2.835   4.983   6.666
 1597TIP3    H2 4735   2.820   5.056   6.797
 1598TIP3   OH2 4736   3.159   2.269   5.439
 1598TIP3    H1 4737   3.109   2.348   5.417
 1598TIP3    H2 4738   3.233   2.302   5.490
 1599TIP3   OH2 4739   5.192   4.808   2.925
 1599TIP3    H1 4740   5.112   4.756   2.912
 1599TIP3    H2 4741   5.225   4.781   3.010
 1600TIP3   OH2 4742   7.474   7.553   3.295
 1600TIP3    H1 4743   7.449   7.461   3.292
 1600TIP3    H2 4744   7.555   7.555   3.346
 1601TIP3   OH2 4745   5.061   1.056   2.424
 1601TIP3    H1 4746   5.004   0.982   2.443
 1601TIP3    H2 4747   5.112   1.068   2.504
 1602TIP3   OH2 4748   6.557   5.579   5.244
 1602TIP3    H1 4749   6.635   5.615   5.286
 1602TIP3    H2 4750   6.515   5.654   5.203
 1603TIP3   OH2 4751   5.323   0.113   2.031
 1603TIP3    H1 4752   5.349   0.204   2.050
 1603TIP3    H2 4753   5.386   0.060   2.080
 1604TIP3   OH2 4754   5.864   4.716   5.824
 1604TIP3    H1 4755   5.851   4.811   5.831
 1604TIP3    H2 4756   5.832   4.693   5.737
 1605TIP3   OH2 4757   4.078   6.780   1.366
 1605TIP3    H1 4758   4.103   6.794   1.458
 1605TIP3    H2 4759   4.077   6.868   1.328
 1606TIP3   OH2 4760   5.775   6.106   0.052
 1606TIP3    H1 4761   5.776   6.079   0.144
 1606TIP3    H2 4762   5.830   6.184   0.049
 1607TIP3   OH2 4763   4.784   2.004   1.904
 1607TIP3    H1 4764   4.807   2.084   1.856
 1607TIP3    H2 4765   4.725   2.033   1.973
 1608TIP3   OH2 4766   7.291   6.393   5.591
 1608TIP3    H1 4767   7.243   6.475   5.598
 1608TIP3    H2 4768   7.383   6.418   5.587
 1609TIP3   OH2 4769   1.298   0.422   4.399
 1609TIP3    H1 4770   1.253   0.459   4.323
 1609TIP3    H2 4771   1.356   0.355   4.362
 1610TIP3   OH2 4772   5.654   7.075   2.462
 1610TIP3    H1 4773   5.730   7.105   2.412
 1610TIP3    H2 4774   5.582   7.078   2.399
 1611TIP3   OH2 4775   7.109   6.153   6.767
 1611TIP3    H1 4776   7.139   6.082   6.824
 1611TIP3    H2 4777   7.189   6.189   6.730
 1612TIP3   OH2 4778   3.213   5.697   3.842
 1612TIP3    H1 4779   3.175   5.619   3.882
 1612TIP3    H2 4780   3.151   5.720   3.772
 1613TIP3   OH2 4781   3.128   1.354   0.608
 1613TIP3    H1 4782   3.121   1.430   0.551
 1613TIP3    H2 4783   3.066   1.291   0.570
 1614TIP3   OH2 4784   2.180   7.455   5.947
 1614TIP3    H1 4785   2.136   7.388   6.000
 1614TIP3    H2 4786   2.138   7.537   5.973
 1615TIP3   OH2 4787   4.338   7.685   1.453
 1615TIP3    H1 4788   4.267   7.739   1.419
 1615TIP3    H2 4789   4.351   7.617   1.387
 1616TIP3   OH2 4790   7.349   4.500   4.963
 1616TIP3    H1 4791   7.412   4.562   5.000
 1616TIP3    H2 4792   7.265   4.545   4.968
 1617TIP3   OH2 4793   8.030   3.158   0.022
 1617TIP3    H1 4794   8.092   3.221   0.058
 1617TIP3    H2 4795   7.949   3.207   0.013
 1618TIP3   OH2 4796   4.209   7.313   2.051
 1618TIP3    H1 4797   4.200   7.380   2.118
 1618TIP3    H2 4798   4.195   7.231   2.098
 1619TIP3   OH2 4799   6.307   7.375   1.583
 1619TIP3    H1 4800   6.332   7.312   1.651
 1619TIP3    H2 4801   6.378   7.373   1.520
 1620TIP3   OH2 4802   1.884   0.654   2.330
 1620TIP3    H1 4803   1.951   0.601   2.374
 1620TIP3    H2 4804   1.896   0.741   2.366
 1621TIP3   OH2 4805   4.472   1.644   3.272
 1621TIP3    H1 4806   4.566   1.626   3.274
 1621TIP3    H2 4807   4.462   1.728   3.317
 1622TIP3   OH2 4808   2.892   1.240   0.473
 1622TIP3    H1 4809   2.859   1.158   0.436
 1622TIP3    H2 4810   2.871   1.306   0.407
 1623TIP3   OH2 4811   6.085   4.155   3.682
 1623TIP3    H1 4812   6.169   4.147   3.638
 1623TIP3    H2 4813   6.020   4.128   3.617
 1624TIP3   OH2 4814   7.412   1.861   1.633
 1624TIP3    H1 4815   7.474   1.932   1.615
 1624TIP3    H2 4816   7.380   1.836   1.547
 1625TIP3   OH2 4817   4.268   3.735   2.325
 1625TIP3    H1 4818   4.175   3.720   2.340
 1625TIP3    H2 4819   4.292   3.803   2.387
 1626TIP3   OH2 4820   6.459   5.601   4.523
 1626TIP3    H1 4821   6.487   5.547   4.449
 1626TIP3    H2 4822   6.481   5.691   4.498
 1627TIP3   OH2 4823   7.486   3.331   2.794
 1627TIP3    H1 4824   7.543   3.290   2.859
 1627TIP3    H2 4825   7.420   3.376   2.846
 1628TIP3   OH2 4826   6.605   5.782   2.492
 1628TIP3    H1 4827   6.638   5.809   2.578
 1628TIP3    H2 4828   6.514   5.811   2.491
 1629TIP3   OH2 4829   5.414   7.177   4.094
 1629TIP3    H1 4830   5.494   7.229   4.100
 1629TIP3    H2 4831   5.439   7.098   4.045
 1630TIP3   OH2 4832   5.648   3.996   6.248
 1630TIP3    H1 4833   5.628   4.081   6.288
 1630TIP3    H2 4834   5.611   3.931   6.307
 1631TIP3   OH2 4835   5.940   2.824   5.058
 1631TIP3    H1 4836   6.000   2.790   5.125
 1631TIP3    H2 4837   5.871   2.867   5.108
 1632TIP3   OH2 4838   4.963   3.326   1.544
 1632TIP3    H1 4839   4.996   3.236   1.538
 1632TIP3    H2 4840   4.902   3.324   1.618
 1633TIP3   OH2 4841   1.319   4.263   0.420
 1633TIP3    H1 4842   1.399   4.312   0.437
 1633TIP3    H2 4843   1.262   4.325   0.374
 1634TIP3   OH2 4844   4.502   1.791   5.920
 1634TIP3    H1 4845   4.509   1.827   5.831
 1634TIP3    H2 4846   4.545   1.856   5.976
 1635TIP3   OH2 4847   7.398   3.449   4.406
 1635TIP3    H1 4848   7.433   3.529   4.443
 1635TIP3    H2 4849   7.373   3.473   4.316
 1636TIP3   OH2 4850   1.723   3.470   6.635
 1636TIP3    H1 4851   1.763   3.402   6.688
 1636TIP3    H2 4852   1.629   3.452   6.638
 1637TIP3   OH2 4853   1.523   4.492   2.100
 1637TIP3    H1 4854   1.559   4.488   2.189
 1637TIP3    H2 4855   1.550   4.409   2.060
 1638TIP3   OH2 4856   5.159   3.769   1.001
 1638TIP3    H1 4857   5.176   3.679   0.974
 1638TIP3    H2 4858   5.171   3.821   0.921
 1639TIP3   OH2 4859   0.680   0.949   4.602
 1639TIP3    H1 4860   0.768   0.966   4.568
 1639TIP3    H2 4861   0.673   0.853   4.602
 1640TIP3   OH2 4862   1.497   3.914   3.633
 1640TIP3    H1 4863   1.522   3.894   3.543
 1640TIP3    H2 4864   1.418   3.968   3.625
 1641TIP3   OH2 4865   5.529   2.123   5.337
 1641TIP3    H1 4866   5.534   2.148   5.430
 1641TIP3    H2 4867   5.436   2.111   5.320
 1642TIP3   OH2 4868   1.072   1.982   5.521
 1642TIP3    H1 4869   1.086   2.063   5.569
 1642TIP3    H2 4870   0.995   2.000   5.466
 1643TIP3   OH2 4871   1.678   6.104   1.776
 1643TIP3    H1 4872   1.689   6.026   1.829
 1643TIP3    H2 4873   1.593   6.092   1.734
 1644TIP3   OH2 4874   6.492   1.104   6.027
 1644TIP3    H1 4875   6.405   1.095   6.067
 1644TIP3    H2 4876   6.539   1.161   6.086
 1645TIP3   OH2 4877   3.865   2.071   6.507
 1645TIP3    H1 4878   3.876   1.978   6.522
 1645TIP3    H2 4879   3.908   2.088   6.423
 1646TIP3   OH2 4880   0.575   6.859   4.370
 1646TIP3    H1 4881   0.531   6.893   4.293
 1646TIP3    H2 4882   0.535   6.906   4.443
 1647TIP3   OH2 4883   6.019   1.569   2.871
 1647TIP3    H1 4884   5.954   1.578   2.941
 1647TIP3    H2 4885   6.054   1.481   2.882
 1648TIP3   OH2 4886   3.329   2.884   1.242
 1648TIP3    H1 4887   3.329   2.795   1.277
 1648TIP3    H2 4888   3.238   2.902   1.219
 1649TIP3   OH2 4889   6.868   0.533   3.815
 1649TIP3    H1 4890   6.813   0.485   3.877
 1649TIP3    H2 4891   6.810   0.599   3.778
 1650TIP3   OH2 4892   0.958   7.596   2.117
 1650TIP3    H1 4893   0.907   7.515   2.110
 1650TIP3    H2 4894   0.895   7.666   2.099
 1651TIP3   OH2 4895   0.211   0.800   4.653
 1651TIP3    H1 4896   0.156   0.807   4.575
 1651TIP3    H2 4897   0.156   0.754   4.716
 1652TIP3   OH2 4898   0.402   7.139   6.593
 1652TIP3    H1 4899   0.414   7.187   6.511
 1652TIP3    H2 4900   0.310   7.115   6.594
 1653TIP3   OH2 4901   4.471   5.506   1.571
 1653TIP3    H1 4902   4.411   5.485   1.499
 1653TIP3    H2 4903   4.515   5.423   1.590
 1654TIP3   OH2 4904   5.065   1.341   0.803
 1654TIP3    H1 4905   5.107   1.425   0.788
 1654TIP3    H2 4906   4.997   1.360   0.869
 1655TIP3   OH2 4907   5.001   3.598   6.290
 1655TIP3    H1 4908   4.974   3.622   6.201
 1655TIP3    H2 4909   4.925   3.555   6.328
 1656TIP3   OH2 4910   4.016   3.685   2.393
 1656TIP3    H1 4911   3.965   3.660   2.316
 1656TIP3    H2 4912   3.955   3.672   2.467
 1657TIP3   OH2 4913   8.078   6.427   4.428
 1657TIP3    H1 4914   8.009   6.361   4.439
 1657TIP3    H2 4915   8.158   6.375   4.421
 1658TIP3   OH2 4916   1.476   6.308   1.518
 1658TIP3    H1 4917   1.403   6.363   1.489
 1658TIP3    H2 4918   1.547   6.327   1.457
 1659TIP3   OH2 4919   5.626   5.057   1.736
 1659TIP3    H1 4920   5.598   5.101   1.656
 1659TIP3    H2 4921   5.575   5.097   1.806
 1660TIP3   OH2 4922   0.487   7.064   4.815
 1660TIP3    H1 4923   0.461   7.154   4.832
 1660TIP3    H2 4924   0.445   7.013   4.884
 1661TIP3   OH2 4925   5.655   2.409   1.475
 1661TIP3    H1 4926   5.604   2.330   1.494
 1661TIP3    H2 4927   5.746   2.378   1.470
 1662TIP3   OH2 4928   0.099   6.212   0.949
 1662TIP3    H1 4929   0.086   6.217   0.854
 1662TIP3    H2 4930   0.083   6.301   0.980
 1663TIP3   OH2 4931   4.774   4.395   6.389
 1663TIP3    H1 4932   4.854   4.374   6.341
 1663TIP3    H2 4933   4.709   4.412   6.322
 1664TIP3   OH2 4934   0.217   7.033   1.169
 1664TIP3    H1 4935   0.231   6.986   1.251
 1664TIP3    H2 4936   0.268   6.983   1.104
 1665TIP3   OH2 4937   4.579   7.810   0.144
 1665TIP3    H1 4938   4.609   7.883   0.091
 1665TIP3    H2 4939   4.656   7.785   0.196
 1666TIP3   OH2 4940   3.536   4.039   5.354
 1666TIP3    H1 4941   3.495   4.043   5.268
 1666TIP3    H2 4942   3.528   3.947   5.381
 1667TIP3   OH2 4943   0.827   1.065   0.850
 1667TIP3    H1 4944   0.839   1.154   0.882
 1667TIP3    H2 4945   0.734   1.059   0.831
 1668TIP3   OH2 4946   1.747   0.573   1.422
 1668TIP3    H1 4947   1.760   0.594   1.514
 1668TIP3    H2 4948   1.801   0.496   1.406
 1669TIP3   OH2 4949   0.699   4.495   0.327
 1669TIP3    H1 4950   0.771   4.448   0.368
 1669TIP3    H2 4951   0.721   4.497   0.234
 1670TIP3   OH2 4952   1.274   1.615   3.218
 1670TIP3    H1 4953   1.224   1.679   3.268
 1670TIP3    H2 4954   1.328   1.570   3.283
 1671TIP3   OH2 4955   1.276   0.249   2.353
 1671TIP3    H1 4956   1.295   0.324   2.296
 1671TIP3    H2 4957   1.206   0.279   2.410
 1672TIP3   OH2 4958   3.969   7.696   5.317
 1672TIP3    H1 4959   3.911   7.659   5.250
 1672TIP3    H2 4960   4.006   7.774   5.276
 1673TIP3   OH2 4961   1.700   3.884   4.483
 1673TIP3    H1 4962   1.725   3.976   4.490
 1673TIP3    H2 4963   1.642   3.869   4.558
 1674TIP3   OH2 4964   5.375   3.290   0.526
 1674TIP3    H1 4965   5.313   3.363   0.534
 1674TIP3    H2 4966   5.460   3.332   0.511
 1675TIP3   OH2 4967   3.361   7.506   4.733
 1675TIP3    H1 4968   3.320   7.481   4.650
 1675TIP3    H2 4969   3.435   7.447   4.742
 1676TIP3   OH2 4970   4.704   3.077   1.048
 1676TIP3    H1 4971   4.791   3.037   1.052
 1676TIP3    H2 4972   4.718   3.166   1.081
 1677TIP3   OH2 4973   4.552   0.693   5.032
 1677TIP3    H1 4974   4.572   0.720   4.943
 1677TIP3    H2 4975   4.575   0.599   5.034
 1678TIP3   OH2 4976   0.841   7.516   4.215
 1678TIP3    H1 4977   0.838   7.426   4.183
 1678TIP3    H2 4978   0.753   7.533   4.248
 1679TIP3   OH2 4979   6.818   2.541   0.737
 1679TIP3    H1 4980   6.828   2.606   0.668
 1679TIP3    H2 4981   6.829   2.457   0.693
 1680TIP3   OH2 4982   6.915   1.659   2.333
 1680TIP3    H1 4983   6.908   1.575   2.287
 1680TIP3    H2 4984   6.944   1.720   2.265
 1681TIP3   OH2 4985   1.193   4.006   3.839
 1681TIP3    H1 4986   1.240   4.080   3.802
 1681TIP3    H2 4987   1.250   3.931   3.823
 1682TIP3   OH2 4988   8.165   3.101   1.466
 1682TIP3    H1 4989   8.173   3.071   1.375
 1682TIP3    H2 4990   8.179   3.023   1.519
 1683TIP3   OH2 4991   7.624   1.048   2.355
 1683TIP3    H1 4992   7.701   1.048   2.297
 1683TIP3    H2 4993   7.553   1.017   2.300
 1684TIP3   OH2 4994   2.500   4.313   4.923
 1684TIP3    H1 4995   2.590   4.291   4.899
 1684TIP3    H2 4996   2.494   4.289   5.015
 1685TIP3   OH2 4997   0.707   3.637   0.188
 1685TIP3    H1 4998   0.726   3.613   0.097
 1685TIP3    H2 4999   0.761   3.578   0.240
 1686TIP3   OH2 5000   4.479   6.325   1.357
 1686TIP3    H1 5001   4.453   6.376   1.433
 1686TIP3    H2 5002   4.405   6.333   1.296
 1687TIP3   OH2 5003   8.158   3.125   5.963
 1687TIP3    H1 5004   8.140   3.219   5.971
 1687TIP3    H2 5005   8.099   3.085   6.027
 1688TIP3   OH2 5006   1.564   4.318   0.486
 1688TIP3    H1 5007   1.637   4.365   0.444
 1688TIP3    H2 5008   1.595   4.228   0.492
 1689TIP3   OH2 5009   2.555   4.654   5.969
 1689TIP3    H1 5010   2.470   4.639   6.012
 1689TIP3    H2 5011   2.567   4.577   5.913
 1690TIP3   OH2 5012   4.902   7.649   5.776
 1690TIP3    H1 5013   4.870   7.738   5.789
 1690TIP3    H2 5014   4.974   7.658   5.713
 1691TIP3   OH2 5015   2.219   5.050   0.372
 1691TIP3    H1 5016   2.275   5.086   0.304
 1691TIP3    H2 5017   2.215   5.119   0.438
 1692TIP3   OH2 5018   0.152   4.173   3.472
 1692TIP3    H1 5019   0.219   4.159   3.404
 1692TIP3    H2 5020   0.201   4.178   3.554
 1693TIP3   OH2 5021   2.324   1.793   3.940
 1693TIP3    H1 5022   2.230   1.779   3.949
 1693TIP3    H2 5023   2.345   1.762   3.852
 1694TIP3   OH2 5024   1.554   0.177   5.894
 1694TIP3    H1 5025   1.647   0.177   5.919
 1694TIP3    H2 5026   1.518   0.099   5.936
 1695TIP3   OH2 5027   3.184   5.308   5.095
 1695TIP3    H1 5028   3.256   5.274   5.148
 1695TIP3    H2 5029   3.140   5.230   5.061
 1696TIP3   OH2 5030   1.959   1.764   1.846
 1696TIP3    H1 5031   1.903   1.723   1.781
 1696TIP3    H2 5032   1.906   1.765   1.926
 1697TIP3   OH2 5033   1.875   6.606   2.091
 1697TIP3    H1 5034   1.788   6.587   2.056
 1697TIP3    H2 5035   1.935   6.564   2.030
 1698TIP3   OH2 5036   6.306   3.371   1.709
 1698TIP3    H1 5037   6.289   3.451   1.660
 1698TIP3    H2 5038   6.272   3.389   1.797
 1699TIP3   OH2 5039   6.239   2.826   1.576
 1699TIP3    H1 5040   6.299   2.784   1.638
 1699TIP3    H2 5041   6.258   2.920   1.585
 1700TIP3   OH2 5042   5.677   5.934   0.977
 1700TIP3    H1 5043   5.731   5.985   0.917
 1700TIP3    H2 5044   5.705   5.962   1.064
 1701TIP3   OH2 5045   0.242   1.453   3.408
 1701TIP3    H1 5046   0.159   1.412   3.384
 1701TIP3    H2 5047   0.236   1.542   3.374
 1702TIP3   OH2 5048   7.271   1.719   3.429
 1702TIP3    H1 5049   7.344   1.759   3.382
 1702TIP3    H2 5050   7.221   1.793   3.464
 1703TIP3   OH2 5051   5.197   1.004   1.884
 1703TIP3    H1 5052   5.169   1.075   1.943
 1703TIP3    H2 5053   5.239   1.049   1.811
 1704TIP3   OH2 5054   8.068   1.431   2.555
 1704TIP3    H1 5055   8.151   1.480   2.560
 1704TIP3    H2 5056   8.088   1.356   2.499
 1705TIP3   OH2 5057   0.583   1.358   6.703
 1705TIP3    H1 5058   0.644   1.342   6.775
 1705TIP3    H2 5059   0.600   1.287   6.641
 1706TIP3   OH2 5060   6.193   3.288   2.227
 1706TIP3    H1 5061   6.123   3.350   2.248
 1706TIP3    H2 5062   6.178   3.214   2.287
 1707TIP3   OH2 5063   0.209   6.152   1.379
 1707TIP3    H1 5064   0.278   6.192   1.432
 1707TIP3    H2 5065   0.199   6.064   1.416
 1708TIP3   OH2 5066   7.413   0.963   5.878
 1708TIP3    H1 5067   7.491   0.912   5.900
 1708TIP3    H2 5068   7.428   1.048   5.918
 1709TIP3   OH2 5069   0.946   2.869   2.193
 1709TIP3    H1 5070   0.986   2.953   2.215
 1709TIP3    H2 5071   0.931   2.874   2.099
 1710TIP3   OH2 5072   6.706   6.700   0.497
 1710TIP3    H1 5073   6.761   6.641   0.548
 1710TIP3    H2 5074   6.765   6.736   0.430
 1711TIP3   OH2 5075   6.593   7.490   6.246
 1711TIP3    H1 5076   6.661   7.428   6.269
 1711TIP3    H2 5077   6.639   7.573   6.234
 1712TIP3   OH2 5078   1.246   1.002   0.533
 1712TIP3    H1 5079   1.227   0.947   0.609
 1712TIP3    H2 5080   1.272   1.086   0.570
 1713TIP3   OH2 5081   6.887   3.667   1.229
 1713TIP3    H1 5082   6.827   3.598   1.200
 1713TIP3    H2 5083   6.878   3.668   1.324
 1714TIP3   OH2 5084   5.399   7.057   4.529
 1714TIP3    H1 5085   5.337   7.065   4.456
 1714TIP3    H2 5086   5.343   7.048   4.606
 1715TIP3   OH2 5087   7.353   4.699   1.382
 1715TIP3    H1 5088   7.311   4.650   1.453
 1715TIP3    H2 5089   7.447   4.685   1.396
 1716TIP3   OH2 5090   5.056   0.643   1.771
 1716TIP3    H1 5091   5.123   0.672   1.709
 1716TIP3    H2 5092   5.100   0.577   1.825
 1717TIP3   OH2 5093   1.746   7.515   2.713
 1717TIP3    H1 5094   1.677   7.494   2.650
 1717TIP3    H2 5095   1.699   7.547   2.790
 1718TIP3   OH2 5096   3.033   3.673   2.756
 1718TIP3    H1 5097   3.116   3.637   2.786
 1718TIP3    H2 5098   3.007   3.734   2.825
 1719TIP3   OH2 5099   2.103   2.565   0.513
 1719TIP3    H1 5100   2.063   2.479   0.497
 1719TIP3    H2 5101   2.120   2.566   0.607
 1720TIP3   OH2 5102   0.715   2.326   4.729
 1720TIP3    H1 5103   0.702   2.358   4.818
 1720TIP3    H2 5104   0.659   2.381   4.675
 1721TIP3   OH2 5105   4.172   0.047   4.302
 1721TIP3    H1 5106   4.115   0.003   4.366
 1721TIP3    H2 5107   4.261   0.028   4.331
 1722TIP3   OH2 5108   7.335   4.487   2.330
 1722TIP3    H1 5109   7.286   4.439   2.396
 1722TIP3    H2 5110   7.423   4.495   2.366
 1723TIP3   OH2 5111   0.208   1.996   0.067
 1723TIP3    H1 5112   0.169   1.919   0.107
 1723TIP3    H2 5113   0.269   1.961   0.002
 1724TIP3   OH2 5114   0.386   5.724   2.879
 1724TIP3    H1 5115   0.416   5.732   2.789
 1724TIP3    H2 5116   0.446   5.779   2.930
 1725TIP3   OH2 5117   4.330   3.537   3.121
 1725TIP3    H1 5118   4.292   3.478   3.185
 1725TIP3    H2 5119   4.370   3.607   3.173
 1726TIP3   OH2 5120   0.853   7.358   2.060
 1726TIP3    H1 5121   0.902   7.305   2.123
 1726TIP3    H2 5122   0.905   7.354   1.980
 1727TIP3   OH2 5123   6.838   1.961   2.368
 1727TIP3    H1 5124   6.759   1.913   2.389
 1727TIP3    H2 5125   6.888   1.964   2.449
 1728TIP3   OH2 5126   5.924   6.050   2.231
 1728TIP3    H1 5127   5.945   6.117   2.295
 1728TIP3    H2 5128   5.831   6.062   2.212
 1729TIP3   OH2 5129   6.873   5.110   3.841
 1729TIP3    H1 5130   6.868   5.155   3.757
 1729TIP3    H2 5131   6.841   5.174   3.905
 1730TIP3   OH2 5132   2.405   2.480   4.103
 1730TIP3    H1 5133   2.453   2.420   4.046
 1730TIP3    H2 5134   2.473   2.532   4.145
 1731TIP3   OH2 5135   7.248   6.701   2.842
 1731TIP3    H1 5136   7.163   6.743   2.830
 1731TIP3    H2 5137   7.292   6.709   2.757
 1732TIP3   OH2 5138   3.203   4.613   1.568
 1732TIP3    H1 5139   3.292   4.591   1.541
 1732TIP3    H2 5140   3.173   4.676   1.502
 1733TIP3   OH2 5141   1.161   0.625   5.371
 1733TIP3    H1 5142   1.242   0.644   5.324
 1733TIP3    H2 5143   1.098   0.689   5.336
 1734TIP3   OH2 5144   0.813   1.901   2.859
 1734TIP3    H1 5145   0.903   1.890   2.827
 1734TIP3    H2 5146   0.783   1.981   2.817
 1735TIP3   OH2 5147   4.000   1.343   6.375
 1735TIP3    H1 5148   3.968   1.337   6.285
 1735TIP3    H2 5149   3.935   1.296   6.427
 1736TIP3   OH2 5150   5.448   4.018   6.535
 1736TIP3    H1 5151   5.424   3.955   6.467
 1736TIP3    H2 5152   5.383   4.087   6.528
 1737TIP3   OH2 5153   3.751   5.256   1.723
 1737TIP3    H1 5154   3.748   5.169   1.763
 1737TIP3    H2 5155   3.803   5.244   1.644
 1738TIP3   OH2 5156   4.972   5.631   4.674
 1738TIP3    H1 5157   5.055   5.601   4.636
 1738TIP3    H2 5158   4.989   5.721   4.701
 1739TIP3   OH2 5159   3.401   4.358   4.584
 1739TIP3    H1 5160   3.405   4.275   4.537
 1739TIP3    H2 5161   3.412   4.425   4.516
 1740TIP3   OH2 5162   0.451   0.246   0.785
 1740TIP3    H1 5163   0.409   0.182   0.728
 1740TIP3    H2 5164   0.539   0.257   0.749
 1741TIP3   OH2 5165   0.598   6.396   3.296
 1741TIP3    H1 5166   0.691   6.411   3.279
 1741TIP3    H2 5167   0.596   6.360   3.385
 1742TIP3   OH2 5168   4.634   0.846   0.562
 1742TIP3    H1 5169   4.611   0.848   0.655
 1742TIP3    H2 5170   4.579   0.912   0.522
 1743TIP3   OH2 5171   2.088   5.016   4.091
 1743TIP3    H1 5172   1.998   5.025   4.122
 1743TIP3    H2 5173   2.081   5.024   3.996
 1744TIP3   OH2 5174   0.331   1.324   0.305
 1744TIP3    H1 5175   0.301   1.339   0.394
 1744TIP3    H2 5176   0.306   1.404   0.258
 1745TIP3   OH2 5177   5.918   6.508   1.281
 1745TIP3    H1 5178   5.975   6.557   1.223
 1745TIP3    H2 5179   5.968   6.500   1.363
 1746TIP3   OH2 5180   4.454   6.893   5.085
 1746TIP3    H1 5181   4.401   6.896   5.165
 1746TIP3    H2 5182   4.539   6.929   5.111
 1747TIP3   OH2 5183   5.337   6.219   6.731
 1747TIP3    H1 5184   5.406   6.272   6.772
 1747TIP3    H2 5185   5.316   6.266   6.651
 1748TIP3   OH2 5186   3.932   0.172   3.632
 1748TIP3    H1 5187   4.001   0.179   3.698
 1748TIP3    H2 5188   3.935   0.081   3.603
 1749TIP3   OH2 5189   0.498   0.393   3.155
 1749TIP3    H1 5190   0.576   0.446   3.138
 1749TIP3    H2 5191   0.526   0.303   3.134
 1750TIP3   OH2 5192   1.421   6.179   5.123
 1750TIP3    H1 5193   1.467   6.095   5.124
 1750TIP3    H2 5194   1.378   6.183   5.038
 1751TIP3   OH2 5195   6.860   7.805   0.890
 1751TIP3    H1 5196   6.850   7.885   0.838
 1751TIP3    H2 5197   6.921   7.829   0.960
 1752TIP3   OH2 5198   4.698   1.274   4.852
 1752TIP3    H1 5199   4.686   1.244   4.762
 1752TIP3    H2 5200   4.654   1.209   4.906
 1753TIP3   OH2 5201   0.961   4.236   4.466
 1753TIP3    H1 5202   0.997   4.211   4.551
 1753TIP3    H2 5203   1.012   4.184   4.403
 1754TIP3   OH2 5204   1.265   0.513   4.144
 1754TIP3    H1 5205   1.348   0.538   4.104
 1754TIP3    H2 5206   1.231   0.444   4.086
 1755TIP3   OH2 5207   6.297   0.804   5.253
 1755TIP3    H1 5208   6.212   0.762   5.242
 1755TIP3    H2 5209   6.318   0.793   5.346
 1756TIP3   OH2 5210   2.656   4.615   1.876
 1756TIP3    H1 5211   2.750   4.594   1.878
 1756TIP3    H2 5212   2.631   4.621   1.968
 1757TIP3   OH2 5213   5.553   6.173   0.897
 1757TIP3    H1 5214   5.629   6.211   0.941
 1757TIP3    H2 5215   5.547   6.085   0.932
 1758TIP3   OH2 5216   7.802   2.266   4.486
 1758TIP3    H1 5217   7.869   2.327   4.454
 1758TIP3    H2 5218   7.797   2.198   4.418
 1759TIP3   OH2 5219   1.898   2.624   4.545
 1759TIP3    H1 5220   1.904   2.528   4.547
 1759TIP3    H2 5221   1.989   2.653   4.538
 1760TIP3   OH2 5222   2.597   4.910   1.859
 1760TIP3    H1 5223   2.621   4.818   1.848
 1760TIP3    H2 5224   2.502   4.910   1.867
 1761TIP3   OH2 5225   6.912   3.369   6.356
 1761TIP3    H1 5226   6.877   3.430   6.421
 1761TIP3    H2 5227   6.987   3.328   6.399
 1762TIP3   OH2 5228   3.006   3.431   3.666
 1762TIP3    H1 5229   3.048   3.363   3.720
 1762TIP3    H2 5230   3.042   3.513   3.701
 1763TIP3   OH2 5231   4.888   0.466   5.164
 1763TIP3    H1 5232   4.885   0.558   5.189
 1763TIP3    H2 5233   4.982   0.446   5.161
 1764TIP3   OH2 5234   3.086   4.223   6.508
 1764TIP3    H1 5235   3.142   4.165   6.457
 1764TIP3    H2 5236   3.142   4.256   6.578
 1765TIP3   OH2 5237   2.271   7.020   1.372
 1765TIP3    H1 5238   2.320   6.940   1.387
 1765TIP3    H2 5239   2.244   7.016   1.280
 1766TIP3   OH2 5240   4.258   5.859   4.198
 1766TIP3    H1 5241   4.186   5.813   4.241
 1766TIP3    H2 5242   4.284   5.801   4.126
 1767TIP3   OH2 5243   2.943   7.069   5.650
 1767TIP3    H1 5244   2.875   7.021   5.696
 1767TIP3    H2 5245   2.999   7.002   5.612
 1768TIP3   OH2 5246   3.217   1.966   4.733
 1768TIP3    H1 5247   3.304   1.963   4.772
 1768TIP3    H2 5248   3.227   2.020   4.654
 1769TIP3   OH2 5249   3.310   4.909   6.004
 1769TIP3    H1 5250   3.256   4.839   5.966
 1769TIP3    H2 5251   3.279   4.989   5.962
 1770TIP3   OH2 5252   0.810   2.426   5.987
 1770TIP3    H1 5253   0.775   2.359   6.045
 1770TIP3    H2 5254   0.733   2.459   5.940
 1771TIP3   OH2 5255   0.016   6.448   4.023
 1771TIP3    H1 5256  -0.001   6.360   4.056
 1771TIP3    H2 5257   0.051   6.496   4.098
 1772TIP3   OH2 5258   5.455   6.179   2.406
 1772TIP3    H1 5259   5.497   6.197   2.490
 1772TIP3    H2 5260   5.526   6.146   2.350
 1773TIP3   OH2 5261   3.160   1.972   2.342
 1773TIP3    H1 5262   3.172   1.991   2.435
 1773TIP3    H2 5263   3.217   1.896   2.327
 1774TIP3   OH2 5264   5.884   6.973   5.806
 1774TIP3    H1 5265   5.884   7.066   5.781
 1774TIP3    H2 5266   5.829   6.970   5.885
 1775TIP3   OH2 5267   1.011   2.760   5.062
 1775TIP3    H1 5268   1.046   2.828   5.121
 1775TIP3    H2 5269   1.019   2.679   5.112
 1776TIP3   OH2 5270   6.032   0.691   5.164
 1776TIP3    H1 5271   5.969   0.764   5.160
 1776TIP3    H2 5272   5.982   0.615   5.133
 1777TIP3   OH2 5273   1.000   0.167   6.446
 1777TIP3    H1 5274   1.008   0.205   6.359
 1777TIP3    H2 5275   0.918   0.117   6.444
 1778TIP3   OH2 5276   2.698   0.730   5.898
 1778TIP3    H1 5277   2.625   0.730   5.959
 1778TIP3    H2 5278   2.722   0.822   5.889
 1779TIP3   OH2 5279   5.472   1.954   4.056
 1779TIP3    H1 5280   5.494   2.045   4.037
 1779TIP3    H2 5281   5.490   1.944   4.149
 1780TIP3   OH2 5282   2.485   2.369   0.618
 1780TIP3    H1 5283   2.428   2.305   0.660
 1780TIP3    H2 5284   2.473   2.449   0.669
 1781TIP3   OH2 5285   4.909   4.078   5.784
 1781TIP3    H1 5286   4.921   3.983   5.778
 1781TIP3    H2 5287   4.815   4.090   5.778
 1782TIP3   OH2 5288   3.773   1.006   0.759
 1782TIP3    H1 5289   3.704   1.054   0.714
 1782TIP3    H2 5290   3.821   1.072   0.808
 1783TIP3   OH2 5291   2.774   0.155   2.699
 1783TIP3    H1 5292   2.689   0.161   2.655
 1783TIP3    H2 5293   2.792   0.244   2.728
 1784TIP3   OH2 5294   1.881   4.097   1.227
 1784TIP3    H1 5295   1.892   4.140   1.142
 1784TIP3    H2 5296   1.790   4.068   1.228
 1785TIP3   OH2 5297   4.093   1.139   2.842
 1785TIP3    H1 5298   4.038   1.076   2.795
 1785TIP3    H2 5299   4.171   1.089   2.864
 1786TIP3   OH2 5300   6.312   7.484   5.609
 1786TIP3    H1 5301   6.333   7.552   5.673
 1786TIP3    H2 5302   6.396   7.463   5.568
 1787TIP3   OH2 5303   0.925   6.313   3.383
 1787TIP3    H1 5304   0.956   6.403   3.380
 1787TIP3    H2 5305   0.918   6.288   3.291
 1788TIP3   OH2 5306   2.645   2.847   3.060
 1788TIP3    H1 5307   2.558   2.808   3.052
 1788TIP3    H2 5308   2.689   2.793   3.125
 1789TIP3   OH2 5309   1.602   2.040   1.183
 1789TIP3    H1 5310   1.659   1.981   1.134
 1789TIP3    H2 5311   1.629   2.128   1.154
 1790TIP3   OH2 5312   2.333   6.793   4.375
 1790TIP3    H1 5313   2.252   6.771   4.421
 1790TIP3    H2 5314   2.303   6.832   4.292
 1791TIP3   OH2 5315   8.061   2.230   5.557
 1791TIP3    H1 5316   8.088   2.297   5.619
 1791TIP3    H2 5317   8.073   2.147   5.604
 1792TIP3   OH2 5318   7.655   2.810   1.391
 1792TIP3    H1 5319   7.686   2.744   1.329
 1792TIP3    H2 5320   7.628   2.760   1.468
 1793TIP3   OH2 5321   1.211   0.793   4.403
 1793TIP3    H1 5322   1.185   0.702   4.418
 1793TIP3    H2 5323   1.188   0.810   4.312
 1794TIP3   OH2 5324   4.456   5.537   0.657
 1794TIP3    H1 5325   4.451   5.449   0.619
 1794TIP3    H2 5326   4.549   5.551   0.673
 1795TIP3   OH2 5327   5.971   4.088   1.748
 1795TIP3    H1 5328   6.043   4.130   1.700
 1795TIP3    H2 5329   5.896   4.145   1.732
 1796TIP3   OH2 5330   3.279   2.560   5.159
 1796TIP3    H1 5331   3.293   2.576   5.253
 1796TIP3    H2 5332   3.237   2.474   5.156
 1797TIP3   OH2 5333   5.982   6.226   2.441
 1797TIP3    H1 5334   6.010   6.275   2.363
 1797TIP3    H2 5335   6.060   6.223   2.496
 1798TIP3   OH2 5336   4.814   5.209   0.130
 1798TIP3    H1 5337   4.748   5.276   0.112
 1798TIP3    H2 5338   4.897   5.255   0.120
 1799TIP3   OH2 5339   6.665   7.695   2.776
 1799TIP3    H1 5340   6.626   7.713   2.861
 1799TIP3    H2 5341   6.742   7.642   2.795
 1800TIP3   OH2 5342   2.097   7.739   1.878
 1800TIP3    H1 5343   2.184   7.703   1.897
 1800TIP3    H2 5344   2.115   7.821   1.833
 1801TIP3   OH2 5345   7.285   0.456   4.968
 1801TIP3    H1 5346   7.271   0.395   4.896
 1801TIP3    H2 5347   7.290   0.399   5.046
 1802TIP3   OH2 5348   5.678   7.568   6.303
 1802TIP3    H1 5349   5.636   7.489   6.338
 1802TIP3    H2 5350   5.622   7.594   6.231
 1803TIP3   OH2 5351   4.620   6.963   1.498
 1803TIP3    H1 5352   4.700   6.980   1.448
 1803TIP3    H2 5353   4.618   7.032   1.564
 1804TIP3   OH2 5354   6.583   2.815   6.696
 1804TIP3    H1 5355   6.601   2.825   6.602
 1804TIP3    H2 5356   6.506   2.758   6.700
 1805TIP3   OH2 5357   4.324   2.471   3.155
 1805TIP3    H1 5358   4.277   2.546   3.118
 1805TIP3    H2 5359   4.261   2.399   3.151
 1806TIP3   OH2 5360   6.496   3.691   2.077
 1806TIP3    H1 5361   6.580   3.690   2.030
 1806TIP3    H2 5362   6.477   3.598   2.092
 1807TIP3   OH2 5363   6.603   3.865   1.309
 1807TIP3    H1 5364   6.592   3.806   1.234
 1807TIP3    H2 5365   6.522   3.858   1.358
 1808TIP3   OH2 5366   1.730   0.225   1.573
 1808TIP3    H1 5367   1.771   0.142   1.599
 1808TIP3    H2 5368   1.803   0.284   1.557
 1809TIP3   OH2 5369   3.388   7.071   2.610
 1809TIP3    H1 5370   3.436   7.130   2.551
 1809TIP3    H2 5371   3.456   7.032   2.665
 1810TIP3   OH2 5372   0.922   5.084   0.521
 1810TIP3    H1 5373   0.828   5.095   0.535
 1810TIP3    H2 5374   0.934   4.990   0.510
 1811TIP3   OH2 5375   2.939   1.267   0.848
 1811TIP3    H1 5376   3.008   1.287   0.785
 1811TIP3    H2 5377   2.861   1.253   0.795
 1812TIP3   OH2 5378   0.179   3.852   1.614
 1812TIP3    H1 5379   0.117   3.916   1.577
 1812TIP3    H2 5380   0.206   3.890   1.697
 1813TIP3   OH2 5381   4.016   2.311   4.704
 1813TIP3    H1 5382   4.044   2.222   4.685
 1813TIP3    H2 5383   3.974   2.341   4.623
 1814TIP3   OH2 5384   6.313   0.136   4.469
 1814TIP3    H1 5385   6.333   0.220   4.429
 1814TIP3    H2 5386   6.343   0.071   4.405
 1815TIP3   OH2 5387   7.396   5.096   6.486
 1815TIP3    H1 5388   7.362   5.072   6.400
 1815TIP3    H2 5389   7.359   5.183   6.503
 1816TIP3   OH2 5390   5.616   7.733   5.111
 1816TIP3    H1 5391   5.670   7.733   5.191
 1816TIP3    H2 5392   5.564   7.653   5.118
 1817TIP3   OH2 5393   6.906   2.278   4.435
 1817TIP3    H1 5394   6.994   2.313   4.426
 1817TIP3    H2 5395   6.889   2.234   4.352
 1818TIP3   OH2 5396   4.822   2.660   3.769
 1818TIP3    H1 5397   4.909   2.627   3.792
 1818TIP3    H2 5398   4.775   2.583   3.736
 1819TIP3   OH2 5399   2.934   0.323   5.379
 1819TIP3    H1 5400   2.963   0.234   5.399
 1819TIP3    H2 5401   3.012   0.376   5.392
 1820TIP3   OH2 5402   5.065   2.078   5.958
 1820TIP3    H1 5403   5.007   2.065   5.883
 1820TIP3    H2 5404   5.017   2.138   6.015
 1821TIP3   OH2 5405   6.925   4.125   6.345
 1821TIP3    H1 5406   6.904   4.036   6.317
 1821TIP3    H2 5407   7.007   4.145   6.299
 1822TIP3   OH2 5408   1.978   3.131   5.580
 1822TIP3    H1 5409   2.057   3.080   5.564
 1822TIP3    H2 5410   1.930   3.128   5.497
 1823TIP3   OH2 5411   1.746   4.889   2.678
 1823TIP3    H1 5412   1.691   4.820   2.640
 1823TIP3    H2 5413   1.705   4.909   2.762
 1824TIP3   OH2 5414   7.120   0.825   6.441
 1824TIP3    H1 5415   7.208   0.858   6.425
 1824TIP3    H2 5416   7.099   0.773   6.363
 1825TIP3   OH2 5417   1.647   5.280   2.448
 1825TIP3    H1 5418   1.578   5.303   2.385
 1825TIP3    H2 5419   1.642   5.349   2.514
 1826TIP3   OH2 5420   1.575   4.686   2.594
 1826TIP3    H1 5421   1.515   4.720   2.661
 1826TIP3    H2 5422   1.576   4.592   2.608
 1827TIP3   OH2 5423   5.573   3.978   3.944
 1827TIP3    H1 5424   5.633   3.981   3.869
 1827TIP3    H2 5425   5.523   3.898   3.931
 1828TIP3   OH2 5426   3.306   6.022   6.118
 1828TIP3    H1 5427   3.229   6.076   6.139
 1828TIP3    H2 5428   3.308   5.955   6.187
 1829TIP3   OH2 5429   0.894   2.827   4.618
 1829TIP3    H1 5430   0.846   2.906   4.593
 1829TIP3    H2 5431   0.976   2.860   4.655
 1830TIP3   OH2 5432   2.303   4.475   5.460
 1830TIP3    H1 5433   2.307   4.570   5.449
 1830TIP3    H2 5434   2.234   4.447   5.401
 1831TIP3   OH2 5435   5.450   6.751   2.617
 1831TIP3    H1 5436   5.471   6.664   2.583
 1831TIP3    H2 5437   5.533   6.785   2.651
 1832TIP3   OH2 5438   6.004   2.579   0.502
 1832TIP3    H1 5439   5.951   2.592   0.581
 1832TIP3    H2 5440   6.034   2.488   0.509
 1833TIP3   OH2 5441   0.290   3.085   0.382
 1833TIP3    H1 5442   0.230   3.019   0.347
 1833TIP3    H2 5443   0.377   3.047   0.371
 1834TIP3   OH2 5444   5.532   0.399   5.147
 1834TIP3    H1 5445   5.521   0.472   5.087
 1834TIP3    H2 5446   5.627   0.391   5.159
 1835TIP3   OH2 5447   7.310   0.313   4.734
 1835TIP3    H1 5448   7.240   0.346   4.678
 1835TIP3    H2 5449   7.333   0.228   4.697
 1836TIP3   OH2 5450   4.576   0.475   5.661
 1836TIP3    H1 5451   4.561   0.412   5.731
 1836TIP3    H2 5452   4.489   0.493   5.625
 1837TIP3   OH2 5453   0.015   2.328   6.237
 1837TIP3    H1 5454  -0.034   2.409   6.232
 1837TIP3    H2 5455   0.104   2.352   6.210
 1838TIP3   OH2 5456   7.401   4.211   1.660
 1838TIP3    H1 5457   7.371   4.234   1.572
 1838TIP3    H2 5458   7.446   4.290   1.691
 1839TIP3   OH2 5459   5.750   6.096   0.317
 1839TIP3    H1 5460   5.689   6.077   0.389
 1839TIP3    H2 5461   5.830   6.125   0.361
 1840TIP3   OH2 5462   5.953   1.103   4.853
 1840TIP3    H1 5463   5.931   1.115   4.946
 1840TIP3    H2 5464   5.907   1.023   4.828
 1841TIP3   OH2 5465   6.719   3.238   3.398
 1841TIP3    H1 5466   6.655   3.167   3.405
 1841TIP3    H2 5467   6.761   3.223   3.313
 1842TIP3   OH2 5468   3.239   4.854   4.339
 1842TIP3    H1 5469   3.161   4.803   4.317
 1842TIP3    H2 5470   3.311   4.808   4.297
 1843TIP3   OH2 5471   3.297   0.397   2.557
 1843TIP3    H1 5472   3.346   0.469   2.516
 1843TIP3    H2 5473   3.211   0.400   2.515
 1844TIP3   OH2 5474   5.097   0.817   0.329
 1844TIP3    H1 5475   5.036   0.829   0.402
 1844TIP3    H2 5476   5.182   0.799   0.371
 1845TIP3   OH2 5477   5.972   5.932   3.022
 1845TIP3    H1 5478   5.878   5.940   3.038
 1845TIP3    H2 5479   5.999   5.855   3.072
 1846TIP3   OH2 5480   2.806   3.174   5.490
 1846TIP3    H1 5481   2.710   3.170   5.489
 1846TIP3    H2 5482   2.834   3.097   5.440
 1847TIP3   OH2 5483   3.926   5.800   3.540
 1847TIP3    H1 5484   3.900   5.866   3.475
 1847TIP3    H2 5485   4.020   5.791   3.528
 1848TIP3   OH2 5486   6.418   6.222   4.368
 1848TIP3    H1 5487   6.449   6.312   4.382
 1848TIP3    H2 5488   6.331   6.220   4.409
 1849TIP3   OH2 5489   6.346   5.276   3.945
 1849TIP3    H1 5490   6.420   5.329   3.976
 1849TIP3    H2 5491   6.274   5.299   4.003
 1850TIP3   OH2 5492   5.468   6.776   4.036
 1850TIP3    H1 5493   5.537   6.812   4.092
 1850TIP3    H2 5494   5.426   6.710   4.090
 1851TIP3   OH2 5495   0.206   0.357   6.587
 1851TIP3    H1 5496   0.206   0.363   6.683
 1851TIP3    H2 5497   0.138   0.293   6.567
 1852TIP3   OH2 5498   1.634   1.001   1.274
 1852TIP3    H1 5499   1.710   0.943   1.280
 1852TIP3    H2 5500   1.600   1.005   1.363
 1853TIP3   OH2 5501   0.581   7.098   0.208
 1853TIP3    H1 5502   0.591   7.174   0.265
 1853TIP3    H2 5503   0.492   7.068   0.224
 1854TIP3   OH2 5504   8.129   4.363   2.296
 1854TIP3    H1 5505   8.039   4.332   2.308
 1854TIP3    H2 5506   8.165   4.306   2.228
 1855TIP3   OH2 5507   1.790   0.636   2.945
 1855TIP3    H1 5508   1.853   0.565   2.955
 1855TIP3    H2 5509   1.842   0.710   2.913
 1856TIP3   OH2 5510   7.683   7.634   6.309
 1856TIP3    H1 5511   7.739   7.688   6.253
 1856TIP3    H2 5512   7.621   7.593   6.249
 1857TIP3   OH2 5513   4.037   0.675   5.048
 1857TIP3    H1 5514   3.978   0.615   5.001
 1857TIP3    H2 5515   4.104   0.698   4.984
 1858TIP3   OH2 5516   4.062   6.666   5.963
 1858TIP3    H1 5517   4.019   6.651   5.878
 1858TIP3    H2 5518   4.154   6.645   5.948
 1859TIP3   OH2 5519   2.939   1.123   5.662
 1859TIP3    H1 5520   2.845   1.130   5.642
 1859TIP3    H2 5521   2.942   1.126   5.758
 1860TIP3   OH2 5522   5.483   2.625   0.602
 1860TIP3    H1 5523   5.458   2.607   0.511
 1860TIP3    H2 5524   5.569   2.584   0.611
 1861TIP3   OH2 5525   2.697   3.458   2.586
 1861TIP3    H1 5526   2.725   3.447   2.677
 1861TIP3    H2 5527   2.759   3.406   2.535
 1862TIP3   OH2 5528   7.920   2.192   5.335
 1862TIP3    H1 5529   7.960   2.261   5.282
 1862TIP3    H2 5530   7.961   2.201   5.421
 1863TIP3   OH2 5531   7.629   2.812   5.520
 1863TIP3    H1 5532   7.686   2.811   5.597
 1863TIP3    H2 5533   7.683   2.775   5.450
 1864TIP3   OH2 5534   4.785   7.194   0.317
 1864TIP3    H1 5535   4.700   7.234   0.295
 1864TIP3    H2 5536   4.850   7.255   0.283
 1865TIP3   OH2 5537   4.947   0.045   3.891
 1865TIP3    H1 5538   4.879   0.005   3.945
 1865TIP3    H2 5539   4.898   0.096   3.826
 1866TIP3   OH2 5540   1.293   4.815   6.036
 1866TIP3    H1 5541   1.219   4.808   6.096
 1866TIP3    H2 5542   1.255   4.843   5.953
 1867TIP3   OH2 5543   5.018   2.012   5.258
 1867TIP3    H1 5544   5.057   1.925   5.256
 1867TIP3    H2 5545   4.967   2.018   5.177
 1868TIP3   OH2 5546   5.302   2.739   0.138
 1868TIP3    H1 5547   5.216   2.701   0.122
 1868TIP3    H2 5548   5.284   2.819   0.187
 1869TIP3   OH2 5549   1.172   4.040   2.660
 1869TIP3    H1 5550   1.079   4.024   2.671
 1869TIP3    H2 5551   1.184   4.132   2.681
 1870TIP3   OH2 5552   4.035   3.855   0.243
 1870TIP3    H1 5553   3.962   3.861   0.182
 1870TIP3    H2 5554   4.088   3.932   0.225
 1871TIP3   OH2 5555   7.446   2.130   1.510
 1871TIP3    H1 5556   7.490   2.093   1.434
 1871TIP3    H2 5557   7.356   2.100   1.503
 1872TIP3   OH2 5558   1.436   0.159   1.095
 1872TIP3    H1 5559   1.387   0.213   1.032
 1872TIP3    H2 5560   1.477   0.222   1.153
 1873TIP3   OH2 5561   2.281   4.434   0.730
 1873TIP3    H1 5562   2.375   4.443   0.713
 1873TIP3    H2 5563   2.247   4.394   0.650
 1874TIP3   OH2 5564   6.620   6.210   0.948
 1874TIP3    H1 5565   6.554   6.185   0.883
 1874TIP3    H2 5566   6.614   6.305   0.952
 1875TIP3   OH2 5567   4.995   3.036   2.601
 1875TIP3    H1 5568   4.910   3.063   2.635
 1875TIP3    H2 5569   5.058   3.078   2.658
 1876TIP3   OH2 5570   3.207   3.430   5.718
 1876TIP3    H1 5571   3.213   3.513   5.670
 1876TIP3    H2 5572   3.287   3.428   5.772
 1877TIP3   OH2 5573   0.024   6.906   3.791
 1877TIP3    H1 5574   0.056   6.847   3.859
 1877TIP3    H2 5575   0.044   6.994   3.824
 1878TIP3   OH2 5576   3.850   2.197   1.416
 1878TIP3    H1 5577   3.761   2.177   1.443
 1878TIP3    H2 5578   3.843   2.218   1.323
 1879TIP3   OH2 5579   0.622   7.423   3.291
 1879TIP3    H1 5580   0.675   7.488   3.338
 1879TIP3    H2 5581   0.686   7.374   3.238
 1880TIP3   OH2 5582   1.027   5.652   5.807
 1880TIP3    H1 5583   1.020   5.588   5.878
 1880TIP3    H2 5584   1.111   5.694   5.821
 1881TIP3   OH2 5585   1.687   7.262  -0.011
 1881TIP3    H1 5586   1.771   7.299   0.017
 1881TIP3    H2 5587   1.673   7.187   0.048
 1882TIP3   OH2 5588   0.390   4.370   2.296
 1882TIP3    H1 5589   0.416   4.462   2.296
 1882TIP3    H2 5590   0.339   4.359   2.216
 1883TIP3   OH2 5591   3.686   1.133   4.795
 1883TIP3    H1 5592   3.634   1.212   4.787
 1883TIP3    H2 5593   3.622   1.063   4.809
 1884TIP3   OH2 5594   6.005   4.524   0.666
 1884TIP3    H1 5595   5.964   4.603   0.630
 1884TIP3    H2 5596   6.093   4.551   0.689
 1885TIP3   OH2 5597   6.341   7.005   1.019
 1885TIP3    H1 5598   6.368   6.941   1.085
 1885TIP3    H2 5599   6.264   6.966   0.978
 1886TIP3   OH2 5600   0.490   3.917   4.293
 1886TIP3    H1 5601   0.570   3.969   4.306
 1886TIP3    H2 5602   0.450   3.953   4.214
 1887TIP3   OH2 5603   5.893   0.890   2.877
 1887TIP3    H1 5604   5.876   0.965   2.822
 1887TIP3    H2 5605   5.973   0.851   2.842
 1888TIP3   OH2 5606   1.565   3.875   0.409
 1888TIP3    H1 5607   1.507   3.941   0.448
 1888TIP3    H2 5608   1.559   3.890   0.315
 1889TIP3   OH2 5609   6.915   7.748   1.247
 1889TIP3    H1 5610   7.006   7.720   1.255
 1889TIP3    H2 5611   6.920   7.836   1.211
 1890TIP3   OH2 5612   4.431   3.733   1.012
 1890TIP3    H1 5613   4.448   3.675   1.086
 1890TIP3    H2 5614   4.348   3.704   0.976
 1891TIP3   OH2 5615   2.961   5.917   1.950
 1891TIP3    H1 5616   2.952   5.912   1.855
 1891TIP3    H2 5617   3.053   5.937   1.964
 1892TIP3   OH2 5618   0.701   5.748   3.575
 1892TIP3    H1 5619   0.789   5.765   3.543
 1892TIP3    H2 5620   0.712   5.730   3.668
 1893TIP3   OH2 5621   6.851   0.061   6.678
 1893TIP3    H1 5622   6.801   0.117   6.737
 1893TIP3    H2 5623   6.807  -0.024   6.682
 1894TIP3   OH2 5624   0.336   1.593   5.493
 1894TIP3    H1 5625   0.371   1.555   5.412
 1894TIP3    H2 5626   0.394   1.562   5.562
 1895TIP3   OH2 5627   3.410   2.403   3.898
 1895TIP3    H1 5628   3.338   2.381   3.957
 1895TIP3    H2 5629   3.399   2.344   3.824
 1896TIP3   OH2 5630   2.475   4.848   3.157
 1896TIP3    H1 5631   2.405   4.884   3.102
 1896TIP3    H2 5632   2.445   4.760   3.179
 1897TIP3   OH2 5633   1.120   2.617   4.798
 1897TIP3    H1 5634   1.082   2.530   4.783
 1897TIP3    H2 5635   1.060   2.659   4.859
 1898TIP3   OH2 5636   4.603   0.317   6.409
 1898TIP3    H1 5637   4.599   0.232   6.454
 1898TIP3    H2 5638   4.672   0.365   6.454
 1899TIP3   OH2 5639   2.642   2.996   1.173
 1899TIP3    H1 5640   2.714   2.964   1.118
 1899TIP3    H2 5641   2.564   2.951   1.140
 1900TIP3   OH2 5642   0.131   4.109   0.593
 1900TIP3    H1 5643   0.200   4.051   0.624
 1900TIP3    H2 5644   0.174   4.194   0.584
 1901TIP3   OH2 5645   6.163   5.772   5.036
 1901TIP3    H1 5646   6.248   5.732   5.020
 1901TIP3    H2 5647   6.182   5.849   5.090
 1902TIP3   OH2 5648   5.040   7.047   0.476
 1902TIP3    H1 5649   4.996   7.044   0.391
 1902TIP3    H2 5650   5.005   7.125   0.518
 1903TIP3   OH2 5651   4.910   1.061   6.500
 1903TIP3    H1 5652   4.931   1.081   6.409
 1903TIP3    H2 5653   4.953   0.977   6.517
 1904TIP3   OH2 5654   6.381   6.073   1.295
 1904TIP3    H1 5655   6.394   5.997   1.351
 1904TIP3    H2 5656   6.326   6.042   1.223
 1905TIP3   OH2 5657   5.638   3.398   0.508
 1905TIP3    H1 5658   5.660   3.492   0.509
 1905TIP3    H2 5659   5.658   3.368   0.596
 1906TIP3   OH2 5660   7.564   7.474   4.890
 1906TIP3    H1 5661   7.489   7.453   4.945
 1906TIP3    H2 5662   7.614   7.537   4.942
 1907TIP3   OH2 5663   0.054   6.308   4.462
 1907TIP3    H1 5664   0.147   6.288   4.450
 1907TIP3    H2 5665   0.050   6.357   4.544
 1908TIP3   OH2 5666   2.076   0.111   3.817
 1908TIP3    H1 5667   1.991   0.151   3.800
 1908TIP3    H2 5668   2.139   0.167   3.772
 1909TIP3   OH2 5669   7.492   2.571   6.431
 1909TIP3    H1 5670   7.482   2.543   6.340
 1909TIP3    H2 5671   7.538   2.655   6.425
 1910TIP3   OH2 5672   5.206   1.125   6.358
 1910TIP3    H1 5673   5.200   1.031   6.375
 1910TIP3    H2 5674   5.176   1.135   6.268
 1911TIP3   OH2 5675   8.188   2.258   1.608
 1911TIP3    H1 5676   8.116   2.246   1.671
 1911TIP3    H2 5677   8.145   2.255   1.523
 1912TIP3   OH2 5678   7.906   7.112   0.632
 1912TIP3    H1 5679   7.948   7.078   0.553
 1912TIP3    H2 5680   7.822   7.145   0.601
 1913TIP3   OH2 5681   7.375   7.320   4.461
 1913TIP3    H1 5682   7.319   7.249   4.427
 1913TIP3    H2 5683   7.313   7.382   4.499
 1914TIP3   OH2 5684   7.833   4.603   6.149
 1914TIP3    H1 5685   7.850   4.594   6.242
 1914TIP3    H2 5686   7.914   4.638   6.112
 1915TIP3   OH2 5687   1.479   0.317   1.537
 1915TIP3    H1 5688   1.414   0.249   1.552
 1915TIP3    H2 5689   1.559   0.284   1.578
 1916TIP3   OH2 5690   3.244   4.494   1.909
 1916TIP3    H1 5691   3.273   4.404   1.893
 1916TIP3    H2 5692   3.224   4.528   1.822
 1917TIP3   OH2 5693   1.009   5.964   3.795
 1917TIP3    H1 5694   0.960   5.995   3.719
 1917TIP3    H2 5695   1.035   5.874   3.772
 1918TIP3   OH2 5696   4.889   3.961   0.637
 1918TIP3    H1 5697   4.914   4.040   0.588
 1918TIP3    H2 5698   4.803   3.938   0.604
 1919TIP3   OH2 5699   1.421   3.373   5.598
 1919TIP3    H1 5700   1.516   3.364   5.586
 1919TIP3    H2 5701   1.409   3.377   5.693
 1920TIP3   OH2 5702   4.249   6.297   2.540
 1920TIP3    H1 5703   4.335   6.298   2.581
 1920TIP3    H2 5704   4.233   6.204   2.520
 1921TIP3   OH2 5705   7.214   5.976   3.847
 1921TIP3    H1 5706   7.229   6.069   3.865
 1921TIP3    H2 5707   7.171   5.943   3.925
 1922TIP3   OH2 5708   3.500   2.413   4.498
 1922TIP3    H1 5709   3.485   2.326   4.535
 1922TIP3    H2 5710   3.528   2.467   4.572
 1923TIP3   OH2 5711   2.170   6.443   2.116
 1923TIP3    H1 5712   2.235   6.382   2.083
 1923TIP3    H2 5713   2.120   6.470   2.039
 1924TIP3   OH2 5714   4.782   4.174   1.785
 1924TIP3    H1 5715   4.690   4.197   1.795
 1924TIP3    H2 5716   4.824   4.209   1.864
 1925TIP3   OH2 5717   1.442   6.741   2.703
 1925TIP3    H1 5718   1.515   6.793   2.737
 1925TIP3    H2 5719   1.449   6.749   2.608
 1926TIP3   OH2 5720   1.303   6.068   0.565
 1926TIP3    H1 5721   1.209   6.050   0.557
 1926TIP3    H2 5722   1.313   6.108   0.651
 1927TIP3   OH2 5723   8.152   2.513   4.259
 1927TIP3    H1 5724   8.140   2.564   4.179
 1927TIP3    H2 5725   8.235   2.543   4.295
 1928TIP3   OH2 5726   1.734   2.328   0.256
 1928TIP3    H1 5727   1.792   2.377   0.198
 1928TIP3    H2 5728   1.688   2.267   0.199
 1929TIP3   OH2 5729   7.057   4.483   2.459
 1929TIP3    H1 5730   7.035   4.390   2.464
 1929TIP3    H2 5731   7.118   4.497   2.531
 1930TIP3   OH2 5732   4.794   4.190   0.258
 1930TIP3    H1 5733   4.850   4.201   0.181
 1930TIP3    H2 5734   4.854   4.189   0.332
 1931TIP3   OH2 5735   0.783   1.603   0.546
 1931TIP3    H1 5736   0.833   1.527   0.517
 1931TIP3    H2 5737   0.693   1.571   0.552
 1932TIP3   OH2 5738   1.154   6.200   1.515
 1932TIP3    H1 5739   1.216   6.272   1.509
 1932TIP3    H2 5740   1.154   6.175   1.607
 1933TIP3   OH2 5741   1.822   5.054   6.597
 1933TIP3    H1 5742   1.817   5.125   6.533
 1933TIP3    H2 5743   1.735   5.015   6.597
 1934TIP3   OH2 5744   7.646   7.433   4.639
 1934TIP3    H1 5745   7.563   7.416   4.594
 1934TIP3    H2 5746   7.623   7.437   4.732
 1935TIP3   OH2 5747   5.748   7.591   2.517
 1935TIP3    H1 5748   5.664   7.637   2.520
 1935TIP3    H2 5749   5.814   7.660   2.528
 1936TIP3   OH2 5750   4.147   3.162   5.422
 1936TIP3    H1 5751   4.178   3.089   5.369
 1936TIP3    H2 5752   4.211   3.170   5.492
 1937TIP3   OH2 5753   7.735   5.880   2.945
 1937TIP3    H1 5754   7.733   5.976   2.947
 1937TIP3    H2 5755   7.718   5.854   3.036
 1938TIP3   OH2 5756   5.759   0.775   1.923
 1938TIP3    H1 5757   5.787   0.827   1.999
 1938TIP3    H2 5758   5.663   0.782   1.924
 1939TIP3   OH2 5759   0.091   4.053   1.245
 1939TIP3    H1 5760   0.115   4.075   1.335
 1939TIP3    H2 5761   0.092   3.957   1.243
 1940TIP3   OH2 5762   2.448   7.419   5.698
 1940TIP3    H1 5763   2.499   7.463   5.630
 1940TIP3    H2 5764   2.387   7.363   5.650
 1941TIP3   OH2 5765   0.942   7.335   6.045
 1941TIP3    H1 5766   0.982   7.252   6.020
 1941TIP3    H2 5767   0.997   7.370   6.115
 1942TIP3   OH2 5768   2.909   4.577   1.627
 1942TIP3    H1 5769   2.998   4.569   1.594
 1942TIP3    H2 5770   2.914   4.544   1.717
 1943TIP3   OH2 5771   6.179   6.063   4.112
 1943TIP3    H1 5772   6.247   6.028   4.055
 1943TIP3    H2 5773   6.153   6.146   4.071
 1944TIP3   OH2 5774   4.221   4.605   2.147
 1944TIP3    H1 5775   4.252   4.516   2.165
 1944TIP3    H2 5776   4.128   4.596   2.129
 1945TIP3   OH2 5777   1.035   6.916   2.353
 1945TIP3    H1 5778   1.036   6.990   2.414
 1945TIP3    H2 5779   1.116   6.925   2.303
 1946TIP3   OH2 5780   2.506   1.372   1.251
 1946TIP3    H1 5781   2.513   1.281   1.225
 1946TIP3    H2 5782   2.504   1.369   1.347
 1947TIP3   OH2 5783   6.579   0.108   1.283
 1947TIP3    H1 5784   6.514   0.057   1.234
 1947TIP3    H2 5785   6.603   0.179   1.224
 1948TIP3   OH2 5786   2.200   1.349   0.790
 1948TIP3    H1 5787   2.200   1.382   0.700
 1948TIP3    H2 5788   2.107   1.337   0.811
 1949TIP3   OH2 5789   7.617   0.785   5.949
 1949TIP3    H1 5790   7.594   0.731   5.874
 1949TIP3    H2 5791   7.687   0.737   5.993
 1950TIP3   OH2 5792   6.236   7.194   4.837
 1950TIP3    H1 5793   6.164   7.180   4.899
 1950TIP3    H2 5794   6.287   7.265   4.876
 1951TIP3   OH2 5795   5.237   7.763   5.138
 1951TIP3    H1 5796   5.278   7.688   5.181
 1951TIP3    H2 5797   5.274   7.765   5.050
 1952TIP3   OH2 5798   1.635   1.888   4.493
 1952TIP3    H1 5799   1.602   1.914   4.407
 1952TIP3    H2 5800   1.681   1.965   4.526
 1953TIP3   OH2 5801   6.695   7.207   4.103
 1953TIP3    H1 5802   6.742   7.249   4.175
 1953TIP3    H2 5803   6.690   7.274   4.035
 1954TIP3   OH2 5804   6.871   2.968   5.830
 1954TIP3    H1 5805   6.889   3.049   5.783
 1954TIP3    H2 5806   6.857   2.903   5.761
 1955TIP3   OH2 5807   7.807   0.594   6.006
 1955TIP3    H1 5808   7.881   0.538   5.983
 1955TIP3    H2 5809   7.738   0.533   6.032
 1956TIP3   OH2 5810   4.000   1.140   1.519
 1956TIP3    H1 5811   3.935   1.131   1.589
 1956TIP3    H2 5812   3.952   1.113   1.440
 1957TIP3   OH2 5813   2.537   4.159   0.712
 1957TIP3    H1 5814   2.567   4.158   0.620
 1957TIP3    H2 5815   2.526   4.252   0.732
 1958TIP3   OH2 5816   3.795   1.103   5.214
 1958TIP3    H1 5817   3.881   1.105   5.256
 1958TIP3    H2 5818   3.748   1.033   5.259
 1959TIP3   OH2 5819   1.970   3.724   2.917
 1959TIP3    H1 5820   2.019   3.761   2.991
 1959TIP3    H2 5821   1.985   3.786   2.845
 1960TIP3   OH2 5822   6.956   5.535   6.103
 1960TIP3    H1 5823   6.980   5.454   6.058
 1960TIP3    H2 5824   6.954   5.512   6.196
 1961TIP3   OH2 5825   5.345   1.668   2.152
 1961TIP3    H1 5826   5.435   1.686   2.126
 1961TIP3    H2 5827   5.294   1.675   2.071
 1962TIP3   OH2 5828   5.827   2.283   5.825
 1962TIP3    H1 5829   5.865   2.202   5.860
 1962TIP3    H2 5830   5.901   2.329   5.786
 1963TIP3   OH2 5831   5.850   6.185   1.569
 1963TIP3    H1 5832   5.945   6.178   1.580
 1963TIP3    H2 5833   5.839   6.234   1.488
 1964TIP3   OH2 5834   4.142   6.677   2.822
 1964TIP3    H1 5835   4.056   6.634   2.829
 1964TIP3    H2 5836   4.170   6.688   2.912
 1965TIP3   OH2 5837   3.915   5.220   4.820
 1965TIP3    H1 5838   3.885   5.135   4.788
 1965TIP3    H2 5839   3.853   5.244   4.888
 1966TIP3   OH2 5840   3.708   7.374   0.209
 1966TIP3    H1 5841   3.649   7.449   0.217
 1966TIP3    H2 5842   3.718   7.360   0.115
 1967TIP3   OH2 5843   3.945   5.074   4.356
 1967TIP3    H1 5844   3.928   5.118   4.439
 1967TIP3    H2 5845   3.859   5.041   4.329
 1968TIP3   OH2 5846   3.635   7.422   2.758
 1968TIP3    H1 5847   3.729   7.439   2.749
 1968TIP3    H2 5848   3.630   7.350   2.820
 1969TIP3   OH2 5849   2.305   0.611   3.071
 1969TIP3    H1 5850   2.223   0.626   3.117
 1969TIP3    H2 5851   2.305   0.676   3.001
 1970TIP3   OH2 5852   7.609   6.887   1.936
 1970TIP3    H1 5853   7.608   6.796   1.907
 1970TIP3    H2 5854   7.524   6.921   1.911
 1971TIP3   OH2 5855   0.563   0.583   4.334
 1971TIP3    H1 5856   0.639   0.602   4.390
 1971TIP3    H2 5857   0.496   0.646   4.362
 1972TIP3   OH2 5858   1.689   4.372   6.407
 1972TIP3    H1 5859   1.665   4.461   6.434
 1972TIP3    H2 5860   1.773   4.382   6.362
 1973TIP3   OH2 5861   5.242   2.989   3.096
 1973TIP3    H1 5862   5.213   2.907   3.056
 1973TIP3    H2 5863   5.310   2.963   3.158
 1974TIP3   OH2 5864   2.073   2.646   0.154
 1974TIP3    H1 5865   2.103   2.571   0.205
 1974TIP3    H2 5866   2.097   2.625   0.064
 1975TIP3   OH2 5867   2.809   2.715   2.335
 1975TIP3    H1 5868   2.859   2.634   2.331
 1975TIP3    H2 5869   2.772   2.717   2.424
 1976TIP3   OH2 5870   8.060   5.667   1.737
 1976TIP3    H1 5871   8.116   5.647   1.812
 1976TIP3    H2 5872   7.980   5.702   1.777
 1977TIP3   OH2 5873   3.510   7.123   1.109
 1977TIP3    H1 5874   3.508   7.216   1.130
 1977TIP3    H2 5875   3.477   7.080   1.188
 1978TIP3   OH2 5876   2.195   7.127   6.463
 1978TIP3    H1 5877   2.198   7.203   6.405
 1978TIP3    H2 5878   2.287   7.105   6.479
 1979TIP3   OH2 5879   0.372   5.051   0.703
 1979TIP3    H1 5880   0.331   5.047   0.616
 1979TIP3    H2 5881   0.358   5.142   0.731
 1980TIP3   OH2 5882   5.259   1.712   6.724
 1980TIP3    H1 5883   5.197   1.656   6.678
 1980TIP3    H2 5884   5.289   1.773   6.657
 1981TIP3   OH2 5885   0.272   6.100   4.982
 1981TIP3    H1 5886   0.346   6.135   5.032
 1981TIP3    H2 5887   0.200   6.161   5.001
 1982TIP3   OH2 5888   2.914   6.182   3.654
 1982TIP3    H1 5889   2.927   6.274   3.679
 1982TIP3    H2 5890   2.991   6.161   3.602
 1983TIP3   OH2 5891   3.454   3.893   3.684
 1983TIP3    H1 5892   3.496   3.936   3.757
 1983TIP3    H2 5893   3.523   3.838   3.645
 1984TIP3   OH2 5894   5.949   1.758   4.823
 1984TIP3    H1 5895   5.927   1.802   4.906
 1984TIP3    H2 5896   6.037   1.789   4.802
 1985TIP3   OH2 5897   8.010   1.594   1.577
 1985TIP3    H1 5898   8.055   1.586   1.492
 1985TIP3    H2 5899   7.936   1.533   1.570
 1986TIP3   OH2 5900   0.201   7.189   3.556
 1986TIP3    H1 5901   0.125   7.231   3.516
 1986TIP3    H2 5902   0.274   7.248   3.536
 1987TIP3   OH2 5903   0.563   2.793   1.917
 1987TIP3    H1 5904   0.564   2.883   1.885
 1987TIP3    H2 5905   0.472   2.765   1.908
 1988TIP3   OH2 5906   8.278   6.234   1.672
 1988TIP3    H1 5907   8.259   6.216   1.580
 1988TIP3    H2 5908   8.261   6.151   1.717
 1989TIP3   OH2 5909   5.768   3.209   6.723
 1989TIP3    H1 5910   5.718   3.127   6.721
 1989TIP3    H2 5911   5.843   3.194   6.667
 1990TIP3   OH2 5912   8.153   0.267   1.288
 1990TIP3    H1 5913   8.103   0.256   1.207
 1990TIP3    H2 5914   8.245   0.258   1.260
 1991TIP3   OH2 5915   2.056   1.907   5.038
 1991TIP3    H1 5916   2.111   1.975   5.078
 1991TIP3    H2 5917   2.107   1.876   4.963
 1992TIP3   OH2 5918   6.496   1.361   1.234
 1992TIP3    H1 5919   6.532   1.301   1.299
 1992TIP3    H2 5920   6.404   1.335   1.225
 1993TIP3   OH2 5921   5.077   5.164   5.299
 1993TIP3    H1 5922   5.075   5.085   5.245
 1993TIP3    H2 5923   5.103   5.133   5.385
 1994TIP3   OH2 5924   2.724   2.923   3.381
 1994TIP3    H1 5925   2.764   2.987   3.440
 1994TIP3    H2 5926   2.793   2.902   3.318
 1995TIP3   OH2 5927   5.964   1.830   4.194
 1995TIP3    H1 5928   5.998   1.743   4.173
 1995TIP3    H2 5929   5.911   1.854   4.118
 1996TIP3   OH2 5930   2.284   5.353   3.369
 1996TIP3    H1 5931   2.244   5.438   3.350
 1996TIP3    H2 5932   2.246   5.294   3.304
 1997TIP3   OH2 5933   1.270   5.474   1.137
 1997TIP3    H1 5934   1.288   5.462   1.231
 1997TIP3    H2 5935   1.177   5.450   1.127
 1998TIP3   OH2 5936   5.355   3.767   3.126
 1998TIP3    H1 5937   5.352   3.671   3.122
 1998TIP3    H2 5938   5.268   3.794   3.096
 1999TIP3   OH2 5939   0.181   7.209   3.098
 1999TIP3    H1 5940   0.224   7.224   3.014
 1999TIP3    H2 5941   0.222   7.129   3.132
 2000TIP3   OH2 5942   0.303   0.408   6.022
 2000TIP3    H1 5943   0.274   0.323   6.056
 2000TIP3    H2 5944   0.337   0.454   6.098
 2001TIP3   OH2 5945   0.560   3.063   1.073
 2001TIP3    H1 5946   0.655   3.075   1.074
 2001TIP3    H2 5947   0.545   2.988   1.131
 2002TIP3   OH2 5948   4.975   1.764   0.058
 2002TIP3    H1 5949   4.946   1.719   0.138
 2002TIP3    H2 5950   4.973   1.696  -0.010
 2003TIP3   OH2 5951   3.645   2.703   6.343
 2003TIP3    H1 5952   3.660   2.718   6.250
 2003TIP3    H2 5953   3.584   2.629   6.346
 2004TIP3   OH2 5954   5.443   2.745   4.368
 2004TIP3    H1 5955   5.516   2.690   4.398
 2004TIP3    H2 5956   5.462   2.760   4.275
 2005TIP3   OH2 5957   3.495   5.193   5.817
 2005TIP3    H1 5958   3.537   5.106   5.815
 2005TIP3    H2 5959   3.567   5.254   5.832
 2006TIP3   OH2 5960   4.292   1.755   5.445
 2006TIP3    H1 5961   4.197   1.748   5.444
 2006TIP3    H2 5962   4.323   1.666   5.456
 2007TIP3   OH2 5963   5.933   2.209   0.156
 2007TIP3    H1 5964   5.911   2.130   0.206
 2007TIP3    H2 5965   5.863   2.217   0.091
 2008TIP3   OH2 5966   6.466   7.174   2.522
 2008TIP3    H1 5967   6.408   7.173   2.446
 2008TIP3    H2 5968   6.520   7.252   2.511
 2009TIP3   OH2 5969   0.746   2.615   0.958
 2009TIP3    H1 5970   0.786   2.687   0.911
 2009TIP3    H2 5971   0.751   2.641   1.050
 2010TIP3   OH2 5972   8.218   3.608   5.382
 2010TIP3    H1 5973   8.294   3.632   5.329
 2010TIP3    H2 5974   8.144   3.649   5.339
 2011TIP3   OH2 5975   0.487   6.536   5.471
 2011TIP3    H1 5976   0.468   6.630   5.468
 2011TIP3    H2 5977   0.515   6.514   5.383
 2012TIP3   OH2 5978   2.884   3.631   5.501
 2012TIP3    H1 5979   2.907   3.700   5.563
 2012TIP3    H2 5980   2.921   3.551   5.538
 2013TIP3   OH2 5981   5.003   4.848   2.351
 2013TIP3    H1 5982   5.054   4.768   2.355
 2013TIP3    H2 5983   5.045   4.906   2.415
 2014TIP3   OH2 5984   4.696   1.531   2.828
 2014TIP3    H1 5985   4.670   1.486   2.748
 2014TIP3    H2 5986   4.639   1.608   2.832
 2015TIP3   OH2 5987   1.849   0.857   3.831
 2015TIP3    H1 5988   1.816   0.922   3.769
 2015TIP3    H2 5989   1.899   0.909   3.894
 2016TIP3   OH2 5990   2.657   1.131   0.203
 2016TIP3    H1 5991   2.687   1.221   0.192
 2016TIP3    H2 5992   2.728   1.088   0.251
 2017TIP3   OH2 5993   4.256   4.786   2.331
 2017TIP3    H1 5994   4.241   4.718   2.266
 2017TIP3    H2 5995   4.168   4.810   2.361
 2018TIP3   OH2 5996   4.412   0.955   3.561
 2018TIP3    H1 5997   4.456   1.018   3.619
 2018TIP3    H2 5998   4.414   0.997   3.475
 2019TIP3   OH2 5999   0.998   6.308   4.576
 2019TIP3    H1 6000   0.972   6.216   4.583
 2019TIP3    H2 6001   1.084   6.306   4.534
 2020TIP3   OH2 6002   6.096   2.852   0.211
 2020TIP3    H1 6003   6.161   2.873   0.143
 2020TIP3    H2 6004   6.014   2.890   0.178
 2021TIP3   OH2 6005   7.895   5.583   4.568
 2021TIP3    H1 6006   7.875   5.583   4.474
 2021TIP3    H2 6007   7.887   5.492   4.594
 2022TIP3   OH2 6008   2.171   2.061   4.746
 2022TIP3    H1 6009   2.138   2.061   4.656
 2022TIP3    H2 6010   2.198   1.971   4.762
 2023TIP3   OH2 6011   3.924   1.962   1.134
 2023TIP3    H1 6012   3.883   2.005   1.058
 2023TIP3    H2 6013   3.874   1.881   1.145
 2024TIP3   OH2 6014   2.760   6.342   2.132
 2024TIP3    H1 6015   2.839   6.296   2.159
 2024TIP3    H2 6016   2.730   6.294   2.055
 2025TIP3   OH2 6017   5.798   2.562   1.010
 2025TIP3    H1 6018   5.704   2.571   1.023
 2025TIP3    H2 6019   5.837   2.603   1.088
 2026TIP3   OH2 6020   5.486   2.806   5.947
 2026TIP3    H1 6021   5.490   2.897   5.917
 2026TIP3    H2 6022   5.576   2.774   5.939
 2027TIP3   OH2 6023   1.433   5.320   0.420
 2027TIP3    H1 6024   1.366   5.255   0.398
 2027TIP3    H2 6025   1.387   5.404   0.413
 2028TIP3   OH2 6026   7.590   6.401   6.767
 2028TIP3    H1 6027   7.628   6.431   6.684
 2028TIP3    H2 6028   7.657   6.421   6.832
 2029TIP3   OH2 6029   1.980   2.495   4.176
 2029TIP3    H1 6030   1.954   2.584   4.200
 2029TIP3    H2 6031   1.903   2.442   4.193
 2030TIP3   OH2 6032   1.462   4.384   6.268
 2030TIP3    H1 6033   1.525   4.356   6.335
 2030TIP3    H2 6034   1.435   4.303   6.226
 2031TIP3   OH2 6035   6.076   1.135   6.375
 2031TIP3    H1 6036   6.048   1.052   6.415
 2031TIP3    H2 6037   6.108   1.110   6.288
 2032TIP3   OH2 6038   1.612   2.668   2.360
 2032TIP3    H1 6039   1.676   2.693   2.292
 2032TIP3    H2 6040   1.657   2.601   2.411
 2033TIP3   OH2 6041   6.648   7.130   3.120
 2033TIP3    H1 6042   6.689   7.181   3.050
 2033TIP3    H2 6043   6.557   7.159   3.121
 2034TIP3   OH2 6044   1.249   5.162   3.401
 2034TIP3    H1 6045   1.218   5.073   3.382
 2034TIP3    H2 6046   1.174   5.205   3.441
 2035TIP3   OH2 6047   1.691   2.301   2.473
 2035TIP3    H1 6048   1.608   2.290   2.426
 2035TIP3    H2 6049   1.758   2.289   2.406
 2036TIP3   OH2 6050   1.034   4.065   5.336
 2036TIP3    H1 6051   0.959   4.014   5.305
 2036TIP3    H2 6052   0.996   4.146   5.370
 2037TIP3   OH2 6053   2.450   3.744   3.441
 2037TIP3    H1 6054   2.484   3.655   3.447
 2037TIP3    H2 6055   2.526   3.799   3.460
 2038TIP3   OH2 6056   5.512   4.930   3.310
 2038TIP3    H1 6057   5.583   4.870   3.334
 2038TIP3    H2 6058   5.506   4.991   3.384
 2039TIP3   OH2 6059   2.262   2.557   5.638
 2039TIP3    H1 6060   2.183   2.502   5.643
 2039TIP3    H2 6061   2.238   2.637   5.684
 2040TIP3   OH2 6062   1.131   0.346   2.934
 2040TIP3    H1 6063   1.127   0.440   2.946
 2040TIP3    H2 6064   1.044   0.321   2.904
 2041TIP3   OH2 6065   4.928   6.999   6.324
 2041TIP3    H1 6066   4.974   7.083   6.324
 2041TIP3    H2 6067   4.858   7.010   6.260
 2042TIP3   OH2 6068   6.893   2.085   0.138
 2042TIP3    H1 6069   6.834   2.010   0.145
 2042TIP3    H2 6070   6.981   2.048   0.145
 2043TIP3   OH2 6071   3.544   6.247   0.257
 2043TIP3    H1 6072   3.585   6.271   0.175
 2043TIP3    H2 6073   3.607   6.272   0.325
 2044TIP3   OH2 6074   2.335   6.438   5.525
 2044TIP3    H1 6075   2.322   6.376   5.453
 2044TIP3    H2 6076   2.430   6.456   5.524
 2045TIP3   OH2 6077   3.549   3.790   5.895
 2045TIP3    H1 6078   3.579   3.872   5.934
 2045TIP3    H2 6079   3.482   3.816   5.832
 2046TIP3   OH2 6080   4.066   0.114   1.508
 2046TIP3    H1 6081   4.110   0.030   1.500
 2046TIP3    H2 6082   4.118   0.173   1.453
 2047TIP3   OH2 6083   6.436   3.666   0.917
 2047TIP3    H1 6084   6.410   3.619   0.996
 2047TIP3    H2 6085   6.354   3.697   0.878
 2048TIP3   OH2 6086   6.211   0.635   1.023
 2048TIP3    H1 6087   6.176   0.592   1.101
 2048TIP3    H2 6088   6.302   0.654   1.045
 2049TIP3   OH2 6089   0.943   2.850   5.795
 2049TIP3    H1 6090   0.970   2.829   5.884
 2049TIP3    H2 6091   0.874   2.916   5.805
 2050TIP3   OH2 6092   7.433   3.762   2.916
 2050TIP3    H1 6093   7.523   3.735   2.934
 2050TIP3    H2 6094   7.437   3.858   2.912
 2051TIP3   OH2 6095   8.178   7.199   5.794
 2051TIP3    H1 6096   8.179   7.265   5.724
 2051TIP3    H2 6097   8.267   7.200   5.829
 2052TIP3   OH2 6098   2.634   3.785   1.032
 2052TIP3    H1 6099   2.707   3.725   1.021
 2052TIP3    H2 6100   2.670   3.871   1.007
 2053TIP3   OH2 6101   7.952   6.855   5.251
 2053TIP3    H1 6102   7.913   6.881   5.334
 2053TIP3    H2 6103   8.029   6.911   5.242
 2054TIP3   OH2 6104   0.807   3.428   1.324
 2054TIP3    H1 6105   0.897   3.431   1.356
 2054TIP3    H2 6106   0.753   3.440   1.402
 2055TIP3   OH2 6107   8.163   2.864   3.459
 2055TIP3    H1 6108   8.145   2.770   3.446
 2055TIP3    H2 6109   8.077   2.906   3.454
 2056TIP3   OH2 6110   5.523   1.783   0.968
 2056TIP3    H1 6111   5.533   1.766   1.062
 2056TIP3    H2 6112   5.428   1.793   0.956
 2057TIP3   OH2 6113   6.264   2.089   4.507
 2057TIP3    H1 6114   6.180   2.074   4.464
 2057TIP3    H2 6115   6.305   2.158   4.456
 2058TIP3   OH2 6116   4.607   1.525   5.842
 2058TIP3    H1 6117   4.625   1.469   5.918
 2058TIP3    H2 6118   4.601   1.613   5.878
 2059TIP3   OH2 6119   8.206   1.287   0.038
 2059TIP3    H1 6120   8.157   1.294  -0.043
 2059TIP3    H2 6121   8.139   1.284   0.107
 2060TIP3   OH2 6122   6.997   1.591   1.742
 2060TIP3    H1 6123   7.015   1.516   1.685
 2060TIP3    H2 6124   6.918   1.566   1.790
 2061TIP3   OH2 6125   0.356   3.356   0.640
 2061TIP3    H1 6126   0.325   3.295   0.572
 2061TIP3    H2 6127   0.277   3.388   0.682
 2062TIP3   OH2 6128   7.955   2.888   0.494
 2062TIP3    H1 6129   7.874   2.871   0.446
 2062TIP3    H2 6130   7.947   2.836   0.573
 2063TIP3   OH2 6131   5.835   2.044   6.353
 2063TIP3    H1 6132   5.806   2.002   6.433
 2063TIP3    H2 6133   5.827   1.976   6.286
 2064TIP3   OH2 6134   5.332   2.113   4.418
 2064TIP3    H1 6135   5.267   2.053   4.382
 2064TIP3    H2 6136   5.292   2.199   4.411
 2065TIP3   OH2 6137   7.710   4.767   2.853
 2065TIP3    H1 6138   7.636   4.828   2.841
 2065TIP3    H2 6139   7.692   4.725   2.937
 2066TIP3   OH2 6140   3.689   1.262   2.479
 2066TIP3    H1 6141   3.622   1.194   2.484
 2066TIP3    H2 6142   3.757   1.225   2.422
 2067TIP3   OH2 6143   4.293   0.003   3.212
 2067TIP3    H1 6144   4.282   0.056   3.133
 2067TIP3    H2 6145   4.388  -0.005   3.223
 2068TIP3   OH2 6146   6.188   3.911   5.057
 2068TIP3    H1 6147   6.139   3.980   5.102
 2068TIP3    H2 6148   6.242   3.872   5.125
 2069TIP3   OH2 6149   2.467   6.882   4.937
 2069TIP3    H1 6150   2.459   6.898   4.843
 2069TIP3    H2 6151   2.511   6.797   4.943
 2070TIP3   OH2 6152   2.889   3.467   4.313
 2070TIP3    H1 6153   2.812   3.412   4.306
 2070TIP3    H2 6154   2.902   3.480   4.407
 2071TIP3   OH2 6155   1.774   7.777   2.571
 2071TIP3    H1 6156   1.773   7.681   2.573
 2071TIP3    H2 6157   1.796   7.799   2.481
 2072TIP3   OH2 6158   4.571   5.898   4.611
 2072TIP3    H1 6159   4.520   5.929   4.537
 2072TIP3    H2 6160   4.554   5.804   4.614
 2073TIP3   OH2 6161   3.661   6.909   4.540
 2073TIP3    H1 6162   3.678   6.855   4.617
 2073TIP3    H2 6163   3.740   6.900   4.486
 2074TIP3   OH2 6164   5.257   0.674   4.335
 2074TIP3    H1 6165   5.269   0.690   4.242
 2074TIP3    H2 6166   5.185   0.612   4.340
 2075TIP3   OH2 6167   8.080   2.885   2.332
 2075TIP3    H1 6168   8.150   2.838   2.287
 2075TIP3    H2 6169   8.116   2.973   2.345
 2076TIP3   OH2 6170   8.019   3.842   2.012
 2076TIP3    H1 6171   8.029   3.777   1.943
 2076TIP3    H2 6172   8.004   3.792   2.091
 2077TIP3   OH2 6173   5.663   6.005   1.510
 2077TIP3    H1 6174   5.592   6.064   1.485
 2077TIP3    H2 6175   5.729   6.063   1.548
 2078TIP3   OH2 6176   1.001   1.719   3.178
 2078TIP3    H1 6177   1.064   1.791   3.180
 2078TIP3    H2 6178   0.939   1.739   3.248
 2079TIP3   OH2 6179   4.255   2.790   0.745
 2079TIP3    H1 6180   4.304   2.836   0.677
 2079TIP3    H2 6181   4.313   2.790   0.821
 2080TIP3   OH2 6182   1.129   4.830   1.389
 2080TIP3    H1 6183   1.209   4.781   1.406
 2080TIP3    H2 6184   1.102   4.802   1.301
 2081TIP3   OH2 6185   7.896   7.748   3.818
 2081TIP3    H1 6186   7.974   7.707   3.854
 2081TIP3    H2 6187   7.910   7.747   3.723
 2082TIP3   OH2 6188   0.655   1.410   0.804
 2082TIP3    H1 6189   0.633   1.385   0.714
 2082TIP3    H2 6190   0.632   1.502   0.809
 2083TIP3   OH2 6191   8.028   4.264   1.391
 2083TIP3    H1 6192   7.937   4.294   1.387
 2083TIP3    H2 6193   8.057   4.290   1.478
 2084TIP3   OH2 6194   7.439   1.185   3.776
 2084TIP3    H1 6195   7.395   1.205   3.859
 2084TIP3    H2 6196   7.521   1.142   3.803
 2085TIP3   OH2 6197   5.268   4.353   0.551
 2085TIP3    H1 6198   5.351   4.328   0.592
 2085TIP3    H2 6199   5.293   4.409   0.477
 2086TIP3   OH2 6200   3.153   0.694   6.269
 2086TIP3    H1 6201   3.165   0.703   6.364
 2086TIP3    H2 6202   3.067   0.731   6.252
 2087TIP3   OH2 6203   7.583   0.640   5.711
 2087TIP3    H1 6204   7.621   0.552   5.703
 2087TIP3    H2 6205   7.503   0.636   5.660
 2088TIP3   OH2 6206   7.033   4.784   1.116
 2088TIP3    H1 6207   7.128   4.789   1.127
 2088TIP3    H2 6208   6.999   4.858   1.166
 2089TIP3   OH2 6209   6.287   6.956   6.480
 2089TIP3    H1 6210   6.379   6.966   6.503
 2089TIP3    H2 6211   6.242   7.026   6.527
 2090TIP3   OH2 6212   6.819   6.713   1.140
 2090TIP3    H1 6213   6.804   6.772   1.214
 2090TIP3    H2 6214   6.816   6.771   1.063
 2091TIP3   OH2 6215   2.843   6.353   0.593
 2091TIP3    H1 6216   2.887   6.268   0.589
 2091TIP3    H2 6217   2.899   6.406   0.649
 2092TIP3   OH2 6218   7.134   2.585   5.826
 2092TIP3    H1 6219   7.169   2.667   5.862
 2092TIP3    H2 6220   7.039   2.595   5.831
 2093TIP3   OH2 6221   5.891   4.338   5.707
 2093TIP3    H1 6222   5.928   4.413   5.660
 2093TIP3    H2 6223   5.915   4.263   5.654
 2094TIP3   OH2 6224   7.546   0.955   4.401
 2094TIP3    H1 6225   7.500   1.035   4.377
 2094TIP3    H2 6226   7.612   0.944   4.332
 2095TIP3   OH2 6227   4.896   4.198   5.541
 2095TIP3    H1 6228   4.869   4.287   5.565
 2095TIP3    H2 6229   4.898   4.150   5.623
 2096TIP3   OH2 6230   4.879   3.278   4.014
 2096TIP3    H1 6231   4.891   3.274   3.919
 2096TIP3    H2 6232   4.933   3.207   4.048
 2097TIP3   OH2 6233   3.394   5.136   4.181
 2097TIP3    H1 6234   3.405   5.229   4.201
 2097TIP3    H2 6235   3.483   5.105   4.164
 2098TIP3   OH2 6236   0.067   3.260   5.665
 2098TIP3    H1 6237   0.020   3.306   5.735
 2098TIP3    H2 6238   0.011   3.185   5.644
 2099TIP3   OH2 6239   5.197   0.568   2.662
 2099TIP3    H1 6240   5.207   0.626   2.737
 2099TIP3    H2 6241   5.214   0.481   2.696
 2100TIP3   OH2 6242   2.100   3.074   5.924
 2100TIP3    H1 6243   2.153   3.084   6.003
 2100TIP3    H2 6244   2.017   3.037   5.955
 2101TIP3   OH2 6245   7.397   0.560   5.539
 2101TIP3    H1 6246   7.428   0.517   5.459
 2101TIP3    H2 6247   7.303   0.547   5.539
 2102TIP3   OH2 6248   5.339   7.655   2.192
 2102TIP3    H1 6249   5.354   7.750   2.201
 2102TIP3    H2 6250   5.246   7.647   2.174
 2103TIP3   OH2 6251   4.446   5.283   6.448
 2103TIP3    H1 6252   4.436   5.366   6.494
 2103TIP3    H2 6253   4.380   5.225   6.487
 2104TIP3   OH2 6254   2.592   5.596   1.313
 2104TIP3    H1 6255   2.683   5.568   1.322
 2104TIP3    H2 6256   2.571   5.634   1.399
 2105TIP3   OH2 6257   2.949   7.229   0.719
 2105TIP3    H1 6258   2.897   7.230   0.638
 2105TIP3    H2 6259   2.894   7.273   0.783
 2106TIP3   OH2 6260   8.212   1.786   1.140
 2106TIP3    H1 6261   8.270   1.825   1.075
 2106TIP3    H2 6262   8.166   1.860   1.179
 2107TIP3   OH2 6263   4.094   2.867   3.575
 2107TIP3    H1 6264   4.070   2.894   3.664
 2107TIP3    H2 6265   4.032   2.798   3.553
 2108TIP3   OH2 6266   3.039   4.192   5.963
 2108TIP3    H1 6267   3.119   4.206   6.015
 2108TIP3    H2 6268   2.985   4.268   5.982
 2109TIP3   OH2 6269   2.591   5.749   1.635
 2109TIP3    H1 6270   2.595   5.698   1.716
 2109TIP3    H2 6271   2.509   5.797   1.641
 2110TIP3   OH2 6272   3.143   2.504   3.439
 2110TIP3    H1 6273   3.163   2.412   3.453
 2110TIP3    H2 6274   3.229   2.545   3.426
 2111TIP3   OH2 6275   5.431   7.398   1.328
 2111TIP3    H1 6276   5.441   7.352   1.244
 2111TIP3    H2 6277   5.337   7.403   1.341
 2112TIP3   OH2 6278   6.128   4.339   1.242
 2112TIP3    H1 6279   6.181   4.399   1.294
 2112TIP3    H2 6280   6.191   4.285   1.195
 2113TIP3   OH2 6281   0.227   2.037   0.663
 2113TIP3    H1 6282   0.288   2.021   0.591
 2113TIP3    H2 6283   0.195   2.126   0.647
 2114TIP3   OH2 6284   5.602   5.415   0.655
 2114TIP3    H1 6285   5.672   5.426   0.591
 2114TIP3    H2 6286   5.521   5.419   0.604
 2115TIP3   OH2 6287   2.863   0.189   1.430
 2115TIP3    H1 6288   2.779   0.213   1.469
 2115TIP3    H2 6289   2.892   0.268   1.385
 2116TIP3   OH2 6290   3.946   4.157   3.539
 2116TIP3    H1 6291   4.006   4.097   3.585
 2116TIP3    H2 6292   3.887   4.100   3.491
 2117TIP3   OH2 6293   3.317   6.218   5.361
 2117TIP3    H1 6294   3.256   6.290   5.376
 2117TIP3    H2 6295   3.369   6.245   5.286
 2118TIP3   OH2 6296   6.538   3.412   5.525
 2118TIP3    H1 6297   6.580   3.479   5.579
 2118TIP3    H2 6298   6.572   3.427   5.437
 2119TIP3   OH2 6299   3.764   6.679   6.584
 2119TIP3    H1 6300   3.855   6.703   6.567
 2119TIP3    H2 6301   3.766   6.638   6.671
 2120TIP3   OH2 6302   1.379   5.625   5.165
 2120TIP3    H1 6303   1.382   5.538   5.125
 2120TIP3    H2 6304   1.285   5.642   5.178
 2121TIP3   OH2 6305   1.564   6.370   0.196
 2121TIP3    H1 6306   1.546   6.434   0.127
 2121TIP3    H2 6307   1.515   6.402   0.272
 2122TIP3   OH2 6308   0.984   6.864   5.076
 2122TIP3    H1 6309   0.991   6.860   4.981
 2122TIP3    H2 6310   1.031   6.943   5.101
 2123TIP3   OH2 6311   7.914   7.333   4.823
 2123TIP3    H1 6312   7.917   7.240   4.801
 2123TIP3    H2 6313   7.958   7.376   4.749
 2124TIP3   OH2 6314   7.933   3.941   4.947
 2124TIP3    H1 6315   7.969   4.015   4.897
 2124TIP3    H2 6316   7.839   3.958   4.952
 2125TIP3   OH2 6317   3.286   7.085   6.638
 2125TIP3    H1 6318   3.208   7.058   6.686
 2125TIP3    H2 6319   3.305   7.012   6.579
 2126TIP3   OH2 6320   2.710   0.465   0.108
 2126TIP3    H1 6321   2.688   0.376   0.079
 2126TIP3    H2 6322   2.685   0.521   0.035
 2127TIP3   OH2 6323   3.922   6.385   6.113
 2127TIP3    H1 6324   4.017   6.391   6.127
 2127TIP3    H2 6325   3.900   6.466   6.066
 2128TIP3   OH2 6326   5.194   1.550   3.198
 2128TIP3    H1 6327   5.209   1.644   3.214
 2128TIP3    H2 6328   5.236   1.507   3.273
 2129TIP3   OH2 6329   7.593   6.383   5.326
 2129TIP3    H1 6330   7.613   6.290   5.337
 2129TIP3    H2 6331   7.667   6.417   5.275
 2130TIP3   OH2 6332   1.986   6.891   3.602
 2130TIP3    H1 6333   1.992   6.977   3.562
 2130TIP3    H2 6334   1.900   6.858   3.576
 2131TIP3   OH2 6335   5.225   1.182   2.628
 2131TIP3    H1 6336   5.293   1.141   2.681
 2131TIP3    H2 6337   5.246   1.276   2.631
 2132TIP3   OH2 6338   6.891   4.431   1.345
 2132TIP3    H1 6339   6.933   4.351   1.314
 2132TIP3    H2 6340   6.881   4.485   1.267
 2133TIP3   OH2 6341   0.407   6.561   4.568
 2133TIP3    H1 6342   0.396   6.652   4.598
 2133TIP3    H2 6343   0.471   6.567   4.497
 2134TIP3   OH2 6344   7.378   3.357   0.854
 2134TIP3    H1 6345   7.457   3.383   0.807
 2134TIP3    H2 6346   7.355   3.433   0.907
 2135TIP3   OH2 6347   4.307   5.518   5.633
 2135TIP3    H1 6348   4.286   5.552   5.720
 2135TIP3    H2 6349   4.329   5.426   5.648
 2136TIP3   OH2 6350   0.293   0.288   2.012
 2136TIP3    H1 6351   0.325   0.372   1.978
 2136TIP3    H2 6352   0.348   0.222   1.969
 2137TIP3   OH2 6353   4.274   0.765   0.713
 2137TIP3    H1 6354   4.335   0.692   0.700
 2137TIP3    H2 6355   4.245   0.755   0.804
 2138TIP3   OH2 6356   1.540   3.678   1.371
 2138TIP3    H1 6357   1.571   3.748   1.428
 2138TIP3    H2 6358   1.524   3.721   1.287
 2139TIP3   OH2 6359   7.741   7.017   6.636
 2139TIP3    H1 6360   7.811   6.967   6.594
 2139TIP3    H2 6361   7.775   7.106   6.644
 2140TIP3   OH2 6362   1.042   4.686   3.888
 2140TIP3    H1 6363   0.966   4.694   3.830
 2140TIP3    H2 6364   1.115   4.667   3.829
 2141TIP3   OH2 6365   8.129   4.769   3.123
 2141TIP3    H1 6366   8.171   4.763   3.209
 2141TIP3    H2 6367   8.103   4.679   3.103
 2142TIP3   OH2 6368   1.199   4.377   5.494
 2142TIP3    H1 6369   1.217   4.465   5.527
 2142TIP3    H2 6370   1.107   4.362   5.515
 2143TIP3   OH2 6371   3.760   6.709   4.760
 2143TIP3    H1 6372   3.781   6.737   4.849
 2143TIP3    H2 6373   3.845   6.699   4.717
 2144TIP3   OH2 6374   6.598   2.198   3.898
 2144TIP3    H1 6375   6.579   2.164   3.810
 2144TIP3    H2 6376   6.550   2.139   3.957
 2145TIP3   OH2 6377   4.465   3.650   1.282
 2145TIP3    H1 6378   4.384   3.698   1.301
 2145TIP3    H2 6379   4.534   3.713   1.301
 2146TIP3   OH2 6380   8.226   5.266   6.610
 2146TIP3    H1 6381   8.166   5.335   6.640
 2146TIP3    H2 6382   8.174   5.214   6.549
 2147TIP3   OH2 6383   5.046   6.833   5.002
 2147TIP3    H1 6384   5.121   6.829   5.061
 2147TIP3    H2 6385   5.008   6.919   5.016
 2148TIP3   OH2 6386   5.256   6.470   0.843
 2148TIP3    H1 6387   5.252   6.380   0.811
 2148TIP3    H2 6388   5.256   6.524   0.764
 2149TIP3   OH2 6389   2.972   2.996   6.363
 2149TIP3    H1 6390   2.880   3.002   6.389
 2149TIP3    H2 6391   3.016   3.062   6.416
 2150TIP3   OH2 6392   3.161   6.100   1.537
 2150TIP3    H1 6393   3.108   6.075   1.461
 2150TIP3    H2 6394   3.236   6.040   1.534
 2151TIP3   OH2 6395   4.879   0.514   4.829
 2151TIP3    H1 6396   4.890   0.543   4.919
 2151TIP3    H2 6397   4.933   0.435   4.821
 2152TIP3   OH2 6398   1.480   0.624   3.403
 2152TIP3    H1 6399   1.482   0.648   3.496
 2152TIP3    H2 6400   1.516   0.536   3.400
 2153TIP3   OH2 6401   2.818   6.017   5.826
 2153TIP3    H1 6402   2.798   6.021   5.732
 2153TIP3    H2 6403   2.913   6.007   5.830
 2154TIP3   OH2 6404   8.064   0.564   0.477
 2154TIP3    H1 6405   8.107   0.649   0.490
 2154TIP3    H2 6406   7.972   0.586   0.461
 2155TIP3   OH2 6407   1.752   7.278   4.611
 2155TIP3    H1 6408   1.763   7.306   4.702
 2155TIP3    H2 6409   1.747   7.182   4.616
 2156TIP3   OH2 6410   1.246   4.473   6.418
 2156TIP3    H1 6411   1.172   4.417   6.439
 2156TIP3    H2 6412   1.315   4.412   6.390
 2157TIP3   OH2 6413   0.189   3.619   6.654
 2157TIP3    H1 6414   0.263   3.680   6.655
 2157TIP3    H2 6415   0.219   3.543   6.704
 2158TIP3   OH2 6416   4.691   7.357   1.624
 2158TIP3    H1 6417   4.751   7.323   1.558
 2158TIP3    H2 6418   4.674   7.447   1.597
 2159TIP3   OH2 6419   1.229   7.511   2.119
 2159TIP3    H1 6420   1.242   7.431   2.069
 2159TIP3    H2 6421   1.134   7.527   2.115
 2160TIP3   OH2 6422   2.855   6.858   2.450
 2160TIP3    H1 6423   2.911   6.901   2.515
 2160TIP3    H2 6424   2.880   6.766   2.454
 2161TIP3   OH2 6425   0.574   6.595   4.367
 2161TIP3    H1 6426   0.542   6.601   4.276
 2161TIP3    H2 6427   0.589   6.686   4.393
 2162TIP3   OH2 6428   1.900   2.102   4.312
 2162TIP3    H1 6429   1.847   2.056   4.247
 2162TIP3    H2 6430   1.875   2.063   4.396
 2163TIP3   OH2 6431   7.735   4.507   3.686
 2163TIP3    H1 6432   7.794   4.558   3.741
 2163TIP3    H2 6433   7.649   4.546   3.700
 2164TIP3   OH2 6434   7.045   3.437   2.126
 2164TIP3    H1 6435   7.082   3.394   2.048
 2164TIP3    H2 6436   6.958   3.399   2.134
 2165TIP3   OH2 6437   0.468   3.542   4.692
 2165TIP3    H1 6438   0.524   3.617   4.714
 2165TIP3    H2 6439   0.379   3.577   4.695
 2166TIP3   OH2 6440   3.750   6.218   3.491
 2166TIP3    H1 6441   3.744   6.242   3.583
 2166TIP3    H2 6442   3.700   6.136   3.484
 2167TIP3   OH2 6443   0.051   1.450   1.034
 2167TIP3    H1 6444   0.047   1.538   1.072
 2167TIP3    H2 6445   0.100   1.398   1.098
 2168TIP3   OH2 6446   4.295   7.804   2.604
 2168TIP3    H1 6447   4.211   7.805   2.558
 2168TIP3    H2 6448   4.274   7.771   2.692
 2169TIP3   OH2 6449   7.812   6.083   1.333
 2169TIP3    H1 6450   7.841   6.105   1.421
 2169TIP3    H2 6451   7.882   6.028   1.298
 2170TIP3   OH2 6452   0.840   1.112   0.453
 2170TIP3    H1 6453   0.757   1.111   0.405
 2170TIP3    H2 6454   0.906   1.088   0.388
 2171TIP3   OH2 6455   2.511   0.742   6.755
 2171TIP3    H1 6456   2.554   0.787   6.828
 2171TIP3    H2 6457   2.435   0.796   6.735
 2172TIP3   OH2 6458   2.724   4.831   2.359
 2172TIP3    H1 6459   2.769   4.782   2.290
 2172TIP3    H2 6460   2.724   4.921   2.328
 2173TIP3   OH2 6461   4.312   3.750   0.517
 2173TIP3    H1 6462   4.286   3.795   0.597
 2173TIP3    H2 6463   4.278   3.805   0.446
 2174TIP3   OH2 6464   0.522   2.448   4.575
 2174TIP3    H1 6465   0.461   2.439   4.502
 2174TIP3    H2 6466   0.474   2.500   4.640
 2175TIP3   OH2 6467   1.974   5.581   5.188
 2175TIP3    H1 6468   2.009   5.625   5.266
 2175TIP3    H2 6469   2.035   5.603   5.118
 2176TIP3   OH2 6470   0.442   5.363   1.016
 2176TIP3    H1 6471   0.529   5.403   1.026
 2176TIP3    H2 6472   0.381   5.435   1.028
 2177TIP3   OH2 6473   6.728   0.613   1.047
 2177TIP3    H1 6474   6.810   0.636   1.003
 2177TIP3    H2 6475   6.754   0.559   1.121
 2178TIP3   OH2 6476   3.934   2.536   1.316
 2178TIP3    H1 6477   4.017   2.491   1.331
 2178TIP3    H2 6478   3.937   2.613   1.372
 2179TIP3   OH2 6479   4.722   2.851   2.553
 2179TIP3    H1 6480   4.673   2.926   2.518
 2179TIP3    H2 6481   4.654   2.792   2.586
 2180TIP3   OH2 6482   0.990   6.800   4.790
 2180TIP3    H1 6483   0.975   6.707   4.810
 2180TIP3    H2 6484   0.912   6.826   4.741
 2181TIP3   OH2 6485   7.956   2.546   2.153
 2181TIP3    H1 6486   7.897   2.501   2.213
 2181TIP3    H2 6487   7.940   2.504   2.068
 2182TIP3   OH2 6488   3.979   4.899   5.403
 2182TIP3    H1 6489   4.039   4.828   5.426
 2182TIP3    H2 6490   3.921   4.862   5.337
 2183TIP3   OH2 6491   1.933   7.026   2.963
 2183TIP3    H1 6492   1.997   7.006   2.894
 2183TIP3    H2 6493   1.941   6.954   3.025
 2184TIP3   OH2 6494   3.635   7.756   6.706
 2184TIP3    H1 6495   3.565   7.722   6.651
 2184TIP3    H2 6496   3.667   7.834   6.659
 2185TIP3   OH2 6497   0.429   3.265   4.612
 2185TIP3    H1 6498   0.419   3.246   4.706
 2185TIP3    H2 6499   0.463   3.354   4.610
 2186TIP3   OH2 6500   7.092   4.645   4.717
 2186TIP3    H1 6501   7.014   4.590   4.726
 2186TIP3    H2 6502   7.064   4.731   4.749
 2187TIP3   OH2 6503   3.945   2.660   4.970
 2187TIP3    H1 6504   3.891   2.720   5.023
 2187TIP3    H2 6505   3.916   2.675   4.880
 2188TIP3   OH2 6506   2.058   1.730   3.951
 2188TIP3    H1 6507   2.016   1.816   3.951
 2188TIP3    H2 6508   1.999   1.675   3.900
 2189TIP3   OH2 6509   0.989   5.389   5.354
 2189TIP3    H1 6510   0.920   5.323   5.363
 2189TIP3    H2 6511   1.027   5.397   5.441
 2190TIP3   OH2 6512   5.313   1.061   6.655
 2190TIP3    H1 6513   5.264   1.141   6.636
 2190TIP3    H2 6514   5.277   1.031   6.739
 2191TIP3   OH2 6515   6.250   7.789   2.546
 2191TIP3    H1 6516   6.238   7.882   2.527
 2191TIP3    H2 6517   6.343   7.774   2.532
 2192TIP3   OH2 6518  -0.005   6.183   2.084
 2192TIP3    H1 6519   0.041   6.190   2.001
 2192TIP3    H2 6520   0.064   6.180   2.150
 2193TIP3   OH2 6521   5.069   6.909   4.307
 2193TIP3    H1 6522   5.129   6.980   4.286
 2193TIP3    H2 6523   5.008   6.948   4.370
 2194TIP3   OH2 6524   0.155   4.582   3.333
 2194TIP3    H1 6525   0.177   4.591   3.425
 2194TIP3    H2 6526   0.223   4.524   3.298
 2195TIP3   OH2 6527   3.044   7.369   4.355
 2195TIP3    H1 6528   3.055   7.326   4.439
 2195TIP3    H2 6529   3.028   7.461   4.376
 2196TIP3   OH2 6530   7.972   6.317   0.109
 2196TIP3    H1 6531   8.043   6.381   0.114
 2196TIP3    H2 6532   7.914   6.340   0.181
 2197TIP3   OH2 6533   7.138   2.651   4.993
 2197TIP3    H1 6534   7.139   2.706   4.915
 2197TIP3    H2 6535   7.079   2.578   4.970
 2198TIP3   OH2 6536   2.088   4.203   2.639
 2198TIP3    H1 6537   2.169   4.180   2.593
 2198TIP3    H2 6538   2.040   4.257   2.577
 2199TIP3   OH2 6539   1.839   0.900   0.562
 2199TIP3    H1 6540   1.847   0.972   0.625
 2199TIP3    H2 6541   1.748   0.872   0.569
 2200TIP3   OH2 6542   6.811   4.611   1.146
 2200TIP3    H1 6543   6.730   4.658   1.123
 2200TIP3    H2 6544   6.881   4.672   1.123
 2201TIP3   OH2 6545   6.635   4.340   1.410
 2201TIP3    H1 6546   6.657   4.269   1.471
 2201TIP3    H2 6547   6.719   4.383   1.393
 2202TIP3   OH2 6548   5.725   7.708   5.355
 2202TIP3    H1 6549   5.798   7.711   5.416
 2202TIP3    H2 6550   5.648   7.730   5.408
 2203TIP3   OH2 6551   4.860   6.817   1.021
 2203TIP3    H1 6552   4.813   6.870   1.086
 2203TIP3    H2 6553   4.826   6.728   1.033
 2204TIP3   OH2 6554   8.018   7.055   2.188
 2204TIP3    H1 6555   8.026   6.959   2.182
 2204TIP3    H2 6556   7.925   7.072   2.174
 2205TIP3   OH2 6557   0.025   2.102   5.482
 2205TIP3    H1 6558  -0.038   2.159   5.437
 2205TIP3    H2 6559   0.054   2.153   5.557
 2206TIP3   OH2 6560   0.084   5.814   1.990
 2206TIP3    H1 6561   0.099   5.722   1.968
 2206TIP3    H2 6562   0.169   5.847   2.018
 2207TIP3   OH2 6563   2.346   6.081   5.284
 2207TIP3    H1 6564   2.293   6.137   5.228
 2207TIP3    H2 6565   2.335   5.993   5.248
 2208TIP3   OH2 6566   4.162   2.245   4.047
 2208TIP3    H1 6567   4.151   2.312   4.115
 2208TIP3    H2 6568   4.189   2.295   3.969
 2209TIP3   OH2 6569   7.056   0.287   3.850
 2209TIP3    H1 6570   7.014   0.361   3.806
 2209TIP3    H2 6571   7.031   0.211   3.798
 2210TIP3   OH2 6572   5.022   5.614   3.121
 2210TIP3    H1 6573   4.995   5.594   3.031
 2210TIP3    H2 6574   5.115   5.637   3.114
 2211TIP3   OH2 6575   5.284   0.935   5.791
 2211TIP3    H1 6576   5.365   0.914   5.745
 2211TIP3    H2 6577   5.307   1.011   5.845
 2212TIP3   OH2 6578   5.001   7.546   0.602
 2212TIP3    H1 6579   4.974   7.618   0.659
 2212TIP3    H2 6580   5.078   7.509   0.646
 2213TIP3   OH2 6581   7.761   7.782   2.932
 2213TIP3    H1 6582   7.795   7.693   2.940
 2213TIP3    H2 6583   7.727   7.803   3.019
 2214TIP3   OH2 6584   3.666   4.741   0.419
 2214TIP3    H1 6585   3.622   4.763   0.337
 2214TIP3    H2 6586   3.607   4.773   0.488
 2215TIP3   OH2 6587   1.343   5.476   6.738
 2215TIP3    H1 6588   1.363   5.396   6.689
 2215TIP3    H2 6589   1.247   5.480   6.738
 2216TIP3   OH2 6590   2.295   5.567   0.683
 2216TIP3    H1 6591   2.367   5.589   0.624
 2216TIP3    H2 6592   2.283   5.646   0.736
 2217TIP3   OH2 6593   2.572   3.600   0.182
 2217TIP3    H1 6594   2.602   3.543   0.252
 2217TIP3    H2 6595   2.572   3.688   0.221
 2218TIP3   OH2 6596   0.296   2.723   0.148
 2218TIP3    H1 6597   0.235   2.795   0.134
 2218TIP3    H2 6598   0.248   2.644   0.123
 2219TIP3   OH2 6599   4.271   7.166   0.450
 2219TIP3    H1 6600   4.294   7.195   0.362
 2219TIP3    H2 6601   4.294   7.239   0.507
 2220TIP3   OH2 6602   2.113   3.422   6.259
 2220TIP3    H1 6603   2.093   3.454   6.347
 2220TIP3    H2 6604   2.190   3.366   6.270
 2221TIP3   OH2 6605   5.581   5.423   4.371
 2221TIP3    H1 6606   5.536   5.384   4.446
 2221TIP3    H2 6607   5.553   5.371   4.296
 2222TIP3   OH2 6608   8.261   1.558   6.616
 2222TIP3    H1 6609   8.220   1.559   6.530
 2222TIP3    H2 6610   8.335   1.618   6.607
 2223TIP3   OH2 6611   7.048   2.053   5.352
 2223TIP3    H1 6612   7.122   2.099   5.314
 2223TIP3    H2 6613   7.067   2.050   5.446
 2224TIP3   OH2 6614   8.205   2.955   4.508
 2224TIP3    H1 6615   8.286   2.994   4.540
 2224TIP3    H2 6616   8.223   2.934   4.416
 2225TIP3   OH2 6617   0.377   0.943   0.722
 2225TIP3    H1 6618   0.451   0.959   0.781
 2225TIP3    H2 6619   0.412   0.886   0.654
 2226TIP3   OH2 6620   5.583   2.125   1.476
 2226TIP3    H1 6621   5.500   2.099   1.515
 2226TIP3    H2 6622   5.610   2.049   1.424
 2227TIP3   OH2 6623   2.997   0.145   1.664
 2227TIP3    H1 6624   3.040   0.227   1.690
 2227TIP3    H2 6625   2.944   0.169   1.588
 2228TIP3   OH2 6626   4.186   5.084   0.776
 2228TIP3    H1 6627   4.169   4.990   0.772
 2228TIP3    H2 6628   4.107   5.123   0.737
 2229TIP3   OH2 6629   1.799   5.650   3.530
 2229TIP3    H1 6630   1.723   5.643   3.473
 2229TIP3    H2 6631   1.849   5.724   3.495
 2230TIP3   OH2 6632   7.101   0.252   4.138
 2230TIP3    H1 6633   7.073   0.253   4.046
 2230TIP3    H2 6634   7.180   0.307   4.139
 2231TIP3   OH2 6635   3.591   1.320   1.083
 2231TIP3    H1 6636   3.520   1.303   1.022
 2231TIP3    H2 6637   3.633   1.235   1.097
 2232TIP3   OH2 6638   2.466   2.882   5.974
 2232TIP3    H1 6639   2.514   2.819   5.920
 2232TIP3    H2 6640   2.484   2.967   5.933
 2233TIP3   OH2 6641   0.383   6.810   1.873
 2233TIP3    H1 6642   0.443   6.849   1.809
 2233TIP3    H2 6643   0.299   6.806   1.827
 2234TIP3   OH2 6644   6.394   4.692   0.260
 2234TIP3    H1 6645   6.313   4.709   0.211
 2234TIP3    H2 6646   6.364   4.679   0.350
 2235TIP3   OH2 6647   3.197   3.552   3.109
 2235TIP3    H1 6648   3.240   3.475   3.072
 2235TIP3    H2 6649   3.128   3.517   3.165
 2236TIP3   OH2 6650   6.731   0.868   3.046
 2236TIP3    H1 6651   6.807   0.888   3.101
 2236TIP3    H2 6652   6.731   0.936   2.979
 2237TIP3   OH2 6653   3.802   6.110   3.039
 2237TIP3    H1 6654   3.871   6.063   3.087
 2237TIP3    H2 6655   3.747   6.149   3.107
 2238TIP3   OH2 6656   2.476   4.065   3.865
 2238TIP3    H1 6657   2.528   4.143   3.881
 2238TIP3    H2 6658   2.442   4.040   3.950
 2239TIP3   OH2 6659   0.989   7.086   4.604
 2239TIP3    H1 6660   0.932   7.131   4.665
 2239TIP3    H2 6661   1.008   7.151   4.536
 2240TIP3   OH2 6662   2.232   1.240   4.701
 2240TIP3    H1 6663   2.212   1.304   4.633
 2240TIP3    H2 6664   2.327   1.233   4.701
 2241TIP3   OH2 6665   2.420   6.286   0.459
 2241TIP3    H1 6666   2.370   6.235   0.397
 2241TIP3    H2 6667   2.440   6.225   0.530
 2242TIP3   OH2 6668   8.146   6.623   2.377
 2242TIP3    H1 6669   8.128   6.535   2.344
 2242TIP3    H2 6670   8.158   6.612   2.471
 2243TIP3   OH2 6671   0.225   6.680   2.330
 2243TIP3    H1 6672   0.163   6.752   2.343
 2243TIP3    H2 6673   0.278   6.681   2.410
 2244TIP3   OH2 6674   5.297   7.314   5.523
 2244TIP3    H1 6675   5.350   7.266   5.459
 2244TIP3    H2 6676   5.310   7.406   5.501
 2245TIP3   OH2 6677   3.854   4.527   5.096
 2245TIP3    H1 6678   3.884   4.437   5.097
 2245TIP3    H2 6679   3.817   4.539   5.009
 2246TIP3   OH2 6680   7.433   3.166   1.435
 2246TIP3    H1 6681   7.419   3.094   1.497
 2246TIP3    H2 6682   7.517   3.204   1.461
 2247TIP3   OH2 6683   0.693   0.768   1.051
 2247TIP3    H1 6684   0.784   0.740   1.044
 2247TIP3    H2 6685   0.648   0.694   1.091
 2248TIP3   OH2 6686   5.327   6.245   5.312
 2248TIP3    H1 6687   5.309   6.227   5.220
 2248TIP3    H2 6688   5.254   6.206   5.360
 2249TIP3   OH2 6689   4.900   4.312   1.586
 2249TIP3    H1 6690   4.850   4.258   1.647
 2249TIP3    H2 6691   4.987   4.272   1.584
 2250TIP3   OH2 6692   0.468   1.132   2.997
 2250TIP3    H1 6693   0.515   1.057   3.033
 2250TIP3    H2 6694   0.438   1.180   3.073
 2251TIP3   OH2 6695   3.638   2.831   2.535
 2251TIP3    H1 6696   3.546   2.852   2.518
 2251TIP3    H2 6697   3.687   2.905   2.498
 2252TIP3   OH2 6698   3.602   0.255   6.164
 2252TIP3    H1 6699   3.685   0.264   6.118
 2252TIP3    H2 6700   3.596   0.162   6.185
 2253TIP3   OH2 6701   4.710   1.812   0.928
 2253TIP3    H1 6702   4.780   1.758   0.890
 2253TIP3    H2 6703   4.663   1.848   0.853
 2254TIP3   OH2 6704   6.156   1.933   1.724
 2254TIP3    H1 6705   6.117   2.018   1.746
 2254TIP3    H2 6706   6.082   1.877   1.703
 2255TIP3   OH2 6707   3.338   1.993   2.593
 2255TIP3    H1 6708   3.329   1.898   2.585
 2255TIP3    H2 6709   3.384   2.005   2.676
 2256TIP3   OH2 6710   2.250   1.512   4.958
 2256TIP3    H1 6711   2.165   1.536   4.921
 2256TIP3    H2 6712   2.309   1.507   4.883
 2257TIP3   OH2 6713   5.158   1.880   3.560
 2257TIP3    H1 6714   5.245   1.854   3.590
 2257TIP3    H2 6715   5.111   1.797   3.549
 2258TIP3   OH2 6716   0.121   5.982   2.432
 2258TIP3    H1 6717   0.199   5.928   2.445
 2258TIP3    H2 6718   0.048   5.925   2.453
 2259TIP3   OH2 6719   4.051   3.458   3.932
 2259TIP3    H1 6720   4.138   3.418   3.935
 2259TIP3    H2 6721   4.017   3.448   4.021
 2260TIP3   OH2 6722   0.608   2.680   4.969
 2260TIP3    H1 6723   0.536   2.702   4.910
 2260TIP3    H2 6724   0.670   2.752   4.960
 2261TIP3   OH2 6725   4.653   7.371   5.205
 2261TIP3    H1 6726   4.624   7.385   5.295
 2261TIP3    H2 6727   4.746   7.394   5.207
 2262TIP3   OH2 6728   6.708   0.452   0.054
 2262TIP3    H1 6729   6.716   0.463   0.148
 2262TIP3    H2 6730   6.782   0.397   0.029
 2263TIP3   OH2 6731   0.338   1.485   6.630
 2263TIP3    H1 6732   0.420   1.451   6.664
 2263TIP3    H2 6733   0.340   1.579   6.650
 2264TIP3   OH2 6734   4.009   5.165   5.291
 2264TIP3    H1 6735   3.997   5.131   5.202
 2264TIP3    H2 6736   4.030   5.088   5.344
 2265TIP3   OH2 6737   2.835   0.976   0.392
 2265TIP3    H1 6738   2.762   0.917   0.410
 2265TIP3    H2 6739   2.885   0.932   0.324
 2266TIP3   OH2 6740   3.560   6.492   5.461
 2266TIP3    H1 6741   3.479   6.481   5.511
 2266TIP3    H2 6742   3.607   6.410   5.472
 2267TIP3   OH2 6743   6.228   6.715   0.506
 2267TIP3    H1 6744   6.205   6.790   0.560
 2267TIP3    H2 6745   6.313   6.687   0.539
 2268TIP3   OH2 6746   4.598   1.360   4.241
 2268TIP3    H1 6747   4.551   1.302   4.181
 2268TIP3    H2 6748   4.542   1.436   4.250
 2269TIP3   OH2 6749   2.818   1.278   3.164
 2269TIP3    H1 6750   2.770   1.252   3.243
 2269TIP3    H2 6751   2.765   1.349   3.127
 2270TIP3   OH2 6752   3.631   0.383   5.874
 2270TIP3    H1 6753   3.540   0.360   5.892
 2270TIP3    H2 6754   3.680   0.303   5.889
 2271TIP3   OH2 6755   1.246   0.130   4.081
 2271TIP3    H1 6756   1.304   0.096   4.149
 2271TIP3    H2 6757   1.240   0.059   4.017
 2272TIP3   OH2 6758   1.936   7.143   2.412
 2272TIP3    H1 6759   1.853   7.176   2.447
 2272TIP3    H2 6760   2.002   7.173   2.474
 2273TIP3   OH2 6761   2.690   7.265   4.972
 2273TIP3    H1 6762   2.605   7.262   4.929
 2273TIP3    H2 6763   2.670   7.265   5.066
 2274TIP3   OH2 6764   0.658   6.045   1.736
 2274TIP3    H1 6765   0.746   6.043   1.699
 2274TIP3    H2 6766   0.666   6.103   1.812
 2275TIP3   OH2 6767   0.826   7.011   1.187
 2275TIP3    H1 6768   0.744   7.057   1.168
 2275TIP3    H2 6769   0.842   6.957   1.110
 2276TIP3   OH2 6770   6.458   0.107   1.534
 2276TIP3    H1 6771   6.522   0.105   1.605
 2276TIP3    H2 6772   6.508   0.083   1.456
 2277TIP3   OH2 6773   5.214   6.089   6.190
 2277TIP3    H1 6774   5.234   6.057   6.102
 2277TIP3    H2 6775   5.136   6.143   6.178
 2278TIP3   OH2 6776   3.328   4.623   0.869
 2278TIP3    H1 6777   3.382   4.545   0.854
 2278TIP3    H2 6778   3.363   4.660   0.950
 2279TIP3   OH2 6779   0.540   1.290   0.133
 2279TIP3    H1 6780   0.494   1.256   0.211
 2279TIP3    H2 6781   0.627   1.314   0.165
 2280TIP3   OH2 6782   4.579   3.341   5.603
 2280TIP3    H1 6783   4.576   3.309   5.693
 2280TIP3    H2 6784   4.504   3.301   5.560
 2281TIP3   OH2 6785   0.826   7.215   5.228
 2281TIP3    H1 6786   0.887   7.213   5.154
 2281TIP3    H2 6787   0.846   7.135   5.277
 2282TIP3   OH2 6788   5.246   1.242   0.623
 2282TIP3    H1 6789   5.191   1.221   0.547
 2282TIP3    H2 6790   5.185   1.278   0.687
 2283TIP3   OH2 6791   4.748   5.809   0.065
 2283TIP3    H1 6792   4.658   5.806   0.097
 2283TIP3    H2 6793   4.752   5.738   0.000
 2284TIP3   OH2 6794   3.873   1.746   2.962
 2284TIP3    H1 6795   3.917   1.718   2.881
 2284TIP3    H2 6796   3.913   1.831   2.983
 2285TIP3   OH2 6797   5.552   0.162   5.467
 2285TIP3    H1 6798   5.523   0.248   5.438
 2285TIP3    H2 6799   5.472   0.114   5.486
 2286TIP3   OH2 6800   7.256   6.975   1.086
 2286TIP3    H1 6801   7.317   7.048   1.091
 2286TIP3    H2 6802   7.170   7.016   1.083
 2287TIP3   OH2 6803   8.154   0.539   1.976
 2287TIP3    H1 6804   8.066   0.573   1.996
 2287TIP3    H2 6805   8.209   0.616   1.971
 2288TIP3   OH2 6806   5.691   3.658   4.781
 2288TIP3    H1 6807   5.694   3.751   4.758
 2288TIP3    H2 6808   5.607   3.628   4.747
 2289TIP3   OH2 6809   0.860   4.945   5.349
 2289TIP3    H1 6810   0.780   4.894   5.333
 2289TIP3    H2 6811   0.894   4.965   5.262
 2290TIP3   OH2 6812   7.646   5.393   4.077
 2290TIP3    H1 6813   7.647   5.306   4.037
 2290TIP3    H2 6814   7.736   5.407   4.105
 2291TIP3   OH2 6815   7.403   0.607   3.740
 2291TIP3    H1 6816   7.316   0.573   3.760
 2291TIP3    H2 6817   7.401   0.699   3.765
 2292TIP3   OH2 6818   2.353   1.661   3.680
 2292TIP3    H1 6819   2.284   1.597   3.698
 2292TIP3    H2 6820   2.311   1.726   3.624
 2293TIP3   OH2 6821   6.780   3.371   2.180
 2293TIP3    H1 6822   6.711   3.403   2.122
 2293TIP3    H2 6823   6.740   3.297   2.226
 2294TIP3   OH2 6824   6.809   4.076   2.363
 2294TIP3    H1 6825   6.787   4.110   2.450
 2294TIP3    H2 6826   6.752   4.124   2.303
 2295TIP3   OH2 6827   4.504   2.489   5.221
 2295TIP3    H1 6828   4.509   2.550   5.147
 2295TIP3    H2 6829   4.427   2.435   5.201
 2296TIP3   OH2 6830   1.446   2.085   3.212
 2296TIP3    H1 6831   1.466   1.992   3.209
 2296TIP3    H2 6832   1.525   2.126   3.248
 2297TIP3   OH2 6833   6.038   2.897   1.119
 2297TIP3    H1 6834   6.120   2.854   1.143
 2297TIP3    H2 6835   6.053   2.990   1.138
 2298TIP3   OH2 6836   4.102   0.656   0.487
 2298TIP3    H1 6837   4.159   0.688   0.558
 2298TIP3    H2 6838   4.073   0.570   0.517
 2299TIP3   OH2 6839   8.117   6.247   2.719
 2299TIP3    H1 6840   8.037   6.224   2.766
 2299TIP3    H2 6841   8.170   6.293   2.784
 2300TIP3   OH2 6842   1.286   4.005   4.862
 2300TIP3    H1 6843   1.225   3.966   4.798
 2300TIP3    H2 6844   1.311   3.932   4.918
 2301TIP3   OH2 6845   2.717   1.572   2.642
 2301TIP3    H1 6846   2.741   1.520   2.720
 2301TIP3    H2 6847   2.753   1.658   2.659
 2302TIP3   OH2 6848   7.035   4.772   6.760
 2302TIP3    H1 6849   6.988   4.812   6.834
 2302TIP3    H2 6850   6.967   4.735   6.705
 2303TIP3   OH2 6851   2.911   3.737   1.552
 2303TIP3    H1 6852   2.973   3.772   1.616
 2303TIP3    H2 6853   2.943   3.770   1.468
 2304TIP3   OH2 6854   5.788   0.889   4.343
 2304TIP3    H1 6855   5.740   0.970   4.322
 2304TIP3    H2 6856   5.719   0.823   4.351
 2305TIP3   OH2 6857   6.339   5.670   2.997
 2305TIP3    H1 6858   6.382   5.756   2.992
 2305TIP3    H2 6859   6.317   5.659   3.089
 2306TIP3   OH2 6860   0.311   0.156   2.778
 2306TIP3    H1 6861   0.248   0.182   2.845
 2306TIP3    H2 6862   0.312   0.229   2.716
 2307TIP3   OH2 6863   2.610   2.579   5.986
 2307TIP3    H1 6864   2.536   2.601   6.043
 2307TIP3    H2 6865   2.626   2.486   6.002
 2308TIP3   OH2 6866   2.543   3.646   5.800
 2308TIP3    H1 6867   2.453   3.640   5.766
 2308TIP3    H2 6868   2.532   3.668   5.893
 2309TIP3   OH2 6869   0.390  -0.015   2.572
 2309TIP3    H1 6870   0.347   0.021   2.650
 2309TIP3    H2 6871   0.416   0.061   2.521
 2310TIP3   OH2 6872   1.252   5.936   4.200
 2310TIP3    H1 6873   1.295   5.890   4.272
 2310TIP3    H2 6874   1.291   6.023   4.199
 2311TIP3   OH2 6875   3.360   4.305   3.347
 2311TIP3    H1 6876   3.427   4.237   3.339
 2311TIP3    H2 6877   3.404   4.385   3.318
 2312TIP3   OH2 6878   7.519   6.594   1.630
 2312TIP3    H1 6879   7.578   6.613   1.557
 2312TIP3    H2 6880   7.432   6.592   1.590
 2313TIP3   OH2 6881   3.424   4.008   5.110
 2313TIP3    H1 6882   3.486   3.996   5.038
 2313TIP3    H2 6883   3.341   4.028   5.066
 2314TIP3   OH2 6884   0.983   4.232   3.826
 2314TIP3    H1 6885   1.055   4.279   3.784
 2314TIP3    H2 6886   1.016   4.210   3.913
 2315TIP3   OH2 6887   2.446   7.600   6.530
 2315TIP3    H1 6888   2.387   7.620   6.458
 2315TIP3    H2 6889   2.533   7.622   6.497
 2316TIP3   OH2 6890   4.594   4.964   1.505
 2316TIP3    H1 6891   4.657   4.950   1.576
 2316TIP3    H2 6892   4.514   4.921   1.535
 2317TIP3   OH2 6893   7.166   6.035   0.285
 2317TIP3    H1 6894   7.129   6.082   0.360
 2317TIP3    H2 6895   7.228   6.096   0.246
 2318TIP3   OH2 6896   3.762   5.499   1.883
 2318TIP3    H1 6897   3.763   5.426   1.821
 2318TIP3    H2 6898   3.845   5.491   1.930
 2319TIP3   OH2 6899   1.875   3.819   6.323
 2319TIP3    H1 6900   1.874   3.726   6.347
 2319TIP3    H2 6901   1.890   3.865   6.406
 2320TIP3   OH2 6902   6.742   4.813   4.609
 2320TIP3    H1 6903   6.776   4.833   4.522
 2320TIP3    H2 6904   6.699   4.895   4.637
 2321TIP3   OH2 6905   7.907   0.503   4.521
 2321TIP3    H1 6906   7.978   0.445   4.548
 2321TIP3    H2 6907   7.935   0.591   4.548
 2322TIP3   OH2 6908   3.871   7.480   4.693
 2322TIP3    H1 6909   3.947   7.518   4.648
 2322TIP3    H2 6910   3.906   7.402   4.736
 2323TIP3   OH2 6911   4.087   1.603   5.626
 2323TIP3    H1 6912   4.046   1.519   5.607
 2323TIP3    H2 6913   4.174   1.580   5.660
 2324TIP3   OH2 6914   2.657   6.519   2.555
 2324TIP3    H1 6915   2.603   6.453   2.511
 2324TIP3    H2 6916   2.714   6.553   2.486
 2325TIP3   OH2 6917   2.539   0.384   4.409
 2325TIP3    H1 6918   2.537   0.431   4.325
 2325TIP3    H2 6919   2.479   0.432   4.465
 2326TIP3   OH2 6920   7.107   7.304   0.889
 2326TIP3    H1 6921   7.092   7.257   0.807
 2326TIP3    H2 6922   7.020   7.328   0.919
 2327TIP3   OH2 6923   5.847   1.823   1.988
 2327TIP3    H1 6924   5.863   1.831   2.082
 2327TIP3    H2 6925   5.876   1.907   1.952
 2328TIP3   OH2 6926   1.146   1.327   2.443
 2328TIP3    H1 6927   1.169   1.386   2.515
 2328TIP3    H2 6928   1.180   1.242   2.470
 2329TIP3   OH2 6929   7.271   2.767   6.707
 2329TIP3    H1 6930   7.334   2.797   6.641
 2329TIP3    H2 6931   7.311   2.688   6.744
 2330TIP3   OH2 6932   8.094   2.329   1.318
 2330TIP3    H1 6933   8.004   2.309   1.292
 2330TIP3    H2 6934   8.148   2.291   1.248
 2331TIP3   OH2 6935   5.368   3.330   4.417
 2331TIP3    H1 6936   5.415   3.284   4.487
 2331TIP3    H2 6937   5.376   3.422   4.440
 2332TIP3   OH2 6938   0.699   5.025   1.701
 2332TIP3    H1 6939   0.708   5.029   1.606
 2332TIP3    H2 6940   0.766   4.963   1.729
 2333TIP3   OH2 6941   1.777   1.605   3.856
 2333TIP3    H1 6942   1.750   1.612   3.764
 2333TIP3    H2 6943   1.695   1.616   3.906
 2334TIP3   OH2 6944   5.845   3.443   5.817
 2334TIP3    H1 6945   5.769   3.413   5.867
 2334TIP3    H2 6946   5.888   3.506   5.875
 2335TIP3   OH2 6947   3.304   5.018   2.916
 2335TIP3    H1 6948   3.327   5.082   2.983
 2335TIP3    H2 6949   3.299   5.068   2.835
 2336TIP3   OH2 6950   8.217   4.315   3.502
 2336TIP3    H1 6951   8.153   4.244   3.503
 2336TIP3    H2 6952   8.298   4.275   3.472
 2337TIP3   OH2 6953   0.930   6.697   6.148
 2337TIP3    H1 6954   1.019   6.665   6.165
 2337TIP3    H2 6955   0.875   6.619   6.149
 2338TIP3   OH2 6956   2.315   6.016   2.401
 2338TIP3    H1 6957   2.296   5.925   2.425
 2338TIP3    H2 6958   2.319   6.015   2.305
 2339TIP3   OH2 6959   3.404   7.442   4.082
 2339TIP3    H1 6960   3.370   7.451   4.171
 2339TIP3    H2 6961   3.442   7.354   4.079
 2340TIP3   OH2 6962   7.087   4.672   2.824
 2340TIP3    H1 6963   7.016   4.672   2.760
 2340TIP3    H2 6964   7.047   4.705   2.905
 2341TIP3   OH2 6965   6.013   1.003   4.114
 2341TIP3    H1 6966   5.991   0.920   4.156
 2341TIP3    H2 6967   6.023   1.065   4.187
 2342TIP3   OH2 6968   1.898   4.664   3.557
 2342TIP3    H1 6969   1.871   4.575   3.538
 2342TIP3    H2 6970   1.825   4.702   3.606
 2343TIP3   OH2 6971   8.176   1.748   2.431
 2343TIP3    H1 6972   8.090   1.755   2.472
 2343TIP3    H2 6973   8.225   1.823   2.465
 2344TIP3   OH2 6974   2.973   1.678   2.193
 2344TIP3    H1 6975   3.064   1.649   2.184
 2344TIP3    H2 6976   2.950   1.657   2.283
 2345TIP3   OH2 6977   3.360   2.555   1.745
 2345TIP3    H1 6978   3.381   2.523   1.833
 2345TIP3    H2 6979   3.269   2.583   1.751
 2346TIP3   OH2 6980   0.976   4.666   5.238
 2346TIP3    H1 6981   1.013   4.714   5.312
 2346TIP3    H2 6982   0.888   4.703   5.228
 2347TIP3   OH2 6983   2.514   6.056   5.723
 2347TIP3    H1 6984   2.422   6.081   5.715
 2347TIP3    H2 6985   2.533   6.062   5.817
 2348TIP3   OH2 6986   3.693   7.139   2.289
 2348TIP3    H1 6987   3.741   7.187   2.220
 2348TIP3    H2 6988   3.762   7.107   2.347
 2349TIP3   OH2 6989   0.591   5.350   6.416
 2349TIP3    H1 6990   0.631   5.285   6.358
 2349TIP3    H2 6991   0.523   5.392   6.362
 2350TIP3   OH2 6992   1.722   0.149   3.332
 2350TIP3    H1 6993   1.736   0.148   3.238
 2350TIP3    H2 6994   1.810   0.160   3.369
 2351TIP3   OH2 6995   3.280   6.662   0.838
 2351TIP3    H1 6996   3.282   6.615   0.922
 2351TIP3    H2 6997   3.318   6.747   0.858
 2352TIP3   OH2 6998   0.331   2.780   0.615
 2352TIP3    H1 6999   0.247   2.824   0.606
 2352TIP3    H2 7000   0.391   2.850   0.642
 2353TIP3   OH2 7001   5.869   7.272   2.967
 2353TIP3    H1 7002   5.808   7.309   2.903
 2353TIP3    H2 7003   5.884   7.342   3.030
 2354TIP3   OH2 7004   0.557   6.592   6.346
 2354TIP3    H1 7005   0.526   6.536   6.275
 2354TIP3    H2 7006   0.563   6.679   6.306
 2355TIP3   OH2 7007   7.867   0.406   1.559
 2355TIP3    H1 7008   7.846   0.351   1.483
 2355TIP3    H2 7009   7.817   0.368   1.631
 2356TIP3   OH2 7010   7.836   1.776   1.723
 2356TIP3    H1 7011   7.877   1.783   1.810
 2356TIP3    H2 7012   7.898   1.723   1.672
 2357TIP3   OH2 7013   4.694   4.318   5.271
 2357TIP3    H1 7014   4.708   4.409   5.243
 2357TIP3    H2 7015   4.781   4.278   5.267
 2358TIP3   OH2 7016   6.043   5.065   4.251
 2358TIP3    H1 7017   5.984   5.108   4.189
 2358TIP3    H2 7018   6.035   5.116   4.331
 2359TIP3   OH2 7019   4.459   1.728   2.863
 2359TIP3    H1 7020   4.422   1.791   2.801
 2359TIP3    H2 7021   4.405   1.650   2.852
 2360TIP3   OH2 7022   7.719   4.361   6.054
 2360TIP3    H1 7023   7.802   4.313   6.045
 2360TIP3    H2 7024   7.743   4.441   6.101
 2361TIP3   OH2 7025   1.952   7.730   3.999
 2361TIP3    H1 7026   1.869   7.738   3.953
 2361TIP3    H2 7027   1.928   7.728   4.092
 2362TIP3   OH2 7028   2.023   1.131   4.825
 2362TIP3    H1 7029   2.101   1.170   4.785
 2362TIP3    H2 7030   2.047   1.039   4.838
 2363TIP3   OH2 7031   1.297   0.964   0.986
 2363TIP3    H1 7032   1.231   0.958   1.055
 2363TIP3    H2 7033   1.266   1.036   0.931
 2364TIP3   OH2 7034   3.815   6.319   6.366
 2364TIP3    H1 7035   3.867   6.341   6.289
 2364TIP3    H2 7036   3.724   6.333   6.339
 2365TIP3   OH2 7037   7.238   4.139   1.881
 2365TIP3    H1 7038   7.285   4.117   1.801
 2365TIP3    H2 7039   7.193   4.221   1.861
 2366TIP3   OH2 7040   4.237   3.894   1.284
 2366TIP3    H1 7041   4.283   3.949   1.348
 2366TIP3    H2 7042   4.164   3.948   1.254
 2367TIP3   OH2 7043   3.312   7.382   2.285
 2367TIP3    H1 7044   3.376   7.453   2.279
 2367TIP3    H2 7045   3.246   7.404   2.219
 2368TIP3   OH2 7046   7.308   3.018   2.536
 2368TIP3    H1 7047   7.245   2.963   2.490
 2368TIP3    H2 7048   7.261   3.051   2.612
 2369TIP3   OH2 7049   1.630   5.377   3.813
 2369TIP3    H1 7050   1.667   5.290   3.825
 2369TIP3    H2 7051   1.704   5.430   3.784
 2370TIP3   OH2 7052   1.969   3.941   2.439
 2370TIP3    H1 7053   1.933   3.916   2.524
 2370TIP3    H2 7054   2.010   3.861   2.406
 2371TIP3   OH2 7055   2.413   6.082   0.645
 2371TIP3    H1 7056   2.491   6.044   0.686
 2371TIP3    H2 7057   2.380   6.145   0.708
 2372TIP3   OH2 7058   0.307   0.978   4.049
 2372TIP3    H1 7059   0.367   0.904   4.053
 2372TIP3    H2 7060   0.359   1.048   4.009
 2373TIP3   OH2 7061   7.508   5.812   4.199
 2373TIP3    H1 7062   7.485   5.884   4.257
 2373TIP3    H2 7063   7.457   5.738   4.230
 2374TIP3   OH2 7064   6.069   5.045   6.172
 2374TIP3    H1 7065   6.099   5.005   6.091
 2374TIP3    H2 7066   6.117   5.128   6.177
 2375TIP3   OH2 7067   2.965   3.451   4.936
 2375TIP3    H1 7068   2.885   3.426   4.890
 2375TIP3    H2 7069   2.986   3.538   4.902
 2376TIP3   OH2 7070   1.058   7.160   0.739
 2376TIP3    H1 7071   1.125   7.196   0.797
 2376TIP3    H2 7072   1.097   7.079   0.705
 2377TIP3   OH2 7073   2.940   3.038   2.092
 2377TIP3    H1 7074   3.015   3.067   2.143
 2377TIP3    H2 7075   2.954   3.075   2.005
 2378TIP3   OH2 7076   8.162   0.534   5.054
 2378TIP3    H1 7077   8.253   0.510   5.038
 2378TIP3    H2 7078   8.166   0.626   5.081
 2379TIP3   OH2 7079   3.117   2.654   1.734
 2379TIP3    H1 7080   3.104   2.729   1.675
 2379TIP3    H2 7081   3.068   2.678   1.813
 2380TIP3   OH2 7082   2.975   6.989   0.329
 2380TIP3    H1 7083   2.908   6.930   0.363
 2380TIP3    H2 7084   2.927   7.066   0.300
 2381TIP3   OH2 7085   5.419   4.295   3.770
 2381TIP3    H1 7086   5.493   4.336   3.815
 2381TIP3    H2 7087   5.370   4.251   3.840
 2382TIP3   OH2 7088   3.829   2.283   0.313
 2382TIP3    H1 7089   3.771   2.341   0.263
 2382TIP3    H2 7090   3.840   2.207   0.257
 2383TIP3   OH2 7091   1.347   7.575   6.253
 2383TIP3    H1 7092   1.345   7.584   6.158
 2383TIP3    H2 7093   1.266   7.530   6.275
 2384TIP3   OH2 7094   7.539   3.137   5.063
 2384TIP3    H1 7095   7.480   3.065   5.086
 2384TIP3    H2 7096   7.534   3.196   5.138
 2385TIP3   OH2 7097   2.604   7.585   2.003
 2385TIP3    H1 7098   2.600   7.588   2.099
 2385TIP3    H2 7099   2.647   7.502   1.984
 2386TIP3   OH2 7100   6.678   7.506   0.671
 2386TIP3    H1 7101   6.584   7.492   0.655
 2386TIP3    H2 7102   6.690   7.600   0.661
 2387TIP3   OH2 7103   6.936   6.409   0.891
 2387TIP3    H1 7104   6.867   6.416   0.957
 2387TIP3    H2 7105   6.999   6.347   0.927
 2388TIP3   OH2 7106   5.745   3.436   0.974
 2388TIP3    H1 7107   5.805   3.486   0.919
 2388TIP3    H2 7108   5.709   3.501   1.034
 2389TIP3   OH2 7109   7.951   5.565   0.229
 2389TIP3    H1 7110   7.987   5.545   0.142
 2389TIP3    H2 7111   7.996   5.645   0.255
 2390TIP3   OH2 7112   7.852   4.447   2.650
 2390TIP3    H1 7113   7.890   4.479   2.569
 2390TIP3    H2 7114   7.814   4.524   2.692
 2391TIP3   OH2 7115  -0.045   6.008   3.208
 2391TIP3    H1 7116  -0.033   6.103   3.204
 2391TIP3    H2 7117   0.015   5.980   3.277
 2392TIP3   OH2 7118   5.215   5.556   6.128
 2392TIP3    H1 7119   5.129   5.596   6.122
 2392TIP3    H2 7120   5.255   5.570   6.042
 2393TIP3   OH2 7121   6.296   3.715   4.555
 2393TIP3    H1 7122   6.216   3.663   4.552
 2393TIP3    H2 7123   6.294   3.767   4.475
 2394TIP3   OH2 7124   4.883   4.970   0.260
 2394TIP3    H1 7125   4.848   4.916   0.189
 2394TIP3    H2 7126   4.865   5.060   0.233
 2395TIP3   OH2 7127   0.135   5.202   4.243
 2395TIP3    H1 7128   0.159   5.111   4.226
 2395TIP3    H2 7129   0.201   5.233   4.306
 2396TIP3   OH2 7130   6.785   6.466   2.826
 2396TIP3    H1 7131   6.869   6.457   2.871
 2396TIP3    H2 7132   6.798   6.423   2.741
 2397TIP3   OH2 7133   2.705   5.709   2.465
 2397TIP3    H1 7134   2.623   5.741   2.503
 2397TIP3    H2 7135   2.724   5.628   2.513
 2398TIP3   OH2 7136   0.496   5.575   2.322
 2398TIP3    H1 7137   0.429   5.515   2.291
 2398TIP3    H2 7138   0.453   5.660   2.326
 2399TIP3   OH2 7139   6.984   4.159   3.517
 2399TIP3    H1 7140   6.979   4.246   3.556
 2399TIP3    H2 7141   6.964   4.174   3.424
 2400TIP3   OH2 7142   4.353   0.578   6.478
 2400TIP3    H1 7143   4.290   0.637   6.520
 2400TIP3    H2 7144   4.298   0.513   6.433
 2401TIP3   OH2 7145   7.721   6.102   0.905
 2401TIP3    H1 7146   7.636   6.061   0.924
 2401TIP3    H2 7147   7.736   6.162   0.978
 2402TIP3   OH2 7148   2.758   5.290   0.203
 2402TIP3    H1 7149   2.786   5.381   0.194
 2402TIP3    H2 7150   2.674   5.285   0.157
 2403TIP3   OH2 7151   6.519   1.633   4.063
 2403TIP3    H1 7152   6.546   1.556   4.013
 2403TIP3    H2 7153   6.477   1.598   4.141
 2404TIP3   OH2 7154   6.678   4.083   6.665
 2404TIP3    H1 7155   6.673   4.014   6.599
 2404TIP3    H2 7156   6.627   4.048   6.739
 2405TIP3   OH2 7157   7.572   3.571   0.796
 2405TIP3    H1 7158   7.530   3.633   0.736
 2405TIP3    H2 7159   7.527   3.585   0.879
 2406TIP3   OH2 7160   1.043   3.782   2.088
 2406TIP3    H1 7161   1.024   3.876   2.099
 2406TIP3    H2 7162   0.988   3.756   2.013
 2407TIP3   OH2 7163   6.798   3.850   6.493
 2407TIP3    H1 7164   6.849   3.771   6.509
 2407TIP3    H2 7165   6.806   3.866   6.399
 2408TIP3   OH2 7166   4.644   6.370   2.413
 2408TIP3    H1 7167   4.657   6.310   2.340
 2408TIP3    H2 7168   4.614   6.451   2.372
 2409TIP3   OH2 7169   4.833   3.218   0.098
 2409TIP3    H1 7170   4.751   3.237   0.051
 2409TIP3    H2 7171   4.880   3.158   0.041
 2410TIP3   OH2 7172   8.075   5.954   1.257
 2410TIP3    H1 7173   8.116   5.957   1.171
 2410TIP3    H2 7174   8.036   5.867   1.262
 2411TIP3   OH2 7175   6.596   0.380   3.657
 2411TIP3    H1 7176   6.628   0.291   3.641
 2411TIP3    H2 7177   6.630   0.404   3.743
 2412TIP3   OH2 7178   5.944   4.057   5.935
 2412TIP3    H1 7179   6.001   4.039   6.010
 2412TIP3    H2 7180   5.889   4.130   5.964
 2413TIP3   OH2 7181   6.185   4.314   0.492
 2413TIP3    H1 7182   6.107   4.276   0.451
 2413TIP3    H2 7183   6.152   4.390   0.540
 2414TIP3   OH2 7184   3.833   5.532   3.439
 2414TIP3    H1 7185   3.844   5.598   3.507
 2414TIP3    H2 7186   3.908   5.473   3.450
 2415TIP3   OH2 7187   6.091   5.459   1.100
 2415TIP3    H1 7188   6.146   5.438   1.025
 2415TIP3    H2 7189   6.087   5.554   1.101
 2416TIP3   OH2 7190   1.516   4.342   2.837
 2416TIP3    H1 7191   1.473   4.270   2.882
 2416TIP3    H2 7192   1.607   4.314   2.828
 2417TIP3   OH2 7193   2.729   4.743   5.271
 2417TIP3    H1 7194   2.740   4.836   5.292
 2417TIP3    H2 7195   2.683   4.707   5.346
 2418TIP3   OH2 7196   2.479   1.397   0.843
 2418TIP3    H1 7197   2.384   1.407   0.839
 2418TIP3    H2 7198   2.492   1.314   0.889
 2419TIP3   OH2 7199   6.238   0.216   3.000
 2419TIP3    H1 7200   6.230   0.298   3.048
 2419TIP3    H2 7201   6.331   0.193   3.008
 2420TIP3   OH2 7202   6.919   6.640   3.703
 2420TIP3    H1 7203   6.963   6.635   3.788
 2420TIP3    H2 7204   6.830   6.667   3.724
 2421TIP3   OH2 7205   4.897   4.469   2.762
 2421TIP3    H1 7206   4.879   4.376   2.775
 2421TIP3    H2 7207   4.922   4.476   2.669
 2422TIP3   OH2 7208   4.442   6.233   1.037
 2422TIP3    H1 7209   4.494   6.185   0.973
 2422TIP3    H2 7210   4.351   6.207   1.019
 2423TIP3   OH2 7211   5.941   5.060   3.731
 2423TIP3    H1 7212   5.993   5.005   3.790
 2423TIP3    H2 7213   6.006   5.102   3.675
 2424TIP3   OH2 7214   1.151   2.886   2.646
 2424TIP3    H1 7215   1.178   2.797   2.622
 2424TIP3    H2 7216   1.093   2.875   2.721
 2425TIP3   OH2 7217   3.115   4.488   5.425
 2425TIP3    H1 7218   3.209   4.494   5.436
 2425TIP3    H2 7219   3.096   4.394   5.424
 2426TIP3   OH2 7220   7.595   6.103   6.462
 2426TIP3    H1 7221   7.658   6.097   6.534
 2426TIP3    H2 7222   7.564   6.014   6.449
 2427TIP3   OH2 7223   5.181   0.052   2.830
 2427TIP3    H1 7224   5.178  -0.029   2.780
 2427TIP3    H2 7225   5.245   0.036   2.899
 2428TIP3   OH2 7226   3.928   4.954   0.880
 2428TIP3    H1 7227   3.852   4.929   0.933
 2428TIP3    H2 7228   3.994   4.888   0.901
 2429TIP3   OH2 7229   7.086   1.830   1.320
 2429TIP3    H1 7230   6.991   1.821   1.318
 2429TIP3    H2 7231   7.108   1.871   1.236
 2430TIP3   OH2 7232   7.411   2.523   5.102
 2430TIP3    H1 7233   7.375   2.519   5.190
 2430TIP3    H2 7234   7.335   2.540   5.046
 2431TIP3   OH2 7235   6.262   4.882   3.634
 2431TIP3    H1 7236   6.215   4.844   3.707
 2431TIP3    H2 7237   6.196   4.893   3.566
 2432TIP3   OH2 7238   6.732   4.204   6.073
 2432TIP3    H1 7239   6.811   4.181   6.122
 2432TIP3    H2 7240   6.660   4.174   6.129
 2433TIP3   OH2 7241   1.194   5.074   2.668
 2433TIP3    H1 7242   1.187   5.066   2.763
 2433TIP3    H2 7243   1.135   5.146   2.646
 2434TIP3   OH2 7244   2.168   1.775   2.842
 2434TIP3    H1 7245   2.135   1.715   2.775
 2434TIP3    H2 7246   2.239   1.822   2.798
 2435TIP3   OH2 7247   1.096   7.484   0.527
 2435TIP3    H1 7248   1.044   7.406   0.549
 2435TIP3    H2 7249   1.031   7.552   0.509
 2436TIP3   OH2 7250   2.230   6.886   4.139
 2436TIP3    H1 7251   2.140   6.915   4.121
 2436TIP3    H2 7252   2.279   6.914   4.062
 2437TIP3   OH2 7253   7.712   6.863   0.932
 2437TIP3    H1 7254   7.777   6.815   0.984
 2437TIP3    H2 7255   7.720   6.827   0.844
 2438TIP3   OH2 7256   6.771   1.788   5.471
 2438TIP3    H1 7257   6.744   1.868   5.515
 2438TIP3    H2 7258   6.867   1.789   5.474
 2439TIP3   OH2 7259   5.463   1.454   1.063
 2439TIP3    H1 7260   5.496   1.365   1.077
 2439TIP3    H2 7261   5.474   1.498   1.148
 2440TIP3   OH2 7262   0.982   5.311   3.865
 2440TIP3    H1 7263   0.889   5.316   3.842
 2440TIP3    H2 7264   0.984   5.325   3.959
 2441TIP3   OH2 7265   5.525   4.252   2.878
 2441TIP3    H1 7266   5.504   4.163   2.905
 2441TIP3    H2 7267   5.490   4.259   2.790
 2442TIP3   OH2 7268   2.042   0.380   0.818
 2442TIP3    H1 7269   1.973   0.437   0.853
 2442TIP3    H2 7270   2.029   0.383   0.723
 2443TIP3   OH2 7271   6.794   3.740   2.688
 2443TIP3    H1 7272   6.791   3.730   2.783
 2443TIP3    H2 7273   6.887   3.740   2.667
 2444TIP3   OH2 7274   0.650   4.679   0.736
 2444TIP3    H1 7275   0.600   4.742   0.786
 2444TIP3    H2 7276   0.667   4.722   0.652
 2445TIP3   OH2 7277   1.519   2.557   4.321
 2445TIP3    H1 7278   1.449   2.604   4.276
 2445TIP3    H2 7279   1.473   2.500   4.383
 2446TIP3   OH2 7280   5.544   4.629   4.032
 2446TIP3    H1 7281   5.464   4.580   4.011
 2446TIP3    H2 7282   5.514   4.702   4.087
 2447TIP3   OH2 7283   5.226   5.198   3.236
 2447TIP3    H1 7284   5.274   5.243   3.306
 2447TIP3    H2 7285   5.138   5.234   3.240
 2448TIP3   OH2 7286   5.619   6.155   5.986
 2448TIP3    H1 7287   5.686   6.222   6.000
 2448TIP3    H2 7288   5.651   6.078   6.032
 2449TIP3   OH2 7289   7.209   7.698   3.391
 2449TIP3    H1 7290   7.258   7.708   3.309
 2449TIP3    H2 7291   7.182   7.787   3.413
 2450TIP3   OH2 7292   4.226   3.074   4.871
 2450TIP3    H1 7293   4.132   3.081   4.884
 2450TIP3    H2 7294   4.258   3.029   4.949
 2451TIP3   OH2 7295   6.130   3.798   2.387
 2451TIP3    H1 7296   6.224   3.781   2.393
 2451TIP3    H2 7297   6.124   3.888   2.356
 2452TIP3   OH2 7298   4.945   0.893   2.100
 2452TIP3    H1 7299   4.976   0.968   2.049
 2452TIP3    H2 7300   5.017   0.830   2.095
 2453TIP3   OH2 7301   6.870   1.950   0.857
 2453TIP3    H1 7302   6.929   1.981   0.789
 2453TIP3    H2 7303   6.811   1.889   0.812
 2454TIP3   OH2 7304   2.701   2.016   4.716
 2454TIP3    H1 7305   2.723   2.106   4.739
 2454TIP3    H2 7306   2.619   1.998   4.763
 2455TIP3   OH2 7307   1.483   0.156   2.949
 2455TIP3    H1 7308   1.467   0.211   3.025
 2455TIP3    H2 7309   1.474   0.067   2.981
 2456TIP3   OH2 7310   3.464   6.734   0.095
 2456TIP3    H1 7311   3.419   6.662   0.139
 2456TIP3    H2 7312   3.489   6.794   0.165
 2457TIP3   OH2 7313   5.259   5.586   5.842
 2457TIP3    H1 7314   5.185   5.634   5.804
 2457TIP3    H2 7315   5.234   5.494   5.836
 2458TIP3   OH2 7316   2.235   6.796   1.759
 2458TIP3    H1 7317   2.327   6.801   1.787
 2458TIP3    H2 7318   2.193   6.871   1.801
 2459TIP3   OH2 7319   7.339   4.681   4.322
 2459TIP3    H1 7320   7.343   4.626   4.400
 2459TIP3    H2 7321   7.409   4.745   4.336
 2460TIP3   OH2 7322   2.408   6.225   2.163
 2460TIP3    H1 7323   2.329   6.171   2.155
 2460TIP3    H2 7324   2.459   6.202   2.085
 2461TIP3   OH2 7325   2.471   2.511   1.933
 2461TIP3    H1 7326   2.545   2.489   1.876
 2461TIP3    H2 7327   2.511   2.531   2.018
 2462TIP3   OH2 7328   2.868   5.801   0.550
 2462TIP3    H1 7329   2.952   5.762   0.574
 2462TIP3    H2 7330   2.883   5.839   0.463
 2463TIP3   OH2 7331   4.948   5.988   4.134
 2463TIP3    H1 7332   4.865   5.993   4.182
 2463TIP3    H2 7333   4.994   5.913   4.173
 2464TIP3   OH2 7334   6.099   6.274   2.721
 2464TIP3    H1 7335   6.190   6.257   2.748
 2464TIP3    H2 7336   6.047   6.253   2.798
 2465TIP3   OH2 7337   1.562   0.859   4.335
 2465TIP3    H1 7338   1.469   0.833   4.332
 2465TIP3    H2 7339   1.595   0.840   4.247
 2466TIP3   OH2 7340   6.950   5.007   0.322
 2466TIP3    H1 7341   6.922   4.925   0.362
 2466TIP3    H2 7342   6.969   5.065   0.396
 2467TIP3   OH2 7343   1.811   2.064   4.576
 2467TIP3    H1 7344   1.846   2.001   4.640
 2467TIP3    H2 7345   1.803   2.146   4.625
 2468TIP3   OH2 7346   4.022   3.728   3.037
 2468TIP3    H1 7347   4.004   3.638   3.012
 2468TIP3    H2 7348   3.945   3.777   3.008
 2469TIP3   OH2 7349   0.829   1.952   3.137
 2469TIP3    H1 7350   0.787   1.912   3.061
 2469TIP3    H2 7351   0.809   1.893   3.209
 2470TIP3   OH2 7352   1.187   7.406   2.398
 2470TIP3    H1 7353   1.129   7.339   2.435
 2470TIP3    H2 7354   1.165   7.407   2.304
 2471TIP3   OH2 7355   3.946   4.680   0.083
 2471TIP3    H1 7356   3.923   4.676  -0.010
 2471TIP3    H2 7357   3.880   4.627   0.127
 2472TIP3   OH2 7358   0.629   3.407   3.326
 2472TIP3    H1 7359   0.570   3.361   3.386
 2472TIP3    H2 7360   0.653   3.341   3.261
 2473TIP3   OH2 7361   1.816   1.834   4.771
 2473TIP3    H1 7362   1.748   1.890   4.809
 2473TIP3    H2 7363   1.769   1.773   4.715
 2474TIP3   OH2 7364   5.908   7.155   1.557
 2474TIP3    H1 7365   5.876   7.071   1.525
 2474TIP3    H2 7366   5.828   7.203   1.580
 2475TIP3   OH2 7367   1.882   5.262   0.080
 2475TIP3    H1 7368   1.811   5.251   0.143
 2475TIP3    H2 7369   1.959   5.283   0.134
 2476TIP3   OH2 7370   4.254   7.065   2.161
 2476TIP3    H1 7371   4.331   7.025   2.202
 2476TIP3    H2 7372   4.240   7.014   2.081
 2477TIP3   OH2 7373   6.914   0.629   6.561
 2477TIP3    H1 7374   6.960   0.709   6.533
 2477TIP3    H2 7375   6.984   0.570   6.590
 2478TIP3   OH2 7376   0.892   2.605   5.612
 2478TIP3    H1 7377   0.938   2.627   5.693
 2478TIP3    H2 7378   0.954   2.626   5.542
 2479TIP3   OH2 7379   7.449   3.317   4.109
 2479TIP3    H1 7380   7.451   3.283   4.020
 2479TIP3    H2 7381   7.378   3.382   4.108
 2480TIP3   OH2 7382   2.224   1.130   5.480
 2480TIP3    H1 7383   2.253   1.159   5.567
 2480TIP3    H2 7384   2.130   1.147   5.478
 2481TIP3   OH2 7385   6.615   4.074   3.142
 2481TIP3    H1 7386   6.605   4.056   3.236
 2481TIP3    H2 7387   6.525   4.081   3.110
 2482TIP3   OH2 7388   4.231   4.419   4.639
 2482TIP3    H1 7389   4.233   4.323   4.642
 2482TIP3    H2 7390   4.304   4.443   4.582
 2483TIP3   OH2 7391   4.402   4.296   5.839
 2483TIP3    H1 7392   4.444   4.382   5.836
 2483TIP3    H2 7393   4.344   4.295   5.763
 2484TIP3   OH2 7394   6.588   7.620   3.707
 2484TIP3    H1 7395   6.514   7.584   3.756
 2484TIP3    H2 7396   6.548   7.667   3.634
 2485TIP3   OH2 7397   6.239   0.843   4.525
 2485TIP3    H1 7398   6.275   0.757   4.550
 2485TIP3    H2 7399   6.147   0.825   4.507
 2486TIP3   OH2 7400   7.032   7.138   3.270
 2486TIP3    H1 7401   7.097   7.160   3.337
 2486TIP3    H2 7402   7.052   7.196   3.197
 2487TIP3   OH2 7403   0.775   5.111   3.606
 2487TIP3    H1 7404   0.751   5.178   3.670
 2487TIP3    H2 7405   0.863   5.135   3.579
 2488TIP3   OH2 7406   7.683   7.254   4.997
 2488TIP3    H1 7407   7.714   7.197   4.926
 2488TIP3    H2 7408   7.628   7.319   4.955
 2489TIP3   OH2 7409   6.543   4.619   6.233
 2489TIP3    H1 7410   6.637   4.609   6.218
 2489TIP3    H2 7411   6.521   4.548   6.294
 2490TIP3   OH2 7412   5.907   3.683   2.051
 2490TIP3    H1 7413   5.954   3.655   2.129
 2490TIP3    H2 7414   5.922   3.778   2.046
 2491TIP3   OH2 7415   7.980   3.098   5.334
 2491TIP3    H1 7416   7.909   3.056   5.285
 2491TIP3    H2 7417   8.059   3.054   5.303
 2492TIP3   OH2 7418   4.050   4.819   6.157
 2492TIP3    H1 7419   4.134   4.823   6.203
 2492TIP3    H2 7420   4.045   4.901   6.108
 2493TIP3   OH2 7421   5.416   1.916   3.207
 2493TIP3    H1 7422   5.334   1.867   3.208
 2493TIP3    H2 7423   5.433   1.932   3.114
 2494TIP3   OH2 7424   0.320   0.633   0.032
 2494TIP3    H1 7425   0.257   0.580  -0.017
 2494TIP3    H2 7426   0.267   0.698   0.077
 2495TIP3   OH2 7427   7.178   6.560   6.145
 2495TIP3    H1 7428   7.146   6.573   6.056
 2495TIP3    H2 7429   7.270   6.535   6.134
 2496TIP3   OH2 7430   3.064   2.986   4.078
 2496TIP3    H1 7431   3.117   3.064   4.068
 2496TIP3    H2 7432   3.127   2.914   4.081
 2497TIP3   OH2 7433   3.015   5.035   2.678
 2497TIP3    H1 7434   2.946   5.101   2.687
 2497TIP3    H2 7435   3.096   5.080   2.701
 2498TIP3   OH2 7436   1.722   2.948   3.963
 2498TIP3    H1 7437   1.654   2.949   4.031
 2498TIP3    H2 7438   1.673   2.937   3.881
 2499TIP3   OH2 7439   5.434   0.932   2.654
 2499TIP3    H1 7440   5.354   0.888   2.683
 2499TIP3    H2 7441   5.505   0.877   2.689
 2500TIP3   OH2 7442   4.818   5.204   4.170
 2500TIP3    H1 7443   4.803   5.297   4.185
 2500TIP3    H2 7444   4.902   5.186   4.213
 2501TIP3   OH2 7445   0.708   4.349   2.311
 2501TIP3    H1 7446   0.771   4.279   2.330
 2501TIP3    H2 7447   0.707   4.402   2.391
 2502TIP3   OH2 7448   6.473   3.466   2.801
 2502TIP3    H1 7449   6.422   3.387   2.781
 2502TIP3    H2 7450   6.564   3.437   2.803
 2503TIP3   OH2 7451   5.960   0.256   0.211
 2503TIP3    H1 7452   5.864   0.249   0.218
 2503TIP3    H2 7453   5.989   0.278   0.300
 2504TIP3   OH2 7454   1.868   6.958   1.621
 2504TIP3    H1 7455   1.871   6.877   1.673
 2504TIP3    H2 7456   1.942   6.950   1.560
 2505TIP3   OH2 7457   5.255   3.555   2.461
 2505TIP3    H1 7458   5.350   3.567   2.468
 2505TIP3    H2 7459   5.242   3.461   2.476
 2506TIP3   OH2 7460   2.461   0.057   4.681
 2506TIP3    H1 7461   2.537   0.035   4.735
 2506TIP3    H2 7462   2.415   0.124   4.732
 2507TIP3   OH2 7463   0.681   1.858   2.344
 2507TIP3    H1 7464   0.650   1.787   2.400
 2507TIP3    H2 7465   0.770   1.832   2.320
 2508TIP3   OH2 7466   8.182   0.998   0.333
 2508TIP3    H1 7467   8.268   1.025   0.304
 2508TIP3    H2 7468   8.125   1.072   0.312
 2509TIP3   OH2 7469   3.130   1.273   2.471
 2509TIP3    H1 7470   3.098   1.262   2.382
 2509TIP3    H2 7471   3.121   1.187   2.511
 2510TIP3   OH2 7472   6.983   6.965   5.464
 2510TIP3    H1 7473   7.008   6.976   5.556
 2510TIP3    H2 7474   7.047   6.902   5.430
 2511TIP3   OH2 7475   2.828   2.078   0.007
 2511TIP3    H1 7476   2.825   2.155   0.064
 2511TIP3    H2 7477   2.922   2.061  -0.004
 2512TIP3   OH2 7478   6.001   5.678   1.645
 2512TIP3    H1 7479   5.944   5.709   1.716
 2512TIP3    H2 7480   6.086   5.718   1.663
 2513TIP3   OH2 7481   1.294   4.205   2.161
 2513TIP3    H1 7482   1.348   4.192   2.084
 2513TIP3    H2 7483   1.204   4.211   2.127
 2514TIP3   OH2 7484   1.571   0.175   4.688
 2514TIP3    H1 7485   1.506   0.144   4.625
 2514TIP3    H2 7486   1.550   0.268   4.700
 2515TIP3   OH2 7487   0.162   5.816   1.201
 2515TIP3    H1 7488   0.134   5.874   1.272
 2515TIP3    H2 7489   0.251   5.844   1.180
 2516TIP3   OH2 7490   4.173   1.806   1.173
 2516TIP3    H1 7491   4.212   1.853   1.247
 2516TIP3    H2 7492   4.118   1.871   1.129
 2517TIP3   OH2 7493   0.772   1.262   3.527
 2517TIP3    H1 7494   0.760   1.178   3.483
 2517TIP3    H2 7495   0.707   1.319   3.487
 2518TIP3   OH2 7496   0.826   3.155   0.993
 2518TIP3    H1 7497   0.858   3.245   1.000
 2518TIP3    H2 7498   0.864   3.110   1.068
 2519TIP3   OH2 7499   6.869   3.983   5.353
 2519TIP3    H1 7500   6.859   4.065   5.401
 2519TIP3    H2 7501   6.877   3.916   5.421
 2520TIP3   OH2 7502   4.669   1.717   5.262
 2520TIP3    H1 7503   4.697   1.697   5.351
 2520TIP3    H2 7504   4.579   1.684   5.257
 2521TIP3   OH2 7505   7.910   3.434   0.329
 2521TIP3    H1 7506   7.859   3.503   0.287
 2521TIP3    H2 7507   7.858   3.355   0.317
 2522TIP3   OH2 7508   2.204   7.290   2.807
 2522TIP3    H1 7509   2.293   7.321   2.818
 2522TIP3    H2 7510   2.212   7.213   2.751
 2523TIP3   OH2 7511   6.596   3.274   2.373
 2523TIP3    H1 7512   6.596   3.206   2.440
 2523TIP3    H2 7513   6.629   3.352   2.418
 2524TIP3   OH2 7514   0.807   0.109   6.166
 2524TIP3    H1 7515   0.767   0.196   6.168
 2524TIP3    H2 7516   0.789   0.072   6.253
 2525TIP3   OH2 7517   1.919   1.352   3.947
 2525TIP3    H1 7518   1.875   1.431   3.915
 2525TIP3    H2 7519   2.006   1.355   3.906
 2526TIP3   OH2 7520   7.533   6.504   1.076
 2526TIP3    H1 7521   7.572   6.539   0.996
 2526TIP3    H2 7522   7.440   6.526   1.069
 2527TIP3   OH2 7523   6.248   1.576   4.840
 2527TIP3    H1 7524   6.324   1.628   4.865
 2527TIP3    H2 7525   6.234   1.597   4.747
 2528TIP3   OH2 7526   6.104   4.515   0.974
 2528TIP3    H1 7527   6.088   4.455   1.047
 2528TIP3    H2 7528   6.025   4.569   0.970
 2529TIP3   OH2 7529   3.779   0.682   2.805
 2529TIP3    H1 7530   3.790   0.605   2.860
 2529TIP3    H2 7531   3.793   0.650   2.715
 2530TIP3   OH2 7532   7.471   0.908   4.003
 2530TIP3    H1 7533   7.523   0.983   4.032
 2530TIP3    H2 7534   7.508   0.833   4.049
 2531TIP3   OH2 7535   0.840   4.266   5.394
 2531TIP3    H1 7536   0.752   4.233   5.413
 2531TIP3    H2 7537   0.829   4.317   5.313
 2532TIP3   OH2 7538   2.243   0.808   4.077
 2532TIP3    H1 7539   2.234   0.887   4.130
 2532TIP3    H2 7540   2.179   0.747   4.114
 2533TIP3   OH2 7541   1.815   1.297   3.069
 2533TIP3    H1 7542   1.823   1.372   3.010
 2533TIP3    H2 7543   1.860   1.324   3.149
 2534TIP3   OH2 7544   7.445   4.475   0.725
 2534TIP3    H1 7545   7.419   4.383   0.719
 2534TIP3    H2 7546   7.425   4.511   0.639
 2535TIP3   OH2 7547   7.459   5.140   0.762
 2535TIP3    H1 7548   7.394   5.194   0.808
 2535TIP3    H2 7549   7.504   5.201   0.704
 2536TIP3   OH2 7550   7.667   2.305   0.201
 2536TIP3    H1 7551   7.632   2.217   0.191
 2536TIP3    H2 7552   7.591   2.360   0.218
 2537TIP3   OH2 7553   4.980   5.093   0.984
 2537TIP3    H1 7554   4.904   5.148   1.004
 2537TIP3    H2 7555   5.054   5.141   1.021
 2538TIP3   OH2 7556   5.803   5.391   2.090
 2538TIP3    H1 7557   5.876   5.423   2.037
 2538TIP3    H2 7558   5.725   5.416   2.041
 2539TIP3   OH2 7559   3.441   6.072   5.556
 2539TIP3    H1 7560   3.494   5.999   5.522
 2539TIP3    H2 7561   3.408   6.116   5.478
 2540TIP3   OH2 7562   2.385   3.032   5.349
 2540TIP3    H1 7563   2.452   3.004   5.286
 2540TIP3    H2 7564   2.434   3.083   5.415
 2541TIP3   OH2 7565   0.927   1.518   3.822
 2541TIP3    H1 7566   0.893   1.431   3.844
 2541TIP3    H2 7567   0.880   1.542   3.742
 2542TIP3   OH2 7568   6.609   0.915   1.295
 2542TIP3    H1 7569   6.515   0.906   1.280
 2542TIP3    H2 7570   6.643   0.826   1.283
 2543TIP3   OH2 7571   3.009   5.556   1.559
 2543TIP3    H1 7572   3.017   5.567   1.654
 2543TIP3    H2 7573   3.087   5.596   1.523
 2544TIP3   OH2 7574   6.287   6.987   1.472
 2544TIP3    H1 7575   6.293   6.895   1.496
 2544TIP3    H2 7576   6.242   7.029   1.546
 2545TIP3   OH2 7577   0.816   5.379   1.823
 2545TIP3    H1 7578   0.863   5.420   1.750
 2545TIP3    H2 7579   0.884   5.359   1.887
 2546TIP3   OH2 7580   0.531   4.710   2.492
 2546TIP3    H1 7581   0.602   4.774   2.499
 2546TIP3    H2 7582   0.527   4.669   2.579
 2547TIP3   OH2 7583   3.616   6.066   1.982
 2547TIP3    H1 7584   3.551   6.051   1.914
 2547TIP3    H2 7585   3.690   6.010   1.957
 2548TIP3   OH2 7586   7.824   3.349   4.005
 2548TIP3    H1 7587   7.822   3.438   4.042
 2548TIP3    H2 7588   7.829   3.292   4.081
 2549TIP3   OH2 7589   5.526   6.991   3.895
 2549TIP3    H1 7590   5.492   6.910   3.933
 2549TIP3    H2 7591   5.473   7.004   3.816
 2550TIP3   OH2 7592   6.845   7.365   0.853
 2550TIP3    H1 7593   6.803   7.279   0.847
 2550TIP3    H2 7594   6.786   7.424   0.806
 2551TIP3   OH2 7595   7.158   6.313   4.315
 2551TIP3    H1 7596   7.093   6.253   4.278
 2551TIP3    H2 7597   7.229   6.314   4.250
 2552TIP3   OH2 7598   0.613   1.138   0.628
 2552TIP3    H1 7599   0.708   1.123   0.621
 2552TIP3    H2 7600   0.573   1.065   0.581
 2553TIP3   OH2 7601   5.287   4.432   5.854
 2553TIP3    H1 7602   5.205   4.412   5.899
 2553TIP3    H2 7603   5.263   4.500   5.791
 2554TIP3   OH2 7604   5.584   3.898   5.555
 2554TIP3    H1 7605   5.603   3.819   5.504
 2554TIP3    H2 7606   5.662   3.951   5.546
 2555TIP3   OH2 7607   5.850   2.117   5.421
 2555TIP3    H1 7608   5.905   2.096   5.346
 2555TIP3    H2 7609   5.791   2.185   5.389
 2556TIP3   OH2 7610   6.124   1.891   3.453
 2556TIP3    H1 7611   6.181   1.967   3.465
 2556TIP3    H2 7612   6.042   1.926   3.421
 2557TIP3   OH2 7613   6.518   3.896   6.397
 2557TIP3    H1 7614   6.483   3.837   6.330
 2557TIP3    H2 7615   6.588   3.845   6.438
 2558TIP3   OH2 7616   7.404   1.929   5.960
 2558TIP3    H1 7617   7.435   1.866   5.895
 2558TIP3    H2 7618   7.386   1.876   6.038
 2559TIP3   OH2 7619   0.278   1.568   4.123
 2559TIP3    H1 7620   0.347   1.523   4.172
 2559TIP3    H2 7621   0.274   1.656   4.162
 2560TIP3   OH2 7622   2.922   4.557   5.243
 2560TIP3    H1 7623   2.993   4.558   5.307
 2560TIP3    H2 7624   2.860   4.622   5.275
 2561TIP3   OH2 7625   5.182   7.493   4.864
 2561TIP3    H1 7626   5.274   7.519   4.868
 2561TIP3    H2 7627   5.148   7.533   4.784
 2562TIP3   OH2 7628   0.627   1.260   5.609
 2562TIP3    H1 7629   0.605   1.353   5.605
 2562TIP3    H2 7630   0.620   1.229   5.519
 2563TIP3   OH2 7631   7.312   7.617   2.805
 2563TIP3    H1 7632   7.285   7.547   2.864
 2563TIP3    H2 7633   7.231   7.645   2.763
 2564TIP3   OH2 7634   8.277   3.272   5.216
 2564TIP3    H1 7635   8.249   3.347   5.164
 2564TIP3    H2 7636   8.244   3.290   5.304
 2565TIP3   OH2 7637   4.914   4.472   0.417
 2565TIP3    H1 7638   4.911   4.555   0.369
 2565TIP3    H2 7639   4.973   4.417   0.365
 2566TIP3   OH2 7640   4.737   5.808   4.983
 2566TIP3    H1 7641   4.741   5.715   4.959
 2566TIP3    H2 7642   4.798   5.816   5.057
 2567TIP3   OH2 7643   3.310   2.977   4.250
 2567TIP3    H1 7644   3.384   2.948   4.303
 2567TIP3    H2 7645   3.233   2.954   4.301
 2568TIP3   OH2 7646   6.543   7.653   5.426
 2568TIP3    H1 7647   6.497   7.737   5.424
 2568TIP3    H2 7648   6.497   7.599   5.361
 2569TIP3   OH2 7649   6.124   2.437   1.377
 2569TIP3    H1 7650   6.120   2.529   1.403
 2569TIP3    H2 7651   6.201   2.431   1.321
 2570TIP3   OH2 7652   4.916   3.872   3.551
 2570TIP3    H1 7653   4.972   3.868   3.474
 2570TIP3    H2 7654   4.851   3.939   3.531
 2571TIP3   OH2 7655   6.987   5.582   1.416
 2571TIP3    H1 7656   7.007   5.622   1.501
 2571TIP3    H2 7657   7.028   5.495   1.421
 2572TIP3   OH2 7658   4.074   5.266   6.555
 2572TIP3    H1 7659   4.144   5.202   6.562
 2572TIP3    H2 7660   4.017   5.231   6.486
 2573TIP3   OH2 7661   7.033   7.258   5.621
 2573TIP3    H1 7662   7.120   7.291   5.598
 2573TIP3    H2 7663   7.045   7.164   5.631
 2574TIP3   OH2 7664   4.912   1.494   2.480
 2574TIP3    H1 7665   4.988   1.493   2.538
 2574TIP3    H2 7666   4.883   1.585   2.481
 2575TIP3   OH2 7667   0.261   5.956   6.008
 2575TIP3    H1 7668   0.334   5.914   5.962
 2575TIP3    H2 7669   0.298   5.982   6.092
 2576TIP3   OH2 7670   3.450   7.216   3.749
 2576TIP3    H1 7671   3.428   7.208   3.842
 2576TIP3    H2 7672   3.456   7.125   3.718
 2577TIP3   OH2 7673   0.638   7.792   3.942
 2577TIP3    H1 7674   0.635   7.789   3.847
 2577TIP3    H2 7675   0.676   7.878   3.962
 2578TIP3   OH2 7676   4.409   0.681   3.508
 2578TIP3    H1 7677   4.496   0.648   3.527
 2578TIP3    H2 7678   4.415   0.775   3.524
 2579TIP3   OH2 7679   1.761   3.475   3.790
 2579TIP3    H1 7680   1.770   3.446   3.699
 2579TIP3    H2 7681   1.693   3.542   3.787
 2580TIP3   OH2 7682   2.311   3.911   0.516
 2580TIP3    H1 7683   2.259   3.831   0.502
 2580TIP3    H2 7684   2.372   3.913   0.442
 2581TIP3   OH2 7685   5.148   5.948   0.398
 2581TIP3    H1 7686   5.153   5.951   0.493
 2581TIP3    H2 7687   5.055   5.961   0.378
 2582TIP3   OH2 7688   1.566   6.212   6.194
 2582TIP3    H1 7689   1.661   6.217   6.200
 2582TIP3    H2 7690   1.550   6.184   6.104
 2583TIP3   OH2 7691   5.484   1.473   6.514
 2583TIP3    H1 7692   5.468   1.383   6.485
 2583TIP3    H2 7693   5.579   1.477   6.527
 2584TIP3   OH2 7694   5.416   1.333   2.808
 2584TIP3    H1 7695   5.478   1.261   2.800
 2584TIP3    H2 7696   5.470   1.411   2.816
 2585TIP3   OH2 7697   8.230   2.775   3.716
 2585TIP3    H1 7698   8.213   2.846   3.777
 2585TIP3    H2 7699   8.232   2.817   3.630
 2586TIP3   OH2 7700   2.942   2.910   3.220
 2586TIP3    H1 7701   2.987   2.919   3.136
 2586TIP3    H2 7702   3.003   2.861   3.274
 2587TIP3   OH2 7703   6.346   0.487   6.611
 2587TIP3    H1 7704   6.341   0.408   6.557
 2587TIP3    H2 7705   6.433   0.523   6.592
 2588TIP3   OH2 7706   2.778   0.402   6.190
 2588TIP3    H1 7707   2.873   0.414   6.198
 2588TIP3    H2 7708   2.741   0.484   6.225
 2589TIP3   OH2 7709   4.199   6.939   5.836
 2589TIP3    H1 7710   4.248   6.861   5.861
 2589TIP3    H2 7711   4.129   6.946   5.901
 2590TIP3   OH2 7712   6.053   5.413   3.340
 2590TIP3    H1 7713   5.991   5.384   3.273
 2590TIP3    H2 7714   6.122   5.347   3.339
 2591TIP3   OH2 7715   4.321   1.823   6.704
 2591TIP3    H1 7716   4.355   1.764   6.771
 2591TIP3    H2 7717   4.343   1.781   6.621
 2592TIP3   OH2 7718   6.550   4.207   4.324
 2592TIP3    H1 7719   6.608   4.130   4.329
 2592TIP3    H2 7720   6.589   4.270   4.384
 2593TIP3   OH2 7721   8.090   2.260   4.977
 2593TIP3    H1 7722   8.132   2.310   5.047
 2593TIP3    H2 7723   8.134   2.289   4.897
 2594TIP3   OH2 7724   5.578   5.631   4.014
 2594TIP3    H1 7725   5.639   5.569   4.054
 2594TIP3    H2 7726   5.604   5.634   3.922
 2595TIP3   OH2 7727   7.088   6.997   1.366
 2595TIP3    H1 7728   7.048   7.002   1.279
 2595TIP3    H2 7729   7.045   7.066   1.416
 2596TIP3   OH2 7730   7.785   5.877   4.255
 2596TIP3    H1 7731   7.691   5.864   4.241
 2596TIP3    H2 7732   7.818   5.789   4.276
 2597TIP3   OH2 7733   5.300   0.278   2.668
 2597TIP3    H1 7734   5.250   0.219   2.724
 2597TIP3    H2 7735   5.296   0.238   2.581
 2598TIP3   OH2 7736   3.113   5.735   0.141
 2598TIP3    H1 7737   3.053   5.809   0.157
 2598TIP3    H2 7738   3.082   5.666   0.200
 2599TIP3   OH2 7739   4.297   5.953   0.502
 2599TIP3    H1 7740   4.294   5.953   0.407
 2599TIP3    H2 7741   4.238   5.883   0.529
 2600TIP3   OH2 7742   7.496   2.235   1.764
 2600TIP3    H1 7743   7.452   2.188   1.694
 2600TIP3    H2 7744   7.481   2.182   1.843
 2601TIP3   OH2 7745   2.132   4.259   4.646
 2601TIP3    H1 7746   2.131   4.316   4.723
 2601TIP3    H2 7747   2.212   4.208   4.656
 2602TIP3   OH2 7748   1.740   3.391   5.184
 2602TIP3    H1 7749   1.791   3.464   5.149
 2602TIP3    H2 7750   1.683   3.430   5.250
 2603TIP3   OH2 7751   2.627   0.496   5.301
 2603TIP3    H1 7752   2.711   0.528   5.333
 2603TIP3    H2 7753   2.635   0.400   5.304
 2604TIP3   OH2 7754   1.655   6.013   4.893
 2604TIP3    H1 7755   1.668   5.946   4.827
 2604TIP3    H2 7756   1.591   5.975   4.954
 2605TIP3   OH2 7757   2.789   0.728   4.190
 2605TIP3    H1 7758   2.729   0.799   4.166
 2605TIP3    H2 7759   2.733   0.661   4.228
 2606TIP3   OH2 7760   6.256   7.298   5.930
 2606TIP3    H1 7761   6.195   7.368   5.909
 2606TIP3    H2 7762   6.285   7.318   6.019
 2607TIP3   OH2 7763   5.498   3.040   0.280
 2607TIP3    H1 7764   5.509   3.030   0.374
 2607TIP3    H2 7765   5.514   3.133   0.263
 2608TIP3   OH2 7766   5.405   4.955   2.086
 2608TIP3    H1 7767   5.455   4.874   2.100
 2608TIP3    H2 7768   5.314   4.926   2.082
 2609TIP3   OH2 7769   3.317   5.699   1.728
 2609TIP3    H1 7770   3.247   5.754   1.693
 2609TIP3    H2 7771   3.392   5.758   1.734
 2610TIP3   OH2 7772   6.449   5.234   3.602
 2610TIP3    H1 7773   6.482   5.296   3.537
 2610TIP3    H2 7774   6.495   5.152   3.583
 2611TIP3   OH2 7775   7.722   0.252   6.238
 2611TIP3    H1 7776   7.818   0.259   6.230
 2611TIP3    H2 7777   7.708   0.219   6.326
 2612TIP3   OH2 7778   2.590   1.670   3.830
 2612TIP3    H1 7779   2.509   1.680   3.780
 2612TIP3    H2 7780   2.564   1.626   3.911
 2613TIP3   OH2 7781   0.725   4.836   3.278
 2613TIP3    H1 7782   0.658   4.797   3.335
 2613TIP3    H2 7783   0.679   4.907   3.233
 2614TIP3   OH2 7784   6.833   3.556   6.154
 2614TIP3    H1 7785   6.847   3.477   6.205
 2614TIP3    H2 7786   6.920   3.577   6.118
 2615TIP3   OH2 7787   4.302   0.916   2.842
 2615TIP3    H1 7788   4.367   0.978   2.808
 2615TIP3    H2 7789   4.311   0.839   2.785
 2616TIP3   OH2 7790   5.673   4.522   4.693
 2616TIP3    H1 7791   5.596   4.579   4.699
 2616TIP3    H2 7792   5.740   4.568   4.744
 2617TIP3   OH2 7793   3.561   5.884   2.484
 2617TIP3    H1 7794   3.497   5.839   2.428
 2617TIP3    H2 7795   3.581   5.964   2.436
 2618TIP3   OH2 7796   5.273   1.200   0.118
 2618TIP3    H1 7797   5.317   1.270   0.070
 2618TIP3    H2 7798   5.219   1.156   0.053
 2619TIP3   OH2 7799   3.222   2.193   3.898
 2619TIP3    H1 7800   3.151   2.229   3.845
 2619TIP3    H2 7801   3.185   2.113   3.935
 2620TIP3   OH2 7802   7.271   4.061   4.946
 2620TIP3    H1 7803   7.298   4.132   5.006
 2620TIP3    H2 7804   7.209   4.009   4.997
 2621TIP3   OH2 7805   3.086   1.237   3.186
 2621TIP3    H1 7806   2.996   1.244   3.155
 2621TIP3    H2 7807   3.079   1.185   3.266
 2622TIP3   OH2 7808   6.628   3.930   5.200
 2622TIP3    H1 7809   6.592   3.852   5.243
 2622TIP3    H2 7810   6.698   3.959   5.258
 2623TIP3   OH2 7811   3.930   6.241   3.287
 2623TIP3    H1 7812   3.858   6.234   3.350
 2623TIP3    H2 7813   3.951   6.150   3.265
 2624TIP3   OH2 7814   4.109   2.786   0.491
 2624TIP3    H1 7815   4.127   2.757   0.402
 2624TIP3    H2 7816   4.195   2.806   0.528
 2625TIP3   OH2 7817   4.410   6.645   1.838
 2625TIP3    H1 7818   4.480   6.711   1.838
 2625TIP3    H2 7819   4.353   6.671   1.910
 2626TIP3   OH2 7820   4.830   3.447   5.981
 2626TIP3    H1 7821   4.850   3.540   5.976
 2626TIP3    H2 7822   4.915   3.404   5.993
 2627TIP3   OH2 7823   7.111   6.481   2.066
 2627TIP3    H1 7824   7.170   6.478   1.991
 2627TIP3    H2 7825   7.136   6.560   2.114
 2628TIP3   OH2 7826   5.323   2.658   2.554
 2628TIP3    H1 7827   5.256   2.725   2.539
 2628TIP3    H2 7828   5.361   2.642   2.468
 2629TIP3   OH2 7829   0.202   2.303   6.588
 2629TIP3    H1 7830   0.268   2.286   6.520
 2629TIP3    H2 7831   0.235   2.380   6.634
 2630TIP3   OH2 7832   0.077   1.026   3.758
 2630TIP3    H1 7833   0.013   0.955   3.748
 2630TIP3    H2 7834   0.048   1.074   3.836
 2631TIP3   OH2 7835   2.373   7.188   2.250
 2631TIP3    H1 7836   2.315   7.219   2.181
 2631TIP3    H2 7837   2.339   7.101   2.273
 2632TIP3   OH2 7838   4.337   0.573   5.554
 2632TIP3    H1 7839   4.321   0.590   5.461
 2632TIP3    H2 7840   4.305   0.652   5.598
 2633TIP3   OH2 7841   2.518   1.190   1.754
 2633TIP3    H1 7842   2.526   1.096   1.768
 2633TIP3    H2 7843   2.423   1.205   1.746
 2634TIP3   OH2 7844   7.551   0.090   5.776
 2634TIP3    H1 7845   7.533   0.087   5.682
 2634TIP3    H2 7846   7.465   0.107   5.816
 2635TIP3   OH2 7847   2.914   7.239   0.217
 2635TIP3    H1 7848   2.841   7.205   0.166
 2635TIP3    H2 7849   2.970   7.283   0.153
 2636TIP3   OH2 7850   0.683   7.748   3.140
 2636TIP3    H1 7851   0.739   7.698   3.081
 2636TIP3    H2 7852   0.717   7.729   3.227
 2637TIP3   OH2 7853   7.907   4.256   6.694
 2637TIP3    H1 7854   7.904   4.168   6.656
 2637TIP3    H2 7855   7.815   4.278   6.710
 2638TIP3   OH2 7856   5.442   1.050   0.549
 2638TIP3    H1 7857   5.496   1.097   0.486
 2638TIP3    H2 7858   5.362   1.102   0.554
 2639TIP3   OH2 7859   7.265   1.940   6.788
 2639TIP3    H1 7860   7.235   1.850   6.783
 2639TIP3    H2 7861   7.237   1.980   6.705
 2640TIP3   OH2 7862   1.063   3.392   1.486
 2640TIP3    H1 7863   1.118   3.334   1.540
 2640TIP3    H2 7864   1.125   3.435   1.427
 2641TIP3   OH2 7865   3.999   5.952   5.388
 2641TIP3    H1 7866   3.919   5.901   5.405
 2641TIP3    H2 7867   4.012   5.943   5.293
 2642TIP3   OH2 7868   7.563   3.437   1.152
 2642TIP3    H1 7869   7.507   3.483   1.090
 2642TIP3    H2 7870   7.545   3.478   1.237
 2643TIP3   OH2 7871   3.947   7.775   2.771
 2643TIP3    H1 7872   3.876   7.776   2.836
 2643TIP3    H2 7873   3.951   7.684   2.743
 2644TIP3   OH2 7874   7.785   0.365   2.640
 2644TIP3    H1 7875   7.865   0.367   2.693
 2644TIP3    H2 7876   7.724   0.313   2.692
 2645TIP3   OH2 7877   6.837   6.055   0.934
 2645TIP3    H1 7878   6.762   6.115   0.927
 2645TIP3    H2 7879   6.907   6.109   0.969
 2646TIP3   OH2 7880   3.514   1.548   4.219
 2646TIP3    H1 7881   3.465   1.589   4.148
 2646TIP3    H2 7882   3.452   1.542   4.291
 2647TIP3   OH2 7883   0.467   7.764   4.770
 2647TIP3    H1 7884   0.405   7.727   4.707
 2647TIP3    H2 7885   0.535   7.804   4.715
 2648TIP3   OH2 7886   6.982   7.745   5.967
 2648TIP3    H1 7887   6.979   7.685   5.893
 2648TIP3    H2 7888   6.894   7.741   6.005
 2649TIP3   OH2 7889   1.097   5.461   4.805
 2649TIP3    H1 7890   1.040   5.512   4.863
 2649TIP3    H2 7891   1.169   5.520   4.784
 2650TIP3   OH2 7892   0.155   4.941   0.231
 2650TIP3    H1 7893   0.109   4.875   0.179
 2650TIP3    H2 7894   0.165   4.901   0.317
 2651TIP3   OH2 7895   7.231   5.547   2.269
 2651TIP3    H1 7896   7.177   5.487   2.320
 2651TIP3    H2 7897   7.200   5.634   2.293
 2652TIP3   OH2 7898   2.009   1.578   4.532
 2652TIP3    H1 7899   1.996   1.505   4.592
 2652TIP3    H2 7900   1.923   1.619   4.525
 2653TIP3   OH2 7901   6.278   3.237   2.766
 2653TIP3    H1 7902   6.293   3.144   2.750
 2653TIP3    H2 7903   6.242   3.241   2.855
 2654TIP3   OH2 7904   0.503   0.427   5.774
 2654TIP3    H1 7905   0.502   0.483   5.696
 2654TIP3    H2 7906   0.420   0.447   5.818
 2655TIP3   OH2 7907   0.561   6.616   1.150
 2655TIP3    H1 7908   0.559   6.678   1.222
 2655TIP3    H2 7909   0.640   6.638   1.100
 2656TIP3   OH2 7910   0.852   0.497   2.239
 2656TIP3    H1 7911   0.942   0.475   2.213
 2656TIP3    H2 7912   0.803   0.416   2.223
 2657TIP3   OH2 7913   4.063   1.790   4.678
 2657TIP3    H1 7914   4.156   1.808   4.688
 2657TIP3    H2 7915   4.049   1.784   4.584
 2658TIP3   OH2 7916   8.203   1.571   1.358
 2658TIP3    H1 7917   8.287   1.560   1.403
 2658TIP3    H2 7918   8.224   1.620   1.279
 2659TIP3   OH2 7919   7.478   7.464   0.404
 2659TIP3    H1 7920   7.387   7.492   0.395
 2659TIP3    H2 7921   7.473   7.376   0.441
 2660TIP3   OH2 7922   1.229   7.682   5.446
 2660TIP3    H1 7923   1.159   7.728   5.493
 2660TIP3    H2 7924   1.184   7.619   5.390
 2661TIP3   OH2 7925   7.874   3.467   2.777
 2661TIP3    H1 7926   7.958   3.422   2.767
 2661TIP3    H2 7927   7.867   3.522   2.699
 2662TIP3   OH2 7928   5.540   7.785   0.927
 2662TIP3    H1 7929   5.553   7.713   0.989
 2662TIP3    H2 7930   5.446   7.789   0.914
 2663TIP3   OH2 7931   0.047   4.477   4.364
 2663TIP3    H1 7932   0.054   4.399   4.419
 2663TIP3    H2 7933  -0.029   4.524   4.400
 2664TIP3   OH2 7934   8.005   0.097   3.405
 2664TIP3    H1 7935   7.939   0.028   3.402
 2664TIP3    H2 7936   7.976   0.155   3.476
 2665TIP3   OH2 7937   1.523   5.766   0.892
 2665TIP3    H1 7938   1.483   5.750   0.807
 2665TIP3    H2 7939   1.463   5.727   0.955
 2666TIP3   OH2 7940   8.105   1.329   4.774
 2666TIP3    H1 7941   8.135   1.383   4.701
 2666TIP3    H2 7942   8.174   1.264   4.786
 2667TIP3   OH2 7943   4.795   1.737   2.259
 2667TIP3    H1 7944   4.717   1.695   2.296
 2667TIP3    H2 7945   4.857   1.741   2.331
 2668TIP3   OH2 7946   0.186   0.838   0.138
 2668TIP3    H1 7947   0.100   0.802   0.161
 2668TIP3    H2 7948   0.167   0.906   0.074
 2669TIP3   OH2 7949   5.481   3.062   5.870
 2669TIP3    H1 7950   5.531   3.139   5.897
 2669TIP3    H2 7951   5.433   3.090   5.792
 2670TIP3   OH2 7952   5.697  -0.016   6.238
 2670TIP3    H1 7953   5.791  -0.030   6.242
 2670TIP3    H2 7954   5.660  -0.102   6.218
 2671TIP3   OH2 7955   5.138   0.424   0.502
 2671TIP3    H1 7956   5.167   0.357   0.565
 2671TIP3    H2 7957   5.195   0.413   0.427
 2672TIP3   OH2 7958   2.831   7.006   4.221
 2672TIP3    H1 7959   2.899   6.939   4.229
 2672TIP3    H2 7960   2.770   6.985   4.292
 2673TIP3   OH2 7961   1.611   0.752   0.580
 2673TIP3    H1 7962   1.578   0.697   0.508
 2673TIP3    H2 7963   1.531   0.783   0.624
 2674TIP3   OH2 7964   2.254   3.097   2.389
 2674TIP3    H1 7965   2.194   3.072   2.458
 2674TIP3    H2 7966   2.321   3.029   2.388
 2675TIP3   OH2 7967   3.991   4.436   5.579
 2675TIP3    H1 7968   3.959   4.485   5.654
 2675TIP3    H2 7969   3.964   4.488   5.503
 2676TIP3   OH2 7970   0.691   2.380   5.010
 2676TIP3    H1 7971   0.702   2.393   5.105
 2676TIP3    H2 7972   0.673   2.468   4.977
 2677TIP3   OH2 7973   5.798   5.725   0.857
 2677TIP3    H1 7974   5.733   5.756   0.919
 2677TIP3    H2 7975   5.788   5.783   0.781
 2678TIP3   OH2 7976   4.300   1.620   3.580
 2678TIP3    H1 7977   4.354   1.542   3.592
 2678TIP3    H2 7978   4.336   1.684   3.642
 2679TIP3   OH2 7979   4.628   5.392   2.615
 2679TIP3    H1 7980   4.535   5.376   2.632
 2679TIP3    H2 7981   4.671   5.310   2.640
 2680TIP3   OH2 7982   0.755   5.031   0.071
 2680TIP3    H1 7983   0.800   4.964   0.122
 2680TIP3    H2 7984   0.737   4.990  -0.013
 2681TIP3   OH2 7985   0.959   6.911   4.335
 2681TIP3    H1 7986   0.912   6.932   4.254
 2681TIP3    H2 7987   1.021   6.843   4.309
 2682TIP3   OH2 7988   4.034   1.988   3.690
 2682TIP3    H1 7989   4.046   2.082   3.673
 2682TIP3    H2 7990   3.959   1.983   3.748
 2683TIP3   OH2 7991   1.524   5.692   3.920
 2683TIP3    H1 7992   1.543   5.784   3.937
 2683TIP3    H2 7993   1.592   5.644   3.968
 2684TIP3   OH2 7994   2.622   3.188   6.351
 2684TIP3    H1 7995   2.583   3.258   6.299
 2684TIP3    H2 7996   2.715   3.212   6.359
 2685TIP3   OH2 7997   5.307   4.122   2.033
 2685TIP3    H1 7998   5.240   4.088   1.974
 2685TIP3    H2 7999   5.264   4.125   2.118
 2686TIP3   OH2 8000   4.777   2.734   2.250
 2686TIP3    H1 8001   4.868   2.705   2.246
 2686TIP3    H2 8002   4.770   2.784   2.331
 2687TIP3   OH2 8003   2.840   5.444   5.399
 2687TIP3    H1 8004   2.797   5.380   5.456
 2687TIP3    H2 8005   2.828   5.528   5.443
 2688TIP3   OH2 8006   3.395   6.878   6.108
 2688TIP3    H1 8007   3.390   6.823   6.030
 2688TIP3    H2 8008   3.379   6.817   6.181
 2689TIP3   OH2 8009   3.353   1.707   2.606
 2689TIP3    H1 8010   3.326   1.678   2.693
 2689TIP3    H2 8011   3.438   1.664   2.592
 2690TIP3   OH2 8012   3.684   0.706   2.276
 2690TIP3    H1 8013   3.690   0.616   2.245
 2690TIP3    H2 8014   3.745   0.711   2.349
 2691TIP3   OH2 8015   0.514   5.416   3.495
 2691TIP3    H1 8016   0.453   5.445   3.427
 2691TIP3    H2 8017   0.600   5.440   3.461
 2692TIP3   OH2 8018   4.375   5.199   2.407
 2692TIP3    H1 8019   4.440   5.129   2.415
 2692TIP3    H2 8020   4.292   5.153   2.398
 2693TIP3   OH2 8021   7.989   4.774   6.778
 2693TIP3    H1 8022   8.077   4.759   6.811
 2693TIP3    H2 8023   7.995   4.758   6.683
 2694TIP3   OH2 8024   3.665   3.511   2.307
 2694TIP3    H1 8025   3.711   3.565   2.371
 2694TIP3    H2 8026   3.601   3.570   2.267
 2695TIP3   OH2 8027   2.004   5.741   1.825
 2695TIP3    H1 8028   2.099   5.731   1.822
 2695TIP3    H2 8029   1.989   5.814   1.885
 2696TIP3   OH2 8030   2.207   6.853   6.651
 2696TIP3    H1 8031   2.170   6.923   6.706
 2696TIP3    H2 8032   2.136   6.830   6.592
 2697TIP3   OH2 8033   7.668   7.257   4.129
 2697TIP3    H1 8034   7.628   7.173   4.106
 2697TIP3    H2 8035   7.667   7.258   4.225
 2698TIP3   OH2 8036   3.852   2.674   4.723
 2698TIP3    H1 8037   3.836   2.766   4.700
 2698TIP3    H2 8038   3.873   2.631   4.640
 2699TIP3   OH2 8039   4.912   1.640   6.188
 2699TIP3    H1 8040   4.829   1.671   6.224
 2699TIP3    H2 8041   4.963   1.719   6.173
 2700TIP3   OH2 8042   8.071   2.317   0.385
 2700TIP3    H1 8043   8.149   2.362   0.417
 2700TIP3    H2 8044   8.006   2.386   0.373
 2701TIP3   OH2 8045   4.789   2.534   3.190
 2701TIP3    H1 8046   4.862   2.539   3.252
 2701TIP3    H2 8047   4.756   2.624   3.185
 2702TIP3   OH2 8048   2.312   4.634   3.032
 2702TIP3    H1 8049   2.301   4.729   3.027
 2702TIP3    H2 8050   2.341   4.609   2.944
 2703TIP3   OH2 8051   4.015   0.578   1.628
 2703TIP3    H1 8052   4.000   0.483   1.624
 2703TIP3    H2 8053   4.100   0.590   1.587
 2704TIP3   OH2 8054   4.829   2.920   5.806
 2704TIP3    H1 8055   4.834   2.978   5.729
 2704TIP3    H2 8056   4.735   2.911   5.824
 2705TIP3   OH2 8057   8.022   2.009   5.758
 2705TIP3    H1 8058   8.054   1.922   5.781
 2705TIP3    H2 8059   7.998   2.049   5.841
 2706TIP3   OH2 8060   8.056   1.155   3.991
 2706TIP3    H1 8061   8.017   1.071   3.967
 2706TIP3    H2 8062   8.116   1.134   4.063
 2707TIP3   OH2 8063   7.737   5.756   0.774
 2707TIP3    H1 8064   7.723   5.664   0.753
 2707TIP3    H2 8065   7.651   5.786   0.806
 2708TIP3   OH2 8066   5.063   2.064   3.751
 2708TIP3    H1 8067   5.073   2.007   3.675
 2708TIP3    H2 8068   5.046   2.004   3.824
 2709TIP3   OH2 8069   4.766   0.603   1.741
 2709TIP3    H1 8070   4.718   0.584   1.822
 2709TIP3    H2 8071   4.857   0.614   1.769
 2710TIP3   OH2 8072   5.893   2.692   1.242
 2710TIP3    H1 8073   5.913   2.703   1.335
 2710TIP3    H2 8074   5.944   2.761   1.199
 2711TIP3   OH2 8075   3.639   0.766   1.867
 2711TIP3    H1 8076   3.585   0.713   1.925
 2711TIP3    H2 8077   3.675   0.704   1.804
 2712TIP3   OH2 8078   6.186   7.159   4.558
 2712TIP3    H1 8079   6.192   7.165   4.653
 2712TIP3    H2 8080   6.236   7.233   4.526
 2713TIP3   OH2 8081   5.566   1.015   2.213
 2713TIP3    H1 8082   5.522   1.079   2.269
 2713TIP3    H2 8083   5.545   0.930   2.253
 2714TIP3   OH2 8084   0.047   6.504   0.973
 2714TIP3    H1 8085  -0.046   6.500   0.994
 2714TIP3    H2 8086   0.085   6.559   1.043
 2715TIP3   OH2 8087   4.261   6.070   3.475
 2715TIP3    H1 8088   4.199   6.107   3.538
 2715TIP3    H2 8089   4.271   6.138   3.408
 2716TIP3   OH2 8090   6.154   0.520   3.957
 2716TIP3    H1 8091   6.171   0.428   3.980
 2716TIP3    H2 8092   6.065   0.520   3.922
 2717TIP3   OH2 8093   0.775   6.898   6.797
 2717TIP3    H1 8094   0.801   6.990   6.807
 2717TIP3    H2 8095   0.759   6.888   6.703
 2718TIP3   OH2 8096   2.058   4.740   5.676
 2718TIP3    H1 8097   1.976   4.722   5.630
 2718TIP3    H2 8098   2.072   4.834   5.663
 2719TIP3   OH2 8099   4.704   5.380   5.198
 2719TIP3    H1 8100   4.760   5.442   5.245
 2719TIP3    H2 8101   4.615   5.412   5.213
 2720TIP3   OH2 8102   8.188   5.356   2.122
 2720TIP3    H1 8103   8.198   5.448   2.100
 2720TIP3    H2 8104   8.195   5.310   2.038
 2721TIP3   OH2 8105   7.415   1.176   0.739
 2721TIP3    H1 8106   7.388   1.252   0.789
 2721TIP3    H2 8107   7.460   1.213   0.662
 2722TIP3   OH2 8108   5.051   0.234   5.740
 2722TIP3    H1 8109   5.091   0.174   5.678
 2722TIP3    H2 8110   5.108   0.311   5.739
 2723TIP3   OH2 8111   6.984   2.285   5.990
 2723TIP3    H1 8112   7.022   2.354   5.934
 2723TIP3    H2 8113   6.994   2.319   6.079
 2724TIP3   OH2 8114   8.050   0.539   3.062
 2724TIP3    H1 8115   7.967   0.556   3.107
 2724TIP3    H2 8116   8.025   0.488   2.984
 2725TIP3   OH2 8117   1.233   5.367   0.073
 2725TIP3    H1 8118   1.217   5.450   0.118
 2725TIP3    H2 8119   1.328   5.357   0.075
 2726TIP3   OH2 8120   4.690   7.774   2.861
 2726TIP3    H1 8121   4.673   7.749   2.770
 2726TIP3    H2 8122   4.749   7.706   2.893
 2727TIP3   OH2 8123   7.722   4.023   0.430
 2727TIP3    H1 8124   7.815   4.018   0.448
 2727TIP3    H2 8125   7.693   3.931   0.430
 2728TIP3   OH2 8126   5.393   7.520   4.539
 2728TIP3    H1 8127   5.464   7.470   4.499
 2728TIP3    H2 8128   5.372   7.588   4.475
 2729TIP3   OH2 8129   3.250   4.837   3.959
 2729TIP3    H1 8130   3.234   4.824   4.052
 2729TIP3    H2 8131   3.345   4.837   3.951
 2730TIP3   OH2 8132   3.800   4.071   6.664
 2730TIP3    H1 8133   3.827   3.983   6.638
 2730TIP3    H2 8134   3.881   4.121   6.669
 2731TIP3   OH2 8135   2.356   7.513   3.122
 2731TIP3    H1 8136   2.265   7.511   3.152
 2731TIP3    H2 8137   2.351   7.497   3.028
 2732TIP3   OH2 8138   1.467   1.161   3.011
 2732TIP3    H1 8139   1.535   1.116   3.061
 2732TIP3    H2 8140   1.385   1.118   3.039
 2733TIP3   OH2 8141   3.508   3.585   1.208
 2733TIP3    H1 8142   3.436   3.605   1.148
 2733TIP3    H2 8143   3.518   3.663   1.261
 2734TIP3   OH2 8144   6.356   6.215   2.038
 2734TIP3    H1 8145   6.414   6.283   2.072
 2734TIP3    H2 8146   6.406   6.134   2.052
 2735TIP3   OH2 8147   6.896   6.461   0.621
 2735TIP3    H1 8148   6.875   6.379   0.577
 2735TIP3    H2 8149   6.900   6.438   0.714
 2736TIP3   OH2 8150   6.194   2.762   6.528
 2736TIP3    H1 8151   6.209   2.850   6.561
 2736TIP3    H2 8152   6.174   2.774   6.435
 2737TIP3   OH2 8153   8.256   2.406   2.996
 2737TIP3    H1 8154   8.333   2.371   2.951
 2737TIP3    H2 8155   8.216   2.465   2.933
 2738TIP3   OH2 8156   6.395   5.059   2.526
 2738TIP3    H1 8157   6.476   5.029   2.566
 2738TIP3    H2 8158   6.368   5.134   2.579
 2739TIP3   OH2 8159   2.904   5.586   4.461
 2739TIP3    H1 8160   2.870   5.618   4.377
 2739TIP3    H2 8161   2.934   5.497   4.443
 2740TIP3   OH2 8162   3.239   3.423   4.857
 2740TIP3    H1 8163   3.147   3.445   4.874
 2740TIP3    H2 8164   3.287   3.501   4.881
 2741TIP3   OH2 8165   7.559   3.569   1.418
 2741TIP3    H1 8166   7.562   3.488   1.469
 2741TIP3    H2 8167   7.475   3.608   1.439
 2742TIP3   OH2 8168   0.759   5.533   2.400
 2742TIP3    H1 8169   0.686   5.575   2.354
 2742TIP3    H2 8170   0.836   5.557   2.349
 2743TIP3   OH2 8171   6.140   4.749   3.024
 2743TIP3    H1 8172   6.194   4.699   2.964
 2743TIP3    H2 8173   6.061   4.771   2.974
 2744TIP3   OH2 8174   6.025   2.229   5.610
 2744TIP3    H1 8175   6.074   2.187   5.680
 2744TIP3    H2 8176   5.971   2.159   5.573
 2745TIP3   OH2 8177   6.002   6.412   2.226
 2745TIP3    H1 8178   6.091   6.376   2.228
 2745TIP3    H2 8179   6.000   6.466   2.147
 2746TIP3   OH2 8180   0.307   3.542   1.095
 2746TIP3    H1 8181   0.342   3.550   1.006
 2746TIP3    H2 8182   0.212   3.531   1.082
 2747TIP3   OH2 8183   8.136   5.160   1.402
 2747TIP3    H1 8184   8.043   5.164   1.381
 2747TIP3    H2 8185   8.150   5.069   1.430
 2748TIP3   OH2 8186   5.109   4.806   1.785
 2748TIP3    H1 8187   5.110   4.710   1.786
 2748TIP3    H2 8188   5.058   4.830   1.863
 2749TIP3   OH2 8189   3.565   4.308   2.318
 2749TIP3    H1 8190   3.656   4.340   2.318
 2749TIP3    H2 8191   3.563   4.241   2.386
 2750TIP3   OH2 8192   0.444   4.200   3.041
 2750TIP3    H1 8193   0.370   4.140   3.032
 2750TIP3    H2 8194   0.468   4.222   2.951
 2751TIP3   OH2 8195   7.120   0.766   2.997
 2751TIP3    H1 8196   7.095   0.848   2.955
 2751TIP3    H2 8197   7.215   0.771   3.004
 2752TIP3   OH2 8198   3.853   4.839   6.519
 2752TIP3    H1 8199   3.811   4.887   6.447
 2752TIP3    H2 8200   3.925   4.792   6.477
 2753TIP3   OH2 8201   5.344   6.501   5.248
 2753TIP3    H1 8202   5.336   6.413   5.286
 2753TIP3    H2 8203   5.376   6.555   5.321
 2754TIP3   OH2 8204   8.135   5.525   3.427
 2754TIP3    H1 8205   8.042   5.510   3.407
 2754TIP3    H2 8206   8.174   5.438   3.425
 2755TIP3   OH2 8207   4.189   0.312   6.509
 2755TIP3    H1 8208   4.138   0.242   6.469
 2755TIP3    H2 8209   4.228   0.272   6.588
 2756TIP3   OH2 8210   2.986   5.275   1.476
 2756TIP3    H1 8211   2.992   5.360   1.520
 2756TIP3    H2 8212   3.042   5.217   1.527
 2757TIP3   OH2 8213   7.202   7.729   3.749
 2757TIP3    H1 8214   7.162   7.653   3.792
 2757TIP3    H2 8215   7.294   7.725   3.777
 2758TIP3   OH2 8216   5.354   6.014   5.549
 2758TIP3    H1 8217   5.413   5.997   5.622
 2758TIP3    H2 8218   5.285   5.947   5.558
 2759TIP3   OH2 8219   0.327   1.838   4.245
 2759TIP3    H1 8220   0.272   1.914   4.224
 2759TIP3    H2 8221   0.414   1.862   4.211
 2760TIP3   OH2 8222   5.916   0.852   1.668
 2760TIP3    H1 8223   5.832   0.808   1.658
 2760TIP3    H2 8224   5.894   0.936   1.709
 2761TIP3   OH2 8225   5.152   4.524   3.692
 2761TIP3    H1 8226   5.174   4.436   3.724
 2761TIP3    H2 8227   5.105   4.508   3.610
 2762TIP3   OH2 8228   4.416   2.965   3.623
 2762TIP3    H1 8229   4.351   3.029   3.595
 2762TIP3    H2 8230   4.369   2.881   3.625
 2763TIP3   OH2 8231   5.610   6.528   2.804
 2763TIP3    H1 8232   5.587   6.607   2.853
 2763TIP3    H2 8233   5.680   6.556   2.745
 2764TIP3   OH2 8234   2.550   4.162   1.188
 2764TIP3    H1 8235   2.591   4.136   1.270
 2764TIP3    H2 8236   2.467   4.200   1.213
 2765TIP3   OH2 8237   0.190   1.347   4.708
 2765TIP3    H1 8238   0.203   1.310   4.795
 2765TIP3    H2 8239   0.272   1.393   4.689
 2766TIP3   OH2 8240   7.898   5.373   5.402
 2766TIP3    H1 8241   7.942   5.446   5.448
 2766TIP3    H2 8242   7.859   5.321   5.473
 2767TIP3   OH2 8243   6.665   1.341   0.486
 2767TIP3    H1 8244   6.575   1.372   0.477
 2767TIP3    H2 8245   6.657   1.248   0.505
 2768TIP3   OH2 8246   6.144   7.397   3.178
 2768TIP3    H1 8247   6.152   7.400   3.082
 2768TIP3    H2 8248   6.164   7.486   3.206
 2769TIP3   OH2 8249   3.306   2.113   0.219
 2769TIP3    H1 8250   3.367   2.104   0.145
 2769TIP3    H2 8251   3.352   2.166   0.283
 2770TIP3   OH2 8252   7.094   2.994   0.349
 2770TIP3    H1 8253   7.121   2.942   0.425
 2770TIP3    H2 8254   7.052   2.931   0.291
 2771TIP3   OH2 8255   0.131   4.482   5.019
 2771TIP3    H1 8256   0.060   4.421   5.038
 2771TIP3    H2 8257   0.112   4.559   5.073
 2772TIP3   OH2 8258   3.894   7.038   0.210
 2772TIP3    H1 8259   3.911   7.118   0.260
 2772TIP3    H2 8260   3.844   6.982   0.270
 2773TIP3   OH2 8261   0.970   3.861   2.442
 2773TIP3    H1 8262   1.063   3.860   2.421
 2773TIP3    H2 8263   0.949   3.771   2.466
 2774TIP3   OH2 8264   4.986   3.626   4.620
 2774TIP3    H1 8265   4.985   3.572   4.541
 2774TIP3    H2 8266   4.985   3.716   4.588
 2775TIP3   OH2 8267   3.814   2.024   0.473
 2775TIP3    H1 8268   3.762   2.039   0.395
 2775TIP3    H2 8269   3.797   2.101   0.529
 2776TIP3   OH2 8270   7.278   4.296   0.150
 2776TIP3    H1 8271   7.194   4.307   0.194
 2776TIP3    H2 8272   7.289   4.201   0.143
 2777TIP3   OH2 8273   6.972   7.241   2.143
 2777TIP3    H1 8274   6.986   7.335   2.152
 2777TIP3    H2 8275   7.023   7.202   2.214
 2778TIP3   OH2 8276   4.675   2.490   1.788
 2778TIP3    H1 8277   4.697   2.549   1.861
 2778TIP3    H2 8278   4.594   2.526   1.751
 2779TIP3   OH2 8279   5.090   7.020   2.859
 2779TIP3    H1 8280   5.037   6.947   2.827
 2779TIP3    H2 8281   5.180   6.990   2.852
 2780TIP3   OH2 8282   5.956   3.831  -0.027
 2780TIP3    H1 8283   5.865   3.820  -0.055
 2780TIP3    H2 8284   5.955   3.808   0.066
 2781TIP3   OH2 8285   0.896   3.282   3.451
 2781TIP3    H1 8286   0.824   3.292   3.512
 2781TIP3    H2 8287   0.947   3.363   3.461
 2782TIP3   OH2 8288   2.846   0.609   5.423
 2782TIP3    H1 8289   2.819   0.681   5.480
 2782TIP3    H2 8290   2.890   0.548   5.481
 2783TIP3   OH2 8291   2.032   4.715   0.962
 2783TIP3    H1 8292   2.101   4.756   1.014
 2783TIP3    H2 8293   2.011   4.780   0.895
 2784TIP3   OH2 8294   3.455   2.324   5.500
 2784TIP3    H1 8295   3.449   2.238   5.458
 2784TIP3    H2 8296   3.539   2.322   5.546
 2785TIP3   OH2 8297   3.455   2.415   1.250
 2785TIP3    H1 8298   3.403   2.362   1.310
 2785TIP3    H2 8299   3.522   2.455   1.305
 2786TIP3   OH2 8300   3.745   6.996   0.980
 2786TIP3    H1 8301   3.678   7.047   1.026
 2786TIP3    H2 8302   3.703   6.913   0.960
 2787TIP3   OH2 8303   2.517   3.953   4.813
 2787TIP3    H1 8304   2.494   3.872   4.859
 2787TIP3    H2 8305   2.594   3.986   4.859
 2788TIP3   OH2 8306   6.669   3.889   4.646
 2788TIP3    H1 8307   6.600   3.946   4.613
 2788TIP3    H2 8308   6.635   3.800   4.634
 2789TIP3   OH2 8309   8.026   3.360   1.919
 2789TIP3    H1 8310   7.946   3.313   1.945
 2789TIP3    H2 8311   7.994   3.443   1.882
 2790TIP3   OH2 8312   0.688   2.813   3.591
 2790TIP3    H1 8313   0.752   2.833   3.659
 2790TIP3    H2 8314   0.611   2.784   3.640
 2791TIP3   OH2 8315   3.317   3.780   6.332
 2791TIP3    H1 8316   3.340   3.707   6.389
 2791TIP3    H2 8317   3.228   3.759   6.302
 2792TIP3   OH2 8318   6.972   6.033   6.560
 2792TIP3    H1 8319   7.016   6.055   6.642
 2792TIP3    H2 8320   6.882   6.063   6.572
 2793TIP3   OH2 8321   5.788   0.504   4.374
 2793TIP3    H1 8322   5.728   0.438   4.338
 2793TIP3    H2 8323   5.867   0.495   4.322
 2794TIP3   OH2 8324   1.049   3.634   6.245
 2794TIP3    H1 8325   1.130   3.675   6.276
 2794TIP3    H2 8326   1.074   3.592   6.163
 2795TIP3   OH2 8327   6.650   4.342   5.136
 2795TIP3    H1 8328   6.623   4.345   5.228
 2795TIP3    H2 8329   6.698   4.259   5.128
 2796TIP3   OH2 8330   5.592   1.271   4.079
 2796TIP3    H1 8331   5.519   1.249   4.136
 2796TIP3    H2 8332   5.648   1.193   4.081
 2797TIP3   OH2 8333   4.270   4.117   4.378
 2797TIP3    H1 8334   4.335   4.054   4.346
 2797TIP3    H2 8335   4.280   4.193   4.322
 2798TIP3   OH2 8336   1.374   4.933   3.892
 2798TIP3    H1 8337   1.278   4.931   3.886
 2798TIP3    H2 8338   1.404   4.936   3.801
 2799TIP3   OH2 8339   5.648   3.651   0.537
 2799TIP3    H1 8340   5.740   3.677   0.545
 2799TIP3    H2 8341   5.602   3.707   0.600
 2800TIP3   OH2 8342   4.310   2.077   2.057
 2800TIP3    H1 8343   4.266   2.124   2.128
 2800TIP3    H2 8344   4.366   2.142   2.016
 2801TIP3   OH2 8345   6.648   6.180   1.625
 2801TIP3    H1 8346   6.733   6.195   1.585
 2801TIP3    H2 8347   6.663   6.192   1.719
 2802TIP3   OH2 8348   5.887   0.107   1.400
 2802TIP3    H1 8349   5.901   0.057   1.480
 2802TIP3    H2 8350   5.902   0.044   1.330
 2803TIP3   OH2 8351   4.431   0.216   1.017
 2803TIP3    H1 8352   4.464   0.288   1.071
 2803TIP3    H2 8353   4.392   0.155   1.079
 2804TIP3   OH2 8354   4.456   4.578   3.869
 2804TIP3    H1 8355   4.505   4.510   3.914
 2804TIP3    H2 8356   4.427   4.637   3.939
 2805TIP3   OH2 8357   2.780   3.414   5.352
 2805TIP3    H1 8358   2.770   3.497   5.399
 2805TIP3    H2 8359   2.805   3.352   5.420
 2806TIP3   OH2 8360   3.107   1.749   5.844
 2806TIP3    H1 8361   3.012   1.756   5.838
 2806TIP3    H2 8362   3.124   1.741   5.938
 2807TIP3   OH2 8363   2.798   0.202   1.046
 2807TIP3    H1 8364   2.846   0.152   1.113
 2807TIP3    H2 8365   2.708   0.172   1.055
 2808TIP3   OH2 8366   7.257   6.508   3.731
 2808TIP3    H1 8367   7.299   6.568   3.670
 2808TIP3    H2 8368   7.226   6.563   3.802
 2809TIP3   OH2 8369   0.099   5.905   6.397
 2809TIP3    H1 8370   0.148   5.867   6.469
 2809TIP3    H2 8371   0.008   5.906   6.428
 2810TIP3   OH2 8372   2.904   3.249   4.007
 2810TIP3    H1 8373   2.874   3.252   4.098
 2810TIP3    H2 8374   2.956   3.329   3.996
 2811TIP3   OH2 8375   1.110   3.313   6.323
 2811TIP3    H1 8376   1.188   3.258   6.330
 2811TIP3    H2 8377   1.117   3.355   6.238
 2812TIP3   OH2 8378   7.894   1.489   5.710
 2812TIP3    H1 8379   7.894   1.573   5.756
 2812TIP3    H2 8380   7.924   1.425   5.775
 2813TIP3   OH2 8381   7.275   1.180   6.671
 2813TIP3    H1 8382   7.211   1.143   6.732
 2813TIP3    H2 8383   7.293   1.268   6.704
 2814TIP3   OH2 8384   6.230   6.052   2.473
 2814TIP3    H1 8385   6.222   5.963   2.438
 2814TIP3    H2 8386   6.316   6.053   2.515
 2815TIP3   OH2 8387   1.018   5.814   0.103
 2815TIP3    H1 8388   1.017   5.850   0.014
 2815TIP3    H2 8389   0.947   5.750   0.104
 2816TIP3   OH2 8390   4.844   4.828   5.486
 2816TIP3    H1 8391   4.834   4.889   5.559
 2816TIP3    H2 8392   4.785   4.862   5.418
 2817TIP3   OH2 8393   5.946   1.236   5.119
 2817TIP3    H1 8394   5.981   1.279   5.198
 2817TIP3    H2 8395   5.986   1.283   5.046
 2818TIP3   OH2 8396   0.678   4.667   6.058
 2818TIP3    H1 8397   0.610   4.702   6.000
 2818TIP3    H2 8398   0.700   4.740   6.116
 2819TIP3   OH2 8399   6.742   5.974   2.297
 2819TIP3    H1 8400   6.720   6.063   2.322
 2819TIP3    H2 8401   6.726   5.922   2.376
 2820TIP3   OH2 8402   7.670   1.797   3.779
 2820TIP3    H1 8403   7.762   1.796   3.752
 2820TIP3    H2 8404   7.624   1.833   3.703
 2821TIP3   OH2 8405   3.417   1.689   1.264
 2821TIP3    H1 8406   3.381   1.777   1.253
 2821TIP3    H2 8407   3.435   1.682   1.358
 2822TIP3   OH2 8408   3.550   4.823   0.175
 2822TIP3    H1 8409   3.478   4.763   0.197
 2822TIP3    H2 8410   3.561   4.813   0.080
 2823TIP3   OH2 8411   6.510   4.181   3.929
 2823TIP3    H1 8412   6.426   4.135   3.937
 2823TIP3    H2 8413   6.514   4.206   3.836
 2824TIP3   OH2 8414   5.580   5.604   5.149
 2824TIP3    H1 8415   5.642   5.605   5.221
 2824TIP3    H2 8416   5.631   5.629   5.072
 2825TIP3   OH2 8417   4.041   7.087   0.595
 2825TIP3    H1 8418   4.112   7.049   0.544
 2825TIP3    H2 8419   4.020   7.169   0.550
 2826TIP3   OH2 8420   4.039   0.652   5.322
 2826TIP3    H1 8421   4.131   0.629   5.321
 2826TIP3    H2 8422   4.020   0.679   5.232
 2827TIP3   OH2 8423   7.332   4.875   3.055
 2827TIP3    H1 8424   7.375   4.917   3.129
 2827TIP3    H2 8425   7.291   4.797   3.092
 2828TIP3   OH2 8426   8.254   2.561   1.288
 2828TIP3    H1 8427   8.223   2.470   1.294
 2828TIP3    H2 8428   8.330   2.564   1.345
 2829TIP3   OH2 8429   3.871   2.919   0.411
 2829TIP3    H1 8430   3.942   2.857   0.426
 2829TIP3    H2 8431   3.797   2.865   0.382
 2830TIP3   OH2 8432   6.844   2.629   5.800
 2830TIP3    H1 8433   6.894   2.637   5.719
 2830TIP3    H2 8434   6.770   2.689   5.789
 2831TIP3   OH2 8435   0.793   7.600   6.066
 2831TIP3    H1 8436   0.718   7.620   6.010
 2831TIP3    H2 8437   0.860   7.566   6.006
 2832TIP3   OH2 8438   3.693   4.482   3.344
 2832TIP3    H1 8439   3.745   4.562   3.352
 2832TIP3    H2 8440   3.608   4.512   3.311
 2833TIP3   OH2 8441   7.572   4.578   6.258
 2833TIP3    H1 8442   7.640   4.585   6.190
 2833TIP3    H2 8443   7.617   4.605   6.338
 2834TIP3   OH2 8444   4.556   5.711   3.399
 2834TIP3    H1 8445   4.482   5.703   3.339
 2834TIP3    H2 8446   4.599   5.792   3.373
 2835TIP3   OH2 8447   5.106   0.456   4.311
 2835TIP3    H1 8448   5.043   0.405   4.363
 2835TIP3    H2 8449   5.189   0.410   4.325
 2836TIP3   OH2 8450   1.964   4.144   2.014
 2836TIP3    H1 8451   2.004   4.221   1.974
 2836TIP3    H2 8452   2.027   4.117   2.082
 2837TIP3   OH2 8453   4.405   6.174   4.735
 2837TIP3    H1 8454   4.338   6.106   4.742
 2837TIP3    H2 8455   4.487   6.128   4.752
 2838TIP3   OH2 8456   8.122   5.430   4.789
 2838TIP3    H1 8457   8.172   5.510   4.775
 2838TIP3    H2 8458   8.140   5.376   4.712
 2839TIP3   OH2 8459   1.801   2.799   2.150
 2839TIP3    H1 8460   1.869   2.853   2.109
 2839TIP3    H2 8461   1.847   2.720   2.179
 2840TIP3   OH2 8462   3.882   0.810   4.211
 2840TIP3    H1 8463   3.851   0.859   4.286
 2840TIP3    H2 8464   3.909   0.725   4.247
 2841TIP3   OH2 8465   1.969   3.556   6.471
 2841TIP3    H1 8466   2.008   3.579   6.555
 2841TIP3    H2 8467   1.906   3.487   6.491
 2842TIP3   OH2 8468   7.626   5.057   6.312
 2842TIP3    H1 8469   7.579   5.007   6.379
 2842TIP3    H2 8470   7.558   5.086   6.252
 2843TIP3   OH2 8471   4.492   1.419   3.778
 2843TIP3    H1 8472   4.411   1.368   3.782
 2843TIP3    H2 8473   4.561   1.356   3.798
 2844TIP3   OH2 8474   4.676   3.241   5.856
 2844TIP3    H1 8475   4.722   3.306   5.909
 2844TIP3    H2 8476   4.739   3.216   5.788
 2845TIP3   OH2 8477   4.807   4.803   4.714
 2845TIP3    H1 8478   4.716   4.815   4.685
 2845TIP3    H2 8479   4.804   4.820   4.808
 2846TIP3   OH2 8480   7.351   5.253   3.997
 2846TIP3    H1 8481   7.273   5.265   4.050
 2846TIP3    H2 8482   7.368   5.340   3.959
 2847TIP3   OH2 8483   0.855   3.114   6.204
 2847TIP3    H1 8484   0.859   3.118   6.299
 2847TIP3    H2 8485   0.942   3.143   6.175
 2848TIP3   OH2 8486   7.669   0.858   1.989
 2848TIP3    H1 8487   7.584   0.849   1.946
 2848TIP3    H2 8488   7.668   0.791   2.057
 2849TIP3   OH2 8489   5.796   5.018   0.656
 2849TIP3    H1 8490   5.837   5.105   0.657
 2849TIP3    H2 8491   5.710   5.032   0.697
 2850TIP3   OH2 8492   0.748   0.857   3.609
 2850TIP3    H1 8493   0.830   0.885   3.568
 2850TIP3    H2 8494   0.686   0.848   3.537
 2851TIP3   OH2 8495   1.504   5.978   6.575
 2851TIP3    H1 8496   1.487   5.899   6.626
 2851TIP3    H2 8497   1.420   6.025   6.575
 2852TIP3   OH2 8498   5.102   1.553   6.552
 2852TIP3    H1 8499   5.126   1.561   6.460
 2852TIP3    H2 8500   5.013   1.587   6.557
 2853TIP3   OH2 8501   6.299   3.263   5.489
 2853TIP3    H1 8502   6.369   3.300   5.435
 2853TIP3    H2 8503   6.340   3.244   5.573
 2854TIP3   OH2 8504   4.728   2.897   4.978
 2854TIP3    H1 8505   4.668   2.845   5.031
 2854TIP3    H2 8506   4.812   2.853   4.985
 2855TIP3   OH2 8507   7.498   4.783   0.124
 2855TIP3    H1 8508   7.439   4.710   0.143
 2855TIP3    H2 8509   7.546   4.797   0.206
 2856TIP3   OH2 8510   4.824   6.202   0.362
 2856TIP3    H1 8511   4.840   6.113   0.328
 2856TIP3    H2 8512   4.904   6.223   0.409
 2857TIP3   OH2 8513   4.131   0.357   1.067
 2857TIP3    H1 8514   4.046   0.385   1.032
 2857TIP3    H2 8515   4.183   0.438   1.070
 2858TIP3   OH2 8516   2.490   0.464   1.185
 2858TIP3    H1 8517   2.425   0.529   1.160
 2858TIP3    H2 8518   2.563   0.515   1.221
 2859TIP3   OH2 8519   2.983   2.385   5.867
 2859TIP3    H1 8520   2.965   2.293   5.846
 2859TIP3    H2 8521   2.950   2.396   5.957
 2860TIP3   OH2 8522   3.104   1.606   1.256
 2860TIP3    H1 8523   3.120   1.551   1.333
 2860TIP3    H2 8524   3.190   1.614   1.214
 2861TIP3   OH2 8525   7.892   6.529   5.909
 2861TIP3    H1 8526   7.804   6.492   5.909
 2861TIP3    H2 8527   7.901   6.572   5.824
 2862TIP3   OH2 8528   0.280   5.906   0.821
 2862TIP3    H1 8529   0.285   5.815   0.791
 2862TIP3    H2 8530   0.311   5.903   0.911
 2863TIP3   OH2 8531   7.557   6.164   1.947
 2863TIP3    H1 8532   7.510   6.093   1.992
 2863TIP3    H2 8533   7.533   6.153   1.855
 2864TIP3   OH2 8534   0.873   3.172   4.038
 2864TIP3    H1 8535   0.819   3.093   4.046
 2864TIP3    H2 8536   0.931   3.170   4.114
 2865TIP3   OH2 8537   1.092   0.585   5.632
 2865TIP3    H1 8538   1.111   0.493   5.650
 2865TIP3    H2 8539   1.105   0.594   5.537
 2866TIP3   OH2 8540   1.767   0.586   4.832
 2866TIP3    H1 8541   1.735   0.673   4.806
 2866TIP3    H2 8542   1.701   0.555   4.894
 2867TIP3   OH2 8543   1.001   5.207   4.898
 2867TIP3    H1 8544   1.064   5.144   4.863
 2867TIP3    H2 8545   1.038   5.293   4.875
 2868TIP3   OH2 8546   5.369   6.753   1.841
 2868TIP3    H1 8547   5.413   6.807   1.906
 2868TIP3    H2 8548   5.430   6.681   1.824
 2869TIP3   OH2 8549   5.188   1.573   0.725
 2869TIP3    H1 8550   5.170   1.664   0.703
 2869TIP3    H2 8551   5.272   1.576   0.771
 2870TIP3   OH2 8552   8.012   4.147   3.471
 2870TIP3    H1 8553   7.941   4.175   3.528
 2870TIP3    H2 8554   8.041   4.063   3.507
 2871TIP3   OH2 8555   3.921   1.517   0.169
 2871TIP3    H1 8556   3.984   1.474   0.226
 2871TIP3    H2 8557   3.953   1.499   0.080
 2872TIP3   OH2 8558   6.379   0.085   2.104
 2872TIP3    H1 8559   6.352  -0.006   2.091
 2872TIP3    H2 8560   6.469   0.079   2.135
 2873TIP3   OH2 8561   8.262   3.043   5.519
 2873TIP3    H1 8562   8.211   3.006   5.590
 2873TIP3    H2 8563   8.249   2.982   5.446
 2874TIP3   OH2 8564   6.863   1.068   1.287
 2874TIP3    H1 8565   6.866   1.131   1.214
 2874TIP3    H2 8566   6.822   0.990   1.249
 2875TIP3   OH2 8567   6.483   1.732   4.785
 2875TIP3    H1 8568   6.491   1.784   4.705
 2875TIP3    H2 8569   6.517   1.646   4.760
 2876TIP3   OH2 8570   0.671   5.881   2.991
 2876TIP3    H1 8571   0.620   5.942   3.044
 2876TIP3    H2 8572   0.697   5.932   2.914
 2877TIP3   OH2 8573   0.671   6.248   1.410
 2877TIP3    H1 8574   0.763   6.234   1.431
 2877TIP3    H2 8575   0.666   6.241   1.315
 2878TIP3   OH2 8576   6.726   7.644   1.064
 2878TIP3    H1 8577   6.762   7.687   0.986
 2878TIP3    H2 8578   6.781   7.675   1.136
 2879TIP3   OH2 8579   7.028   2.412   1.588
 2879TIP3    H1 8580   6.936   2.394   1.611
 2879TIP3    H2 8581   7.077   2.396   1.669
 2880TIP3   OH2 8582   3.651   5.002   5.923
 2880TIP3    H1 8583   3.581   4.975   5.983
 2880TIP3    H2 8584   3.685   4.920   5.888
 2881TIP3   OH2 8585   5.418   1.960   3.672
 2881TIP3    H1 8586   5.478   2.001   3.734
 2881TIP3    H2 8587   5.361   2.032   3.642
 2882TIP3   OH2 8588   0.642   5.080   0.580
 2882TIP3    H1 8589   0.605   5.082   0.492
 2882TIP3    H2 8590   0.569   5.051   0.636
 2883TIP3   OH2 8591   4.600   6.424   0.636
 2883TIP3    H1 8592   4.587   6.351   0.574
 2883TIP3    H2 8593   4.533   6.488   0.611
 2884TIP3   OH2 8594   7.701   7.203   5.500
 2884TIP3    H1 8595   7.794   7.206   5.523
 2884TIP3    H2 8596   7.687   7.279   5.445
 2885TIP3   OH2 8597   8.036   0.005   1.352
 2885TIP3    H1 8598   7.973  -0.002   1.280
 2885TIP3    H2 8599   8.070   0.095   1.345
 2886TIP3   OH2 8600   3.843   1.011   4.050
 2886TIP3    H1 8601   3.874   0.930   4.088
 2886TIP3    H2 8602   3.856   1.000   3.956
 2887TIP3   OH2 8603   1.217   3.859   1.881
 2887TIP3    H1 8604   1.172   3.777   1.901
 2887TIP3    H2 8605   1.271   3.838   1.804
 2888TIP3   OH2 8606   1.076   1.751   5.744
 2888TIP3    H1 8607   1.005   1.717   5.798
 2888TIP3    H2 8608   1.070   1.846   5.755
 2889TIP3   OH2 8609   4.575   0.557   1.541
 2889TIP3    H1 8610   4.622   0.605   1.609
 2889TIP3    H2 8611   4.600   0.600   1.460
 2890TIP3   OH2 8612   2.256   6.742   2.998
 2890TIP3    H1 8613   2.325   6.698   2.950
 2890TIP3    H2 8614   2.286   6.832   3.007
 2891TIP3   OH2 8615   3.077   6.140   6.248
 2891TIP3    H1 8616   3.085   6.149   6.343
 2891TIP3    H2 8617   3.008   6.201   6.223
 2892TIP3   OH2 8618   1.557   1.339   4.089
 2892TIP3    H1 8619   1.481   1.397   4.081
 2892TIP3    H2 8620   1.535   1.264   4.035
 2893TIP3   OH2 8621   6.314   7.671   0.006
 2893TIP3    H1 8622   6.287   7.634   0.090
 2893TIP3    H2 8623   6.406   7.645  -0.003
 2894TIP3   OH2 8624   4.521   5.878   2.960
 2894TIP3    H1 8625   4.452   5.824   2.922
 2894TIP3    H2 8626   4.561   5.822   3.027
 2895TIP3   OH2 8627   7.335   0.383   2.958
 2895TIP3    H1 8628   7.323   0.384   3.053
 2895TIP3    H2 8629   7.250   0.408   2.923
 2896TIP3   OH2 8630   7.836   3.666   4.165
 2896TIP3    H1 8631   7.918   3.631   4.200
 2896TIP3    H2 8632   7.776   3.664   4.239
 2897TIP3   OH2 8633   3.525   5.199   1.361
 2897TIP3    H1 8634   3.502   5.256   1.287
 2897TIP3    H2 8635   3.551   5.260   1.430
 2898TIP3   OH2 8636   7.095   6.529   4.909
 2898TIP3    H1 8637   7.180   6.510   4.949
 2898TIP3    H2 8638   7.114   6.588   4.837
 2899TIP3   OH2 8639   1.804   3.041   3.109
 2899TIP3    H1 8640   1.716   3.005   3.098
 2899TIP3    H2 8641   1.818   3.040   3.204
 2900TIP3   OH2 8642   1.942   6.845   5.998
 2900TIP3    H1 8643   2.036   6.858   6.000
 2900TIP3    H2 8644   1.906   6.922   6.043
 2901TIP3   OH2 8645   5.422   6.234   3.387
 2901TIP3    H1 8646   5.390   6.235   3.297
 2901TIP3    H2 8647   5.509   6.194   3.381
 2902TIP3   OH2 8648   5.487   2.876   3.775
 2902TIP3    H1 8649   5.408   2.826   3.755
 2902TIP3    H2 8650   5.460   2.968   3.767
 2903TIP3   OH2 8651   6.506   7.003   3.685
 2903TIP3    H1 8652   6.521   7.015   3.779
 2903TIP3    H2 8653   6.417   6.968   3.679
 2904TIP3   OH2 8654   6.489   6.274   0.540
 2904TIP3    H1 8655   6.415   6.216   0.560
 2904TIP3    H2 8656   6.457   6.330   0.469
 2905TIP3   OH2 8657   2.360   7.624   1.648
 2905TIP3    H1 8658   2.426   7.582   1.593
 2905TIP3    H2 8659   2.409   7.687   1.701
 2906TIP3   OH2 8660   2.376   6.192   4.588
 2906TIP3    H1 8661   2.463   6.217   4.618
 2906TIP3    H2 8662   2.332   6.275   4.571
 2907TIP3   OH2 8663   0.064   6.134   5.277
 2907TIP3    H1 8664   0.099   6.204   5.222
 2907TIP3    H2 8665   0.022   6.179   5.350
 2908TIP3   OH2 8666   3.084   5.303   3.725
 2908TIP3    H1 8667   3.163   5.258   3.754
 2908TIP3    H2 8668   3.054   5.352   3.802
 2909TIP3   OH2 8669   0.483   6.438   1.895
 2909TIP3    H1 8670   0.412   6.478   1.845
 2909TIP3    H2 8671   0.555   6.501   1.888
 2910TIP3   OH2 8672   0.253   6.894   3.439
 2910TIP3    H1 8673   0.314   6.967   3.453
 2910TIP3    H2 8674   0.286   6.849   3.362
 2911TIP3   OH2 8675   3.373   0.952   5.477
 2911TIP3    H1 8676   3.454   0.904   5.498
 2911TIP3    H2 8677   3.402   1.025   5.422
 2912TIP3   OH2 8678   5.631   1.079   5.702
 2912TIP3    H1 8679   5.634   1.153   5.762
 2912TIP3    H2 8680   5.588   1.113   5.624
 2913TIP3   OH2 8681   5.713   6.337   1.301
 2913TIP3    H1 8682   5.777   6.406   1.319
 2913TIP3    H2 8683   5.694   6.345   1.208
 2914TIP3   OH2 8684   5.130   4.751   4.088
 2914TIP3    H1 8685   5.199   4.804   4.049
 2914TIP3    H2 8686   5.106   4.799   4.168
 2915TIP3   OH2 8687   0.858   4.873   0.253
 2915TIP3    H1 8688   0.801   4.845   0.324
 2915TIP3    H2 8689   0.911   4.796   0.232
 2916TIP3   OH2 8690   7.153   0.239   1.619
 2916TIP3    H1 8691   7.107   0.246   1.535
 2916TIP3    H2 8692   7.238   0.201   1.596
 2917TIP3   OH2 8693   2.880   4.476   4.892
 2917TIP3    H1 8694   2.878   4.380   4.888
 2917TIP3    H2 8695   2.875   4.504   4.801
 2918TIP3   OH2 8696   0.288   6.035   2.806
 2918TIP3    H1 8697   0.226   6.065   2.740
 2918TIP3    H2 8698   0.317   6.115   2.850
 2919TIP3   OH2 8699   2.066   6.771   6.428
 2919TIP3    H1 8700   2.017   6.769   6.346
 2919TIP3    H2 8701   2.144   6.717   6.412
 2920TIP3   OH2 8702   3.621   4.381   6.431
 2920TIP3    H1 8703   3.611   4.451   6.497
 2920TIP3    H2 8704   3.712   4.388   6.403
 2921TIP3   OH2 8705   6.840   1.948   4.913
 2921TIP3    H1 8706   6.817   1.967   5.004
 2921TIP3    H2 8707   6.757   1.948   4.867
 2922TIP3   OH2 8708   0.926   0.084   2.324
 2922TIP3    H1 8709   0.981   0.029   2.268
 2922TIP3    H2 8710   0.977   0.164   2.338
 2923TIP3   OH2 8711   2.215   7.240   0.727
 2923TIP3    H1 8712   2.139   7.224   0.783
 2923TIP3    H2 8713   2.201   7.328   0.691
 2924TIP3   OH2 8714   1.096  -0.028   0.624
 2924TIP3    H1 8715   1.115   0.040   0.688
 2924TIP3    H2 8716   1.038   0.014   0.561
 2925TIP3   OH2 8717   2.027   0.834   1.758
 2925TIP3    H1 8718   1.960   0.854   1.824
 2925TIP3    H2 8719   2.109   0.865   1.798
 2926TIP3   OH2 8720   5.859   7.190   6.488
 2926TIP3    H1 8721   5.802   7.146   6.425
 2926TIP3    H2 8722   5.857   7.134   6.566
 2927TIP3   OH2 8723   1.332   0.829   0.331
 2927TIP3    H1 8724   1.310   0.884   0.407
 2927TIP3    H2 8725   1.363   0.747   0.370
 2928TIP3   OH2 8726   5.361   6.636   3.026
 2928TIP3    H1 8727   5.338   6.728   3.042
 2928TIP3    H2 8728   5.401   6.606   3.108
 2929TIP3   OH2 8729   4.862   1.847   3.385
 2929TIP3    H1 8730   4.946   1.838   3.430
 2929TIP3    H2 8731   4.809   1.900   3.445
 2930TIP3   OH2 8732   0.250   1.748   3.368
 2930TIP3    H1 8733   0.312   1.717   3.301
 2930TIP3    H2 8734   0.275   1.839   3.382
 2931TIP3   OH2 8735   8.178   1.342   1.881
 2931TIP3    H1 8736   8.179   1.425   1.833
 2931TIP3    H2 8737   8.257   1.297   1.854
 2932TIP3   OH2 8738   4.451   5.554   3.923
 2932TIP3    H1 8739   4.454   5.465   3.888
 2932TIP3    H2 8740   4.460   5.611   3.847
 2933TIP3   OH2 8741   7.624   1.663   5.163
 2933TIP3    H1 8742   7.625   1.719   5.241
 2933TIP3    H2 8743   7.706   1.683   5.118
 2934TIP3   OH2 8744   3.039   4.138   2.845
 2934TIP3    H1 8745   3.059   4.156   2.937
 2934TIP3    H2 8746   3.124   4.147   2.800
 2935TIP3   OH2 8747   3.126   6.276   1.063
 2935TIP3    H1 8748   3.158   6.351   1.114
 2935TIP3    H2 8749   3.204   6.222   1.049
 2936TIP3   OH2 8750   5.671   0.757   6.713
 2936TIP3    H1 8751   5.593   0.734   6.763
 2936TIP3    H2 8752   5.650   0.731   6.623
 2937TIP3   OH2 8753   3.060   7.085   3.027
 2937TIP3    H1 8754   3.104   7.155   3.075
 2937TIP3    H2 8755   3.090   7.095   2.937
 2938TIP3   OH2 8756   6.372   1.101   1.697
 2938TIP3    H1 8757   6.442   1.108   1.632
 2938TIP3    H2 8758   6.302   1.055   1.652
 2939TIP3   OH2 8759   8.040   2.310   0.054
 2939TIP3    H1 8760   8.079   2.365   0.122
 2939TIP3    H2 8761   8.082   2.224   0.065
 2940TIP3   OH2 8762   3.345   2.959   3.984
 2940TIP3    H1 8763   3.318   2.959   4.076
 2940TIP3    H2 8764   3.398   3.038   3.974
 2941TIP3   OH2 8765   7.735   2.958   3.041
 2941TIP3    H1 8766   7.780   2.877   3.016
 2941TIP3    H2 8767   7.799   3.007   3.092
 2942TIP3   OH2 8768   5.432   0.175   1.233
 2942TIP3    H1 8769   5.396   0.157   1.320
 2942TIP3    H2 8770   5.513   0.223   1.251
 2943TIP3   OH2 8771   1.631   4.652   0.967
 2943TIP3    H1 8772   1.621   4.654   0.872
 2943TIP3    H2 8773   1.623   4.744   0.993
 2944TIP3   OH2 8774   0.859   6.231   3.137
 2944TIP3    H1 8775   0.842   6.273   3.053
 2944TIP3    H2 8776   0.776   6.189   3.160
 2945TIP3   OH2 8777   2.959   6.576   0.919
 2945TIP3    H1 8778   3.001   6.490   0.913
 2945TIP3    H2 8779   2.865   6.557   0.917
 2946TIP3   OH2 8780   4.628   7.642   3.658
 2946TIP3    H1 8781   4.576   7.661   3.580
 2946TIP3    H2 8782   4.714   7.616   3.623
 2947TIP3   OH2 8783   5.697   1.811   3.750
 2947TIP3    H1 8784   5.662   1.724   3.727
 2947TIP3    H2 8785   5.704   1.857   3.667
 2948TIP3   OH2 8786   6.108   3.308   5.140
 2948TIP3    H1 8787   6.195   3.272   5.122
 2948TIP3    H2 8788   6.106   3.392   5.096
 2949TIP3   OH2 8789   7.709   1.435   0.819
 2949TIP3    H1 8790   7.616   1.424   0.799
 2949TIP3    H2 8791   7.709   1.477   0.906
 2950TIP3   OH2 8792   5.181   5.400   4.715
 2950TIP3    H1 8793   5.113   5.350   4.759
 2950TIP3    H2 8794   5.133   5.465   4.664
 2951TIP3   OH2 8795   5.971   6.784   6.637
 2951TIP3    H1 8796   5.879   6.760   6.621
 2951TIP3    H2 8797   6.018   6.750   6.561
 2952TIP3   OH2 8798   3.031   5.534   0.313
 2952TIP3    H1 8799   2.943   5.529   0.276
 2952TIP3    H2 8800   3.072   5.452   0.289
 2953TIP3   OH2 8801   1.329   7.174   5.036
 2953TIP3    H1 8802   1.404   7.129   5.075
 2953TIP3    H2 8803   1.351   7.181   4.943
 2954TIP3   OH2 8804   3.252   6.625   3.196
 2954TIP3    H1 8805   3.179   6.575   3.233
 2954TIP3    H2 8806   3.291   6.565   3.132
 2955TIP3   OH2 8807   8.029   3.398   5.370
 2955TIP3    H1 8808   8.107   3.421   5.421
 2955TIP3    H2 8809   8.014   3.306   5.388
 2956TIP3   OH2 8810   4.225   4.116   4.808
 2956TIP3    H1 8811   4.205   4.077   4.893
 2956TIP3    H2 8812   4.178   4.062   4.745
 2957TIP3   OH2 8813   4.501   3.084   6.517
 2957TIP3    H1 8814   4.486   3.061   6.426
 2957TIP3    H2 8815   4.589   3.052   6.536
 2958TIP3   OH2 8816   4.090   6.042   6.255
 2958TIP3    H1 8817   4.066   6.027   6.163
 2958TIP3    H2 8818   4.007   6.046   6.302
 2959TIP3   OH2 8819   3.336   4.248   6.700
 2959TIP3    H1 8820   3.338   4.205   6.786
 2959TIP3    H2 8821   3.389   4.191   6.644
 2960TIP3   OH2 8822   3.763   4.354   0.646
 2960TIP3    H1 8823   3.818   4.429   0.623
 2960TIP3    H2 8824   3.819   4.298   0.699
 2961TIP3   OH2 8825   1.828   2.703   4.023
 2961TIP3    H1 8826   1.793   2.790   4.002
 2961TIP3    H2 8827   1.759   2.642   3.997
 2962TIP3   OH2 8828   2.134   5.936   2.709
 2962TIP3    H1 8829   2.213   5.977   2.744
 2962TIP3    H2 8830   2.069   6.006   2.707
 2963TIP3   OH2 8831   0.988   4.942   0.825
 2963TIP3    H1 8832   0.972   4.937   0.731
 2963TIP3    H2 8833   0.952   5.027   0.851
 2964TIP3   OH2 8834   5.202   1.470   0.394
 2964TIP3    H1 8835   5.131   1.406   0.384
 2964TIP3    H2 8836   5.189   1.532   0.322
 2965TIP3   OH2 8837   2.013   5.351   1.646
 2965TIP3    H1 8838   1.945   5.289   1.620
 2965TIP3    H2 8839   2.086   5.297   1.677
 2966TIP3   OH2 8840   5.807   3.878   2.784
 2966TIP3    H1 8841   5.867   3.838   2.721
 2966TIP3    H2 8842   5.773   3.805   2.835
 2967TIP3   OH2 8843   3.588   6.953   2.761
 2967TIP3    H1 8844   3.608   6.927   2.671
 2967TIP3    H2 8845   3.611   6.876   2.814
 2968TIP3   OH2 8846   1.452   5.311   6.307
 2968TIP3    H1 8847   1.380   5.284   6.363
 2968TIP3    H2 8848   1.524   5.251   6.330
 2969TIP3   OH2 8849   7.929   5.907   0.885
 2969TIP3    H1 8850   7.848   5.872   0.848
 2969TIP3    H2 8851   7.918   6.002   0.883
 2970TIP3   OH2 8852   5.655   0.131   4.328
 2970TIP3    H1 8853   5.565   0.161   4.333
 2970TIP3    H2 8854   5.690   0.175   4.250
 2971TIP3   OH2 8855   0.436   7.335   3.492
 2971TIP3    H1 8856   0.497   7.361   3.423
 2971TIP3    H2 8857   0.463   7.387   3.568
 2972TIP3   OH2 8858   1.123   0.982   4.146
 2972TIP3    H1 8859   1.140   0.894   4.112
 2972TIP3    H2 8860   1.041   1.009   4.104
 2973TIP3   OH2 8861   1.645   5.372   2.009
 2973TIP3    H1 8862   1.553   5.388   2.029
 2973TIP3    H2 8863   1.646   5.351   1.915
 2974TIP3   OH2 8864   7.832   2.287   6.185
 2974TIP3    H1 8865   7.887   2.247   6.118
 2974TIP3    H2 8866   7.824   2.221   6.253
 2975TIP3   OH2 8867   3.355   3.422   6.748
 2975TIP3    H1 8868   3.312   3.337   6.756
 2975TIP3    H2 8869   3.363   3.454   6.837
 2976TIP3   OH2 8870   0.408   6.780   2.528
 2976TIP3    H1 8871   0.504   6.772   2.536
 2976TIP3    H2 8872   0.389   6.870   2.555
 2977TIP3   OH2 8873   5.562   0.731   2.358
 2977TIP3    H1 8874   5.546   0.678   2.436
 2977TIP3    H2 8875   5.518   0.683   2.287
 2978TIP3   OH2 8876   1.379   4.624   3.969
 2978TIP3    H1 8877   1.362   4.717   3.982
 2978TIP3    H2 8878   1.384   4.613   3.874
 2979TIP3   OH2 8879   3.632   6.603   2.683
 2979TIP3    H1 8880   3.670   6.667   2.623
 2979TIP3    H2 8881   3.542   6.633   2.697
 2980TIP3   OH2 8882   4.109   1.170   3.611
 2980TIP3    H1 8883   4.114   1.226   3.534
 2980TIP3    H2 8884   4.107   1.081   3.577
 2981TIP3   OH2 8885   3.839   6.495   3.503
 2981TIP3    H1 8886   3.749   6.512   3.530
 2981TIP3    H2 8887   3.844   6.400   3.495
 2982TIP3   OH2 8888   2.728   7.459   3.180
 2982TIP3    H1 8889   2.707   7.513   3.256
 2982TIP3    H2 8890   2.761   7.521   3.115
 2983TIP3   OH2 8891   0.640   6.591   4.729
 2983TIP3    H1 8892   0.656   6.674   4.774
 2983TIP3    H2 8893   0.554   6.603   4.687
 2984TIP3   OH2 8894   3.635   6.964   5.330
 2984TIP3    H1 8895   3.612   7.000   5.415
 2984TIP3    H2 8896   3.552   6.960   5.282
 2985TIP3   OH2 8897   1.656   6.281   0.897
 2985TIP3    H1 8898   1.735   6.258   0.947
 2985TIP3    H2 8899   1.619   6.197   0.871
 2986TIP3   OH2 8900   4.359   6.759   6.521
 2986TIP3    H1 8901   4.303   6.748   6.443
 2986TIP3    H2 8902   4.434   6.703   6.505
 2987TIP3   OH2 8903   4.640   7.569   0.332
 2987TIP3    H1 8904   4.619   7.638   0.395
 2987TIP3    H2 8905   4.727   7.592   0.300
 2988TIP3   OH2 8906   0.519   3.182   6.158
 2988TIP3    H1 8907   0.531   3.222   6.072
 2988TIP3    H2 8908   0.446   3.230   6.196
 2989TIP3   OH2 8909   6.436   2.760   3.297
 2989TIP3    H1 8910   6.437   2.664   3.292
 2989TIP3    H2 8911   6.411   2.779   3.387
 2990TIP3   OH2 8912   4.711   6.642   0.771
 2990TIP3    H1 8913   4.631   6.685   0.801
 2990TIP3    H2 8914   4.711   6.557   0.815
 2991TIP3   OH2 8915   2.028   4.633   0.647
 2991TIP3    H1 8916   2.061   4.581   0.574
 2991TIP3    H2 8917   1.981   4.571   0.702
 2992TIP3   OH2 8918   2.463   3.403   2.017
 2992TIP3    H1 8919   2.514   3.355   1.951
 2992TIP3    H2 8920   2.470   3.349   2.096
 2993TIP3   OH2 8921   2.620   5.752   0.321
 2993TIP3    H1 8922   2.538   5.776   0.276
 2993TIP3    H2 8923   2.676   5.828   0.310
 2994TIP3   OH2 8924   2.829   0.055   4.171
 2994TIP3    H1 8925   2.841   0.032   4.079
 2994TIP3    H2 8926   2.822  -0.030   4.215
 2995TIP3   OH2 8927   2.443   1.963   4.139
 2995TIP3    H1 8928   2.417   1.912   4.062
 2995TIP3    H2 8929   2.525   2.005   4.114
 2996TIP3   OH2 8930   6.851   2.248   3.435
 2996TIP3    H1 8931   6.755   2.254   3.430
 2996TIP3    H2 8932   6.872   2.163   3.398
 2997TIP3   OH2 8933   2.461   5.326   0.782
 2997TIP3    H1 8934   2.400   5.391   0.748
 2997TIP3    H2 8935   2.471   5.348   0.875
 2998TIP3   OH2 8936   2.715   0.648   6.373
 2998TIP3    H1 8937   2.624   0.675   6.369
 2998TIP3    H2 8938   2.737   0.648   6.466
 2999TIP3   OH2 8939   4.732   7.801   1.089
 2999TIP3    H1 8940   4.770   7.746   1.157
 2999TIP3    H2 8941   4.753   7.756   1.007
 3000TIP3   OH2 8942   6.066   0.452   4.304
 3000TIP3    H1 8943   6.132   0.433   4.237
 3000TIP3    H2 8944   6.070   0.378   4.364
 3001TIP3   OH2 8945   3.057   6.751   0.674
 3001TIP3    H1 8946   3.112   6.698   0.731
 3001TIP3    H2 8947   2.996   6.689   0.635
 3002TIP3   OH2 8948   4.208   4.319   1.758
 3002TIP3    H1 8949   4.194   4.404   1.716
 3002TIP3    H2 8950   4.293   4.290   1.724
 3003TIP3   OH2 8951   0.186   5.705   6.607
 3003TIP3    H1 8952   0.259   5.673   6.660
 3003TIP3    H2 8953   0.155   5.628   6.559
 3004TIP3   OH2 8954   4.514   4.740   0.386
 3004TIP3    H1 8955   4.500   4.779   0.300
 3004TIP3    H2 8956   4.515   4.814   0.446
 3005TIP3   OH2 8957   2.198   4.615   0.058
 3005TIP3    H1 8958   2.258   4.641   0.129
 3005TIP3    H2 8959   2.220   4.524   0.041
 3006TIP3   OH2 8960   3.063   4.500   3.049
 3006TIP3    H1 8961   3.065   4.438   3.122
 3006TIP3    H2 8962   3.151   4.496   3.012
 3007TIP3   OH2 8963   6.080   4.841   6.456
 3007TIP3    H1 8964   6.005   4.858   6.400
 3007TIP3    H2 8965   6.092   4.746   6.452
 3008TIP3   OH2 8966   8.133   4.446   6.583
 3008TIP3    H1 8967   8.139   4.499   6.663
 3008TIP3    H2 8968   8.219   4.455   6.542
 3009TIP3   OH2 8969   0.095   5.329   2.330
 3009TIP3    H1 8970   0.030   5.354   2.264
 3009TIP3    H2 8971   0.108   5.409   2.381
 3010TIP3   OH2 8972   4.622   7.083   0.929
 3010TIP3    H1 8973   4.598   7.034   1.007
 3010TIP3    H2 8974   4.709   7.051   0.905
 3011TIP3   OH2 8975   6.385   3.557   1.162
 3011TIP3    H1 8976   6.324   3.530   1.231
 3011TIP3    H2 8977   6.462   3.587   1.209
 3012TIP3   OH2 8978   2.284   1.176   1.121
 3012TIP3    H1 8979   2.189   1.179   1.123
 3012TIP3    H2 8980   2.312   1.245   1.181
 3013TIP3   OH2 8981   1.250   5.843   0.231
 3013TIP3    H1 8982   1.197   5.823   0.154
 3013TIP3    H2 8983   1.281   5.933   0.216
 3014TIP3   OH2 8984   2.976   1.780   3.518
 3014TIP3    H1 8985   3.021   1.722   3.456
 3014TIP3    H2 8986   3.028   1.773   3.599
 3015TIP3   OH2 8987   6.932   0.904   2.491
 3015TIP3    H1 8988   6.849   0.857   2.483
 3015TIP3    H2 8989   6.969   0.872   2.574
 3016TIP3   OH2 8990   2.474   4.293   5.553
 3016TIP3    H1 8991   2.468   4.200   5.528
 3016TIP3    H2 8992   2.388   4.329   5.530
 3017TIP3   OH2 8993   4.578   7.226   4.475
 3017TIP3    H1 8994   4.536   7.309   4.451
 3017TIP3    H2 8995   4.507   7.162   4.475
 3018TIP3   OH2 8996   2.870   1.359   2.290
 3018TIP3    H1 8997   2.892   1.266   2.288
 3018TIP3    H2 8998   2.902   1.393   2.206
 3019TIP3   OH2 8999   4.449   4.907   3.614
 3019TIP3    H1 9000   4.529   4.859   3.631
 3019TIP3    H2 9001   4.451   4.980   3.676
 3020TIP3   OH2 9002   1.827   4.957   4.178
 3020TIP3    H1 9003   1.737   4.947   4.149
 3020TIP3    H2 9004   1.842   4.882   4.236
 3021TIP3   OH2 9005   5.550   6.729   0.347
 3021TIP3    H1 9006   5.560   6.659   0.411
 3021TIP3    H2 9007   5.635   6.774   0.346
 3022TIP3   OH2 9008   7.172   3.078   2.173
 3022TIP3    H1 9009   7.237   3.013   2.200
 3022TIP3    H2 9010   7.143   3.049   2.087
 3023TIP3   OH2 9011   8.149   0.995   3.225
 3023TIP3    H1 9012   8.183   0.993   3.314
 3023TIP3    H2 9013   8.193   0.923   3.180
 3024TIP3   OH2 9014   7.239   3.765   0.134
 3024TIP3    H1 9015   7.211   3.854   0.153
 3024TIP3    H2 9016   7.168   3.710   0.167
 3025TIP3   OH2 9017   7.838   0.750   4.887
 3025TIP3    H1 9018   7.746   0.765   4.867
 3025TIP3    H2 9019   7.843   0.757   4.983
 3026TIP3   OH2 9020   7.939   7.046   2.955
 3026TIP3    H1 9021   7.953   6.968   3.009
 3026TIP3    H2 9022   7.862   7.088   2.994
 3027TIP3   OH2 9023   5.865   3.411   4.591
 3027TIP3    H1 9024   5.840   3.433   4.501
 3027TIP3    H2 9025   5.907   3.490   4.625
 3028TIP3   OH2 9026   1.691   2.515   2.884
 3028TIP3    H1 9027   1.781   2.515   2.918
 3028TIP3    H2 9028   1.656   2.429   2.908
 3029TIP3   OH2 9029   4.780   3.425   3.135
 3029TIP3    H1 9030   4.816   3.343   3.168
 3029TIP3    H2 9031   4.794   3.489   3.205
 3030TIP3   OH2 9032   8.219   7.467   3.688
 3030TIP3    H1 9033   8.227   7.430   3.600
 3030TIP3    H2 9034   8.127   7.455   3.711
 3031TIP3   OH2 9035   4.907   5.777   3.328
 3031TIP3    H1 9036   4.939   5.728   3.253
 3031TIP3    H2 9037   4.817   5.800   3.306
 3032TIP3   OH2 9038   6.806   3.265   4.844
 3032TIP3    H1 9039   6.846   3.342   4.885
 3032TIP3    H2 9040   6.877   3.225   4.794
 3033TIP3   OH2 9041   0.073   1.702   5.847
 3033TIP3    H1 9042   0.112   1.739   5.768
 3033TIP3    H2 9043   0.113   1.750   5.919
 3034TIP3   OH2 9044   2.366   6.317   2.948
 3034TIP3    H1 9045   2.339   6.373   3.021
 3034TIP3    H2 9046   2.456   6.345   2.929
 3035TIP3   OH2 9047  -0.010   7.591   2.626
 3035TIP3    H1 9048  -0.044   7.503   2.641
 3035TIP3    H2 9049   0.081   7.587   2.658
 3036TIP3   OH2 9050   4.829   3.735   3.848
 3036TIP3    H1 9051   4.859   3.794   3.779
 3036TIP3    H2 9052   4.796   3.793   3.917
 3037TIP3   OH2 9053   2.944   3.865   1.018
 3037TIP3    H1 9054   2.957   3.780   0.975
 3037TIP3    H2 9055   2.973   3.929   0.953
 3038TIP3   OH2 9056   0.472   2.777   2.521
 3038TIP3    H1 9057   0.567   2.789   2.529
 3038TIP3    H2 9058   0.435   2.839   2.583
 3039TIP3   OH2 9059   2.123   7.369   6.346
 3039TIP3    H1 9060   2.092   7.442   6.292
 3039TIP3    H2 9061   2.144   7.409   6.430
 3040TIP3   OH2 9062   1.970   0.426   3.593
 3040TIP3    H1 9063   1.948   0.482   3.518
 3040TIP3    H2 9064   2.048   0.467   3.631
 3041TIP3   OH2 9065   4.805   1.102   2.315
 3041TIP3    H1 9066   4.894   1.127   2.343
 3041TIP3    H2 9067   4.819   1.038   2.246
 3042TIP3   OH2 9068   1.079   5.748   0.667
 3042TIP3    H1 9069   1.102   5.841   0.657
 3042TIP3    H2 9070   1.081   5.734   0.762
 3043TIP3   OH2 9071   6.058   0.143   0.566
 3043TIP3    H1 9072   6.118   0.091   0.513
 3043TIP3    H2 9073   6.077   0.234   0.542
 3044TIP3   OH2 9074   4.576   0.036   3.283
 3044TIP3    H1 9075   4.585  -0.055   3.310
 3044TIP3    H2 9076   4.650   0.081   3.324
 3045TIP3   OH2 9077   7.140   0.336   6.216
 3045TIP3    H1 9078   7.192   0.373   6.288
 3045TIP3    H2 9079   7.118   0.248   6.245
 3046TIP3   OH2 9080   7.915   1.157   6.774
 3046TIP3    H1 9081   8.006   1.132   6.757
 3046TIP3    H2 9082   7.863   1.087   6.733
 3047TIP3   OH2 9083   0.758   3.134   5.162
 3047TIP3    H1 9084   0.739   3.040   5.165
 3047TIP3    H2 9085   0.685   3.175   5.208
 3048TIP3   OH2 9086   1.625   3.658   0.946
 3048TIP3    H1 9087   1.572   3.605   1.006
 3048TIP3    H2 9088   1.564   3.686   0.879
 3049TIP3   OH2 9089   8.210   0.122   2.237
 3049TIP3    H1 9090   8.287   0.073   2.263
 3049TIP3    H2 9091   8.243   0.189   2.177
 3050TIP3   OH2 9092   5.300   7.568   1.145
 3050TIP3    H1 9093   5.226   7.567   1.207
 3050TIP3    H2 9094   5.320   7.660   1.132
 3051TIP3   OH2 9095   0.389   7.131   0.649
 3051TIP3    H1 9096   0.347   7.206   0.691
 3051TIP3    H2 9097   0.330   7.106   0.578
 3052TIP3   OH2 9098   6.127   5.360   4.089
 3052TIP3    H1 9099   6.049   5.306   4.103
 3052TIP3    H2 9100   6.093   5.448   4.077
 3053TIP3   OH2 9101   4.697   3.919   1.134
 3053TIP3    H1 9102   4.659   3.911   1.221
 3053TIP3    H2 9103   4.782   3.874   1.140
 3054TIP3   OH2 9104   7.632   6.963   1.574
 3054TIP3    H1 9105   7.707   6.905   1.558
 3054TIP3    H2 9106   7.598   6.982   1.487
 3055TIP3   OH2 9107   5.572   3.755   6.594
 3055TIP3    H1 9108   5.635   3.814   6.635
 3055TIP3    H2 9109   5.497   3.811   6.573
 3056TIP3   OH2 9110   1.329   7.341   3.873
 3056TIP3    H1 9111   1.367   7.344   3.961
 3056TIP3    H2 9112   1.308   7.433   3.853
 3057TIP3   OH2 9113   3.654   5.578   6.025
 3057TIP3    H1 9114   3.668   5.514   5.955
 3057TIP3    H2 9115   3.617   5.527   6.097
 3058TIP3   OH2 9116   4.530   6.580   5.013
 3058TIP3    H1 9117   4.502   6.595   5.103
 3058TIP3    H2 9118   4.455   6.537   4.971
 3059TIP3   OH2 9119   2.215   3.365   1.829
 3059TIP3    H1 9120   2.234   3.417   1.907
 3059TIP3    H2 9121   2.252   3.415   1.757
 3060TIP3   OH2 9122   2.737   4.894   3.780
 3060TIP3    H1 9123   2.779   4.812   3.751
 3060TIP3    H2 9124   2.808   4.946   3.816
 3061TIP3   OH2 9125   1.744   5.672   2.406
 3061TIP3    H1 9126   1.654   5.650   2.429
 3061TIP3    H2 9127   1.770   5.604   2.344
 3062TIP3   OH2 9128   2.990   0.555   0.675
 3062TIP3    H1 9129   3.076   0.540   0.636
 3062TIP3    H2 9130   2.966   0.471   0.713
 3063TIP3   OH2 9131   0.060   2.374   5.328
 3063TIP3    H1 9132   0.043   2.426   5.406
 3063TIP3    H2 9133   0.153   2.387   5.310
 3064TIP3   OH2 9134   4.713   3.261   4.542
 3064TIP3    H1 9135   4.721   3.226   4.630
 3064TIP3    H2 9136   4.661   3.341   4.552
 3065TIP3   OH2 9137   5.513   7.238   2.916
 3065TIP3    H1 9138   5.424   7.215   2.945
 3065TIP3    H2 9139   5.559   7.261   2.996
 3066TIP3   OH2 9140   0.959   0.566   4.050
 3066TIP3    H1 9141   1.029   0.501   4.048
 3066TIP3    H2 9142   0.915   0.557   3.965
 3067TIP3   OH2 9143   5.659   1.583   4.624
 3067TIP3    H1 9144   5.624   1.559   4.538
 3067TIP3    H2 9145   5.615   1.665   4.646
 3068TIP3   OH2 9146   7.445   4.358   3.396
 3068TIP3    H1 9147   7.511   4.294   3.420
 3068TIP3    H2 9148   7.467   4.382   3.306
 3069TIP3   OH2 9149   0.012   1.479   2.934
 3069TIP3    H1 9150  -0.026   1.564   2.910
 3069TIP3    H2 9151   0.091   1.472   2.881
 3070TIP3   OH2 9152   2.843   4.899   4.950
 3070TIP3    H1 9153   2.759   4.914   4.993
 3070TIP3    H2 9154   2.823   4.846   4.873
 3071TIP3   OH2 9155   6.590   7.718   1.615
 3071TIP3    H1 9156   6.514   7.743   1.667
 3071TIP3    H2 9157   6.605   7.626   1.635
 3072TIP3   OH2 9158   4.170   4.371   6.489
 3072TIP3    H1 9159   4.185   4.346   6.398
 3072TIP3    H2 9160   4.255   4.402   6.519
 3073TIP3   OH2 9161   5.606   6.371   4.608
 3073TIP3    H1 9162   5.657   6.451   4.594
 3073TIP3    H2 9163   5.646   6.330   4.685
 3074TIP3   OH2 9164   4.439   0.067   3.624
 3074TIP3    H1 9165   4.502   0.138   3.609
 3074TIP3    H2 9166   4.389   0.061   3.543
 3075TIP3   OH2 9167   0.725   1.667   2.787
 3075TIP3    H1 9168   0.806   1.618   2.797
 3075TIP3    H2 9169   0.745   1.755   2.820
 3076TIP3   OH2 9170   6.970   7.599   5.738
 3076TIP3    H1 9171   6.939   7.647   5.661
 3076TIP3    H2 9172   6.921   7.517   5.736
 3077TIP3   OH2 9173   1.322   5.264   4.924
 3077TIP3    H1 9174   1.293   5.333   4.984
 3077TIP3    H2 9175   1.297   5.297   4.837
 3078TIP3   OH2 9176   6.713   2.431   3.760
 3078TIP3    H1 9177   6.658   2.353   3.748
 3078TIP3    H2 9178   6.658   2.493   3.807
 3079TIP3   OH2 9179   3.227   6.007   2.545
 3079TIP3    H1 9180   3.273   5.924   2.535
 3079TIP3    H2 9181   3.273   6.069   2.488
 3080TIP3   OH2 9182   5.487   4.062   5.757
 3080TIP3    H1 9183   5.533   4.014   5.688
 3080TIP3    H2 9184   5.532   4.036   5.838
 3081TIP3   OH2 9185   0.467   4.506   4.673
 3081TIP3    H1 9186   0.556   4.507   4.637
 3081TIP3    H2 9187   0.411   4.523   4.597
 3082TIP3   OH2 9188   3.449   4.341   2.082
 3082TIP3    H1 9189   3.514   4.327   2.151
 3082TIP3    H2 9190   3.481   4.417   2.033
 3083TIP3   OH2 9191   6.448   3.456   2.217
 3083TIP3    H1 9192   6.361   3.417   2.226
 3083TIP3    H2 9193   6.504   3.403   2.274
 3084TIP3   OH2 9194   3.304   3.898   0.182
 3084TIP3    H1 9195   3.301   3.967   0.248
 3084TIP3    H2 9196   3.260   3.935   0.106
 3085TIP3   OH2 9197   6.012   3.931   1.972
 3085TIP3    H1 9198   6.007   3.987   1.895
 3085TIP3    H2 9199   6.101   3.942   2.005
 3086TIP3   OH2 9200   7.043   5.979   5.988
 3086TIP3    H1 9201   7.053   6.017   6.075
 3086TIP3    H2 9202   7.129   5.990   5.947
 3087TIP3   OH2 9203   6.556   4.211   2.018
 3087TIP3    H1 9204   6.552   4.116   2.004
 3087TIP3    H2 9205   6.638   4.224   2.066
 3088TIP3   OH2 9206   0.448   7.313   6.393
 3088TIP3    H1 9207   0.440   7.399   6.436
 3088TIP3    H2 9208   0.490   7.332   6.309
 3089TIP3   OH2 9209   8.253   7.216   1.683
 3089TIP3    H1 9210   8.210   7.291   1.724
 3089TIP3    H2 9211   8.240   7.144   1.745
 3090TIP3   OH2 9212   3.962   5.932   5.107
 3090TIP3    H1 9213   3.879   5.911   5.063
 3090TIP3    H2 9214   4.019   5.858   5.086
 3091TIP3   OH2 9215   1.164   7.673   1.443
 3091TIP3    H1 9216   1.148   7.632   1.358
 3091TIP3    H2 9217   1.231   7.739   1.426
 3092TIP3   OH2 9218   7.165   3.591   5.817
 3092TIP3    H1 9219   7.243   3.628   5.777
 3092TIP3    H2 9220   7.108   3.567   5.744
 3093TIP3   OH2 9221   0.348   7.631   2.215
 3093TIP3    H1 9222   0.280   7.692   2.245
 3093TIP3    H2 9223   0.329   7.619   2.122
 3094TIP3   OH2 9224   0.530   5.823   6.189
 3094TIP3    H1 9225   0.603   5.851   6.133
 3094TIP3    H2 9226   0.474   5.771   6.131
 3095TIP3   OH2 9227   5.165   3.804   6.408
 3095TIP3    H1 9228   5.137   3.891   6.379
 3095TIP3    H2 9229   5.110   3.743   6.360
 3096TIP3   OH2 9230   4.353   5.066   0.454
 3096TIP3    H1 9231   4.273   5.016   0.472
 3096TIP3    H2 9232   4.346   5.142   0.512
 3097TIP3   OH2 9233   0.236   2.035   6.037
 3097TIP3    H1 9234   0.256   1.946   6.066
 3097TIP3    H2 9235   0.147   2.030   6.003
 3098TIP3   OH2 9236   2.351   2.191   5.685
 3098TIP3    H1 9237   2.341   2.187   5.590
 3098TIP3    H2 9238   2.433   2.239   5.698
 3099TIP3   OH2 9239   3.669   3.095   4.874
 3099TIP3    H1 9240   3.594   3.080   4.931
 3099TIP3    H2 9241   3.634   3.148   4.802
 3100TIP3   OH2 9242   7.532   5.580   2.330
 3100TIP3    H1 9243   7.561   5.646   2.266
 3100TIP3    H2 9244   7.439   5.569   2.313
 3101TIP3   OH2 9245   2.442   7.588   4.040
 3101TIP3    H1 9246   2.353   7.554   4.027
 3101TIP3    H2 9247   2.429   7.680   4.061
 3102TIP3   OH2 9248   2.071   1.036   0.164
 3102TIP3    H1 9249   2.045   1.008   0.251
 3102TIP3    H2 9250   2.000   1.094   0.135
 3103TIP3   OH2 9251   7.661   4.790   2.504
 3103TIP3    H1 9252   7.747   4.792   2.545
 3103TIP3    H2 9253   7.633   4.699   2.512
 3104TIP3   OH2 9254   4.535   4.584   1.603
 3104TIP3    H1 9255   4.547   4.547   1.516
 3104TIP3    H2 9256   4.442   4.605   1.607
 3105TIP3   OH2 9257   4.533   2.174   5.505
 3105TIP3    H1 9258   4.456   2.135   5.548
 3105TIP3    H2 9259   4.522   2.152   5.412
 3106TIP3   OH2 9260   5.278   5.254   4.037
 3106TIP3    H1 9261   5.211   5.218   3.979
 3106TIP3    H2 9262   5.292   5.187   4.104
 3107TIP3   OH2 9263   4.879   1.398   0.595
 3107TIP3    H1 9264   4.843   1.310   0.601
 3107TIP3    H2 9265   4.974   1.386   0.597
 3108TIP3   OH2 9266   4.606   4.094   6.691
 3108TIP3    H1 9267   4.646   4.181   6.685
 3108TIP3    H2 9268   4.589   4.082   6.784
 3109TIP3   OH2 9269   4.773   5.463   6.261
 3109TIP3    H1 9270   4.696   5.489   6.311
 3109TIP3    H2 9271   4.847   5.494   6.312
 3110TIP3   OH2 9272   3.125   3.657   2.174
 3110TIP3    H1 9273   3.038   3.643   2.209
 3110TIP3    H2 9274   3.176   3.582   2.205
 3111TIP3   OH2 9275   2.221   5.202   6.396
 3111TIP3    H1 9276   2.144   5.156   6.361
 3111TIP3    H2 9277   2.295   5.167   6.347
 3112TIP3   OH2 9278   5.903   0.822   4.841
 3112TIP3    H1 9279   5.994   0.797   4.829
 3112TIP3    H2 9280   5.869   0.760   4.906
 3113TIP3   OH2 9281   2.989   5.968   3.872
 3113TIP3    H1 9282   2.902   5.991   3.838
 3113TIP3    H2 9283   3.032   5.921   3.800
 3114TIP3   OH2 9284   1.234   2.960   2.407
 3114TIP3    H1 9285   1.191   2.934   2.488
 3114TIP3    H2 9286   1.286   2.883   2.382
 3115TIP3   OH2 9287   4.044   0.692   3.581
 3115TIP3    H1 9288   4.096   0.773   3.587
 3115TIP3    H2 9289   4.088   0.641   3.513
 3116TIP3   OH2 9290   6.468   7.028   1.966
 3116TIP3    H1 9291   6.395   6.973   1.995
 3116TIP3    H2 9292   6.541   6.967   1.954
 3117TIP3   OH2 9293   2.845   6.895   6.522
 3117TIP3    H1 9294   2.770   6.881   6.581
 3117TIP3    H2 9295   2.904   6.822   6.540
 3118TIP3   OH2 9296   4.193   5.775   2.359
 3118TIP3    H1 9297   4.228   5.699   2.313
 3118TIP3    H2 9298   4.098   5.767   2.349
 3119TIP3   OH2 9299   7.380   5.143   6.165
 3119TIP3    H1 9300   7.415   5.198   6.095
 3119TIP3    H2 9301   7.365   5.058   6.125
 3120TIP3   OH2 9302   5.829   2.629   5.428
 3120TIP3    H1 9303   5.839   2.723   5.441
 3120TIP3    H2 9304   5.910   2.602   5.384
 3121TIP3   OH2 9305   2.822   0.513   4.457
 3121TIP3    H1 9306   2.740   0.467   4.440
 3121TIP3    H2 9307   2.879   0.446   4.495
 3122TIP3   OH2 9308   6.417   6.486   5.325
 3122TIP3    H1 9309   6.452   6.460   5.240
 3122TIP3    H2 9310   6.396   6.579   5.315
 3123TIP3   OH2 9311   0.864   4.600   3.315
 3123TIP3    H1 9312   0.913   4.645   3.384
 3123TIP3    H2 9313   0.781   4.647   3.309
 3124TIP3   OH2 9314   0.172   5.474   6.449
 3124TIP3    H1 9315   0.177   5.388   6.490
 3124TIP3    H2 9316   0.080   5.485   6.426
 3125TIP3   OH2 9317   6.322   3.072   0.519
 3125TIP3    H1 9318   6.303   2.981   0.495
 3125TIP3    H2 9319   6.278   3.124   0.452
 3126TIP3   OH2 9320   1.719   2.416   4.679
 3126TIP3    H1 9321   1.706   2.509   4.697
 3126TIP3    H2 9322   1.655   2.396   4.611
 3127TIP3   OH2 9323   7.917   1.418   4.938
 3127TIP3    H1 9324   7.986   1.391   4.878
 3127TIP3    H2 9325   7.962   1.442   5.019
 3128TIP3   OH2 9326   5.546   5.948   5.757
 3128TIP3    H1 9327   5.614   5.894   5.797
 3128TIP3    H2 9328   5.480   5.959   5.825
 3129TIP3   OH2 9329   6.218   6.511   1.822
 3129TIP3    H1 9330   6.253   6.588   1.777
 3129TIP3    H2 9331   6.277   6.440   1.796
 3130TIP3   OH2 9332   2.486   7.373   6.669
 3130TIP3    H1 9333   2.492   7.440   6.601
 3130TIP3    H2 9334   2.577   7.353   6.690
 3131TIP3   OH2 9335   4.757   2.819   4.118
 3131TIP3    H1 9336   4.684   2.815   4.180
 3131TIP3    H2 9337   4.830   2.853   4.170
 3132TIP3   OH2 9338   4.495   4.178   2.167
 3132TIP3    H1 9339   4.503   4.213   2.256
 3132TIP3    H2 9340   4.582   4.187   2.130
 3133TIP3   OH2 9341   3.516   6.964   3.092
 3133TIP3    H1 9342   3.560   6.879   3.083
 3133TIP3    H2 9343   3.426   6.942   3.113
 3134TIP3   OH2 9344   8.242   1.113   1.049
 3134TIP3    H1 9345   8.175   1.180   1.055
 3134TIP3    H2 9346   8.201   1.035   1.086
 3135TIP3   OH2 9347   6.824   1.731   1.332
 3135TIP3    H1 9348   6.838   1.637   1.348
 3135TIP3    H2 9349   6.802   1.767   1.418
 3136TIP3   OH2 9350   2.906   4.464   4.607
 3136TIP3    H1 9351   2.960   4.521   4.553
 3136TIP3    H2 9352   2.817   4.494   4.592
 3137TIP3   OH2 9353   0.646   0.706   1.621
 3137TIP3    H1 9354   0.614   0.796   1.626
 3137TIP3    H2 9355   0.730   0.707   1.667
 3138TIP3   OH2 9356   7.284   5.901   1.238
 3138TIP3    H1 9357   7.293   5.812   1.271
 3138TIP3    H2 9358   7.291   5.956   1.316
 3139TIP3   OH2 9359   0.097   3.009   5.152
 3139TIP3    H1 9360   0.065   2.956   5.079
 3139TIP3    H2 9361   0.030   3.076   5.164
 3140TIP3   OH2 9362   0.280   2.963   2.357
 3140TIP3    H1 9363   0.373   2.942   2.351
 3140TIP3    H2 9364   0.277   3.059   2.355
 3141TIP3   OH2 9365   3.507   5.437   2.425
 3141TIP3    H1 9366   3.541   5.486   2.350
 3141TIP3    H2 9367   3.523   5.345   2.403
 3142TIP3   OH2 9368   3.615   1.025   1.183
 3142TIP3    H1 9369   3.557   1.013   1.108
 3142TIP3    H2 9370   3.701   1.038   1.145
 3143TIP3   OH2 9371   0.420   5.294   2.251
 3143TIP3    H1 9372   0.348   5.270   2.193
 3143TIP3    H2 9373   0.381   5.295   2.338
 3144TIP3   OH2 9374   6.859   2.842   3.368
 3144TIP3    H1 9375   6.948   2.867   3.393
 3144TIP3    H2 9376   6.823   2.919   3.325
 3145TIP3   OH2 9377   6.006   3.051   3.487
 3145TIP3    H1 9378   6.034   3.118   3.550
 3145TIP3    H2 9379   5.957   3.099   3.421
 3146TIP3   OH2 9380   2.623   6.646   3.189
 3146TIP3    H1 9381   2.691   6.620   3.252
 3146TIP3    H2 9382   2.552   6.681   3.243
 3147TIP3   OH2 9383   7.822   2.395   1.957
 3147TIP3    H1 9384   7.880   2.320   1.945
 3147TIP3    H2 9385   7.766   2.371   2.030
 3148TIP3   OH2 9386   7.663   4.246   2.454
 3148TIP3    H1 9387   7.677   4.252   2.548
 3148TIP3    H2 9388   7.751   4.232   2.418
 3149TIP3   OH2 9389   6.697   1.695   1.596
 3149TIP3    H1 9390   6.733   1.640   1.666
 3149TIP3    H2 9391   6.606   1.710   1.623
 3150TIP3   OH2 9392   3.242   5.832   4.478
 3150TIP3    H1 9393   3.288   5.915   4.469
 3150TIP3    H2 9394   3.161   5.853   4.524
 3151TIP3   OH2 9395   5.485   0.204   6.668
 3151TIP3    H1 9396   5.578   0.218   6.650
 3151TIP3    H2 9397   5.444   0.207   6.581
 3152TIP3   OH2 9398   2.430   3.233   2.235
 3152TIP3    H1 9399   2.423   3.173   2.161
 3152TIP3    H2 9400   2.379   3.193   2.305
 3153TIP3   OH2 9401   4.861   7.583   2.921
 3153TIP3    H1 9402   4.865   7.533   3.002
 3153TIP3    H2 9403   4.945   7.565   2.878
 3154TIP3   OH2 9404   2.982   5.538   1.049
 3154TIP3    H1 9405   3.065   5.500   1.021
 3154TIP3    H2 9406   2.921   5.464   1.049
 3155TIP3   OH2 9407   3.164   4.758   6.659
 3155TIP3    H1 9408   3.131   4.710   6.734
 3155TIP3    H2 9409   3.256   4.774   6.679
 3156TIP3   OH2 9410   6.824   3.913   1.485
 3156TIP3    H1 9411   6.755   3.903   1.419
 3156TIP3    H2 9412   6.788   3.869   1.562
 3157TIP3   OH2 9413   2.730   6.035   5.553
 3157TIP3    H1 9414   2.650   6.026   5.604
 3157TIP3    H2 9415   2.700   6.066   5.467
 3158TIP3   OH2 9416   1.738   4.048   4.170
 3158TIP3    H1 9417   1.743   3.997   4.251
 3158TIP3    H2 9418   1.818   4.101   4.169
 3159TIP3   OH2 9419   6.941   1.841   3.979
 3159TIP3    H1 9420   6.864   1.888   4.010
 3159TIP3    H2 9421   6.908   1.784   3.910
 3160TIP3   OH2 9422   7.442   2.345   5.753
 3160TIP3    H1 9423   7.516   2.352   5.812
 3160TIP3    H2 9424   7.414   2.254   5.759
 3161TIP3   OH2 9425   2.304   7.123   5.597
 3161TIP3    H1 9426   2.399   7.124   5.595
 3161TIP3    H2 9427   2.281   7.101   5.687
 3162TIP3   OH2 9428   0.603   0.917   3.058
 3162TIP3    H1 9429   0.690   0.880   3.071
 3162TIP3    H2 9430   0.558   0.852   3.003
 3163TIP3   OH2 9431   1.851   0.685   4.440
 3163TIP3    H1 9432   1.772   0.702   4.491
 3163TIP3    H2 9433   1.826   0.706   4.350
 3164TIP3   OH2 9434   6.629   0.921   1.781
 3164TIP3    H1 9435   6.713   0.887   1.748
 3164TIP3    H2 9436   6.563   0.881   1.724
 3165TIP3   OH2 9437   4.125   0.376   5.013
 3165TIP3    H1 9438   4.045   0.422   4.986
 3165TIP3    H2 9439   4.109   0.285   4.991
 3166TIP3   OH2 9440   1.276   2.109   6.032
 3166TIP3    H1 9441   1.340   2.167   6.073
 3166TIP3    H2 9442   1.219   2.082   6.104
 3167TIP3   OH2 9443   3.358   3.787   1.329
 3167TIP3    H1 9444   3.324   3.876   1.337
 3167TIP3    H2 9445   3.283   3.731   1.346
 3168TIP3   OH2 9446   3.670   6.248   5.511
 3168TIP3    H1 9447   3.622   6.174   5.548
 3168TIP3    H2 9448   3.739   6.266   5.575
 3169TIP3   OH2 9449   6.942   3.970   4.466
 3169TIP3    H1 9450   7.037   3.961   4.467
 3169TIP3    H2 9451   6.921   3.986   4.374
 3170TIP3   OH2 9452   2.364   3.749   0.941
 3170TIP3    H1 9453   2.447   3.746   0.988
 3170TIP3    H2 9454   2.341   3.842   0.937
 3171TIP3   OH2 9455   0.392   6.473   0.962
 3171TIP3    H1 9456   0.460   6.512   1.018
 3171TIP3    H2 9457   0.375   6.388   1.001
 3172TIP3   OH2 9458   6.739   4.305   2.208
 3172TIP3    H1 9459   6.719   4.394   2.235
 3172TIP3    H2 9460   6.821   4.313   2.158
 3173TIP3   OH2 9461   6.187   1.042   6.107
 3173TIP3    H1 9462   6.132   1.028   6.031
 3173TIP3    H2 9463   6.202   0.955   6.143
 3174TIP3   OH2 9464   6.140   1.676   5.666
 3174TIP3    H1 9465   6.085   1.610   5.709
 3174TIP3    H2 9466   6.228   1.639   5.668
 3175TIP3   OH2 9467   0.469   7.727   0.935
 3175TIP3    H1 9468   0.480   7.688   1.022
 3175TIP3    H2 9469   0.376   7.717   0.916
 3176TIP3   OH2 9470   3.609   2.078   3.075
 3176TIP3    H1 9471   3.645   2.057   3.162
 3176TIP3    H2 9472   3.656   2.157   3.049
 3177TIP3   OH2 9473   1.247   6.526   4.848
 3177TIP3    H1 9474   1.245   6.532   4.752
 3177TIP3    H2 9475   1.305   6.597   4.875
 3178TIP3   OH2 9476   5.515   6.944   6.179
 3178TIP3    H1 9477   5.479   6.948   6.091
 3178TIP3    H2 9478   5.443   6.914   6.234
 3179TIP3   OH2 9479   3.452   6.056   1.200
 3179TIP3    H1 9480   3.488   6.144   1.200
 3179TIP3    H2 9481   3.402   6.050   1.118
 3180TIP3   OH2 9482   4.908   6.376   5.205
 3180TIP3    H1 9483   4.853   6.435   5.153
 3180TIP3    H2 9484   4.889   6.289   5.169
 3181TIP3   OH2 9485   1.256   4.604   2.109
 3181TIP3    H1 9486   1.245   4.576   2.199
 3181TIP3    H2 9487   1.338   4.563   2.080
 3182TIP3   OH2 9488   8.200   2.873   5.336
 3182TIP3    H1 9489   8.269   2.839   5.279
 3182TIP3    H2 9490   8.120   2.830   5.305
 3183TIP3   OH2 9491   7.962   6.514   0.603
 3183TIP3    H1 9492   7.888   6.454   0.614
 3183TIP3    H2 9493   8.038   6.462   0.628
 3184TIP3   OH2 9494   0.649   4.254   6.569
 3184TIP3    H1 9495   0.696   4.329   6.605
 3184TIP3    H2 9496   0.565   4.253   6.616
 3185TIP3   OH2 9497   3.153   1.058   2.065
 3185TIP3    H1 9498   3.209   1.135   2.070
 3185TIP3    H2 9499   3.204   0.994   2.015
 3186TIP3   OH2 9500   7.580   6.622   5.867
 3186TIP3    H1 9501   7.561   6.574   5.787
 3186TIP3    H2 9502   7.643   6.689   5.842
 3187TIP3   OH2 9503   2.192   5.714   1.343
 3187TIP3    H1 9504   2.130   5.662   1.394
 3187TIP3    H2 9505   2.214   5.658   1.268
 3188TIP3   OH2 9506   5.122   2.089   2.531
 3188TIP3    H1 9507   5.200   2.143   2.532
 3188TIP3    H2 9508   5.083   2.102   2.618
 3189TIP3   OH2 9509   5.863   5.232   5.011
 3189TIP3    H1 9510   5.895   5.163   5.069
 3189TIP3    H2 9511   5.894   5.313   5.051
 3190TIP3   OH2 9512   3.233   5.066   1.226
 3190TIP3    H1 9513   3.302   5.130   1.209
 3190TIP3    H2 9514   3.230   5.013   1.147
 3191TIP3   OH2 9515   1.976   3.407   4.766
 3191TIP3    H1 9516   1.892   3.395   4.810
 3191TIP3    H2 9517   1.954   3.422   4.675
 3192TIP3   OH2 9518   8.157   4.892   1.557
 3192TIP3    H1 9519   8.093   4.905   1.627
 3192TIP3    H2 9520   8.228   4.843   1.598
 3193TIP3   OH2 9521   2.879   5.322   5.916
 3193TIP3    H1 9522   2.869   5.416   5.900
 3193TIP3    H2 9523   2.789   5.291   5.925
 3194TIP3   OH2 9524   0.348   5.206   5.676
 3194TIP3    H1 9525   0.301   5.204   5.593
 3194TIP3    H2 9526   0.414   5.275   5.665
 3195TIP3   OH2 9527   4.966   1.356   4.827
 3195TIP3    H1 9528   4.953   1.370   4.921
 3195TIP3    H2 9529   4.892   1.301   4.801
 3196TIP3   OH2 9530   7.018   0.590   3.365
 3196TIP3    H1 9531   6.928   0.600   3.335
 3196TIP3    H2 9532   7.014   0.599   3.460
 3197TIP3   OH2 9533   2.023   0.045   1.350
 3197TIP3    H1 9534   1.985   0.091   1.275
 3197TIP3    H2 9535   2.096  -0.005   1.313
 3198TIP3   OH2 9536   6.794   6.789   6.352
 3198TIP3    H1 9537   6.727   6.720   6.349
 3198TIP3    H2 9538   6.848   6.774   6.274
 3199TIP3   OH2 9539   7.263   2.894   3.907
 3199TIP3    H1 9540   7.272   2.896   3.812
 3199TIP3    H2 9541   7.254   2.801   3.928
 3200TIP3   OH2 9542   0.775   6.667   0.294
 3200TIP3    H1 9543   0.751   6.649   0.385
 3200TIP3    H2 9544   0.707   6.727   0.263
 3201TIP3   OH2 9545   1.579   2.076   6.298
 3201TIP3    H1 9546   1.557   2.144   6.234
 3201TIP3    H2 9547   1.500   2.023   6.305
 3202TIP3   OH2 9548   1.332   4.655   3.359
 3202TIP3    H1 9549   1.385   4.580   3.386
 3202TIP3    H2 9550   1.273   4.620   3.293
 3203TIP3   OH2 9551   3.385   6.754   5.850
 3203TIP3    H1 9552   3.304   6.748   5.799
 3203TIP3    H2 9553   3.436   6.677   5.824
 3204TIP3   OH2 9554   5.698   1.928   1.320
 3204TIP3    H1 9555   5.656   1.965   1.242
 3204TIP3    H2 9556   5.763   1.866   1.285
 3205TIP3   OH2 9557   2.514   2.450   5.601
 3205TIP3    H1 9558   2.427   2.468   5.635
 3205TIP3    H2 9559   2.525   2.510   5.528
 3206TIP3   OH2 9560   5.667   4.497   2.560
 3206TIP3    H1 9561   5.641   4.435   2.628
 3206TIP3    H2 9562   5.596   4.562   2.560
 3207TIP3   OH2 9563   0.597   0.515   4.640
 3207TIP3    H1 9564   0.570   0.448   4.577
 3207TIP3    H2 9565   0.662   0.568   4.593
 3208TIP3   OH2 9566   3.106   4.803   4.996
 3208TIP3    H1 9567   3.139   4.844   4.916
 3208TIP3    H2 9568   3.013   4.827   4.998
 3209TIP3   OH2 9569   8.114   3.081   6.346
 3209TIP3    H1 9570   8.110   2.986   6.343
 3209TIP3    H2 9571   8.206   3.102   6.326
 3210TIP3   OH2 9572   7.765   0.225   1.365
 3210TIP3    H1 9573   7.804   0.188   1.286
 3210TIP3    H2 9574   7.697   0.285   1.332
 3211TIP3   OH2 9575   4.250   4.561   4.894
 3211TIP3    H1 9576   4.268   4.488   4.953
 3211TIP3    H2 9577   4.282   4.530   4.808
 3212TIP3   OH2 9578   5.602   2.828   6.559
 3212TIP3    H1 9579   5.613   2.888   6.633
 3212TIP3    H2 9580   5.548   2.877   6.497
 3213TIP3   OH2 9581   0.796   0.860   4.142
 3213TIP3    H1 9582   0.822   0.889   4.055
 3213TIP3    H2 9583   0.846   0.780   4.156
 3214TIP3   OH2 9584   7.619   4.730   1.501
 3214TIP3    H1 9585   7.711   4.757   1.503
 3214TIP3    H2 9586   7.570   4.811   1.489
 3215TIP3   OH2 9587   3.124   6.744   4.021
 3215TIP3    H1 9588   3.133   6.786   4.106
 3215TIP3    H2 9589   3.136   6.815   3.958
 3216TIP3   OH2 9590   1.819   0.944   5.143
 3216TIP3    H1 9591   1.734   0.921   5.106
 3216TIP3    H2 9592   1.882   0.890   5.096
 3217TIP3   OH2 9593   4.497   0.853   6.368
 3217TIP3    H1 9594   4.576   0.893   6.332
 3217TIP3    H2 9595   4.528   0.796   6.438
 3218TIP3   OH2 9596   7.191   3.359   5.954
 3218TIP3    H1 9597   7.224   3.321   5.873
 3218TIP3    H2 9598   7.171   3.450   5.932
 3219TIP3   OH2 9599   0.835   0.714   2.427
 3219TIP3    H1 9600   0.848   0.770   2.350
 3219TIP3    H2 9601   0.842   0.625   2.394
 3220TIP3   OH2 9602   6.139   2.986   0.710
 3220TIP3    H1 9603   6.218   3.034   0.685
 3220TIP3    H2 9604   6.171   2.904   0.747
 3221TIP3   OH2 9605   8.126   4.083   3.233
 3221TIP3    H1 9606   8.094   4.131   3.310
 3221TIP3    H2 9607   8.156   4.151   3.173
 3222TIP3   OH2 9608   7.273   1.630   4.774
 3222TIP3    H1 9609   7.230   1.713   4.756
 3222TIP3    H2 9610   7.359   1.655   4.808
 3223TIP3   OH2 9611   1.130   0.812   2.401
 3223TIP3    H1 9612   1.140   0.791   2.308
 3223TIP3    H2 9613   1.220   0.810   2.435
 3224TIP3   OH2 9614   1.022   2.338   4.179
 3224TIP3    H1 9615   0.999   2.424   4.144
 3224TIP3    H2 9616   1.062   2.357   4.263
 3225TIP3   OH2 9617   7.882   3.147   5.572
 3225TIP3    H1 9618   7.922   3.132   5.487
 3225TIP3    H2 9619   7.922   3.082   5.629
 3226TIP3   OH2 9620   0.729   5.051   1.151
 3226TIP3    H1 9621   0.705   4.958   1.151
 3226TIP3    H2 9622   0.675   5.089   1.082
 3227TIP3   OH2 9623   4.074   1.476   1.389
 3227TIP3    H1 9624   4.054   1.569   1.379
 3227TIP3    H2 9625   3.993   1.437   1.423
 3228TIP3   OH2 9626   0.819   5.726   1.761
 3228TIP3    H1 9627   0.826   5.786   1.836
 3228TIP3    H2 9628   0.742   5.673   1.779
 3229TIP3   OH2 9629   0.228   6.380   0.070
 3229TIP3    H1 9630   0.268   6.438   0.135
 3229TIP3    H2 9631   0.226   6.431  -0.011
 3230TIP3   OH2 9632   4.533   4.812   1.759
 3230TIP3    H1 9633   4.439   4.807   1.773
 3230TIP3    H2 9634   4.555   4.731   1.713
 3231TIP3   OH2 9635   1.399   5.528   5.789
 3231TIP3    H1 9636   1.355   5.445   5.812
 3231TIP3    H2 9637   1.440   5.510   5.705
 3232TIP3   OH2 9638   1.151   3.566   1.760
 3232TIP3    H1 9639   1.144   3.498   1.827
 3232TIP3    H2 9640   1.223   3.538   1.704
 3233TIP3   OH2 9641   3.556   4.040   1.033
 3233TIP3    H1 9642   3.530   3.962   0.985
 3233TIP3    H2 9643   3.651   4.047   1.019
 3234TIP3   OH2 9644   1.604   2.042   2.300
 3234TIP3    H1 9645   1.582   1.990   2.222
 3234TIP3    H2 9646   1.565   2.128   2.283
 3235TIP3   OH2 9647   0.929   3.726   4.150
 3235TIP3    H1 9648   0.937   3.768   4.064
 3235TIP3    H2 9649   1.011   3.746   4.194
 3236TIP3   OH2 9650   0.727   4.707   4.694
 3236TIP3    H1 9651   0.805   4.701   4.639
 3236TIP3    H2 9652   0.657   4.733   4.633
 3237TIP3   OH2 9653   4.793   3.540   4.162
 3237TIP3    H1 9654   4.876   3.562   4.204
 3237TIP3    H2 9655   4.784   3.446   4.175
 3238TIP3   OH2 9656   2.610   3.975   2.038
 3238TIP3    H1 9657   2.586   4.042   1.973
 3238TIP3    H2 9658   2.536   3.975   2.099
 3239TIP3   OH2 9659   0.214   4.920   5.586
 3239TIP3    H1 9660   0.305   4.900   5.566
 3239TIP3    H2 9661   0.184   4.846   5.638
 3240TIP3   OH2 9662   7.933   3.447   5.717
 3240TIP3    H1 9663   7.919   3.360   5.679
 3240TIP3    H2 9664   7.884   3.446   5.799
 3241TIP3   OH2 9665   5.637   5.718   1.561
 3241TIP3    H1 9666   5.693   5.790   1.533
 3241TIP3    H2 9667   5.575   5.706   1.489
 3242TIP3   OH2 9668   1.886   4.413   3.493
 3242TIP3    H1 9669   1.814   4.359   3.460
 3242TIP3    H2 9670   1.964   4.372   3.458
 3243TIP3   OH2 9671   2.275   0.748   3.452
 3243TIP3    H1 9672   2.328   0.766   3.374
 3243TIP3    H2 9673   2.244   0.833   3.480
 3244TIP3   OH2 9674   7.892   7.417   5.141
 3244TIP3    H1 9675   7.939   7.494   5.108
 3244TIP3    H2 9676   7.847   7.382   5.064
 3245TIP3   OH2 9677   4.864   7.004   2.255
 3245TIP3    H1 9678   4.858   7.099   2.271
 3245TIP3    H2 9679   4.890   6.998   2.163
 3246TIP3   OH2 9680   5.699   4.973   2.506
 3246TIP3    H1 9681   5.647   5.019   2.440
 3246TIP3    H2 9682   5.764   5.037   2.535
 3247TIP3   OH2 9683   1.430   1.612   3.472
 3247TIP3    H1 9684   1.514   1.566   3.479
 3247TIP3    H2 9685   1.365   1.548   3.500
 3248TIP3   OH2 9686   4.916   1.876   6.441
 3248TIP3    H1 9687   4.966   1.877   6.360
 3248TIP3    H2 9688   4.867   1.793   6.439
 3249TIP3   OH2 9689   7.371   6.269   3.567
 3249TIP3    H1 9690   7.342   6.277   3.658
 3249TIP3    H2 9691   7.459   6.308   3.567
 3250TIP3   OH2 9692   5.146   2.046   1.741
 3250TIP3    H1 9693   5.127   2.000   1.823
 3250TIP3    H2 9694   5.113   2.135   1.756
 3251TIP3   OH2 9695   2.005   5.063   5.655
 3251TIP3    H1 9696   2.019   5.069   5.749
 3251TIP3    H2 9697   2.092   5.078   5.617
 3252TIP3   OH2 9698   7.726   1.981   6.187
 3252TIP3    H1 9699   7.729   1.892   6.222
 3252TIP3    H2 9700   7.663   2.027   6.243
 3253TIP3   OH2 9701   6.156   1.240   5.573
 3253TIP3    H1 9702   6.161   1.326   5.616
 3253TIP3    H2 9703   6.063   1.218   5.574
 3254TIP3   OH2 9704   1.974   4.010   5.626
 3254TIP3    H1 9705   2.022   4.087   5.597
 3254TIP3    H2 9706   1.889   4.044   5.656
 3255TIP3   OH2 9707   7.197   6.813   3.583
 3255TIP3    H1 9708   7.188   6.738   3.525
 3255TIP3    H2 9709   7.260   6.871   3.540
 3256TIP3   OH2 9710   5.101   4.107   3.672
 3256TIP3    H1 9711   5.062   4.137   3.590
 3256TIP3    H2 9712   5.145   4.025   3.649
 3257TIP3   OH2 9713   3.125   1.780   0.030
 3257TIP3    H1 9714   3.102   1.869   0.002
 3257TIP3    H2 9715   3.191   1.793   0.099
 3258TIP3   OH2 9716   4.266   5.742   3.208
 3258TIP3    H1 9717   4.249   5.781   3.122
 3258TIP3    H2 9718   4.298   5.654   3.188
 3259TIP3   OH2 9719   2.169   5.738   3.654
 3259TIP3    H1 9720   2.218   5.813   3.688
 3259TIP3    H2 9721   2.085   5.774   3.626
 3260TIP3   OH2 9722   4.386   6.909   5.364
 3260TIP3    H1 9723   4.293   6.908   5.341
 3260TIP3    H2 9724   4.396   6.985   5.421
 3261TIP3   OH2 9725   4.900   2.917   6.088
 3261TIP3    H1 9726   4.889   2.905   5.994
 3261TIP3    H2 9727   4.862   2.838   6.127
 3262TIP3   OH2 9728   0.681   2.138   3.788
 3262TIP3    H1 9729   0.599   2.110   3.749
 3262TIP3    H2 9730   0.739   2.155   3.714
 3263TIP3   OH2 9731   5.264   1.765   0.971
 3263TIP3    H1 9732   5.197   1.701   0.948
 3263TIP3    H2 9733   5.226   1.814   1.044
 3264TIP3   OH2 9734   3.931   3.121   5.599
 3264TIP3    H1 9735   3.856   3.101   5.543
 3264TIP3    H2 9736   4.000   3.147   5.538
 3265TIP3   OH2 9737   3.258   4.111   0.335
 3265TIP3    H1 9738   3.306   4.193   0.345
 3265TIP3    H2 9739   3.186   4.117   0.398
 3266TIP3   OH2 9740   7.153   6.892   6.725
 3266TIP3    H1 9741   7.207   6.907   6.647
 3266TIP3    H2 9742   7.205   6.929   6.797
 3267TIP3   OH2 9743   4.425   6.449   3.705
 3267TIP3    H1 9744   4.411   6.463   3.799
 3267TIP3    H2 9745   4.436   6.354   3.697
 3268TIP3   OH2 9746   6.339   7.059   6.052
 3268TIP3    H1 9747   6.361   7.142   6.096
 3268TIP3    H2 9748   6.324   7.084   5.961
 3269TIP3   OH2 9749   1.654   5.092   3.613
 3269TIP3    H1 9750   1.696   5.127   3.692
 3269TIP3    H2 9751   1.726   5.053   3.563
 3270TIP3   OH2 9752   1.959   5.700   5.437
 3270TIP3    H1 9753   1.951   5.795   5.446
 3270TIP3    H2 9754   1.874   5.665   5.466
 3271TIP3   OH2 9755   6.061   2.641   5.928
 3271TIP3    H1 9756   6.036   2.642   5.836
 3271TIP3    H2 9757   6.051   2.550   5.955
 3272TIP3   OH2 9758   1.694   1.503   0.244
 3272TIP3    H1 9759   1.684   1.581   0.190
 3272TIP3    H2 9760   1.609   1.460   0.240
 3273TIP3   OH2 9761   7.222   6.081   1.477
 3273TIP3    H1 9762   7.233   6.131   1.558
 3273TIP3    H2 9763   7.128   6.073   1.465
 3274TIP3   OH2 9764   5.836   2.811   6.412
 3274TIP3    H1 9765   5.813   2.758   6.336
 3274TIP3    H2 9766   5.759   2.805   6.469
 3275TIP3   OH2 9767   2.339   3.150   0.880
 3275TIP3    H1 9768   2.253   3.110   0.891
 3275TIP3    H2 9769   2.375   3.156   0.968
 3276TIP3   OH2 9770   4.025   0.218   2.283
 3276TIP3    H1 9771   4.010   0.124   2.276
 3276TIP3    H2 9772   3.978   0.256   2.209
 3277TIP3   OH2 9773   1.796   0.578   5.912
 3277TIP3    H1 9774   1.821   0.486   5.917
 3277TIP3    H2 9775   1.724   0.579   5.849
 3278TIP3   OH2 9776   2.968   0.045   2.532
 3278TIP3    H1 9777   2.893   0.048   2.592
 3278TIP3    H2 9778   3.044   0.041   2.590
 3279TIP3   OH2 9779   1.624   0.251   5.468
 3279TIP3    H1 9780   1.574   0.179   5.506
 3279TIP3    H2 9781   1.619   0.321   5.533
 3280TIP3   OH2 9782   1.028   2.458   0.521
 3280TIP3    H1 9783   0.962   2.434   0.586
 3280TIP3    H2 9784   1.034   2.553   0.528
 3281TIP3   OH2 9785   2.976   6.793   0.083
 3281TIP3    H1 9786   2.954   6.705   0.113
 3281TIP3    H2 9787   2.918   6.851   0.134
 3282TIP3   OH2 9788   5.945   6.258   4.665
 3282TIP3    H1 9789   5.861   6.251   4.711
 3282TIP3    H2 9790   5.927   6.230   4.576
 3283TIP3   OH2 9791   0.094   3.938   0.378
 3283TIP3    H1 9792   0.009   3.895   0.383
 3283TIP3    H2 9793   0.095   3.998   0.452
 3284TIP3   OH2 9794   8.229   6.419   0.120
 3284TIP3    H1 9795   8.317   6.381   0.116
 3284TIP3    H2 9796   8.210   6.424   0.214
 3285TIP3   OH2 9797   1.228   0.750   3.995
 3285TIP3    H1 9798   1.195   0.712   3.913
 3285TIP3    H2 9799   1.215   0.681   4.060
 3286TIP3   OH2 9800   1.984   3.171   6.535
 3286TIP3    H1 9801   1.956   3.179   6.626
 3286TIP3    H2 9802   2.071   3.132   6.540
 3287TIP3   OH2 9803   2.040   6.180   1.383
 3287TIP3    H1 9804   1.977   6.133   1.328
 3287TIP3    H2 9805   2.100   6.113   1.414
 3288TIP3   OH2 9806   7.790   2.983   5.176
 3288TIP3    H1 9807   7.756   3.054   5.121
 3288TIP3    H2 9808   7.713   2.935   5.204
 3289TIP3   OH2 9809   5.162   0.212   3.898
 3289TIP3    H1 9810   5.099   0.148   3.932
 3289TIP3    H2 9811   5.137   0.294   3.941
 3290TIP3   OH2 9812   3.545   7.113   5.545
 3290TIP3    H1 9813   3.475   7.136   5.607
 3290TIP3    H2 9814   3.622   7.099   5.600
 3291TIP3   OH2 9815   3.807   0.756   0.493
 3291TIP3    H1 9816   3.889   0.806   0.489
 3291TIP3    H2 9817   3.793   0.726   0.403
 3292TIP3   OH2 9818   3.686   6.080   5.841
 3292TIP3    H1 9819   3.644   6.162   5.866
 3292TIP3    H2 9820   3.633   6.012   5.882
 3293TIP3   OH2 9821   7.832   5.229   6.054
 3293TIP3    H1 9822   7.921   5.216   6.087
 3293TIP3    H2 9823   7.797   5.302   6.105
 3294TIP3   OH2 9824   5.874   0.957   6.700
 3294TIP3    H1 9825   5.824   0.875   6.697
 3294TIP3    H2 9826   5.965   0.930   6.692
 3295TIP3   OH2 9827   0.576   1.399   0.521
 3295TIP3    H1 9828   0.585   1.307   0.546
 3295TIP3    H2 9829   0.482   1.411   0.510
 3296TIP3   OH2 9830   5.827   4.137   2.881
 3296TIP3    H1 9831   5.746   4.167   2.922
 3296TIP3    H2 9832   5.808   4.049   2.850
 3297TIP3   OH2 9833   2.188   0.407   2.251
 3297TIP3    H1 9834   2.199   0.502   2.257
 3297TIP3    H2 9835   2.148   0.382   2.334
 3298TIP3   OH2 9836   2.801   2.414   5.446
 3298TIP3    H1 9837   2.728   2.472   5.426
 3298TIP3    H2 9838   2.876   2.454   5.403
 3299TIP3   OH2 9839   8.176   2.977   3.885
 3299TIP3    H1 9840   8.191   3.029   3.964
 3299TIP3    H2 9841   8.084   2.993   3.864
 3300TIP3   OH2 9842   4.182   4.478   5.202
 3300TIP3    H1 9843   4.185   4.550   5.140
 3300TIP3    H2 9844   4.145   4.405   5.152
 3301TIP3   OH2 9845   4.806   5.097   3.449
 3301TIP3    H1 9846   4.798   5.139   3.534
 3301TIP3    H2 9847   4.809   5.003   3.468
 3302TIP3   OH2 9848   1.680   3.175   1.058
 3302TIP3    H1 9849   1.587   3.199   1.055
 3302TIP3    H2 9850   1.689   3.126   1.140
 3303TIP3   OH2 9851   5.102   7.674   2.404
 3303TIP3    H1 9852   5.019   7.721   2.405
 3303TIP3    H2 9853   5.108   7.638   2.315
 3304TIP3   OH2 9854   3.462   3.408   1.387
 3304TIP3    H1 9855   3.491   3.478   1.327
 3304TIP3    H2 9856   3.488   3.327   1.343
 3305TIP3   OH2 9857   6.541   6.491   6.113
 3305TIP3    H1 9858   6.451   6.513   6.090
 3305TIP3    H2 9859   6.557   6.408   6.068
 3306TIP3   OH2 9860   1.744   6.518   4.027
 3306TIP3    H1 9861   1.691   6.542   3.950
 3306TIP3    H2 9862   1.767   6.426   4.013
 3307TIP3   OH2 9863   2.823   6.032   4.660
 3307TIP3    H1 9864   2.892   5.970   4.636
 3307TIP3    H2 9865   2.763   5.981   4.715
 3308TIP3   OH2 9866   1.952   1.288   0.849
 3308TIP3    H1 9867   1.879   1.282   0.910
 3308TIP3    H2 9868   1.911   1.276   0.763
 3309TIP3   OH2 9869   4.753   0.599   3.635
 3309TIP3    H1 9870   4.692   0.527   3.656
 3309TIP3    H2 9871   4.744   0.611   3.540
 3310TIP3   OH2 9872   2.476   5.338   4.748
 3310TIP3    H1 9873   2.453   5.395   4.674
 3310TIP3    H2 9874   2.486   5.398   4.822
 3311TIP3   OH2 9875   7.575   7.032   5.895
 3311TIP3    H1 9876   7.526   7.054   5.816
 3311TIP3    H2 9877   7.560   7.106   5.955
 3312TIP3   OH2 9878   5.467   3.785   0.990
 3312TIP3    H1 9879   5.485   3.866   1.038
 3312TIP3    H2 9880   5.384   3.801   0.946
 3313TIP3   OH2 9881   1.678   5.181   0.732
 3313TIP3    H1 9882   1.651   5.271   0.712
 3313TIP3    H2 9883   1.615   5.126   0.686
 3314TIP3   OH2 9884   1.009   1.590   0.849
 3314TIP3    H1 9885   0.994   1.656   0.917
 3314TIP3    H2 9886   0.963   1.512   0.880
 3315TIP3   OH2 9887   7.824   1.824   2.303
 3315TIP3    H1 9888   7.859   1.770   2.374
 3315TIP3    H2 9889   7.745   1.863   2.339
 3316TIP3   OH2 9890   4.369   2.682   3.712
 3316TIP3    H1 9891   4.275   2.694   3.726
 3316TIP3    H2 9892   4.404   2.664   3.800
 3317TIP3   OH2 9893   2.649   4.143   2.992
 3317TIP3    H1 9894   2.565   4.188   2.992
 3317TIP3    H2 9895   2.711   4.208   3.024
 3318TIP3   OH2 9896   0.560   3.949   3.927
 3318TIP3    H1 9897   0.632   3.995   3.885
 3318TIP3    H2 9898   0.585   3.857   3.923
 3319TIP3   OH2 9899   8.054   0.003   4.867
 3319TIP3    H1 9900   8.045   0.097   4.882
 3319TIP3    H2 9901   7.992  -0.015   4.796
 3320TIP3   OH2 9902   5.587   2.008   4.312
 3320TIP3    H1 9903   5.549   1.931   4.355
 3320TIP3    H2 9904   5.544   2.082   4.355
 3321TIP3   OH2 9905   4.797   3.909   4.470
 3321TIP3    H1 9906   4.753   3.963   4.535
 3321TIP3    H2 9907   4.890   3.921   4.489
 3322TIP3   OH2 9908   7.950   3.089   3.728
 3322TIP3    H1 9909   7.960   2.999   3.696
 3322TIP3    H2 9910   8.022   3.137   3.688
 3323TIP3   OH2 9911   7.832   5.132   2.897
 3323TIP3    H1 9912   7.752   5.186   2.898
 3323TIP3    H2 9913   7.901   5.192   2.926
 3324TIP3   OH2 9914   7.203   5.557   0.123
 3324TIP3    H1 9915   7.293   5.526   0.135
 3324TIP3    H2 9916   7.192   5.624   0.190
 3325TIP3   OH2 9917   3.670   3.406   1.571
 3325TIP3    H1 9918   3.710   3.482   1.528
 3325TIP3    H2 9919   3.583   3.398   1.530
 3326TIP3   OH2 9920  -0.023   2.548   0.425
 3326TIP3    H1 9921  -0.016   2.636   0.462
 3326TIP3    H2 9922   0.067   2.520   0.413
 3327TIP3   OH2 9923   7.837   4.382   4.604
 3327TIP3    H1 9924   7.804   4.374   4.694
 3327TIP3    H2 9925   7.759   4.389   4.550
 3328TIP3   OH2 9926   4.243   5.079   2.763
 3328TIP3    H1 9927   4.257   5.007   2.824
 3328TIP3    H2 9928   4.308   5.145   2.789
 3329TIP3   OH2 9929   7.581   1.848   1.873
 3329TIP3    H1 9930   7.513   1.840   1.805
 3329TIP3    H2 9931   7.663   1.842   1.826
 3330TIP3   OH2 9932   3.600   0.189   3.464
 3330TIP3    H1 9933   3.538   0.255   3.432
 3330TIP3    H2 9934   3.678   0.201   3.410
 3331TIP3   OH2 9935   8.255   4.971   4.822
 3331TIP3    H1 9936   8.315   5.045   4.831
 3331TIP3    H2 9937   8.202   4.992   4.745
 3332TIP3   OH2 9938   3.893   4.233   4.703
 3332TIP3    H1 9939   3.825   4.300   4.693
 3332TIP3    H2 9940   3.962   4.259   4.641
 3333TIP3   OH2 9941   3.050   0.680   5.271
 3333TIP3    H1 9942   2.966   0.649   5.306
 3333TIP3    H2 9943   3.113   0.615   5.300
 3334TIP3   OH2 9944   5.206   0.369   1.022
 3334TIP3    H1 9945   5.135   0.319   1.060
 3334TIP3    H2 9946   5.273   0.304   1.001
 3335TIP3   OH2 9947   1.489   5.003   0.613
 3335TIP3    H1 9948   1.444   5.050   0.542
 3335TIP3    H2 9949   1.417   4.970   0.667
 3336TIP3   OH2 9950   4.932   1.618   0.277
 3336TIP3    H1 9951   4.912   1.524   0.265
 3336TIP3    H2 9952   4.905   1.637   0.367
 3337TIP3   OH2 9953   6.606   2.040   4.797
 3337TIP3    H1 9954   6.596   2.004   4.709
 3337TIP3    H2 9955   6.654   2.122   4.784
 3338TIP3   OH2 9956   0.919   0.625   0.982
 3338TIP3    H1 9957   0.872   0.543   0.970
 3338TIP3    H2 9958   1.002   0.599   1.022
 3339TIP3   OH2 9959   3.335   3.838   3.235
 3339TIP3    H1 9960   3.326   3.772   3.304
 3339TIP3    H2 9961   3.272   3.906   3.258
 3340TIP3   OH2 9962   3.646   3.630   2.053
 3340TIP3    H1 9963   3.735   3.619   2.085
 3340TIP3    H2 9964   3.656   3.675   1.969
 3341TIP3   OH2 9965   0.358   0.522   2.934
 3341TIP3    H1 9966   0.383   0.475   3.013
 3341TIP3    H2 9967   0.419   0.492   2.867
 3342TIP3   OH2 9968   3.451   1.163   5.110
 3342TIP3    H1 9969   3.534   1.166   5.158
 3342TIP3    H2 9970   3.384   1.166   5.177
 3343TIP3   OH2 9971   6.048   0.477   6.748
 3343TIP3    H1 9972   6.030   0.511   6.661
 3343TIP3    H2 9973   6.044   0.382   6.738
 3344TIP3   OH2 9974   3.059   2.915   1.213
 3344TIP3    H1 9975   3.066   2.994   1.267
 3344TIP3    H2 9976   2.987   2.866   1.253
 3345TIP3   OH2 9977   4.875   2.671   4.759
 3345TIP3    H1 9978   4.842   2.583   4.776
 3345TIP3    H2 9979   4.801   2.716   4.717
 3346TIP3   OH2 9980   0.707   2.076   5.657
 3346TIP3    H1 9981   0.750   1.991   5.668
 3346TIP3    H2 9982   0.774   2.139   5.684
 3347TIP3   OH2 9983   0.634   2.205   1.965
 3347TIP3    H1 9984   0.678   2.151   2.031
 3347TIP3    H2 9985   0.574   2.261   2.016
 3348TIP3   OH2 9986   2.574   1.503   5.602
 3348TIP3    H1 9987   2.558   1.596   5.617
 3348TIP3    H2 9988   2.669   1.494   5.610
 3349TIP3   OH2 9989   5.583   1.779   3.371
 3349TIP3    H1 9990   5.600   1.834   3.448
 3349TIP3    H2 9991   5.523   1.829   3.317
 3350TIP3   OH2 9992   7.120   3.401   2.673
 3350TIP3    H1 9993   7.109   3.428   2.582
 3350TIP3    H2 9994   7.182   3.463   2.710
 3351TIP3   OH2 9995   3.808   1.152   2.249
 3351TIP3    H1 9996   3.755   1.089   2.200
 3351TIP3    H2 9997   3.807   1.231   2.196
 3352TIP3   OH2 9998   0.139   2.282   0.590
 3352TIP3    H1 9999   0.143   2.291   0.685
 3352TIP3    H210000   0.182   2.361   0.557
 3353TIP3   OH210001   3.078   4.718   4.688
 3353TIP3    H110002   2.983   4.727   4.686
 3353TIP3    H210003   3.110   4.807   4.699
 3354TIP3   OH210004   6.848   5.029   1.189
 3354TIP3    H110005   6.788   5.103   1.198
 3354TIP3    H210006   6.884   5.016   1.276
 3355TIP3   OH210007   4.418   5.151   2.009
 3355TIP3    H110008   4.433   5.222   2.071
 3355TIP3    H210009   4.358   5.092   2.055
 3356TIP3   OH210010   4.888   3.347   5.083
 3356TIP3    H110011   4.885   3.362   4.989
 3356TIP3    H210012   4.944   3.271   5.094
 3357TIP3   OH210013   6.918   5.049   6.187
 3357TIP3    H110014   6.923   5.109   6.113
 3357TIP3    H210015   6.999   4.998   6.182
 3358TIP3   OH210016   5.793   5.232   0.222
 3358TIP3    H110017   5.828   5.321   0.216
 3358TIP3    H210018   5.715   5.241   0.278
 3359TIP3   OH210019   1.679   4.995   4.471
 3359TIP3    H110020   1.659   5.083   4.502
 3359TIP3    H210021   1.593   4.955   4.458
 3360TIP3   OH210022   0.650   3.369   0.213
 3360TIP3    H110023   0.660   3.394   0.121
 3360TIP3    H210024   0.577   3.423   0.244
 3361TIP3   OH210025   4.074   6.198   1.323
 3361TIP3    H110026   4.045   6.114   1.360
 3361TIP3    H210027   4.132   6.234   1.390
 3362TIP3   OH210028   6.536   2.538   3.488
 3362TIP3    H110029   6.509   2.498   3.570
 3362TIP3    H210030   6.489   2.489   3.421
 3363TIP3   OH210031   1.733   5.587   5.567
 3363TIP3    H110032   1.689   5.663   5.605
 3363TIP3    H210033   1.759   5.534   5.643
 3364TIP3   OH210034   3.663   1.622   3.328
 3364TIP3    H110035   3.623   1.655   3.248
 3364TIP3    H210036   3.589   1.599   3.384
 3365TIP3   OH210037   0.623   0.499   3.463
 3365TIP3    H110038   0.686   0.553   3.414
 3365TIP3    H210039   0.539   0.542   3.449
 3366TIP3   OH210040   1.981   0.796   0.359
 3366TIP3    H110041   1.931   0.844   0.426
 3366TIP3    H210042   2.055   0.759   0.407
 3367TIP3   OH210043   4.641   6.132   2.193
 3367TIP3    H110044   4.556   6.119   2.235
 3367TIP3    H210045   4.646   6.062   2.127
 3368TIP3   OH210046   2.308   3.459   3.216
 3368TIP3    H110047   2.319   3.456   3.121
 3368TIP3    H210048   2.322   3.369   3.245
 3369TIP3   OH210049   0.709   2.561   4.369
 3369TIP3    H110050   0.677   2.517   4.448
 3369TIP3    H210051   0.641   2.625   4.348
 3370TIP3   OH210052   2.568   5.878   3.566
 3370TIP3    H110053   2.527   5.808   3.516
 3370TIP3    H210054   2.497   5.916   3.618
 3371TIP3   OH210055   2.575   1.055   6.632
 3371TIP3    H110056   2.669   1.058   6.617
 3371TIP3    H210057   2.542   0.988   6.573
 3372TIP3   OH210058   3.238   3.103   5.056
 3372TIP3    H110059   3.288   3.124   4.977
 3372TIP3    H210060   3.220   3.188   5.097
 3373TIP3   OH210061   5.519   4.204   3.170
 3373TIP3    H110062   5.517   4.253   3.088
 3373TIP3    H210063   5.514   4.271   3.238
 3374TIP3   OH210064   2.930   1.070   4.217
 3374TIP3    H110065   2.872   1.146   4.216
 3374TIP3    H210066   2.916   1.029   4.131
 3375TIP3   OH210067   1.656   6.669   0.889
 3375TIP3    H110068   1.633   6.619   0.811
 3375TIP3    H210069   1.655   6.761   0.860
 3376TIP3   OH210070   2.727   4.210   2.246
 3376TIP3    H110071   2.789   4.213   2.318
 3376TIP3    H210072   2.755   4.136   2.193
 3377TIP3   OH210073   8.209   0.805   0.531
 3377TIP3    H110074   8.209   0.857   0.450
 3377TIP3    H210075   8.274   0.848   0.587
 3378TIP3   OH210076   8.082   4.548   4.546
 3378TIP3    H110077   8.119   4.539   4.634
 3378TIP3    H210078   7.996   4.506   4.551
 3379TIP3   OH210079   5.570   4.230   6.349
 3379TIP3    H110080   5.615   4.269   6.424
 3379TIP3    H210081   5.579   4.295   6.280
 3380TIP3   OH210082   3.508   7.312   2.022
 3380TIP3    H110083   3.601   7.297   2.007
 3380TIP3    H210084   3.475   7.228   2.054
 3381TIP3   OH210085   7.371   4.548   0.990
 3381TIP3    H110086   7.430   4.543   0.915
 3381TIP3    H210087   7.310   4.476   0.977
 3382TIP3   OH210088   6.105   5.229  -0.026
 3382TIP3    H110089   6.128   5.254   0.064
 3382TIP3    H210090   6.093   5.312  -0.071
 3383TIP3   OH210091   5.353   2.310   2.092
 3383TIP3    H110092   5.262   2.290   2.114
 3383TIP3    H210093   5.348   2.346   2.004
 3384TIP3   OH210094   5.969   4.863   4.918
 3384TIP3    H110095   6.006   4.901   4.998
 3384TIP3    H210096   5.937   4.938   4.868
 3385TIP3   OH210097   6.893   0.345   1.961
 3385TIP3    H110098   6.856   0.326   1.875
 3385TIP3    H210099   6.820   0.381   2.011
 3386TIP3   OH210100   4.396   1.598   0.161
 3386TIP3    H110101   4.442   1.682   0.155
 3386TIP3    H210102   4.314   1.618   0.205
 3387TIP3   OH210103   6.574   3.003   3.204
 3387TIP3    H110104   6.505   2.942   3.177
 3387TIP3    H210105   6.588   2.982   3.297
 3388TIP3   OH210106   7.301   2.228   0.354
 3388TIP3    H110107   7.234   2.272   0.406
 3388TIP3    H210108   7.288   2.262   0.265
 3389TIP3   OH210109   5.519   7.164   2.241
 3389TIP3    H110110   5.601   7.193   2.202
 3389TIP3    H210111   5.471   7.245   2.259
 3390TIP3   OH210112   4.025   6.689   5.349
 3390TIP3    H110113   3.940   6.707   5.387
 3390TIP3    H210114   4.058   6.774   5.321
 3391TIP3   OH210115   0.608   7.554   4.853
 3391TIP3    H110116   0.556   7.635   4.848
 3391TIP3    H210117   0.640   7.552   4.944
 3392TIP3   OH210118   4.719   2.441   3.650
 3392TIP3    H110119   4.784   2.440   3.580
 3392TIP3    H210120   4.635   2.428   3.605
 3393TIP3   OH210121   1.200   1.117   1.223
 3393TIP3    H110122   1.174   1.185   1.162
 3393TIP3    H210123   1.143   1.130   1.299
 3394TIP3   OH210124   2.647   3.453   0.390
 3394TIP3    H110125   2.717   3.451   0.455
 3394TIP3    H210126   2.598   3.373   0.405
 3395TIP3   OH210127   2.176   4.167   5.261
 3395TIP3    H110128   2.157   4.094   5.320
 3395TIP3    H210129   2.226   4.127   5.189
 3396TIP3   OH210130   6.897   0.763   5.655
 3396TIP3    H110131   6.813   0.750   5.611
 3396TIP3    H210132   6.952   0.808   5.591
 3397TIP3   OH210133   2.880   1.724   1.415
 3397TIP3    H110134   2.888   1.671   1.495
 3397TIP3    H210135   2.948   1.689   1.357
 3398TIP3   OH210136   1.581   5.413   0.641
 3398TIP3    H110137   1.517   5.405   0.570
 3398TIP3    H210138   1.631   5.492   0.620
 3399TIP3   OH210139   6.758   3.458   1.743
 3399TIP3    H110140   6.760   3.512   1.822
 3399TIP3    H210141   6.833   3.399   1.753
 3400TIP3   OH210142   2.087   4.548   6.503
 3400TIP3    H110143   2.040   4.507   6.575
 3400TIP3    H210144   2.128   4.626   6.541
 3401TIP3   OH210145   7.502   1.936   4.105
 3401TIP3    H110146   7.572   1.986   4.147
 3401TIP3    H210147   7.436   2.000   4.082
 3402TIP3   OH210148   7.295   3.890   2.661
 3402TIP3    H110149   7.373   3.881   2.606
 3402TIP3    H210150   7.328   3.926   2.743
 3403TIP3   OH210151   6.847   2.723   6.660
 3403TIP3    H110152   6.755   2.750   6.658
 3403TIP3    H210153   6.849   2.639   6.614
 3404TIP3   OH210154   5.633   2.593   4.469
 3404TIP3    H110155   5.725   2.618   4.474
 3404TIP3    H210156   5.631   2.525   4.401
 3405TIP3   OH210157   2.611   1.980   2.645
 3405TIP3    H110158   2.659   1.914   2.595
 3405TIP3    H210159   2.631   2.063   2.601
 3406TIP3   OH210160   8.236   4.037   3.742
 3406TIP3    H110161   8.240   4.128   3.772
 3406TIP3    H210162   8.305   3.993   3.792
 3407TIP3   OH210163   5.175   3.733   4.792
 3407TIP3    H110164   5.212   3.685   4.866
 3407TIP3    H210165   5.134   3.665   4.738
 3408TIP3   OH210166   4.575   4.240   2.428
 3408TIP3    H110167   4.609   4.330   2.419
 3408TIP3    H210168   4.609   4.211   2.513
 3409TIP3   OH210169   7.211   1.276   3.586
 3409TIP3    H110170   7.273   1.223   3.636
 3409TIP3    H210171   7.245   1.365   3.591
 3410TIP3   OH210172   2.311   0.144   5.546
 3410TIP3    H110173   2.272   0.057   5.552
 3410TIP3    H210174   2.236   0.204   5.541
 3411TIP3   OH210175   0.109   7.622   0.362
 3411TIP3    H110176   0.094   7.531   0.387
 3411TIP3    H210177   0.204   7.627   0.348
 3412TIP3   OH210178   4.238   7.794   2.880
 3412TIP3    H110179   4.173   7.853   2.918
 3412TIP3    H210180   4.191   7.713   2.864
 3413TIP3   OH210181   5.691   7.530   3.030
 3413TIP3    H110182   5.607   7.490   3.053
 3413TIP3    H210183   5.675   7.568   2.943
 3414TIP3   OH210184   5.498   3.028   6.418
 3414TIP3    H110185   5.507   2.977   6.337
 3414TIP3    H210186   5.416   3.075   6.408
 3415TIP3   OH210187   0.944   4.364   0.405
 3415TIP3    H110188   0.936   4.269   0.408
 3415TIP3    H210189   0.977   4.389   0.492
 3416TIP3   OH210190   7.025   1.577   0.384
 3416TIP3    H110191   6.959   1.529   0.333
 3416TIP3    H210192   7.003   1.560   0.475
 3417TIP3   OH210193   0.452   0.776   1.997
 3417TIP3    H110194   0.504   0.702   2.028
 3417TIP3    H210195   0.516   0.833   1.953
 3418TIP3   OH210196   4.093   0.568   2.044
 3418TIP3    H110197   4.035   0.602   1.976
 3418TIP3    H210198   4.034   0.544   2.116
 3419TIP3   OH210199   3.197   4.845   2.242
 3419TIP3    H110200   3.289   4.869   2.231
 3419TIP3    H210201   3.187   4.832   2.337
 3420TIP3   OH210202   7.277   5.040   0.425
 3420TIP3    H110203   7.239   5.111   0.477
 3420TIP3    H210204   7.323   5.085   0.354
 3421TIP3   OH210205   5.825   5.570   4.703
 3421TIP3    H110206   5.803   5.538   4.616
 3421TIP3    H210207   5.906   5.524   4.726
 3422TIP3   OH210208   2.707   2.426   1.124
 3422TIP3    H110209   2.622   2.384   1.111
 3422TIP3    H210210   2.731   2.405   1.215
 3423TIP3   OH210211   5.468   1.522   0.334
 3423TIP3    H110212   5.436   1.469   0.406
 3423TIP3    H210213   5.389   1.543   0.283
 3424TIP3   OH210214   7.571   7.070   2.727
 3424TIP3    H110215   7.604   7.115   2.805
 3424TIP3    H210216   7.491   7.116   2.704
 3425TIP3   OH210217   5.485   0.081   5.121
 3425TIP3    H110218   5.572   0.121   5.133
 3425TIP3    H210219   5.425   0.144   5.161
 3426TIP3   OH210220   5.801   5.380   2.359
 3426TIP3    H110221   5.786   5.393   2.266
 3426TIP3    H210222   5.754   5.451   2.402
 3427TIP3   OH210223   0.891   5.673   5.163
 3427TIP3    H110224   0.830   5.721   5.218
 3427TIP3    H210225   0.916   5.596   5.214
 3428TIP3   OH210226   0.205   2.800   3.839
 3428TIP3    H110227   0.184   2.864   3.771
 3428TIP3    H210228   0.161   2.719   3.811
 3429TIP3   OH210229   1.281   3.425   4.668
 3429TIP3    H110230   1.327   3.456   4.746
 3429TIP3    H210231   1.333   3.351   4.637
 3430TIP3   OH210232   4.897   5.933   0.736
 3430TIP3    H110233   4.865   5.941   0.826
 3430TIP3    H210234   4.823   5.896   0.687
 3431TIP3   OH210235   6.807   3.128   0.912
 3431TIP3    H110236   6.792   3.064   0.982
 3431TIP3    H210237   6.872   3.086   0.856
 3432TIP3   OH210238   7.537   3.012   1.250
 3432TIP3    H110239   7.495   3.077   1.306
 3432TIP3    H210240   7.568   2.944   1.310
 3433TIP3   OH210241   3.393   2.583   3.158
 3433TIP3    H110242   3.452   2.569   3.084
 3433TIP3    H210243   3.397   2.500   3.207
 3434TIP3   OH210244   4.072   4.131   1.582
 3434TIP3    H110245   4.114   4.185   1.648
 3434TIP3    H210246   4.119   4.048   1.585
 3435TIP3   OH210247   7.026   3.861   1.796
 3435TIP3    H110248   7.024   3.888   1.887
 3435TIP3    H210249   7.118   3.867   1.771
 3436TIP3   OH210250   6.600   2.182   5.953
 3436TIP3    H110251   6.567   2.272   5.958
 3436TIP3    H210252   6.673   2.187   5.891
 3437TIP3   OH210253   7.642   4.976   4.277
 3437TIP3    H110254   7.603   4.913   4.338
 3437TIP3    H210255   7.575   4.991   4.211
 3438TIP3   OH210256   7.807   5.817   1.851
 3438TIP3    H110257   7.834   5.749   1.912
 3438TIP3    H210258   7.716   5.797   1.832
 3439TIP3   OH210259   0.959   0.383   4.486
 3439TIP3    H110260   0.864   0.373   4.485
 3439TIP3    H210261   0.986   0.354   4.574
 3440TIP3   OH210262   6.470   0.695   5.064
 3440TIP3    H110263   6.436   0.733   4.983
 3440TIP3    H210264   6.402   0.711   5.129
 3441TIP3   OH210265   1.631   4.648   5.020
 3441TIP3    H110266   1.620   4.739   4.993
 3441TIP3    H210267   1.550   4.625   5.064
 3442TIP3   OH210268   6.059  -0.045   4.376
 3442TIP3    H110269   5.974  -0.077   4.348
 3442TIP3    H210270   6.039   0.031   4.430
 3443TIP3   OH210271   2.468   5.258   5.039
 3443TIP3    H110272   2.416   5.182   5.014
 3443TIP3    H210273   2.516   5.229   5.117
 3444TIP3   OH210274   4.256   1.285   2.606
 3444TIP3    H110275   4.226   1.195   2.591
 3444TIP3    H210276   4.251   1.326   2.519
 3445TIP3   OH210277   5.537  -0.005   0.384
 3445TIP3    H110278   5.608   0.011   0.447
 3445TIP3    H210279   5.511   0.081   0.354
 3446TIP3   OH210280   8.038   2.921   5.022
 3446TIP3    H110281   8.030   2.846   4.963
 3446TIP3    H210282   7.999   2.891   5.104
 3447TIP3   OH210283   5.359   6.575   1.553
 3447TIP3    H110284   5.425   6.590   1.621
 3447TIP3    H210285   5.341   6.481   1.559
 3448TIP3   OH210286   1.615   0.660   1.046
 3448TIP3    H110287   1.627   0.753   1.024
 3448TIP3    H210288   1.550   0.661   1.117
 3449TIP3   OH210289   5.867   1.431   3.053
 3449TIP3    H110290   5.773   1.423   3.074
 3449TIP3    H210291   5.911   1.414   3.136
 3450TIP3   OH210292   6.938   4.286   4.153
 3450TIP3    H110293   7.026   4.323   4.153
 3450TIP3    H210294   6.951   4.192   4.159
 3451TIP3   OH210295   6.604   5.697   3.458
 3451TIP3    H110296   6.684   5.749   3.458
 3451TIP3    H210297   6.538   5.754   3.497
 3452TIP3   OH210298   7.369   0.135   2.013
 3452TIP3    H110299   7.364   0.216   2.062
 3452TIP3    H210300   7.285   0.129   1.967
 3453TIP3   OH210301   1.329   7.558   6.574
 3453TIP3    H110302   1.349   7.510   6.493
 3453TIP3    H210303   1.236   7.541   6.589
 3454TIP3   OH210304   6.945   0.798   2.742
 3454TIP3    H110305   7.031   0.759   2.760
 3454TIP3    H210306   6.893   0.726   2.707
 3455TIP3   OH210307   2.271   3.120   6.577
 3455TIP3    H110308   2.272   3.165   6.492
 3455TIP3    H210309   2.321   3.040   6.561
 3456TIP3   OH210310   4.679   7.514   4.878
 3456TIP3    H110311   4.619   7.441   4.861
 3456TIP3    H210312   4.751   7.501   4.816
 3457TIP3   OH210313   3.408   3.119   2.513
 3457TIP3    H110314   3.406   3.167   2.431
 3457TIP3    H210315   3.476   3.162   2.565
 3458TIP3   OH210316   0.499   1.274   6.058
 3458TIP3    H110317   0.567   1.312   6.114
 3458TIP3    H210318   0.542   1.197   6.018
 3459TIP3   OH210319   3.731   2.000   3.321
 3459TIP3    H110320   3.722   2.005   3.416
 3459TIP3    H210321   3.793   1.928   3.307
 3460TIP3   OH210322   4.155   5.008   4.148
 3460TIP3    H110323   4.234   4.959   4.171
 3460TIP3    H210324   4.117   5.032   4.233
 3461TIP3   OH210325   1.383   2.758   4.579
 3461TIP3    H110326   1.386   2.769   4.674
 3461TIP3    H210327   1.473   2.736   4.555
 3462TIP3   OH210328   2.601   0.773   4.983
 3462TIP3    H110329   2.659   0.825   5.039
 3462TIP3    H210330   2.597   0.821   4.900
 3463TIP3   OH210331   3.721   5.201   5.338
 3463TIP3    H110332   3.695   5.134   5.275
 3463TIP3    H210333   3.816   5.205   5.331
 3464TIP3   OH210334   1.828   6.965   3.270
 3464TIP3    H110335   1.893   7.035   3.260
 3464TIP3    H210336   1.850   6.903   3.201
 3465TIP3   OH210337   1.515   5.155   5.616
 3465TIP3    H110338   1.576   5.110   5.675
 3465TIP3    H210339   1.460   5.208   5.674
 3466TIP3   OH210340   0.146   7.424   3.240
 3466TIP3    H110341   0.151   7.351   3.179
 3466TIP3    H210342   0.231   7.467   3.233
 3467TIP3   OH210343   7.614   4.251   2.732
 3467TIP3    H110344   7.707   4.258   2.755
 3467TIP3    H210345   7.578   4.338   2.752
 3468TIP3   OH210346   8.160   4.115   0.645
 3468TIP3    H110347   8.147   4.180   0.714
 3468TIP3    H210348   8.254   4.115   0.629
 3469TIP3   OH210349   5.597   1.793   0.190
 3469TIP3    H110350   5.614   1.883   0.216
 3469TIP3    H210351   5.523   1.799   0.130
 3470TIP3   OH210352   6.836   1.991   5.190
 3470TIP3    H110353   6.923   2.023   5.211
 3470TIP3    H210354   6.795   1.976   5.275
 3471TIP3   OH210355   1.246   3.475   5.118
 3471TIP3    H110356   1.260   3.562   5.156
 3471TIP3    H210357   1.280   3.414   5.183
 3472TIP3   OH210358   7.216   4.788   0.392
 3472TIP3    H110359   7.243   4.879   0.378
 3472TIP3    H210360   7.130   4.795   0.433
 3473TIP3   OH210361   1.076   5.438   6.665
 3473TIP3    H110362   0.987   5.434   6.631
 3473TIP3    H210363   1.131   5.452   6.588
 3474TIP3   OH210364   3.797   6.717   0.340
 3474TIP3    H110365   3.772   6.648   0.402
 3474TIP3    H210366   3.791   6.798   0.390
 3475TIP3   OH210367   3.870   2.393   1.622
 3475TIP3    H110368   3.777   2.391   1.646
 3475TIP3    H210369   3.878   2.324   1.555
 3476TIP3   OH210370   2.092   4.776   3.931
 3476TIP3    H110371   2.035   4.699   3.929
 3476TIP3    H210372   2.083   4.811   4.020
 3477TIP3   OH210373   7.759   1.949   3.090
 3477TIP3    H110374   7.845   1.942   3.130
 3477TIP3    H210375   7.774   1.930   2.997
 3478TIP3   OH210376   5.112   1.117   1.009
 3478TIP3    H110377   5.115   1.198   0.957
 3478TIP3    H210378   5.166   1.137   1.086
 3479TIP3   OH210379   7.951   5.714   3.115
 3479TIP3    H110380   7.946   5.759   3.030
 3479TIP3    H210381   7.896   5.765   3.173
 3480TIP3   OH210382   1.138   3.685   0.661
 3480TIP3    H110383   1.134   3.701   0.567
 3480TIP3    H210384   1.060   3.632   0.679
 3481TIP3   OH210385   0.902   3.977   2.712
 3481TIP3    H110386   0.836   4.024   2.761
 3481TIP3    H210387   0.854   3.932   2.643
 3482TIP3   OH210388   2.098   0.114   6.370
 3482TIP3    H110389   2.138   0.091   6.454
 3482TIP3    H210390   2.154   0.182   6.334
 3483TIP3   OH210391   6.389   6.723   0.166
 3483TIP3    H110392   6.482   6.700   0.165
 3483TIP3    H210393   6.344   6.643   0.138
 3484TIP3   OH210394   6.197   4.943   5.958
 3484TIP3    H110395   6.271   4.921   6.015
 3484TIP3    H210396   6.205   4.882   5.885
 3485TIP3   OH210397   7.001   1.429   2.665
 3485TIP3    H110398   7.019   1.338   2.688
 3485TIP3    H210399   7.072   1.479   2.706
 3486TIP3   OH210400   3.083   5.607   0.571
 3486TIP3    H110401   3.068   5.592   0.477
 3486TIP3    H210402   3.047   5.531   0.614
 3487TIP3   OH210403   2.752   7.668   4.173
 3487TIP3    H110404   2.665   7.635   4.151
 3487TIP3    H210405   2.804   7.654   4.094
 3488TIP3   OH210406   7.618   5.923   1.173
 3488TIP3    H110407   7.686   5.967   1.225
 3488TIP3    H210408   7.536   5.959   1.205
 3489TIP3   OH210409   7.489   5.839   0.407
 3489TIP3    H110410   7.481   5.882   0.492
 3489TIP3    H210411   7.500   5.911   0.345
 3490TIP3   OH210412   7.029   3.964   5.639
 3490TIP3    H110413   7.020   4.054   5.610
 3490TIP3    H210414   6.968   3.956   5.714
 3491TIP3   OH210415   0.617   0.183   4.795
 3491TIP3    H110416   0.599   0.112   4.856
 3491TIP3    H210417   0.639   0.139   4.713
 3492TIP3   OH210418   4.629   6.279   4.927
 3492TIP3    H110419   4.544   6.320   4.942
 3492TIP3    H210420   4.619   6.189   4.956
 3493TIP3   OH210421   5.347   4.333   0.147
 3493TIP3    H110422   5.423   4.387   0.171
 3493TIP3    H210423   5.336   4.347   0.053
 3494TIP3   OH210424   0.671   1.201   2.127
 3494TIP3    H110425   0.752   1.150   2.136
 3494TIP3    H210426   0.601   1.138   2.147
 3495TIP3   OH210427   5.194   7.455   5.962
 3495TIP3    H110428   5.233   7.476   6.047
 3495TIP3    H210429   5.265   7.413   5.913
 3496TIP3   OH210430   7.218   3.410   1.615
 3496TIP3    H110431   7.157   3.483   1.607
 3496TIP3    H210432   7.173   3.335   1.575
 3497TIP3   OH210433   7.338   6.015   2.022
 3497TIP3    H110434   7.261   6.070   2.009
 3497TIP3    H210435   7.310   5.951   2.087
 3498TIP3   OH210436   1.693   2.007   1.772
 3498TIP3    H110437   1.780   2.015   1.813
 3498TIP3    H210438   1.708   1.949   1.697
 3499TIP3   OH210439   3.089   6.562   0.409
 3499TIP3    H110440   3.109   6.469   0.402
 3499TIP3    H210441   3.022   6.578   0.343
 3500TIP3   OH210442   0.102   2.362   0.855
 3500TIP3    H110443   0.017   2.318   0.853
 3500TIP3    H210444   0.083   2.449   0.891
 3501TIP3   OH210445   4.359   2.032   6.168
 3501TIP3    H110446   4.406   2.101   6.215
 3501TIP3    H210447   4.291   2.078   6.119
 3502TIP3   OH210448   1.774   1.513   0.781
 3502TIP3    H110449   1.804   1.438   0.730
 3502TIP3    H210450   1.853   1.545   0.825
 3503TIP3   OH210451   5.112   3.523   3.597
 3503TIP3    H110452   5.115   3.441   3.547
 3503TIP3    H210453   5.156   3.587   3.542
 3504TIP3   OH210454   6.093   7.686   2.026
 3504TIP3    H110455   6.048   7.695   1.942
 3504TIP3    H210456   6.047   7.616   2.071
 3505TIP3   OH210457   7.734   1.811   5.416
 3505TIP3    H110458   7.813   1.816   5.362
 3505TIP3    H210459   7.748   1.877   5.484
 3506TIP3   OH210460   0.265   6.568   4.962
 3506TIP3    H110461   0.316   6.506   4.910
 3506TIP3    H210462   0.201   6.604   4.900
 3507TIP3   OH210463   6.071   1.096   5.848
 3507TIP3    H110464   6.132   1.160   5.812
 3507TIP3    H210465   6.054   1.036   5.776
 3508TIP3   OH210466   7.302   5.935   4.542
 3508TIP3    H110467   7.309   6.003   4.609
 3508TIP3    H210468   7.338   5.976   4.463
 3509TIP3   OH210469   4.694   1.483   1.530
 3509TIP3    H110470   4.738   1.399   1.518
 3509TIP3    H210471   4.727   1.516   1.613
 3510TIP3   OH210472   2.017   2.036   3.560
 3510TIP3    H110473   1.939   2.059   3.610
 3510TIP3    H210474   1.986   2.027   3.470
 3511TIP3   OH210475   0.512   6.274   2.919
 3511TIP3    H110476   0.495   6.300   2.828
 3511TIP3    H210477   0.476   6.345   2.972
 3512TIP3   OH210478   1.407   3.093   1.785
 3512TIP3    H110479   1.488   3.043   1.799
 3512TIP3    H210480   1.409   3.160   1.852
 3513TIP3   OH210481   0.913   1.270   5.336
 3513TIP3    H110482   0.918   1.347   5.392
 3513TIP3    H210483   0.825   1.235   5.351
 3514TIP3   OH210484   5.113   4.981   2.115
 3514TIP3    H110485   5.049   4.944   2.176
 3514TIP3    H210486   5.140   5.063   2.156
 3515TIP3   OH210487   6.512   3.036   5.232
 3515TIP3    H110488   6.482   2.947   5.215
 3515TIP3    H210489   6.593   3.025   5.282
 3516TIP3   OH210490   1.253   0.171   3.576
 3516TIP3    H110491   1.211   0.105   3.522
 3516TIP3    H210492   1.342   0.137   3.590
 3517TIP3   OH210493   2.269   4.893   2.978
 3517TIP3    H110494   2.241   4.984   2.973
 3517TIP3    H210495   2.249   4.857   2.891
 3518TIP3   OH210496   5.308   4.576   2.144
 3518TIP3    H110497   5.388   4.628   2.139
 3518TIP3    H210498   5.276   4.572   2.054
 3519TIP3   OH210499   5.830   0.346   5.859
 3519TIP3    H110500   5.737   0.340   5.880
 3519TIP3    H210501   5.862   0.418   5.914
 3520TIP3   OH210502   8.139   1.317   1.267
 3520TIP3    H110503   8.173   1.239   1.310
 3520TIP3    H210504   8.192   1.389   1.302
 3521TIP3   OH210505   0.515   3.992   1.081
 3521TIP3    H110506   0.432   4.020   1.044
 3521TIP3    H210507   0.508   3.896   1.085
 3522TIP3   OH210508   5.890   3.800   6.131
 3522TIP3    H110509   5.866   3.803   6.224
 3522TIP3    H210510   5.884   3.708   6.108
 3523TIP3   OH210511   3.590   0.914   2.691
 3523TIP3    H110512   3.577   0.936   2.599
 3523TIP3    H210513   3.656   0.845   2.690
 3524TIP3   OH210514   7.469   5.677   6.675
 3524TIP3    H110515   7.424   5.593   6.668
 3524TIP3    H210516   7.444   5.711   6.761
 3525TIP3   OH210517   4.316   0.735   2.040
 3525TIP3    H110518   4.241   0.688   2.075
 3525TIP3    H210519   4.303   0.735   1.945
 3526TIP3   OH210520   3.582   2.011   1.236
 3526TIP3    H110521   3.487   1.998   1.236
 3526TIP3    H210522   3.597   2.073   1.164
 3527TIP3   OH210523   6.746   7.401   3.844
 3527TIP3    H110524   6.804   7.347   3.791
 3527TIP3    H210525   6.684   7.439   3.781
 3528TIP3   OH210526   7.822   5.899   2.591
 3528TIP3    H110527   7.843   5.975   2.537
 3528TIP3    H210528   7.730   5.911   2.616
 3529TIP3   OH210529   7.818   5.537   1.971
 3529TIP3    H110530   7.822   5.442   1.960
 3529TIP3    H210531   7.896   5.558   2.022
 3530TIP3   OH210532   3.156   1.983   3.007
 3530TIP3    H110533   3.127   1.892   3.013
 3530TIP3    H210534   3.086   2.034   3.048
 3531TIP3   OH210535   6.863   5.066   1.650
 3531TIP3    H110536   6.878   4.986   1.700
 3531TIP3    H210537   6.869   5.136   1.716
 3532TIP3   OH210538   2.508   1.277   6.793
 3532TIP3    H110539   2.565   1.333   6.740
 3532TIP3    H210540   2.525   1.188   6.762
 3533TIP3   OH210541   7.084   4.447   3.466
 3533TIP3    H110542   7.077   4.532   3.423
 3533TIP3    H210543   7.093   4.384   3.395
 3534TIP3   OH210544   4.440   6.713   1.204
 3534TIP3    H110545   4.360   6.682   1.161
 3534TIP3    H210546   4.483   6.633   1.234
 3535TIP3   OH210547   1.584   7.227   6.220
 3535TIP3    H110548   1.500   7.219   6.265
 3535TIP3    H210549   1.648   7.240   6.290
 3536TIP3   OH210550   0.493   4.833   0.890
 3536TIP3    H110551   0.464   4.799   0.975
 3536TIP3    H210552   0.422   4.890   0.861
 3537TIP3   OH210553   6.742   4.496   2.899
 3537TIP3    H110554   6.749   4.589   2.920
 3537TIP3    H210555   6.802   4.453   2.959
 3538TIP3   OH210556   4.284   3.072   2.901
 3538TIP3    H110557   4.198   3.042   2.872
 3538TIP3    H210558   4.268   3.159   2.938
 3539TIP3   OH210559   8.233   1.333   0.802
 3539TIP3    H110560   8.279   1.363   0.880
 3539TIP3    H210561   8.146   1.309   0.834
 3540TIP3   OH210562   5.665   2.578   3.963
 3540TIP3    H110563   5.738   2.533   4.006
 3540TIP3    H210564   5.645   2.652   4.019
 3541TIP3   OH210565   5.755   3.266   0.752
 3541TIP3    H110566   5.851   3.271   0.743
 3541TIP3    H210567   5.736   3.316   0.831
 3542TIP3   OH210568   6.342   3.568   0.127
 3542TIP3    H110569   6.407   3.513   0.083
 3542TIP3    H210570   6.392   3.616   0.194
 3543TIP3   OH210571   1.373   6.421   0.378
 3543TIP3    H110572   1.373   6.517   0.372
 3543TIP3    H210573   1.364   6.403   0.471
 3544TIP3   OH210574   5.616   3.109   5.455
 3544TIP3    H110575   5.548   3.166   5.491
 3544TIP3    H210576   5.675   3.168   5.408
 3545TIP3   OH210577   4.575   0.570   0.385
 3545TIP3    H110578   4.565   0.623   0.463
 3545TIP3    H210579   4.489   0.569   0.344
 3546TIP3   OH210580   2.640   6.641   5.883
 3546TIP3    H110581   2.680   6.626   5.969
 3546TIP3    H210582   2.713   6.643   5.822
 3547TIP3   OH210583   3.524   7.527   5.915
 3547TIP3    H110584   3.429   7.515   5.918
 3547TIP3    H210585   3.554   7.465   5.848
 3548TIP3   OH210586   0.569   7.559   5.824
 3548TIP3    H110587   0.488   7.533   5.780
 3548TIP3    H210588   0.633   7.493   5.798
 3549TIP3   OH210589   4.570   6.100   5.194
 3549TIP3    H110590   4.642   6.111   5.256
 3549TIP3    H210591   4.545   6.008   5.201
 3550TIP3   OH210592   2.216   2.447   0.264
 3550TIP3    H110593   2.290   2.406   0.219
 3550TIP3    H210594   2.245   2.537   0.281
 3551TIP3   OH210595   0.635   6.100   3.984
 3551TIP3    H110596   0.601   6.013   4.004
 3551TIP3    H210597   0.600   6.156   4.053
 3552TIP3   OH210598   2.970   4.748   2.987
 3552TIP3    H110599   2.992   4.668   3.036
 3552TIP3    H210600   3.012   4.819   3.036
 3553TIP3   OH210601   3.386   2.853   3.154
 3553TIP3    H110602   3.411   2.901   3.234
 3553TIP3    H210603   3.404   2.761   3.175
 3554TIP3   OH210604   2.875   3.267   0.011
 3554TIP3    H110605   2.870   3.212  -0.067
 3554TIP3    H210606   2.891   3.207   0.083
 3555TIP3   OH210607   1.993   6.387   6.256
 3555TIP3    H110608   2.049   6.400   6.333
 3555TIP3    H210609   1.944   6.470   6.249
 3556TIP3   OH210610   6.704   0.321   6.473
 3556TIP3    H110611   6.720   0.414   6.456
 3556TIP3    H210612   6.720   0.277   6.390
 3557TIP3   OH210613   1.025   3.309   4.698
 3557TIP3    H110614   1.118   3.327   4.686
 3557TIP3    H210615   1.013   3.222   4.660
 3558TIP3   OH210616   6.752   3.112   5.401
 3558TIP3    H110617   6.803   3.166   5.462
 3558TIP3    H210618   6.786   3.135   5.315
 3559TIP3   OH210619   4.135   1.870   6.449
 3559TIP3    H110620   4.134   1.920   6.531
 3559TIP3    H210621   4.171   1.785   6.474
 3560TIP3   OH210622   3.634   3.777   3.498
 3560TIP3    H110623   3.689   3.851   3.525
 3560TIP3    H210624   3.610   3.798   3.408
 3561TIP3   OH210625   2.276   0.526   0.468
 3561TIP3    H110626   2.210   0.472   0.512
 3561TIP3    H210627   2.260   0.615   0.502
 3562TIP3   OH210628   1.501   5.048   3.376
 3562TIP3    H110629   1.541   5.082   3.456
 3562TIP3    H210630   1.415   5.090   3.371
 3563TIP3   OH210631   3.623   1.780   0.851
 3563TIP3    H110632   3.663   1.816   0.931
 3563TIP3    H210633   3.555   1.721   0.884
 3564TIP3   OH210634   0.765   2.112   0.780
 3564TIP3    H110635   0.675   2.142   0.779
 3564TIP3    H210636   0.760   2.019   0.758
 3565TIP3   OH210637   2.098   0.271   0.187
 3565TIP3    H110638   2.152   0.348   0.204
 3565TIP3    H210639   2.008   0.303   0.193
 3566TIP3   OH210640   4.086   0.777   5.789
 3566TIP3    H110641   4.103   0.840   5.858
 3566TIP3    H210642   4.152   0.797   5.722
 3567TIP3   OH210643   5.096   0.911   3.875
 3567TIP3    H110644   5.051   0.837   3.834
 3567TIP3    H210645   5.143   0.953   3.803
 3568TIP3   OH210646   6.735   6.394   5.624
 3568TIP3    H110647   6.803   6.449   5.586
 3568TIP3    H210648   6.724   6.322   5.561
 3569TIP3   OH210649   7.245   1.566   5.137
 3569TIP3    H110650   7.279   1.535   5.053
 3569TIP3    H210651   7.323   1.591   5.187
 3570TIP3   OH210652   5.850   6.589   4.149
 3570TIP3    H110653   5.866   6.632   4.065
 3570TIP3    H210654   5.771   6.537   4.135
 3571TIP3   OH210655   2.636   0.943   4.068
 3571TIP3    H110656   2.672   0.930   3.981
 3571TIP3    H210657   2.586   1.025   4.061
 3572TIP3   OH210658   4.127   5.322   4.376
 3572TIP3    H110659   4.077   5.242   4.355
 3572TIP3    H210660   4.209   5.312   4.328
 3573TIP3   OH210661   1.765   0.775   4.143
 3573TIP3    H110662   1.683   0.796   4.098
 3573TIP3    H210663   1.796   0.696   4.099
 3574TIP3   OH210664   0.467   1.706   6.373
 3574TIP3    H110665   0.482   1.756   6.453
 3574TIP3    H210666   0.494   1.617   6.396
 3575TIP3   OH210667   2.923   1.036   3.922
 3575TIP3    H110668   2.868   1.078   3.855
 3575TIP3    H210669   3.013   1.055   3.894
 3576TIP3   OH210670   6.257   4.339   5.577
 3576TIP3    H110671   6.320   4.369   5.642
 3576TIP3    H210672   6.203   4.275   5.625
 3577TIP3   OH210673   7.188   2.084   1.820
 3577TIP3    H110674   7.166   2.054   1.732
 3577TIP3    H210675   7.197   2.003   1.871
 3578TIP3   OH210676   0.373   6.147   3.335
 3578TIP3    H110677   0.298   6.186   3.380
 3578TIP3    H210678   0.446   6.205   3.354
 3579TIP3   OH210679   3.666   2.749   6.067
 3579TIP3    H110680   3.588   2.694   6.053
 3579TIP3    H210681   3.716   2.739   5.986
 3580TIP3   OH210682   0.029   2.933   3.003
 3580TIP3    H110683  -0.028   2.989   3.055
 3580TIP3    H210684  -0.002   2.944   2.913
 3581TIP3   OH210685   5.165   4.076   2.287
 3581TIP3    H110686   5.123   4.144   2.339
 3581TIP3    H210687   5.114   3.997   2.305
 3582TIP3   OH210688   0.241   0.174   3.791
 3582TIP3    H110689   0.321   0.124   3.777
 3582TIP3    H210690   0.171   0.110   3.787
 3583TIP3   OH210691   7.681   5.274   3.703
 3583TIP3    H110692   7.734   5.353   3.716
 3583TIP3    H210693   7.673   5.237   3.791
 3584TIP3   OH210694   6.939   6.010   0.137
 3584TIP3    H110695   7.014   6.034   0.191
 3584TIP3    H210696   6.950   6.062   0.057
 3585TIP3   OH210697   0.617   5.564   1.719
 3585TIP3    H110698   0.589   5.518   1.640
 3585TIP3    H210699   0.676   5.503   1.763
 3586TIP3   OH210700   4.965   7.324   4.027
 3586TIP3    H110701   4.925   7.300   4.110
 3586TIP3    H210702   4.985   7.240   3.985
 3587TIP3   OH210703   5.494   6.072   2.039
 3587TIP3    H110704   5.512   6.068   1.945
 3587TIP3    H210705   5.419   6.132   2.047
 3588TIP3   OH210706   3.948   4.608   1.777
 3588TIP3    H110707   4.036   4.624   1.744
 3588TIP3    H210708   3.899   4.576   1.701
 3589TIP3   OH210709   2.112   3.302   3.539
 3589TIP3    H110710   2.117   3.266   3.628
 3589TIP3    H210711   2.042   3.368   3.544
 3590TIP3   OH210712   2.861   0.950   5.389
 3590TIP3    H110713   2.797   0.906   5.446
 3590TIP3    H210714   2.913   1.003   5.449
 3591TIP3   OH210715   6.824   2.199   5.794
 3591TIP3    H110716   6.878   2.209   5.716
 3591TIP3    H210717   6.877   2.234   5.865
 3592TIP3   OH210718   7.977   6.278   6.104
 3592TIP3    H110719   7.925   6.237   6.035
 3592TIP3    H210720   8.023   6.349   6.060
 3593TIP3   OH210721   3.619   7.008   3.928
 3593TIP3    H110722   3.600   6.979   4.018
 3593TIP3    H210723   3.651   6.930   3.884
 3594TIP3   OH210724   6.161   3.947   0.879
 3594TIP3    H110725   6.106   4.026   0.880
 3594TIP3    H210726   6.249   3.978   0.898
 3595TIP3   OH210727   3.619   6.167   3.205
 3595TIP3    H110728   3.551   6.112   3.167
 3595TIP3    H210729   3.576   6.209   3.280
 3596TIP3   OH210730   4.928   7.388   2.050
 3596TIP3    H110731   4.901   7.352   2.135
 3596TIP3    H210732   4.855   7.368   1.991
 3597TIP3   OH210733   6.898   3.603   0.112
 3597TIP3    H110734   6.899   3.602   0.016
 3597TIP3    H210735   6.807   3.620   0.135
 3598TIP3   OH210736   7.201   5.857   1.811
 3598TIP3    H110737   7.150   5.937   1.800
 3598TIP3    H210738   7.288   5.887   1.839
 3599TIP3   OH210739   8.042   6.454   1.385
 3599TIP3    H110740   7.990   6.473   1.462
 3599TIP3    H210741   8.098   6.380   1.411
 3600TIP3   OH210742   7.030   1.269   0.377
 3600TIP3    H110743   6.943   1.308   0.369
 3600TIP3    H210744   7.030   1.229   0.464
 3601TIP3   OH210745   5.242   5.859   2.080
 3601TIP3    H110746   5.281   5.888   1.997
 3601TIP3    H210747   5.266   5.767   2.087
 3602TIP3   OH210748   6.204   1.022   4.768
 3602TIP3    H110749   6.176   0.980   4.687
 3602TIP3    H210750   6.123   1.049   4.811
 3603TIP3   OH210751   4.530   5.071   3.337
 3603TIP3    H110752   4.555   5.032   3.421
 3603TIP3    H210753   4.599   5.043   3.276
 3604TIP3   OH210754   5.568   1.110   2.845
 3604TIP3    H110755   5.652   1.147   2.819
 3604TIP3    H210756   5.548   1.047   2.776
 3605TIP3   OH210757   5.118   3.134   3.737
 3605TIP3    H110758   5.031   3.167   3.715
 3605TIP3    H210759   5.105   3.041   3.756
 3606TIP3   OH210760   2.306   3.034   0.471
 3606TIP3    H110761   2.220   3.021   0.510
 3606TIP3    H210762   2.298   2.996   0.383
 3607TIP3   OH210763   3.465   1.799   3.518
 3607TIP3    H110764   3.538   1.857   3.538
 3607TIP3    H210765   3.457   1.803   3.422
 3608TIP3   OH210766   0.109   2.397   5.905
 3608TIP3    H110767   0.111   2.493   5.907
 3608TIP3    H210768   0.159   2.370   5.982
 3609TIP3   OH210769   4.791   0.644   0.934
 3609TIP3    H110770   4.866   0.587   0.916
 3609TIP3    H210771   4.818   0.694   1.012
 3610TIP3   OH210772   4.020   5.490   5.958
 3610TIP3    H110773   3.949   5.508   6.020
 3610TIP3    H210774   4.089   5.551   5.981
 3611TIP3   OH210775   3.136   6.470   6.342
 3611TIP3    H110776   3.049   6.499   6.314
 3611TIP3    H210777   3.196   6.538   6.312
 3612TIP3   OH210778   1.975   4.906   6.376
 3612TIP3    H110779   1.915   4.864   6.314
 3612TIP3    H210780   1.918   4.939   6.445
 3613TIP3   OH210781   3.730   3.639   0.156
 3613TIP3    H110782   3.812   3.615   0.198
 3613TIP3    H210783   3.701   3.560   0.111
 3614TIP3   OH210784   1.272   3.641   6.419
 3614TIP3    H110785   1.232   3.601   6.496
 3614TIP3    H210786   1.353   3.680   6.452
 3615TIP3   OH210787   2.588   5.698   1.915
 3615TIP3    H110788   2.680   5.683   1.937
 3615TIP3    H210789   2.554   5.748   1.989
 3616TIP3   OH210790   4.271   5.931   0.230
 3616TIP3    H110791   4.277   5.982   0.149
 3616TIP3    H210792   4.215   5.857   0.207
 3617TIP3   OH210793   4.402   0.599   3.001
 3617TIP3    H110794   4.495   0.619   3.009
 3617TIP3    H210795   4.381   0.621   2.910
 3618TIP3   OH210796   1.430   6.687   0.320
 3618TIP3    H110797   1.505   6.691   0.379
 3618TIP3    H210798   1.469   6.677   0.233
 3619TIP3   OH210799   0.723   7.163   4.405
 3619TIP3    H110800   0.790   7.114   4.358
 3619TIP3    H210801   0.661   7.097   4.435
 3620TIP3   OH210802   8.234   2.533   0.152
 3620TIP3    H110803   8.311   2.477   0.141
 3620TIP3    H210804   8.217   2.533   0.246
 3621TIP3   OH210805   4.106   1.239   2.185
 3621TIP3    H110806   4.148   1.162   2.145
 3621TIP3    H210807   4.017   1.238   2.149
 3622TIP3   OH210808   8.003   1.590   3.809
 3622TIP3    H110809   8.066   1.565   3.877
 3622TIP3    H210810   7.945   1.514   3.801
 3623TIP3   OH210811   6.920   0.796   4.993
 3623TIP3    H110812   6.966   0.772   5.074
 3623TIP3    H210813   6.852   0.729   4.983
 3624TIP3   OH210814   8.162   5.653   4.312
 3624TIP3    H110815   8.168   5.711   4.388
 3624TIP3    H210816   8.244   5.603   4.314
 3625TIP3   OH210817   0.583   0.558   3.724
 3625TIP3    H110818   0.577   0.539   3.631
 3625TIP3    H210819   0.673   0.535   3.747
 3626TIP3   OH210820   6.318   2.937   3.516
 3626TIP3    H110821   6.245   2.944   3.455
 3626TIP3    H210822   6.277   2.936   3.602
 3627TIP3   OH210823   7.632   5.319   2.879
 3627TIP3    H110824   7.602   5.310   2.788
 3627TIP3    H210825   7.663   5.409   2.885
 3628TIP3   OH210826   6.558   7.171   1.620
 3628TIP3    H110827   6.508   7.140   1.696
 3628TIP3    H210828   6.649   7.163   1.646
 3629TIP3   OH210829   8.200   3.377   2.424
 3629TIP3    H110830   8.129   3.353   2.484
 3629TIP3    H210831   8.156   3.412   2.347
 3630TIP3   OH210832   7.739   3.466   3.017
 3630TIP3    H110833   7.757   3.503   2.930
 3630TIP3    H210834   7.799   3.511   3.075
 3631TIP3   OH210835   5.611   4.997   3.874
 3631TIP3    H110836   5.667   4.950   3.935
 3631TIP3    H210837   5.645   5.087   3.876
 3632TIP3   OH210838   4.093   1.048   5.552
 3632TIP3    H110839   4.078   1.073   5.460
 3632TIP3    H210840   4.036   1.106   5.602
 3633TIP3   OH210841   4.281   6.437   4.002
 3633TIP3    H110842   4.275   6.342   3.991
 3633TIP3    H210843   4.348   6.449   4.069
 3634TIP3   OH210844   6.052   2.282   0.399
 3634TIP3    H110845   6.031   2.205   0.451
 3634TIP3    H210846   6.025   2.260   0.310
 3635TIP3   OH210847   0.851   0.784   0.777
 3635TIP3    H110848   0.862   0.870   0.816
 3635TIP3    H210849   0.877   0.723   0.846
 3636TIP3   OH210850   1.852   1.668   3.068
 3636TIP3    H110851   1.908   1.744   3.079
 3636TIP3    H210852   1.789   1.693   3.001
 3637TIP3   OH210853   4.191   6.844   4.447
 3637TIP3    H110854   4.224   6.838   4.357
 3637TIP3    H210855   4.263   6.812   4.501
 3638TIP3   OH210856   6.920   4.932   1.428
 3638TIP3    H110857   7.013   4.925   1.452
 3638TIP3    H210858   6.885   4.999   1.486
 3639TIP3   OH210859   5.674   2.457  -0.027
 3639TIP3    H110860   5.737   2.509   0.023
 3639TIP3    H210861   5.615   2.522  -0.065
 3640TIP3   OH210862   7.186   1.586   3.221
 3640TIP3    H110863   7.267   1.560   3.177
 3640TIP3    H210864   7.214   1.613   3.309
 3641TIP3   OH210865   2.674   2.307   0.450
 3641TIP3    H110866   2.624   2.361   0.510
 3641TIP3    H210867   2.766   2.324   0.473
 3642TIP3   OH210868   4.398   6.676   3.559
 3642TIP3    H110869   4.458   6.744   3.592
 3642TIP3    H210870   4.413   6.602   3.617
 3643TIP3   OH210871   3.013   0.810   5.740
 3643TIP3    H110872   2.925   0.806   5.704
 3643TIP3    H210873   3.070   0.805   5.663
 3644TIP3   OH210874   1.075   7.467   6.309
 3644TIP3    H110875   1.112   7.384   6.339
 3644TIP3    H210876   1.004   7.485   6.370
 3645TIP3   OH210877   7.534   2.517   5.441
 3645TIP3    H110878   7.453   2.482   5.402
 3645TIP3    H210879   7.602   2.454   5.414
 3646TIP3   OH210880   6.395   5.800   1.183
 3646TIP3    H110881   6.386   5.780   1.090
 3646TIP3    H210882   6.474   5.755   1.211
 3647TIP3   OH210883   5.175   5.243   1.075
 3647TIP3    H110884   5.205   5.225   1.164
 3647TIP3    H210885   5.136   5.330   1.080
 3648TIP3   OH210886   8.038   0.283   0.045
 3648TIP3    H110887   7.965   0.327   0.002
 3648TIP3    H210888   8.030   0.309   0.137
 3649TIP3   OH210889   7.723   5.109   4.603
 3649TIP3    H110890   7.712   5.030   4.655
 3649TIP3    H210891   7.695   5.084   4.515
 3650TIP3   OH210892   7.980   3.984   0.478
 3650TIP3    H110893   8.047   4.020   0.536
 3650TIP3    H210894   8.027   3.922   0.423
 3651TIP3   OH210895   1.050   7.656   5.223
 3651TIP3    H110896   1.114   7.707   5.174
 3651TIP3    H210897   1.005   7.603   5.157
 3652TIP3   OH210898   0.745   2.316   3.980
 3652TIP3    H110899   0.801   2.367   3.921
 3652TIP3    H210900   0.703   2.252   3.922
 3653TIP3   OH210901   0.117   2.169   3.258
 3653TIP3    H110902   0.083   2.121   3.334
 3653TIP3    H210903   0.040   2.184   3.203
 3654TIP3   OH210904   2.918   0.222   4.498
 3654TIP3    H110905   2.975   0.227   4.421
 3654TIP3    H210906   2.840   0.177   4.467
 3655TIP3   OH210907   0.199   6.690   5.574
 3655TIP3    H110908   0.205   6.779   5.538
 3655TIP3    H210909   0.174   6.637   5.498
 3656TIP3   OH210910   7.179   6.018   1.024
 3656TIP3    H110911   7.206   5.962   1.097
 3656TIP3    H210912   7.143   5.958   0.959
 3657TIP3   OH210913   0.736   7.138   0.928
 3657TIP3    H110914   0.716   7.146   0.835
 3657TIP3    H210915   0.693   7.214   0.968
 3658TIP3   OH210916   1.104   6.674   1.189
 3658TIP3    H110917   1.112   6.761   1.228
 3658TIP3    H210918   1.045   6.627   1.249
 3659TIP3   OH210919   1.361   2.749   2.304
 3659TIP3    H110920   1.437   2.698   2.330
 3659TIP3    H210921   1.298   2.684   2.272
 3660TIP3   OH210922   3.789   2.555   2.509
 3660TIP3    H110923   3.730   2.627   2.486
 3660TIP3    H210924   3.785   2.496   2.435
 3661TIP3   OH210925   2.335   1.627   1.054
 3661TIP3    H110926   2.415   1.667   1.088
 3661TIP3    H210927   2.337   1.645   0.960
 3662TIP3   OH210928   4.513   0.347   1.774
 3662TIP3    H110929   4.496   0.433   1.813
 3662TIP3    H210930   4.553   0.366   1.690
 3663TIP3   OH210931   5.666   6.679   0.696
 3663TIP3    H110932   5.741   6.730   0.667
 3663TIP3    H210933   5.590   6.733   0.674
 3664TIP3   OH210934   2.407   7.217   3.482
 3664TIP3    H110935   2.416   7.167   3.401
 3664TIP3    H210936   2.495   7.251   3.499
 3665TIP3   OH210937   5.165   3.757   3.817
 3665TIP3    H110938   5.106   3.689   3.848
 3665TIP3    H210939   5.176   3.738   3.723
 3666TIP3   OH210940   1.425   7.312   2.590
 3666TIP3    H110941   1.428   7.368   2.513
 3666TIP3    H210942   1.400   7.371   2.661
 3667TIP3   OH210943   5.209   6.985   0.683
 3667TIP3    H110944   5.142   6.919   0.703
 3667TIP3    H210945   5.174   7.033   0.609
 3668TIP3   OH210946   0.895   6.523   6.679
 3668TIP3    H110947   0.858   6.452   6.627
 3668TIP3    H210948   0.848   6.519   6.763
 3669TIP3   OH210949   0.404   6.484   3.137
 3669TIP3    H110950   0.334   6.475   3.202
 3669TIP3    H210951   0.482   6.450   3.182
 3670TIP3   OH210952   6.566   4.302   1.024
 3670TIP3    H110953   6.619   4.245   0.969
 3670TIP3    H210954   6.610   4.387   1.022
 3671TIP3   OH210955   1.094   4.689   0.852
 3671TIP3    H110956   1.051   4.605   0.835
 3671TIP3    H210957   1.046   4.751   0.797
 3672TIP3   OH210958   4.576   1.348   2.663
 3672TIP3    H110959   4.564   1.282   2.595
 3672TIP3    H210960   4.487   1.379   2.682
 3673TIP3   OH210961   5.510   2.570   3.432
 3673TIP3    H110962   5.561   2.549   3.510
 3673TIP3    H210963   5.547   2.653   3.401
 3674TIP3   OH210964   2.911   3.009   4.313
 3674TIP3    H110965   2.981   2.993   4.375
 3674TIP3    H210966   2.955   3.023   4.229
 3675TIP3   OH210967   6.225   4.546   6.091
 3675TIP3    H110968   6.144   4.501   6.065
 3675TIP3    H210969   6.278   4.478   6.132
 3676TIP3   OH210970   6.825   6.802   5.680
 3676TIP3    H110971   6.775   6.771   5.756
 3676TIP3    H210972   6.775   6.772   5.604
 3677TIP3   OH210973   5.869   6.130   3.719
 3677TIP3    H110974   5.809   6.077   3.666
 3677TIP3    H210975   5.940   6.069   3.743
 3678TIP3   OH210976   1.703   4.105   3.111
 3678TIP3    H110977   1.635   4.071   3.168
 3678TIP3    H210978   1.677   4.077   3.023
 3679TIP3   OH210979   5.449   7.432   3.163
 3679TIP3    H110980   5.376   7.493   3.150
 3679TIP3    H210981   5.432   7.392   3.248
 3680TIP3   OH210982   3.126   0.339   4.048
 3680TIP3    H110983   3.119   0.434   4.063
 3680TIP3    H210984   3.177   0.332   3.967
 3681TIP3   OH210985   3.474   1.110   0.223
 3681TIP3    H110986   3.403   1.090   0.162
 3681TIP3    H210987   3.506   1.196   0.194
 3682TIP3   OH210988   1.775   1.212   0.624
 3682TIP3    H110989   1.730   1.222   0.540
 3682TIP3    H210990   1.704   1.197   0.686
 3683TIP3   OH210991   1.182   7.065   5.842
 3683TIP3    H110992   1.137   7.129   5.787
 3683TIP3    H210993   1.133   7.066   5.924
 3684TIP3   OH210994   7.463   5.378   3.559
 3684TIP3    H110995   7.503   5.444   3.503
 3684TIP3    H210996   7.535   5.345   3.613
 3685TIP3   OH210997   1.960   1.419   0.236
 3685TIP3    H110998   1.946   1.344   0.178
 3685TIP3    H210999   1.872   1.450   0.258
 3686TIP3   OH211000   3.204   2.901   5.948
 3686TIP3    H111001   3.136   2.966   5.931
 3686TIP3    H211002   3.286   2.949   5.937
 3687TIP3   OH211003   2.736   3.435   4.766
 3687TIP3    H111004   2.705   3.483   4.689
 3687TIP3    H211005   2.666   3.446   4.831
 3688TIP3   OH211006   2.702   6.350   1.743
 3688TIP3    H111007   2.783   6.300   1.742
 3688TIP3    H211008   2.671   6.349   1.653
 3689TIP3   OH211009   5.108   7.582   3.683
 3689TIP3    H111010   5.012   7.583   3.676
 3689TIP3    H211011   5.125   7.545   3.769
 3690TIP3   OH211012   4.732   5.461   0.031
 3690TIP3    H111013   4.790   5.503   0.095
 3690TIP3    H211014   4.645   5.496   0.051
 3691TIP3   OH211015   1.491   0.371   5.258
 3691TIP3    H111016   1.511   0.307   5.327
 3691TIP3    H211017   1.396   0.374   5.254
 3692TIP3   OH211018   2.925   1.838   0.980
 3692TIP3    H111019   2.953   1.807   0.894
 3692TIP3    H211020   2.874   1.767   1.016
 3693TIP3   OH211021   1.474   2.501   2.105
 3693TIP3    H111022   1.389   2.469   2.076
 3693TIP3    H211023   1.474   2.594   2.083
 3694TIP3   OH211024   4.222   0.739   1.780
 3694TIP3    H111025   4.213   0.720   1.687
 3694TIP3    H211026   4.133   0.729   1.815
 3695TIP3   OH211027   8.159   5.132   3.809
 3695TIP3    H111028   8.164   5.226   3.796
 3695TIP3    H211029   8.095   5.102   3.743
 3696TIP3   OH211030   2.499   5.926   2.181
 3696TIP3    H111031   2.585   5.953   2.149
 3696TIP3    H211032   2.500   5.948   2.274
 3697TIP3   OH211033   4.579   4.267   4.431
 3697TIP3    H111034   4.577   4.362   4.417
 3697TIP3    H211035   4.614   4.232   4.349
 3698TIP3   OH211036   4.722   6.692   4.142
 3698TIP3    H111037   4.691   6.636   4.212
 3698TIP3    H211038   4.644   6.740   4.113
 3699TIP3   OH211039   8.124   0.011   6.722
 3699TIP3    H111040   8.190  -0.025   6.781
 3699TIP3    H211041   8.105   0.098   6.758
 3700TIP3   OH211042   7.986   4.533   4.869
 3700TIP3    H111043   7.929   4.458   4.859
 3700TIP3    H211044   8.073   4.501   4.844
 3701TIP3   OH211045   6.103   1.965  -0.027
 3701TIP3    H111046   6.050   1.889   0.001
 3701TIP3    H211047   6.136   2.002   0.055
 3702TIP3   OH211048   3.082   5.897   5.649
 3702TIP3    H111049   3.098   5.923   5.558
 3702TIP3    H211050   3.160   5.927   5.696
 3703TIP3   OH211051   0.525   1.784   5.766
 3703TIP3    H111052   0.498   1.717   5.830
 3703TIP3    H211053   0.453   1.848   5.768
 3704TIP3   OH211054   6.597   0.856   2.259
 3704TIP3    H111055   6.627   0.820   2.175
 3704TIP3    H211056   6.643   0.804   2.325
 3705TIP3   OH211057   5.459   4.725   1.538
 3705TIP3    H111058   5.500   4.639   1.539
 3705TIP3    H211059   5.481   4.763   1.624
 3706TIP3   OH211060   2.897   4.360   3.659
 3706TIP3    H111061   2.976   4.405   3.627
 3706TIP3    H211062   2.928   4.275   3.690
 3707TIP3   OH211063   5.683   3.898   5.090
 3707TIP3    H111064   5.619   3.844   5.138
 3707TIP3    H211065   5.634   3.932   5.016
 3708TIP3   OH211066   7.071   0.440   4.636
 3708TIP3    H111067   7.054   0.405   4.723
 3708TIP3    H211068   7.002   0.505   4.623
 3709TIP3   OH211069   0.944   1.098   2.284
 3709TIP3    H111070   0.995   1.022   2.313
 3709TIP3    H211071   0.891   1.122   2.360
 3710TIP3   OH211072   6.358   7.456   3.449
 3710TIP3    H111073   6.279   7.402   3.441
 3710TIP3    H211074   6.325   7.545   3.456
 3711TIP3   OH211075   7.565   3.033   0.138
 3711TIP3    H111076   7.535   3.086   0.064
 3711TIP3    H211077   7.489   2.980   0.162
 3712TIP3   OH211078   5.652   1.896   0.761
 3712TIP3    H111079   5.606   1.827   0.809
 3712TIP3    H211080   5.608   1.977   0.786
 3713TIP3   OH211081   4.830   6.654   2.549
 3713TIP3    H111082   4.892   6.671   2.479
 3713TIP3    H211083   4.766   6.594   2.510
 3714TIP3   OH211084   1.621   1.636   5.533
 3714TIP3    H111085   1.681   1.642   5.458
 3714TIP3    H211086   1.567   1.715   5.527
 3715TIP3   OH211087   3.622   5.198   2.082
 3715TIP3    H111088   3.652   5.115   2.046
 3715TIP3    H211089   3.700   5.237   2.121
 3716TIP3   OH211090   1.621   6.000   0.830
 3716TIP3    H111091   1.636   5.994   0.736
 3716TIP3    H211092   1.584   5.914   0.853
 3717TIP3   OH211093   4.758   6.786   5.617
 3717TIP3    H111094   4.802   6.786   5.532
 3717TIP3    H211095   4.816   6.837   5.673
 3718TIP3   OH211096   1.288   4.160   6.442
 3718TIP3    H111097   1.203   4.195   6.418
 3718TIP3    H211098   1.296   4.079   6.391
 3719TIP3   OH211099   5.837   1.480   5.660
 3719TIP3    H111100   5.835   1.541   5.586
 3719TIP3    H211101   5.772   1.414   5.638
 3720TIP3   OH211102   6.596   7.448   5.596
 3720TIP3    H111103   6.596   7.539   5.565
 3720TIP3    H211104   6.656   7.403   5.537
 3721TIP3   OH211105   7.939   4.568   0.738
 3721TIP3    H111106   7.892   4.635   0.689
 3721TIP3    H211107   8.000   4.530   0.675
 3722TIP3   OH211108   3.652   0.534   4.292
 3722TIP3    H111109   3.593   0.556   4.364
 3722TIP3    H211110   3.711   0.467   4.328
 3723TIP3   OH211111   2.757   1.268   1.991
 3723TIP3    H111112   2.835   1.317   2.015
 3723TIP3    H211113   2.704   1.329   1.940
 3724TIP3   OH211114   0.430   1.055   5.627
 3724TIP3    H111115   0.493   1.118   5.662
 3724TIP3    H211116   0.453   1.046   5.535
 3725TIP3   OH211117   3.386   5.975   1.447
 3725TIP3    H111118   3.414   6.007   1.361
 3725TIP3    H211119   3.436   5.894   1.459
 3726TIP3   OH211120   2.486   7.065   0.439
 3726TIP3    H111121   2.441   6.982   0.452
 3726TIP3    H211122   2.503   7.097   0.528
 3727TIP3   OH211123   2.615   7.526   5.477
 3727TIP3    H111124   2.545   7.496   5.419
 3727TIP3    H211125   2.611   7.622   5.471
 3728TIP3   OH211126   5.629   1.205   0.097
 3728TIP3    H111127   5.594   1.193   0.185
 3728TIP3    H211128   5.580   1.143   0.043
 3729TIP3   OH211129   2.032   2.296   0.406
 3729TIP3    H111130   2.095   2.347   0.355
 3729TIP3    H211131   1.954   2.290   0.350
 3730TIP3   OH211132   1.752   4.326   4.736
 3730TIP3    H111133   1.783   4.379   4.809
 3730TIP3    H211134   1.812   4.347   4.664
 3731TIP3   OH211135   0.400   0.711   3.848
 3731TIP3    H111136   0.425   0.726   3.939
 3731TIP3    H211137   0.480   0.682   3.805
 3732TIP3   OH211138   7.448   7.198   1.160
 3732TIP3    H111139   7.522   7.251   1.189
 3732TIP3    H211140   7.371   7.244   1.192
 3733TIP3   OH211141   5.247   5.642   2.920
 3733TIP3    H111142   5.247   5.576   2.850
 3733TIP3    H211143   5.316   5.614   2.980
 3734TIP3   OH211144   4.625   1.385   3.138
 3734TIP3    H111145   4.671   1.317   3.089
 3734TIP3    H211146   4.627   1.461   3.080
 3735TIP3   OH211147   1.831   1.718   5.705
 3735TIP3    H111148   1.758   1.684   5.652
 3735TIP3    H211149   1.844   1.807   5.673
 3736TIP3   OH211150   2.733   6.904   0.143
 3736TIP3    H111151   2.639   6.892   0.130
 3736TIP3    H211152   2.749   6.870   0.231
 3737TIP3   OH211153   7.252   3.263   5.717
 3737TIP3    H111154   7.279   3.186   5.666
 3737TIP3    H211155   7.164   3.283   5.685
 3738TIP3   OH211156   1.387   7.497   2.796
 3738TIP3    H111157   1.353   7.551   2.725
 3738TIP3    H211158   1.403   7.558   2.868
 3739TIP3   OH211159   4.704   1.106   2.570
 3739TIP3    H111160   4.774   1.155   2.613
 3739TIP3    H211161   4.736   1.091   2.481
 3740TIP3   OH211162   1.153   1.461   3.029
 3740TIP3    H111163   1.132   1.386   3.086
 3740TIP3    H211164   1.206   1.519   3.085
 3741TIP3   OH211165   2.685   4.187   3.323
 3741TIP3    H111166   2.726   4.272   3.311
 3741TIP3    H211167   2.591   4.205   3.319
 3742TIP3   OH211168   6.350   3.915   1.971
 3742TIP3    H111169   6.358   3.949   2.060
 3742TIP3    H211170   6.357   3.820   1.981
 3743TIP3   OH211171   1.754   4.509   4.266
 3743TIP3    H111172   1.792   4.597   4.271
 3743TIP3    H211173   1.754   4.489   4.173
 3744TIP3   OH211174   3.620   6.267   2.887
 3744TIP3    H111175   3.678   6.215   2.942
 3744TIP3    H211176   3.590   6.206   2.819
 3745TIP3   OH211177   0.289   4.003   1.811
 3745TIP3    H111178   0.334   3.991   1.895
 3745TIP3    H211179   0.261   4.094   1.811
 3746TIP3   OH211180   6.935   6.565   1.523
 3746TIP3    H111181   6.946   6.470   1.525
 3746TIP3    H211182   6.840   6.577   1.511
 3747TIP3   OH211183   5.025   7.314   5.657
 3747TIP3    H111184   5.119   7.299   5.648
 3747TIP3    H211185   5.014   7.353   5.744
 3748TIP3   OH211186   0.890   6.998   1.834
 3748TIP3    H111187   0.834   6.987   1.911
 3748TIP3    H211188   0.965   7.048   1.866
 3749TIP3   OH211189   4.954   1.189   2.716
 3749TIP3    H111190   4.998   1.192   2.801
 3749TIP3    H211191   5.018   1.224   2.654
 3750TIP3   OH211192   2.608   2.983   5.209
 3750TIP3    H111193   2.601   2.923   5.135
 3750TIP3    H211194   2.701   3.002   5.216
 3751TIP3   OH211195   4.363   4.008  -0.008
 3751TIP3    H111196   4.355   4.002  -0.103
 3751TIP3    H211197   4.442   4.060   0.006
 3752TIP3   OH211198   6.250   4.748   4.206
 3752TIP3    H111199   6.247   4.732   4.300
 3752TIP3    H211200   6.318   4.690   4.173
 3753TIP3   OH211201   3.416   5.292   5.293
 3753TIP3    H111202   3.401   5.314   5.385
 3753TIP3    H211203   3.415   5.377   5.247
 3754TIP3   OH211204   0.667   6.166   1.980
 3754TIP3    H111205   0.653   6.111   2.057
 3754TIP3    H211206   0.614   6.243   1.995
 3755TIP3   OH211207   0.558   5.039   3.209
 3755TIP3    H111208   0.502   5.098   3.259
 3755TIP3    H211209   0.513   5.028   3.125
 3756TIP3   OH211210   0.274   4.993   4.120
 3756TIP3    H111211   0.368   5.001   4.136
 3756TIP3    H211212   0.257   4.899   4.122
 3757TIP3   OH211213   4.530   4.287   1.827
 3757TIP3    H111214   4.478   4.337   1.889
 3757TIP3    H211215   4.535   4.343   1.749
 3758TIP3   OH211216   6.859   7.014   3.693
 3758TIP3    H111217   6.905   7.032   3.775
 3758TIP3    H211218   6.767   7.010   3.718
 3759TIP3   OH211219   6.203   4.744   3.298
 3759TIP3    H111220   6.183   4.738   3.204
 3759TIP3    H211221   6.198   4.653   3.328
 3760TIP3   OH211222   2.085   2.858   0.332
 3760TIP3    H111223   2.088   2.782   0.273
 3760TIP3    H211224   2.166   2.852   0.382
 3761TIP3   OH211225   0.644   1.097   5.919
 3761TIP3    H111226   0.628   1.019   5.866
 3761TIP3    H211227   0.726   1.134   5.884
 3762TIP3   OH211228   1.608   4.722   4.654
 3762TIP3    H111229   1.525   4.679   4.677
 3762TIP3    H211230   1.589   4.767   4.571
 3763TIP3   OH211231   4.645   7.274   6.500
 3763TIP3    H111232   4.644   7.348   6.440
 3763TIP3    H211233   4.597   7.205   6.453
 3764TIP3   OH211234   0.805   5.783   2.648
 3764TIP3    H111235   0.884   5.738   2.616
 3764TIP3    H211236   0.743   5.777   2.576
 3765TIP3   OH211237   6.836   4.719   2.690
 3765TIP3    H111238   6.793   4.754   2.768
 3765TIP3    H211239   6.788   4.638   2.671
 3766TIP3   OH211240   4.354   5.269   5.922
 3766TIP3    H111241   4.356   5.269   6.018
 3766TIP3    H211242   4.428   5.214   5.896
 3767TIP3   OH211243   0.492   2.182   0.712
 3767TIP3    H111244   0.460   2.096   0.682
 3767TIP3    H211245   0.488   2.237   0.634
 3768TIP3   OH211246   5.489   7.638   1.428
 3768TIP3    H111247   5.458   7.547   1.418
 3768TIP3    H211248   5.422   7.691   1.385
 3769TIP3   OH211249   5.609   7.342   0.021
 3769TIP3    H111250   5.577   7.281  -0.046
 3769TIP3    H211251   5.646   7.415  -0.028
 3770TIP3   OH211252   6.702   2.368   5.508
 3770TIP3    H111253   6.795   2.353   5.526
 3770TIP3    H211254   6.682   2.308   5.436
 3771TIP3   OH211255   3.593   2.192   2.020
 3771TIP3    H111256   3.687   2.176   2.019
 3771TIP3    H211257   3.564   2.158   2.105
 3772TIP3   OH211258   3.230   3.871   5.397
 3772TIP3    H111259   3.196   3.859   5.308
 3772TIP3    H211260   3.187   3.951   5.428
 3773TIP3   OH211261   2.353   0.160   3.993
 3773TIP3    H111262   2.382   0.073   3.966
 3773TIP3    H211263   2.311   0.197   3.915
 3774TIP3   OH211264   2.175   5.735   0.359
 3774TIP3    H111265   2.086   5.713   0.389
 3774TIP3    H211266   2.220   5.765   0.438
 3775TIP3   OH211267   6.603   5.434   3.489
 3775TIP3    H111268   6.582   5.527   3.480
 3775TIP3    H211269   6.638   5.409   3.404
 3776TIP3   OH211270   4.345   0.379   2.553
 3776TIP3    H111271   4.342   0.286   2.533
 3776TIP3    H211272   4.256   0.401   2.581
 3777TIP3   OH211273   0.121   2.283   1.763
 3777TIP3    H111274   0.054   2.333   1.717
 3777TIP3    H211275   0.202   2.332   1.747
 3778TIP3   OH211276   0.433   4.855   3.450
 3778TIP3    H111277   0.377   4.888   3.379
 3778TIP3    H211278   0.463   4.933   3.496
 3779TIP3   OH211279   5.896   6.678   2.902
 3779TIP3    H111280   5.908   6.603   2.961
 3779TIP3    H211281   5.834   6.734   2.947
 3780TIP3   OH211282   6.990   5.744   2.630
 3780TIP3    H111283   7.052   5.718   2.699
 3780TIP3    H211284   7.022   5.829   2.601
 3781TIP3   OH211285   7.745   3.921   1.549
 3781TIP3    H111286   7.761   4.006   1.589
 3781TIP3    H211287   7.826   3.872   1.565
 3782TIP3   OH211288   0.617   7.514   5.121
 3782TIP3    H111289   0.612   7.447   5.189
 3782TIP3    H211290   0.543   7.572   5.139
 3783TIP3   OH211291   5.890   0.822   2.179
 3783TIP3    H111292   5.810   0.812   2.229
 3783TIP3    H211293   5.950   0.758   2.216
 3784TIP3   OH211294   5.273   7.510   0.670
 3784TIP3    H111295   5.313   7.503   0.757
 3784TIP3    H211296   5.259   7.419   0.643
 3785TIP3   OH211297   6.178   2.400   6.429
 3785TIP3    H111298   6.197   2.467   6.363
 3785TIP3    H211299   6.095   2.427   6.467
 3786TIP3   OH211300   3.626   1.579   5.879
 3786TIP3    H111301   3.594   1.669   5.887
 3786TIP3    H211302   3.721   1.587   5.881
 3787TIP3   OH211303   4.399   5.324   3.417
 3787TIP3    H111304   4.445   5.374   3.484
 3787TIP3    H211305   4.462   5.257   3.389
 3788TIP3   OH211306   7.870   0.596   2.037
 3788TIP3    H111307   7.844   0.518   1.989
 3788TIP3    H211308   7.792   0.623   2.085
 3789TIP3   OH211309   0.339   2.378   3.674
 3789TIP3    H111310   0.353   2.290   3.709
 3789TIP3    H211311   0.420   2.400   3.629
 3790TIP3   OH211312   8.146   2.922   0.300
 3790TIP3    H111313   8.139   2.856   0.231
 3790TIP3    H211314   8.077   2.900   0.362
 3791TIP3   OH211315   7.353   5.002   1.043
 3791TIP3    H111316   7.328   4.912   1.063
 3791TIP3    H211317   7.309   5.022   0.960
 3792TIP3   OH211318   7.755   5.114   5.104
 3792TIP3    H111319   7.750   5.107   5.199
 3792TIP3    H211320   7.770   5.207   5.087
 3793TIP3   OH211321   6.251   3.949   6.499
 3793TIP3    H111322   6.323   3.940   6.437
 3793TIP3    H211323   6.264   3.877   6.561
 3794TIP3   OH211324   7.435   0.525   1.657
 3794TIP3    H111325   7.340   0.524   1.643
 3794TIP3    H211326   7.462   0.614   1.635
 3795TIP3   OH211327   7.934   7.271   5.910
 3795TIP3    H111328   8.019   7.273   5.866
 3795TIP3    H211329   7.937   7.191   5.963
 3796TIP3   OH211330   6.374   5.338   2.193
 3796TIP3    H111331   6.438   5.277   2.232
 3796TIP3    H211332   6.372   5.412   2.254
 3797TIP3   OH211333   0.322   5.311   0.776
 3797TIP3    H111334   0.355   5.368   0.707
 3797TIP3    H211335   0.380   5.326   0.850
 3798TIP3   OH211336   7.364   0.660   5.147
 3798TIP3    H111337   7.432   0.594   5.133
 3798TIP3    H211338   7.339   0.688   5.058
 3799TIP3   OH211339   6.984   3.250   1.749
 3799TIP3    H111340   7.064   3.301   1.762
 3799TIP3    H211341   6.992   3.217   1.659
 3800TIP3   OH211342   8.269   4.329   1.167
 3800TIP3    H111343   8.217   4.402   1.200
 3800TIP3    H211344   8.259   4.260   1.233
 3801TIP3   OH211345   4.058   2.710   5.232
 3801TIP3    H111346   4.000   2.655   5.285
 3801TIP3    H211347   4.101   2.650   5.172
 3802TIP3   OH211348   4.000   4.378   1.410
 3802TIP3    H111349   4.067   4.445   1.421
 3802TIP3    H211350   4.048   4.295   1.416
 3803TIP3   OH211351   4.507   1.345   0.291
 3803TIP3    H111352   4.457   1.406   0.237
 3803TIP3    H211353   4.486   1.258   0.255
 3804TIP3   OH211354   6.225   6.686   5.237
 3804TIP3    H111355   6.165   6.754   5.207
 3804TIP3    H211356   6.172   6.607   5.242
 3805TIP3   OH211357   5.594   7.360   3.480
 3805TIP3    H111358   5.650   7.415   3.425
 3805TIP3    H211359   5.653   7.322   3.544
 3806TIP3   OH211360   4.898   7.248   3.264
 3806TIP3    H111361   4.931   7.244   3.354
 3806TIP3    H211362   4.835   7.177   3.259
 3807TIP3   OH211363   5.127   3.798   2.995
 3807TIP3    H111364   5.118   3.746   2.915
 3807TIP3    H211365   5.057   3.863   2.989
 3808TIP3   OH211366   7.905   3.141   0.913
 3808TIP3    H111367   7.869   3.058   0.943
 3808TIP3    H211368   7.859   3.207   0.964
 3809TIP3   OH211369   0.728   0.109   4.569
 3809TIP3    H111370   0.792   0.060   4.517
 3809TIP3    H211371   0.712   0.189   4.519
 3810TIP3   OH211372   0.847   7.761   1.547
 3810TIP3    H111373   0.751   7.763   1.550
 3810TIP3    H211374   0.868   7.675   1.511
 3811TIP3   OH211375   6.572   3.204   4.470
 3811TIP3    H111376   6.626   3.125   4.475
 3811TIP3    H211377   6.508   3.185   4.401
 3812TIP3   OH211378   0.166   1.654   4.437
 3812TIP3    H111379   0.141   1.733   4.390
 3812TIP3    H211380   0.155   1.583   4.373
 3813TIP3   OH211381   2.228   4.247   0.951
 3813TIP3    H111382   2.282   4.168   0.957
 3813TIP3    H211383   2.245   4.281   0.863
 3814TIP3   OH211384   2.080   0.151   4.857
 3814TIP3    H111385   2.032   0.111   4.930
 3814TIP3    H211386   2.036   0.116   4.779
 3815TIP3   OH211387   2.276   0.286   4.554
 3815TIP3    H111388   2.336   0.324   4.618
 3815TIP3    H211389   2.330   0.267   4.478
 3816TIP3   OH211390   6.776   1.461   2.117
 3816TIP3    H111391   6.744   1.461   2.208
 3816TIP3    H211392   6.781   1.368   2.094
 3817TIP3   OH211393   4.556   4.568   1.327
 3817TIP3    H111394   4.648   4.563   1.303
 3817TIP3    H211395   4.510   4.519   1.259
 3818TIP3   OH211396   6.529   3.625   3.642
 3818TIP3    H111397   6.452   3.662   3.599
 3818TIP3    H211398   6.538   3.675   3.723
 3819TIP3   OH211399   1.692   7.042   3.629
 3819TIP3    H111400   1.695   6.963   3.574
 3819TIP3    H211401   1.601   7.050   3.656
 3820TIP3   OH211402   1.025   5.971   5.631
 3820TIP3    H111403   1.116   5.948   5.647
 3820TIP3    H211404   1.029   6.056   5.587
 3821TIP3   OH211405   5.334   2.449   1.791
 3821TIP3    H111406   5.342   2.426   1.699
 3821TIP3    H211407   5.371   2.537   1.798
 3822TIP3   OH211408   3.956   1.688   1.766
 3822TIP3    H111409   4.040   1.734   1.769
 3822TIP3    H211410   3.892   1.755   1.791
 3823TIP3   OH211411   3.316   3.601   3.421
 3823TIP3    H111412   3.371   3.533   3.383
 3823TIP3    H211413   3.232   3.558   3.436
 3824TIP3   OH211414   3.160   5.198   2.345
 3824TIP3    H111415   3.230   5.177   2.282
 3824TIP3    H211416   3.129   5.113   2.376
 3825TIP3   OH211417   0.362   2.776   5.792
 3825TIP3    H111418   0.331   2.803   5.706
 3825TIP3    H211419   0.452   2.746   5.777
 3826TIP3   OH211420   2.433   2.580   0.779
 3826TIP3    H111421   2.437   2.675   0.774
 3826TIP3    H211422   2.514   2.554   0.822
 3827TIP3   OH211423   4.190   3.319   0.942
 3827TIP3    H111424   4.224   3.409   0.948
 3827TIP3    H211425   4.100   3.330   0.911
 3828TIP3   OH211426   5.324   7.769   2.845
 3828TIP3    H111427   5.304   7.812   2.762
 3828TIP3    H211428   5.413   7.798   2.866
 3829TIP3   OH211429   5.917   0.084   3.807
 3829TIP3    H111430   5.950   0.014   3.751
 3829TIP3    H211431   5.829   0.101   3.774
 3830TIP3   OH211432   4.417   2.613   1.791
 3830TIP3    H111433   4.427   2.706   1.767
 3830TIP3    H211434   4.326   2.592   1.767
 3831TIP3   OH211435   6.779   7.119   5.136
 3831TIP3    H111436   6.872   7.095   5.140
 3831TIP3    H211437   6.747   7.077   5.056
 3832TIP3   OH211438   1.964   2.117   0.042
 3832TIP3    H111439   1.990   2.154  -0.043
 3832TIP3    H211440   1.871   2.137   0.049
 3833TIP3   OH211441   0.519   5.780   2.627
 3833TIP3    H111442   0.456   5.790   2.556
 3833TIP3    H211443   0.548   5.869   2.646
 3834TIP3   OH211444   7.612   6.420   0.177
 3834TIP3    H111445   7.696   6.400   0.219
 3834TIP3    H211446   7.596   6.512   0.197
 3835TIP3   OH211447   4.428   7.030   2.529
 3835TIP3    H111448   4.365   6.982   2.583
 3835TIP3    H211449   4.511   6.983   2.541
 3836TIP3   OH211450   5.656   5.527   6.238
 3836TIP3    H111451   5.652   5.610   6.191
 3836TIP3    H211452   5.579   5.528   6.295
 3837TIP3   OH211453   1.802   4.667   5.607
 3837TIP3    H111454   1.778   4.575   5.601
 3837TIP3    H211455   1.787   4.690   5.699
 3838TIP3   OH211456   3.369   2.923   2.233
 3838TIP3    H111457   3.388   2.874   2.153
 3838TIP3    H211458   3.388   2.861   2.304
 3839TIP3   OH211459   2.509   5.610   0.518
 3839TIP3    H111460   2.536   5.528   0.477
 3839TIP3    H211461   2.540   5.678   0.460
 3840TIP3   OH211462   0.113   1.301   6.416
 3840TIP3    H111463   0.155   1.303   6.330
 3840TIP3    H211464   0.184   1.309   6.479
 3841TIP3   OH211465   6.987   4.471   6.194
 3841TIP3    H111466   6.976   4.455   6.288
 3841TIP3    H211467   6.957   4.561   6.181
 3842TIP3   OH211468   5.171   5.788   3.671
 3842TIP3    H111469   5.260   5.754   3.665
 3842TIP3    H211470   5.162   5.815   3.763
 3843TIP3   OH211471   7.981   3.431   3.295
 3843TIP3    H111472   7.921   3.375   3.344
 3843TIP3    H211473   8.059   3.437   3.350
 3844TIP3   OH211474   3.527   5.902   5.964
 3844TIP3    H111475   3.452   5.912   6.023
 3844TIP3    H211476   3.571   5.822   5.994
 3845TIP3   OH211477   5.758   2.095   3.155
 3845TIP3    H111478   5.665   2.118   3.150
 3845TIP3    H211479   5.789   2.100   3.064
 3846TIP3   OH211480   1.992   6.950   4.004
 3846TIP3    H111481   1.929   7.016   3.977
 3846TIP3    H211482   1.959   6.868   3.968
 3847TIP3   OH211483   0.684   7.505   1.796
 3847TIP3    H111484   0.743   7.454   1.740
 3847TIP3    H211485   0.732   7.586   1.815
 3848TIP3   OH211486   5.450   2.888   0.947
 3848TIP3    H111487   5.537   2.927   0.937
 3848TIP3    H211488   5.394   2.961   0.973
 3849TIP3   OH211489   6.545   6.144   5.251
 3849TIP3    H111490   6.561   6.093   5.171
 3849TIP3    H211491   6.515   6.229   5.219
 3850TIP3   OH211492   6.895   1.737   3.355
 3850TIP3    H111493   6.940   1.687   3.422
 3850TIP3    H211494   6.907   1.686   3.275
 3851TIP3   OH211495   2.349   3.343   4.512
 3851TIP3    H111496   2.260   3.376   4.506
 3851TIP3    H211497   2.341   3.249   4.497
 3852TIP3   OH211498   3.096   3.111   0.604
 3852TIP3    H111499   3.176   3.163   0.589
 3852TIP3    H211500   3.046   3.164   0.666
 3853TIP3   OH211501   2.477   2.624   3.143
 3853TIP3    H111502   2.513   2.539   3.170
 3853TIP3    H211503   2.477   2.677   3.223
 3854TIP3   OH211504   1.570   3.641   3.541
 3854TIP3    H111505   1.593   3.689   3.462
 3854TIP3    H211506   1.540   3.708   3.603
 3855TIP3   OH211507   4.424   3.563   4.039
 3855TIP3    H111508   4.506   3.569   3.991
 3855TIP3    H211509   4.386   3.480   4.013
 3856TIP3   OH211510   0.555   7.166   2.943
 3856TIP3    H111511   0.590   7.077   2.954
 3856TIP3    H211512   0.631   7.219   2.919
 3857TIP3   OH211513   4.842   3.127   2.374
 3857TIP3    H111514   4.884   3.207   2.343
 3857TIP3    H211515   4.901   3.094   2.442
 3858TIP3   OH211516   0.273   2.745   1.187
 3858TIP3    H111517   0.340   2.695   1.139
 3858TIP3    H211518   0.193   2.731   1.136
 3859TIP3   OH211519   0.480   3.871   5.844
 3859TIP3    H111520   0.522   3.785   5.838
 3859TIP3    H211521   0.534   3.928   5.789
 3860TIP3   OH211522   5.942   5.519   0.759
 3860TIP3    H111523   5.893   5.588   0.802
 3860TIP3    H211524   5.895   5.439   0.781
 3861TIP3   OH211525   1.284   2.926   0.176
 3861TIP3    H111526   1.326   2.932   0.090
 3861TIP3    H211527   1.260   2.834   0.184
 3862TIP3   OH211528   0.850   5.025   4.610
 3862TIP3    H111529   0.935   5.057   4.581
 3862TIP3    H211530   0.870   4.942   4.654
 3863TIP3   OH211531   4.172   5.963   1.909
 3863TIP3    H111532   4.134   6.025   1.847
 3863TIP3    H211533   4.261   5.948   1.877
 3864TIP3   OH211534   7.859   0.153   1.764
 3864TIP3    H111535   7.952   0.172   1.763
 3864TIP3    H211536   7.850   0.077   1.822
 3865TIP3   OH211537   3.456   5.295   1.091
 3865TIP3    H111538   3.376   5.338   1.063
 3865TIP3    H211539   3.465   5.220   1.032
 3866TIP3   OH211540   6.966   4.663   2.053
 3866TIP3    H111541   6.945   4.689   2.143
 3866TIP3    H211542   7.038   4.601   2.062
 3867TIP3   OH211543   6.594   1.992   2.090
 3867TIP3    H111544   6.548   2.074   2.108
 3867TIP3    H211545   6.553   1.928   2.149
 3868TIP3   OH211546   2.422   5.627   1.086
 3868TIP3    H111547   2.487   5.582   1.031
 3868TIP3    H211548   2.468   5.641   1.169
 3869TIP3   OH211549   7.990   0.330   2.849
 3869TIP3    H111550   7.976   0.242   2.883
 3869TIP3    H211551   8.074   0.325   2.804
 3870TIP3   OH211552   2.073   0.746   1.150
 3870TIP3    H111553   1.981   0.746   1.177
 3870TIP3    H211554   2.116   0.806   1.212
 3871TIP3   OH211555   3.570   3.845   6.244
 3871TIP3    H111556   3.479   3.816   6.249
 3871TIP3    H211557   3.617   3.790   6.307
 3872TIP3   OH211558   4.090   5.101   6.065
 3872TIP3    H111559   4.136   5.146   6.135
 3872TIP3    H211560   4.159   5.065   6.010
 3873TIP3   OH211561   7.813  -0.020   3.944
 3873TIP3    H111562   7.901   0.017   3.951
 3873TIP3    H211563   7.828  -0.115   3.933
 3874TIP3   OH211564   4.250   0.835   3.123
 3874TIP3    H111565   4.313   0.764   3.114
 3874TIP3    H211566   4.233   0.865   3.034
 3875TIP3   OH211567   0.989   1.503   5.473
 3875TIP3    H111568   1.085   1.503   5.467
 3875TIP3    H211569   0.968   1.592   5.502
 3876TIP3   OH211570   0.896   5.799   3.379
 3876TIP3    H111571   0.939   5.883   3.366
 3876TIP3    H211572   0.868   5.773   3.291
 3877TIP3   OH211573   7.340   2.612   0.715
 3877TIP3    H111574   7.381   2.693   0.682
 3877TIP3    H211575   7.339   2.622   0.810
 3878TIP3   OH211576   1.525   6.620   0.076
 3878TIP3    H111577   1.450   6.615   0.016
 3878TIP3    H211578   1.596   6.656   0.023
 3879TIP3   OH211579   7.297   1.341   5.962
 3879TIP3    H111580   7.223   1.378   6.009
 3879TIP3    H211581   7.319   1.406   5.895
 3880TIP3   OH211582   2.407   0.675   2.766
 3880TIP3    H111583   2.311   0.668   2.770
 3880TIP3    H211584   2.424   0.770   2.770
 3881TIP3   OH211585   1.582   7.009   3.185
 3881TIP3    H111586   1.586   6.947   3.111
 3881TIP3    H211587   1.660   6.990   3.236
 3882TIP3   OH211588   3.466   2.073   5.342
 3882TIP3    H111589   3.433   1.988   5.369
 3882TIP3    H211590   3.545   2.054   5.292
 3883TIP3   OH211591   3.335   1.357   1.276
 3883TIP3    H111592   3.308   1.271   1.306
 3883TIP3    H211593   3.394   1.340   1.203
 3884TIP3   OH211594   5.004   4.219   3.428
 3884TIP3    H111595   5.046   4.194   3.346
 3884TIP3    H211596   5.020   4.313   3.436
 3885TIP3   OH211597   3.713   3.737   4.660
 3885TIP3    H111598   3.658   3.696   4.593
 3885TIP3    H211599   3.716   3.830   4.636
 3886TIP3   OH211600   5.368   7.196   3.596
 3886TIP3    H111601   5.397   7.105   3.589
 3886TIP3    H211602   5.419   7.242   3.530
 3887TIP3   OH211603   8.262   2.373   4.763
 3887TIP3    H111604   8.313   2.292   4.761
 3887TIP3    H211605   8.227   2.382   4.674
 3888TIP3   OH211606   7.036   1.328   2.193
 3888TIP3    H111607   6.963   1.290   2.145
 3888TIP3    H211608   7.036   1.282   2.277
 3889TIP3   OH211609   1.772   4.712   1.650
 3889TIP3    H111610   1.863   4.689   1.668
 3889TIP3    H211611   1.725   4.688   1.730
 3890TIP3   OH211612   1.329   3.961   6.266
 3890TIP3    H111613   1.422   3.979   6.277
 3890TIP3    H211614   1.325   3.877   6.219
 3891TIP3   OH211615   6.712   0.499   5.312
 3891TIP3    H111616   6.761   0.446   5.375
 3891TIP3    H211617   6.775   0.516   5.242
 3892TIP3   OH211618   6.932   1.235   5.550
 3892TIP3    H111619   7.004   1.173   5.539
 3892TIP3    H211620   6.962   1.295   5.619
 3893TIP3   OH211621   5.420   2.774   1.596
 3893TIP3    H111622   5.406   2.780   1.502
 3893TIP3    H211623   5.363   2.842   1.633
 3894TIP3   OH211624   6.329   2.445   1.181
 3894TIP3    H111625   6.344   2.351   1.174
 3894TIP3    H211626   6.266   2.465   1.112
 3895TIP3   OH211627   5.078   0.251   1.682
 3895TIP3    H111628   4.990   0.216   1.668
 3895TIP3    H211629   5.135   0.174   1.677
 3896TIP3   OH211630   3.693   3.954   0.137
 3896TIP3    H111631   3.730   4.003   0.211
 3896TIP3    H211632   3.750   3.975   0.063
 3897TIP3   OH211633   7.839   2.062   2.793
 3897TIP3    H111634   7.921   2.108   2.811
 3897TIP3    H211635   7.771   2.128   2.804
 3898TIP3   OH211636   4.290   6.915   4.121
 3898TIP3    H111637   4.302   6.973   4.196
 3898TIP3    H211638   4.196   6.915   4.106
 3899TIP3   OH211639   6.540   0.319   1.056
 3899TIP3    H111640   6.475   0.345   1.121
 3899TIP3    H211641   6.550   0.395   0.999
 3900TIP3   OH211642   5.995   5.854   0.280
 3900TIP3    H111643   6.051   5.905   0.222
 3900TIP3    H211644   6.049   5.780   0.307
 3901TIP3   OH211645   4.201   3.660   6.617
 3901TIP3    H111646   4.219   3.566   6.609
 3901TIP3    H211647   4.265   3.691   6.681
 3902TIP3   OH211648   1.383   0.600   0.492
 3902TIP3    H111649   1.342   0.569   0.572
 3902TIP3    H211650   1.384   0.524   0.434
 3903TIP3   OH211651   1.445   0.594   1.588
 3903TIP3    H111652   1.452   0.498   1.584
 3903TIP3    H211653   1.515   0.621   1.647
 3904TIP3   OH211654   7.448   7.620   2.156
 3904TIP3    H111655   7.505   7.659   2.223
 3904TIP3    H211656   7.362   7.660   2.171
 3905TIP3   OH211657   5.946   6.558   5.665
 3905TIP3    H111658   5.986   6.488   5.715
 3905TIP3    H211659   6.018   6.617   5.644
 3906TIP3   OH211660   3.137   6.403   5.567
 3906TIP3    H111661   3.139   6.441   5.479
 3906TIP3    H211662   3.070   6.334   5.561
 3907TIP3   OH211663   4.562   0.576   1.922
 3907TIP3    H111664   4.569   0.561   2.016
 3907TIP3    H211665   4.499   0.648   1.914
 3908TIP3   OH211666   6.992   3.170   2.428
 3908TIP3    H111667   7.024   3.120   2.353
 3908TIP3    H211668   7.056   3.240   2.439
 3909TIP3   OH211669   7.333   4.570   0.176
 3909TIP3    H111670   7.306   4.481   0.155
 3909TIP3    H211671   7.252   4.615   0.200
 3910TIP3   OH211672   7.845   6.995   2.681
 3910TIP3    H111673   7.865   6.980   2.774
 3910TIP3    H211674   7.753   7.023   2.682
 3911TIP3   OH211675   2.020   7.532   2.541
 3911TIP3    H111676   2.079   7.481   2.485
 3911TIP3    H211677   1.949   7.559   2.482
 3912TIP3   OH211678   2.638   7.602   0.798
 3912TIP3    H111679   2.636   7.577   0.705
 3912TIP3    H211680   2.546   7.603   0.824
 3913TIP3   OH211681   4.137   7.633   0.171
 3913TIP3    H111682   4.071   7.664   0.109
 3913TIP3    H211683   4.216   7.620   0.118
 3914TIP3   OH211684   7.354   1.282   1.660
 3914TIP3    H111685   7.380   1.323   1.743
 3914TIP3    H211686   7.410   1.323   1.595
 3915TIP3   OH211687   4.734   0.321   1.602
 3915TIP3    H111688   4.727   0.417   1.603
 3915TIP3    H211689   4.751   0.300   1.510
 3916TIP3   OH211690   3.452   0.376   0.806
 3916TIP3    H111691   3.433   0.467   0.784
 3916TIP3    H211692   3.455   0.374   0.901
 3917TIP3   OH211693   7.219   0.883   4.242
 3917TIP3    H111694   7.310   0.908   4.256
 3917TIP3    H211695   7.224   0.804   4.189
 3918TIP3   OH211696   3.284   4.328   1.446
 3918TIP3    H111697   3.243   4.338   1.532
 3918TIP3    H211698   3.346   4.401   1.440
 3919TIP3   OH211699   7.485   1.441   5.257
 3919TIP3    H111700   7.473   1.403   5.170
 3919TIP3    H211701   7.549   1.511   5.243
 3920TIP3   OH211702   0.760   2.559   6.494
 3920TIP3    H111703   0.792   2.596   6.577
 3920TIP3    H211704   0.839   2.554   6.439
 3921TIP3   OH211705   0.376   6.394   4.780
 3921TIP3    H111706   0.365   6.308   4.739
 3921TIP3    H211707   0.376   6.456   4.707
 3922TIP3   OH211708   2.224   0.976   1.898
 3922TIP3    H111709   2.238   0.935   1.983
 3922TIP3    H211710   2.152   1.038   1.913
 3923TIP3   OH211711   0.678   4.082   1.813
 3923TIP3    H111712   0.676   4.159   1.870
 3923TIP3    H211713   0.766   4.081   1.777
 3924TIP3   OH211714   1.924   6.872   2.477
 3924TIP3    H111715   1.923   6.965   2.454
 3924TIP3    H211716   1.991   6.834   2.419
 3925TIP3   OH211717   6.840   4.912   0.950
 3925TIP3    H111718   6.840   4.967   1.028
 3925TIP3    H211719   6.905   4.844   0.968
 3926TIP3   OH211720   3.093   6.713   5.939
 3926TIP3    H111721   3.072   6.686   5.849
 3926TIP3    H211722   3.144   6.640   5.974
 3927TIP3   OH211723   6.046   3.680   1.145
 3927TIP3    H111724   6.023   3.591   1.170
 3927TIP3    H211725   5.963   3.728   1.148
 3928TIP3   OH211726   3.785   6.114   5.277
 3928TIP3    H111727   3.721   6.065   5.329
 3928TIP3    H211728   3.836   6.047   5.233
 3929TIP3   OH211729   4.566   1.683   0.624
 3929TIP3    H111730   4.597   1.625   0.554
 3929TIP3    H211731   4.488   1.724   0.589
 3930TIP3   OH211732   5.668   7.158   0.900
 3930TIP3    H111733   5.734   7.160   0.831
 3930TIP3    H211734   5.608   7.087   0.875
 3931TIP3   OH211735   6.140   0.916   0.934
 3931TIP3    H111736   6.150   0.824   0.960
 3931TIP3    H211737   6.187   0.965   1.002
 3932TIP3   OH211738   5.201   6.868   6.162
 3932TIP3    H111739   5.203   6.847   6.256
 3932TIP3    H211740   5.224   6.786   6.119
 3933TIP3   OH211741   2.269   3.297   2.655
 3933TIP3    H111742   2.269   3.333   2.566
 3933TIP3    H211743   2.177   3.275   2.672
 3934TIP3   OH211744   0.557   0.382   5.084
 3934TIP3    H111745   0.537   0.476   5.086
 3934TIP3    H211746   0.576   0.363   4.993
 3935TIP3   OH211747   2.436   6.229   3.760
 3935TIP3    H111748   2.390   6.287   3.699
 3935TIP3    H211749   2.494   6.287   3.810
 3936TIP3   OH211750   2.531   1.853   0.619
 3936TIP3    H111751   2.621   1.826   0.598
 3936TIP3    H211752   2.537   1.948   0.631
 3937TIP3   OH211753   5.376   4.865   3.981
 3937TIP3    H111754   5.459   4.910   3.966
 3937TIP3    H211755   5.353   4.829   3.895
 3938TIP3   OH211756   8.191   6.205   1.379
 3938TIP3    H111757   8.278   6.191   1.343
 3938TIP3    H211758   8.139   6.132   1.346
 3939TIP3   OH211759   6.010   4.482   4.493
 3939TIP3    H111760   6.070   4.556   4.496
 3939TIP3    H211761   6.064   4.409   4.462
 3940TIP3   OH211762   1.437   4.510   5.178
 3940TIP3    H111763   1.374   4.517   5.249
 3940TIP3    H211764   1.505   4.451   5.212
 3941TIP3   OH211765   1.470   2.281   2.279
 3941TIP3    H111766   1.509   2.360   2.241
 3941TIP3    H211767   1.395   2.263   2.223
 3942TIP3   OH211768   7.241   2.197   5.244
 3942TIP3    H111769   7.328   2.186   5.281
 3942TIP3    H211770   7.225   2.292   5.251
 3943TIP3   OH211771   7.829   4.507   3.189
 3943TIP3    H111772   7.914   4.534   3.153
 3943TIP3    H211773   7.848   4.482   3.279
 3944TIP3   OH211774   1.463   4.230   2.367
 3944TIP3    H111775   1.377   4.239   2.326
 3944TIP3    H211776   1.515   4.301   2.329
 3945TIP3   OH211777   4.567   4.093   0.884
 3945TIP3    H111778   4.525   4.101   0.799
 3945TIP3    H211779   4.499   4.057   0.941
 3946TIP3   OH211780   5.344   6.557   4.172
 3946TIP3    H111781   5.298   6.473   4.173
 3946TIP3    H211782   5.298   6.609   4.238
 3947TIP3   OH211783   2.456   1.649   4.770
 3947TIP3    H111784   2.513   1.597   4.713
 3947TIP3    H211785   2.396   1.693   4.709
 3948TIP3   OH211786   5.022   1.428   4.223
 3948TIP3    H111787   5.093   1.365   4.237
 3948TIP3    H211788   4.988   1.406   4.136
 3949TIP3   OH211789   2.062   5.717   4.733
 3949TIP3    H111790   2.158   5.725   4.732
 3949TIP3    H211791   2.045   5.631   4.696
 3950TIP3   OH211792   7.447   4.525   5.367
 3950TIP3    H111793   7.451   4.558   5.277
 3950TIP3    H211794   7.471   4.600   5.421
 3951TIP3   OH211795   7.900   4.388   1.839
 3951TIP3    H111796   7.867   4.315   1.788
 3951TIP3    H211797   7.839   4.460   1.820
 3952TIP3   OH211798   0.405   2.570   2.308
 3952TIP3    H111799   0.312   2.549   2.295
 3952TIP3    H211800   0.404   2.648   2.363
 3953TIP3   OH211801   1.977   3.322   3.883
 3953TIP3    H111802   1.963   3.322   3.978
 3953TIP3    H211803   1.901   3.368   3.848
 3954TIP3   OH211804   6.538   5.845   4.142
 3954TIP3    H111805   6.580   5.922   4.180
 3954TIP3    H211806   6.496   5.801   4.216
 3955TIP3   OH211807   0.373   6.111   4.728
 3955TIP3    H111808   0.338   6.128   4.815
 3955TIP3    H211809   0.371   6.015   4.720
 3956TIP3   OH211810   8.038   2.233   1.865
 3956TIP3    H111811   8.067   2.309   1.915
 3956TIP3    H211812   8.088   2.160   1.901
 3957TIP3   OH211813   0.374   2.444   5.590
 3957TIP3    H111814   0.338   2.526   5.553
 3957TIP3    H211815   0.441   2.418   5.527
 3958TIP3   OH211816   2.506   1.139   0.962
 3958TIP3    H111817   2.547   1.108   1.043
 3958TIP3    H211818   2.415   1.154   0.986
 3959TIP3   OH211819   0.426   6.790   5.389
 3959TIP3    H111820   0.428   6.721   5.323
 3959TIP3    H211821   0.509   6.836   5.379
 3960TIP3   OH211822   2.711   1.521   4.218
 3960TIP3    H111823   2.806   1.513   4.222
 3960TIP3    H211824   2.696   1.607   4.178
 3961TIP3   OH211825   5.476   2.311   3.795
 3961TIP3    H111826   5.535   2.237   3.781
 3961TIP3    H211827   5.495   2.342   3.883
 3962TIP3   OH211828   3.991   5.400   0.751
 3962TIP3    H111829   3.975   5.395   0.657
 3962TIP3    H211830   4.072   5.451   0.759
 3963TIP3   OH211831   0.511   2.328   0.482
 3963TIP3    H111832   0.558   2.405   0.515
 3963TIP3    H211833   0.561   2.301   0.406
 3964TIP3   OH211834   7.276   4.629   3.176
 3964TIP3    H111835   7.338   4.563   3.208
 3964TIP3    H211836   7.207   4.632   3.243
 3965TIP3   OH211837   5.288   0.210   0.597
 3965TIP3    H111838   5.302   0.171   0.511
 3965TIP3    H211839   5.330   0.148   0.658
 3966TIP3   OH211840   8.202   1.283   4.257
 3966TIP3    H111841   8.177   1.307   4.168
 3966TIP3    H211842   8.126   1.306   4.310
 3967TIP3   OH211843   8.227   3.214   2.874
 3967TIP3    H111844   8.258   3.137   2.827
 3967TIP3    H211845   8.267   3.206   2.961
 3968TIP3   OH211846   7.246   3.971   3.439
 3968TIP3    H111847   7.158   3.979   3.401
 3968TIP3    H211848   7.257   4.051   3.490
 3969TIP3   OH211849   6.345   2.219   4.945
 3969TIP3    H111850   6.379   2.135   4.977
 3969TIP3    H211851   6.262   2.196   4.902
 3970TIP3   OH211852   6.156   5.821   2.787
 3970TIP3    H111853   6.107   5.742   2.808
 3970TIP3    H211854   6.129   5.884   2.854
 3971TIP3   OH211855   5.953   4.080   5.634
 3971TIP3    H111856   5.991   3.996   5.608
 3971TIP3    H211857   5.974   4.088   5.728
 3972TIP3   OH211858   2.278   0.614   1.064
 3972TIP3    H111859   2.255   0.587   0.975
 3972TIP3    H211860   2.199   0.656   1.098
 3973TIP3   OH211861   5.104   3.704   5.159
 3973TIP3    H111862   5.080   3.779   5.214
 3973TIP3    H211863   5.067   3.725   5.073
 3974TIP3   OH211864   2.847   0.324   5.111
 3974TIP3    H111865   2.894   0.337   5.193
 3974TIP3    H211866   2.828   0.413   5.080
 3975TIP3   OH211867   0.205   6.755   1.642
 3975TIP3    H111868   0.113   6.775   1.660
 3975TIP3    H211869   0.211   6.660   1.649
 3976TIP3   OH211870   2.766   0.618   6.632
 3976TIP3    H111871   2.806   0.547   6.682
 3976TIP3    H211872   2.692   0.646   6.686
 3977TIP3   OH211873   1.474   6.679   4.931
 3977TIP3    H111874   1.511   6.593   4.947
 3977TIP3    H211875   1.547   6.740   4.944
 3978TIP3   OH211876   2.564   4.805   4.094
 3978TIP3    H111877   2.487   4.862   4.092
 3978TIP3    H211878   2.546   4.736   4.030
 3979TIP3   OH211879   0.725   3.006   5.832
 3979TIP3    H111880   0.695   3.031   5.745
 3979TIP3    H211881   0.729   3.089   5.880
 3980TIP3   OH211882   7.802   7.069   1.197
 3980TIP3    H111883   7.832   7.044   1.110
 3980TIP3    H211884   7.836   7.157   1.210
 3981TIP3   OH211885   2.020   4.622   1.646
 3981TIP3    H111886   2.104   4.590   1.678
 3981TIP3    H211887   2.033   4.636   1.552
 3982TIP3   OH211888   0.917   4.990   2.584
 3982TIP3    H111889   0.938   5.052   2.654
 3982TIP3    H211890   0.822   4.979   2.590
 3983TIP3   OH211891   8.128   7.374   1.209
 3983TIP3    H111892   8.183   7.391   1.286
 3983TIP3    H211893   8.137   7.280   1.194
 3984TIP3   OH211894   2.878   4.042   0.419
 3984TIP3    H111895   2.920   3.971   0.467
 3984TIP3    H211896   2.944   4.111   0.414
 3985TIP3   OH211897   1.696   1.766   2.852
 3985TIP3    H111898   1.605   1.771   2.822
 3985TIP3    H211899   1.747   1.758   2.772
 3986TIP3   OH211900   3.256   5.180   1.617
 3986TIP3    H111901   3.288   5.271   1.622
 3986TIP3    H211902   3.314   5.139   1.553
 3987TIP3   OH211903   8.311   7.472   0.710
 3987TIP3    H111904   8.259   7.450   0.633
 3987TIP3    H211905   8.271   7.423   0.781
 3988TIP3   OH211906   5.623   6.234   5.339
 3988TIP3    H111907   5.662   6.253   5.253
 3988TIP3    H211908   5.530   6.251   5.328
 3989TIP3   OH211909   3.296   4.376   0.119
 3989TIP3    H111910   3.241   4.337   0.051
 3989TIP3    H211911   3.355   4.305   0.145
 3990TIP3   OH211912   3.705   7.216   2.940
 3990TIP3    H111913   3.782   7.162   2.920
 3990TIP3    H211914   3.651   7.161   2.996
 3991TIP3   OH211915   2.246   1.686   6.623
 3991TIP3    H111916   2.280   1.657   6.538
 3991TIP3    H211917   2.177   1.623   6.644
 3992TIP3   OH211918   5.129   4.570   6.175
 3992TIP3    H111919   5.129   4.608   6.263
 3992TIP3    H211920   5.222   4.554   6.156
 3993TIP3   OH211921   6.307   5.438   5.590
 3993TIP3    H111922   6.310   5.343   5.578
 3993TIP3    H211923   6.300   5.473   5.501
 3994TIP3   OH211924   5.970   3.191   6.550
 3994TIP3    H111925   6.025   3.253   6.502
 3994TIP3    H211926   5.952   3.121   6.488
 3995TIP3   OH211927   2.385   5.030   4.232
 3995TIP3    H111928   2.369   5.088   4.306
 3995TIP3    H211929   2.305   5.034   4.181
 3996TIP3   OH211930   2.059   1.085   2.252
 3996TIP3    H111931   2.138   1.037   2.226
 3996TIP3    H211932   2.010   1.023   2.306
 3997TIP3   OH211933   4.695   6.983   5.184
 3997TIP3    H111934   4.685   7.029   5.267
 3997TIP3    H211935   4.712   6.892   5.209
 3998TIP3   OH211936   2.119   2.422   6.710
 3998TIP3    H111937   2.105   2.327   6.714
 3998TIP3    H211938   2.207   2.432   6.675
 3999TIP3   OH211939   5.689   0.660   6.437
 3999TIP3    H111940   5.599   0.687   6.418
 3999TIP3    H211941   5.735   0.667   6.353
 4000TIP3   OH211942   5.626   2.803   0.229
 4000TIP3    H111943   5.566   2.730   0.246
 4000TIP3    H211944   5.571   2.881   0.237
 4001TIP3   OH211945   0.010   6.338   2.920
 4001TIP3    H111946   0.057   6.422   2.914
 4001TIP3    H211947  -0.050   6.349   2.993
 4002TIP3   OH211948   0.797   3.754   6.686
 4002TIP3    H111949   0.875   3.740   6.632
 4002TIP3    H211950   0.775   3.666   6.717
 4003TIP3   OH211951   1.948   1.770   3.699
 4003TIP3    H111952   1.929   1.786   3.606
 4003TIP3    H211953   1.992   1.850   3.728
 4004TIP3   OH211954   1.752   1.535   5.135
 4004TIP3    H111955   1.825   1.513   5.077
 4004TIP3    H211956   1.728   1.451   5.175
 4005TIP3   OH211957   6.059   5.526   3.602
 4005TIP3    H111958   6.028   5.507   3.513
 4005TIP3    H211959   6.090   5.441   3.635
 4006TIP3   OH211960   1.140   6.073   5.247
 4006TIP3    H111961   1.104   6.115   5.169
 4006TIP3    H211962   1.234   6.090   5.241
 4007TIP3   OH211963   3.002   3.290   6.170
 4007TIP3    H111964   3.065   3.333   6.112
 4007TIP3    H211965   2.994   3.201   6.135
 4008TIP3   OH211966   5.060   5.178   4.318
 4008TIP3    H111967   5.075   5.196   4.411
 4008TIP3    H211968   5.096   5.255   4.273
 4009TIP3   OH211969   7.346   7.438   5.034
 4009TIP3    H111970   7.300   7.521   5.045
 4009TIP3    H211971   7.282   7.380   4.994
 4010TIP3   OH211972   6.890   5.979   2.023
 4010TIP3    H111973   6.943   5.909   2.061
 4010TIP3    H211974   6.843   6.017   2.097
 4011TIP3   OH211975   2.276   0.490   0.137
 4011TIP3    H111976   2.296   0.576   0.174
 4011TIP3    H211977   2.291   0.501   0.043
 4012TIP3   OH211978   0.505   2.149   1.132
 4012TIP3    H111979   0.482   2.231   1.089
 4012TIP3    H211980   0.597   2.160   1.157
 4013TIP3   OH211981   0.937   0.974   3.457
 4013TIP3    H111982   0.908   1.018   3.377
 4013TIP3    H211983   1.002   0.910   3.428
 4014TIP3   OH211984   4.368   1.134   0.163
 4014TIP3    H111985   4.311   1.175   0.099
 4014TIP3    H211986   4.322   1.053   0.188
 4015TIP3   OH211987   0.402   5.510   6.268
 4015TIP3    H111988   0.378   5.558   6.189
 4015TIP3    H211989   0.322   5.462   6.292
 4016TIP3   OH211990   0.240   4.955   3.290
 4016TIP3    H111991   0.224   5.011   3.213
 4016TIP3    H211992   0.240   4.866   3.255
 4017TIP3   OH211993   7.163   2.306   4.639
 4017TIP3    H111994   7.200   2.386   4.600
 4017TIP3    H211995   7.174   2.239   4.572
 4018TIP3   OH211996   6.350   6.613   4.609
 4018TIP3    H111997   6.377   6.525   4.634
 4018TIP3    H211998   6.318   6.603   4.519
 4019TIP3   OH211999   5.438   0.246   5.817
 4019TIP3    H112000   5.401   0.200   5.742
 4019TIP3    H212001   5.449   0.178   5.883
 4020TIP3   OH212002   7.658   0.514   3.710
 4020TIP3    H112003   7.566   0.527   3.736
 4020TIP3    H212004   7.653   0.474   3.623
 4021TIP3   OH212005   4.493   7.333   5.669
 4021TIP3    H112006   4.467   7.373   5.752
 4021TIP3    H212007   4.574   7.286   5.689
 4022TIP3   OH212008   7.347   5.020   4.378
 4022TIP3    H112009   7.334   4.967   4.456
 4022TIP3    H212010   7.327   5.109   4.406
 4023TIP3   OH212011   4.207   0.942   1.412
 4023TIP3    H112012   4.159   0.924   1.331
 4023TIP3    H212013   4.150   1.000   1.462
 4024TIP3   OH212014   7.082   5.655   2.870
 4024TIP3    H112015   6.994   5.660   2.906
 4024TIP3    H212016   7.128   5.593   2.927
 4025TIP3   OH212017   1.593   2.711   5.224
 4025TIP3    H112018   1.571   2.778   5.289
 4025TIP3    H212019   1.537   2.730   5.149
 4026TIP3   OH212020   4.738   3.786   0.061
 4026TIP3    H112021   4.785   3.837  -0.005
 4026TIP3    H212022   4.798   3.715   0.083
 4027TIP3   OH212023   4.983   5.716   6.103
 4027TIP3    H112024   4.979   5.735   6.197
 4027TIP3    H212025   4.894   5.690   6.079
 4028TIP3   OH212026   0.428   1.319   4.268
 4028TIP3    H112027   0.467   1.393   4.314
 4028TIP3    H212028   0.348   1.300   4.318
 4029TIP3   OH212029   0.983   2.471   5.074
 4029TIP3    H112030   0.973   2.463   4.979
 4029TIP3    H212031   0.939   2.394   5.109
 4030TIP3   OH212032   1.520   5.575   1.107
 4030TIP3    H112033   1.548   5.517   1.036
 4030TIP3    H212034   1.426   5.556   1.118
 4031TIP3   OH212035   7.640   1.250   5.567
 4031TIP3    H112036   7.674   1.336   5.542
 4031TIP3    H212037   7.639   1.251   5.663
 4032TIP3   OH212038   0.518   1.337   2.332
 4032TIP3    H112039   0.564   1.309   2.253
 4032TIP3    H212040   0.588   1.367   2.390
 4033TIP3   OH212041   3.919   0.352   6.631
 4033TIP3    H112042   4.001   0.386   6.594
 4033TIP3    H212043   3.853   0.372   6.564
 4034TIP3   OH212044   4.861   7.552   1.805
 4034TIP3    H112045   4.788   7.498   1.836
 4034TIP3    H212046   4.832   7.642   1.823
 4035TIP3   OH212047   2.155   2.769   1.034
 4035TIP3    H112048   2.097   2.706   1.076
 4035TIP3    H212049   2.096   2.827   0.986
 4036TIP3   OH212050   5.236   2.404   6.181
 4036TIP3    H112051   5.164   2.446   6.133
 4036TIP3    H212052   5.221   2.428   6.272
 4037TIP3   OH212053   4.852   7.781   2.418
 4037TIP3    H112054   4.799   7.853   2.449
 4037TIP3    H212055   4.840   7.781   2.323
 4038TIP3   OH212056   3.938   7.260   4.839
 4038TIP3    H112057   3.896   7.175   4.855
 4038TIP3    H212058   4.016   7.238   4.788
 4039TIP3   OH212059   7.194   1.802   6.315
 4039TIP3    H112060   7.240   1.754   6.246
 4039TIP3    H212061   7.170   1.885   6.275
 4040TIP3   OH212062   1.855   5.380   1.206
 4040TIP3    H112063   1.920   5.450   1.201
 4040TIP3    H212064   1.859   5.337   1.120
 4041TIP3   OH212065   1.137   6.705   4.236
 4041TIP3    H112066   1.071   6.672   4.297
 4041TIP3    H212067   1.114   6.666   4.152
 4042TIP3   OH212068   1.916   4.358   1.303
 4042TIP3    H112069   1.854   4.400   1.243
 4042TIP3    H212070   1.929   4.270   1.267
 4043TIP3   OH212071   4.180   6.619   1.150
 4043TIP3    H112072   4.126   6.541   1.164
 4043TIP3    H212073   4.138   6.686   1.203
 4044TIP3   OH212074   3.358   3.555   0.604
 4044TIP3    H112075   3.359   3.614   0.528
 4044TIP3    H212076   3.281   3.583   0.654
 4045TIP3   OH212077   7.999   7.691   1.691
 4045TIP3    H112078   7.945   7.628   1.643
 4045TIP3    H212079   8.065   7.637   1.735
 4046TIP3   OH212080   3.913   0.542   3.104
 4046TIP3    H112081   3.956   0.577   3.026
 4046TIP3    H212082   3.967   0.468   3.130
 4047TIP3   OH212083   2.160   2.562   0.777
 4047TIP3    H112084   2.243   2.516   0.764
 4047TIP3    H212085   2.174   2.615   0.855
 4048TIP3   OH212086   4.562   2.384   4.330
 4048TIP3    H112087   4.531   2.460   4.380
 4048TIP3    H212088   4.534   2.309   4.381
 4049TIP3   OH212089   7.215   3.384   1.908
 4049TIP3    H112090   7.260   3.300   1.914
 4049TIP3    H212091   7.282   3.445   1.877
 4050TIP3   OH212092   0.143   4.873   0.922
 4050TIP3    H112093   0.108   4.813   0.856
 4050TIP3    H212094   0.210   4.823   0.968
 4051TIP3   OH212095   5.282   2.955   5.521
 4051TIP3    H112096   5.271   2.887   5.586
 4051TIP3    H212097   5.214   2.938   5.456
 4052TIP3   OH212098   0.608   3.509   0.556
 4052TIP3    H112099   0.620   3.491   0.649
 4052TIP3    H212100   0.519   3.481   0.537
 4053TIP3   OH212101   7.330   2.329   6.385
 4053TIP3    H112102   7.246   2.369   6.361
 4053TIP3    H212103   7.377   2.398   6.431
 4054TIP3   OH212104   3.363   1.308   5.532
 4054TIP3    H112105   3.422   1.326   5.605
 4054TIP3    H212106   3.292   1.256   5.571
 4055TIP3   OH212107   5.518   6.519   2.471
 4055TIP3    H112108   5.577   6.590   2.445
 4055TIP3    H212109   5.576   6.445   2.490
 4056TIP3   OH212110   5.095   6.747   0.415
 4056TIP3    H112111   5.022   6.807   0.403
 4056TIP3    H212112   5.161   6.776   0.353
 4057TIP3   OH212113   5.386   0.176   6.401
 4057TIP3    H112114   5.460   0.231   6.374
 4057TIP3    H212115   5.317   0.196   6.339
 4058TIP3   OH212116   7.626   3.315   1.540
 4058TIP3    H112117   7.590   3.331   1.627
 4058TIP3    H212118   7.706   3.264   1.556
 4059TIP3   OH212119   2.284   4.703   3.735
 4059TIP3    H112120   2.203   4.694   3.786
 4059TIP3    H212121   2.337   4.627   3.761
 4060TIP3   OH212122   6.923   1.486   1.398
 4060TIP3    H112123   6.985   1.475   1.325
 4060TIP3    H212124   6.972   1.455   1.475
 4061TIP3   OH212125   7.180   7.379   1.726
 4061TIP3    H112126   7.090   7.363   1.756
 4061TIP3    H212127   7.231   7.381   1.807
 4062TIP3   OH212128   1.467   7.110   3.744
 4062TIP3    H112129   1.399   7.065   3.694
 4062TIP3    H212130   1.421   7.176   3.795
 4063TIP3   OH212131   5.505   3.328   5.019
 4063TIP3    H112132   5.517   3.233   5.013
 4063TIP3    H212133   5.436   3.339   5.085
 4064TIP3   OH212134   3.779   7.691   0.392
 4064TIP3    H112135   3.865   7.722   0.421
 4064TIP3    H212136   3.763   7.612   0.444
 4065TIP3   OH212137   0.564   2.067   5.423
 4065TIP3    H112138   0.502   2.076   5.496
 4065TIP3    H212139   0.572   1.972   5.409
 4066TIP3   OH212140   7.917   3.610   5.166
 4066TIP3    H112141   7.958   3.537   5.212
 4066TIP3    H212142   7.830   3.578   5.143
 4067TIP3   OH212143   1.735   5.070   6.220
 4067TIP3    H112144   1.748   5.144   6.280
 4067TIP3    H212145   1.666   5.017   6.262
 4068TIP3   OH212146   6.482   0.212   5.931
 4068TIP3    H112147   6.471   0.299   5.893
 4068TIP3    H212148   6.429   0.154   5.875
 4069TIP3   OH212149   4.252   1.542   3.946
 4069TIP3    H112150   4.235   1.607   3.878
 4069TIP3    H212151   4.229   1.458   3.906
 4070TIP3   OH212152   0.639   3.819   5.003
 4070TIP3    H112153   0.624   3.777   5.088
 4070TIP3    H212154   0.557   3.809   4.956
 4071TIP3   OH212155   7.263   1.693   1.814
 4071TIP3    H112156   7.304   1.742   1.743
 4071TIP3    H212157   7.181   1.660   1.776
 4072TIP3   OH212158   1.404   1.789   3.901
 4072TIP3    H112159   1.370   1.700   3.910
 4072TIP3    H212160   1.353   1.826   3.829
 4073TIP3   OH212161   5.766   5.593   4.955
 4073TIP3    H112162   5.853   5.572   4.988
 4073TIP3    H212163   5.779   5.610   4.862
 4074TIP3   OH212164   1.886   5.817   6.115
 4074TIP3    H112165   1.971   5.786   6.083
 4074TIP3    H212166   1.859   5.882   6.050
 4075TIP3   OH212167   3.001   0.101   6.073
 4075TIP3    H112168   2.961   0.069   6.154
 4075TIP3    H212169   3.095   0.100   6.091
 4076TIP3   OH212170   2.032   7.390   4.971
 4076TIP3    H112171   2.046   7.312   4.918
 4076TIP3    H212172   2.102   7.450   4.945
 4077TIP3   OH212173   1.670   6.263   0.478
 4077TIP3    H112174   1.706   6.194   0.533
 4077TIP3    H212175   1.618   6.217   0.412
 4078TIP3   OH212176   1.995   0.753   0.876
 4078TIP3    H112177   2.052   0.756   0.952
 4078TIP3    H212178   1.971   0.845   0.860
 4079TIP3   OH212179   3.747   6.843   3.696
 4079TIP3    H112180   3.758   6.787   3.620
 4079TIP3    H212181   3.745   6.932   3.661
 4080TIP3   OH212182   3.963   3.608   4.619
 4080TIP3    H112183   3.884   3.638   4.664
 4080TIP3    H212184   4.035   3.639   4.673
 4081TIP3   OH212185   0.239   2.465   0.362
 4081TIP3    H112186   0.245   2.370   0.365
 4081TIP3    H212187   0.288   2.494   0.439
 4082TIP3   OH212188   1.620   3.618   6.285
 4082TIP3    H112189   1.549   3.556   6.268
 4082TIP3    H212190   1.641   3.655   6.199
 4083TIP3   OH212191   4.660   3.146   5.245
 4083TIP3    H112192   4.685   3.185   5.161
 4083TIP3    H212193   4.577   3.189   5.268
 4084TIP3   OH212194   3.006   4.817   5.972
 4084TIP3    H112195   3.065   4.755   5.929
 4084TIP3    H212196   3.001   4.786   6.063
 4085TIP3   OH212197   4.926   7.541   2.594
 4085TIP3    H112198   4.982   7.557   2.670
 4085TIP3    H212199   4.914   7.627   2.554
 4086TIP3   OH212200   4.483   2.593   3.937
 4086TIP3    H112201   4.465   2.499   3.936
 4086TIP3    H212202   4.574   2.600   3.965
 4087TIP3   OH212203   0.944   5.730   6.104
 4087TIP3    H112204   0.951   5.728   6.199
 4087TIP3    H212205   1.017   5.677   6.073
 4088TIP3   OH212206   6.680   0.936   3.968
 4088TIP3    H112207   6.706   1.024   3.942
 4088TIP3    H212208   6.720   0.923   4.054
 4089TIP3   OH212209   1.511   0.462   1.899
 4089TIP3    H112210   1.521   0.557   1.898
 4089TIP3    H212211   1.597   0.429   1.874
 4090TIP3   OH212212   5.371   1.455   6.794
 4090TIP3    H112213   5.372   1.366   6.761
 4090TIP3    H212214   5.384   1.510   6.717
 4091TIP3   OH212215   7.709   6.771   5.075
 4091TIP3    H112216   7.762   6.698   5.106
 4091TIP3    H212217   7.733   6.844   5.131
 4092TIP3   OH212218   1.811   6.083   4.387
 4092TIP3    H112219   1.847   6.171   4.373
 4092TIP3    H212220   1.830   6.064   4.479
 4093TIP3   OH212221   0.592   1.619   0.187
 4093TIP3    H112222   0.649   1.542   0.195
 4093TIP3    H212223   0.503   1.583   0.192
 4094TIP3   OH212224   2.877   2.511   1.939
 4094TIP3    H112225   2.798   2.461   1.920
 4094TIP3    H212226   2.845   2.590   1.984
 4095TIP3   OH212227   7.391   7.591   4.695
 4095TIP3    H112228   7.316   7.543   4.731
 4095TIP3    H212229   7.466   7.562   4.749
 4096TIP3   OH212230   4.236   1.317   1.608
 4096TIP3    H112231   4.149   1.313   1.569
 4096TIP3    H212232   4.241   1.241   1.666
 4097TIP3   OH212233   7.839   5.238   0.078
 4097TIP3    H112234   7.832   5.331   0.056
 4097TIP3    H212235   7.877   5.198   0.000
 4098TIP3   OH212236   4.593   7.135   0.020
 4098TIP3    H112237   4.643   7.061   0.056
 4098TIP3    H212238   4.576   7.191   0.096
 4099TIP3   OH212239   6.807   4.797   5.910
 4099TIP3    H112240   6.749   4.767   5.840
 4099TIP3    H212241   6.782   4.888   5.924
 4100TIP3   OH212242   6.928   6.277   1.650
 4100TIP3    H112243   6.886   6.242   1.728
 4100TIP3    H212244   7.021   6.278   1.672
 4101TIP3   OH212245   6.772   7.206   3.366
 4101TIP3    H112246   6.863   7.181   3.350
 4101TIP3    H212247   6.731   7.209   3.279
 4102TIP3   OH212248   7.058   0.679   5.187
 4102TIP3    H112249   7.152   0.662   5.177
 4102TIP3    H212250   7.018   0.593   5.197
 4103TIP3   OH212251   6.409   5.242   1.932
 4103TIP3    H112252   6.372   5.267   2.016
 4103TIP3    H212253   6.501   5.223   1.950
 4104TIP3   OH212254   0.202   5.787   3.858
 4104TIP3    H112255   0.149   5.859   3.825
 4104TIP3    H212256   0.164   5.765   3.943
 4105TIP3   OH212257   0.541   6.679   5.872
 4105TIP3    H112258   0.618   6.646   5.826
 4105TIP3    H212259   0.468   6.628   5.838
 4106TIP3   OH212260   6.545   6.727   4.281
 4106TIP3    H112261   6.525   6.817   4.255
 4106TIP3    H212262   6.459   6.688   4.301
 4107TIP3   OH212263   5.389   6.253   1.800
 4107TIP3    H112264   5.319   6.292   1.748
 4107TIP3    H212265   5.401   6.166   1.763
 4108TIP3   OH212266   5.495   2.305   0.124
 4108TIP3    H112267   5.582   2.343   0.110
 4108TIP3    H212268   5.483   2.307   0.219
 4109TIP3   OH212269   6.322   5.710   0.919
 4109TIP3    H112270   6.243   5.763   0.930
 4109TIP3    H212271   6.289   5.621   0.904
 4110TIP3   OH212272   0.009   6.715   2.002
 4110TIP3    H112273  -0.022   6.681   1.918
 4110TIP3    H212274   0.030   6.637   2.053
 4111TIP3   OH212275   7.241   2.847   1.988
 4111TIP3    H112276   7.184   2.907   1.939
 4111TIP3    H212277   7.216   2.760   1.958
 4112TIP3   OH212278   4.318   4.457   0.097
 4112TIP3    H112279   4.303   4.512   0.175
 4112TIP3    H212280   4.397   4.408   0.117
 4113TIP3   OH212281   6.555   7.224   1.143
 4113TIP3    H112282   6.645   7.246   1.166
 4113TIP3    H212283   6.526   7.164   1.211
 4114TIP3   OH212284   0.503   0.699   1.318
 4114TIP3    H112285   0.581   0.644   1.315
 4114TIP3    H212286   0.504   0.739   1.405
 4115TIP3   OH212287   1.158   0.037   2.210
 4115TIP3    H112288   1.188   0.066   2.124
 4115TIP3    H212289   1.196   0.101   2.271
 4116TIP3   OH212290   5.426   4.092   5.354
 4116TIP3    H112291   5.341   4.109   5.393
 4116TIP3    H212292   5.487   4.090   5.428
 4117TIP3   OH212293   7.764   0.892   2.854
 4117TIP3    H112294   7.709   0.952   2.904
 4117TIP3    H212295   7.853   0.926   2.864
 4118TIP3   OH212296   6.689   3.910   5.601
 4118TIP3    H112297   6.752   3.982   5.611
 4118TIP3    H212298   6.611   3.950   5.565
 4119TIP3   OH212299   0.261   6.735   6.548
 4119TIP3    H112300   0.253   6.654   6.498
 4119TIP3    H212301   0.353   6.735   6.577
 4120TIP3   OH212302   3.294   0.655   1.737
 4120TIP3    H112303   3.320   0.564   1.749
 4120TIP3    H212304   3.344   0.703   1.804
 4121TIP3   OH212305   3.952   3.360   3.146
 4121TIP3    H112306   3.959   3.427   3.214
 4121TIP3    H212307   3.936   3.409   3.066
 4122TIP3   OH212308   6.684   5.419   2.389
 4122TIP3    H112309   6.741   5.414   2.465
 4122TIP3    H212310   6.710   5.499   2.344
 4123TIP3   OH212311   0.700   5.861   5.485
 4123TIP3    H112312   0.747   5.918   5.423
 4123TIP3    H212313   0.610   5.860   5.452
 4124TIP3   OH212314   4.986   0.232   1.087
 4124TIP3    H112315   4.919   0.296   1.109
 4124TIP3    H212316   4.949   0.148   1.115
 4125TIP3   OH212317   3.866   5.790   4.566
 4125TIP3    H112318   3.853   5.735   4.489
 4125TIP3    H212319   3.804   5.756   4.631
 4126TIP3   OH212320   0.068   2.737   6.386
 4126TIP3    H112321   0.038   2.739   6.477
 4126TIP3    H212322  -0.004   2.698   6.338
 4127TIP3   OH212323   1.792   6.206   1.543
 4127TIP3    H112324   1.873   6.157   1.527
 4127TIP3    H212325   1.778   6.198   1.637
 4128TIP3   OH212326   6.372   2.307   2.885
 4128TIP3    H112327   6.307   2.328   2.818
 4128TIP3    H212328   6.328   2.245   2.943
 4129TIP3   OH212329   5.190   1.890   3.988
 4129TIP3    H112330   5.135   1.897   4.066
 4129TIP3    H212331   5.280   1.901   4.020
 4130TIP3   OH212332   6.885   6.389   4.549
 4130TIP3    H112333   6.889   6.481   4.574
 4130TIP3    H212334   6.976   6.365   4.530
 4131TIP3   OH212335   6.146   2.090   1.229
 4131TIP3    H112336   6.201   2.150   1.180
 4131TIP3    H212337   6.159   2.005   1.187
 4132TIP3   OH212338   4.406   7.616   0.078
 4132TIP3    H112339   4.477   7.633   0.139
 4132TIP3    H212340   4.410   7.688   0.015
 4133TIP3   OH212341   2.814   1.103   2.769
 4133TIP3    H112342   2.799   1.076   2.859
 4133TIP3    H212343   2.905   1.079   2.752
 4134TIP3   OH212344   3.810   6.789   1.290
 4134TIP3    H112345   3.817   6.745   1.205
 4134TIP3    H212346   3.897   6.778   1.329
 4135TIP3   OH212347   6.717   5.509   5.631
 4135TIP3    H112348   6.719   5.549   5.718
 4135TIP3    H212349   6.670   5.426   5.644
 4136TIP3   OH212350   6.795   7.344   5.466
 4136TIP3    H112351   6.810   7.368   5.374
 4136TIP3    H212352   6.881   7.318   5.498
 4137TIP3   OH212353   6.341   6.698   6.739
 4137TIP3    H112354   6.367   6.782   6.700
 4137TIP3    H212355   6.415   6.640   6.719
 4138TIP3   OH212356   7.659   7.187   3.798
 4138TIP3    H112357   7.664   7.146   3.885
 4138TIP3    H212358   7.675   7.280   3.815
 4139TIP3   OH212359   7.905   4.186   2.354
 4139TIP3    H112360   7.877   4.103   2.317
 4139TIP3    H212361   7.976   4.163   2.414
 4140TIP3   OH212362   6.811   3.208   3.654
 4140TIP3    H112363   6.746   3.253   3.707
 4140TIP3    H212364   6.790   3.232   3.564
 4141TIP3   OH212365   3.679   5.903   0.363
 4141TIP3    H112366   3.730   5.830   0.328
 4141TIP3    H212367   3.649   5.873   0.449
 4142TIP3   OH212368   7.286   6.576   1.510
 4142TIP3    H112369   7.281   6.628   1.430
 4142TIP3    H212370   7.229   6.501   1.493
 4143TIP3   OH212371   3.371   1.704   0.582
 4143TIP3    H112372   3.351   1.797   0.571
 4143TIP3    H212373   3.305   1.672   0.644
 4144TIP3   OH212374   7.978   1.360   0.909
 4144TIP3    H112375   7.997   1.420   0.981
 4144TIP3    H212376   7.924   1.411   0.848
 4145TIP3   OH212377   5.119   0.700   5.592
 4145TIP3    H112378   5.165   0.782   5.608
 4145TIP3    H212379   5.080   0.678   5.677
 4146TIP3   OH212380   0.086   6.067   0.687
 4146TIP3    H112381   0.159   6.017   0.724
 4146TIP3    H212382   0.009   6.016   0.709
 4147TIP3   OH212383   7.019   2.127   6.737
 4147TIP3    H112384   7.010   2.068   6.812
 4147TIP3    H212385   6.933   2.170   6.730
 4148TIP3   OH212386   0.615   6.321   4.609
 4148TIP3    H112387   0.642   6.253   4.671
 4148TIP3    H212388   0.584   6.392   4.664
 4149TIP3   OH212389   5.604   6.988   1.748
 4149TIP3    H112390   5.639   6.912   1.794
 4149TIP3    H212391   5.640   7.063   1.796
 4150TIP3   OH212392   1.428   6.907   0.513
 4150TIP3    H112393   1.518   6.898   0.546
 4150TIP3    H212394   1.420   6.838   0.447
 4151TIP3   OH212395   1.720   7.302   0.279
 4151TIP3    H112396   1.743   7.266   0.364
 4151TIP3    H212397   1.798   7.350   0.251
 4152TIP3   OH212398   7.539   5.442   4.933
 4152TIP3    H112399   7.615   5.494   4.907
 4152TIP3    H212400   7.559   5.412   5.021
 4153TIP3   OH212401   2.453   5.479   6.409
 4153TIP3    H112402   2.462   5.485   6.314
 4153TIP3    H212403   2.481   5.390   6.431
 4154TIP3   OH212404   1.342   4.217   3.232
 4154TIP3    H112405   1.413   4.278   3.215
 4154TIP3    H212406   1.384   4.142   3.273
 4155TIP3   OH212407   4.513   2.679   5.843
 4155TIP3    H112408   4.497   2.768   5.811
 4155TIP3    H212409   4.506   2.624   5.765
 4156TIP3   OH212410   2.035   5.592   6.443
 4156TIP3    H112411   2.053   5.508   6.484
 4156TIP3    H212412   1.955   5.577   6.392
 4157TIP3   OH212413   6.871   6.519   4.208
 4157TIP3    H112414   6.931   6.525   4.134
 4157TIP3    H212415   6.873   6.427   4.234
 4158TIP3   OH212416   5.065   3.252   2.299
 4158TIP3    H112417   5.065   3.333   2.248
 4158TIP3    H212418   5.156   3.241   2.328
 4159TIP3   OH212419   3.193   4.866   0.342
 4159TIP3    H112420   3.258   4.800   0.317
 4159TIP3    H212421   3.239   4.924   0.403
 4160TIP3   OH212422   7.295   0.381   1.299
 4160TIP3    H112423   7.238   0.328   1.356
 4160TIP3    H212424   7.263   0.470   1.310
 4161TIP3   OH212425   4.966   5.281   4.827
 4161TIP3    H112426   4.974   5.265   4.921
 4161TIP3    H212427   4.875   5.259   4.807
 4162TIP3   OH212428   4.536   0.461   4.341
 4162TIP3    H112429   4.609   0.470   4.279
 4162TIP3    H212430   4.577   0.458   4.427
 4163TIP3   OH212431   2.127   1.841   2.061
 4163TIP3    H112432   2.065   1.873   2.126
 4163TIP3    H212433   2.073   1.823   1.984
 4164TIP3   OH212434   2.341   3.317   3.892
 4164TIP3    H112435   2.319   3.407   3.869
 4164TIP3    H212436   2.437   3.315   3.890
 4165TIP3   OH212437   8.223   3.991   4.291
 4165TIP3    H112438   8.196   3.949   4.373
 4165TIP3    H212439   8.146   3.985   4.235
 4166TIP3   OH212440   0.613   2.702   5.774
 4166TIP3    H112441   0.611   2.607   5.760
 4166TIP3    H212442   0.701   2.720   5.806
 4167TIP3   OH212443   2.121   4.733   3.402
 4167TIP3    H112444   2.207   4.696   3.421
 4167TIP3    H212445   2.064   4.703   3.473
 4168TIP3   OH212446   3.077   6.166   0.164
 4168TIP3    H112447   3.028   6.110   0.224
 4168TIP3    H212448   3.034   6.251   0.170
 4169TIP3   OH212449   0.120   2.917   0.132
 4169TIP3    H112450   0.047   2.895   0.190
 4169TIP3    H212451   0.079   2.938   0.048
 4170TIP3   OH212452   7.186   3.747   0.615
 4170TIP3    H112453   7.151   3.734   0.703
 4170TIP3    H212454   7.125   3.807   0.573
 4171TIP3   OH212455   3.190   0.116   1.852
 4171TIP3    H112456   3.219   0.201   1.820
 4171TIP3    H212457   3.106   0.101   1.808
 4172TIP3   OH212458   1.909   4.764   2.288
 4172TIP3    H112459   1.875   4.844   2.327
 4172TIP3    H212460   1.857   4.752   2.208
 4173TIP3   OH212461   5.801   7.292   4.981
 4173TIP3    H112462   5.721   7.290   5.032
 4173TIP3    H212463   5.772   7.299   4.890
 4174TIP3   OH212464   3.416   3.222   4.878
 4174TIP3    H112465   3.482   3.275   4.923
 4174TIP3    H212466   3.348   3.285   4.854
 4175TIP3   OH212467   2.180   0.674   2.361
 4175TIP3    H112468   2.152   0.699   2.449
 4175TIP3    H212469   2.275   0.682   2.363
 4176TIP3   OH212470   1.164   6.683   0.895
 4176TIP3    H112471   1.243   6.630   0.886
 4176TIP3    H212472   1.156   6.699   0.989
 4177TIP3   OH212473   0.593   5.129   4.466
 4177TIP3    H112474   0.613   5.210   4.421
 4177TIP3    H212475   0.678   5.087   4.479
 4178TIP3   OH212476   3.317   2.886   2.616
 4178TIP3    H112477   3.344   2.962   2.565
 4178TIP3    H212478   3.375   2.885   2.692
 4179TIP3   OH212479   2.919   3.217   2.544
 4179TIP3    H112480   2.982   3.286   2.525
 4179TIP3    H212481   2.971   3.136   2.544
 4180TIP3   OH212482   8.195   6.696   0.339
 4180TIP3    H112483   8.105   6.714   0.310
 4180TIP3    H212484   8.199   6.601   0.349
 4181TIP3   OH212485   3.996   0.072   3.326
 4181TIP3    H112486   4.074   0.075   3.272
 4181TIP3    H212487   4.018   0.126   3.403
 4182TIP3   OH212488   2.372   7.767   3.233
 4182TIP3    H112489   2.434   7.814   3.177
 4182TIP3    H212490   2.389   7.675   3.215
 4183TIP3   OH212491   6.402   4.908   4.877
 4183TIP3    H112492   6.483   4.863   4.904
 4183TIP3    H212493   6.365   4.851   4.810
 4184TIP3   OH212494   0.766   3.144   1.532
 4184TIP3    H112495   0.750   3.050   1.521
 4184TIP3    H212496   0.860   3.152   1.543
 4185TIP3   OH212497   3.344   3.544   6.496
 4185TIP3    H112498   3.335   3.499   6.580
 4185TIP3    H212499   3.382   3.478   6.438
 4186TIP3   OH212500   1.938   6.790   5.180
 4186TIP3    H112501   2.008   6.802   5.117
 4186TIP3    H212502   1.946   6.866   5.239
 4187TIP3   OH212503   4.104   4.152   1.980
 4187TIP3    H112504   4.120   4.212   1.906
 4187TIP3    H212505   4.181   4.094   1.981
 4188TIP3   OH212506   6.623   5.858   6.367
 4188TIP3    H112507   6.661   5.850   6.280
 4188TIP3    H212508   6.634   5.771   6.405
 4189TIP3   OH212509   3.069   4.617   3.930
 4189TIP3    H112510   3.128   4.693   3.936
 4189TIP3    H212511   2.983   4.652   3.954
 4190TIP3   OH212512   4.195   6.691   3.107
 4190TIP3    H112513   4.162   6.635   3.177
 4190TIP3    H212514   4.287   6.704   3.128
 4191TIP3   OH212515   4.592   3.624   2.935
 4191TIP3    H112516   4.517   3.666   2.978
 4191TIP3    H212517   4.630   3.568   3.002
 4192TIP3   OH212518   4.470   2.076   2.447
 4192TIP3    H112519   4.490   2.015   2.376
 4192TIP3    H212520   4.556   2.106   2.478
 4193TIP3   OH212521   5.749   7.067   6.271
 4193TIP3    H112522   5.786   6.980   6.282
 4193TIP3    H212523   5.655   7.052   6.258
 4194TIP3   OH212524   2.384   3.934   4.088
 4194TIP3    H112525   2.351   3.846   4.071
 4194TIP3    H212526   2.316   3.975   4.143
 4195TIP3   OH212527   3.735   2.268   3.537
 4195TIP3    H112528   3.696   2.308   3.460
 4195TIP3    H212529   3.687   2.186   3.549
 4196TIP3   OH212530   2.922   3.963   3.727
 4196TIP3    H112531   2.994   4.000   3.676
 4196TIP3    H212532   2.868   3.917   3.662
 4197TIP3   OH212533   3.855   6.763   1.849
 4197TIP3    H112534   3.868   6.835   1.787
 4197TIP3    H212535   3.781   6.791   1.903
 4198TIP3   OH212536   1.933   2.046   3.256
 4198TIP3    H112537   1.945   2.133   3.218
 4198TIP3    H212538   1.971   1.987   3.191
 4199TIP3   OH212539   1.076   4.080   3.576
 4199TIP3    H112540   1.024   4.132   3.637
 4199TIP3    H212541   1.062   3.989   3.604
 4200TIP3   OH212542   4.563   5.980   0.226
 4200TIP3    H112543   4.469   5.961   0.235
 4200TIP3    H212544   4.570   6.030   0.144
 4201TIP3   OH212545   6.845   1.477   4.069
 4201TIP3    H112546   6.757   1.439   4.066
 4201TIP3    H212547   6.872   1.468   4.160
 4202TIP3   OH212548   1.453   6.795   5.870
 4202TIP3    H112549   1.450   6.850   5.948
 4202TIP3    H212550   1.398   6.839   5.806
 4203TIP3   OH212551   2.432   5.743   3.252
 4203TIP3    H112552   2.342   5.722   3.225
 4203TIP3    H212553   2.421   5.797   3.331
 4204TIP3   OH212554   7.176   0.449   4.374
 4204TIP3    H112555   7.149   0.459   4.465
 4204TIP3    H212556   7.103   0.405   4.331
 4205TIP3   OH212557   1.792   1.735   6.046
 4205TIP3    H112558   1.726   1.666   6.056
 4205TIP3    H212559   1.741   1.816   6.037
 4206TIP3   OH212560   5.804   4.244   4.556
 4206TIP3    H112561   5.774   4.330   4.585
 4206TIP3    H212562   5.842   4.204   4.635
 4207TIP3   OH212563   6.957   4.946   2.523
 4207TIP3    H112564   6.989   5.013   2.583
 4207TIP3    H212565   6.919   4.879   2.580
 4208TIP3   OH212566   7.294   7.715   3.137
 4208TIP3    H112567   7.336   7.631   3.154
 4208TIP3    H212568   7.349   7.755   3.070
 4209TIP3   OH212569   6.524   4.533   1.993
 4209TIP3    H112570   6.607   4.565   1.959
 4209TIP3    H212571   6.546   4.449   2.034
 4210TIP3   OH212572   8.194   5.280   1.670
 4210TIP3    H112573   8.242   5.362   1.663
 4210TIP3    H212574   8.197   5.242   1.582
 4211TIP3   OH212575   0.427   2.265   4.797
 4211TIP3    H112576   0.371   2.249   4.721
 4211TIP3    H212577   0.515   2.241   4.767
 4212TIP3   OH212578   3.594   0.810   1.347
 4212TIP3    H112579   3.612   0.886   1.291
 4212TIP3    H212580   3.509   0.829   1.387
 4213TIP3   OH212581   7.889   7.681   6.695
 4213TIP3    H112582   7.848   7.595   6.703
 4213TIP3    H212583   7.922   7.700   6.783
 4214TIP3   OH212584   3.022   3.831   5.192
 4214TIP3    H112585   2.927   3.819   5.190
 4214TIP3    H212586   3.053   3.768   5.257
 4215TIP3   OH212587   5.003   6.297   2.389
 4215TIP3    H112588   4.959   6.345   2.320
 4215TIP3    H212589   5.012   6.360   2.460
 4216TIP3   OH212590   1.033   3.031   0.749
 4216TIP3    H112591   0.994   3.115   0.727
 4216TIP3    H212592   1.106   3.052   0.807
 4217TIP3   OH212593   1.840   5.249   0.959
 4217TIP3    H112594   1.862   5.160   0.987
 4217TIP3    H212595   1.803   5.239   0.872
 4218TIP3   OH212596   4.095   4.607   2.596
 4218TIP3    H112597   4.004   4.598   2.569
 4218TIP3    H212598   4.138   4.529   2.561
 4219TIP3   OH212599   2.700   4.046   6.358
 4219TIP3    H112600   2.738   3.998   6.284
 4219TIP3    H212601   2.646   4.114   6.318
 4220TIP3   OH212602   6.938   2.087   1.605
 4220TIP3    H112603   6.918   2.008   1.655
 4220TIP3    H212604   6.852   2.124   1.585
 4221TIP3   OH212605   6.620   6.320   3.052
 4221TIP3    H112606   6.689   6.353   2.993
 4221TIP3    H212607   6.592   6.238   3.013
 4222TIP3   OH212608   4.192   4.758   0.761
 4222TIP3    H112609   4.121   4.700   0.788
 4222TIP3    H212610   4.272   4.709   0.781
 4223TIP3   OH212611   7.400   0.792   3.033
 4223TIP3    H112612   7.400   0.737   2.954
 4223TIP3    H212613   7.450   0.741   3.097
 4224TIP3   OH212614   7.060   0.333   0.548
 4224TIP3    H112615   6.979   0.323   0.597
 4224TIP3    H212616   7.128   0.337   0.615
 4225TIP3   OH212617   0.990   3.353  -0.021
 4225TIP3    H112618   0.938   3.326   0.054
 4225TIP3    H212619   1.011   3.445  -0.004
 4226TIP3   OH212620   0.561   6.964   5.105
 4226TIP3    H112621   0.484   6.938   5.055
 4226TIP3    H212622   0.548   7.056   5.125
 4227TIP3   OH212623   4.900   2.619   4.381
 4227TIP3    H112624   4.847   2.698   4.387
 4227TIP3    H212625   4.989   2.647   4.402
 4228TIP3   OH212626   5.122   7.028   1.269
 4228TIP3    H112627   5.089   6.945   1.303
 4228TIP3    H212628   5.104   7.092   1.338
 4229TIP3   OH212629   2.298   5.496   2.318
 4229TIP3    H112630   2.268   5.457   2.400
 4229TIP3    H212631   2.217   5.515   2.269
 4230TIP3   OH212632   4.826   1.029   4.745
 4230TIP3    H112633   4.920   1.040   4.729
 4230TIP3    H212634   4.784   1.083   4.678
 4231TIP3   OH212635   6.593   2.137   3.620
 4231TIP3    H112636   6.676   2.104   3.656
 4231TIP3    H212637   6.603   2.128   3.526
 4232TIP3   OH212638   3.140   0.130   3.571
 4232TIP3    H112639   3.210   0.130   3.636
 4232TIP3    H212640   3.146   0.215   3.529
 4233TIP3   OH212641   5.613   2.195   2.197
 4233TIP3    H112642   5.538   2.255   2.189
 4233TIP3    H212643   5.690   2.253   2.198
 4234TIP3   OH212644   1.919   2.156   5.353
 4234TIP3    H112645   1.862   2.231   5.339
 4234TIP3    H212646   1.878   2.085   5.303
 4235TIP3   OH212647   1.889   3.801   4.844
 4235TIP3    H112648   1.899   3.776   4.753
 4235TIP3    H212649   1.916   3.893   4.847
 4236TIP3   OH212650   5.083   3.507   2.996
 4236TIP3    H112651   4.992   3.480   2.994
 4236TIP3    H212652   5.084   3.584   3.052
 4237TIP3   OH212653   6.382   3.263   5.093
 4237TIP3    H112654   6.442   3.194   5.122
 4237TIP3    H212655   6.393   3.266   4.998
 4238TIP3   OH212656   8.269   1.539   0.035
 4238TIP3    H112657   8.267   1.444   0.052
 4238TIP3    H212658   8.192   1.573   0.081
 4239TIP3   OH212659   2.638   1.775   6.619
 4239TIP3    H112660   2.721   1.762   6.574
 4239TIP3    H212661   2.629   1.698   6.676
 4240TIP3   OH212662   2.333   0.016   6.195
 4240TIP3    H112663   2.422   0.034   6.163
 4240TIP3    H212664   2.309   0.095   6.243
 4241TIP3   OH212665   6.980   6.017   4.763
 4241TIP3    H112666   7.030   6.098   4.770
 4241TIP3    H212667   7.014   5.975   4.684
 4242TIP3   OH212668   5.597   4.421   0.172
 4242TIP3    H112669   5.654   4.498   0.161
 4242TIP3    H212670   5.625   4.361   0.103
 4243TIP3   OH212671   4.979   0.234   2.077
 4243TIP3    H112672   4.913   0.294   2.111
 4243TIP3    H212673   4.939   0.196   1.998
 4244TIP3   OH212674   6.016   6.460   1.525
 4244TIP3    H112675   6.103   6.428   1.546
 4244TIP3    H212676   6.014   6.549   1.561
 4245TIP3   OH212677   4.510   0.075   1.696
 4245TIP3    H112678   4.435   0.049   1.749
 4245TIP3    H212679   4.554   0.142   1.748
 4246TIP3   OH212680   8.252   7.414   1.476
 4246TIP3    H112681   8.277   7.338   1.528
 4246TIP3    H212682   8.232   7.482   1.540
 4247TIP3   OH212683   4.119   6.814   2.185
 4247TIP3    H112684   4.173   6.797   2.262
 4247TIP3    H212685   4.098   6.907   2.192
 4248TIP3   OH212686   5.192   4.181   5.449
 4248TIP3    H112687   5.233   4.188   5.535
 4248TIP3    H212688   5.099   4.195   5.465
 4249TIP3   OH212689   5.411   7.259   0.620
 4249TIP3    H112690   5.489   7.303   0.586
 4249TIP3    H212691   5.415   7.170   0.583
 4250TIP3   OH212692   1.651   2.990   1.875
 4250TIP3    H112693   1.719   2.925   1.858
 4250TIP3    H212694   1.699   3.065   1.912
 4251TIP3   OH212695   5.483   7.227   1.094
 4251TIP3    H112696   5.430   7.149   1.107
 4251TIP3    H212697   5.542   7.205   1.022
 4252TIP3   OH212698   0.753   5.959   4.369
 4252TIP3    H112699   0.658   5.973   4.368
 4252TIP3    H212700   0.779   5.961   4.277
 4253TIP3   OH212701   4.760   3.938   1.607
 4253TIP3    H112702   4.793   4.023   1.634
 4253TIP3    H212703   4.729   3.897   1.688
 4254TIP3   OH212704   5.092   4.521   4.529
 4254TIP3    H112705   5.083   4.521   4.624
 4254TIP3    H212706   5.183   4.498   4.513
 4255TIP3   OH212707   5.412   0.377   2.046
 4255TIP3    H112708   5.461   0.349   1.969
 4255TIP3    H212709   5.326   0.402   2.012
 4256TIP3   OH212710   2.146   3.454   0.670
 4256TIP3    H112711   2.072   3.392   0.671
 4256TIP3    H212712   2.137   3.502   0.752
 4257TIP3   OH212713   2.694   0.953   3.484
 4257TIP3    H112714   2.633   0.881   3.467
 4257TIP3    H212715   2.780   0.912   3.486
 4258TIP3   OH212716   0.340   6.320   4.005
 4258TIP3    H112717   0.348   6.348   4.096
 4258TIP3    H212718   0.354   6.225   4.008
 4259TIP3   OH212719   2.980   6.186   4.799
 4259TIP3    H112720   2.922   6.135   4.742
 4259TIP3    H212721   2.928   6.201   4.878
 4260TIP3   OH212722   7.475  -0.006   1.810
 4260TIP3    H112723   7.507   0.068   1.758
 4260TIP3    H212724   7.427   0.034   1.882
 4261TIP3   OH212725   1.536   3.700   2.238
 4261TIP3    H112726   1.522   3.794   2.226
 4261TIP3    H212727   1.453   3.660   2.210
 4262TIP3   OH212728   1.014   3.158   2.289
 4262TIP3    H112729   0.988   3.250   2.277
 4262TIP3    H212730   0.999   3.141   2.381
 4263TIP3   OH212731   4.077   4.135   6.616
 4263TIP3    H112732   4.111   4.065   6.560
 4263TIP3    H212733   4.098   4.216   6.569
 4264TIP3   OH212734   6.848   6.255   4.131
 4264TIP3    H112735   6.759   6.286   4.144
 4264TIP3    H212736   6.838   6.164   4.104
 4265TIP3   OH212737   7.165   4.289   3.256
 4265TIP3    H112738   7.259   4.289   3.276
 4265TIP3    H212739   7.150   4.205   3.212
 4266TIP3   OH212740   0.206   5.301   6.193
 4266TIP3    H112741   0.273   5.295   6.126
 4266TIP3    H212742   0.131   5.339   6.148
 4267TIP3   OH212743   4.995   6.971   3.684
 4267TIP3    H112744   4.941   6.977   3.763
 4267TIP3    H212745   5.049   6.893   3.699
 4268TIP3   OH212746   3.398   0.424   0.271
 4268TIP3    H112747   3.365   0.502   0.228
 4268TIP3    H212748   3.356   0.351   0.225
 4269TIP3   OH212749   5.990   6.695   4.906
 4269TIP3    H112750   5.976   6.625   4.843
 4269TIP3    H212751   5.948   6.772   4.867
 4270TIP3   OH212752   2.380   2.868   6.539
 4270TIP3    H112753   2.310   2.817   6.580
 4270TIP3    H212754   2.461   2.830   6.573
 4271TIP3   OH212755   0.255   6.346   5.467
 4271TIP3    H112756   0.329   6.405   5.456
 4271TIP3    H212757   0.266   6.281   5.398
 4272TIP3   OH212758   7.367   7.422   5.939
 4272TIP3    H112759   7.330   7.336   5.915
 4272TIP3    H212760   7.322   7.484   5.881
 4273TIP3   OH212761   0.805   6.248   2.420
 4273TIP3    H112762   0.766   6.293   2.345
 4273TIP3    H212763   0.854   6.316   2.465
 4274TIP3   OH212764   4.852   3.747   6.706
 4274TIP3    H112765   4.872   3.789   6.622
 4274TIP3    H212766   4.837   3.821   6.766
 4275TIP3   OH212767   0.635   4.806   2.987
 4275TIP3    H112768   0.709   4.825   2.930
 4275TIP3    H212769   0.672   4.756   3.060
 4276TIP3   OH212770   4.959   4.223   0.032
 4276TIP3    H112771   5.018   4.287  -0.009
 4276TIP3    H212772   4.970   4.143  -0.020
 4277TIP3   OH212773   2.679   2.257   5.720
 4277TIP3    H112774   2.636   2.323   5.666
 4277TIP3    H212775   2.741   2.215   5.662
 4278TIP3   OH212776   0.145   6.867   1.410
 4278TIP3    H112777   0.075   6.929   1.432
 4278TIP3    H212778   0.183   6.843   1.494
 4279TIP3   OH212779   2.676   6.907   6.143
 4279TIP3    H112780   2.739   6.963   6.188
 4279TIP3    H212781   2.618   6.968   6.098
 4280TIP3   OH212782   1.052   5.742   3.623
 4280TIP3    H112783   0.987   5.787   3.568
 4280TIP3    H212784   1.020   5.652   3.630
 4281TIP3   OH212785   5.838   4.193   3.856
 4281TIP3    H112786   5.930   4.197   3.829
 4281TIP3    H212787   5.791   4.165   3.777
 4282TIP3   OH212788   0.127   0.242   1.221
 4282TIP3    H112789   0.194   0.197   1.273
 4282TIP3    H212790   0.175   0.288   1.153
 4283TIP3   OH212791   7.639   6.756   2.719
 4283TIP3    H112792   7.602   6.800   2.642
 4283TIP3    H212793   7.734   6.760   2.706
 4284TIP3   OH212794   1.957   7.434   2.100
 4284TIP3    H112795   2.033   7.379   2.081
 4284TIP3    H212796   1.975   7.517   2.054
 4285TIP3   OH212797   0.007   2.680   6.652
 4285TIP3    H112798   0.058   2.645   6.725
 4285TIP3    H212799  -0.073   2.714   6.693
 4286TIP3   OH212800   7.051   6.943   4.350
 4286TIP3    H112801   7.005   6.861   4.332
 4286TIP3    H212802   7.136   6.932   4.307
 4287TIP3   OH212803   6.420   3.946   0.115
 4287TIP3    H112804   6.467   4.029   0.108
 4287TIP3    H212805   6.418   3.927   0.209
 4288TIP3   OH212806   0.672   2.413   3.287
 4288TIP3    H112807   0.706   2.432   3.375
 4288TIP3    H212808   0.592   2.466   3.281
 4289TIP3   OH212809   1.870   4.516   0.897
 4289TIP3    H112810   1.940   4.569   0.937
 4289TIP3    H212811   1.792   4.572   0.902
 4290TIP3   OH212812   0.709   3.148   0.394
 4290TIP3    H112813   0.649   3.220   0.381
 4290TIP3    H212814   0.662   3.071   0.363
 4291TIP3   OH212815   7.581   4.711   0.749
 4291TIP3    H112816   7.561   4.618   0.742
 4291TIP3    H212817   7.498   4.755   0.727
 4292TIP3   OH212818   4.665   6.458   0.194
 4292TIP3    H112819   4.732   6.506   0.243
 4292TIP3    H212820   4.697   6.369   0.189
 4293TIP3   OH212821   0.878   1.825   6.016
 4293TIP3    H112822   0.846   1.825   5.926
 4293TIP3    H212823   0.824   1.891   6.060
 4294TIP3   OH212824   7.886   2.970   1.310
 4294TIP3    H112825   7.843   2.897   1.355
 4294TIP3    H212826   7.913   2.934   1.226
 4295TIP3   OH212827   4.106   6.292   1.933
 4295TIP3    H112828   4.167   6.280   1.860
 4295TIP3    H212829   4.158   6.336   2.000
 4296TIP3   OH212830   4.058   4.717   1.043
 4296TIP3    H112831   4.060   4.639   1.099
 4296TIP3    H212832   4.133   4.769   1.072
 4297TIP3   OH212833   4.144   6.276   6.829
 4297TIP3    H112834   4.202   6.349   6.853
 4297TIP3    H212835   4.161   6.262   6.736
 4298TIP3   OH212836   0.963   0.640   0.356
 4298TIP3    H112837   1.043   0.663   0.309
 4298TIP3    H212838   0.987   0.647   0.448
 4299TIP3   OH212839   5.530   7.727   2.612
 4299TIP3    H112840   5.567   7.758   2.695
 4299TIP3    H212841   5.442   7.698   2.635
 4300TIP3   OH212842   0.618   6.482   5.011
 4300TIP3    H112843   0.577   6.403   4.975
 4300TIP3    H212844   0.633   6.538   4.936
 4301TIP3   OH212845   0.896   4.387   2.771
 4301TIP3    H112846   0.946   4.329   2.714
 4301TIP3    H212847   0.805   4.369   2.751
 4302TIP3   OH212848   3.488   6.282   0.714
 4302TIP3    H112849   3.430   6.344   0.670
 4302TIP3    H212850   3.539   6.335   0.776
 4303TIP3   OH212851   1.991   1.477   2.911
 4303TIP3    H112852   1.963   1.550   2.966
 4303TIP3    H212853   2.022   1.518   2.830
 4304TIP3   OH212854   4.459   3.706   6.483
 4304TIP3    H112855   4.428   3.755   6.559
 4304TIP3    H212856   4.507   3.770   6.431
 4305TIP3   OH212857   5.313   7.065   2.076
 4305TIP3    H112858   5.307   6.984   2.128
 4305TIP3    H212859   5.391   7.109   2.111
 4306TIP3   OH212860   4.406   6.178   2.316
 4306TIP3    H112861   4.378   6.224   2.395
 4306TIP3    H212862   4.324   6.155   2.272
 4307TIP3   OH212863   1.783   5.773   0.964
 4307TIP3    H112864   1.700   5.767   0.917
 4307TIP3    H212865   1.758   5.784   1.056
 4308TIP3   OH212866   2.270   1.197   0.345
 4308TIP3    H112867   2.180   1.175   0.366
 4308TIP3    H212868   2.321   1.166   0.421
 4309TIP3   OH212869   3.050   2.508   5.360
 4309TIP3    H112870   3.082   2.575   5.420
 4309TIP3    H212871   3.031   2.555   5.279
 4310TIP3   OH212872   4.107   3.742   2.698
 4310TIP3    H112873   4.083   3.790   2.619
 4310TIP3    H212874   4.026   3.700   2.726
 4311TIP3   OH212875   3.287   6.889   1.991
 4311TIP3    H112876   3.371   6.933   1.997
 4311TIP3    H212877   3.222   6.958   2.006
 4312TIP3   OH212878   2.027   1.200   1.133
 4312TIP3    H112879   2.040   1.294   1.145
 4312TIP3    H212880   1.966   1.175   1.202
 4313TIP3   OH212881   6.882   2.282   2.830
 4313TIP3    H112882   6.854   2.196   2.861
 4313TIP3    H212883   6.835   2.294   2.747
 4314TIP3   OH212884   7.649   3.743   4.366
 4314TIP3    H112885   7.581   3.697   4.316
 4314TIP3    H212886   7.636   3.713   4.456
 4315TIP3   OH212887   5.183   7.253   1.924
 4315TIP3    H112888   5.231   7.191   1.979
 4315TIP3    H212889   5.114   7.287   1.982
 4316TIP3   OH212890   2.287   1.022   3.530
 4316TIP3    H112891   2.216   1.058   3.584
 4316TIP3    H212892   2.335   0.964   3.589
 4317TIP3   OH212893   6.498   6.774   5.242
 4317TIP3    H112894   6.411   6.740   5.221
 4317TIP3    H212895   6.494   6.867   5.220
 4318TIP3   OH212896   7.694   1.616   2.077
 4318TIP3    H112897   7.606   1.588   2.102
 4318TIP3    H212898   7.706   1.701   2.119
 4319TIP3   OH212899   5.445   4.991   1.470
 4319TIP3    H112900   5.411   5.011   1.557
 4319TIP3    H212901   5.432   4.897   1.459
 4320TIP3   OH212902   3.728   7.621   5.154
 4320TIP3    H112903   3.703   7.555   5.090
 4320TIP3    H212904   3.663   7.613   5.224
 4321TIP3   OH212905   0.122   2.145   4.750
 4321TIP3    H112906   0.169   2.091   4.814
 4321TIP3    H212907   0.188   2.171   4.687
 4322TIP3   OH212908   0.221   0.124   5.986
 4322TIP3    H112909   0.171   0.077   6.053
 4322TIP3    H212910   0.242   0.058   5.921
 4323TIP3   OH212911   5.624   2.088   3.811
 4323TIP3    H112912   5.704   2.083   3.758
 4323TIP3    H212913   5.619   2.003   3.855
 4324TIP3   OH212914   2.038   1.563   0.451
 4324TIP3    H112915   2.115   1.533   0.500
 4324TIP3    H212916   2.024   1.497   0.383
 4325TIP3   OH212917   8.158   4.591   2.685
 4325TIP3    H112918   8.081   4.616   2.633
 4325TIP3    H212919   8.199   4.674   2.707
 4326TIP3   OH212920   1.598   5.891   5.788
 4326TIP3    H112921   1.674   5.949   5.800
 4326TIP3    H212922   1.603   5.865   5.696
 4327TIP3   OH212923   0.959   2.899   2.851
 4327TIP3    H112924   0.882   2.956   2.848
 4327TIP3    H212925   0.977   2.887   2.944
 4328TIP3   OH212926   8.078   3.269   6.528
 4328TIP3    H112927   8.078   3.189   6.476
 4328TIP3    H212928   8.109   3.337   6.468
 4329TIP3   OH212929   4.181   4.272   0.958
 4329TIP3    H112930   4.222   4.335   1.017
 4329TIP3    H212931   4.217   4.291   0.872
 4330TIP3   OH212932   3.603   5.649   3.053
 4330TIP3    H112933   3.619   5.588   2.981
 4330TIP3    H212934   3.535   5.606   3.106
 4331TIP3   OH212935   8.204   7.265   0.055
 4331TIP3    H112936   8.162   7.318   0.122
 4331TIP3    H212937   8.148   7.189   0.045
 4332TIP3   OH212938   0.217   3.952   0.105
 4332TIP3    H112939   0.208   3.906   0.022
 4332TIP3    H212940   0.145   3.919   0.159
 4333TIP3   OH212941   0.428   2.347   2.089
 4333TIP3    H112942   0.344   2.301   2.080
 4333TIP3    H212943   0.404   2.435   2.116
 4334TIP3   OH212944   2.604   6.055   4.116
 4334TIP3    H112945   2.584   6.144   4.146
 4334TIP3    H212946   2.679   6.065   4.057
 4335TIP3   OH212947   3.483   1.589   6.536
 4335TIP3    H112948   3.448   1.670   6.572
 4335TIP3    H212949   3.406   1.533   6.522
 4336TIP3   OH212950   4.132   6.889   6.337
 4336TIP3    H112951   4.055   6.849   6.295
 4336TIP3    H212952   4.206   6.836   6.307
 4337TIP3   OH212953   2.762   6.811   0.405
 4337TIP3    H112954   2.755   6.724   0.442
 4337TIP3    H212955   2.733   6.870   0.475
 4338TIP3   OH212956   7.414   1.995   3.855
 4338TIP3    H112957   7.336   2.004   3.910
 4338TIP3    H212958   7.447   1.908   3.874
 4339TIP3   OH212959   6.775   1.192   1.781
 4339TIP3    H112960   6.749   1.280   1.755
 4339TIP3    H212961   6.704   1.136   1.750
 4340TIP3   OH212962   0.244   0.289   0.181
 4340TIP3    H112963   0.302   0.215   0.195
 4340TIP3    H212964   0.205   0.305   0.267
 4341TIP3   OH212965   7.993   5.794   2.801
 4341TIP3    H112966   8.010   5.860   2.868
 4341TIP3    H212967   7.933   5.835   2.739
 4342TIP3   OH212968   1.898   4.525   1.894
 4342TIP3    H112969   1.916   4.607   1.941
 4342TIP3    H212970   1.929   4.540   1.805
 4343TIP3   OH212971   2.978   5.001   3.912
 4343TIP3    H112972   2.994   5.044   3.996
 4343TIP3    H212973   3.057   4.950   3.896
 4344TIP3   OH212974   2.686   1.009   1.131
 4344TIP3    H112975   2.640   0.926   1.125
 4344TIP3    H212976   2.762   0.999   1.073
 4345TIP3   OH212977   2.721   0.131   6.731
 4345TIP3    H112978   2.718   0.091   6.818
 4345TIP3    H212979   2.685   0.064   6.673
 4346TIP3   OH212980   2.943   0.292   0.705
 4346TIP3    H112981   2.958   0.315   0.614
 4346TIP3    H212982   2.971   0.201   0.712
 4347TIP3   OH212983   2.097   1.201   3.197
 4347TIP3    H112984   2.061   1.131   3.143
 4347TIP3    H212985   2.188   1.175   3.213
 4348TIP3   OH212986   1.932   6.886   0.824
 4348TIP3    H112987   1.930   6.862   0.916
 4348TIP3    H212988   1.963   6.807   0.779
 4349TIP3   OH212989   5.431   6.275   6.258
 4349TIP3    H112990   5.389   6.198   6.221
 4349TIP3    H212991   5.502   6.240   6.313
 4350TIP3   OH212992   4.732   0.838   2.242
 4350TIP3    H112993   4.770   0.821   2.328
 4350TIP3    H212994   4.807   0.840   2.183
 4351TIP3   OH212995   6.101   1.068   0.624
 4351TIP3    H112996   6.089   0.975   0.607
 4351TIP3    H212997   6.111   1.074   0.719
 4352TIP3   OH212998   4.505   6.757   3.021
 4352TIP3    H112999   4.599   6.774   3.025
 4352TIP3    H213000   4.484   6.720   3.107
 4353TIP3   OH213001   5.293   4.923   0.634
 4353TIP3    H113002   5.278   4.896   0.544
 4353TIP3    H213003   5.271   4.846   0.687
 4354TIP3   OH213004   6.341   7.492   4.729
 4354TIP3    H113005   6.278   7.470   4.798
 4354TIP3    H213006   6.337   7.588   4.723
 4355TIP3   OH213007   2.482   2.241   1.068
 4355TIP3    H113008   2.480   2.160   1.017
 4355TIP3    H213009   2.489   2.212   1.159
 4356TIP3   OH213010   8.220   3.416   3.410
 4356TIP3    H113011   8.310   3.398   3.384
 4356TIP3    H213012   8.227   3.451   3.499
 4357TIP3   OH213013   4.403   0.870   1.240
 4357TIP3    H113014   4.480   0.920   1.214
 4357TIP3    H213015   4.362   0.922   1.309
 4358TIP3   OH213016   2.924   1.875   2.793
 4358TIP3    H113017   2.917   1.866   2.888
 4358TIP3    H213018   2.836   1.857   2.760
 4359TIP3   OH213019   1.684   4.812   1.379
 4359TIP3    H113020   1.770   4.851   1.362
 4359TIP3    H213021   1.688   4.785   1.471
 4360TIP3   OH213022   5.797   5.526   5.598
 4360TIP3    H113023   5.861   5.515   5.669
 4360TIP3    H213024   5.725   5.467   5.623
 4361TIP3   OH213025   7.498   2.839   3.116
 4361TIP3    H113026   7.428   2.878   3.064
 4361TIP3    H213027   7.575   2.891   3.097
 4362TIP3   OH213028   6.442   6.013   5.021
 4362TIP3    H113029   6.402   6.054   4.944
 4362TIP3    H213030   6.393   6.049   5.095
 4363TIP3   OH213031   2.023   6.527   5.787
 4363TIP3    H113032   2.063   6.450   5.748
 4363TIP3    H213033   2.072   6.542   5.868
 4364TIP3   OH213034  -0.027   5.088   0.997
 4364TIP3    H113035   0.024   5.025   0.947
 4364TIP3    H213036   0.038   5.140   1.044
 4365TIP3   OH213037   6.379   1.333   6.690
 4365TIP3    H113038   6.336   1.265   6.741
 4365TIP3    H213039   6.472   1.313   6.696
 4366TIP3   OH213040   2.325   2.695   0.377
 4366TIP3    H113041   2.256   2.663   0.434
 4366TIP3    H213042   2.406   2.666   0.419
 4367TIP3   OH213043   7.156   0.561   5.821
 4367TIP3    H113044   7.172   0.642   5.869
 4367TIP3    H213045   7.112   0.587   5.741
 4368TIP3   OH213046   4.748   6.217   1.921
 4368TIP3    H113047   4.682   6.224   1.989
 4368TIP3    H213048   4.719   6.142   1.867
 4369TIP3   OH213049   8.308   5.763   5.750
 4369TIP3    H113050   8.227   5.808   5.773
 4369TIP3    H213051   8.348   5.817   5.682
 4370TIP3   OH213052   5.477   1.489   5.139
 4370TIP3    H113053   5.461   1.405   5.095
 4370TIP3    H213054   5.445   1.555   5.078
 4371TIP3   OH213055   6.022   3.093   4.157
 4371TIP3    H113056   6.109   3.057   4.140
 4371TIP3    H213057   6.039   3.166   4.217
 4372TIP3   OH213058   3.735   1.409   4.380
 4372TIP3    H113059   3.678   1.452   4.316
 4372TIP3    H213060   3.820   1.451   4.368
 4373TIP3   OH213061   7.920   2.243   2.356
 4373TIP3    H113062   7.853   2.232   2.289
 4373TIP3    H213063   7.987   2.178   2.334
 4374TIP3   OH213064   3.212   5.328   6.672
 4374TIP3    H113065   3.164   5.250   6.645
 4374TIP3    H213066   3.280   5.294   6.731
 4375TIP3   OH213067   6.982   4.165   1.296
 4375TIP3    H113068   6.926   4.100   1.339
 4375TIP3    H213069   7.056   4.114   1.263
 4376TIP3   OH213070   5.622   5.912   4.419
 4376TIP3    H113071   5.553   5.853   4.389
 4376TIP3    H213072   5.660   5.946   4.338
 4377TIP3   OH213073   3.872   2.074   5.491
 4377TIP3    H113074   3.788   2.028   5.496
 4377TIP3    H213075   3.937   2.009   5.517
 4378TIP3   OH213076   5.705   2.617   4.931
 4378TIP3    H113077   5.623   2.572   4.912
 4378TIP3    H213078   5.739   2.573   5.009
 4379TIP3   OH213079   2.540   7.574   3.360
 4379TIP3    H113080   2.469   7.610   3.414
 4379TIP3    H213081   2.529   7.479   3.366
 4380TIP3   OH213082   8.174   6.276   3.809
 4380TIP3    H113083   8.261   6.276   3.848
 4380TIP3    H213084   8.115   6.255   3.882
 4381TIP3   OH213085   4.664   1.784   1.769
 4381TIP3    H113086   4.708   1.869   1.758
 4381TIP3    H213087   4.649   1.777   1.863
 4382TIP3   OH213088   6.337   1.269   4.964
 4382TIP3    H113089   6.330   1.184   5.008
 4382TIP3    H213090   6.251   1.309   4.974
 4383TIP3   OH213091   6.270   2.944   2.012
 4383TIP3    H113092   6.322   3.010   2.058
 4383TIP3    H213093   6.197   2.992   1.975
 4384TIP3   OH213094   6.007   7.752   6.105
 4384TIP3    H113095   5.981   7.841   6.128
 4384TIP3    H213096   5.973   7.698   6.175
 4385TIP3   OH213097   4.217   5.726   4.852
 4385TIP3    H113098   4.263   5.713   4.935
 4385TIP3    H213099   4.241   5.815   4.826
 4386TIP3   OH213100   5.290   5.202   1.352
 4386TIP3    H113101   5.356   5.160   1.408
 4386TIP3    H213102   5.211   5.150   1.366
 4387TIP3   OH213103   4.116   6.884   5.561
 4387TIP3    H113104   4.199   6.927   5.583
 4387TIP3    H213105   4.092   6.836   5.640
 4388TIP3   OH213106   6.522  -0.010   2.967
 4388TIP3    H113107   6.554  -0.042   3.051
 4388TIP3    H213108   6.539   0.084   2.969
 4389TIP3   OH213109   1.972   1.790   2.339
 4389TIP3    H113110   1.995   1.793   2.432
 4389TIP3    H213111   2.038   1.732   2.300
 4390TIP3   OH213112   0.505   4.689   1.777
 4390TIP3    H113113   0.421   4.656   1.809
 4390TIP3    H213114   0.539   4.742   1.849
 4391TIP3   OH213115   2.035   4.497   5.820
 4391TIP3    H113116   2.041   4.577   5.767
 4391TIP3    H213117   1.967   4.516   5.885
 4392TIP3   OH213118   1.655   4.716  -0.067
 4392TIP3    H113119   1.649   4.717  -0.163
 4392TIP3    H213120   1.737   4.762  -0.048
 4393TIP3   OH213121   7.482   6.075   1.706
 4393TIP3    H113122   7.475   6.085   1.611
 4393TIP3    H213123   7.504   5.983   1.719
 4394TIP3   OH213124   2.322   6.413   5.212
 4394TIP3    H113125   2.290   6.501   5.193
 4394TIP3    H213126   2.248   6.355   5.196
 4395TIP3   OH213127   7.400   6.227   2.986
 4395TIP3    H113128   7.379   6.316   3.012
 4395TIP3    H213129   7.317   6.190   2.956
 4396TIP3   OH213130   4.465   2.685   3.452
 4396TIP3    H113131   4.524   2.616   3.421
 4396TIP3    H213132   4.426   2.648   3.532
 4397TIP3   OH213133   7.385   1.334   5.479
 4397TIP3    H113134   7.414   1.357   5.391
 4397TIP3    H213135   7.465   1.311   5.526
 4398TIP3   OH213136   8.173   3.945   0.941
 4398TIP3    H113137   8.265   3.935   0.966
 4398TIP3    H213138   8.146   3.856   0.916
 4399TIP3   OH213139   2.149   6.603   6.013
 4399TIP3    H113140   2.214   6.673   6.000
 4399TIP3    H213141   2.070   6.649   6.042
 4400TIP3   OH213142   3.312   1.232   4.768
 4400TIP3    H113143   3.357   1.153   4.797
 4400TIP3    H213144   3.371   1.304   4.791
 4401TIP3   OH213145   5.676   1.229   3.713
 4401TIP3    H113146   5.742   1.282   3.757
 4401TIP3    H213147   5.592   1.258   3.751
 4402TIP3   OH213148   2.543   5.366   3.990
 4402TIP3    H113149   2.466   5.323   4.026
 4402TIP3    H213150   2.600   5.294   3.962
 4403TIP3   OH213151   7.099   1.135   4.121
 4403TIP3    H113152   7.110   1.187   4.201
 4403TIP3    H213153   7.098   1.045   4.152
 4404TIP3   OH213154   8.215   5.853   1.507
 4404TIP3    H113155   8.158   5.914   1.460
 4404TIP3    H213156   8.160   5.776   1.523
 4405TIP3   OH213157   1.171   1.219   3.140
 4405TIP3    H113158   1.191   1.209   3.233
 4405TIP3    H213159   1.166   1.129   3.107
 4406TIP3   OH213160   7.376   7.438   6.422
 4406TIP3    H113161   7.335   7.352   6.425
 4406TIP3    H213162   7.315   7.496   6.468
 4407TIP3   OH213163   7.398   4.267   4.481
 4407TIP3    H113164   7.342   4.207   4.432
 4407TIP3    H213165   7.465   4.210   4.518
 4408TIP3   OH213166   3.777   3.498   1.826
 4408TIP3    H113167   3.739   3.473   1.742
 4408TIP3    H213168   3.713   3.469   1.891
 4409TIP3   OH213169   4.565   2.670   2.678
 4409TIP3    H113170   4.473   2.667   2.705
 4409TIP3    H213171   4.593   2.579   2.679
 4410TIP3   OH213172   2.577   5.053   4.568
 4410TIP3    H113173   2.655   4.997   4.573
 4410TIP3    H213174   2.514   5.011   4.626
 4411TIP3   OH213175   5.461   0.420   5.400
 4411TIP3    H113176   5.514   0.498   5.419
 4411TIP3    H213177   5.490   0.393   5.313
 4412TIP3   OH213178   8.157   7.371   4.241
 4412TIP3    H113179   8.133   7.302   4.179
 4412TIP3    H213180   8.251   7.358   4.256
 4413TIP3   OH213181   4.084   7.791   2.443
 4413TIP3    H113182   3.996   7.827   2.440
 4413TIP3    H213183   4.072   7.697   2.428
 4414TIP3   OH213184   7.791   2.159   6.718
 4414TIP3    H113185   7.726   2.228   6.734
 4414TIP3    H213186   7.740   2.079   6.712
 4415TIP3   OH213187   2.835   5.186   5.281
 4415TIP3    H113188   2.753   5.203   5.236
 4415TIP3    H213189   2.847   5.260   5.340
 4416TIP3   OH213190   5.253   1.231   1.515
 4416TIP3    H113191   5.194   1.239   1.440
 4416TIP3    H213192   5.259   1.320   1.550
 4417TIP3   OH213193   1.941   5.617   0.830
 4417TIP3    H113194   1.868   5.654   0.880
 4417TIP3    H213195   2.015   5.674   0.849
 4418TIP3   OH213196   1.705   6.345   1.886
 4418TIP3    H113197   1.800   6.349   1.880
 4418TIP3    H213198   1.684   6.252   1.873
 4419TIP3   OH213199   7.499   7.714   4.251
 4419TIP3    H113200   7.413   7.710   4.292
 4419TIP3    H213201   7.552   7.649   4.298
 4420TIP3   OH213202   0.093   5.943   5.517
 4420TIP3    H113203   0.079   6.007   5.448
 4420TIP3    H213204   0.167   5.977   5.568
 4421TIP3   OH213205   5.769   7.707   4.468
 4421TIP3    H113206   5.794   7.727   4.378
 4421TIP3    H213207   5.852   7.702   4.515
 4422TIP3   OH213208   1.857   2.806   1.806
 4422TIP3    H113209   1.895   2.785   1.721
 4422TIP3    H213210   1.836   2.721   1.844
 4423TIP3   OH213211   1.085   2.356   2.535
 4423TIP3    H113212   1.101   2.450   2.526
 4423TIP3    H213213   1.081   2.341   2.629
 4424TIP3   OH213214   2.300   3.614   5.673
 4424TIP3    H113215   2.270   3.542   5.618
 4424TIP3    H213216   2.220   3.660   5.699
 4425TIP3   OH213217   3.994   2.285   3.595
 4425TIP3    H113218   3.903   2.274   3.568
 4425TIP3    H213219   4.032   2.343   3.528
 4426TIP3   OH213220   6.101   4.418   0.208
 4426TIP3    H113221   6.088   4.512   0.194
 4426TIP3    H213222   6.079   4.404   0.300
 4427TIP3   OH213223   3.791   7.078   5.654
 4427TIP3    H113224   3.824   7.144   5.715
 4427TIP3    H213225   3.839   7.093   5.573
 4428TIP3   OH213226   6.417   6.329   4.651
 4428TIP3    H113227   6.468   6.286   4.583
 4428TIP3    H213228   6.482   6.356   4.716
 4429TIP3   OH213229   3.037   6.308   0.793
 4429TIP3    H113230   3.028   6.265   0.877
 4429TIP3    H213231   3.130   6.301   0.771
 4430TIP3   OH213232   2.098   7.651   2.770
 4430TIP3    H113233   2.053   7.607   2.842
 4430TIP3    H213234   2.056   7.617   2.691
 4431TIP3   OH213235   2.244   1.241   5.087
 4431TIP3    H113236   2.270   1.325   5.049
 4431TIP3    H213237   2.153   1.231   5.062
 4432TIP3   OH213238   5.829   6.806   5.373
 4432TIP3    H113239   5.912   6.849   5.394
 4432TIP3    H213240   5.789   6.791   5.459
 4433TIP3   OH213241   8.145   0.374   1.532
 4433TIP3    H113242   8.054   0.404   1.534
 4433TIP3    H213243   8.155   0.334   1.446
 4434TIP3   OH213244   5.090   3.887   5.399
 4434TIP3    H113245   5.119   3.961   5.346
 4434TIP3    H213246   4.995   3.898   5.406
 4435TIP3   OH213247   1.139   1.339   1.045
 4435TIP3    H113248   1.131   1.409   1.109
 4435TIP3    H213249   1.050   1.324   1.014
 4436TIP3   OH213250   2.905   3.310   1.176
 4436TIP3    H113251   2.898   3.400   1.144
 4436TIP3    H213252   2.817   3.290   1.210
 4437TIP3   OH213253   3.544   5.047   0.323
 4437TIP3    H113254   3.629   5.038   0.366
 4437TIP3    H213255   3.548   4.987   0.249
 4438TIP3   OH213256   2.279   3.391   0.999
 4438TIP3    H113257   2.359   3.379   1.051
 4438TIP3    H213258   2.285   3.325   0.931
 4439TIP3   OH213259   6.147   1.971   5.259
 4439TIP3    H113260   6.152   1.891   5.207
 4439TIP3    H213261   6.090   1.949   5.332
 4440TIP3   OH213262   2.368   5.893   6.414
 4440TIP3    H113263   2.286   5.847   6.433
 4440TIP3    H213264   2.353   5.983   6.444
 4441TIP3   OH213265   5.181   6.486   0.216
 4441TIP3    H113266   5.276   6.495   0.230
 4441TIP3    H213267   5.158   6.405   0.260
 4442TIP3   OH213268   3.483   5.918   1.753
 4442TIP3    H113269   3.549   5.976   1.716
 4442TIP3    H213270   3.532   5.865   1.817
 4443TIP3   OH213271   2.001   5.963   5.454
 4443TIP3    H113272   2.034   6.042   5.498
 4443TIP3    H213273   2.033   5.971   5.364
 4444TIP3   OH213274   0.419   1.539   4.623
 4444TIP3    H113275   0.479   1.473   4.659
 4444TIP3    H213276   0.433   1.536   4.529
 4445TIP3   OH213277   0.060   3.881   3.437
 4445TIP3    H113278   0.116   3.959   3.438
 4445TIP3    H213279  -0.028   3.915   3.451
 4446TIP3   OH213280   3.569   3.704   4.425
 4446TIP3    H113281   3.624   3.765   4.376
 4446TIP3    H213282   3.485   3.750   4.436
 4447TIP3   OH213283   7.037   7.535   6.510
 4447TIP3    H113284   7.061   7.582   6.590
 4447TIP3    H213285   7.049   7.443   6.532
 4448TIP3   OH213286   4.853   4.016   6.577
 4448TIP3    H113287   4.840   3.995   6.484
 4448TIP3    H213288   4.765   4.036   6.609
 4449TIP3   OH213289   5.078   7.435   6.586
 4449TIP3    H113290   5.105   7.347   6.613
 4449TIP3    H213291   5.157   7.489   6.597
 4450TIP3   OH213292   7.512   1.494   6.283
 4450TIP3    H113293   7.482   1.525   6.368
 4450TIP3    H213294   7.533   1.402   6.296
 4451TIP3   OH213295   2.747   7.356   2.033
 4451TIP3    H113296   2.699   7.285   2.075
 4451TIP3    H213297   2.777   7.411   2.105
 4452TIP3   OH213298   4.175   6.005   5.954
 4452TIP3    H113299   4.206   5.994   5.864
 4452TIP3    H213300   4.088   6.043   5.946
 4453TIP3   OH213301   0.787   1.759   3.338
 4453TIP3    H113302   0.740   1.795   3.414
 4453TIP3    H213303   0.761   1.667   3.335
 4454TIP3   OH213304   1.952   5.990   0.906
 4454TIP3    H113305   1.920   6.069   0.949
 4454TIP3    H213306   1.877   5.929   0.910
 4455TIP3   OH213307   0.561   0.919   0.445
 4455TIP3    H113308   0.483   0.871   0.416
 4455TIP3    H213309   0.633   0.875   0.400
 4456TIP3   OH213310   7.537   1.264   4.751
 4456TIP3    H113311   7.578   1.278   4.666
 4456TIP3    H213312   7.447   1.240   4.730
 4457TIP3   OH213313   2.688   6.428   5.248
 4457TIP3    H113314   2.778   6.412   5.221
 4457TIP3    H213315   2.696   6.469   5.335
 4458TIP3   OH213316   6.803   5.696   4.044
 4458TIP3    H113317   6.751   5.761   4.092
 4458TIP3    H213318   6.892   5.709   4.076
 4459TIP3   OH213319   7.780   1.224   5.169
 4459TIP3    H113320   7.768   1.318   5.153
 4459TIP3    H213321   7.743   1.182   5.091
 4460TIP3   OH213322   0.637   6.923   1.751
 4460TIP3    H113323   0.647   6.869   1.829
 4460TIP3    H213324   0.720   6.970   1.743
 4461TIP3   OH213325   7.549   2.999   3.847
 4461TIP3    H113326   7.488   3.073   3.855
 4461TIP3    H213327   7.519   2.953   3.769
 4462TIP3   OH213328   7.547   1.527   0.471
 4462TIP3    H113329   7.580   1.607   0.430
 4462TIP3    H213330   7.468   1.506   0.422
 4463TIP3   OH213331   5.589   2.127   6.519
 4463TIP3    H113332   5.666   2.093   6.565
 4463TIP3    H213333   5.589   2.082   6.435
 4464TIP3   OH213334   4.442   6.796   6.785
 4464TIP3    H113335   4.457   6.755   6.700
 4464TIP3    H213336   4.514   6.858   6.795
 4465TIP3   OH213337   2.592   4.747   1.556
 4465TIP3    H113338   2.657   4.681   1.581
 4465TIP3    H213339   2.643   4.816   1.514
 4466TIP3   OH213340   4.896   7.495   3.178
 4466TIP3    H113341   4.900   7.417   3.232
 4466TIP3    H213342   4.927   7.566   3.234
 4467TIP3   OH213343   2.497   2.065   6.627
 4467TIP3    H113344   2.436   2.058   6.700
 4467TIP3    H213345   2.558   1.992   6.639
 4468TIP3   OH213346   3.906   7.768   6.152
 4468TIP3    H113347   3.817   7.800   6.171
 4468TIP3    H213348   3.905   7.751   6.058
 4469TIP3   OH213349   3.520   2.438   4.225
 4469TIP3    H113350   3.514   2.421   4.319
 4469TIP3    H213351   3.429   2.457   4.199
 4470TIP3   OH213352   8.134   1.915   1.747
 4470TIP3    H113353   8.201   1.918   1.679
 4470TIP3    H213354   8.067   1.977   1.718
 4471TIP3   OH213355   1.963   5.005   0.247
 4471TIP3    H113356   2.047   4.996   0.291
 4471TIP3    H213357   1.903   5.032   0.316
 4472TIP3   OH213358   7.927   5.844   6.727
 4472TIP3    H113359   7.878   5.795   6.793
 4472TIP3    H213360   7.920   5.792   6.647
 4473TIP3   OH213361   2.022   7.128   0.913
 4473TIP3    H113362   1.970   7.055   0.879
 4473TIP3    H213363   1.959   7.200   0.922
 4474TIP3   OH213364   6.388   3.711   1.420
 4474TIP3    H113365   6.451   3.641   1.439
 4474TIP3    H213366   6.317   3.697   1.482
 4475TIP3   OH213367   2.570   2.619   5.364
 4475TIP3    H113368   2.561   2.707   5.327
 4475TIP3    H213369   2.579   2.562   5.288
 4476TIP3   OH213370   8.215   5.641   5.115
 4476TIP3    H113371   8.128   5.623   5.150
 4476TIP3    H213372   8.208   5.619   5.022
 4477TIP3   OH213373   1.582   5.268   4.162
 4477TIP3    H113374   1.644   5.306   4.224
 4477TIP3    H213375   1.629   5.194   4.123
 4478TIP3   OH213376   0.417   7.468   1.733
 4478TIP3    H113377   0.509   7.495   1.734
 4478TIP3    H213378   0.415   7.389   1.787
 4479TIP3   OH213379   4.723   6.952   0.199
 4479TIP3    H113380   4.807   6.906   0.195
 4479TIP3    H213381   4.745   7.039   0.232
 4480TIP3   OH213382   2.992   0.929   1.853
 4480TIP3    H113383   2.897   0.931   1.861
 4480TIP3    H213384   3.021   1.014   1.888
 4481TIP3   OH213385   0.084   2.531   2.307
 4481TIP3    H113386   0.017   2.483   2.356
 4481TIP3    H213387   0.035   2.587   2.247
 4482TIP3   OH213388   1.517   5.034   2.152
 4482TIP3    H113389   1.566   5.002   2.076
 4482TIP3    H213390   1.523   4.963   2.216
 4483TIP3   OH213391   6.675   2.968   2.263
 4483TIP3    H113392   6.696   2.991   2.353
 4483TIP3    H213393   6.760   2.963   2.219
 4484TIP3   OH213394   2.585   2.900   1.508
 4484TIP3    H113395   2.593   2.855   1.593
 4484TIP3    H213396   2.636   2.846   1.448
 4485TIP3   OH213397   1.419   2.930   1.010
 4485TIP3    H113398   1.382   2.842   1.012
 4485TIP3    H213399   1.492   2.927   1.071
 4486TIP3   OH213400   2.082   7.679   4.510
 4486TIP3    H113401   2.145   7.675   4.438
 4486TIP3    H213402   2.097   7.597   4.559
 4487TIP3   OH213403   3.695   4.319   4.022
 4487TIP3    H113404   3.706   4.266   3.943
 4487TIP3    H213405   3.747   4.397   4.006
 4488TIP3   OH213406   3.943   5.534   1.020
 4488TIP3    H113407   3.904   5.518   1.106
 4488TIP3    H213408   3.998   5.457   1.004
 4489TIP3   OH213409   3.601   6.563   4.395
 4489TIP3    H113410   3.680   6.613   4.415
 4489TIP3    H213411   3.597   6.560   4.300
 4490TIP3   OH213412   0.374   3.722   2.789
 4490TIP3    H113413   0.459   3.743   2.827
 4490TIP3    H213414   0.368   3.627   2.792
 4491TIP3   OH213415   4.736   2.370   6.707
 4491TIP3    H113416   4.684   2.444   6.677
 4491TIP3    H213417   4.758   2.391   6.797
 4492TIP3   OH213418   6.505   7.736   4.162
 4492TIP3    H113419   6.551   7.765   4.084
 4492TIP3    H213420   6.417   7.714   4.131
 4493TIP3   OH213421   2.356   3.950   6.176
 4493TIP3    H113422   2.335   3.857   6.189
 4493TIP3    H213423   2.275   3.988   6.143
 4494TIP3   OH213424   1.674   7.590   3.647
 4494TIP3    H113425   1.637   7.677   3.637
 4494TIP3    H213426   1.634   7.556   3.727
 4495TIP3   OH213427   4.944   1.622   2.059
 4495TIP3    H113428   4.879   1.673   2.108
 4495TIP3    H213429   4.968   1.679   1.985
 4496TIP3   OH213430   2.018   2.456   4.904
 4496TIP3    H113431   1.954   2.528   4.905
 4496TIP3    H213432   2.093   2.492   4.858
 4497TIP3   OH213433   4.409   7.541   1.225
 4497TIP3    H113434   4.494   7.551   1.268
 4497TIP3    H213435   4.416   7.459   1.176
 4498TIP3   OH213436   3.299   0.220   1.141
 4498TIP3    H113437   3.290   0.202   1.047
 4498TIP3    H213438   3.212   0.248   1.169
 4499TIP3   OH213439   1.390   0.433   2.134
 4499TIP3    H113440   1.434   0.435   2.048
 4499TIP3    H213441   1.461   0.444   2.197
 4500TIP3   OH213442   5.928   6.177   5.612
 4500TIP3    H113443   5.941   6.112   5.681
 4500TIP3    H213444   5.992   6.245   5.631
 4501TIP3   OH213445   5.988   1.993   0.567
 4501TIP3    H113446   5.965   1.918   0.621
 4501TIP3    H213447   6.080   2.010   0.587
 4502TIP3   OH213448   5.111   1.184   5.698
 4502TIP3    H113449   5.163   1.259   5.727
 4502TIP3    H213450   5.166   1.139   5.634
 4503TIP3   OH213451   1.093   7.381   3.212
 4503TIP3    H113452   1.101   7.471   3.243
 4503TIP3    H213453   1.127   7.383   3.122
 4504TIP3   OH213454   3.034   5.839   6.429
 4504TIP3    H113455   3.054   5.752   6.463
 4504TIP3    H213456   2.941   5.834   6.405
 4505TIP3   OH213457   0.548   1.907   4.047
 4505TIP3    H113458   0.513   1.839   3.989
 4505TIP3    H213459   0.533   1.989   4.001
 4506TIP3   OH213460   1.724   1.623   4.461
 4506TIP3    H113461   1.659   1.553   4.455
 4506TIP3    H213462   1.674   1.701   4.485
 4507TIP3   OH213463   3.062   7.025   3.285
 4507TIP3    H113464   3.039   7.039   3.193
 4507TIP3    H213465   3.137   6.966   3.283
 4508TIP3   OH213466   5.228   7.468   3.459
 4508TIP3    H113467   5.189   7.382   3.451
 4508TIP3    H213468   5.183   7.509   3.533
 4509TIP3   OH213469   4.644   4.941   2.000
 4509TIP3    H113470   4.618   5.033   2.008
 4509TIP3    H213471   4.600   4.910   1.922
 4510TIP3   OH213472   7.403   1.387   1.314
 4510TIP3    H113473   7.416   1.354   1.225
 4510TIP3    H213474   7.441   1.320   1.370
 4511TIP3   OH213475   7.024   5.818   0.887
 4511TIP3    H113476   6.949   5.873   0.911
 4511TIP3    H213477   7.028   5.823   0.792
 4512TIP3   OH213478   3.617   0.174   2.266
 4512TIP3    H113479   3.531   0.185   2.307
 4512TIP3    H213480   3.599   0.122   2.187
 4513TIP3   OH213481   4.564   7.296   0.765
 4513TIP3    H113482   4.473   7.325   0.755
 4513TIP3    H213483   4.558   7.211   0.807
 4514TIP3   OH213484   2.507   3.857   6.510
 4514TIP3    H113485   2.527   3.942   6.472
 4514TIP3    H213486   2.537   3.863   6.600
 4515TIP3   OH213487   2.692   2.249   2.662
 4515TIP3    H113488   2.784   2.274   2.655
 4515TIP3    H213489   2.690   2.187   2.734
 4516TIP3   OH213490   6.441   6.632   2.543
 4516TIP3    H113491   6.454   6.723   2.518
 4516TIP3    H213492   6.474   6.627   2.633
 4517TIP3   OH213493   2.271   1.931   3.551
 4517TIP3    H113494   2.194   1.988   3.559
 4517TIP3    H213495   2.332   1.965   3.616
 4518TIP3   OH213496   1.629   3.482   4.652
 4518TIP3    H113497   1.714   3.472   4.609
 4518TIP3    H213498   1.644   3.455   4.742
 4519TIP3   OH213499   6.970   6.026   6.278
 4519TIP3    H113500   6.943   6.031   6.370
 4519TIP3    H213501   7.008   6.112   6.260
 4520TIP3   OH213502   3.514   3.780   5.453
 4520TIP3    H113503   3.595   3.753   5.497
 4520TIP3    H213504   3.456   3.806   5.524
 4521TIP3   OH213505   0.285   3.268   6.283
 4521TIP3    H113506   0.215   3.207   6.303
 4521TIP3    H213507   0.245   3.355   6.292
 4522TIP3   OH213508   4.047   1.883   5.659
 4522TIP3    H113509   4.042   1.787   5.653
 4522TIP3    H213510   4.141   1.902   5.658
 4523TIP3   OH213511   0.688   4.553   6.533
 4523TIP3    H113512   0.650   4.639   6.519
 4523TIP3    H213513   0.691   4.513   6.446
 4524TIP3   OH213514   3.039   2.445   3.717
 4524TIP3    H113515   3.044   2.533   3.680
 4524TIP3    H213516   3.005   2.391   3.646
 4525TIP3   OH213517   7.773   5.762   5.409
 4525TIP3    H113518   7.785   5.797   5.498
 4525TIP3    H213519   7.679   5.765   5.394
 4526TIP3   OH213520   2.597   6.371   1.484
 4526TIP3    H113521   2.577   6.290   1.437
 4526TIP3    H213522   2.659   6.417   1.428
 4527TIP3   OH213523   6.147   6.064   1.604
 4527TIP3    H113524   6.137   6.088   1.512
 4527TIP3    H213525   6.169   5.970   1.602
 4528TIP3   OH213526   7.506   0.214   2.518
 4528TIP3    H113527   7.545   0.251   2.597
 4528TIP3    H213528   7.504   0.288   2.456
 4529TIP3   OH213529   3.099   4.083   5.090
 4529TIP3    H113530   3.047   4.123   5.020
 4529TIP3    H213531   3.051   4.004   5.114
 4530TIP3   OH213532   3.828   3.107   5.099
 4530TIP3    H113533   3.787   3.095   5.013
 4530TIP3    H213534   3.783   3.044   5.156
 4531TIP3   OH213535   1.721   3.204   2.723
 4531TIP3    H113536   1.698   3.297   2.719
 4531TIP3    H213537   1.667   3.170   2.794
 4532TIP3   OH213538   1.433   0.682   5.172
 4532TIP3    H113539   1.373   0.751   5.145
 4532TIP3    H213540   1.502   0.726   5.221
 4533TIP3   OH213541   4.053   3.733   1.468
 4533TIP3    H113542   4.076   3.696   1.383
 4533TIP3    H213543   4.112   3.808   1.478
 4534TIP3   OH213544   0.884   0.835   2.179
 4534TIP3    H113545   0.912   0.919   2.144
 4534TIP3    H213546   0.890   0.775   2.104
 4535TIP3   OH213547   0.859   1.196   5.752
 4535TIP3    H113548   0.789   1.221   5.692
 4535TIP3    H213549   0.936   1.241   5.719
 4536TIP3   OH213550   2.937   2.108   1.074
 4536TIP3    H113551   2.940   2.015   1.050
 4536TIP3    H213552   2.907   2.109   1.165
 4537TIP3   OH213553   2.172   4.742   6.670
 4537TIP3    H113554   2.141   4.831   6.687
 4537TIP3    H213555   2.206   4.712   6.754
 4538TIP3   OH213556   7.115   2.739   1.091
 4538TIP3    H113557   7.105   2.804   1.161
 4538TIP3    H213558   7.043   2.678   1.106
 4539TIP3   OH213559   1.601   2.415   5.650
 4539TIP3    H113560   1.543   2.481   5.688
 4539TIP3    H213561   1.545   2.364   5.592
 4540TIP3   OH213562   0.429   4.276   6.724
 4540TIP3    H113563   0.414   4.219   6.800
 4540TIP3    H213564   0.364   4.247   6.660
 4541TIP3   OH213565   4.480   3.541   0.441
 4541TIP3    H113566   4.569   3.555   0.474
 4541TIP3    H213567   4.435   3.624   0.458
 4542TIP3   OH213568   8.299   0.568   1.292
 4542TIP3    H113569   8.294   0.497   1.356
 4542TIP3    H213570   8.354   0.532   1.222
 4543TIP3   OH213571   3.650   5.650   3.871
 4543TIP3    H113572   3.611   5.637   3.784
 4543TIP3    H213573   3.741   5.672   3.853
 4544TIP3   OH213574   7.702   2.595   4.279
 4544TIP3    H113575   7.774   2.636   4.327
 4544TIP3    H213576   7.731   2.596   4.188
 4545TIP3   OH213577   7.859   2.823   6.152
 4545TIP3    H113578   7.914   2.830   6.229
 4545TIP3    H213579   7.854   2.728   6.135
 4546TIP3   OH213580   3.530   0.442   5.171
 4546TIP3    H113581   3.619   0.472   5.155
 4546TIP3    H213582   3.475   0.493   5.112
 4547TIP3   OH213583   1.579   7.552   3.930
 4547TIP3    H113584   1.593   7.482   3.994
 4547TIP3    H213585   1.516   7.610   3.972
 4548TIP3   OH213586   6.023   0.208   5.738
 4548TIP3    H113587   6.017   0.241   5.648
 4548TIP3    H213588   5.961   0.261   5.787
 4549TIP3   OH213589   1.396   2.196   0.703
 4549TIP3    H113590   1.432   2.248   0.775
 4549TIP3    H213591   1.346   2.259   0.651
 4550TIP3   OH213592   0.194   3.706   5.326
 4550TIP3    H113593   0.247   3.768   5.277
 4550TIP3    H213594   0.142   3.760   5.386
 4551TIP3   OH213595   2.992   6.143   0.519
 4551TIP3    H113596   2.971   6.068   0.463
 4551TIP3    H213597   3.057   6.192   0.469
 4552TIP3   OH213598   4.957   3.519   5.293
 4552TIP3    H113599   4.935   3.442   5.242
 4552TIP3    H213600   5.009   3.573   5.233
 4553TIP3   OH213601   5.135   0.973   4.980
 4553TIP3    H113602   5.108   0.903   4.921
 4553TIP3    H213603   5.053   1.009   5.014
 4554TIP3   OH213604   3.144   0.160   4.928
 4554TIP3    H113605   3.058   0.182   4.891
 4554TIP3    H213606   3.170   0.079   4.884
 4555TIP3   OH213607   6.667   3.503   0.922
 4555TIP3    H113608   6.602   3.572   0.908
 4555TIP3    H213609   6.656   3.445   0.846
 4556TIP3   OH213610   8.198   6.736   1.646
 4556TIP3    H113611   8.211   6.650   1.687
 4556TIP3    H213612   8.130   6.778   1.700
 4557TIP3   OH213613   0.445   6.541   3.844
 4557TIP3    H113614   0.396   6.586   3.776
 4557TIP3    H213615   0.386   6.471   3.874
 4558TIP3   OH213616   7.674   1.837   4.635
 4558TIP3    H113617   7.671   1.925   4.674
 4558TIP3    H213618   7.619   1.784   4.692
 4559TIP3   OH213619   5.300   0.170   1.480
 4559TIP3    H113620   5.226   0.122   1.443
 4559TIP3    H213621   5.279   0.262   1.463
 4560TIP3   OH213622   1.074   0.722   5.876
 4560TIP3    H113623   1.097   0.809   5.842
 4560TIP3    H213624   1.065   0.667   5.799
 4561TIP3   OH213625   1.123   1.757   6.134
 4561TIP3    H113626   1.193   1.731   6.074
 4561TIP3    H213627   1.051   1.785   6.078
 4562TIP3   OH213628   6.111   0.088   2.807
 4562TIP3    H113629   6.137   0.139   2.884
 4562TIP3    H213630   6.187   0.033   2.789
 4563TIP3   OH213631   6.095   7.618   0.761
 4563TIP3    H113632   6.148   7.680   0.812
 4563TIP3    H213633   6.077   7.548   0.823
 4564TIP3   OH213634   3.001   1.396   2.038
 4564TIP3    H113635   3.065   1.464   2.058
 4564TIP3    H213636   2.998   1.393   1.943
 4565TIP3   OH213637   6.251   5.032   3.086
 4565TIP3    H113638   6.221   4.941   3.083
 4565TIP3    H213639   6.265   5.056   2.994
 4566TIP3   OH213640   5.553   5.687   0.471
 4566TIP3    H113641   5.489   5.619   0.491
 4566TIP3    H213642   5.537   5.754   0.537
 4567TIP3   OH213643   3.565   6.583   4.103
 4567TIP3    H113644   3.476   6.599   4.073
 4567TIP3    H213645   3.621   6.627   4.039
 4568TIP3   OH213646   3.715   0.104   0.706
 4568TIP3    H113647   3.642   0.148   0.661
 4568TIP3    H213648   3.716   0.144   0.793
 4569TIP3   OH213649   5.672   2.368   0.599
 4569TIP3    H113650   5.648   2.373   0.691
 4569TIP3    H213651   5.695   2.276   0.585
 4570TIP3   OH213652   4.407   3.352   2.748
 4570TIP3    H113653   4.366   3.305   2.675
 4570TIP3    H213654   4.463   3.287   2.790
 4571TIP3   OH213655   6.698   2.697   3.849
 4571TIP3    H113656   6.677   2.727   3.760
 4571TIP3    H213657   6.784   2.733   3.867
 4572TIP3   OH213658   4.852   3.162   5.658
 4572TIP3    H113659   4.880   3.192   5.572
 4572TIP3    H213660   4.927   3.180   5.715
 4573TIP3   OH213661   0.140   6.687   3.923
 4573TIP3    H113662   0.143   6.617   3.989
 4573TIP3    H213663   0.134   6.641   3.840
 4574TIP3   OH213664   6.476   1.736   5.865
 4574TIP3    H113665   6.543   1.768   5.926
 4574TIP3    H213666   6.409   1.803   5.865
 4575TIP3   OH213667   4.527   6.661   2.561
 4575TIP3    H113668   4.559   6.731   2.617
 4575TIP3    H213669   4.491   6.596   2.622
 4576TIP3   OH213670   7.192   2.831   0.534
 4576TIP3    H113671   7.240   2.906   0.570
 4576TIP3    H213672   7.218   2.757   0.589
 4577TIP3   OH213673   5.737   3.531   3.861
 4577TIP3    H113674   5.703   3.455   3.909
 4577TIP3    H213675   5.659   3.570   3.822
 4578TIP3   OH213676   3.301   3.279   0.513
 4578TIP3    H113677   3.289   3.312   0.424
 4578TIP3    H213678   3.336   3.354   0.561
 4579TIP3   OH213679   7.810   1.970   4.416
 4579TIP3    H113680   7.905   1.976   4.423
 4579TIP3    H213681   7.783   1.920   4.493
 4580TIP3   OH213682   3.394   6.427   2.574
 4580TIP3    H113683   3.430   6.471   2.650
 4580TIP3    H213684   3.432   6.340   2.575
 4581TIP3   OH213685   6.821   5.107   5.845
 4581TIP3    H113686   6.751   5.057   5.889
 4581TIP3    H213687   6.779   5.142   5.766
 4582TIP3   OH213688   0.583   6.842   0.140
 4582TIP3    H113689   0.624   6.827   0.055
 4582TIP3    H213690   0.596   6.935   0.158
 4583TIP3   OH213691   2.814   1.441   5.331
 4583TIP3    H113692   2.750   1.428   5.262
 4583TIP3    H213693   2.821   1.536   5.340
 4584TIP3   OH213694   2.352   2.219   0.090
 4584TIP3    H113695   2.436   2.259   0.070
 4584TIP3    H213696   2.370   2.160   0.163
 4585TIP3   OH213697   1.186   5.516   6.423
 4585TIP3    H113698   1.272   5.532   6.384
 4585TIP3    H213699   1.130   5.584   6.385
 4586TIP3   OH213700   2.332   2.084   1.517
 4586TIP3    H113701   2.300   1.995   1.532
 4586TIP3    H213702   2.340   2.092   1.422
 4587TIP3   OH213703   2.850   5.515   2.589
 4587TIP3    H113704   2.943   5.510   2.609
 4587TIP3    H213705   2.807   5.519   2.675
 4588TIP3   OH213706   6.174   2.338   2.562
 4588TIP3    H113707   6.156   2.269   2.625
 4588TIP3    H213708   6.100   2.398   2.570
 4589TIP3   OH213709   2.443   3.328   5.903
 4589TIP3    H113710   2.365   3.380   5.883
 4589TIP3    H213711   2.516   3.386   5.883
 4590TIP3   OH213712   7.765   6.826   5.788
 4590TIP3    H113713   7.832   6.836   5.856
 4590TIP3    H213714   7.702   6.897   5.806
 4591TIP3   OH213715   3.010   3.910   1.355
 4591TIP3    H113716   3.094   3.955   1.365
 4591TIP3    H213717   2.999   3.900   1.261
 4592TIP3   OH213718   2.056   1.116   3.697
 4592TIP3    H113719   2.014   1.077   3.774
 4592TIP3    H213720   2.093   1.198   3.729
 4593TIP3   OH213721   3.088   2.994   2.505
 4593TIP3    H113722   3.091   2.920   2.445
 4593TIP3    H213723   3.146   2.969   2.577
 4594TIP3   OH213724   1.471   7.251   3.222
 4594TIP3    H113725   1.455   7.268   3.315
 4594TIP3    H213726   1.510   7.164   3.220
 4595TIP3   OH213727   7.411   4.360   6.133
 4595TIP3    H113728   7.485   4.303   6.114
 4595TIP3    H213729   7.444   4.421   6.199
 4596TIP3   OH213730   3.659   3.680   6.439
 4596TIP3    H113731   3.664   3.744   6.509
 4596TIP3    H213732   3.645   3.596   6.484
 4597TIP3   OH213733   6.607   0.586   6.615
 4597TIP3    H113734   6.643   0.569   6.702
 4597TIP3    H213735   6.684   0.592   6.558
 4598TIP3   OH213736   0.709   4.157   3.795
 4598TIP3    H113737   0.799   4.183   3.775
 4598TIP3    H213738   0.658   4.238   3.785
 4599TIP3   OH213739   1.957   2.569   2.107
 4599TIP3    H113740   1.917   2.485   2.083
 4599TIP3    H213741   2.014   2.547   2.181
 4600TIP3   OH213742   6.028   7.080   0.479
 4600TIP3    H113743   6.084   7.074   0.401
 4600TIP3    H213744   6.040   7.170   0.509
 4601TIP3   OH213745   7.461   2.533   3.608
 4601TIP3    H113746   7.477   2.470   3.537
 4601TIP3    H213747   7.370   2.558   3.596
 4602TIP3   OH213748   2.630   7.306   4.420
 4602TIP3    H113749   2.557   7.346   4.371
 4602TIP3    H213750   2.690   7.275   4.352
 4603TIP3   OH213751   5.453   0.953   4.055
 4603TIP3    H113752   5.420   0.874   4.098
 4603TIP3    H213753   5.541   0.964   4.090
 4604TIP3   OH213754   7.077   3.061   3.058
 4604TIP3    H113755   7.035   3.077   2.973
 4604TIP3    H213756   7.144   3.129   3.065
 4605TIP3   OH213757   6.173   0.140   3.931
 4605TIP3    H113758   6.092   0.132   3.881
 4605TIP3    H213759   6.202   0.050   3.945
 4606TIP3   OH213760   4.953   5.679   3.580
 4606TIP3    H113761   5.030   5.731   3.603
 4606TIP3    H213762   4.931   5.705   3.491
 4607TIP3   OH213763   5.855   5.428   4.435
 4607TIP3    H113764   5.876   5.515   4.402
 4607TIP3    H213765   5.762   5.416   4.413
 4608TIP3   OH213766   7.105   6.678   4.677
 4608TIP3    H113767   7.126   6.688   4.584
 4608TIP3    H213768   7.011   6.696   4.683
 4609TIP3   OH213769   0.481   7.420   0.125
 4609TIP3    H113770   0.489   7.342   0.070
 4609TIP3    H213771   0.511   7.392   0.212
 4610TIP3   OH213772   4.827   2.512   5.608
 4610TIP3    H113773   4.889   2.485   5.541
 4610TIP3    H213774   4.741   2.489   5.571
 4611TIP3   OH213775   1.002   4.744   3.092
 4611TIP3    H113776   1.039   4.685   3.027
 4611TIP3    H213777   0.978   4.688   3.166
 4612TIP3   OH213778   3.440   6.405   3.784
 4612TIP3    H113779   3.377   6.438   3.848
 4612TIP3    H213780   3.422   6.311   3.779
 4613TIP3   OH213781   2.035   0.225   4.454
 4613TIP3    H113782   2.122   0.225   4.495
 4613TIP3    H213783   1.976   0.197   4.523
 4614TIP3   OH213784   5.874   7.022   1.909
 4614TIP3    H113785   5.898   6.960   1.978
 4614TIP3    H213786   5.909   7.106   1.938
 4615TIP3   OH213787   1.938   4.595   3.115
 4615TIP3    H113788   2.018   4.578   3.164
 4615TIP3    H213789   1.892   4.511   3.114
 4616TIP3   OH213790   6.965   2.908   4.312
 4616TIP3    H113791   7.032   2.840   4.302
 4616TIP3    H213792   6.936   2.900   4.402
 4617TIP3   OH213793   2.099   3.034   2.588
 4617TIP3    H113794   2.040   3.109   2.593
 4617TIP3    H213795   2.041   2.958   2.582
 4618TIP3   OH213796   3.551   4.158   4.186
 4618TIP3    H113797   3.601   4.215   4.129
 4618TIP3    H213798   3.502   4.217   4.243
 4619TIP3   OH213799   6.209   4.712   4.475
 4619TIP3    H113800   6.286   4.761   4.503
 4619TIP3    H213801   6.136   4.774   4.487
 4620TIP3   OH213802   1.662   2.150   0.018
 4620TIP3    H113803   1.649   2.242  -0.007
 4620TIP3    H213804   1.580   2.107  -0.007
 4621TIP3   OH213805   7.841   4.197   6.312
 4621TIP3    H113806   7.883   4.169   6.393
 4621TIP3    H213807   7.913   4.215   6.252
 4622TIP3   OH213808   8.030   2.650   2.532
 4622TIP3    H113809   8.055   2.703   2.457
 4622TIP3    H213810   7.953   2.695   2.568
 4623TIP3   OH213811   0.914   2.632   2.617
 4623TIP3    H113812   0.876   2.619   2.531
 4623TIP3    H213813   1.007   2.650   2.600
 4624TIP3   OH213814   2.698   6.443   4.415
 4624TIP3    H113815   2.701   6.535   4.441
 4624TIP3    H213816   2.762   6.400   4.473
 4625TIP3   OH213817   6.673   3.181   0.501
 4625TIP3    H113818   6.708   3.220   0.581
 4625TIP3    H213819   6.749   3.172   0.443
 4626TIP3   OH213820   3.278   7.270   0.433
 4626TIP3    H113821   3.235   7.346   0.394
 4626TIP3    H213822   3.371   7.283   0.413
 4627TIP3   OH213823   4.060   0.394   2.617
 4627TIP3    H113824   4.062   0.378   2.523
 4627TIP3    H213825   3.991   0.459   2.629
 4628TIP3   OH213826   6.540   6.684   2.167
 4628TIP3    H113827   6.458   6.730   2.150
 4628TIP3    H213828   6.518   6.592   2.156
 4629TIP3   OH213829   1.027   4.499   4.774
 4629TIP3    H113830   1.072   4.556   4.712
 4629TIP3    H213831   1.019   4.552   4.853
 4630TIP3   OH213832   6.091   1.913   6.659
 4630TIP3    H113833   5.999   1.898   6.638
 4630TIP3    H213834   6.102   2.008   6.648
 4631TIP3   OH213835   8.231   3.254   6.801
 4631TIP3    H113836   8.218   3.248   6.706
 4631TIP3    H213837   8.265   3.168   6.826
 4632TIP3   OH213838   3.718   7.113   1.884
 4632TIP3    H113839   3.782   7.060   1.836
 4632TIP3    H213840   3.746   7.203   1.870
 4633TIP3   OH213841   4.658   2.032   4.321
 4633TIP3    H113842   4.650   2.019   4.415
 4633TIP3    H213843   4.578   2.079   4.296
 4634TIP3   OH213844   4.270   1.616   6.498
 4634TIP3    H113845   4.316   1.595   6.417
 4634TIP3    H213846   4.323   1.578   6.567
 4635TIP3   OH213847   4.657   5.329   3.034
 4635TIP3    H113848   4.651   5.329   3.129
 4635TIP3    H213849   4.746   5.300   3.015
 4636TIP3   OH213850   7.696   3.867   4.661
 4636TIP3    H113851   7.772   3.926   4.659
 4636TIP3    H213852   7.687   3.843   4.754
 4637TIP3   OH213853   7.197   1.052   1.035
 4637TIP3    H113854   7.111   1.091   1.020
 4637TIP3    H213855   7.188   1.007   1.119
 4638TIP3   OH213856   1.556   6.569   2.051
 4638TIP3    H113857   1.520   6.548   1.965
 4638TIP3    H213858   1.504   6.643   2.081
 4639TIP3   OH213859   3.760   6.563   5.981
 4639TIP3    H113860   3.819   6.635   5.957
 4639TIP3    H213861   3.721   6.535   5.899
 4640TIP3   OH213862   7.797   2.981   4.782
 4640TIP3    H113863   7.780   2.921   4.709
 4640TIP3    H213864   7.805   2.924   4.859
 4641TIP3   OH213865   0.688   2.865   5.305
 4641TIP3    H113866   0.651   2.868   5.393
 4641TIP3    H213867   0.726   2.778   5.297
 4642TIP3   OH213868   3.191   0.048   0.424
 4642TIP3    H113869   3.203   0.054   0.329
 4642TIP3    H213870   3.161  -0.042   0.439
 4643TIP3   OH213871   7.041   1.723   5.986
 4643TIP3    H113872   7.070   1.642   6.029
 4643TIP3    H213873   6.955   1.701   5.950
 4644TIP3   OH213874   5.539   2.433   4.225
 4644TIP3    H113875   5.491   2.350   4.220
 4644TIP3    H213876   5.486   2.494   4.174
 4645TIP3   OH213877   7.047   0.693   1.505
 4645TIP3    H113878   7.090   0.643   1.573
 4645TIP3    H213879   7.101   0.678   1.427
 4646TIP3   OH213880   1.050   3.132   5.983
 4646TIP3    H113881   1.113   3.072   5.942
 4646TIP3    H213882   1.103   3.204   6.016
 4647TIP3   OH213883   8.161   5.694   6.775
 4647TIP3    H113884   8.202   5.658   6.696
 4647TIP3    H213885   8.157   5.788   6.759
 4648TIP3   OH213886   1.290   3.344   3.909
 4648TIP3    H113887   1.253   3.360   3.822
 4648TIP3    H213888   1.236   3.397   3.968
 4649TIP3   OH213889   6.277   4.534   1.420
 4649TIP3    H113890   6.356   4.538   1.366
 4649TIP3    H213891   6.295   4.464   1.483
 4650TIP3   OH213892   7.919   2.753   2.982
 4650TIP3    H113893   7.909   2.667   2.943
 4650TIP3    H213894   7.942   2.735   3.073
 4651TIP3   OH213895   6.621   5.007   6.009
 4651TIP3    H113896   6.575   4.933   6.049
 4651TIP3    H213897   6.584   5.084   6.052
 4652TIP3   OH213898   3.814   0.630   1.309
 4652TIP3    H113899   3.778   0.580   1.382
 4652TIP3    H213900   3.741   0.682   1.276
 4653TIP3   OH213901   8.261   7.435   2.048
 4653TIP3    H113902   8.197   7.365   2.057
 4653TIP3    H213903   8.274   7.466   2.138
 4654TIP3   OH213904   0.032   5.989   4.734
 4654TIP3    H113905   0.005   5.948   4.817
 4654TIP3    H213906   0.128   5.993   4.740
 4655TIP3   OH213907   5.879   4.135   6.601
 4655TIP3    H113908   5.817   4.200   6.569
 4655TIP3    H213909   5.953   4.186   6.633
 4656TIP3   OH213910   0.262   7.029   0.410
 4656TIP3    H113911   0.204   6.957   0.438
 4656TIP3    H213912   0.206   7.085   0.356
 4657TIP3   OH213913   7.808   4.171   3.641
 4657TIP3    H113914   7.833   4.227   3.714
 4657TIP3    H213915   7.778   4.090   3.682
 4658TIP3   OH213916   4.600   5.448   0.329
 4658TIP3    H113917   4.681   5.488   0.359
 4658TIP3    H213918   4.541   5.521   0.313
 4659TIP3   OH213919   0.733   2.403   5.576
 4659TIP3    H113920   0.710   2.371   5.663
 4659TIP3    H213921   0.773   2.488   5.592
 4660TIP3   OH213922   5.960   7.253   6.208
 4660TIP3    H113923   5.902   7.195   6.258
 4660TIP3    H213924   6.042   7.203   6.200
 4661TIP3   OH213925   0.250   2.555   4.366
 4661TIP3    H113926   0.262   2.618   4.438
 4661TIP3    H213927   0.265   2.606   4.287
 4662TIP3   OH213928   1.217   4.880   0.343
 4662TIP3    H113929   1.129   4.848   0.324
 4662TIP3    H213930   1.263   4.874   0.259
 4663TIP3   OH213931   6.502   5.656   2.144
 4663TIP3    H113932   6.458   5.718   2.085
 4663TIP3    H213933   6.447   5.654   2.222
 4664TIP3   OH213934   3.278   3.050   2.975
 4664TIP3    H113935   3.301   3.015   3.061
 4664TIP3    H213936   3.354   3.031   2.920
 4665TIP3   OH213937   2.963   4.879   1.585
 4665TIP3    H113938   3.003   4.891   1.498
 4665TIP3    H213939   2.966   4.785   1.599
 4666TIP3   OH213940   4.340   0.129   5.834
 4666TIP3    H113941   4.336   0.224   5.820
 4666TIP3    H213942   4.419   0.102   5.788
 4667TIP3   OH213943   1.049   0.544   3.485
 4667TIP3    H113944   1.120   0.486   3.458
 4667TIP3    H213945   1.087   0.632   3.480
 4668TIP3   OH213946   4.259   4.571   4.314
 4668TIP3    H113947   4.267   4.636   4.383
 4668TIP3    H213948   4.215   4.617   4.242
 4669TIP3   OH213949   1.277   5.871   2.333
 4669TIP3    H113950   1.223   5.915   2.399
 4669TIP3    H213951   1.214   5.825   2.277
 4670TIP3   OH213952   1.294   4.668   0.136
 4670TIP3    H113953   1.356   4.631   0.072
 4670TIP3    H213954   1.325   4.635   0.220
 4671TIP3   OH213955   3.169   2.401   6.238
 4671TIP3    H113956   3.083   2.389   6.199
 4671TIP3    H213957   3.153   2.450   6.319
 4672TIP3   OH213958   2.462   0.916   6.419
 4672TIP3    H113959   2.371   0.943   6.429
 4672TIP3    H213960   2.459   0.822   6.404
 4673TIP3   OH213961   7.529   1.968   4.995
 4673TIP3    H113962   7.440   1.955   4.963
 4673TIP3    H213963   7.557   2.051   4.957
 4674TIP3   OH213964   6.800   1.810   2.654
 4674TIP3    H113965   6.839   1.757   2.723
 4674TIP3    H213966   6.717   1.840   2.691
 4675TIP3   OH213967   5.804   2.593   3.472
 4675TIP3    H113968   5.773   2.629   3.388
 4675TIP3    H213969   5.740   2.623   3.536
 4676TIP3   OH213970   6.115   7.250   2.489
 4676TIP3    H113971   6.041   7.281   2.541
 4676TIP3    H213972   6.166   7.328   2.470
 4677TIP3   OH213973   2.247   2.746   5.860
 4677TIP3    H113974   2.288   2.825   5.894
 4677TIP3    H213975   2.231   2.691   5.937
 4678TIP3   OH213976   6.989   1.276   0.654
 4678TIP3    H113977   6.924   1.242   0.715
 4678TIP3    H213978   7.046   1.331   0.708
 4679TIP3   OH213979   1.077   6.298   6.524
 4679TIP3    H113980   1.074   6.342   6.439
 4679TIP3    H213981   0.990   6.257   6.533
 4680TIP3   OH213982   5.732   2.985   4.812
 4680TIP3    H113983   5.735   3.028   4.727
 4680TIP3    H213984   5.653   3.021   4.854
 4681TIP3   OH213985   5.229   2.684   5.681
 4681TIP3    H113986   5.324   2.692   5.677
 4681TIP3    H213987   5.206   2.632   5.604
 4682TIP3   OH213988   0.692   1.217   6.483
 4682TIP3    H113989   0.739   1.300   6.487
 4682TIP3    H213990   0.718   1.178   6.400
 4683TIP3   OH213991   4.770   5.850   1.045
 4683TIP3    H113992   4.824   5.781   1.006
 4683TIP3    H213993   4.810   5.867   1.130
 4684TIP3   OH213994   7.402   7.023   1.752
 4684TIP3    H113995   7.475   6.982   1.706
 4684TIP3    H213996   7.343   7.052   1.682
 4685TIP3   OH213997   4.414   0.703   4.581
 4685TIP3    H113998   4.495   0.726   4.536
 4685TIP3    H213999   4.411   0.608   4.579
 4686TIP3   OH214000   3.726   6.739   2.283
 4686TIP3    H114001   3.720   6.646   2.306
 4686TIP3    H214002   3.751   6.739   2.190
 4687TIP3   OH214003   5.764   3.157   4.600
 4687TIP3    H114004   5.853   3.123   4.590
 4687TIP3    H214005   5.775   3.252   4.598
 4688TIP3   OH214006   2.991   3.676   0.354
 4688TIP3    H114007   2.975   3.619   0.279
 4688TIP3    H214008   2.908   3.722   0.367
 4689TIP3   OH214009   2.616   1.806   1.433
 4689TIP3    H114010   2.706   1.776   1.428
 4689TIP3    H214011   2.592   1.827   1.343
 4690TIP3   OH214012   0.569   6.155   5.984
 4690TIP3    H114013   0.530   6.168   6.071
 4690TIP3    H214014   0.596   6.064   5.984
 4691TIP3   OH214015   3.956   1.802   2.093
 4691TIP3    H114016   3.888   1.790   2.028
 4691TIP3    H214017   3.922   1.868   2.153
 4692TIP3   OH214018   2.473   7.121   0.694
 4692TIP3    H114019   2.469   7.030   0.723
 4692TIP3    H214020   2.381   7.148   0.687
 4693TIP3   OH214021   2.948   1.225   6.374
 4693TIP3    H114022   2.994   1.173   6.308
 4693TIP3    H214023   2.983   1.196   6.458
 4694TIP3   OH214024   4.726   0.604   6.527
 4694TIP3    H114025   4.763   0.653   6.453
 4694TIP3    H214026   4.719   0.668   6.597
 4695TIP3   OH214027   4.425   6.200   6.160
 4695TIP3    H114028   4.404   6.156   6.242
 4695TIP3    H214029   4.449   6.129   6.100
 4696TIP3   OH214030   7.112   5.617   1.691
 4696TIP3    H114031   7.144   5.700   1.726
 4696TIP3    H214032   7.182   5.554   1.711
 4697TIP3   OH214033   0.264   4.082   1.004
 4697TIP3    H114034   0.254   4.175   0.984
 4697TIP3    H214035   0.252   4.076   1.099
 4698TIP3   OH214036   6.230   5.289   6.132
 4698TIP3    H114037   6.309   5.238   6.148
 4698TIP3    H214038   6.244   5.371   6.179
 4699TIP3   OH214039   3.558   7.282   0.705
 4699TIP3    H114040   3.625   7.217   0.685
 4699TIP3    H214041   3.495   7.235   0.760
 4700TIP3   OH214042   7.881   4.668   1.624
 4700TIP3    H114043   7.921   4.732   1.683
 4700TIP3    H214044   7.798   4.645   1.667
 4701TIP3   OH214045   2.742   6.966   5.811
 4701TIP3    H114046   2.675   6.967   5.880
 4701TIP3    H214047   2.754   6.873   5.791
 4702TIP3   OH214048   6.463   7.789   2.040
 4702TIP3    H114049   6.549   7.830   2.042
 4702TIP3    H214050   6.443   7.780   1.946
 4703TIP3   OH214051   5.706   5.644   2.414
 4703TIP3    H114052   5.746   5.661   2.329
 4703TIP3    H214053   5.754   5.699   2.476
 4704TIP3   OH214054   4.274   4.246   1.334
 4704TIP3    H114055   4.351   4.200   1.367
 4704TIP3    H214056   4.309   4.324   1.291
 4705TIP3   OH214057   5.449   4.597   2.893
 4705TIP3    H114058   5.380   4.562   2.836
 4705TIP3    H214059   5.478   4.677   2.848
 4706TIP3   OH214060   3.372   7.155   4.055
 4706TIP3    H114061   3.278   7.146   4.071
 4706TIP3    H214062   3.412   7.083   4.105
 4707TIP3   OH214063   5.481   2.468   4.922
 4707TIP3    H114064   5.445   2.398   4.868
 4707TIP3    H214065   5.474   2.434   5.012
 4708TIP3   OH214066   6.527   2.421   0.503
 4708TIP3    H114067   6.609   2.448   0.461
 4708TIP3    H214068   6.458   2.456   0.447
 4709TIP3   OH214069   5.244   3.190   4.939
 4709TIP3    H114070   5.294   3.137   4.876
 4709TIP3    H214071   5.310   3.226   4.998
 4710TIP3   OH214072   5.684   7.455   4.424
 4710TIP3    H114073   5.718   7.540   4.451
 4710TIP3    H214074   5.734   7.392   4.477
 4711TIP3   OH214075   5.023   1.292   1.738
 4711TIP3    H114076   5.025   1.280   1.833
 4711TIP3    H214077   5.103   1.341   1.718
 4712TIP3   OH214078   5.644   6.767   2.156
 4712TIP3    H114079   5.656   6.782   2.250
 4712TIP3    H214080   5.594   6.685   2.151
 4713TIP3   OH214081   5.200   0.790   2.070
 4713TIP3    H114082   5.284   0.770   2.110
 4713TIP3    H214083   5.222   0.851   1.999
 4714TIP3   OH214084   6.643   0.394   3.933
 4714TIP3    H114085   6.574   0.449   3.970
 4714TIP3    H214086   6.603   0.307   3.925
 4715TIP3   OH214087   2.596   7.628   5.101
 4715TIP3    H114088   2.524   7.691   5.108
 4715TIP3    H214089   2.675   7.680   5.118
 4716TIP3   OH214090   4.895   2.032   5.005
 4716TIP3    H114091   4.809   2.069   4.986
 4716TIP3    H214092   4.910   1.968   4.935
 4717TIP3   OH214093   5.794   6.923   1.432
 4717TIP3    H114094   5.709   6.925   1.389
 4717TIP3    H214095   5.799   6.837   1.473
 4718TIP3   OH214096   6.601   1.121   2.682
 4718TIP3    H114097   6.518   1.074   2.685
 4718TIP3    H214098   6.618   1.134   2.589
 4719TIP3   OH214099   3.762   6.647   1.622
 4719TIP3    H114100   3.804   6.676   1.702
 4719TIP3    H214101   3.678   6.693   1.621
 4720TIP3   OH214102   2.135   0.248   3.089
 4720TIP3    H114103   2.157   0.287   3.173
 4720TIP3    H214104   2.216   0.256   3.037
 4721TIP3   OH214105   7.207   2.787   5.563
 4721TIP3    H114106   7.216   2.702   5.606
 4721TIP3    H214107   7.254   2.848   5.620
 4722TIP3   OH214108   4.178   6.346   3.206
 4722TIP3    H114109   4.096   6.304   3.234
 4722TIP3    H214110   4.221   6.373   3.287
 4723TIP3   OH214111   5.000   5.695   5.793
 4723TIP3    H114112   4.986   5.726   5.883
 4723TIP3    H214113   4.940   5.621   5.784
 4724TIP3   OH214114   4.670   5.807   4.004
 4724TIP3    H114115   4.725   5.788   3.928
 4724TIP3    H214116   4.581   5.787   3.974
 4725TIP3   OH214117   1.284   5.243   3.142
 4725TIP3    H114118   1.375   5.252   3.114
 4725TIP3    H214119   1.290   5.209   3.232
 4726TIP3   OH214120   1.397   3.191   6.409
 4726TIP3    H114121   1.361   3.103   6.414
 4726TIP3    H214122   1.468   3.184   6.345
 4727TIP3   OH214123   1.385   2.108   2.942
 4727TIP3    H114124   1.368   2.106   3.036
 4727TIP3    H214125   1.332   2.180   2.909
 4728TIP3   OH214126   2.826   5.320   1.054
 4728TIP3    H114127   2.837   5.225   1.043
 4728TIP3    H214128   2.830   5.333   1.149
 4729TIP3   OH214129   1.485   2.167   6.776
 4729TIP3    H114130   1.464   2.252   6.815
 4729TIP3    H214131   1.483   2.182   6.682
 4730TIP3   OH214132   1.297   7.103   2.271
 4730TIP3    H114133   1.375   7.153   2.245
 4730TIP3    H214134   1.293   7.032   2.207
 4731TIP3   OH214135   4.171   7.437   2.842
 4731TIP3    H114136   4.129   7.465   2.924
 4731TIP3    H214137   4.254   7.484   2.841
 4732TIP3   OH214138   1.940   0.410   4.209
 4732TIP3    H114139   1.853   0.399   4.170
 4732TIP3    H214140   1.995   0.346   4.164
 4733TIP3   OH214141   0.926   5.461   6.249
 4733TIP3    H114142   0.926   5.375   6.291
 4733TIP3    H214143   0.944   5.523   6.320
 4734TIP3   OH214144   3.378   2.377   0.748
 4734TIP3    H114145   3.397   2.461   0.706
 4734TIP3    H214146   3.387   2.395   0.842
 4735TIP3   OH214147   0.359   4.032   0.372
 4735TIP3    H114148   0.269   4.001   0.378
 4735TIP3    H214149   0.354   4.112   0.319
 4736TIP3   OH214150   0.597   7.414   4.312
 4736TIP3    H114151   0.531   7.403   4.381
 4736TIP3    H214152   0.637   7.328   4.304
 4737TIP3   OH214153   7.815   1.407   0.318
 4737TIP3    H114154   7.766   1.489   0.319
 4737TIP3    H214155   7.773   1.354   0.250
 4738TIP3   OH214156   1.700   1.093   1.551
 4738TIP3    H114157   1.660   1.173   1.586
 4738TIP3    H214158   1.634   1.025   1.567
 4739TIP3   OH214159   3.345   3.269   4.403
 4739TIP3    H114160   3.416   3.323   4.369
 4739TIP3    H214161   3.389   3.192   4.440
 4740TIP3   OH214162   6.814   4.685   6.163
 4740TIP3    H114163   6.795   4.713   6.074
 4740TIP3    H214164   6.801   4.763   6.217
 4741TIP3   OH214165   7.223   6.639   3.337
 4741TIP3    H114166   7.237   6.545   3.334
 4741TIP3    H214167   7.256   6.671   3.253
 4742TIP3   OH214168   2.725   2.986   0.101
 4742TIP3    H114169   2.802   2.999   0.156
 4742TIP3    H214170   2.663   3.052   0.131
 4743TIP3   OH214171   4.668   1.756   6.260
 4743TIP3    H114172   4.582   1.718   6.276
 4743TIP3    H214173   4.654   1.823   6.194
 4744TIP3   OH214174   3.526   5.110   0.898
 4744TIP3    H114175   3.441   5.071   0.877
 4744TIP3    H214176   3.579   5.094   0.820
 4745TIP3   OH214177   4.172   6.893   6.711
 4745TIP3    H114178   4.257   6.857   6.736
 4745TIP3    H214179   4.159   6.861   6.621
 4746TIP3   OH214180   0.377   7.606   0.431
 4746TIP3    H114181   0.470   7.583   0.428
 4746TIP3    H214182   0.348   7.578   0.518
 4747TIP3   OH214183   3.617   2.034   1.754
 4747TIP3    H114184   3.615   2.076   1.667
 4747TIP3    H214185   3.580   2.100   1.813
 4748TIP3   OH214186   5.306   4.423   1.268
 4748TIP3    H114187   5.210   4.426   1.260
 4748TIP3    H214188   5.336   4.499   1.219
 4749TIP3   OH214189   0.903   7.807   6.247
 4749TIP3    H114190   0.997   7.795   6.253
 4749TIP3    H214191   0.876   7.754   6.172
 4750TIP3   OH214192   7.322   5.572   4.208
 4750TIP3    H114193   7.356   5.495   4.253
 4750TIP3    H214194   7.228   5.572   4.228
 4751TIP3   OH214195   7.429   0.059   0.690
 4751TIP3    H114196   7.476   0.124   0.741
 4751TIP3    H214197   7.483   0.045   0.611
 4752TIP3   OH214198   0.843   6.036   2.786
 4752TIP3    H114199   0.872   5.947   2.765
 4752TIP3    H214200   0.895   6.061   2.862
 4753TIP3   OH214201   3.578   2.427   3.346
 4753TIP3    H114202   3.585   2.516   3.379
 4753TIP3    H214203   3.614   2.432   3.257
 4754TIP3   OH214204   5.597   3.258   3.233
 4754TIP3    H114205   5.523   3.319   3.227
 4754TIP3    H214206   5.563   3.176   3.198
 4755TIP3   OH214207   7.875   0.079   1.138
 4755TIP3    H114208   7.832   0.024   1.072
 4755TIP3    H214209   7.925   0.143   1.087
 4756TIP3   OH214210   0.287   5.623   3.298
 4756TIP3    H114211   0.340   5.590   3.225
 4756TIP3    H214212   0.351   5.649   3.364
 4757TIP3   OH214213   3.207   4.044   3.650
 4757TIP3    H114214   3.284   3.993   3.675
 4757TIP3    H214215   3.244   4.120   3.604
 4758TIP3   OH214216   2.427   2.718   6.293
 4758TIP3    H114217   2.522   2.707   6.294
 4758TIP3    H214218   2.408   2.774   6.368
 4759TIP3   OH214219   1.459   1.852   4.238
 4759TIP3    H114220   1.463   1.761   4.211
 4759TIP3    H214221   1.366   1.871   4.245
 4760TIP3   OH214222   0.279   5.930   3.115
 4760TIP3    H114223   0.335   5.915   3.191
 4760TIP3    H214224   0.254   6.022   3.121
 4761TIP3   OH214225   6.996   6.054   5.341
 4761TIP3    H114226   6.901   6.046   5.348
 4761TIP3    H214227   7.013   6.056   5.247
 4762TIP3   OH214228   7.486   5.801   5.406
 4762TIP3    H114229   7.437   5.872   5.365
 4762TIP3    H214230   7.445   5.788   5.491
 4763TIP3   OH214231   6.922   6.106   2.515
 4763TIP3    H114232   7.001   6.054   2.527
 4763TIP3    H214233   6.855   6.060   2.565
 4764TIP3   OH214234   1.937   7.293   1.500
 4764TIP3    H114235   1.925   7.266   1.408
 4764TIP3    H214236   1.866   7.248   1.547
 4765TIP3   OH214237   7.472   2.661   5.676
 4765TIP3    H114238   7.535   2.705   5.619
 4765TIP3    H214239   7.489   2.567   5.663
 4766TIP3   OH214240   3.477   2.009   3.956
 4766TIP3    H114241   3.461   1.916   3.942
 4766TIP3    H214242   3.458   2.049   3.871
 4767TIP3   OH214243   5.480   3.060   5.037
 4767TIP3    H114244   5.481   3.010   5.119
 4767TIP3    H214245   5.440   3.001   4.974
 4768TIP3   OH214246   4.532   5.873   2.522
 4768TIP3    H114247   4.546   5.949   2.578
 4768TIP3    H214248   4.476   5.815   2.574
 4769TIP3   OH214249   1.094   5.761   1.712
 4769TIP3    H114250   1.000   5.749   1.727
 4769TIP3    H214251   1.130   5.672   1.712
 4770TIP3   OH214252   1.850   1.676   5.341
 4770TIP3    H114253   1.798   1.627   5.276
 4770TIP3    H214254   1.892   1.608   5.393
 4771TIP3   OH214255   6.081   2.567   5.329
 4771TIP3    H114256   6.139   2.491   5.325
 4771TIP3    H214257   6.140   2.642   5.318
 4772TIP3   OH214258   5.541   7.772   5.543
 4772TIP3    H114259   5.524   7.862   5.570
 4772TIP3    H214260   5.457   7.728   5.552
 4773TIP3   OH214261   2.593   3.777   1.319
 4773TIP3    H114262   2.540   3.855   1.334
 4773TIP3    H214263   2.611   3.778   1.225
 4774TIP3   OH214264   4.000   4.100   3.874
 4774TIP3    H114265   4.055   4.060   3.807
 4774TIP3    H214266   4.055   4.168   3.914
 4775TIP3   OH214267   1.743   2.864   1.433
 4775TIP3    H114268   1.681   2.800   1.468
 4775TIP3    H214269   1.827   2.841   1.474
 4776TIP3   OH214270   2.668   2.007   4.421
 4776TIP3    H114271   2.649   1.994   4.514
 4776TIP3    H214272   2.753   1.966   4.408
 4777TIP3   OH214273   1.548   3.676   6.537
 4777TIP3    H114274   1.592   3.620   6.601
 4777TIP3    H214275   1.594   3.659   6.455
 4778TIP3   OH214276   2.095   7.611   1.513
 4778TIP3    H114277   2.184   7.592   1.540
 4778TIP3    H214278   2.047   7.531   1.530
 4779TIP3   OH214279   6.382   1.787   3.901
 4779TIP3    H114280   6.346   1.721   3.841
 4779TIP3    H214281   6.415   1.735   3.975
 4780TIP3   OH214282   7.517   3.653   4.599
 4780TIP3    H114283   7.430   3.682   4.625
 4780TIP3    H214284   7.576   3.699   4.658
 4781TIP3   OH214285   3.840   6.270   4.761
 4781TIP3    H114286   3.890   6.260   4.841
 4781TIP3    H214287   3.765   6.212   4.772
 4782TIP3   OH214288   6.385   7.196   3.195
 4782TIP3    H114289   6.414   7.163   3.281
 4782TIP3    H214290   6.292   7.173   3.191
 4783TIP3   OH214291   7.455   0.917   2.564
 4783TIP3    H114292   7.384   0.924   2.500
 4783TIP3    H214293   7.526   0.967   2.525
 4784TIP3   OH214294   6.271   0.333   4.125
 4784TIP3    H114295   6.282   0.255   4.070
 4784TIP3    H214296   6.343   0.329   4.187
 4785TIP3   OH214297   0.303   2.778   1.965
 4785TIP3    H114298   0.252   2.833   2.024
 4785TIP3    H214299   0.246   2.764   1.889
 4786TIP3   OH214300   7.786   7.092   2.051
 4786TIP3    H114301   7.717   7.158   2.046
 4786TIP3    H214302   7.760   7.025   1.988
 4787TIP3   OH214303   0.932   2.281   5.779
 4787TIP3    H114304   0.977   2.328   5.708
 4787TIP3    H214305   0.901   2.351   5.837
 4788TIP3   OH214306   5.974   3.812   6.812
 4788TIP3    H114307   5.977   3.840   6.720
 4788TIP3    H214308   5.979   3.716   6.808
 4789TIP3   OH214309   3.959   6.177   4.127
 4789TIP3    H114310   3.896   6.225   4.073
 4789TIP3    H214311   3.925   6.184   4.216
 4790TIP3   OH214312   6.497   2.061   0.223
 4790TIP3    H114313   6.579   2.111   0.226
 4790TIP3    H214314   6.429   2.128   0.214
 4791TIP3   OH214315   3.573   5.575   4.498
 4791TIP3    H114316   3.630   5.512   4.541
 4791TIP3    H214317   3.564   5.646   4.562
 4792TIP3   OH214318   7.201   0.637   6.255
 4792TIP3    H114319   7.273   0.592   6.298
 4792TIP3    H214320   7.243   0.694   6.190
 4793TIP3   OH214321   0.832   2.053   4.197
 4793TIP3    H114322   0.798   2.137   4.229
 4793TIP3    H214323   0.800   2.048   4.107
 4794TIP3   OH214324   6.005   4.017   3.470
 4794TIP3    H114325   6.044   4.057   3.393
 4794TIP3    H214326   5.926   3.973   3.437
 4795TIP3   OH214327   3.367   2.445   0.407
 4795TIP3    H114328   3.405   2.361   0.435
 4795TIP3    H214329   3.422   2.473   0.334
 4796TIP3   OH214330   7.786   4.329   5.475
 4796TIP3    H114331   7.864   4.288   5.512
 4796TIP3    H214332   7.752   4.265   5.413
 4797TIP3   OH214333   0.342   3.097   3.151
 4797TIP3    H114334   0.329   3.130   3.062
 4797TIP3    H214335   0.429   3.058   3.150
 4798TIP3   OH214336   4.444   6.767   1.483
 4798TIP3    H114337   4.526   6.814   1.497
 4798TIP3    H214338   4.381   6.835   1.458
 4799TIP3   OH214339   2.555   5.360   0.391
 4799TIP3    H114340   2.633   5.314   0.360
 4799TIP3    H214341   2.484   5.322   0.339
 4800TIP3   OH214342   0.387   4.752   6.066
 4800TIP3    H114343   0.433   4.817   6.120
 4800TIP3    H214344   0.382   4.792   5.980
 4801TIP3   OH214345   3.251   5.448   2.525
 4801TIP3    H114346   3.211   5.468   2.440
 4801TIP3    H214347   3.345   5.448   2.507
 4802TIP3   OH214348   7.551   6.586   1.345
 4802TIP3    H114349   7.483   6.653   1.333
 4802TIP3    H214350   7.556   6.542   1.261
 4803TIP3   OH214351   1.280   2.800   0.643
 4803TIP3    H114352   1.356   2.741   0.634
 4803TIP3    H214353   1.252   2.789   0.734
 4804TIP3   OH214354   8.008   6.421   3.373
 4804TIP3    H114355   8.082   6.477   3.395
 4804TIP3    H214356   8.005   6.356   3.443
 4805TIP3   OH214357   7.794   1.964   0.524
 4805TIP3    H114358   7.718   1.993   0.475
 4805TIP3    H214359   7.814   2.036   0.584
 4806TIP3   OH214360   2.167   3.914   5.431
 4806TIP3    H114361   2.111   3.953   5.497
 4806TIP3    H214362   2.256   3.927   5.465
 4807TIP3   OH214363   3.304   5.334   4.686
 4807TIP3    H114364   3.217   5.307   4.714
 4807TIP3    H214365   3.304   5.429   4.694
 4808TIP3   OH214366   6.332   1.033   3.246
 4808TIP3    H114367   6.329   0.955   3.301
 4808TIP3    H214368   6.250   1.030   3.196
 4809TIP3   OH214369   8.209   0.854   1.140
 4809TIP3    H114370   8.204   0.761   1.120
 4809TIP3    H214371   8.271   0.861   1.213
 4810TIP3   OH214372   1.379   4.167   5.489
 4810TIP3    H114373   1.417   4.171   5.401
 4810TIP3    H214374   1.309   4.232   5.488
 4811TIP3   OH214375   2.865   4.783   4.021
 4811TIP3    H114376   2.880   4.870   3.985
 4811TIP3    H214377   2.777   4.786   4.057
 4812TIP3   OH214378   7.601   7.763   3.142
 4812TIP3    H114379   7.641   7.815   3.212
 4812TIP3    H214380   7.531   7.715   3.185
 4813TIP3   OH214381   3.535   5.301   3.911
 4813TIP3    H114382   3.578   5.220   3.940
 4813TIP3    H214383   3.552   5.363   3.982
 4814TIP3   OH214384   3.151   0.580   3.521
 4814TIP3    H114385   3.149   0.570   3.616
 4814TIP3    H214386   3.223   0.642   3.505
 4815TIP3   OH214387   3.031   3.118   0.329
 4815TIP3    H114388   2.939   3.142   0.329
 4815TIP3    H214389   3.063   3.146   0.415
 4816TIP3   OH214390   1.848   6.862   4.363
 4816TIP3    H114391   1.857   6.790   4.301
 4816TIP3    H214392   1.773   6.838   4.417
 4817TIP3   OH214393   5.554   6.048   2.647
 4817TIP3    H114394   5.645   6.074   2.636
 4817TIP3    H214395   5.522   6.102   2.719
 4818TIP3   OH214396   5.830   5.531   3.759
 4818TIP3    H114397   5.785   5.612   3.735
 4818TIP3    H214398   5.909   5.531   3.705
 4819TIP3   OH214399   6.769   4.823   5.124
 4819TIP3    H114400   6.817   4.886   5.177
 4819TIP3    H214401   6.791   4.846   5.033
 4820TIP3   OH214402   1.929   5.306   4.768
 4820TIP3    H114403   1.841   5.272   4.783
 4820TIP3    H214404   1.968   5.313   4.856
 4821TIP3   OH214405   2.421   4.360   6.212
 4821TIP3    H114406   2.448   4.429   6.272
 4821TIP3    H214407   2.327   4.372   6.201
 4822TIP3   OH214408   0.592   1.062   1.170
 4822TIP3    H114409   0.605   1.157   1.170
 4822TIP3    H214410   0.668   1.027   1.216
 4823TIP3   OH214411   6.914   7.169   2.418
 4823TIP3    H114412   6.854   7.235   2.384
 4823TIP3    H214413   6.862   7.089   2.421
 4824TIP3   OH214414   3.817   0.140   5.021
 4824TIP3    H114415   3.879   0.069   5.005
 4824TIP3    H214416   3.818   0.151   5.116
 4825TIP3   OH214417   7.003   5.151   0.561
 4825TIP3    H114418   6.927   5.135   0.618
 4825TIP3    H214419   7.056   5.214   0.610
 4826TIP3   OH214420   7.455   0.165   6.673
 4826TIP3    H114421   7.428   0.077   6.699
 4826TIP3    H214422   7.398   0.224   6.722
 4827TIP3   OH214423   4.765   0.816   3.813
 4827TIP3    H114424   4.782   0.739   3.759
 4827TIP3    H214425   4.759   0.888   3.751
 4828TIP3   OH214426   1.907   1.264   5.052
 4828TIP3    H114427   1.821   1.227   5.069
 4828TIP3    H214428   1.929   1.235   4.963
 4829TIP3   OH214429   4.201   5.988   2.792
 4829TIP3    H114430   4.228   5.996   2.701
 4829TIP3    H214431   4.131   6.053   2.802
 4830TIP3   OH214432   0.548   1.367   3.777
 4830TIP3    H114433   0.465   1.338   3.815
 4830TIP3    H214434   0.525   1.401   3.691
 4831TIP3   OH214435   1.853   1.110   5.913
 4831TIP3    H114436   1.907   1.051   5.860
 4831TIP3    H214437   1.810   1.052   5.976
 4832TIP3   OH214438   6.702   5.547   4.287
 4832TIP3    H114439   6.732   5.606   4.356
 4832TIP3    H214440   6.769   5.554   4.219
 4833TIP3   OH214441   6.474   2.532   0.771
 4833TIP3    H114442   6.515   2.480   0.703
 4833TIP3    H214443   6.452   2.615   0.728
 4834TIP3   OH214444   3.095   1.531   5.268
 4834TIP3    H114445   3.093   1.453   5.324
 4834TIP3    H214446   3.146   1.504   5.192
 4835TIP3   OH214447   4.445   0.539   3.986
 4835TIP3    H114448   4.505   0.480   3.940
 4835TIP3    H214449   4.499   0.582   4.052
 4836TIP3   OH214450   5.474   4.939   5.457
 4836TIP3    H114451   5.439   5.017   5.413
 4836TIP3    H214452   5.537   4.973   5.520
 4837TIP3   OH214453   2.829   5.619   3.624
 4837TIP3    H114454   2.878   5.543   3.590
 4837TIP3    H214455   2.784   5.654   3.548
 4838TIP3   OH214456   1.341   6.191   0.809
 4838TIP3    H114457   1.391   6.174   0.888
 4838TIP3    H214458   1.300   6.275   0.824
 4839TIP3   OH214459   5.138   7.728   0.234
 4839TIP3    H114460   5.192   7.667   0.283
 4839TIP3    H214461   5.134   7.692   0.145
 4840TIP3   OH214462   4.724   7.345   1.885
 4840TIP3    H114463   4.641   7.317   1.924
 4840TIP3    H214464   4.707   7.345   1.791
 4841TIP3   OH214465   0.403   2.929   5.123
 4841TIP3    H114466   0.333   2.933   5.188
 4841TIP3    H214467   0.469   2.870   5.162
 4842TIP3   OH214468   6.033   6.458   6.202
 4842TIP3    H114469   6.007   6.496   6.118
 4842TIP3    H214470   5.964   6.483   6.263
 4843TIP3   OH214471   3.334   6.656   1.497
 4843TIP3    H114472   3.324   6.719   1.569
 4843TIP3    H214473   3.316   6.707   1.418
 4844TIP3   OH214474   5.088   2.342   3.727
 4844TIP3    H114475   5.087   2.248   3.742
 4844TIP3    H214476   5.072   2.352   3.633
 4845TIP3   OH214477   2.183   5.191   3.173
 4845TIP3    H114478   2.191   5.096   3.178
 4845TIP3    H214479   2.155   5.208   3.083
 4846TIP3   OH214480   2.050   2.980   3.012
 4846TIP3    H114481   1.956   2.988   3.031
 4846TIP3    H214482   2.079   3.070   2.999
 4847TIP3   OH214483   6.185   2.443   0.685
 4847TIP3    H114484   6.153   2.355   0.708
 4847TIP3    H214485   6.216   2.479   0.768
 4848TIP3   OH214486   1.517   5.989   2.716
 4848TIP3    H114487   1.465   5.910   2.699
 4848TIP3    H214488   1.599   5.974   2.668
 4849TIP3   OH214489   1.091   4.794   2.672
 4849TIP3    H114490   1.179   4.816   2.700
 4849TIP3    H214491   1.067   4.863   2.610
 4850TIP3   OH214492   6.986   7.530   5.174
 4850TIP3    H114493   7.016   7.519   5.264
 4850TIP3    H214494   6.908   7.474   5.168
 4851TIP3   OH214495   5.361   3.562   0.040
 4851TIP3    H114496   5.444   3.528   0.008
 4851TIP3    H214497   5.380   3.653   0.063
 4852TIP3   OH214498   3.882   2.253   3.226
 4852TIP3    H114499   3.816   2.194   3.263
 4852TIP3    H214500   3.843   2.287   3.146
 4853TIP3   OH214501   5.585   6.687   3.669
 4853TIP3    H114502   5.521   6.638   3.722
 4853TIP3    H214503   5.642   6.619   3.633
 4854TIP3   OH214504   7.366   3.798   5.294
 4854TIP3    H114505   7.304   3.793   5.366
 4854TIP3    H214506   7.446   3.757   5.328
 4855TIP3   OH214507   6.182   7.116   0.197
 4855TIP3    H114508   6.250   7.054   0.225
 4855TIP3    H214509   6.210   7.200   0.232
 4856TIP3   OH214510   0.800   2.863   4.883
 4856TIP3    H114511   0.820   2.844   4.791
 4856TIP3    H214512   0.874   2.828   4.932
 4857TIP3   OH214513   6.332   4.489   3.825
 4857TIP3    H114514   6.351   4.422   3.890
 4857TIP3    H214515   6.368   4.570   3.861
 4858TIP3   OH214516   7.218   1.217   2.002
 4858TIP3    H114517   7.155   1.278   2.040
 4858TIP3    H214518   7.164   1.151   1.959
 4859TIP3   OH214519   2.770   4.252   0.171
 4859TIP3    H114520   2.729   4.166   0.184
 4859TIP3    H214521   2.861   4.232   0.149
 4860TIP3   OH214522   2.068   4.689   4.914
 4860TIP3    H114523   2.044   4.780   4.934
 4860TIP3    H214524   1.999   4.659   4.855
 4861TIP3   OH214525   6.838   4.355   0.661
 4861TIP3    H114526   6.846   4.280   0.602
 4861TIP3    H214527   6.744   4.366   0.674
 4862TIP3   OH214528   1.469   4.811   4.439
 4862TIP3    H114529   1.406   4.867   4.392
 4862TIP3    H214530   1.450   4.723   4.407
 4863TIP3   OH214531   6.480   5.998   6.741
 4863TIP3    H114532   6.503   6.088   6.718
 4863TIP3    H214533   6.514   5.986   6.830
 4864TIP3   OH214534   6.574   1.397   3.948
 4864TIP3    H114535   6.487   1.358   3.961
 4864TIP3    H214536   6.615   1.343   3.881
 4865TIP3   OH214537   3.820   6.215   0.020
 4865TIP3    H114538   3.834   6.211   0.115
 4865TIP3    H214539   3.738   6.168   0.006
 4866TIP3   OH214540   1.056   0.313   4.743
 4866TIP3    H114541   0.998   0.318   4.819
 4866TIP3    H214542   1.132   0.264   4.775
 4867TIP3   OH214543   2.632   4.954   5.537
 4867TIP3    H114544   2.642   4.888   5.606
 4867TIP3    H214545   2.713   4.949   5.487
 4868TIP3   OH214546   5.279   1.428   1.714
 4868TIP3    H114547   5.314   1.516   1.729
 4868TIP3    H214548   5.341   1.371   1.760
 4869TIP3   OH214549   0.367   0.177   4.036
 4869TIP3    H114550   0.366   0.261   4.081
 4869TIP3    H214551   0.314   0.191   3.957
 4870TIP3   OH214552   1.740   1.892   3.391
 4870TIP3    H114553   1.829   1.912   3.363
 4870TIP3    H214554   1.741   1.797   3.406
 4871TIP3   OH214555   4.642   4.243   4.148
 4871TIP3    H114556   4.589   4.253   4.069
 4871TIP3    H214557   4.681   4.156   4.140
 4872TIP3   OH214558   4.812   3.968   6.307
 4872TIP3    H114559   4.906   3.984   6.304
 4872TIP3    H214560   4.777   4.011   6.229
 4873TIP3   OH214561   5.274   6.308   6.475
 4873TIP3    H114562   5.323   6.328   6.395
 4873TIP3    H214563   5.186   6.341   6.458
 4874TIP3   OH214564   8.120   1.153   5.696
 4874TIP3    H114565   8.133   1.167   5.790
 4874TIP3    H214566   8.028   1.130   5.687
 4875TIP3   OH214567   7.707   3.929   6.204
 4875TIP3    H114568   7.684   3.970   6.121
 4875TIP3    H214569   7.803   3.919   6.200
 4876TIP3   OH214570   1.162   0.430   6.371
 4876TIP3    H114571   1.147   0.522   6.350
 4876TIP3    H214572   1.105   0.381   6.311
 4877TIP3   OH214573   7.953   0.723   6.504
 4877TIP3    H114574   8.019   0.732   6.573
 4877TIP3    H214575   8.002   0.695   6.427
 4878TIP3   OH214576   5.449   6.313   2.900
 4878TIP3    H114577   5.485   6.402   2.897
 4878TIP3    H214578   5.355   6.325   2.888
 4879TIP3   OH214579   6.588   5.015   2.700
 4879TIP3    H114580   6.611   4.961   2.777
 4879TIP3    H214581   6.662   5.075   2.691
 4880TIP3   OH214582   6.502   1.154   4.783
 4880TIP3    H114583   6.452   1.083   4.745
 4880TIP3    H214584   6.441   1.197   4.844
 4881TIP3   OH214585   3.625   1.978   4.899
 4881TIP3    H114586   3.553   1.917   4.881
 4881TIP3    H214587   3.589   2.039   4.963
 4882TIP3   OH214588   7.564   2.742   1.681
 4882TIP3    H114589   7.498   2.674   1.696
 4882TIP3    H214590   7.513   2.822   1.669
 4883TIP3   OH214591   5.342   2.389   5.684
 4883TIP3    H114592   5.381   2.433   5.760
 4883TIP3    H214593   5.252   2.372   5.710
 4884TIP3   OH214594   5.776   4.637   0.153
 4884TIP3    H114595   5.861   4.613   0.190
 4884TIP3    H214596   5.795   4.712   0.096
 4885TIP3   OH214597   3.557   2.842   5.444
 4885TIP3    H114598   3.534   2.769   5.502
 4885TIP3    H214599   3.570   2.916   5.504
 4886TIP3   OH214600   0.796   4.533   2.495
 4886TIP3    H114601   0.884   4.531   2.533
 4886TIP3    H214602   0.799   4.603   2.431
 4887TIP3   OH214603   3.320   6.809   2.558
 4887TIP3    H114604   3.320   6.903   2.576
 4887TIP3    H214605   3.343   6.802   2.466
 4888TIP3   OH214606   3.985   1.115   2.478
 4888TIP3    H114607   3.921   1.107   2.407
 4888TIP3    H214608   4.069   1.094   2.437
 4889TIP3   OH214609   1.644   5.222   4.891
 4889TIP3    H114610   1.619   5.135   4.921
 4889TIP3    H214611   1.596   5.283   4.947
 4890TIP3   OH214612   5.016   4.924   5.195
 4890TIP3    H114613   4.946   4.861   5.209
 4890TIP3    H214614   5.076   4.881   5.134
 4891TIP3   OH214615   6.467   4.456   1.226
 4891TIP3    H114616   6.519   4.399   1.283
 4891TIP3    H214617   6.477   4.417   1.139
 4892TIP3   OH214618   6.010   3.726   2.648
 4892TIP3    H114619   6.058   3.643   2.646
 4892TIP3    H214620   6.022   3.763   2.560
 4893TIP3   OH214621   6.077   6.966   5.457
 4893TIP3    H114622   6.144   7.016   5.504
 4893TIP3    H214623   6.124   6.927   5.383
 4894TIP3   OH214624   6.200   7.467   0.994
 4894TIP3    H114625   6.238   7.555   0.995
 4894TIP3    H214626   6.273   7.409   0.973
 4895TIP3   OH214627   0.207   5.536   4.878
 4895TIP3    H114628   0.223   5.615   4.930
 4895TIP3    H214629   0.114   5.540   4.857
 4896TIP3   OH214630   2.825   7.304   1.778
 4896TIP3    H114631   2.781   7.379   1.738
 4896TIP3    H214632   2.815   7.317   1.872
 4897TIP3   OH214633   2.539   3.175   5.534
 4897TIP3    H114634   2.557   3.118   5.609
 4897TIP3    H214635   2.492   3.250   5.572
 4898TIP3   OH214636   6.598   2.193   3.353
 4898TIP3    H114637   6.587   2.258   3.284
 4898TIP3    H214638   6.570   2.110   3.313
 4899TIP3   OH214639   0.130   6.257   0.516
 4899TIP3    H114640   0.096   6.204   0.587
 4899TIP3    H214641   0.122   6.202   0.438
 4900TIP3   OH214642   1.425   6.150   1.079
 4900TIP3    H114643   1.412   6.083   1.146
 4900TIP3    H214644   1.496   6.204   1.112
 4901TIP3   OH214645   7.434   4.061   5.494
 4901TIP3    H114646   7.433   4.156   5.508
 4901TIP3    H214647   7.343   4.039   5.475
 4902TIP3   OH214648   4.726   5.274   1.900
 4902TIP3    H114649   4.674   5.266   1.980
 4902TIP3    H214650   4.783   5.198   1.901
 4903TIP3   OH214651   0.905   6.530   1.346
 4903TIP3    H114652   0.877   6.439   1.348
 4903TIP3    H214653   0.889   6.562   1.435
 4904TIP3   OH214654   7.030   7.266   5.311
 4904TIP3    H114655   7.110   7.259   5.362
 4904TIP3    H214656   7.017   7.178   5.274
 4905TIP3   OH214657   6.417   6.360   2.454
 4905TIP3    H114658   6.451   6.450   2.459
 4905TIP3    H214659   6.343   6.366   2.394
 4906TIP3   OH214660   5.763   0.241   4.559
 4906TIP3    H114661   5.723   0.206   4.479
 4906TIP3    H214662   5.857   0.227   4.546
 4907TIP3   OH214663   1.526   0.541   0.817
 4907TIP3    H114664   1.501   0.617   0.764
 4907TIP3    H214665   1.576   0.578   0.890
 4908TIP3   OH214666   7.957   5.665   5.231
 4908TIP3    H114667   8.011   5.718   5.290
 4908TIP3    H214668   7.872   5.658   5.275
 4909TIP3   OH214669   2.182   1.585   6.288
 4909TIP3    H114670   2.176   1.568   6.194
 4909TIP3    H214671   2.103   1.547   6.325
 4910TIP3   OH214672   5.466   3.469   3.984
 4910TIP3    H114673   5.397   3.407   3.959
 4910TIP3    H214674   5.501   3.434   4.065
 4911TIP3   OH214675   2.420   6.732   3.669
 4911TIP3    H114676   2.342   6.688   3.702
 4911TIP3    H214677   2.386   6.809   3.622
 4912TIP3   OH214678   1.983   5.446   1.895
 4912TIP3    H114679   1.993   5.539   1.875
 4912TIP3    H214680   2.032   5.400   1.826
 4913TIP3   OH214681   7.220   7.225   6.496
 4913TIP3    H114682   7.252   7.146   6.451
 4913TIP3    H214683   7.127   7.207   6.512
 4914TIP3   OH214684   5.017   0.304   0.187
 4914TIP3    H114685   4.965   0.304   0.267
 4914TIP3    H214686   4.953   0.307   0.117
 4915TIP3   OH214687   7.237  -0.009   3.018
 4915TIP3    H114688   7.160   0.003   2.963
 4915TIP3    H214689   7.310  -0.015   2.956
 4916TIP3   OH214690   7.812   4.022   2.928
 4916TIP3    H114691   7.785   4.064   3.010
 4916TIP3    H214692   7.846   4.094   2.874
 4917TIP3   OH214693   4.281   4.221   0.390
 4917TIP3    H114694   4.314   4.268   0.467
 4917TIP3    H214695   4.195   4.260   0.374
 4918TIP3   OH214696   0.802   5.032   4.015
 4918TIP3    H114697   0.763   4.956   4.056
 4918TIP3    H214698   0.759   5.039   3.930
 4919TIP3   OH214699   4.851   2.361   4.318
 4919TIP3    H114700   4.861   2.449   4.355
 4919TIP3    H214701   4.756   2.350   4.309
 4920TIP3   OH214702   3.730   1.116   5.893
 4920TIP3    H114703   3.641   1.095   5.863
 4920TIP3    H214704   3.750   1.049   5.958
 4921TIP3   OH214705   3.457   4.754   4.947
 4921TIP3    H114706   3.465   4.686   5.013
 4921TIP3    H214707   3.397   4.717   4.882
 4922TIP3   OH214708   1.091   7.634   0.013
 4922TIP3    H114709   1.076   7.564   0.076
 4922TIP3    H214710   1.107   7.712   0.067
 4923TIP3   OH214711   1.733   6.434   1.430
 4923TIP3    H114712   1.740   6.411   1.337
 4923TIP3    H214713   1.753   6.352   1.476
 4924TIP3   OH214714   3.138   1.386   3.964
 4924TIP3    H114715   3.130   1.293   3.943
 4924TIP3    H214716   3.221   1.392   4.012
 4925TIP3   OH214717   7.384   1.791   4.508
 4925TIP3    H114718   7.314   1.814   4.569
 4925TIP3    H214719   7.455   1.851   4.529
 4926TIP3   OH214720   4.962   7.802   5.102
 4926TIP3    H114721   5.052   7.770   5.105
 4926TIP3    H214722   4.951   7.834   5.012
 4927TIP3   OH214723   2.657   0.213   6.330
 4927TIP3    H114724   2.703   0.285   6.287
 4927TIP3    H214725   2.583   0.256   6.375
 4928TIP3   OH214726   4.261   5.731   1.246
 4928TIP3    H114727   4.183   5.694   1.204
 4928TIP3    H214728   4.311   5.656   1.277
 4929TIP3   OH214729   3.826   1.943   3.855
 4929TIP3    H114730   3.767   2.000   3.904
 4929TIP3    H214731   3.863   1.885   3.920
 4930TIP3   OH214732   4.447   7.453   4.404
 4930TIP3    H114733   4.363   7.438   4.359
 4930TIP3    H214734   4.431   7.531   4.457
 4931TIP3   OH214735   4.559   6.034   2.720
 4931TIP3    H114736   4.564   5.982   2.800
 4931TIP3    H214737   4.495   6.102   2.739
 4932TIP3   OH214738   7.454   6.548   2.250
 4932TIP3    H114739   7.538   6.577   2.284
 4932TIP3    H214740   7.433   6.469   2.301
 4933TIP3   OH214741   0.433   2.666   4.722
 4933TIP3    H114742   0.486   2.735   4.683
 4933TIP3    H214743   0.352   2.666   4.671
 4934TIP3   OH214744   0.399   1.833   1.493
 4934TIP3    H114745   0.370   1.924   1.506
 4934TIP3    H214746   0.477   1.841   1.437
 4935TIP3   OH214747   3.299   5.727   0.692
 4935TIP3    H114748   3.249   5.780   0.755
 4935TIP3    H214749   3.234   5.692   0.632
 4936TIP3   OH214750   7.248   1.250   4.319
 4936TIP3    H114751   7.214   1.338   4.337
 4936TIP3    H214752   7.330   1.246   4.369
 4937TIP3   OH214753   5.054   4.287   5.903
 4937TIP3    H114754   4.962   4.280   5.877
 4937TIP3    H214755   5.099   4.223   5.847
 4938TIP3   OH214756   5.108   2.136   0.748
 4938TIP3    H114757   5.149   2.063   0.700
 4938TIP3    H214758   5.031   2.158   0.695
 4939TIP3   OH214759   0.627   4.479   4.289
 4939TIP3    H114760   0.676   4.457   4.210
 4939TIP3    H214761   0.562   4.543   4.260
 4940TIP3   OH214762   7.624   1.625   2.662
 4940TIP3    H114763   7.678   1.636   2.584
 4940TIP3    H214764   7.537   1.654   2.634
 4941TIP3   OH214765   7.129   5.560   1.001
 4941TIP3    H114766   7.121   5.653   0.980
 4941TIP3    H214767   7.060   5.545   1.066
 4942TIP3   OH214768   2.609   4.679   0.919
 4942TIP3    H114769   2.644   4.752   0.971
 4942TIP3    H214770   2.526   4.658   0.961
 4943TIP3   OH214771   4.295   5.455   1.342
 4943TIP3    H114772   4.204   5.480   1.325
 4943TIP3    H214773   4.294   5.359   1.337
 4944TIP3   OH214774   1.338   3.854   1.573
 4944TIP3    H114775   1.251   3.828   1.541
 4944TIP3    H214776   1.396   3.844   1.498
 4945TIP3   OH214777   5.195   0.504   5.425
 4945TIP3    H114778   5.182   0.582   5.479
 4945TIP3    H214779   5.290   0.488   5.428
 4946TIP3   OH214780   0.642   1.114   5.375
 4946TIP3    H114781   0.550   1.127   5.352
 4946TIP3    H214782   0.667   1.035   5.327
 4947TIP3   OH214783   0.864   5.452   4.485
 4947TIP3    H114784   0.787   5.430   4.433
 4947TIP3    H214785   0.843   5.538   4.523
 4948TIP3   OH214786   3.432   2.527   0.088
 4948TIP3    H114787   3.360   2.494   0.035
 4948TIP3    H214788   3.451   2.614   0.052
 4949TIP3   OH214789   1.631   4.879   1.114
 4949TIP3    H114790   1.642   4.837   1.200
 4949TIP3    H214791   1.562   4.945   1.129
 4950TIP3   OH214792   3.253   7.704   3.612
 4950TIP3    H114793   3.253   7.609   3.612
 4950TIP3    H214794   3.317   7.728   3.545
 4951TIP3   OH214795   3.095   1.097   6.156
 4951TIP3    H114796   3.107   1.014   6.109
 4951TIP3    H214797   3.183   1.133   6.163
 4952TIP3   OH214798   3.501   3.418   3.310
 4952TIP3    H114799   3.585   3.437   3.352
 4952TIP3    H214800   3.472   3.338   3.352
 4953TIP3   OH214801   7.908   2.775   3.260
 4953TIP3    H114802   7.899   2.870   3.266
 4953TIP3    H214803   7.866   2.742   3.340
 4954TIP3   OH214804   5.871   5.227   5.705
 4954TIP3    H114805   5.922   5.306   5.722
 4954TIP3    H214806   5.856   5.227   5.611
 4955TIP3   OH214807   7.019   7.818   5.302
 4955TIP3    H114808   7.062   7.735   5.282
 4955TIP3    H214809   7.071   7.857   5.372
 4956TIP3   OH214810   3.397   0.301   4.929
 4956TIP3    H114811   3.306   0.283   4.909
 4956TIP3    H214812   3.406   0.280   5.022
 4957TIP3   OH214813   5.480   5.751   1.155
 4957TIP3    H114814   5.564   5.791   1.133
 4957TIP3    H214815   5.461   5.694   1.081
 4958TIP3   OH214816   0.719   6.899   3.893
 4958TIP3    H114817   0.777   6.878   3.820
 4958TIP3    H214818   0.632   6.904   3.854
 4959TIP3   OH214819   3.383   2.066   2.876
 4959TIP3    H114820   3.304   2.030   2.916
 4959TIP3    H214821   3.450   2.060   2.945
 4960TIP3   OH214822   6.693   7.709   6.110
 4960TIP3    H114823   6.611   7.751   6.087
 4960TIP3    H214824   6.700   7.635   6.050
 4961TIP3   OH214825   3.622   6.837   2.026
 4961TIP3    H114826   3.588   6.924   2.047
 4961TIP3    H214827   3.544   6.781   2.025
 4962TIP3   OH214828   3.821   6.542   1.104
 4962TIP3    H114829   3.905   6.495   1.099
 4962TIP3    H214830   3.766   6.500   1.038
 4963TIP3   OH214831   4.033   5.210   2.639
 4963TIP3    H114832   4.064   5.186   2.552
 4963TIP3    H214833   4.089   5.160   2.699
 4964TIP3   OH214834   6.358   1.343   4.548
 4964TIP3    H114835   6.326   1.334   4.638
 4964TIP3    H214836   6.290   1.304   4.494
 4965TIP3   OH214837   5.798   2.401   4.146
 4965TIP3    H114838   5.821   2.308   4.138
 4965TIP3    H214839   5.708   2.400   4.179
 4966TIP3   OH214840   0.816   5.744   6.647
 4966TIP3    H114841   0.759   5.759   6.571
 4966TIP3    H214842   0.798   5.818   6.705
 4967TIP3   OH214843   2.249   0.943   1.290
 4967TIP3    H114844   2.256   1.015   1.227
 4967TIP3    H214845   2.196   0.979   1.361
 4968TIP3   OH214846   2.465   7.203   0.198
 4968TIP3    H114847   2.540   7.196   0.140
 4968TIP3    H214848   2.489   7.153   0.276
 4969TIP3   OH214849   1.118   4.469   1.164
 4969TIP3    H114850   1.183   4.537   1.148
 4969TIP3    H214851   1.049   4.487   1.101
 4970TIP3   OH214852   0.726   5.297   0.751
 4970TIP3    H114853   0.726   5.229   0.818
 4970TIP3    H214854   0.668   5.263   0.683
 4971TIP3   OH214855   5.509   4.977   3.620
 4971TIP3    H114856   5.585   5.020   3.581
 4971TIP3    H214857   5.545   4.917   3.686
 4972TIP3   OH214858   3.515   0.368   1.065
 4972TIP3    H114859   3.561   0.440   1.107
 4972TIP3    H214860   3.461   0.330   1.134
 4973TIP3   OH214861   3.205   3.982   5.860
 4973TIP3    H114862   3.264   3.980   5.935
 4973TIP3    H214863   3.177   4.073   5.853
 4974TIP3   OH214864   0.102   2.946   2.144
 4974TIP3    H114865   0.161   2.948   2.220
 4974TIP3    H214866   0.066   3.034   2.139
 4975TIP3   OH214867   3.909   3.128   6.149
 4975TIP3    H114868   3.969   3.177   6.092
 4975TIP3    H214869   3.878   3.193   6.212
 4976TIP3   OH214870   1.267   1.934   0.687
 4976TIP3    H114871   1.315   2.016   0.675
 4976TIP3    H214872   1.177   1.962   0.704
 4977TIP3   OH214873   4.531   4.954   2.932
 4977TIP3    H114874   4.559   4.942   2.841
 4977TIP3    H214875   4.471   5.028   2.928
 4978TIP3   OH214876   2.208   0.752   3.821
 4978TIP3    H114877   2.185   0.761   3.914
 4978TIP3    H214878   2.274   0.819   3.806
 4979TIP3   OH214879   2.704   7.240   0.848
 4979TIP3    H114880   2.627   7.282   0.884
 4979TIP3    H214881   2.670   7.166   0.797
 4980TIP3   OH214882   0.559   6.544   4.093
 4980TIP3    H114883   0.595   6.457   4.110
 4980TIP3    H214884   0.535   6.542   4.000
 4981TIP3   OH214885   1.263   7.472   4.402
 4981TIP3    H114886   1.330   7.498   4.466
 4981TIP3    H214887   1.181   7.478   4.450
 4982TIP3   OH214888   5.765   6.442   5.511
 4982TIP3    H114889   5.841   6.481   5.554
 4982TIP3    H214890   5.773   6.469   5.419
 4983TIP3   OH214891   2.499   3.186   4.297
 4983TIP3    H114892   2.594   3.190   4.312
 4983TIP3    H214893   2.465   3.136   4.371
 4984TIP3   OH214894   4.826   0.607   5.619
 4984TIP3    H114895   4.748   0.661   5.610
 4984TIP3    H214896   4.794   0.523   5.650
 4985TIP3   OH214897   5.861   2.340   4.811
 4985TIP3    H114898   5.777   2.345   4.764
 4985TIP3    H214899   5.910   2.273   4.764
 4986TIP3   OH214900   7.932   1.672   6.244
 4986TIP3    H114901   7.973   1.631   6.319
 4986TIP3    H214902   7.872   1.737   6.281
 4987TIP3   OH214903   4.292   3.737  -0.003
 4987TIP3    H114904   4.323   3.827  -0.011
 4987TIP3    H214905   4.264   3.729   0.088
 4988TIP3   OH214906   0.744   5.491  -0.027
 4988TIP3    H114907   0.771   5.502   0.064
 4988TIP3    H214908   0.775   5.403  -0.050
 4989TIP3   OH214909   4.704   5.006   3.987
 4989TIP3    H114910   4.780   4.967   3.944
 4989TIP3    H214911   4.734   5.092   4.015
 4990TIP3   OH214912   2.364   2.738   2.687
 4990TIP3    H114913   2.290   2.772   2.737
 4990TIP3    H214914   2.427   2.810   2.684
 4991TIP3   OH214915   3.929   6.061   2.315
 4991TIP3    H114916   4.020   6.032   2.307
 4991TIP3    H214917   3.911   6.107   2.233
 4992TIP3   OH214918   6.379   7.278   5.407
 4992TIP3    H114919   6.320   7.243   5.473
 4992TIP3    H214920   6.424   7.202   5.371
 4993TIP3   OH214921   3.053   2.211   0.392
 4993TIP3    H114922   2.984   2.147   0.376
 4993TIP3    H214923   3.127   2.181   0.339
 4994TIP3   OH214924   1.933   7.424   4.099
 4994TIP3    H114925   1.930   7.414   4.004
 4994TIP3    H214926   1.855   7.378   4.130
 4995TIP3   OH214927   6.435   7.383   0.105
 4995TIP3    H114928   6.466   7.293   0.114
 4995TIP3    H214929   6.358   7.388   0.161
 4996TIP3   OH214930   1.922   0.710   5.027
 4996TIP3    H114931   1.969   0.630   5.049
 4996TIP3    H214932   1.869   0.687   4.951
 4997TIP3   OH214933   3.435   6.008   0.299
 4997TIP3    H114934   3.524   5.975   0.311
 4997TIP3    H214935   3.445   6.097   0.266
 4998TIP3   OH214936   0.295   3.462   2.864
 4998TIP3    H114937   0.200   3.474   2.868
 4998TIP3    H214938   0.326   3.484   2.952
 4999TIP3   OH214939   6.033   5.034   2.004
 4999TIP3    H114940   5.960   5.046   2.064
 4999TIP3    H214941   5.999   4.975   1.936
 5000TIP3   OH214942   3.918   4.038   4.365
 5000TIP3    H114943   3.881   4.021   4.451
 5000TIP3    H214944   3.922   4.133   4.358
 5001TIP3   OH214945   4.088   3.601   1.207
 5001TIP3    H114946   4.046   3.633   1.127
 5001TIP3    H214947   4.150   3.535   1.177
 5002TIP3   OH214948   2.047   6.552   2.842
 5002TIP3    H114949   2.135   6.591   2.834
 5002TIP3    H214950   2.000   6.584   2.765
 5003TIP3   OH214951   5.790   6.278   5.088
 5003TIP3    H114952   5.874   6.256   5.049
 5003TIP3    H214953   5.749   6.338   5.025
 5004TIP3   OH214954   7.173   2.140   4.424
 5004TIP3    H114955   7.162   2.055   4.382
 5004TIP3    H214956   7.211   2.195   4.355
 5005TIP3   OH214957   1.455   7.387   0.275
 5005TIP3    H114958   1.550   7.375   0.274
 5005TIP3    H214959   1.424   7.329   0.345
 5006TIP3   OH214960   6.291   5.838   5.462
 5006TIP3    H114961   6.211   5.883   5.489
 5006TIP3    H214962   6.361   5.884   5.509
 5007TIP3   OH214963   0.087   4.780   2.344
 5007TIP3    H114964   0.098   4.874   2.355
 5007TIP3    H214965   0.106   4.744   2.431
 5008TIP3   OH214966   0.004   0.252   5.338
 5008TIP3    H114967   0.063   0.183   5.367
 5008TIP3    H214968   0.049   0.333   5.359
 5009TIP3   OH214969   6.457   5.923   3.012
 5009TIP3    H114970   6.477   5.878   3.095
 5009TIP3    H214971   6.409   6.002   3.039
 5010TIP3   OH214972   7.180   0.417   3.201
 5010TIP3    H114973   7.135   0.475   3.262
 5010TIP3    H214974   7.142   0.438   3.116
 5011TIP3   OH214975   3.955   5.720   0.800
 5011TIP3    H114976   4.019   5.791   0.801
 5011TIP3    H214977   3.996   5.650   0.850
 5012TIP3   OH214978   2.889   4.298   6.714
 5012TIP3    H114979   2.914   4.267   6.800
 5012TIP3    H214980   2.835   4.375   6.731
 5013TIP3   OH214981   1.679   6.414   5.298
 5013TIP3    H114982   1.702   6.324   5.318
 5013TIP3    H214983   1.756   6.465   5.324
 5014TIP3   OH214984   7.559   0.958   6.225
 5014TIP3    H114985   7.653   0.963   6.239
 5014TIP3    H214986   7.545   1.000   6.140
 5015TIP3   OH214987   5.444   3.739   3.889
 5015TIP3    H114988   5.442   3.657   3.938
 5015TIP3    H214989   5.370   3.734   3.829
 5016TIP3   OH214990   4.054   1.033   0.046
 5016TIP3    H114991   3.998   0.996  -0.022
 5016TIP3    H214992   4.003   1.021   0.127
 5017TIP3   OH214993   0.875   6.584   3.041
 5017TIP3    H114994   0.969   6.574   3.054
 5017TIP3    H214995   0.848   6.506   2.994
 5018TIP3   OH214996   6.761   6.985   6.832
 5018TIP3    H114997   6.798   7.035   6.905
 5018TIP3    H214998   6.811   6.904   6.831
 5019TIP3   OH214999   7.145   4.042   5.979
 5019TIP3    H115000   7.148   4.104   6.052
 5019TIP3    H215001   7.139   3.956   6.021
 5020TIP3   OH215002   3.324   6.103   4.493
 5020TIP3    H115003   3.291   6.180   4.447
 5020TIP3    H215004   3.419   6.114   4.493
 5021TIP3   OH215005   1.588   7.660   5.445
 5021TIP3    H115006   1.554   7.621   5.364
 5021TIP3    H215007   1.621   7.586   5.496
 5022TIP3   OH215008   1.085   6.093   3.148
 5022TIP3    H115009   0.992   6.116   3.138
 5022TIP3    H215010   1.087   6.033   3.222
 5023TIP3   OH215011   6.213   0.450   3.148
 5023TIP3    H115012   6.229   0.529   3.095
 5023TIP3    H215013   6.119   0.450   3.163
 5024TIP3   OH215014   1.037   4.295   6.444
 5024TIP3    H115015   0.963   4.275   6.387
 5024TIP3    H215016   1.000   4.294   6.532
 5025TIP3   OH215017   6.659   4.269   3.662
 5025TIP3    H115018   6.730   4.269   3.727
 5025TIP3    H215019   6.697   4.314   3.586
 5026TIP3   OH215020   0.993   6.496   1.945
 5026TIP3    H115021   1.003   6.591   1.946
 5026TIP3    H215022   1.075   6.462   1.980
 5027TIP3   OH215023   0.209   4.961   5.042
 5027TIP3    H115024   0.223   4.979   4.949
 5027TIP3    H215025   0.174   5.042   5.078
 5028TIP3   OH215026   6.953   6.658   4.424
 5028TIP3    H115027   6.875   6.696   4.463
 5028TIP3    H215028   6.923   6.620   4.342
 5029TIP3   OH215029   5.663   3.346   2.934
 5029TIP3    H115030   5.685   3.325   3.024
 5029TIP3    H215031   5.731   3.304   2.881
 5030TIP3   OH215032   7.328   4.256   5.128
 5030TIP3    H115033   7.241   4.281   5.158
 5030TIP3    H215034   7.359   4.330   5.077
 5031TIP3   OH215035   3.838   2.345   4.458
 5031TIP3    H115036   3.764   2.284   4.464
 5031TIP3    H215037   3.829   2.385   4.372
 5032TIP3   OH215038   3.667   0.862   3.089
 5032TIP3    H115039   3.657   0.957   3.094
 5032TIP3    H215040   3.759   0.849   3.062
 5033TIP3   OH215041   6.571   1.915   5.320
 5033TIP3    H115042   6.618   1.837   5.351
 5033TIP3    H215043   6.551   1.895   5.229
 5034TIP3   OH215044   1.109   6.549   3.321
 5034TIP3    H115045   1.190   6.600   3.317
 5034TIP3    H215046   1.041   6.608   3.286
 5035TIP3   OH215047   0.397   7.421   3.058
 5035TIP3    H115048   0.404   7.346   2.999
 5035TIP3    H215049   0.473   7.413   3.116
 5036TIP3   OH215050   0.815   5.464   3.066
 5036TIP3    H115051   0.815   5.407   3.144
 5036TIP3    H215052   0.882   5.427   3.009
 5037TIP3   OH215053   5.553   3.314   4.192
 5037TIP3    H115054   5.622   3.249   4.208
 5037TIP3    H215055   5.490   3.302   4.262
 5038TIP3   OH215056   1.887   3.422   4.522
 5038TIP3    H115057   1.951   3.371   4.473
 5038TIP3    H215058   1.875   3.502   4.470
 5039TIP3   OH215059   8.162   3.814   5.948
 5039TIP3    H115060   8.119   3.778   5.871
 5039TIP3    H215061   8.230   3.872   5.913
 5040TIP3   OH215062   3.581   7.262   2.538
 5040TIP3    H115063   3.555   7.300   2.622
 5040TIP3    H215064   3.580   7.336   2.477
 5041TIP3   OH215065   2.621   4.077   4.490
 5041TIP3    H115066   2.593   3.986   4.494
 5041TIP3    H215067   2.715   4.074   4.508
 5042TIP3   OH215068   3.488   7.380   4.348
 5042TIP3    H115069   3.536   7.300   4.327
 5042TIP3    H215070   3.433   7.357   4.422
 5043TIP3   OH215071   7.069   1.790   5.045
 5043TIP3    H115072   6.978   1.816   5.059
 5043TIP3    H215073   7.074   1.701   5.080
 5044TIP3   OH215074   2.735   4.225   4.776
 5044TIP3    H115075   2.803   4.203   4.712
 5044TIP3    H215076   2.654   4.227   4.725
 5045TIP3   OH215077   6.990   4.639   5.770
 5045TIP3    H115078   6.996   4.568   5.834
 5045TIP3    H215079   6.932   4.703   5.812
 5046TIP3   OH215080   1.569   4.181   4.939
 5046TIP3    H115081   1.625   4.258   4.935
 5046TIP3    H215082   1.535   4.170   4.851
 5047TIP3   OH215083   2.877   6.027   5.079
 5047TIP3    H115084   2.789   6.037   5.116
 5047TIP3    H215085   2.862   5.985   4.994
 5048TIP3   OH215086   3.892   6.222   2.103
 5048TIP3    H115087   3.847   6.204   2.021
 5048TIP3    H215088   3.977   6.258   2.078
 5049TIP3   OH215089   4.426   6.821   0.777
 5049TIP3    H115090   4.421   6.765   0.699
 5049TIP3    H215091   4.437   6.910   0.742
 5050TIP3   OH215092   4.083   5.661   1.610
 5050TIP3    H115093   4.018   5.723   1.641
 5050TIP3    H215094   4.092   5.597   1.681
 5051TIP3   OH215095   5.656   2.908   2.590
 5051TIP3    H115096   5.701   2.991   2.603
 5051TIP3    H215097   5.647   2.899   2.495
 5052TIP3   OH215098   1.721   4.533   1.203
 5052TIP3    H115099   1.629   4.511   1.218
 5052TIP3    H215100   1.724   4.562   1.111
 5053TIP3   OH215101   7.179   2.902   1.592
 5053TIP3    H115102   7.209   2.821   1.551
 5053TIP3    H215103   7.098   2.878   1.636
 5054TIP3   OH215104   7.552   5.625   1.930
 5054TIP3    H115105   7.542   5.678   2.009
 5054TIP3    H215106   7.631   5.574   1.945
 5055TIP3   OH215107   2.364   5.882   2.952
 5055TIP3    H115108   2.423   5.922   3.017
 5055TIP3    H215109   2.351   5.950   2.887
 5056TIP3   OH215110   2.843   0.916   5.108
 5056TIP3    H115111   2.844   0.922   5.203
 5056TIP3    H215112   2.935   0.902   5.085
 5057TIP3   OH215113   3.406   5.550   6.173
 5057TIP3    H115114   3.466   5.622   6.193
 5057TIP3    H215115   3.409   5.494   6.251
 5058TIP3   OH215116   1.097   7.032   2.008
 5058TIP3    H115117   1.174   6.978   2.029
 5058TIP3    H215118   1.126   7.085   1.934
 5059TIP3   OH215119   1.955   6.631   0.733
 5059TIP3    H115120   1.982   6.571   0.802
 5059TIP3    H215121   1.861   6.615   0.721
 5060TIP3   OH215122   2.842   2.930   1.608
 5060TIP3    H115123   2.755   2.969   1.609
 5060TIP3    H215124   2.862   2.911   1.699
 5061TIP3   OH215125   2.793   3.180   5.880
 5061TIP3    H115126   2.887   3.165   5.889
 5061TIP3    H215127   2.785   3.275   5.869
 5062TIP3   OH215128   7.165   7.096   3.544
 5062TIP3    H115129   7.128   7.021   3.592
 5062TIP3    H215130   7.253   7.067   3.518
 5063TIP3   OH215131   5.648   2.642   5.234
 5063TIP3    H115132   5.644   2.735   5.215
 5063TIP3    H215133   5.720   2.634   5.297
 5064TIP3   OH215134   2.003   7.189   3.363
 5064TIP3    H115135   2.054   7.264   3.334
 5064TIP3    H215136   1.938   7.226   3.424
 5065TIP3   OH215137   4.905   6.981   1.976
 5065TIP3    H115138   4.932   7.044   1.910
 5065TIP3    H215139   4.962   6.905   1.963
 5066TIP3   OH215140   6.032   6.568   2.006
 5066TIP3    H115141   6.046   6.663   2.003
 5066TIP3    H215142   6.106   6.532   1.956
 5067TIP3   OH215143   1.080   4.213   2.420
 5067TIP3    H115144   1.032   4.130   2.426
 5067TIP3    H215145   1.144   4.209   2.491
 5068TIP3   OH215146   2.539   2.410   4.880
 5068TIP3    H115147   2.496   2.449   4.804
 5068TIP3    H215148   2.528   2.316   4.868
 5069TIP3   OH215149   0.208   0.166   1.703
 5069TIP3    H115150   0.145   0.130   1.765
 5069TIP3    H215151   0.218   0.097   1.637
 5070TIP3   OH215152   5.199   6.660   2.807
 5070TIP3    H115153   5.231   6.664   2.897
 5070TIP3    H215154   5.265   6.705   2.756
 5071TIP3   OH215155   4.421   4.188   3.400
 5071TIP3    H115156   4.497   4.178   3.342
 5071TIP3    H215157   4.422   4.281   3.424
 5072TIP3   OH215158   3.186   7.420   1.236
 5072TIP3    H115159   3.150   7.334   1.259
 5072TIP3    H215160   3.184   7.422   1.140
 5073TIP3   OH215161   5.830   4.606   4.944
 5073TIP3    H115162   5.890   4.579   5.013
 5073TIP3    H215163   5.862   4.692   4.916
 5074TIP3   OH215164   5.513   4.666   0.506
 5074TIP3    H115165   5.522   4.745   0.454
 5074TIP3    H215166   5.546   4.596   0.449
 5075TIP3   OH215167   0.289   1.952   5.184
 5075TIP3    H115168   0.231   2.027   5.167
 5075TIP3    H215169   0.293   1.947   5.280
 5076TIP3   OH215170   3.365   3.254   5.562
 5076TIP3    H115171   3.441   3.313   5.557
 5076TIP3    H215172   3.295   3.309   5.598
 5077TIP3   OH215173   2.651   2.089   1.570
 5077TIP3    H115174   2.666   2.104   1.664
 5077TIP3    H215175   2.620   1.999   1.565
 5078TIP3   OH215176   7.083   0.184   1.374
 5078TIP3    H115177   6.995   0.152   1.354
 5078TIP3    H215178   7.141   0.117   1.337
 5079TIP3   OH215179   1.584   6.455   3.226
 5079TIP3    H115180   1.529   6.385   3.260
 5079TIP3    H215181   1.537   6.536   3.248
 5080TIP3   OH215182   1.003   1.074   2.807
 5080TIP3    H115183   0.961   0.998   2.768
 5080TIP3    H215184   0.938   1.110   2.868
 5081TIP3   OH215185   4.052   5.252   0.277
 5081TIP3    H115186   4.100   5.172   0.255
 5081TIP3    H215187   4.109   5.323   0.246
 5082TIP3   OH215188   4.157   2.132   1.101
 5082TIP3    H115189   4.080   2.088   1.137
 5082TIP3    H215190   4.125   2.174   1.021
 5083TIP3   OH215191   1.144   3.199   1.715
 5083TIP3    H115192   1.091   3.238   1.784
 5083TIP3    H215193   1.228   3.180   1.756
 5084TIP3   OH215194   1.078   4.836   5.832
 5084TIP3    H115195   1.045   4.812   5.919
 5084TIP3    H215196   1.003   4.876   5.789
 5085TIP3   OH215197   6.701   5.349   1.024
 5085TIP3    H115198   6.706   5.427   0.968
 5085TIP3    H215199   6.662   5.282   0.968
 5086TIP3   OH215200   8.039   7.690   5.717
 5086TIP3    H115201   8.126   7.649   5.725
 5086TIP3    H215202   8.004   7.690   5.806
 5087TIP3   OH215203   1.727   6.737   3.549
 5087TIP3    H115204   1.664   6.710   3.617
 5087TIP3    H215205   1.768   6.655   3.521
 5088TIP3   OH215206   6.334   0.821   1.900
 5088TIP3    H115207   6.248   0.816   1.942
 5088TIP3    H215208   6.339   0.911   1.867
 5089TIP3   OH215209   5.919   1.875   2.259
 5089TIP3    H115210   5.872   1.894   2.340
 5089TIP3    H215211   5.987   1.813   2.285
 5090TIP3   OH215212   2.465   4.843   4.762
 5090TIP3    H115213   2.430   4.787   4.831
 5090TIP3    H215214   2.391   4.858   4.702
 5091TIP3   OH215215   2.190   0.223   6.053
 5091TIP3    H115216   2.131   0.279   6.103
 5091TIP3    H215217   2.278   0.255   6.075
 5092TIP3   OH215218   2.151   1.920   6.386
 5092TIP3    H115219   2.111   1.879   6.309
 5092TIP3    H215220   2.233   1.872   6.399
 5093TIP3   OH215221   5.852   5.511   6.571
 5093TIP3    H115222   5.885   5.589   6.615
 5093TIP3    H215223   5.807   5.461   6.639
 5094TIP3   OH215224   1.187   1.463   3.534
 5094TIP3    H115225   1.120   1.531   3.528
 5094TIP3    H215226   1.140   1.387   3.569
 5095TIP3   OH215227   7.502   1.738   5.802
 5095TIP3    H115228   7.480   1.745   5.709
 5095TIP3    H215229   7.598   1.733   5.803
 5096TIP3   OH215230   0.285   5.461   3.014
 5096TIP3    H115231   0.359   5.402   3.002
 5096TIP3    H215232   0.313   5.544   2.977
 5097TIP3   OH215233   7.932   1.154   6.473
 5097TIP3    H115234   7.849   1.151   6.520
 5097TIP3    H215235   7.999   1.159   6.541
 5098TIP3   OH215236   3.875   0.372   0.395
 5098TIP3    H115237   3.966   0.400   0.401
 5098TIP3    H215238   3.837   0.392   0.480
 5099TIP3   OH215239   1.916   6.039   4.972
 5099TIP3    H115240   1.826   6.013   4.949
 5099TIP3    H215241   1.959   6.052   4.887
 5100TIP3   OH215242   5.855   0.745   0.585
 5100TIP3    H115243   5.824   0.825   0.629
 5100TIP3    H215244   5.949   0.757   0.577
 5101TIP3   OH215245   2.612   7.640   0.517
 5101TIP3    H115246   2.550   7.702   0.479
 5101TIP3    H215247   2.698   7.669   0.484
 5102TIP3   OH215248   1.859   0.644   6.161
 5102TIP3    H115249   1.843   0.603   6.076
 5102TIP3    H215250   1.864   0.570   6.222
 5103TIP3   OH215251   2.344   4.651   1.027
 5103TIP3    H115252   2.296   4.723   1.067
 5103TIP3    H215253   2.296   4.572   1.052
 5104TIP3   OH215254   7.992   6.070   5.483
 5104TIP3    H115255   7.919   6.044   5.539
 5104TIP3    H215256   7.972   6.160   5.458
 5105TIP3   OH215257   0.978   3.651   6.525
 5105TIP3    H115258   1.044   3.590   6.559
 5105TIP3    H215259   0.982   3.639   6.430
 5106TIP3   OH215260   0.659   4.752   1.491
 5106TIP3    H115261   0.741   4.744   1.539
 5106TIP3    H215262   0.591   4.737   1.557
 5107TIP3   OH215263   1.649   3.002   2.513
 5107TIP3    H115264   1.641   3.051   2.431
 5107TIP3    H215265   1.668   3.070   2.578
 5108TIP3   OH215266   6.055   7.353   5.064
 5108TIP3    H115267   5.971   7.354   5.019
 5108TIP3    H215268   6.034   7.331   5.155
 5109TIP3   OH215269   3.503   0.107   0.007
 5109TIP3    H115270   3.491   0.147  -0.079
 5109TIP3    H215271   3.426   0.135   0.057
 5110TIP3   OH215272   4.937   4.256   2.365
 5110TIP3    H115273   4.943   4.321   2.435
 5110TIP3    H215274   4.873   4.292   2.304
 5111TIP3   OH215275   7.471   4.738   1.908
 5111TIP3    H115276   7.448   4.822   1.868
 5111TIP3    H215277   7.436   4.743   1.997
 5112TIP3   OH215278   4.382   2.164   2.723
 5112TIP3    H115279   4.306   2.216   2.748
 5112TIP3    H215280   4.387   2.174   2.628
 5113TIP3   OH215281   7.604   4.395   1.592
 5113TIP3    H115282   7.620   4.371   1.501
 5113TIP3    H215283   7.577   4.486   1.589
 5114TIP3   OH215284   5.141   4.531   1.755
 5114TIP3    H115285   5.114   4.552   1.666
 5114TIP3    H215286   5.228   4.492   1.746
 5115TIP3   OH215287   4.131   7.444   0.351
 5115TIP3    H115288   4.219   7.440   0.389
 5115TIP3    H215289   4.138   7.511   0.283
 5116TIP3   OH215290   7.140   0.499   1.683
 5116TIP3    H115291   7.152   0.404   1.675
 5116TIP3    H215292   7.112   0.512   1.774
 5117TIP3   OH215293   6.126   2.896   2.703
 5117TIP3    H115294   6.198   2.868   2.647
 5117TIP3    H215295   6.075   2.956   2.648
 5118TIP3   OH215296   4.649   6.303   5.453
 5118TIP3    H115297   4.559   6.273   5.443
 5118TIP3    H215298   4.642   6.388   5.497
 5119TIP3   OH215299   4.306   7.410   1.542
 5119TIP3    H115300   4.250   7.464   1.487
 5119TIP3    H215301   4.250   7.386   1.616
 5120TIP3   OH215302   5.777   7.378   1.831
 5120TIP3    H115303   5.740   7.444   1.889
 5120TIP3    H215304   5.705   7.355   1.771
 5121TIP3   OH215305   0.135   3.063   4.637
 5121TIP3    H115306   0.194   3.001   4.681
 5121TIP3    H215307   0.125   3.135   4.700
 5122TIP3   OH215308   2.380   2.188   5.385
 5122TIP3    H115309   2.469   2.219   5.367
 5122TIP3    H215310   2.334   2.199   5.301
 5123TIP3   OH215311   6.026   1.734   1.509
 5123TIP3    H115312   6.121   1.728   1.502
 5123TIP3    H215313   6.009   1.827   1.525
 5124TIP3   OH215314   4.213   4.879   3.265
 5124TIP3    H115315   4.214   4.958   3.319
 5124TIP3    H215316   4.158   4.817   3.313
 5125TIP3   OH215317   1.073   5.062   6.185
 5125TIP3    H115318   1.084   4.968   6.171
 5125TIP3    H215319   1.124   5.081   6.264
 5126TIP3   OH215320   7.097   6.179   0.498
 5126TIP3    H115321   7.163   6.233   0.542
 5126TIP3    H215322   7.017   6.232   0.501
 5127TIP3   OH215323   0.865   4.346   1.698
 5127TIP3    H115324   0.780   4.381   1.673
 5127TIP3    H215325   0.910   4.419   1.739
 5128TIP3   OH215326   8.019   0.643   1.296
 5128TIP3    H115327   7.991   0.626   1.206
 5128TIP3    H215328   8.108   0.608   1.299
 5129TIP3   OH215329   1.544   2.961   2.193
 5129TIP3    H115330   1.635   2.932   2.181
 5129TIP3    H215331   1.497   2.882   2.218
 5130TIP3   OH215332   0.148   0.721   3.971
 5130TIP3    H115333   0.122   0.632   3.946
 5130TIP3    H215334   0.226   0.738   3.918
 5131TIP3   OH215335   6.486   4.319   2.869
 5131TIP3    H115336   6.572   4.358   2.883
 5131TIP3    H215337   6.441   4.330   2.953
 5132TIP3   OH215338   4.986   5.532   5.049
 5132TIP3    H115339   5.032   5.478   5.113
 5132TIP3    H215340   5.051   5.595   5.018
 5133TIP3   OH215341   2.721   0.617   1.277
 5133TIP3    H115342   2.741   0.565   1.199
 5133TIP3    H215343   2.807   0.644   1.311
 5134TIP3   OH215344   2.742   0.891   2.256
 5134TIP3    H115345   2.700   0.932   2.180
 5134TIP3    H215346   2.697   0.929   2.332
 5135TIP3   OH215347   2.842   1.124   3.689
 5135TIP3    H115348   2.926   1.120   3.643
 5135TIP3    H215349   2.787   1.061   3.642
 5136TIP3   OH215350   1.356   1.427   1.368
 5136TIP3    H115351   1.373   1.337   1.338
 5136TIP3    H215352   1.269   1.447   1.335
 5137TIP3   OH215353   7.495   4.675   5.143
 5137TIP3    H115354   7.566   4.696   5.083
 5137TIP3    H215355   7.507   4.734   5.217
 5138TIP3   OH215356   4.341   7.760   4.989
 5138TIP3    H115357   4.394   7.686   5.020
 5138TIP3    H215358   4.252   7.725   4.983
 5139TIP3   OH215359   3.901   1.947   1.567
 5139TIP3    H115360   3.819   1.997   1.568
 5139TIP3    H215361   3.957   1.992   1.629
 5140TIP3   OH215362   1.634   5.926   3.220
 5140TIP3    H115363   1.603   5.961   3.136
 5140TIP3    H215364   1.628   6.000   3.280
 5141TIP3   OH215365   4.392   0.974   0.965
 5141TIP3    H115366   4.469   0.925   0.995
 5141TIP3    H215367   4.322   0.909   0.964
 5142TIP3   OH215368   2.050   2.376   6.398
 5142TIP3    H115369   2.087   2.452   6.443
 5142TIP3    H215370   2.109   2.304   6.421
 5143TIP3   OH215371   1.473   3.771   4.305
 5143TIP3    H115372   1.421   3.710   4.358
 5143TIP3    H215373   1.562   3.762   4.337
 5144TIP3   OH215374   3.200   2.720   4.109
 5144TIP3    H115375   3.233   2.716   4.019
 5144TIP3    H215376   3.220   2.635   4.146
 5145TIP3   OH215377   5.991   2.864   5.529
 5145TIP3    H115378   5.935   2.847   5.605
 5145TIP3    H215379   5.974   2.955   5.506
 5146TIP3   OH215380   6.575   2.690   4.851
 5146TIP3    H115381   6.614   2.777   4.843
 5146TIP3    H215382   6.648   2.633   4.874
 5147TIP3   OH215383   3.227   2.271   5.975
 5147TIP3    H115384   3.245   2.305   6.062
 5147TIP3    H215385   3.154   2.324   5.943
 5148TIP3   OH215386   1.866   0.501   5.547
 5148TIP3    H115387   1.831   0.538   5.466
 5148TIP3    H215388   1.789   0.480   5.600
 5149TIP3   OH215389   2.112   6.416   0.436
 5149TIP3    H115390   2.125   6.506   0.465
 5149TIP3    H215391   2.188   6.397   0.380
 5150TIP3   OH215392   2.375   6.474   5.840
 5150TIP3    H115393   2.403   6.540   5.903
 5150TIP3    H215394   2.453   6.460   5.785
 5151TIP3   OH215395   0.342   2.529   6.679
 5151TIP3    H115396   0.418   2.472   6.672
 5151TIP3    H215397   0.347   2.585   6.601
 5152TIP3   OH215398   0.666   2.293   1.408
 5152TIP3    H115399   0.618   2.216   1.438
 5152TIP3    H215400   0.758   2.269   1.418
 5153TIP3   OH215401   4.682   6.247   3.928
 5153TIP3    H115402   4.588   6.239   3.913
 5153TIP3    H215403   4.716   6.158   3.912
 5154TIP3   OH215404   0.483   7.070   4.520
 5154TIP3    H115405   0.399   7.113   4.501
 5154TIP3    H215406   0.487   7.066   4.615
 5155TIP3   OH215407   3.110   4.756   1.828
 5155TIP3    H115408   3.128   4.740   1.736
 5155TIP3    H215409   3.137   4.847   1.842
 5156TIP3   OH215410   3.799   3.023   1.504
 5156TIP3    H115411   3.759   3.097   1.551
 5156TIP3    H215412   3.805   3.053   1.413
 5157TIP3   OH215413   8.071   6.377   2.291
 5157TIP3    H115414   8.138   6.379   2.222
 5157TIP3    H215415   8.102   6.311   2.353
 5158TIP3   OH215416   6.838   7.436   4.897
 5158TIP3    H115417   6.820   7.512   4.842
 5158TIP3    H215418   6.860   7.366   4.835
 5159TIP3   OH215419   6.031   1.626   3.249
 5159TIP3    H115420   6.059   1.536   3.234
 5159TIP3    H215421   6.063   1.647   3.336
 5160TIP3   OH215422   2.776   4.960   0.163
 5160TIP3    H115423   2.837   4.886   0.162
 5160TIP3    H215424   2.693   4.922   0.190
 5161TIP3   OH215425   6.975   7.077   1.113
 5161TIP3    H115426   6.923   7.024   1.054
 5161TIP3    H215427   6.936   7.164   1.108
 5162TIP3   OH215428   4.048   0.553   5.933
 5162TIP3    H115429   3.975   0.562   5.995
 5162TIP3    H215430   4.053   0.639   5.891
 5163TIP3   OH215431   4.298   1.741   4.961
 5163TIP3    H115432   4.375   1.798   4.970
 5163TIP3    H215433   4.310   1.698   4.876
 5164TIP3   OH215434   0.339   3.914   3.764
 5164TIP3    H115435   0.342   4.000   3.722
 5164TIP3    H215436   0.421   3.908   3.813
 5165TIP3   OH215437   5.364   7.461   4.002
 5165TIP3    H115438   5.435   7.436   4.061
 5165TIP3    H215439   5.407   7.475   3.917
 5166TIP3   OH215440   1.221   4.127   4.205
 5166TIP3    H115441   1.282   4.165   4.142
 5166TIP3    H215442   1.277   4.084   4.270
 5167TIP3   OH215443   2.744   2.424   0.148
 5167TIP3    H115444   2.719   2.516   0.135
 5167TIP3    H215445   2.725   2.407   0.240
 5168TIP3   OH215446   1.677   2.530   2.613
 5168TIP3    H115447   1.692   2.444   2.575
 5168TIP3    H215448   1.666   2.514   2.707
 5169TIP3   OH215449   3.125   2.647   1.393
 5169TIP3    H115450   3.042   2.601   1.379
 5169TIP3    H215451   3.103   2.740   1.386
 5170TIP3   OH215452   6.054   4.094   2.348
 5170TIP3    H115453   6.037   4.126   2.260
 5170TIP3    H215454   6.096   4.168   2.393
 5171TIP3   OH215455   1.035   1.724   2.648
 5171TIP3    H115456   1.064   1.798   2.701
 5171TIP3    H215457   0.976   1.762   2.583
 5172TIP3   OH215458   2.369   0.518   6.667
 5172TIP3    H115459   2.423   0.594   6.686
 5172TIP3    H215460   2.421   0.466   6.606
 5173TIP3   OH215461   6.358   6.308   2.849
 5173TIP3    H115462   6.330   6.288   2.938
 5173TIP3    H215463   6.416   6.383   2.858
 5174TIP3   OH215464   1.903   3.446   4.149
 5174TIP3    H115465   1.915   3.511   4.219
 5174TIP3    H215466   1.820   3.404   4.171
 5175TIP3   OH215467   7.861   2.496   0.259
 5175TIP3    H115468   7.853   2.547   0.178
 5175TIP3    H215469   7.805   2.420   0.244
 5176TIP3   OH215470   8.063   6.001   6.173
 5176TIP3    H115471   8.032   6.088   6.145
 5176TIP3    H215472   8.158   6.006   6.163
 5177TIP3   OH215473   4.676   7.028   4.175
 5177TIP3    H115474   4.635   6.966   4.235
 5177TIP3    H215475   4.607   7.092   4.155
 5178TIP3   OH215476   0.837   4.559   1.113
 5178TIP3    H115477   0.797   4.645   1.126
 5178TIP3    H215478   0.829   4.516   1.198
 5179TIP3   OH215479   5.316   5.952   1.777
 5179TIP3    H115480   5.344   5.865   1.747
 5179TIP3    H215481   5.223   5.956   1.754
 5180TIP3   OH215482   3.416   0.881   5.152
 5180TIP3    H115483   3.422   0.967   5.110
 5180TIP3    H215484   3.497   0.875   5.204
 5181TIP3   OH215485   5.423   5.170   5.307
 5181TIP3    H115486   5.499   5.151   5.252
 5181TIP3    H215487   5.374   5.236   5.258
 5182TIP3   OH215488   2.564   6.306   4.188
 5182TIP3    H115489   2.609   6.322   4.271
 5182TIP3    H215490   2.488   6.364   4.189
 5183TIP3   OH215491   5.152   3.056   6.106
 5183TIP3    H115492   5.218   2.990   6.126
 5183TIP3    H215493   5.069   3.009   6.110
 5184TIP3   OH215494   0.132   7.042   5.688
 5184TIP3    H115495   0.195   7.107   5.718
 5184TIP3    H215496   0.162   7.017   5.600
 5185TIP3   OH215497   5.989   3.542   6.033
 5185TIP3    H115498   6.000   3.487   6.111
 5185TIP3    H215499   6.072   3.534   5.986
 5186TIP3   OH215500   2.695   3.330   3.048
 5186TIP3    H115501   2.700   3.259   3.112
 5186TIP3    H215502   2.610   3.318   3.006
 5187TIP3   OH215503   3.740   3.694   1.060
 5187TIP3    H115504   3.685   3.688   1.139
 5187TIP3    H215505   3.680   3.724   0.992
 5188TIP3   OH215506   0.714   1.619   2.506
 5188TIP3    H115507   0.703   1.532   2.544
 5188TIP3    H215508   0.733   1.676   2.580
 5189TIP3   OH215509   4.913   1.209   6.266
 5189TIP3    H115510   4.865   1.214   6.349
 5189TIP3    H215511   4.972   1.284   6.267
 5190TIP3   OH215512   7.399   5.909   2.942
 5190TIP3    H115513   7.379   5.834   2.885
 5190TIP3    H215514   7.494   5.903   2.956
 5191TIP3   OH215515   6.168   4.003   0.034
 5191TIP3    H115516   6.108   3.953  -0.021
 5191TIP3    H215517   6.246   3.948   0.041
 5192TIP3   OH215518   3.704   4.876   2.646
 5192TIP3    H115519   3.777   4.836   2.691
 5192TIP3    H215520   3.720   4.859   2.553
 5193TIP3   OH215521   4.669   3.803   1.400
 5193TIP3    H115522   4.701   3.861   1.468
 5193TIP3    H215523   4.728   3.728   1.403
 5194TIP3   OH215524   8.089   1.005   2.015
 5194TIP3    H115525   8.063   0.935   2.074
 5194TIP3    H215526   8.099   1.082   2.071
 5195TIP3   OH215527   7.791   1.310   4.004
 5195TIP3    H115528   7.786   1.366   3.926
 5195TIP3    H215529   7.863   1.250   3.985
 5196TIP3   OH215530   7.734   2.951   1.010
 5196TIP3    H115531   7.676   3.000   0.952
 5196TIP3    H215532   7.720   2.990   1.096
 5197TIP3   OH215533   0.889   7.097   0.373
 5197TIP3    H115534   0.971   7.051   0.391
 5197TIP3    H215535   0.902   7.184   0.412
 5198TIP3   OH215536   3.517   6.020   0.776
 5198TIP3    H115537   3.450   6.010   0.843
 5198TIP3    H215538   3.511   6.112   0.749
 5199TIP3   OH215539   4.140   1.896   0.252
 5199TIP3    H115540   4.110   1.891   0.342
 5199TIP3    H215541   4.235   1.903   0.258
 5200TIP3   OH215542   2.442   5.887   4.264
 5200TIP3    H115543   2.505   5.950   4.229
 5200TIP3    H215544   2.358   5.914   4.227
 5201TIP3   OH215545   7.071   3.441   0.763
 5201TIP3    H115546   7.133   3.438   0.691
 5201TIP3    H215547   7.118   3.404   0.837
 5202TIP3   OH215548   5.632   6.151   3.219
 5202TIP3    H115549   5.634   6.059   3.194
 5202TIP3    H215550   5.569   6.191   3.158
 5203TIP3   OH215551   3.186   1.345   4.545
 5203TIP3    H115552   3.237   1.266   4.563
 5203TIP3    H215553   3.193   1.398   4.624
 5204TIP3   OH215554   6.501   7.761   1.206
 5204TIP3    H115555   6.571   7.703   1.175
 5204TIP3    H215556   6.420   7.714   1.186
 5205TIP3   OH215557   2.558   6.569   5.034
 5205TIP3    H115558   2.469   6.572   5.070
 5205TIP3    H215559   2.611   6.538   5.107
 5206TIP3   OH215560   4.286   2.896   5.680
 5206TIP3    H115561   4.224   2.857   5.618
 5206TIP3    H215562   4.265   2.855   5.764
 5207TIP3   OH215563   0.729   6.198   0.190
 5207TIP3    H115564   0.662   6.139   0.224
 5207TIP3    H215565   0.683   6.255   0.128
 5208TIP3   OH215566   3.103   5.594   5.482
 5208TIP3    H115567   3.083   5.658   5.413
 5208TIP3    H215568   3.019   5.551   5.499
 5209TIP3   OH215569   7.676   2.562   2.765
 5209TIP3    H115570   7.655   2.554   2.671
 5209TIP3    H215571   7.608   2.621   2.799
 5210TIP3   OH215572   2.974   5.086   0.399
 5210TIP3    H115573   2.989   4.997   0.431
 5210TIP3    H215574   2.971   5.140   0.478
 5211TIP3   OH215575   1.270   3.118   5.076
 5211TIP3    H115576   1.177   3.098   5.069
 5211TIP3    H215577   1.275   3.187   5.141
 5212TIP3   OH215578   6.645   6.360   4.836
 5212TIP3    H115579   6.726   6.403   4.862
 5212TIP3    H215580   6.664   6.267   4.840
 5213TIP3   OH215581   2.392   1.916   2.783
 5213TIP3    H115582   2.370   2.009   2.776
 5213TIP3    H215583   2.451   1.900   2.709
 5214TIP3   OH215584   1.107   2.312   2.821
 5214TIP3    H115585   1.162   2.349   2.890
 5214TIP3    H215586   1.085   2.224   2.853
 5215TIP3   OH215587   6.809   2.305   4.034
 5215TIP3    H115588   6.748   2.250   3.985
 5215TIP3    H215589   6.849   2.247   4.098
 5216TIP3   OH215590   5.976   1.825   5.473
 5216TIP3    H115591   6.038   1.787   5.535
 5216TIP3    H215592   5.920   1.752   5.447
 5217TIP3   OH215593   1.247   1.494   5.483
 5217TIP3    H115594   1.231   1.405   5.451
 5217TIP3    H215595   1.342   1.499   5.491
 5218TIP3   OH215596   3.401   5.432   1.640
 5218TIP3    H115597   3.479   5.455   1.590
 5218TIP3    H215598   3.357   5.515   1.656
 5219TIP3   OH215599   8.058   5.644   3.995
 5219TIP3    H115600   8.123   5.673   4.059
 5219TIP3    H215601   8.103   5.651   3.910
 5220TIP3   OH215602   6.802   1.874   3.659
 5220TIP3    H115603   6.860   1.814   3.706
 5220TIP3    H215604   6.734   1.817   3.623
 5221TIP3   OH215605   0.324   5.778   0.242
 5221TIP3    H115606   0.320   5.827   0.324
 5221TIP3    H215607   0.270   5.701   0.257
 5222TIP3   OH215608   7.516   5.087   3.469
 5222TIP3    H115609   7.575   5.105   3.396
 5222TIP3    H215610   7.476   5.172   3.490
 5223TIP3   OH215611   6.985   5.728   0.464
 5223TIP3    H115612   6.958   5.639   0.487
 5223TIP3    H215613   6.962   5.738   0.372
 5224TIP3   OH215614   3.827   2.484   0.702
 5224TIP3    H115615   3.892   2.489   0.771
 5224TIP3    H215616   3.875   2.504   0.622
 5225TIP3   OH215617   6.370   0.239   4.829
 5225TIP3    H115618   6.451   0.287   4.816
 5225TIP3    H215619   6.301   0.301   4.803
 5226TIP3   OH215620   7.509   0.853   3.511
 5226TIP3    H115621   7.428   0.816   3.547
 5226TIP3    H215622   7.499   0.947   3.521
 5227TIP3   OH215623   1.268   7.024   3.577
 5227TIP3    H115624   1.237   6.933   3.578
 5227TIP3    H215625   1.222   7.064   3.503
 5228TIP3   OH215626   3.886   1.368   1.177
 5228TIP3    H115627   3.812   1.388   1.234
 5228TIP3    H215628   3.888   1.440   1.114
 5229TIP3   OH215629   0.034   3.768   5.074
 5229TIP3    H115630   0.017   3.759   4.980
 5229TIP3    H215631  -0.051   3.788   5.112
 5230TIP3   OH215632   4.469   5.270   5.603
 5230TIP3    H115633   4.503   5.206   5.665
 5230TIP3    H215634   4.423   5.218   5.537
 5231TIP3   OH215635   5.897   3.716   4.954
 5231TIP3    H115636   5.828   3.678   4.901
 5231TIP3    H215637   5.858   3.796   4.991
 5232TIP3   OH215638   3.442   4.390   4.230
 5232TIP3    H115639   3.350   4.402   4.256
 5232TIP3    H215640   3.472   4.479   4.209
 5233TIP3   OH215641   0.274   1.271   4.973
 5233TIP3    H115642   0.190   1.275   5.018
 5233TIP3    H215643   0.315   1.191   5.004
 5234TIP3   OH215644   6.357   4.014   1.682
 5234TIP3    H115645   6.415   4.088   1.700
 5234TIP3    H215646   6.342   3.974   1.768
 5235TIP3   OH215647   0.791   0.285   5.215
 5235TIP3    H115648   0.786   0.197   5.179
 5235TIP3    H215649   0.738   0.339   5.155
 5236TIP3   OH215650   3.601   6.024   4.545
 5236TIP3    H115651   3.634   6.038   4.456
 5236TIP3    H215652   3.637   6.096   4.596
 5237TIP3   OH215653   1.075   4.994   3.887
 5237TIP3    H115654   1.040   4.941   3.958
 5237TIP3    H215655   1.034   5.080   3.898
 5238TIP3   OH215656   8.063   7.647   5.108
 5238TIP3    H115657   8.015   7.700   5.172
 5238TIP3    H215658   8.140   7.700   5.086
 5239TIP3   OH215659   4.164   5.097   2.131
 5239TIP3    H115660   4.122   5.125   2.050
 5239TIP3    H215661   4.195   5.009   2.112
 5240TIP3   OH215662   7.890   4.777   5.658
 5240TIP3    H115663   7.840   4.719   5.600
 5240TIP3    H215664   7.980   4.748   5.648
 5241TIP3   OH215665   4.611   2.439   5.485
 5241TIP3    H115666   4.577   2.455   5.396
 5241TIP3    H215667   4.606   2.344   5.496
 5242TIP3   OH215668   7.597   0.436   6.048
 5242TIP3    H115669   7.563   0.427   6.137
 5242TIP3    H215670   7.524   0.411   5.991
 5243TIP3   OH215671   0.107   6.949   1.899
 5243TIP3    H115672   0.098   6.882   1.966
 5243TIP3    H215673   0.160   7.017   1.941
 5244TIP3   OH215674   1.198   1.745   5.382
 5244TIP3    H115675   1.220   1.664   5.428
 5244TIP3    H215676   1.182   1.808   5.451
 5245TIP3   OH215677   3.865   4.354   0.953
 5245TIP3    H115678   3.782   4.364   1.000
 5245TIP3    H215679   3.932   4.375   1.019
 5246TIP3   OH215680   0.497   1.640   0.792
 5246TIP3    H115681   0.417   1.592   0.813
 5246TIP3    H215682   0.534   1.664   0.877
 5247TIP3   OH215683   2.606   3.706   5.005
 5247TIP3    H115684   2.609   3.718   5.100
 5247TIP3    H215685   2.684   3.751   4.972
 5248TIP3   OH215686   4.530   3.960   2.347
 5248TIP3    H115687   4.555   4.046   2.381
 5248TIP3    H215688   4.568   3.898   2.409
 5249TIP3   OH215689   0.039   1.534   2.502
 5249TIP3    H115690   0.126   1.510   2.468
 5249TIP3    H215691   0.012   1.608   2.448
 5250TIP3   OH215692   5.631   2.662   1.341
 5250TIP3    H115693   5.711   2.667   1.289
 5250TIP3    H215694   5.635   2.575   1.382
 5251TIP3   OH215695   7.590   6.608   4.885
 5251TIP3    H115696   7.615   6.680   4.943
 5251TIP3    H215697   7.639   6.533   4.917
 5252TIP3   OH215698   1.762   2.358   5.281
 5252TIP3    H115699   1.767   2.417   5.205
 5252TIP3    H215700   1.668   2.355   5.302
 5253TIP3   OH215701   3.077   5.236   3.369
 5253TIP3    H115702   3.070   5.142   3.387
 5253TIP3    H215703   3.114   5.241   3.281
 5254TIP3   OH215704   4.958   3.799   1.172
 5254TIP3    H115705   4.991   3.824   1.259
 5254TIP3    H215706   5.036   3.794   1.117
 5255TIP3   OH215707   7.289   5.388   2.013
 5255TIP3    H115708   7.204   5.356   1.983
 5255TIP3    H215709   7.269   5.438   2.093
 5256TIP3   OH215710   1.947  -0.037   5.144
 5256TIP3    H115711   1.925   0.046   5.188
 5256TIP3    H215712   1.862  -0.077   5.125
 5257TIP3   OH215713   4.879   4.595   6.089
 5257TIP3    H115714   4.831   4.517   6.119
 5257TIP3    H215715   4.966   4.587   6.128
 5258TIP3   OH215716   4.836   0.660   3.000
 5258TIP3    H115717   4.762   0.708   2.961
 5258TIP3    H215718   4.861   0.712   3.076
 5259TIP3   OH215719   1.444   2.251   5.506
 5259TIP3    H115720   1.363   2.267   5.457
 5259TIP3    H215721   1.500   2.203   5.446
 5260TIP3   OH215722   0.069   3.589   0.466
 5260TIP3    H115723   0.089   3.652   0.397
 5260TIP3    H215724  -0.013   3.548   0.438
 5261TIP3   OH215725   7.067   4.622   6.493
 5261TIP3    H115726   7.056   4.602   6.586
 5261TIP3    H215727   7.147   4.674   6.488
 5262TIP3   OH215728   6.508   2.732   2.604
 5262TIP3    H115729   6.465   2.654   2.569
 5262TIP3    H215730   6.565   2.698   2.673
 5263TIP3   OH215731   5.314   2.205   3.563
 5263TIP3    H115732   5.223   2.196   3.589
 5263TIP3    H215733   5.350   2.269   3.624
 5264TIP3   OH215734   1.158   2.645   2.510
 5264TIP3    H115735   1.153   2.652   2.415
 5264TIP3    H215736   1.251   2.630   2.528
 5265TIP3   OH215737   6.307   6.142   4.823
 5265TIP3    H115738   6.312   6.220   4.769
 5265TIP3    H215739   6.303   6.069   4.761
 5266TIP3   OH215740   3.518   0.669   4.758
 5266TIP3    H115741   3.505   0.611   4.833
 5266TIP3    H215742   3.468   0.628   4.687
 5267TIP3   OH215743   1.874   1.232   1.383
 5267TIP3    H115744   1.817   1.204   1.455
 5267TIP3    H215745   1.949   1.274   1.426
 5268TIP3   OH215746   5.023   4.601   0.181
 5268TIP3    H115747   5.111   4.616   0.216
 5268TIP3    H215748   5.032   4.617   0.087
 5269TIP3   OH215749   0.016   0.974   5.858
 5269TIP3    H115750   0.012   1.060   5.898
 5269TIP3    H215751   0.043   0.990   5.767
 5270TIP3   OH215752   7.716   0.492   0.125
 5270TIP3    H115753   7.632   0.530   0.149
 5270TIP3    H215754   7.781   0.559   0.148
 5271TIP3   OH215755   2.927   2.337   4.154
 5271TIP3    H115756   2.931   2.300   4.065
 5271TIP3    H215757   2.842   2.309   4.187
 5272TIP3   OH215758   1.209   7.128   4.173
 5272TIP3    H115759   1.145   7.151   4.241
 5272TIP3    H215760   1.165   7.063   4.120
 5273TIP3   OH215761   4.306   1.555   5.796
 5273TIP3    H115762   4.340   1.631   5.844
 5273TIP3    H215763   4.384   1.505   5.772
 5274TIP3   OH215764   1.192   4.173   1.651
 5274TIP3    H115765   1.271   4.120   1.652
 5274TIP3    H215766   1.178   4.195   1.559
 5275TIP3   OH215767   5.768   7.367   2.286
 5275TIP3    H115768   5.736   7.388   2.373
 5275TIP3    H215769   5.696   7.390   2.227
 5276TIP3   OH215770   4.794   1.830   6.726
 5276TIP3    H115771   4.718   1.885   6.745
 5276TIP3    H215772   4.851   1.886   6.672
 5277TIP3   OH215773   2.400   2.703   5.118
 5277TIP3    H115774   2.328   2.733   5.174
 5277TIP3    H215775   2.379   2.612   5.098
 5278TIP3   OH215776   4.886   5.076   1.937
 5278TIP3    H115777   4.839   4.999   1.969
 5278TIP3    H215778   4.978   5.058   1.959
 5279TIP3   OH215779   6.403   4.421   0.125
 5279TIP3    H115780   6.410   4.489   0.192
 5279TIP3    H215781   6.319   4.378   0.142
 5280TIP3   OH215782   5.465   5.370   2.331
 5280TIP3    H115783   5.372   5.374   2.351
 5280TIP3    H215784   5.498   5.456   2.356
 5281TIP3   OH215785   3.907   6.758   4.995
 5281TIP3    H115786   3.908   6.807   5.078
 5281TIP3    H215787   3.998   6.734   4.980
 5282TIP3   OH215788   1.556   2.791   6.571
 5282TIP3    H115789   1.619   2.720   6.582
 5282TIP3    H215790   1.604   2.870   6.597
 5283TIP3   OH215791   3.481   0.920   1.688
 5283TIP3    H115792   3.427   0.842   1.681
 5283TIP3    H215793   3.556   0.893   1.741
 5284TIP3   OH215794   3.558   1.154   6.750
 5284TIP3    H115795   3.623   1.223   6.765
 5284TIP3    H215796   3.480   1.201   6.721
 5285TIP3   OH215797   1.093   4.574   2.883
 5285TIP3    H115798   1.092   4.643   2.817
 5285TIP3    H215799   1.029   4.511   2.852
 5286TIP3   OH215800   1.418   6.688   5.328
 5286TIP3    H115801   1.412   6.619   5.393
 5286TIP3    H215802   1.502   6.730   5.346
 5287TIP3   OH215803   3.381   2.201   1.768
 5287TIP3    H115804   3.394   2.149   1.847
 5287TIP3    H215805   3.287   2.199   1.752
 5288TIP3   OH215806   6.975   7.190   4.264
 5288TIP3    H115807   6.936   7.109   4.295
 5288TIP3    H215808   7.069   7.178   4.278
 5289TIP3   OH215809   1.783   4.210   6.120
 5289TIP3    H115810   1.735   4.127   6.121
 5289TIP3    H215811   1.820   4.216   6.033
 5290TIP3   OH215812   0.192   3.112   3.359
 5290TIP3    H115813   0.249   3.116   3.282
 5290TIP3    H215814   0.238   3.161   3.426
 5291TIP3   OH215815   2.073   2.631   3.940
 5291TIP3    H115816   1.988   2.676   3.948
 5291TIP3    H215817   2.071   2.564   4.008
 5292TIP3   OH215818   5.425   1.075   5.980
 5292TIP3    H115819   5.499   1.015   5.993
 5292TIP3    H215820   5.449   1.152   6.032
 5293TIP3   OH215821   2.058   6.294   5.366
 5293TIP3    H115822   2.014   6.373   5.334
 5293TIP3    H215823   2.080   6.245   5.287
 5294TIP3   OH215824   4.860   2.422   4.864
 5294TIP3    H115825   4.816   2.339   4.879
 5294TIP3    H215826   4.946   2.399   4.831
 5295TIP3   OH215827   7.040   7.436   6.267
 5295TIP3    H115828   7.080   7.492   6.200
 5295TIP3    H215829   7.028   7.494   6.342
 5296TIP3   OH215830  -0.022   1.220   5.988
 5296TIP3    H115831   0.031   1.298   5.972
 5296TIP3    H215832  -0.041   1.223   6.082
 5297TIP3   OH215833   1.934   1.493   1.110
 5297TIP3    H115834   1.944   1.587   1.123
 5297TIP3    H215835   1.845   1.474   1.140
 5298TIP3   OH215836   7.169   7.123   4.533
 5298TIP3    H115837   7.098   7.074   4.491
 5298TIP3    H215838   7.236   7.057   4.550
 5299TIP3   OH215839   1.318   5.652   4.296
 5299TIP3    H115840   1.341   5.559   4.290
 5299TIP3    H215841   1.320   5.671   4.390
 5300TIP3   OH215842   7.566   2.079   0.419
 5300TIP3    H115843   7.496   2.108   0.360
 5300TIP3    H215844   7.580   2.153   0.478
 5301TIP3   OH215845   1.932   0.506   0.294
 5301TIP3    H115846   1.966   0.587   0.334
 5301TIP3    H215847   1.856   0.483   0.347
 5302TIP3   OH215848   5.985   2.739   1.508
 5302TIP3    H115849   5.964   2.691   1.588
 5302TIP3    H215850   6.062   2.791   1.531
 5303TIP3   OH215851   5.625   0.467   3.182
 5303TIP3    H115852   5.575   0.529   3.128
 5303TIP3    H215853   5.561   0.401   3.207
 5304TIP3   OH215854   2.806   4.746   4.713
 5304TIP3    H115855   2.793   4.803   4.637
 5304TIP3    H215856   2.724   4.697   4.720
 5305TIP3   OH215857   3.164   7.447   3.940
 5305TIP3    H115858   3.256   7.442   3.968
 5305TIP3    H215859   3.130   7.525   3.983
 5306TIP3   OH215860   5.598   6.221   6.465
 5306TIP3    H115861   5.684   6.242   6.502
 5306TIP3    H215862   5.546   6.193   6.540
 5307TIP3   OH215863   3.698   5.384   5.830
 5307TIP3    H115864   3.679   5.438   5.754
 5307TIP3    H215865   3.786   5.350   5.814
 5308TIP3   OH215866   7.762   0.307   0.860
 5308TIP3    H115867   7.687   0.366   0.868
 5308TIP3    H215868   7.825   0.356   0.806
 5309TIP3   OH215869   4.217   0.802   6.238
 5309TIP3    H115870   4.297   0.750   6.226
 5309TIP3    H215871   4.245   0.877   6.291
 5310TIP3   OH215872   5.463   2.159   3.335
 5310TIP3    H115873   5.440   2.072   3.302
 5310TIP3    H215874   5.401   2.174   3.406
 5311TIP3   OH215875   5.035   5.315   2.402
 5311TIP3    H115876   5.106   5.356   2.451
 5311TIP3    H215877   5.053   5.337   2.311
 5312TIP3   OH215878   2.954   4.770   3.651
 5312TIP3    H115879   3.010   4.696   3.674
 5312TIP3    H215880   3.014   4.835   3.616
 5313TIP3   OH215881   3.680   7.589   3.424
 5313TIP3    H115882   3.723   7.540   3.354
 5313TIP3    H215883   3.596   7.545   3.437
 5314TIP3   OH215884   3.291   6.024   0.059
 5314TIP3    H115885   3.339   6.022   0.142
 5314TIP3    H215886   3.203   6.054   0.083
 5315TIP3   OH215887   4.370   4.640   2.523
 5315TIP3    H115888   4.286   4.638   2.568
 5315TIP3    H215889   4.359   4.706   2.455
 5316TIP3   OH215890   5.747   6.360   2.499
 5316TIP3    H115891   5.782   6.433   2.551
 5316TIP3    H215892   5.818   6.296   2.498
 5317TIP3   OH215893   3.080   5.509   2.718
 5317TIP3    H115894   3.073   5.469   2.804
 5317TIP3    H215895   3.162   5.474   2.682
 5318TIP3   OH215896   0.123   6.672   1.183
 5318TIP3    H115897   0.101   6.729   1.256
 5318TIP3    H215898   0.141   6.587   1.224
 5319TIP3   OH215899   2.728   4.408   5.527
 5319TIP3    H115900   2.638   4.391   5.499
 5319TIP3    H215901   2.775   4.328   5.505
 5320TIP3   OH215902   6.885   3.011   1.364
 5320TIP3    H115903   6.830   2.952   1.311
 5320TIP3    H215904   6.828   3.038   1.436
 5321TIP3   OH215905   7.482   0.794   6.675
 5321TIP3    H115906   7.560   0.748   6.708
 5321TIP3    H215907   7.495   0.885   6.700
 5322TIP3   OH215908   2.402   1.348   3.692
 5322TIP3    H115909   2.386   1.347   3.598
 5322TIP3    H215910   2.488   1.390   3.701
 5323TIP3   OH215911   0.838   0.303   1.952
 5323TIP3    H115912   0.786   0.232   1.989
 5323TIP3    H215913   0.774   0.369   1.927
 5324TIP3   OH215914   1.573   5.295   6.605
 5324TIP3    H115915   1.571   5.302   6.700
 5324TIP3    H215916   1.516   5.221   6.585
 5325TIP3   OH215917   4.628   1.029   4.980
 5325TIP3    H115918   4.713   0.994   4.956
 5325TIP3    H215919   4.565   0.969   4.941
 5326TIP3   OH215920   4.119   7.734   4.187
 5326TIP3    H115921   4.101   7.828   4.192
 5326TIP3    H215922   4.195   7.727   4.129
 5327TIP3   OH215923   4.812   1.045   3.297
 5327TIP3    H115924   4.822   1.127   3.345
 5327TIP3    H215925   4.806   1.071   3.205
 5328TIP3   OH215926   8.235   3.542   0.750
 5328TIP3    H115927   8.215   3.531   0.657
 5328TIP3    H215928   8.153   3.576   0.788
 5329TIP3   OH215929   1.755   6.500   3.438
 5329TIP3    H115930   1.711   6.483   3.521
 5329TIP3    H215931   1.692   6.474   3.371
 5330TIP3   OH215932   5.800   3.779   1.174
 5330TIP3    H115933   5.754   3.854   1.213
 5330TIP3    H215934   5.735   3.709   1.172
 5331TIP3   OH215935   4.976   2.794   4.984
 5331TIP3    H115936   5.054   2.748   5.017
 5331TIP3    H215937   4.946   2.740   4.910
 5332TIP3   OH215938   2.147   6.197   5.126
 5332TIP3    H115939   2.117   6.109   5.103
 5332TIP3    H215940   2.140   6.247   5.044
 5333TIP3   OH215941   3.222   4.501   5.091
 5333TIP3    H115942   3.127   4.510   5.100
 5333TIP3    H215943   3.243   4.550   5.012
 5334TIP3   OH215944   3.073   3.743   4.924
 5334TIP3    H115945   3.079   3.773   5.014
 5334TIP3    H215946   3.163   3.745   4.891
 5335TIP3   OH215947   7.814   5.294   6.487
 5335TIP3    H115948   7.764   5.295   6.406
 5335TIP3    H215949   7.852   5.207   6.492
 5336TIP3   OH215950   6.356   5.187   4.511
 5336TIP3    H115951   6.265   5.169   4.488
 5336TIP3    H215952   6.383   5.256   4.451
 5337TIP3   OH215953   1.053   6.186   2.219
 5337TIP3    H115954   0.957   6.192   2.216
 5337TIP3    H215955   1.073   6.168   2.310
 5338TIP3   OH215956   5.415   0.121   3.995
 5338TIP3    H115957   5.341   0.163   3.951
 5338TIP3    H215958   5.382   0.098   4.082
 5339TIP3   OH215959   7.834   1.691   1.333
 5339TIP3    H115960   7.879   1.609   1.353
 5339TIP3    H215961   7.747   1.664   1.305
 5340TIP3   OH215962   7.166   4.669   0.706
 5340TIP3    H115963   7.207   4.755   0.715
 5340TIP3    H215964   7.221   4.622   0.643
 5341TIP3   OH215965   1.577   1.397   4.391
 5341TIP3    H115966   1.546   1.418   4.302
 5341TIP3    H215967   1.627   1.316   4.380
 5342TIP3   OH215968   5.605   4.709   5.296
 5342TIP3    H115969   5.587   4.684   5.206
 5342TIP3    H215970   5.700   4.719   5.300
 5343TIP3   OH215971   1.417   6.161   3.976
 5343TIP3    H115972   1.448   6.243   4.013
 5343TIP3    H215973   1.324   6.175   3.961
 5344TIP3   OH215974   2.365   1.071   0.579
 5344TIP3    H115975   2.316   1.051   0.658
 5344TIP3    H215976   2.422   1.144   0.603
 5345TIP3   OH215977   3.452   7.247   5.328
 5345TIP3    H115978   3.486   7.197   5.402
 5345TIP3    H215979   3.376   7.292   5.363
 5346TIP3   OH215980   4.811   6.714   5.198
 5346TIP3    H115981   4.829   6.682   5.110
 5346TIP3    H215982   4.733   6.665   5.225
 5347TIP3   OH215983   5.772   2.425   2.133
 5347TIP3    H115984   5.728   2.446   2.051
 5347TIP3    H215985   5.865   2.424   2.111
 5348TIP3   OH215986   7.858   6.419   0.322
 5348TIP3    H115987   7.816   6.358   0.384
 5348TIP3    H215988   7.912   6.476   0.377
 5349TIP3   OH215989   5.225   1.696   1.887
 5349TIP3    H115990   5.287   1.698   1.814
 5349TIP3    H215991   5.151   1.749   1.857
 5350TIP3   OH215992   7.492   3.852   1.047
 5350TIP3    H115993   7.508   3.828   1.138
 5350TIP3    H215994   7.465   3.944   1.051
 5351TIP3   OH215995   4.914   6.765   6.136
 5351TIP3    H115996   4.840   6.824   6.152
 5351TIP3    H215997   4.988   6.807   6.179
 5352TIP3   OH215998   5.904   4.886   2.319
 5352TIP3    H115999   5.901   4.980   2.301
 5352TIP3    H216000   5.830   4.871   2.377
 5353TIP3   OH216001   3.762   3.269   3.815
 5353TIP3    H116002   3.770   3.204   3.884
 5353TIP3    H216003   3.710   3.340   3.854
 5354TIP3   OH216004   8.067   0.005   4.143
 5354TIP3    H116005   8.134   0.036   4.205
 5354TIP3    H216006   8.045  -0.083   4.173
 5355TIP3   OH216007   4.554   3.593   6.751
 5355TIP3    H116008   4.638   3.635   6.770
 5355TIP3    H216009   4.504   3.660   6.704
 5356TIP3   OH216010   4.583   2.607   6.610
 5356TIP3    H116011   4.497   2.573   6.634
 5356TIP3    H216012   4.573   2.702   6.612
 5357TIP3   OH216013   7.206   0.806   4.872
 5357TIP3    H116014   7.212   0.772   4.783
 5357TIP3    H216015   7.115   0.836   4.880
 5358TIP3   OH216016   2.058   3.979   0.964
 5358TIP3    H116017   1.986   3.916   0.968
 5358TIP3    H216018   2.016   4.062   0.942
 5359TIP3   OH216019   6.513   1.967   5.034
 5359TIP3    H116020   6.548   1.994   4.950
 5359TIP3    H216021   6.445   1.902   5.012
 5360TIP3   OH216022   7.198   7.414   3.451
 5360TIP3    H116023   7.107   7.426   3.424
 5360TIP3    H216024   7.239   7.499   3.435
 5361TIP3   OH216025   5.859   3.402   1.274
 5361TIP3    H116026   5.811   3.445   1.203
 5361TIP3    H216027   5.793   3.389   1.343
 5362TIP3   OH216028   1.385   6.706   1.382
 5362TIP3    H116029   1.391   6.650   1.305
 5362TIP3    H216030   1.474   6.738   1.395
 5363TIP3   OH216031   6.680   1.403   3.506
 5363TIP3    H116032   6.631   1.334   3.550
 5363TIP3    H216033   6.772   1.381   3.519
 5364TIP3   OH216034   6.499   0.129   6.536
 5364TIP3    H116035   6.423   0.183   6.519
 5364TIP3    H216036   6.573   0.190   6.536
 5365TIP3   OH216037   3.855   6.053   6.404
 5365TIP3    H116038   3.763   6.031   6.421
 5365TIP3    H216039   3.859   6.148   6.414
 5366TIP3   OH216040   5.636   5.595   0.230
 5366TIP3    H116041   5.597   5.656   0.167
 5366TIP3    H216042   5.616   5.632   0.316
 5367TIP3   OH216043   2.636   6.751   1.370
 5367TIP3    H116044   2.668   6.671   1.329
 5367TIP3    H216045   2.714   6.805   1.384
 5368TIP3   OH216046   0.821   0.437   3.810
 5368TIP3    H116047   0.907   0.428   3.768
 5368TIP3    H216048   0.823   0.375   3.882
 5369TIP3   OH216049   1.040   5.985   6.637
 5369TIP3    H116050   1.101   5.973   6.564
 5369TIP3    H216051   0.963   6.028   6.598
 5370TIP3   OH216052   2.162   1.911   0.753
 5370TIP3    H116053   2.094   1.858   0.711
 5370TIP3    H216054   2.115   1.988   0.787
 5371TIP3   OH216055   4.518   4.933   2.421
 5371TIP3    H116056   4.444   4.900   2.369
 5371TIP3    H216057   4.595   4.915   2.367
 5372TIP3   OH216058   6.421   5.694   0.168
 5372TIP3    H116059   6.490   5.737   0.219
 5372TIP3    H216060   6.399   5.758   0.100
 5373TIP3   OH216061   3.477   5.749   5.026
 5373TIP3    H116062   3.425   5.801   5.086
 5373TIP3    H216063   3.426   5.669   5.013
 5374TIP3   OH216064   2.130   2.875   0.663
 5374TIP3    H116065   2.204   2.829   0.701
 5374TIP3    H216066   2.099   2.933   0.733
 5375TIP3   OH216067   1.265   6.251   3.018
 5375TIP3    H116068   1.195   6.205   3.065
 5375TIP3    H216069   1.346   6.222   3.060
 5376TIP3   OH216070   2.821   4.197   4.171
 5376TIP3    H116071   2.905   4.228   4.204
 5376TIP3    H216072   2.833   4.103   4.160
 5377TIP3   OH216073   7.928   5.122   4.841
 5377TIP3    H116074   7.914   5.174   4.762
 5377TIP3    H216075   7.849   5.068   4.849
 5378TIP3   OH216076   5.064   3.781   1.735
 5378TIP3    H116077   4.977   3.800   1.699
 5378TIP3    H216078   5.099   3.713   1.678
 5379TIP3   OH216079   4.565   4.970   0.579
 5379TIP3    H116080   4.500   5.021   0.531
 5379TIP3    H216081   4.648   4.994   0.539
 5380TIP3   OH216082   5.412   4.406   5.048
 5380TIP3    H116083   5.336   4.420   5.104
 5380TIP3    H216084   5.465   4.343   5.096
 5381TIP3   OH216085   2.588   4.665   0.122
 5381TIP3    H116086   2.639   4.594   0.160
 5381TIP3    H216087   2.587   4.733   0.189
 5382TIP3   OH216088   7.845   6.280   0.740
 5382TIP3    H116089   7.812   6.196   0.771
 5382TIP3    H216090   7.925   6.295   0.791
 5383TIP3   OH216091   4.934   6.284   1.652
 5383TIP3    H116092   4.857   6.232   1.674
 5383TIP3    H216093   4.903   6.343   1.583
 5384TIP3   OH216094   3.325   0.826   1.443
 5384TIP3    H116095   3.266   0.836   1.517
 5384TIP3    H216096   3.283   0.760   1.387
 5385TIP3   OH216097   5.531   1.840   4.695
 5385TIP3    H116098   5.591   1.909   4.724
 5385TIP3    H216099   5.515   1.860   4.603
 5386TIP3   OH216100   2.886   2.662   4.256
 5386TIP3    H116101   2.918   2.573   4.247
 5386TIP3    H216102   2.956   2.717   4.221
 5387TIP3   OH216103   1.326   7.042   3.064
 5387TIP3    H116104   1.335   7.094   2.984
 5387TIP3    H216105   1.404   7.064   3.116
 5388TIP3   OH216106   1.177   2.160   4.819
 5388TIP3    H116107   1.200   2.167   4.912
 5388TIP3    H216108   1.183   2.066   4.801
 5389TIP3   OH216109   8.169   2.533   2.732
 5389TIP3    H116110   8.121   2.578   2.662
 5389TIP3    H216111   8.223   2.468   2.685
 5390TIP3   OH216112   6.723   0.603   4.993
 5390TIP3    H116113   6.710   0.528   4.936
 5390TIP3    H216114   6.637   0.618   5.033
 5391TIP3   OH216115   7.531   6.048   3.154
 5391TIP3    H116116   7.552   6.112   3.221
 5391TIP3    H216117   7.481   6.096   3.088
 5392TIP3   OH216118   3.524   6.263   2.134
 5392TIP3    H116119   3.550   6.187   2.082
 5392TIP3    H216120   3.471   6.316   2.074
 5393TIP3   OH216121   1.804   7.532   1.442
 5393TIP3    H116122   1.844   7.446   1.449
 5393TIP3    H216123   1.743   7.537   1.516
 5394TIP3   OH216124   4.797   5.880   4.399
 5394TIP3    H116125   4.891   5.894   4.399
 5394TIP3    H216126   4.773   5.874   4.491
 5395TIP3   OH216127   1.476   3.578   0.354
 5395TIP3    H116128   1.541   3.567   0.285
 5395TIP3    H216129   1.394   3.595   0.308
 5396TIP3   OH216130   1.938   5.929   3.138
 5396TIP3    H116131   1.955   5.844   3.097
 5396TIP3    H216132   1.844   5.943   3.126
 5397TIP3   OH216133   7.600   0.150   4.324
 5397TIP3    H116134   7.569   0.061   4.340
 5397TIP3    H216135   7.688   0.139   4.289
 5398TIP3   OH216136   2.827   1.713   5.371
 5398TIP3    H116137   2.870   1.768   5.435
 5398TIP3    H216138   2.754   1.766   5.338
 5399TIP3   OH216139   6.814   4.038   5.842
 5399TIP3    H116140   6.742   4.072   5.789
 5399TIP3    H216141   6.804   4.081   5.927
 5400TIP3   OH216142   5.695   5.943   3.015
 5400TIP3    H116143   5.690   5.868   2.956
 5400TIP3    H216144   5.695   6.019   2.957
 5401TIP3   OH216145   4.885   7.039   0.876
 5401TIP3    H116146   4.972   7.079   0.874
 5401TIP3    H216147   4.900   6.950   0.906
 5402TIP3   OH216148   2.847   6.161   4.371
 5402TIP3    H116149   2.826   6.124   4.456
 5402TIP3    H216150   2.879   6.088   4.319
 5403TIP3   OH216151   7.407   4.478   3.767
 5403TIP3    H116152   7.474   4.440   3.824
 5403TIP3    H216153   7.428   4.571   3.765
 5404TIP3   OH216154   5.799   4.512   4.052
 5404TIP3    H116155   5.877   4.567   4.046
 5404TIP3    H216156   5.726   4.573   4.041
 5405TIP3   OH216157   2.253   1.527   2.454
 5405TIP3    H116158   2.348   1.539   2.448
 5405TIP3    H216159   2.242   1.435   2.479
 5406TIP3   OH216160   3.204   5.081   1.883
 5406TIP3    H116161   3.173   5.161   1.927
 5406TIP3    H216162   3.237   5.112   1.799
 5407TIP3   OH216163   5.184   1.567   1.168
 5407TIP3    H116164   5.219   1.654   1.189
 5407TIP3    H216165   5.109   1.584   1.111
 5408TIP3   OH216166   1.708   6.990   0.687
 5408TIP3    H116167   1.794   6.959   0.714
 5408TIP3    H216168   1.713   6.995   0.591
 5409TIP3   OH216169   7.731   4.676   6.452
 5409TIP3    H116170   7.663   4.735   6.483
 5409TIP3    H216171   7.812   4.728   6.457
 5410TIP3   OH216172   3.237   4.750   2.861
 5410TIP3    H116173   3.168   4.733   2.925
 5410TIP3    H216174   3.278   4.831   2.892
 5411TIP3   OH216175   7.714   3.950   3.774
 5411TIP3    H116176   7.730   3.873   3.828
 5411TIP3    H216177   7.676   3.915   3.693
 5412TIP3   OH216178   1.449   4.173   6.042
 5412TIP3    H116179   1.499   4.096   6.013
 5412TIP3    H216180   1.374   4.176   5.984
 5413TIP3   OH216181   4.068   3.585   6.066
 5413TIP3    H116182   4.015   3.629   6.132
 5413TIP3    H216183   4.157   3.617   6.081
 5414TIP3   OH216184   5.736   5.893   5.215
 5414TIP3    H116185   5.644   5.908   5.234
 5414TIP3    H216186   5.781   5.910   5.297
 5415TIP3   OH216187   5.528   6.258   0.210
 5415TIP3    H116188   5.519   6.282   0.118
 5415TIP3    H216189   5.620   6.234   0.220
 5416TIP3   OH216190   6.857  -0.058   0.682
 5416TIP3    H116191   6.935  -0.020   0.724
 5416TIP3    H216192   6.853  -0.015   0.596
 5417TIP3   OH216193   7.331   3.057   3.343
 5417TIP3    H116194   7.292   3.098   3.266
 5417TIP3    H216195   7.324   3.123   3.411
 5418TIP3   OH216196   4.093   1.247   0.204
 5418TIP3    H116197   4.035   1.252   0.281
 5418TIP3    H216198   4.043   1.196   0.140
 5419TIP3   OH216199   4.518   2.030   0.052
 5419TIP3    H116200   4.613   2.016   0.061
 5419TIP3    H216201   4.502   2.026  -0.042
 5420TIP3   OH216202   0.178   3.253   0.879
 5420TIP3    H116203   0.187   3.347   0.892
 5420TIP3    H216204   0.086   3.240   0.857
 5421TIP3   OH216205   5.656   0.748   1.616
 5421TIP3    H116206   5.680   0.658   1.633
 5421TIP3    H216207   5.645   0.787   1.702
 5422TIP3   OH216208   6.069   1.180   2.656
 5422TIP3    H116209   6.063   1.088   2.629
 5422TIP3    H216210   6.062   1.230   2.575
 5423TIP3   OH216211   0.145   6.183   3.538
 5423TIP3    H116212   0.123   6.259   3.485
 5423TIP3    H216213   0.172   6.219   3.623
 5424TIP3   OH216214   7.163   4.829  -0.029
 5424TIP3    H116215   7.123   4.795   0.051
 5424TIP3    H216216   7.169   4.753  -0.087
 5425TIP3   OH216217   1.718   4.227   5.224
 5425TIP3    H116218   1.697   4.273   5.143
 5425TIP3    H216219   1.670   4.275   5.292
 5426TIP3   OH216220   0.803   5.013   6.414
 5426TIP3    H116221   0.710   5.004   6.395
 5426TIP3    H216222   0.810   4.992   6.508
 5427TIP3   OH216223   1.494   0.849   6.460
 5427TIP3    H116224   1.569   0.891   6.416
 5427TIP3    H216225   1.534   0.794   6.527
 5428TIP3   OH216226   5.452   4.374   0.889
 5428TIP3    H116227   5.527   4.316   0.898
 5428TIP3    H216228   5.489   4.457   0.860
 5429TIP3   OH216229   0.182   3.120   6.615
 5429TIP3    H116230   0.185   3.042   6.670
 5429TIP3    H216231   0.236   3.097   6.539
 5430TIP3   OH216232   7.532   3.375   0.135
 5430TIP3    H116233   7.613   3.332   0.106
 5430TIP3    H216234   7.552   3.411   0.221
 5431TIP3   OH216235   2.502   5.784   5.660
 5431TIP3    H116236   2.547   5.865   5.685
 5431TIP3    H216237   2.428   5.813   5.606
 5432TIP3   OH216238   8.236   5.580   0.473
 5432TIP3    H116239   8.329   5.581   0.449
 5432TIP3    H216240   8.194   5.639   0.412
 5433TIP3   OH216241   3.899   2.106   2.027
 5433TIP3    H116242   3.917   2.185   2.077
 5433TIP3    H216243   3.946   2.118   1.944
 5434TIP3   OH216244   4.039   6.688   4.654
 5434TIP3    H116245   4.114   6.737   4.621
 5434TIP3    H216246   4.014   6.631   4.581
 5435TIP3   OH216247   0.448   5.275   6.040
 5435TIP3    H116248   0.500   5.300   6.116
 5435TIP3    H216249   0.473   5.338   5.973
 5436TIP3   OH216250   2.739   2.154   3.657
 5436TIP3    H116251   2.790   2.231   3.631
 5436TIP3    H216252   2.747   2.094   3.584
 5437TIP3   OH216253   5.466   1.682   4.118
 5437TIP3    H116254   5.529   1.627   4.071
 5437TIP3    H216255   5.456   1.760   4.062
 5438TIP3   OH216256   2.885   1.625   1.661
 5438TIP3    H116257   2.898   1.698   1.722
 5438TIP3    H216258   2.904   1.547   1.713
 5439TIP3   OH216259   2.313   3.362   0.214
 5439TIP3    H116260   2.297   3.378   0.307
 5439TIP3    H216261   2.249   3.418   0.169
 5440TIP3   OH216262   1.591   5.918   4.468
 5440TIP3    H116263   1.634   5.991   4.424
 5440TIP3    H216264   1.662   5.870   4.510
 5441TIP3   OH216265   3.309   2.315   1.030
 5441TIP3    H116266   3.323   2.229   1.068
 5441TIP3    H216267   3.351   2.375   1.092
 5442TIP3   OH216268   4.050   1.527   5.313
 5442TIP3    H116269   4.102   1.458   5.272
 5442TIP3    H216270   4.054   1.600   5.252
 5443TIP3   OH216271   2.411   3.991   3.113
 5443TIP3    H116272   2.427   4.014   3.204
 5443TIP3    H216273   2.434   4.070   3.064
 5444TIP3   OH216274   4.170   7.460   6.029
 5444TIP3    H116275   4.153   7.489   5.939
 5444TIP3    H216276   4.085   7.467   6.073
 5445TIP3   OH216277   7.389   6.408   4.602
 5445TIP3    H116278   7.386   6.423   4.697
 5445TIP3    H216279   7.336   6.479   4.565
 5446TIP3   OH216280   1.232   7.309   5.492
 5446TIP3    H116281   1.220   7.319   5.398
 5446TIP3    H216282   1.145   7.323   5.529
 5447TIP3   OH216283   3.638   3.233   2.264
 5447TIP3    H116284   3.558   3.239   2.212
 5447TIP3    H216285   3.664   3.324   2.278
 5448TIP3   OH216286   0.713   0.452   0.879
 5448TIP3    H116287   0.763   0.466   0.798
 5448TIP3    H216288   0.633   0.503   0.867
 5449TIP3   OH216289   3.513   2.079   2.261
 5449TIP3    H116290   3.545   2.110   2.346
 5449TIP3    H216291   3.422   2.109   2.257
 5450TIP3   OH216292   1.124   2.735   0.424
 5450TIP3    H116293   1.198   2.759   0.479
 5450TIP3    H216294   1.054   2.793   0.451
 5451TIP3   OH216295   2.414   0.862   3.222
 5451TIP3    H116296   2.364   0.856   3.141
 5451TIP3    H216297   2.427   0.956   3.235
 5452TIP3   OH216298   7.908   0.838   1.847
 5452TIP3    H116299   7.874   0.783   1.918
 5452TIP3    H216300   7.983   0.883   1.886
 5453TIP3   OH216301   5.886   2.148   2.878
 5453TIP3    H116302   5.869   2.183   2.790
 5453TIP3    H216303   5.870   2.054   2.870
 5454TIP3   OH216304   2.383   6.714   3.314
 5454TIP3    H116305   2.309   6.708   3.374
 5454TIP3    H216306   2.355   6.775   3.246
 5455TIP3   OH216307   7.956   4.225   5.679
 5455TIP3    H116308   7.917   4.268   5.755
 5455TIP3    H216309   8.027   4.284   5.652
 5456TIP3   OH216310   1.392   6.588   4.310
 5456TIP3    H116311   1.315   6.612   4.259
 5456TIP3    H216312   1.432   6.672   4.334
 5457TIP3   OH216313  -0.030   2.128   3.508
 5457TIP3    H116314  -0.116   2.087   3.498
 5457TIP3    H216315   0.014   2.075   3.575
 5458TIP3   OH216316   1.303   1.264   0.632
 5458TIP3    H116317   1.316   1.266   0.727
 5458TIP3    H216318   1.237   1.330   0.615
 5459TIP3   OH216319   2.017   7.654   5.694
 5459TIP3    H116320   1.949   7.631   5.631
 5459TIP3    H216321   2.075   7.578   5.696
 5460TIP3   OH216322   4.397   1.645   5.199
 5460TIP3    H116323   4.335   1.627   5.128
 5460TIP3    H216324   4.358   1.717   5.248
 5461TIP3   OH216325   2.818   4.176   5.347
 5461TIP3    H116326   2.752   4.109   5.332
 5461TIP3    H216327   2.794   4.248   5.288
 5462TIP3   OH216328   0.033   4.910   6.306
 5462TIP3    H116329   0.014   4.939   6.216
 5462TIP3    H216330  -0.043   4.940   6.357
 5463TIP3   OH216331   4.060   4.270   4.486
 5463TIP3    H116332   4.139   4.229   4.450
 5463TIP3    H216333   4.016   4.308   4.410
 5464TIP3   OH216334   4.499   5.867   6.588
 5464TIP3    H116335   4.513   5.945   6.641
 5464TIP3    H216336   4.455   5.805   6.646
 5465TIP3   OH216337   0.106   3.628   0.135
 5465TIP3    H116338   0.010   3.630   0.126
 5465TIP3    H216339   0.138   3.618   0.045
 5466TIP3   OH216340   4.184   0.014   4.857
 5466TIP3    H116341   4.155   0.074   4.789
 5466TIP3    H216342   4.209  -0.066   4.809
 5467TIP3   OH216343   1.231   3.744   3.123
 5467TIP3    H116344   1.151   3.762   3.072
 5467TIP3    H216345   1.302   3.753   3.060
 5468TIP3   OH216346   4.813   6.056   6.267
 5468TIP3    H116347   4.750   6.009   6.212
 5468TIP3    H216348   4.841   5.992   6.333
 5469TIP3   OH216349   7.564   6.981   1.301
 5469TIP3    H116350   7.647   6.964   1.256
 5469TIP3    H216351   7.531   7.061   1.260
 5470TIP3   OH216352   1.143   6.925   1.301
 5470TIP3    H116353   1.113   6.926   1.392
 5470TIP3    H216354   1.238   6.931   1.307
 5471TIP3   OH216355   2.164   5.520   1.128
 5471TIP3    H116356   2.257   5.537   1.112
 5471TIP3    H216357   2.152   5.428   1.104
 5472TIP3   OH216358   0.421   3.624   1.856
 5472TIP3    H116359   0.502   3.673   1.840
 5472TIP3    H216360   0.399   3.587   1.770
 5473TIP3   OH216361   7.374   7.393   3.659
 5473TIP3    H116362   7.309   7.404   3.729
 5473TIP3    H216363   7.321   7.377   3.581
 5474TIP3   OH216364   3.683   0.225   0.938
 5474TIP3    H116365   3.747   0.224   1.009
 5474TIP3    H216366   3.611   0.278   0.970
 5475TIP3   OH216367   5.471   2.330   0.401
 5475TIP3    H116368   5.538   2.356   0.464
 5475TIP3    H216369   5.441   2.244   0.432
 5476TIP3   OH216370   0.207   1.109   2.910
 5476TIP3    H116371   0.145   1.157   2.965
 5476TIP3    H216372   0.291   1.115   2.956
 5477TIP3   OH216373   5.178   7.092   4.017
 5477TIP3    H116374   5.245   7.144   4.061
 5477TIP3    H216375   5.170   7.130   3.930
 5478TIP3   OH216376   1.944   3.075   4.057
 5478TIP3    H116377   1.995   2.996   4.079
 5478TIP3    H216378   1.867   3.041   4.011
 5479TIP3   OH216379   7.314   6.571   6.689
 5479TIP3    H116380   7.315   6.606   6.600
 5479TIP3    H216381   7.289   6.644   6.744
 5480TIP3   OH216382   6.475   7.412   3.011
 5480TIP3    H116383   6.437   7.339   3.060
 5480TIP3    H216384   6.428   7.412   2.927
 5481TIP3   OH216385   7.531   5.312   2.636
 5481TIP3    H116386   7.556   5.222   2.613
 5481TIP3    H216387   7.452   5.329   2.585
 5482TIP3   OH216388   1.605   2.400   0.483
 5482TIP3    H116389   1.535   2.335   0.491
 5482TIP3    H216390   1.650   2.377   0.402
 5483TIP3   OH216391   0.813   5.204   5.404
 5483TIP3    H116392   0.831   5.116   5.373
 5483TIP3    H216393   0.807   5.196   5.499
 5484TIP3   OH216394   4.165   6.954   2.449
 5484TIP3    H116395   4.253   6.990   2.436
 5484TIP3    H216396   4.169   6.915   2.537
 5485TIP3   OH216397   1.810   2.698   6.011
 5485TIP3    H116398   1.892   2.648   6.010
 5485TIP3    H216399   1.836   2.786   5.983
 5486TIP3   OH216400   4.761   4.849   1.320
 5486TIP3    H116401   4.708   4.895   1.385
 5486TIP3    H216402   4.754   4.903   1.241
 5487TIP3   OH216403   0.274   0.424   6.318
 5487TIP3    H116404   0.348   0.485   6.322
 5487TIP3    H216405   0.278   0.375   6.400
 5488TIP3   OH216406   5.402   1.402   5.981
 5488TIP3    H116407   5.444   1.347   6.047
 5488TIP3    H216408   5.375   1.480   6.029
 5489TIP3   OH216409   0.436   3.267   4.883
 5489TIP3    H116410   0.479   3.348   4.912
 5489TIP3    H216411   0.497   3.198   4.906
 5490TIP3   OH216412   4.309   4.213   3.098
 5490TIP3    H116413   4.374   4.168   3.152
 5490TIP3    H216414   4.227   4.204   3.146
 5491TIP3   OH216415   7.670   6.361   5.901
 5491TIP3    H116416   7.584   6.398   5.920
 5491TIP3    H216417   7.698   6.322   5.984
 5492TIP3   OH216418   2.386   1.393   3.418
 5492TIP3    H116419   2.457   1.457   3.420
 5492TIP3    H216420   2.310   1.442   3.388
 5493TIP3   OH216421   3.670   5.442   0.784
 5493TIP3    H116422   3.636   5.403   0.865
 5493TIP3    H216423   3.764   5.451   0.799
 5494TIP3   OH216424   1.629   1.640   1.305
 5494TIP3    H116425   1.640   1.691   1.224
 5494TIP3    H216426   1.597   1.555   1.275
 5495TIP3   OH216427   5.393   5.896   4.866
 5495TIP3    H116428   5.393   5.959   4.794
 5495TIP3    H216429   5.484   5.891   4.893
 5496TIP3   OH216430   8.095   3.808   6.412
 5496TIP3    H116431   8.037   3.866   6.460
 5496TIP3    H216432   8.156   3.774   6.479
 5497TIP3   OH216433   4.604   3.029   2.352
 5497TIP3    H116434   4.562   3.115   2.353
 5497TIP3    H216435   4.697   3.049   2.342
 5498TIP3   OH216436   5.879   2.649   0.736
 5498TIP3    H116437   5.883   2.577   0.799
 5498TIP3    H216438   5.884   2.728   0.790
 5499TIP3   OH216439   8.259   5.086   6.088
 5499TIP3    H116440   8.324   5.152   6.064
 5499TIP3    H216441   8.181   5.137   6.110
 5500TIP3   OH216442   5.277   6.741   4.344
 5500TIP3    H116443   5.203   6.790   4.308
 5500TIP3    H216444   5.249   6.715   4.432
 5501TIP3   OH216445   6.975   3.871   0.483
 5501TIP3    H116446   6.970   3.862   0.388
 5501TIP3    H216447   6.973   3.966   0.498
 5502TIP3   OH216448   8.234   0.216   3.946
 5502TIP3    H116449   8.154   0.188   3.901
 5502TIP3    H216450   8.299   0.149   3.922
 5503TIP3   OH216451   3.530   2.986   5.128
 5503TIP3    H116452   3.512   3.070   5.171
 5503TIP3    H216453   3.480   2.922   5.179
 5504TIP3   OH216454   1.040   0.685   1.278
 5504TIP3    H116455   0.970   0.750   1.271
 5504TIP3    H216456   0.998   0.609   1.319
 5505TIP3   OH216457   3.517   7.566   0.275
 5505TIP3    H116458   3.496   7.547   0.367
 5505TIP3    H216459   3.442   7.530   0.226
 5506TIP3   OH216460   5.011   2.728   1.689
 5506TIP3    H116461   5.084   2.669   1.707
 5506TIP3    H216462   5.044   2.788   1.622
 5507TIP3   OH216463   4.216   6.037   3.163
 5507TIP3    H116464   4.308   6.063   3.153
 5507TIP3    H216465   4.183   6.032   3.073
 5508TIP3   OH216466   3.083   6.039   2.273
 5508TIP3    H116467   3.175   6.065   2.271
 5508TIP3    H216468   3.078   5.974   2.343
 5509TIP3   OH216469   7.253   2.411   6.040
 5509TIP3    H116470   7.241   2.470   5.966
 5509TIP3    H216471   7.177   2.427   6.096
 5510TIP3   OH216472   7.176   1.001   1.302
 5510TIP3    H116473   7.134   1.032   1.382
 5510TIP3    H216474   7.265   1.035   1.307
 5511TIP3   OH216475   7.969   4.772   6.511
 5511TIP3    H116476   8.007   4.702   6.458
 5511TIP3    H216477   8.002   4.853   6.471
 5512TIP3   OH216478   7.465   7.635   3.951
 5512TIP3    H116479   7.437   7.676   4.033
 5512TIP3    H216480   7.450   7.541   3.964
 5513TIP3   OH216481   7.806   0.564   0.423
 5513TIP3    H116482   7.743   0.612   0.476
 5513TIP3    H216483   7.758   0.544   0.342
 5514TIP3   OH216484   6.542   7.308   4.884
 5514TIP3    H116485   6.630   7.342   4.896
 5514TIP3    H216486   6.514   7.345   4.799
 5515TIP3   OH216487   5.349   7.065   4.965
 5515TIP3    H116488   5.428   7.111   4.993
 5515TIP3    H216489   5.283   7.134   4.956
 5516TIP3   OH216490   7.214   3.030  -0.006
 5516TIP3    H116491   7.239   3.122   0.002
 5516TIP3    H216492   7.230   2.993   0.081
 5517TIP3   OH216493   2.586   5.496   4.410
 5517TIP3    H116494   2.632   5.579   4.421
 5517TIP3    H216495   2.505   5.507   4.460
 5518TIP3   OH216496   1.564   5.574   4.891
 5518TIP3    H116497   1.581   5.551   4.982
 5518TIP3    H216498   1.580   5.493   4.842
 5519TIP3   OH216499   6.383   2.631   6.673
 5519TIP3    H116500   6.308   2.662   6.622
 5519TIP3    H216501   6.410   2.550   6.630
 5520TIP3   OH216502   3.035   2.732   3.726
 5520TIP3    H116503   2.985   2.724   3.807
 5520TIP3    H216504   3.122   2.700   3.749
 5521TIP3   OH216505   6.433   6.884   4.573
 5521TIP3    H116506   6.383   6.802   4.578
 5521TIP3    H216507   6.407   6.932   4.652
 5522TIP3   OH216508   1.869   2.080   6.132
 5522TIP3    H116509   1.956   2.042   6.123
 5522TIP3    H216510   1.876   2.165   6.089
 5523TIP3   OH216511   5.135   3.547   1.226
 5523TIP3    H116512   5.157   3.454   1.227
 5523TIP3    H216513   5.132   3.570   1.133
 5524TIP3   OH216514   3.555   1.378   4.834
 5524TIP3    H116515   3.549   1.452   4.894
 5524TIP3    H216516   3.616   1.407   4.766
 5525TIP3   OH216517  -0.039   4.832   2.769
 5525TIP3    H116518  -0.082   4.865   2.848
 5525TIP3    H216519  -0.003   4.910   2.727
 5526TIP3   OH216520   3.204   2.063   4.474
 5526TIP3    H116521   3.289   2.046   4.434
 5526TIP3    H216522   3.153   2.105   4.405
 5527TIP3   OH216523   3.228   4.710   5.850
 5527TIP3    H116524   3.203   4.702   5.758
 5527TIP3    H216525   3.321   4.685   5.851
 5528TIP3   OH216526   4.539   2.783   6.209
 5528TIP3    H116527   4.575   2.872   6.212
 5528TIP3    H216528   4.444   2.797   6.207
 5529TIP3   OH216529   7.556   7.020   6.406
 5529TIP3    H116530   7.595   6.990   6.488
 5529TIP3    H216531   7.596   6.964   6.339
 5530TIP3   OH216532   2.253   0.356   1.306
 5530TIP3    H116533   2.345   0.382   1.305
 5530TIP3    H216534   2.222   0.371   1.216
 5531TIP3   OH216535   0.567   5.518   5.860
 5531TIP3    H116536   0.615   5.584   5.810
 5531TIP3    H216537   0.613   5.514   5.944
 5532TIP3   OH216538   0.462   3.059   3.532
 5532TIP3    H116539   0.437   2.969   3.551
 5532TIP3    H216540   0.527   3.052   3.462
 5533TIP3   OH216541   5.912   1.712   0.269
 5533TIP3    H116542   5.909   1.807   0.280
 5533TIP3    H216543   5.999   1.696   0.231
 5534TIP3   OH216544   7.361   1.272   1.057
 5534TIP3    H116545   7.307   1.198   1.029
 5534TIP3    H216546   7.450   1.237   1.057
 5535TIP3   OH216547   6.953   6.058   1.449
 5535TIP3    H116548   6.892   5.985   1.463
 5535TIP3    H216549   6.923   6.126   1.509
 5536TIP3   OH216550   6.329   4.048   0.384
 5536TIP3    H116551   6.411   4.023   0.426
 5536TIP3    H216552   6.315   4.139   0.410
 5537TIP3   OH216553   6.971   3.808   2.365
 5537TIP3    H116554   6.896   3.758   2.334
 5537TIP3    H216555   6.951   3.899   2.340
 5538TIP3   OH216556   4.427   6.872   0.273
 5538TIP3    H116557   4.513   6.894   0.239
 5538TIP3    H216558   4.366   6.909   0.209
 5539TIP3   OH216559   7.651   4.157   3.404
 5539TIP3    H116560   7.612   4.071   3.389
 5539TIP3    H216561   7.701   4.146   3.485
 5540TIP3   OH216562   7.404   5.564   1.071
 5540TIP3    H116563   7.442   5.516   1.144
 5540TIP3    H216564   7.309   5.549   1.080
 5541TIP3   OH216565   4.773   5.038   6.102
 5541TIP3    H116566   4.750   4.981   6.029
 5541TIP3    H216567   4.776   4.980   6.178
 5542TIP3   OH216568   3.728   2.773   2.801
 5542TIP3    H116569   3.815   2.734   2.810
 5542TIP3    H216570   3.726   2.807   2.712
 5543TIP3   OH216571   3.168   7.742   5.815
 5543TIP3    H116572   3.188   7.832   5.789
 5543TIP3    H216573   3.075   7.743   5.835
 5544TIP3   OH216574   6.990   3.293   1.095
 5544TIP3    H116575   6.970   3.215   1.043
 5544TIP3    H216576   7.015   3.358   1.030
 5545TIP3   OH216577   0.791   3.623   1.889
 5545TIP3    H116578   0.823   3.566   1.819
 5545TIP3    H216579   0.725   3.679   1.846
 5546TIP3   OH216580   5.835   3.595   2.351
 5546TIP3    H116581   5.799   3.570   2.436
 5546TIP3    H216582   5.927   3.568   2.355
 5547TIP3   OH216583   7.400   4.513   4.125
 5547TIP3    H116584   7.377   4.569   4.051
 5547TIP3    H216585   7.370   4.562   4.202
 5548TIP3   OH216586   5.943   2.234   2.373
 5548TIP3    H116587   6.037   2.214   2.377
 5548TIP3    H216588   5.936   2.301   2.305
 5549TIP3   OH216589   7.938   1.288   2.050
 5549TIP3    H116590   8.017   1.329   2.016
 5549TIP3    H216591   7.912   1.345   2.124
 5550TIP3   OH216592   4.304   7.373   0.785
 5550TIP3    H116593   4.242   7.407   0.720
 5550TIP3    H216594   4.250   7.330   0.850
 5551TIP3   OH216595   6.929   2.834   0.199
 5551TIP3    H116596   6.854   2.822   0.257
 5551TIP3    H216597   6.898   2.807   0.113
 5552TIP3   OH216598   1.685   1.509   5.856
 5552TIP3    H116599   1.718   1.594   5.826
 5552TIP3    H216600   1.762   1.466   5.895
 5553TIP3   OH216601   6.966   6.541   3.270
 5553TIP3    H116602   6.964   6.459   3.319
 5553TIP3    H216603   7.043   6.587   3.304
 5554TIP3   OH216604   1.829   7.724   4.601
 5554TIP3    H116605   1.847   7.818   4.605
 5554TIP3    H216606   1.912   7.685   4.573
 5555TIP3   OH216607   5.288   4.908   4.717
 5555TIP3    H116608   5.341   4.988   4.715
 5555TIP3    H216609   5.237   4.915   4.797
 5556TIP3   OH216610   6.181   1.737   0.149
 5556TIP3    H116611   6.265   1.758   0.191
 5556TIP3    H216612   6.194   1.651   0.110
 5557TIP3   OH216613   5.378   7.699   3.129
 5557TIP3    H116614   5.428   7.699   3.047
 5557TIP3    H216615   5.323   7.776   3.123
 5558TIP3   OH216616   0.726   5.682   4.184
 5558TIP3    H116617   0.806   5.699   4.234
 5558TIP3    H216618   0.705   5.590   4.205
 5559TIP3   OH216619   6.733   1.281   3.755
 5559TIP3    H116620   6.812   1.276   3.810
 5559TIP3    H216621   6.742   1.208   3.694
 5560TIP3   OH216622   7.035   6.793   4.989
 5560TIP3    H116623   6.990   6.821   4.909
 5560TIP3    H216624   7.027   6.698   4.989
 5561TIP3   OH216625   6.594   2.750   3.031
 5561TIP3    H116626   6.579   2.658   3.009
 5561TIP3    H216627   6.570   2.758   3.123
 5562TIP3   OH216628   2.615   7.077   2.983
 5562TIP3    H116629   2.580   7.162   3.009
 5562TIP3    H216630   2.698   7.070   3.030
 5563TIP3   OH216631   2.663   3.234   6.650
 5563TIP3    H116632   2.620   3.200   6.571
 5563TIP3    H216633   2.690   3.156   6.698
 5564TIP3   OH216634   3.758   5.698   1.429
 5564TIP3    H116635   3.795   5.743   1.505
 5564TIP3    H216636   3.753   5.765   1.361
 5565TIP3   OH216637   3.178   5.019   6.254
 5565TIP3    H116638   3.210   4.988   6.169
 5565TIP3    H216639   3.193   4.945   6.313
 5566TIP3   OH216640   2.724   3.783   3.636
 5566TIP3    H116641   2.717   3.746   3.724
 5566TIP3    H216642   2.750   3.709   3.581
 5567TIP3   OH216643   5.126   0.012   2.242
 5567TIP3    H116644   5.075   0.055   2.173
 5567TIP3    H216645   5.070   0.018   2.320
 5568TIP3   OH216646   4.491   3.280   2.321
 5568TIP3    H116647   4.406   3.323   2.329
 5568TIP3    H216648   4.542   3.338   2.265
 5569TIP3   OH216649   3.444   4.082   4.446
 5569TIP3    H116650   3.512   4.025   4.409
 5569TIP3    H216651   3.371   4.076   4.384
 5570TIP3   OH216652   0.576   5.360   5.621
 5570TIP3    H116653   0.553   5.414   5.697
 5570TIP3    H216654   0.596   5.424   5.552
 5571TIP3   OH216655   2.223   6.424   4.540
 5571TIP3    H116656   2.282   6.495   4.566
 5571TIP3    H216657   2.138   6.448   4.579
 5572TIP3   OH216658   8.083   1.425   4.053
 5572TIP3    H116659   8.031   1.359   4.007
 5572TIP3    H216660   8.017   1.479   4.099
 5573TIP3   OH216661   6.151   6.552   6.533
 5573TIP3    H116662   6.146   6.585   6.444
 5573TIP3    H216663   6.206   6.616   6.580
 5574TIP3   OH216664   1.911   6.612   4.215
 5574TIP3    H116665   1.840   6.575   4.163
 5574TIP3    H216666   1.975   6.542   4.221
 5575TIP3   OH216667   4.803   6.543   4.977
 5575TIP3    H116668   4.823   6.517   4.887
 5575TIP3    H216669   4.710   6.563   4.976
 5576TIP3   OH216670   2.203   2.154   5.927
 5576TIP3    H116671   2.224   2.187   5.840
 5576TIP3    H216672   2.187   2.232   5.980
 5577TIP3   OH216673   3.531   4.461   1.851
 5577TIP3    H116674   3.579   4.519   1.910
 5577TIP3    H216675   3.496   4.519   1.784
 5578TIP3   OH216676   3.750   3.063   2.057
 5578TIP3    H116677   3.754   3.124   2.131
 5578TIP3    H216678   3.657   3.062   2.032
 5579TIP3   OH216679   3.323   5.634   2.028
 5579TIP3    H116680   3.404   5.608   1.983
 5579TIP3    H216681   3.272   5.678   1.960
 5580TIP3   OH216682   2.249   1.831   1.599
 5580TIP3    H116683   2.307   1.767   1.557
 5580TIP3    H216684   2.266   1.821   1.693
 5581TIP3   OH216685   7.257   3.473   4.813
 5581TIP3    H116686   7.216   3.426   4.886
 5581TIP3    H216687   7.271   3.405   4.747
 5582TIP3   OH216688   7.182   2.147   2.933
 5582TIP3    H116689   7.130   2.223   2.959
 5582TIP3    H216690   7.159   2.079   2.996
 5583TIP3   OH216691   7.978   4.714   4.343
 5583TIP3    H116692   7.978   4.652   4.270
 5583TIP3    H216693   7.998   4.661   4.420
 5584TIP3   OH216694   7.751   7.701   4.101
 5584TIP3    H116695   7.808   7.625   4.109
 5584TIP3    H216696   7.757   7.744   4.186
 5585TIP3   OH216697   0.139   4.752   4.860
 5585TIP3    H116698   0.060   4.806   4.857
 5585TIP3    H216699   0.130   4.702   4.942
 5586TIP3   OH216700   6.993   5.710   4.268
 5586TIP3    H116701   7.006   5.625   4.310
 5586TIP3    H216702   7.004   5.774   4.339
 5587TIP3   OH216703   4.491   4.495   3.043
 5587TIP3    H116704   4.542   4.575   3.034
 5587TIP3    H216705   4.453   4.500   3.131
 5588TIP3   OH216706   3.762   3.837   4.295
 5588TIP3    H116707   3.810   3.758   4.318
 5588TIP3    H216708   3.823   3.908   4.316
 5589TIP3   OH216709   3.630   2.020   3.589
 5589TIP3    H116710   3.545   2.041   3.628
 5589TIP3    H216711   3.688   2.008   3.664
 5590TIP3   OH216712   6.458   2.828   0.199
 5590TIP3    H116713   6.399   2.891   0.158
 5590TIP3    H216714   6.414   2.744   0.188
 5591TIP3   OH216715   0.165   3.314   1.843
 5591TIP3    H116716   0.129   3.297   1.930
 5591TIP3    H216717   0.102   3.374   1.803
 5592TIP3   OH216718   3.830   0.384   1.855
 5592TIP3    H116719   3.810   0.466   1.809
 5592TIP3    H216720   3.899   0.343   1.802
 5593TIP3   OH216721   7.846   0.714   5.164
 5593TIP3    H116722   7.806   0.737   5.248
 5593TIP3    H216723   7.859   0.619   5.169
 5594TIP3   OH216724   4.016   4.556   6.676
 5594TIP3    H116725   4.104   4.520   6.687
 5594TIP3    H216726   4.025   4.617   6.602
 5595TIP3   OH216727   0.996   3.128   3.774
 5595TIP3    H116728   0.944   3.072   3.717
 5595TIP3    H216729   0.939   3.147   3.849
 5596TIP3   OH216730   6.670   6.801   4.499
 5596TIP3    H116731   6.595   6.855   4.526
 5596TIP3    H216732   6.637   6.751   4.424
 5597TIP3   OH216733   3.808   7.354   1.876
 5597TIP3    H116734   3.764   7.423   1.925
 5597TIP3    H216735   3.858   7.401   1.808
 5598TIP3   OH216736   1.968   5.280   3.428
 5598TIP3    H116737   1.911   5.204   3.438
 5598TIP3    H216738   2.054   5.250   3.457
 5599TIP3   OH216739   4.337   7.800   0.971
 5599TIP3    H116740   4.409   7.752   0.929
 5599TIP3    H216741   4.341   7.775   1.063
 5600TIP3   OH216742   3.932   1.741   5.427
 5600TIP3    H116743   3.986   1.662   5.429
 5600TIP3    H216744   3.942   1.775   5.338
 5601TIP3   OH216745   1.415   4.059   0.587
 5601TIP3    H116746   1.372   4.130   0.541
 5601TIP3    H216747   1.345   4.019   0.639
 5602TIP3   OH216748   7.064   3.398   4.344
 5602TIP3    H116749   6.983   3.441   4.373
 5602TIP3    H216750   7.108   3.372   4.425
 5603TIP3   OH216751   5.013   0.657   5.843
 5603TIP3    H116752   4.972   0.741   5.866
 5603TIP3    H216753   4.959   0.622   5.773
 5604TIP3   OH216754   5.219   6.259   2.166
 5604TIP3    H116755   5.272   6.307   2.102
 5604TIP3    H216756   5.144   6.227   2.116
 5605TIP3   OH216757   3.714   5.945   4.053
 5605TIP3    H116758   3.690   5.913   3.966
 5605TIP3    H216759   3.788   5.890   4.078
 5606TIP3   OH216760   7.680   1.186   6.562
 5606TIP3    H116761   7.638   1.134   6.631
 5606TIP3    H216762   7.689   1.273   6.601
 5607TIP3   OH216763   2.912   4.704   3.377
 5607TIP3    H116764   2.861   4.776   3.340
 5607TIP3    H216765   2.888   4.703   3.470
 5608TIP3   OH216766   0.796   4.904   5.783
 5608TIP3    H116767   0.749   4.978   5.744
 5608TIP3    H216768   0.751   4.827   5.749
 5609TIP3   OH216769   7.911   4.972   4.254
 5609TIP3    H116770   7.944   4.889   4.290
 5609TIP3    H216771   7.816   4.962   4.253
 5610TIP3   OH216772   4.326   4.953   5.119
 5610TIP3    H116773   4.282   5.038   5.122
 5610TIP3    H216774   4.354   4.943   5.028
 5611TIP3   OH216775   7.811   7.297   1.015
 5611TIP3    H116776   7.861   7.231   0.968
 5611TIP3    H216777   7.870   7.373   1.021
 5612TIP3   OH216778   6.767   5.812   1.615
 5612TIP3    H116779   6.724   5.738   1.572
 5612TIP3    H216780   6.828   5.772   1.678
 5613TIP3   OH216781   2.935   7.717   6.632
 5613TIP3    H116782   3.000   7.660   6.591
 5613TIP3    H216783   2.857   7.709   6.577
 5614TIP3   OH216784   5.349   0.761   5.127
 5614TIP3    H116785   5.330   0.683   5.075
 5614TIP3    H216786   5.281   0.824   5.101
 5615TIP3   OH216787   4.242   3.332   3.345
 5615TIP3    H116788   4.229   3.242   3.377
 5615TIP3    H216789   4.163   3.379   3.372
 5616TIP3   OH216790   7.819   4.318   4.252
 5616TIP3    H116791   7.854   4.255   4.315
 5616TIP3    H216792   7.891   4.378   4.235
 5617TIP3   OH216793   7.268   2.067   6.503
 5617TIP3    H116794   7.320   2.143   6.475
 5617TIP3    H216795   7.184   2.078   6.459
 5618TIP3   OH216796   4.332   5.458   4.970
 5618TIP3    H116797   4.387   5.479   4.894
 5618TIP3    H216798   4.246   5.438   4.932
 5619TIP3   OH216799   1.232   6.313   3.377
 5619TIP3    H116800   1.175   6.239   3.398
 5619TIP3    H216801   1.173   6.377   3.336
 5620TIP3   OH216802   4.703   0.786   1.424
 5620TIP3    H116803   4.768   0.856   1.431
 5620TIP3    H216804   4.663   0.799   1.338
 5621TIP3   OH216805   2.146   1.607   2.223
 5621TIP3    H116806   2.194   1.562   2.293
 5621TIP3    H216807   2.095   1.538   2.181
 5622TIP3   OH216808   0.968   5.950   4.957
 5622TIP3    H116809   1.010   6.024   4.914
 5622TIP3    H216810   0.964   5.975   5.050
 5623TIP3   OH216811   6.159   3.269   3.045
 5623TIP3    H116812   6.170   3.273   3.140
 5623TIP3    H216813   6.102   3.193   3.031
 5624TIP3   OH216814   6.010   5.213   4.484
 5624TIP3    H116815   5.991   5.197   4.576
 5624TIP3    H216816   5.949   5.283   4.458
 5625TIP3   OH216817   3.351   6.628   2.126
 5625TIP3    H116818   3.292   6.680   2.072
 5625TIP3    H216819   3.349   6.541   2.086
 5626TIP3   OH216820   5.659   7.330   3.970
 5626TIP3    H116821   5.706   7.248   3.954
 5626TIP3    H216822   5.611   7.346   3.889
 5627TIP3   OH216823   6.547   5.172   2.340
 5627TIP3    H116824   6.484   5.133   2.401
 5627TIP3    H216825   6.584   5.246   2.388
 5628TIP3   OH216826   1.810   1.722   1.644
 5628TIP3    H116827   1.831   1.655   1.579
 5628TIP3    H216828   1.720   1.703   1.670
 5629TIP3   OH216829   4.286   3.433   0.612
 5629TIP3    H116830   4.310   3.340   0.607
 5629TIP3    H216831   4.353   3.478   0.561
 5630TIP3   OH216832   8.238   2.128   4.504
 5630TIP3    H116833   8.272   2.119   4.594
 5630TIP3    H216834   8.288   2.200   4.467
 5631TIP3   OH216835   0.144   3.780   1.182
 5631TIP3    H116836   0.082   3.708   1.194
 5631TIP3    H216837   0.164   3.779   1.088
 5632TIP3   OH216838   4.487   0.154   3.051
 5632TIP3    H116839   4.523   0.096   3.118
 5632TIP3    H216840   4.514   0.114   2.968
 5633TIP3   OH216841   1.938   7.185   1.229
 5633TIP3    H116842   2.016   7.136   1.204
 5633TIP3    H216843   1.880   7.179   1.154
 5634TIP3   OH216844   3.398   2.062   3.352
 5634TIP3    H116845   3.422   1.989   3.294
 5634TIP3    H216846   3.359   2.020   3.429
 5635TIP3   OH216847   7.386   6.384   4.875
 5635TIP3    H116848   7.406   6.297   4.911
 5635TIP3    H216849   7.466   6.434   4.888
 5636TIP3   OH216850   6.430   0.069   4.200
 5636TIP3    H116851   6.445   0.047   4.108
 5636TIP3    H216852   6.411  -0.015   4.241
 5637TIP3   OH216853   7.291   3.098   0.633
 5637TIP3    H116854   7.266   3.190   0.637
 5637TIP3    H216855   7.290   3.069   0.725
 5638TIP3   OH216856   0.877   7.297   0.582
 5638TIP3    H116857   0.926   7.222   0.614
 5638TIP3    H216858   0.791   7.289   0.623
 5639TIP3   OH216859   0.975   1.051   1.990
 5639TIP3    H116860   1.049   1.008   1.947
 5639TIP3    H216861   1.015   1.117   2.047
 5640TIP3   OH216862   6.827   5.682   2.963
 5640TIP3    H116863   6.821   5.774   2.990
 5640TIP3    H216864   6.785   5.633   3.034
 5641TIP3   OH216865   4.757   0.236   1.351
 5641TIP3    H116866   4.830   0.181   1.321
 5641TIP3    H216867   4.679   0.182   1.337
 5642TIP3   OH216868   2.819   0.673   3.250
 5642TIP3    H116869   2.822   0.580   3.225
 5642TIP3    H216870   2.771   0.715   3.179
 5643TIP3   OH216871   4.422   0.111   2.332
 5643TIP3    H116872   4.363   0.060   2.388
 5643TIP3    H216873   4.369   0.132   2.255
 5644TIP3   OH216874   2.971   5.874   1.672
 5644TIP3    H116875   2.909   5.869   1.600
 5644TIP3    H216876   2.992   5.783   1.692
 5645TIP3   OH216877   5.330   5.943   0.924
 5645TIP3    H116878   5.272   6.011   0.959
 5645TIP3    H216879   5.291   5.861   0.952
 5646TIP3   OH216880   7.016   1.439   5.256
 5646TIP3    H116881   6.996   1.377   5.186
 5646TIP3    H216882   7.073   1.504   5.216
 5647TIP3   OH216883   6.005   7.590   2.939
 5647TIP3    H116884   6.062   7.644   2.995
 5647TIP3    H216885   6.054   7.508   2.927
 5648TIP3   OH216886   6.094   4.294   1.594
 5648TIP3    H116887   6.098   4.338   1.679
 5648TIP3    H216888   6.185   4.286   1.566
 5649TIP3   OH216889   4.220   4.062   2.270
 5649TIP3    H116890   4.315   4.069   2.282
 5649TIP3    H216891   4.210   4.033   2.179
 5650TIP3   OH216892   3.080   5.117   6.578
 5650TIP3    H116893   2.988   5.092   6.567
 5650TIP3    H216894   3.125   5.035   6.596
 5651TIP3   OH216895   2.484   0.395   0.314
 5651TIP3    H116896   2.406   0.436   0.352
 5651TIP3    H216897   2.518   0.460   0.252
 5652TIP3   OH216898   1.268   2.551   4.183
 5652TIP3    H116899   1.247   2.644   4.171
 5652TIP3    H216900   1.267   2.515   4.094
 5653TIP3   OH216901   7.419   7.009   5.673
 5653TIP3    H116902   7.429   7.088   5.619
 5653TIP3    H216903   7.474   6.944   5.629
 5654TIP3   OH216904   5.666   6.352   0.671
 5654TIP3    H116905   5.616   6.393   0.741
 5654TIP3    H216906   5.756   6.349   0.704
 5655TIP3   OH216907   1.652   0.045   6.242
 5655TIP3    H116908   1.599   0.002   6.176
 5655TIP3    H216909   1.741   0.012   6.227
 5656TIP3   OH216910   7.238   1.831   2.813
 5656TIP3    H116911   7.318   1.884   2.808
 5656TIP3    H216912   7.191   1.867   2.889
 5657TIP3   OH216913   0.113   3.898   3.927
 5657TIP3    H116914   0.073   3.812   3.915
 5657TIP3    H216915   0.195   3.894   3.879
 5658TIP3   OH216916   3.065   3.791   5.982
 5658TIP3    H116917   3.055   3.726   5.913
 5658TIP3    H216918   3.097   3.869   5.938
 5659TIP3   OH216919   7.848   6.437   6.297
 5659TIP3    H116920   7.865   6.531   6.286
 5659TIP3    H216921   7.925   6.395   6.258
 5660TIP3   OH216922   6.683   0.471   2.117
 5660TIP3    H116923   6.615   0.456   2.183
 5660TIP3    H216924   6.648   0.542   2.063
 5661TIP3   OH216925   4.273   1.642   2.492
 5661TIP3    H116926   4.207   1.691   2.442
 5661TIP3    H216927   4.274   1.556   2.450
 5662TIP3   OH216928   7.546   0.712   3.253
 5662TIP3    H116929   7.504   0.641   3.302
 5662TIP3    H216930   7.569   0.776   3.320
 5663TIP3   OH216931   5.415   1.167   0.849
 5663TIP3    H116932   5.374   1.199   0.769
 5663TIP3    H216933   5.508   1.187   0.837
 5664TIP3   OH216934   8.233   2.713   2.182
 5664TIP3    H116935   8.180   2.701   2.104
 5664TIP3    H216936   8.285   2.791   2.163
 5665TIP3   OH216937   6.326   1.014   4.317
 5665TIP3    H116938   6.414   1.025   4.353
 5665TIP3    H216939   6.277   0.969   4.385
 5666TIP3   OH216940   4.003   7.058   5.398
 5666TIP3    H116941   4.050   6.994   5.451
 5666TIP3    H216942   4.071   7.119   5.368
 5667TIP3   OH216943   6.781   0.284   5.073
 5667TIP3    H116944   6.785   0.236   5.156
 5667TIP3    H216945   6.694   0.322   5.071
 5668TIP3   OH216946   5.677   0.157   3.687
 5668TIP3    H116947   5.701   0.179   3.597
 5668TIP3    H216948   5.584   0.134   3.682
 5669TIP3   OH216949   6.445   5.673   1.693
 5669TIP3    H116950   6.402   5.587   1.697
 5669TIP3    H216951   6.518   5.661   1.634
 5670TIP3   OH216952   4.313   7.309   6.203
 5670TIP3    H116953   4.269   7.356   6.132
 5670TIP3    H216954   4.298   7.364   6.280
 5671TIP3   OH216955   1.093   3.722   5.956
 5671TIP3    H116956   1.013   3.750   6.002
 5671TIP3    H216957   1.060   3.675   5.879
 5672TIP3   OH216958   0.547   0.466   6.149
 5672TIP3    H116959   0.590   0.399   6.096
 5672TIP3    H216960   0.593   0.547   6.126
 5673TIP3   OH216961   7.724   1.527   1.093
 5673TIP3    H116962   7.728   1.432   1.106
 5673TIP3    H216963   7.661   1.557   1.159
 5674TIP3   OH216964   7.041   2.331   1.106
 5674TIP3    H116965   7.097   2.325   1.030
 5674TIP3    H216966   6.974   2.263   1.093
 5675TIP3   OH216967   6.747   3.726   0.605
 5675TIP3    H116968   6.772   3.730   0.697
 5675TIP3    H216969   6.825   3.694   0.560
 5676TIP3   OH216970   0.918   3.555   0.733
 5676TIP3    H116971   0.861   3.577   0.807
 5676TIP3    H216972   0.858   3.550   0.658
 5677TIP3   OH216973   2.947   3.791   1.946
 5677TIP3    H116974   2.990   3.718   1.901
 5677TIP3    H216975   2.855   3.785   1.919
 5678TIP3   OH216976   7.985   5.483   1.520
 5678TIP3    H116977   8.034   5.510   1.442
 5678TIP3    H216978   8.008   5.548   1.586
 5679TIP3   OH216979   7.158   2.861   3.360
 5679TIP3    H116980   7.152   2.806   3.281
 5679TIP3    H216981   7.225   2.926   3.339
 5680TIP3   OH216982   7.753   5.485   3.126
 5680TIP3    H116983   7.811   5.539   3.071
 5680TIP3    H216984   7.665   5.518   3.106
 5681TIP3   OH216985   2.107   1.987   5.553
 5681TIP3    H116986   2.085   2.070   5.510
 5681TIP3    H216987   2.022   1.951   5.578
 5682TIP3   OH216988   4.731   0.605   0.665
 5682TIP3    H116989   4.768   0.671   0.607
 5682TIP3    H216990   4.753   0.635   0.753
 5683TIP3   OH216991   7.822   7.825   0.987
 5683TIP3    H116992   7.739   7.786   0.959
 5683TIP3    H216993   7.797   7.891   1.052
 5684TIP3   OH216994   6.794   4.526   4.299
 5684TIP3    H116995   6.788   4.473   4.219
 5684TIP3    H216996   6.868   4.488   4.347
 5685TIP3   OH216997   6.044   6.772   4.268
 5685TIP3    H116998   6.011   6.842   4.324
 5685TIP3    H216999   5.965   6.733   4.229
 5686TIP3   OH217000   2.069  -0.006   5.432
 5686TIP3    H117001   2.043   0.085   5.419
 5686TIP3    H217002   2.050  -0.049   5.348
 5687TIP3   OH217003   2.752   5.471   2.830
 5687TIP3    H117004   2.657   5.482   2.831
 5687TIP3    H217005   2.781   5.514   2.911
 5688TIP3   OH217006   0.496   7.059   3.435
 5688TIP3    H117007   0.446   7.141   3.446
 5688TIP3    H217008   0.586   7.088   3.421
 5689TIP3   OH217009   6.463   0.418   5.766
 5689TIP3    H117010   6.483   0.401   5.674
 5689TIP3    H217011   6.538   0.468   5.798
 5690TIP3   OH217012   0.357   1.265   5.404
 5690TIP3    H117013   0.310   1.204   5.460
 5690TIP3    H217014   0.293   1.333   5.382
 5691TIP3   OH217015   6.629   2.375   2.323
 5691TIP3    H117016   6.553   2.396   2.376
 5691TIP3    H217017   6.600   2.305   2.265
 5692TIP3   OH217018   6.138   1.333   3.192
 5692TIP3    H117019   6.117   1.303   3.103
 5692TIP3    H217020   6.217   1.386   3.181
 5693TIP3   OH217021   0.609   1.793   1.317
 5693TIP3    H117022   0.562   1.731   1.262
 5693TIP3    H217023   0.587   1.879   1.281
 5694TIP3   OH217024   7.891   5.767   4.991
 5694TIP3    H117025   7.876   5.683   4.947
 5694TIP3    H217026   7.920   5.743   5.079
 5695TIP3   OH217027   5.989   6.542   4.680
 5695TIP3    H117028   5.944   6.581   4.604
 5695TIP3    H217029   5.962   6.450   4.679
 5696TIP3   OH217030   4.894   5.060   4.564
 5696TIP3    H117031   4.839   5.029   4.636
 5696TIP3    H217032   4.959   4.990   4.552
 5697TIP3   OH217033   6.132   0.468   1.256
 5697TIP3    H117034   6.226   0.464   1.270
 5697TIP3    H217035   6.094   0.419   1.330
 5698TIP3   OH217036   0.427   0.548   1.628
 5698TIP3    H117037   0.413   0.484   1.558
 5698TIP3    H217038   0.506   0.595   1.603
 5699TIP3   OH217039   6.259   0.329   3.724
 5699TIP3    H117040   6.264   0.275   3.803
 5699TIP3    H217041   6.343   0.374   3.720
 5700TIP3   OH217042   6.124   2.626   2.811
 5700TIP3    H117043   6.053   2.582   2.764
 5700TIP3    H217044   6.131   2.712   2.770
 5701TIP3   OH217045   6.339   0.959   0.151
 5701TIP3    H117046   6.255   0.918   0.129
 5701TIP3    H217047   6.347   0.949   0.245
 5702TIP3   OH217048   0.406   5.915   5.434
 5702TIP3    H117049   0.352   5.841   5.460
 5702TIP3    H217050   0.421   5.903   5.341
 5703TIP3   OH217051   3.332   1.746   2.338
 5703TIP3    H117052   3.423   1.717   2.336
 5703TIP3    H217053   3.293   1.698   2.411
 5704TIP3   OH217054   7.806   3.221   2.531
 5704TIP3    H117055   7.717   3.254   2.544
 5704TIP3    H217056   7.794   3.144   2.475
 5705TIP3   OH217057   4.109   2.942   6.687
 5705TIP3    H117058   4.155   3.026   6.689
 5705TIP3    H217059   4.016   2.966   6.686
 5706TIP3   OH217060   1.298   5.714   3.725
 5706TIP3    H117061   1.276   5.721   3.818
 5706TIP3    H217062   1.215   5.691   3.682
 5707TIP3   OH217063   7.902   4.080   1.949
 5707TIP3    H117064   7.932   3.997   1.986
 5707TIP3    H217065   7.807   4.068   1.937
 5708TIP3   OH217066   4.701   0.076   0.421
 5708TIP3    H117067   4.684   0.108   0.510
 5708TIP3    H217068   4.674   0.147   0.364
 5709TIP3   OH217069   1.679   4.781   3.713
 5709TIP3    H117070   1.665   4.711   3.777
 5709TIP3    H217071   1.593   4.797   3.675
 5710TIP3   OH217072   4.972   2.616   3.406
 5710TIP3    H117073   5.056   2.580   3.434
 5710TIP3    H217074   4.989   2.709   3.389
 5711TIP3   OH217075   2.676   2.694   0.057
 5711TIP3    H117076   2.716   2.770   0.098
 5711TIP3    H217077   2.583   2.700   0.079
 5712TIP3   OH217078   4.617   5.464   3.525
 5712TIP3    H117079   4.680   5.481   3.595
 5712TIP3    H217080   4.594   5.551   3.493
 5713TIP3   OH217081   8.058   0.874   3.901
 5713TIP3    H117082   8.034   0.788   3.937
 5713TIP3    H217083   8.136   0.857   3.848
 5714TIP3   OH217084   0.614   7.746   0.699
 5714TIP3    H117085   0.697   7.711   0.732
 5714TIP3    H217086   0.553   7.734   0.772
 5715TIP3   OH217087   1.835   3.147   6.311
 5715TIP3    H117088   1.837   3.056   6.341
 5715TIP3    H217089   1.893   3.193   6.371
 5716TIP3   OH217090   8.209   3.650   3.941
 5716TIP3    H117091   8.152   3.702   3.884
 5716TIP3    H217092   8.171   3.562   3.941
 5717TIP3   OH217093   3.100   7.399   3.606
 5717TIP3    H117094   3.118   7.305   3.595
 5717TIP3    H217095   3.137   7.421   3.691
 5718TIP3   OH217096   4.925   4.516   2.493
 5718TIP3    H117097   4.890   4.528   2.405
 5718TIP3    H217098   5.017   4.540   2.485
 5719TIP3   OH217099   7.022   6.436   3.540
 5719TIP3    H117100   7.117   6.436   3.524
 5719TIP3    H217101   7.008   6.506   3.603
 5720TIP3   OH217102   0.954   3.396   3.102
 5720TIP3    H117103   0.985   3.360   3.019
 5720TIP3    H217104   0.881   3.454   3.078
 5721TIP3   OH217105   6.002   1.099   3.556
 5721TIP3    H117106   6.090   1.119   3.524
 5721TIP3    H217107   6.016   1.064   3.644
 5722TIP3   OH217108   1.737   6.440   5.823
 5722TIP3    H117109   1.826   6.445   5.790
 5722TIP3    H217110   1.685   6.408   5.749
 5723TIP3   OH217111   3.089   0.700   1.981
 5723TIP3    H117112   3.034   0.708   2.059
 5723TIP3    H217113   3.054   0.764   1.920
 5724TIP3   OH217114   2.455   2.006   5.993
 5724TIP3    H117115   2.426   1.972   6.077
 5724TIP3    H217116   2.388   2.069   5.968
 5725TIP3   OH217117   3.197   6.980   5.947
 5725TIP3    H117118   3.149   6.903   5.915
 5725TIP3    H217119   3.258   6.944   6.011
 5726TIP3   OH217120   0.584   3.862   0.079
 5726TIP3    H117121   0.632   3.796   0.128
 5726TIP3    H217122   0.496   3.861   0.116
 5727TIP3   OH217123   5.937   1.604   3.922
 5727TIP3    H117124   5.996   1.587   3.995
 5727TIP3    H217125   5.995   1.628   3.849
 5728TIP3   OH217126   6.568   5.420   4.078
 5728TIP3    H117127   6.564   5.477   4.002
 5728TIP3    H217128   6.602   5.476   4.148
 5729TIP3   OH217129   4.694   0.799   4.415
 5729TIP3    H117130   4.772   0.803   4.470
 5729TIP3    H217131   4.692   0.885   4.372
 5730TIP3   OH217132   4.664   2.719   1.192
 5730TIP3    H117133   4.603   2.712   1.266
 5730TIP3    H217134   4.738   2.769   1.225
 5731TIP3   OH217135   7.568   7.708   6.551
 5731TIP3    H117136   7.529   7.780   6.502
 5731TIP3    H217137   7.629   7.668   6.490
 5732TIP3   OH217138   3.435   4.601   6.265
 5732TIP3    H117139   3.464   4.525   6.214
 5732TIP3    H217140   3.478   4.589   6.350
 5733TIP3   OH217141   0.632   3.704   5.237
 5733TIP3    H117142   0.688   3.626   5.236
 5733TIP3    H217143   0.652   3.746   5.320
 5734TIP3   OH217144   6.958   2.732   3.916
 5734TIP3    H117145   7.003   2.810   3.949
 5734TIP3    H217146   7.021   2.691   3.858
 5735TIP3   OH217147   0.861   0.931   1.592
 5735TIP3    H117148   0.950   0.901   1.608
 5735TIP3    H217149   0.836   0.976   1.673
 5736TIP3   OH217150   5.542   7.153   3.289
 5736TIP3    H117151   5.547   7.225   3.353
 5736TIP3    H217152   5.450   7.152   3.262
 5737TIP3   OH217153   0.910   7.399   3.782
 5737TIP3    H117154   0.930   7.467   3.846
 5737TIP3    H217155   0.975   7.331   3.797
 5738TIP3   OH217156   4.903   0.944   0.059
 5738TIP3    H117157   4.936   1.033   0.067
 5738TIP3    H217158   4.816   0.946   0.100
 5739TIP3   OH217159   8.000   1.643   3.449
 5739TIP3    H117160   7.981   1.682   3.363
 5739TIP3    H217161   7.992   1.548   3.433
 5740TIP3   OH217162   3.337   0.759   3.467
 5740TIP3    H117163   3.431   0.758   3.487
 5740TIP3    H217164   3.333   0.789   3.376
 5741TIP3   OH217165   7.540   5.416   1.294
 5741TIP3    H117166   7.469   5.469   1.330
 5741TIP3    H217167   7.602   5.407   1.366
 5742TIP3   OH217168   0.898   7.518   1.437
 5742TIP3    H117169   0.979   7.554   1.400
 5742TIP3    H217170   0.867   7.457   1.371
 5743TIP3   OH217171   7.675   0.774   1.636
 5743TIP3    H117172   7.678   0.863   1.671
 5743TIP3    H217173   7.588   0.767   1.598
 5744TIP3   OH217174   1.596   3.036   0.606
 5744TIP3    H117175   1.507   3.057   0.636
 5744TIP3    H217176   1.596   2.941   0.596
 5745TIP3   OH217177   1.917   6.164   2.199
 5745TIP3    H117178   1.821   6.171   2.205
 5745TIP3    H217179   1.949   6.193   2.284
 5746TIP3   OH217180   3.553   4.514   5.964
 5746TIP3    H117181   3.611   4.552   6.030
 5746TIP3    H217182   3.612   4.475   5.900
 5747TIP3   OH217183   4.290   5.767   5.509
 5747TIP3    H117184   4.297   5.679   5.546
 5747TIP3    H217185   4.222   5.810   5.561
 5748TIP3   OH217186   4.713   0.972   6.235
 5748TIP3    H117187   4.778   1.042   6.242
 5748TIP3    H217188   4.643   1.010   6.182
 5749TIP3   OH217189   5.416   1.997   2.071
 5749TIP3    H117190   5.480   2.068   2.080
 5749TIP3    H217191   5.469   1.918   2.061
 5750TIP3   OH217192   5.086   1.425   6.281
 5750TIP3    H117193   5.150   1.401   6.214
 5750TIP3    H217194   5.034   1.494   6.241
 5751TIP3   OH217195   7.116   3.764   5.453
 5751TIP3    H117196   7.114   3.830   5.522
 5751TIP3    H217197   7.024   3.741   5.440
 5752TIP3   OH217198   4.021   4.497   0.761
 5752TIP3    H117199   3.973   4.482   0.843
 5752TIP3    H217200   3.963   4.551   0.708
 5753TIP3   OH217201   4.667   6.158   1.168
 5753TIP3    H117202   4.672   6.090   1.101
 5753TIP3    H217203   4.592   6.212   1.142
 5754TIP3   OH217204   1.571   1.618   1.672
 5754TIP3    H117205   1.529   1.611   1.758
 5754TIP3    H217206   1.498   1.623   1.610
 5755TIP3   OH217207   6.257   0.715   2.224
 5755TIP3    H117208   6.222   0.627   2.210
 5755TIP3    H217209   6.296   0.710   2.312
 5756TIP3   OH217210   7.681   7.653   2.302
 5756TIP3    H117211   7.735   7.609   2.236
 5756TIP3    H217212   7.682   7.595   2.378
 5757TIP3   OH217213   7.518   5.581   3.017
 5757TIP3    H117214   7.434   5.608   2.981
 5757TIP3    H217215   7.582   5.600   2.948
 5758TIP3   OH217216   4.767   5.543   4.850
 5758TIP3    H117217   4.827   5.572   4.782
 5758TIP3    H217218   4.824   5.509   4.920
 5759TIP3   OH217219   0.293   2.850   4.318
 5759TIP3    H117220   0.273   2.861   4.225
 5759TIP3    H217221   0.235   2.911   4.362
 5760TIP3   OH217222   1.927   6.827   1.098
 5760TIP3    H117223   1.956   6.774   1.172
 5760TIP3    H217224   1.855   6.880   1.133
 5761TIP3   OH217225   5.554   4.713   2.136
 5761TIP3    H117226   5.584   4.632   2.176
 5761TIP3    H217227   5.634   4.765   2.122
 5762TIP3   OH217228   4.437   4.705   2.819
 5762TIP3    H117229   4.471   4.618   2.800
 5762TIP3    H217230   4.482   4.762   2.756
 5763TIP3   OH217231   3.682   4.326   5.760
 5763TIP3    H117232   3.755   4.386   5.774
 5763TIP3    H217233   3.662   4.333   5.667
 5764TIP3   OH217234   4.313   4.013   4.040
 5764TIP3    H117235   4.375   4.055   4.100
 5764TIP3    H217236   4.237   3.994   4.094
 5765TIP3   OH217237   3.971   5.414   2.033
 5765TIP3    H117238   3.946   5.357   2.106
 5765TIP3    H217239   4.020   5.357   1.974
 5766TIP3   OH217240   6.865   3.309   4.143
 5766TIP3    H117241   6.922   3.346   4.210
 5766TIP3    H217242   6.816   3.384   4.108
 5767TIP3   OH217243   8.134   6.633   5.263
 5767TIP3    H117244   8.054   6.586   5.239
 5767TIP3    H217245   8.109   6.725   5.262
 5768TIP3   OH217246   0.894   5.101   5.941
 5768TIP3    H117247   0.946   5.055   6.008
 5768TIP3    H217248   0.834   5.034   5.908
 5769TIP3   OH217249   0.244   4.376   0.657
 5769TIP3    H117250   0.318   4.380   0.717
 5769TIP3    H217251   0.275   4.415   0.576
 5770TIP3   OH217252   6.487   2.912   3.829
 5770TIP3    H117253   6.560   2.850   3.827
 5770TIP3    H217254   6.421   2.873   3.770
 5771TIP3   OH217255   0.413   3.781   2.525
 5771TIP3    H117256   0.342   3.738   2.477
 5771TIP3    H217257   0.401   3.753   2.616
 5772TIP3   OH217258   0.575   4.237   5.441
 5772TIP3    H117259   0.496   4.292   5.442
 5772TIP3    H217260   0.568   4.188   5.359
 5773TIP3   OH217261   6.354   2.249   0.110
 5773TIP3    H117262   6.412   2.270   0.037
 5773TIP3    H217263   6.268   2.280   0.083
 5774TIP3   OH217264   5.617   2.036   2.471
 5774TIP3    H117265   5.647   2.064   2.385
 5774TIP3    H217266   5.694   1.997   2.512
 5775TIP3   OH217267   1.678   3.174   0.105
 5775TIP3    H117268   1.619   3.235   0.060
 5775TIP3    H217269   1.763   3.189   0.064
 5776TIP3   OH217270   0.191   4.626   4.179
 5776TIP3    H117271   0.146   4.684   4.118
 5776TIP3    H217272   0.121   4.574   4.220
 5777TIP3   OH217273   3.994   7.595   2.056
 5777TIP3    H117274   4.035   7.681   2.049
 5777TIP3    H217275   4.064   7.538   2.087
 5778TIP3   OH217276   7.657   2.273   5.356
 5778TIP3    H117277   7.596   2.215   5.403
 5778TIP3    H217278   7.744   2.235   5.373
 5779TIP3   OH217279   6.572   1.159   1.433
 5779TIP3    H117280   6.663   1.173   1.460
 5779TIP3    H217281   6.574   1.074   1.389
 5780TIP3   OH217282   3.367   3.081   5.796
 5780TIP3    H117283   3.444   3.127   5.828
 5780TIP3    H217284   3.363   3.101   5.703
 5781TIP3   OH217285   7.045   4.197   3.841
 5781TIP3    H117286   7.072   4.153   3.921
 5781TIP3    H217287   6.950   4.203   3.848
 5782TIP3   OH217288   1.091   1.935   4.217
 5782TIP3    H117289   0.995   1.934   4.212
 5782TIP3    H217290   1.113   2.024   4.243
 5783TIP3   OH217291   1.674   0.810   5.758
 5783TIP3    H117292   1.673   0.889   5.811
 5783TIP3    H217293   1.762   0.773   5.772
 5784TIP3   OH217294   3.527   0.690   0.501
 5784TIP3    H117295   3.605   0.738   0.476
 5784TIP3    H217296   3.556   0.600   0.512
 5785TIP3   OH217297   7.869   1.323   0.604
 5785TIP3    H117298   7.838   1.382   0.536
 5785TIP3    H217299   7.835   1.361   0.686
 5786TIP3   OH217300   7.625   4.123   4.886
 5786TIP3    H117301   7.548   4.077   4.854
 5786TIP3    H217302   7.639   4.088   4.974
 5787TIP3   OH217303   7.900   3.897   2.354
 5787TIP3    H117304   7.889   3.812   2.311
 5787TIP3    H217305   7.917   3.875   2.445
 5788TIP3   OH217306   0.311   1.238   5.867
 5788TIP3    H117307   0.284   1.157   5.911
 5788TIP3    H217308   0.393   1.261   5.909
 5789TIP3   OH217309   4.112   7.674   5.567
 5789TIP3    H117310   4.068   7.696   5.486
 5789TIP3    H217311   4.187   7.620   5.540
 5790TIP3   OH217312   6.441   6.156   2.637
 5790TIP3    H117313   6.439   6.201   2.722
 5790TIP3    H217314   6.422   6.225   2.574
 5791TIP3   OH217315   1.157   5.396   5.101
 5791TIP3    H117316   1.160   5.300   5.103
 5791TIP3    H217317   1.108   5.420   5.180
 5792TIP3   OH217318   8.198   2.685   4.034
 5792TIP3    H117319   8.255   2.712   3.961
 5792TIP3    H217320   8.109   2.693   3.999
 5793TIP3   OH217321   4.947   1.772   1.804
 5793TIP3    H117322   4.927   1.766   1.711
 5793TIP3    H217323   4.903   1.852   1.834
 5794TIP3   OH217324   1.494   1.459   2.514
 5794TIP3    H117325   1.473   1.369   2.489
 5794TIP3    H217326   1.411   1.494   2.547
 5795TIP3   OH217327   3.702   2.261   0.649
 5795TIP3    H117328   3.667   2.229   0.732
 5795TIP3    H217329   3.763   2.331   0.674
 5796TIP3   OH217330   1.976   0.453   2.963
 5796TIP3    H117331   2.003   0.448   2.872
 5796TIP3    H217332   2.031   0.388   3.008
 5797TIP3   OH217333   0.695   5.272   3.811
 5797TIP3    H117334   0.656   5.254   3.896
 5797TIP3    H217335   0.648   5.350   3.779
 5798TIP3   OH217336   0.745   7.005   6.510
 5798TIP3    H117337   0.761   6.975   6.420
 5798TIP3    H217338   0.720   7.097   6.500
 5799TIP3   OH217339   3.266   1.014   0.041
 5799TIP3    H117340   3.277   0.997  -0.052
 5799TIP3    H217341   3.232   0.932   0.077
 5800TIP3   OH217342   3.106   7.513   2.140
 5800TIP3    H117343   3.025   7.473   2.110
 5800TIP3    H217344   3.160   7.519   2.061
 5801TIP3   OH217345   2.247   0.930   2.517
 5801TIP3    H117346   2.309   0.955   2.448
 5801TIP3    H217347   2.302   0.896   2.588
 5802TIP3   OH217348   3.525   6.444   1.549
 5802TIP3    H117349   3.599   6.472   1.496
 5802TIP3    H217350   3.466   6.519   1.550
 5803TIP3   OH217351   7.143   6.175   5.760
 5803TIP3    H117352   7.183   6.235   5.697
 5803TIP3    H217353   7.173   6.205   5.845
 5804TIP3   OH217354   5.101   4.902   4.308
 5804TIP3    H117355   5.083   4.850   4.386
 5804TIP3    H217356   5.059   4.987   4.325
 5805TIP3   OH217357   0.449   0.232   1.802
 5805TIP3    H117358   0.498   0.228   1.720
 5805TIP3    H217359   0.358   0.239   1.775
 5806TIP3   OH217360   2.527   7.308   3.105
 5806TIP3    H117361   2.466   7.381   3.119
 5806TIP3    H217362   2.614   7.348   3.111
 5807TIP3   OH217363   2.120   5.832  -0.006
 5807TIP3    H117364   2.050   5.864   0.051
 5807TIP3    H217365   2.119   5.737   0.006
 5808TIP3   OH217366   7.852   6.212   1.696
 5808TIP3    H117367   7.831   6.270   1.623
 5808TIP3    H217368   7.883   6.132   1.655
 5809TIP3   OH217369   6.375   4.356   5.847
 5809TIP3    H117370   6.358   4.440   5.890
 5809TIP3    H217371   6.309   4.297   5.882
 5810TIP3   OH217372   2.048   7.602   3.624
 5810TIP3    H117373   1.997   7.543   3.679
 5810TIP3    H217374   2.125   7.552   3.599
 5811TIP3   OH217375   6.683   3.865   5.999
 5811TIP3    H117376   6.591   3.868   5.974
 5811TIP3    H217377   6.726   3.926   5.941
 5812TIP3   OH217378   0.974   0.591   4.676
 5812TIP3    H117379   1.064   0.605   4.647
 5812TIP3    H217380   0.970   0.497   4.697
 5813TIP3   OH217381   4.336   2.731   1.390
 5813TIP3    H117382   4.379   2.816   1.385
 5813TIP3    H217383   4.404   2.672   1.423
 5814TIP3   OH217384   6.052   6.220   3.036
 5814TIP3    H117385   5.998   6.248   3.110
 5814TIP3    H217386   6.025   6.130   3.019
 5815TIP3   OH217387   4.990   2.108   0.286
 5815TIP3    H117388   4.944   2.160   0.352
 5815TIP3    H217389   5.042   2.171   0.237
 5816TIP3   OH217390   0.257   7.205   6.204
 5816TIP3    H117391   0.277   7.208   6.298
 5816TIP3    H217392   0.294   7.122   6.174
 5817TIP3   OH217393   4.553   2.927   5.704
 5817TIP3    H117394   4.577   2.953   5.616
 5817TIP3    H217395   4.461   2.900   5.697
 5818TIP3   OH217396   3.612   1.979   6.487
 5818TIP3    H117397   3.688   2.034   6.466
 5818TIP3    H217398   3.587   1.941   6.403
 5819TIP3   OH217399   3.941   4.790   2.771
 5819TIP3    H117400   4.028   4.755   2.755
 5819TIP3    H217401   3.917   4.758   2.858
 5820TIP3   OH217402   6.558   6.521   6.410
 5820TIP3    H117403   6.552   6.526   6.314
 5820TIP3    H217404   6.521   6.436   6.432
 5821TIP3   OH217405   7.596   0.998   5.461
 5821TIP3    H117406   7.510   0.957   5.471
 5821TIP3    H217407   7.583   1.088   5.492
 5822TIP3   OH217408   1.880   3.319   5.774
 5822TIP3    H117409   1.937   3.300   5.848
 5822TIP3    H217410   1.916   3.267   5.702
 5823TIP3   OH217411   4.191   6.483   0.332
 5823TIP3    H117412   4.283   6.509   0.341
 5823TIP3    H217413   4.148   6.561   0.295
 5824TIP3   OH217414   0.099   3.061   6.339
 5824TIP3    H117415   0.087   2.966   6.335
 5824TIP3    H217416   0.094   3.081   6.432
 5825TIP3   OH217417   4.583   3.947   3.489
 5825TIP3    H117418   4.525   3.926   3.562
 5825TIP3    H217419   4.567   4.040   3.471
 5826TIP3   OH217420   0.192   0.724   1.555
 5826TIP3    H117421   0.233   0.760   1.633
 5826TIP3    H217422   0.226   0.634   1.549
 5827TIP3   OH217423   5.427   1.276   2.110
 5827TIP3    H117424   5.403   1.192   2.149
 5827TIP3    H217425   5.345   1.312   2.077
 5828TIP3   OH217426   4.657   1.097   0.383
 5828TIP3    H117427   4.704   1.101   0.466
 5828TIP3    H217428   4.564   1.105   0.408
 5829TIP3   OH217429   1.813   4.361   3.125
 5829TIP3    H117430   1.901   4.333   3.150
 5829TIP3    H217431   1.767   4.280   3.105
 5830TIP3   OH217432   5.151   5.731   2.552
 5830TIP3    H117433   5.244   5.753   2.560
 5830TIP3    H217434   5.112   5.763   2.632
 5831TIP3   OH217435   7.696   7.449   5.349
 5831TIP3    H117436   7.741   7.497   5.418
 5831TIP3    H217437   7.765   7.429   5.285
 5832TIP3   OH217438   7.182   3.878   6.212
 5832TIP3    H117439   7.171   3.915   6.300
 5832TIP3    H217440   7.269   3.838   6.213
 5833TIP3   OH217441   5.275   5.967   4.586
 5833TIP3    H117442   5.312   6.046   4.625
 5833TIP3    H217443   5.301   5.972   4.494
 5834TIP3   OH217444   5.273   4.235   6.569
 5834TIP3    H117445   5.317   4.319   6.583
 5834TIP3    H217446   5.183   4.250   6.598
 5835TIP3   OH217447   5.368   4.469   4.539
 5835TIP3    H117448   5.368   4.431   4.627
 5835TIP3    H217449   5.420   4.409   4.487
 5836TIP3   OH217450   5.717   5.785   3.750
 5836TIP3    H117451   5.654   5.853   3.773
 5836TIP3    H217452   5.754   5.813   3.666
 5837TIP3   OH217453   2.654   1.466   3.643
 5837TIP3    H117454   2.742   1.466   3.680
 5837TIP3    H217455   2.625   1.557   3.647
 5838TIP3   OH217456   3.410   1.796   3.258
 5838TIP3    H117457   3.485   1.778   3.202
 5838TIP3    H217458   3.337   1.748   3.217
 5839TIP3   OH217459   3.883   5.814   1.684
 5839TIP3    H117460   3.840   5.784   1.764
 5839TIP3    H217461   3.886   5.909   1.693
 5840TIP3   OH217462   6.198   5.770   3.585
 5840TIP3    H117463   6.130   5.716   3.625
 5840TIP3    H217464   6.277   5.717   3.591
 5841TIP3   OH217465   6.018   7.586   3.951
 5841TIP3    H117466   5.934   7.605   3.909
 5841TIP3    H217467   6.060   7.524   3.893
 5842TIP3   OH217468   6.180   4.133   6.248
 5842TIP3    H117469   6.088   4.136   6.273
 5842TIP3    H217470   6.202   4.040   6.248
 5843TIP3   OH217471   1.947   5.953   0.166
 5843TIP3    H117472   1.865   5.909   0.146
 5843TIP3    H217473   1.938   5.981   0.257
 5844TIP3   OH217474   7.225   5.769   0.290
 5844TIP3    H117475   7.270   5.745   0.371
 5844TIP3    H217476   7.194   5.859   0.307
 5845TIP3   OH217477   4.794   5.653   0.432
 5845TIP3    H117478   4.822   5.636   0.342
 5845TIP3    H217479   4.777   5.747   0.435
 5846TIP3   OH217480   7.595   4.325   5.225
 5846TIP3    H117481   7.548   4.375   5.292
 5846TIP3    H217482   7.528   4.271   5.183
 5847TIP3   OH217483   3.972   1.526   4.285
 5847TIP3    H117484   4.016   1.608   4.261
 5847TIP3    H217485   3.959   1.480   4.203
 5848TIP3   OH217486   1.933   7.478   5.466
 5848TIP3    H117487   1.855   7.437   5.429
 5848TIP3    H217488   1.973   7.410   5.520
 5849TIP3   OH217489   2.866   4.004   2.134
 5849TIP3    H117490   2.914   3.923   2.112
 5849TIP3    H217491   2.779   3.991   2.098
 5850TIP3   OH217492   1.477   3.372   6.612
 5850TIP3    H117493   1.467   3.291   6.561
 5850TIP3    H217494   1.392   3.415   6.605
 5851TIP3   OH217495   4.414   0.628   6.193
 5851TIP3    H117496   4.417   0.657   6.284
 5851TIP3    H217497   4.364   0.546   6.195
 5852TIP3   OH217498   3.450   6.351   3.447
 5852TIP3    H117499   3.506   6.389   3.380
 5852TIP3    H217500   3.396   6.424   3.477
 5853TIP3   OH217501   2.833   0.143   3.664
 5853TIP3    H117502   2.863   0.071   3.609
 5853TIP3    H217503   2.832   0.220   3.606
 5854TIP3   OH217504   6.050   0.479   0.729
 5854TIP3    H117505   6.008   0.461   0.645
 5854TIP3    H217506   6.143   0.485   0.708
 5855TIP3   OH217507   4.771   1.648   1.226
 5855TIP3    H117508   4.684   1.615   1.248
 5855TIP3    H217509   4.769   1.660   1.131
 5856TIP3   OH217510   1.621   7.279   0.656
 5856TIP3    H117511   1.708   7.318   0.661
 5856TIP3    H217512   1.634   7.188   0.681
 5857TIP3   OH217513   6.452   1.301   5.563
 5857TIP3    H117514   6.422   1.294   5.472
 5857TIP3    H217515   6.404   1.376   5.598
 5858TIP3   OH217516   3.817   5.707   4.292
 5858TIP3    H117517   3.734   5.687   4.249
 5858TIP3    H217518   3.866   5.757   4.227
 5859TIP3   OH217519   4.718   2.827   0.932
 5859TIP3    H117520   4.694   2.918   0.945
 5859TIP3    H217521   4.678   2.780   1.005
 5860TIP3   OH217522   0.226   0.580   0.668
 5860TIP3    H117523   0.192   0.490   0.666
 5860TIP3    H217524   0.184   0.624   0.595
 5861TIP3   OH217525   5.579   6.179   4.085
 5861TIP3    H117526   5.613   6.188   4.174
 5861TIP3    H217527   5.632   6.110   4.046
 5862TIP3   OH217528   3.631   0.633   6.353
 5862TIP3    H117529   3.685   0.559   6.381
 5862TIP3    H217530   3.544   0.597   6.341
 5863TIP3   OH217531   5.088   5.536   3.898
 5863TIP3    H117532   5.102   5.511   3.807
 5863TIP3    H217533   5.173   5.526   3.939
 5864TIP3   OH217534   3.475   6.988   0.614
 5864TIP3    H117535   3.394   7.013   0.570
 5864TIP3    H217536   3.467   7.024   0.702
 5865TIP3   OH217537   2.112   5.100   1.227
 5865TIP3    H117538   2.019   5.079   1.222
 5865TIP3    H217539   2.134   5.131   1.139
 5866TIP3   OH217540   0.636   4.234   4.068
 5866TIP3    H117541   0.684   4.315   4.087
 5866TIP3    H217542   0.686   4.193   3.998
 5867TIP3   OH217543   1.691   0.409   0.423
 5867TIP3    H117544   1.707   0.327   0.471
 5867TIP3    H217545   1.597   0.407   0.405
 5868TIP3   OH217546   5.527   6.893   1.344
 5868TIP3    H117547   5.565   6.811   1.315
 5868TIP3    H217548   5.461   6.915   1.278
 5869TIP3   OH217549   2.114   3.602   0.931
 5869TIP3    H117550   2.144   3.522   0.974
 5869TIP3    H217551   2.194   3.651   0.913
 5870TIP3   OH217552   2.673   0.280   0.467
 5870TIP3    H117553   2.708   0.198   0.430
 5870TIP3    H217554   2.610   0.311   0.402
 5871TIP3   OH217555   4.885   5.020   3.079
 5871TIP3    H117556   4.815   4.964   3.111
 5871TIP3    H217557   4.945   4.961   3.034
 5872TIP3   OH217558   0.386   2.343   0.917
 5872TIP3    H117559   0.291   2.332   0.918
 5872TIP3    H217560   0.413   2.308   0.833
 5873TIP3   OH217561   6.120   7.000   2.170
 5873TIP3    H117562   6.121   6.983   2.264
 5873TIP3    H217563   6.112   7.095   2.163
 5874TIP3   OH217564   4.464   7.295   2.611
 5874TIP3    H117565   4.441   7.202   2.610
 5874TIP3    H217566   4.538   7.300   2.671
 5875TIP3   OH217567   2.473   2.297   1.374
 5875TIP3    H117568   2.444   2.217   1.417
 5875TIP3    H217569   2.544   2.330   1.429
 5876TIP3   OH217570   1.838   4.927   4.730
 5876TIP3    H117571   1.754   4.950   4.691
 5876TIP3    H217572   1.856   4.839   4.697
 5877TIP3   OH217573   0.594   5.981   0.311
 5877TIP3    H117574   0.517   5.950   0.360
 5877TIP3    H217575   0.614   5.909   0.252
 5878TIP3   OH217576   2.143   0.917   4.920
 5878TIP3    H117577   2.102   0.860   4.986
 5878TIP3    H217578   2.229   0.937   4.957
 5879TIP3   OH217579   1.443   4.037   4.344
 5879TIP3    H117580   1.459   3.945   4.323
 5879TIP3    H217581   1.528   4.071   4.371
 5880TIP3   OH217582   7.965   7.501   6.274
 5880TIP3    H117583   7.893   7.478   6.334
 5880TIP3    H217584   7.940   7.460   6.191
 5881TIP3   OH217585   5.711   0.154   5.234
 5881TIP3    H117586   5.665   0.136   5.316
 5881TIP3    H217587   5.755   0.237   5.249
 5882TIP3   OH217588   7.918   5.160   1.582
 5882TIP3    H117589   7.916   5.081   1.636
 5882TIP3    H217590   7.991   5.211   1.617
 5883TIP3   OH217591   2.863   3.549   4.013
 5883TIP3    H117592   2.785   3.543   4.068
 5883TIP3    H217593   2.937   3.548   4.074
 5884TIP3   OH217594   0.402   2.523   3.897
 5884TIP3    H117595   0.365   2.453   3.843
 5884TIP3    H217596   0.431   2.589   3.835
 5885TIP3   OH217597   4.701   3.178   2.063
 5885TIP3    H117598   4.681   3.253   2.120
 5885TIP3    H217599   4.796   3.170   2.066
 5886TIP3   OH217600   4.923   6.375   3.005
 5886TIP3    H117601   4.887   6.452   3.050
 5886TIP3    H217602   4.970   6.411   2.930
 5887TIP3   OH217603   5.514   5.868   0.691
 5887TIP3    H117604   5.543   5.887   0.780
 5887TIP3    H217605   5.524   5.950   0.644
 5888TIP3   OH217606   0.973   5.177   1.962
 5888TIP3    H117607   1.016   5.130   1.889
 5888TIP3    H217608   0.921   5.110   2.005
 5889TIP3   OH217609   4.550   7.248   3.526
 5889TIP3    H117610   4.573   7.340   3.513
 5889TIP3    H217611   4.630   7.201   3.503
 5890TIP3   OH217612   2.258   1.267   1.741
 5890TIP3    H117613   2.250   1.338   1.805
 5890TIP3    H217614   2.174   1.222   1.744
 5891TIP3   OH217615   7.792   5.671   1.200
 5891TIP3    H117616   7.757   5.583   1.186
 5891TIP3    H217617   7.771   5.719   1.120
 5892TIP3   OH217618   4.859   2.627   1.479
 5892TIP3    H117619   4.931   2.646   1.419
 5892TIP3    H217620   4.898   2.633   1.566
 5893TIP3   OH217621   6.891   3.358   5.942
 5893TIP3    H117622   6.891   3.333   5.850
 5893TIP3    H217623   6.983   3.353   5.968
 5894TIP3   OH217624   6.084   5.852   5.709
 5894TIP3    H117625   6.130   5.768   5.714
 5894TIP3    H217626   6.151   5.916   5.733
 5895TIP3   OH217627   8.218   5.877   5.000
 5895TIP3    H117628   8.202   5.816   5.073
 5895TIP3    H217629   8.145   5.938   5.003
 5896TIP3   OH217630   4.091   1.390   0.639
 5896TIP3    H117631   4.156   1.379   0.570
 5896TIP3    H217632   4.139   1.430   0.712
 5897TIP3   OH217633  -0.036   2.791   0.533
 5897TIP3    H117634  -0.086   2.843   0.472
 5897TIP3    H217635  -0.001   2.854   0.596
 5898TIP3   OH217636   7.603   2.719   5.143
 5898TIP3    H117637   7.535   2.652   5.139
 5898TIP3    H217638   7.667   2.684   5.206
 5899TIP3   OH217639   1.154   3.529   0.960
 5899TIP3    H117640   1.108   3.526   0.875
 5899TIP3    H217641   1.093   3.488   1.021
 5900TIP3   OH217642   2.295   5.978   1.291
 5900TIP3    H117643   2.251   6.004   1.210
 5900TIP3    H217644   2.274   5.885   1.301
 5901TIP3   OH217645   0.275   5.606   4.555
 5901TIP3    H117646   0.367   5.595   4.531
 5901TIP3    H217647   0.229   5.616   4.471
 5902TIP3   OH217648   2.420   5.309   1.085
 5902TIP3    H117649   2.512   5.336   1.080
 5902TIP3    H217650   2.404   5.295   1.178
 5903TIP3   OH217651   1.474   5.894   5.026
 5903TIP3    H117652   1.390   5.879   4.982
 5903TIP3    H217653   1.489   5.814   5.076
 5904TIP3   OH217654   6.199   7.178   6.307
 5904TIP3    H117655   6.246   7.112   6.359
 5904TIP3    H217656   6.147   7.227   6.371
 5905TIP3   OH217657   4.049   7.186   1.616
 5905TIP3    H117658   4.121   7.136   1.655
 5905TIP3    H217659   4.051   7.162   1.524
 5906TIP3   OH217660   6.234   3.529   3.111
 5906TIP3    H117661   6.269   3.598   3.054
 5906TIP3    H217662   6.205   3.460   3.051
 5907TIP3   OH217663   8.148   5.040   4.585
 5907TIP3    H117664   8.063   5.070   4.554
 5907TIP3    H217665   8.187   4.997   4.509
 5908TIP3   OH217666   3.517   4.816   3.933
 5908TIP3    H117667   3.516   4.780   4.022
 5908TIP3    H217668   3.592   4.774   3.891
 5909TIP3   OH217669   5.318   7.582   4.265
 5909TIP3    H117670   5.393   7.547   4.217
 5909TIP3    H217671   5.259   7.507   4.276
 5910TIP3   OH217672   4.637   3.484   2.707
 5910TIP3    H117673   4.573   3.415   2.722
 5910TIP3    H217674   4.622   3.547   2.777
 5911TIP3   OH217675   3.433   2.220   3.680
 5911TIP3    H117676   3.363   2.156   3.692
 5911TIP3    H217677   3.416   2.259   3.594
 5912TIP3   OH217678   4.192   7.620   3.534
 5912TIP3    H117679   4.107   7.631   3.576
 5912TIP3    H217680   4.256   7.627   3.605
 5913TIP3   OH217681   3.042   1.953   6.384
 5913TIP3    H117682   3.101   1.900   6.332
 5913TIP3    H217683   3.100   2.007   6.438
 5914TIP3   OH217684   7.464   1.296   2.404
 5914TIP3    H117685   7.514   1.240   2.463
 5914TIP3    H217686   7.393   1.241   2.373
 5915TIP3   OH217687   6.968   4.455   6.735
 5915TIP3    H117688   6.903   4.478   6.801
 5915TIP3    H217689   6.924   4.391   6.679
 5916TIP3   OH217690   4.826   4.716   2.656
 5916TIP3    H117691   4.821   4.677   2.569
 5916TIP3    H217692   4.806   4.644   2.716
 5917TIP3   OH217693   2.802   1.114   4.907
 5917TIP3    H117694   2.892   1.116   4.874
 5917TIP3    H217695   2.809   1.070   4.991
 5918TIP3   OH217696   3.756   4.790   5.783
 5918TIP3    H117697   3.805   4.713   5.755
 5918TIP3    H217698   3.735   4.835   5.701
 5919TIP3   OH217699   4.978   6.249   6.146
 5919TIP3    H117700   4.983   6.235   6.052
 5919TIP3    H217701   4.928   6.174   6.179
 5920TIP3   OH217702   1.057   5.302   4.562
 5920TIP3    H117703   1.070   5.355   4.641
 5920TIP3    H217704   0.974   5.334   4.525
 5921TIP3   OH217705   7.217   1.171   3.336
 5921TIP3    H117706   7.224   1.077   3.323
 5921TIP3    H217707   7.200   1.181   3.430
 5922TIP3   OH217708   7.375   0.897   6.425
 5922TIP3    H117709   7.411   0.868   6.509
 5922TIP3    H217710   7.453   0.909   6.370
 5923TIP3   OH217711   0.997   5.245   6.441
 5923TIP3    H117712   0.945   5.171   6.411
 5923TIP3    H217713   0.958   5.269   6.525
 5924TIP3   OH217714   2.787   0.227   5.952
 5924TIP3    H117715   2.797   0.321   5.968
 5924TIP3    H217716   2.876   0.193   5.953
 5925TIP3   OH217717   7.862   6.242   4.446
 5925TIP3    H117718   7.768   6.226   4.439
 5925TIP3    H217719   7.886   6.205   4.531
 5926TIP3   OH217720   6.269   3.765   4.287
 5926TIP3    H117721   6.198   3.727   4.235
 5926TIP3    H217722   6.347   3.718   4.257
 5927TIP3   OH217723   3.464   6.465   1.925
 5927TIP3    H117724   3.498   6.410   1.854
 5927TIP3    H217725   3.540   6.482   1.980
 5928TIP3   OH217726   6.194   2.768   0.440
 5928TIP3    H117727   6.165   2.790   0.352
 5928TIP3    H217728   6.118   2.726   0.481
 5929TIP3   OH217729   6.833   1.029   4.888
 5929TIP3    H117730   6.862   1.020   4.797
 5929TIP3    H217731   6.883   0.964   4.936
 5930TIP3   OH217732   6.395   2.598   2.863
 5930TIP3    H117733   6.387   2.504   2.882
 5930TIP3    H217734   6.305   2.629   2.857
 5931TIP3   OH217735   0.615   0.975   4.318
 5931TIP3    H117736   0.698   0.933   4.298
 5931TIP3    H217737   0.593   1.023   4.238
 5932TIP3   OH217738   5.316   1.748   5.928
 5932TIP3    H117739   5.265   1.769   6.007
 5932TIP3    H217740   5.334   1.832   5.888
 5933TIP3   OH217741   0.047   7.593   5.798
 5933TIP3    H117742   0.045   7.600   5.893
 5933TIP3    H217743   0.091   7.672   5.768
 5934TIP3   OH217744   7.919   3.637   6.586
 5934TIP3    H117745   8.009   3.671   6.593
 5934TIP3    H217746   7.902   3.596   6.671
 5935TIP3   OH217747   0.629   6.807   1.494
 5935TIP3    H117748   0.610   6.833   1.584
 5935TIP3    H217749   0.567   6.858   1.440
 5936TIP3   OH217750   2.263   6.288   6.691
 5936TIP3    H117751   2.349   6.296   6.733
 5936TIP3    H217752   2.204   6.266   6.764
 5937TIP3   OH217753   2.229   5.315   5.295
 5937TIP3    H117754   2.229   5.410   5.283
 5937TIP3    H217755   2.220   5.303   5.390
 5938TIP3   OH217756   7.558   1.226   6.311
 5938TIP3    H117757   7.604   1.218   6.394
 5938TIP3    H217758   7.472   1.187   6.328
 5939TIP3   OH217759   8.288   3.496   2.836
 5939TIP3    H117760   8.265   3.575   2.885
 5939TIP3    H217761   8.247   3.425   2.885
 5940TIP3   OH217762   5.358   6.944   2.848
 5940TIP3    H117763   5.411   6.959   2.769
 5940TIP3    H217764   5.410   6.883   2.901
 5941TIP3   OH217765   2.065   7.277   3.050
 5941TIP3    H117766   2.011   7.203   3.023
 5941TIP3    H217767   2.130   7.286   2.980
 5942TIP3   OH217768   1.893   1.769   0.243
 5942TIP3    H117769   1.969   1.827   0.236
 5942TIP3    H217770   1.929   1.686   0.274
 5943TIP3   OH217771   7.720   0.341   5.664
 5943TIP3    H117772   7.662   0.273   5.631
 5943TIP3    H217773   7.754   0.306   5.746
 5944TIP3   OH217774   1.154   1.227   3.966
 5944TIP3    H117775   1.209   1.197   4.038
 5944TIP3    H217776   1.064   1.219   3.999
 5945TIP3   OH217777   3.780   7.650   5.942
 5945TIP3    H117778   3.816   7.568   5.974
 5945TIP3    H217779   3.685   7.636   5.939
 5946TIP3   OH217780   1.805   0.964   1.910
 5946TIP3    H117781   1.787   0.881   1.954
 5946TIP3    H217782   1.719   1.007   1.905
 5947TIP3   OH217783   5.205   3.667   5.571
 5947TIP3    H117784   5.177   3.580   5.544
 5947TIP3    H217785   5.160   3.727   5.512
 5948TIP3   OH217786   0.736   4.098   4.933
 5948TIP3    H117787   0.689   4.016   4.914
 5948TIP3    H217788   0.828   4.074   4.927
 5949TIP3   OH217789   0.869   2.089   4.688
 5949TIP3    H117790   0.839   2.050   4.606
 5949TIP3    H217791   0.797   2.143   4.718
 5950TIP3   OH217792   8.277   6.022   2.837
 5950TIP3    H117793   8.247   6.107   2.804
 5950TIP3    H217794   8.208   5.994   2.897
 5951TIP3   OH217795   4.991   3.852   2.354
 5951TIP3    H117796   5.029   3.774   2.315
 5951TIP3    H217797   5.002   3.840   2.448
 5952TIP3   OH217798   5.098   2.732   0.620
 5952TIP3    H117799   5.150   2.710   0.697
 5952TIP3    H217800   5.027   2.786   0.653
 5953TIP3   OH217801   5.519   6.835   4.428
 5953TIP3    H117802   5.517   6.873   4.516
 5953TIP3    H217803   5.434   6.856   4.390
 5954TIP3   OH217804   0.031   5.298   5.553
 5954TIP3    H117805  -0.024   5.224   5.526
 5954TIP3    H217806   0.117   5.278   5.516
 5955TIP3   OH217807   0.243   3.992   3.022
 5955TIP3    H117808   0.174   3.973   3.085
 5955TIP3    H217809   0.304   3.919   3.029
 5956TIP3   OH217810   1.053   6.524   0.565
 5956TIP3    H117811   1.108   6.583   0.513
 5956TIP3    H217812   1.057   6.440   0.518
 5957TIP3   OH217813   4.864   7.588   4.644
 5957TIP3    H117814   4.903   7.663   4.689
 5957TIP3    H217815   4.939   7.538   4.611
 5958TIP3   OH217816   7.701   2.271   1.187
 5958TIP3    H117817   7.606   2.255   1.189
 5958TIP3    H217818   7.711   2.345   1.128
 5959TIP3   OH217819   7.404   0.479   6.705
 5959TIP3    H117820   7.421   0.529   6.625
 5959TIP3    H217821   7.343   0.534   6.754
 5960TIP3   OH217822   3.201   4.817   1.360
 5960TIP3    H117823   3.190   4.911   1.351
 5960TIP3    H217824   3.276   4.796   1.305
 5961TIP3   OH217825   5.438   0.654   0.051
 5961TIP3    H117826   5.378   0.615   0.115
 5961TIP3    H217827   5.477   0.728   0.097
 5962TIP3   OH217828   6.272   7.473   5.001
 5962TIP3    H117829   6.188   7.433   5.021
 5962TIP3    H217830   6.330   7.443   5.070
 5963TIP3   OH217831   7.341   1.527   3.622
 5963TIP3    H117832   7.285   1.572   3.686
 5963TIP3    H217833   7.326   1.574   3.540
 5964TIP3   OH217834   1.183   6.246   3.670
 5964TIP3    H117835   1.179   6.222   3.763
 5964TIP3    H217836   1.168   6.341   3.669
 5965TIP3   OH217837   5.680   1.605   2.574
 5965TIP3    H117838   5.615   1.595   2.644
 5965TIP3    H217839   5.757   1.557   2.606
 5966TIP3   OH217840   0.737   6.486   3.680
 5966TIP3    H117841   0.658   6.496   3.734
 5966TIP3    H217842   0.807   6.472   3.743
 5967TIP3   OH217843   6.269   2.786   1.275
 5967TIP3    H117844   6.344   2.730   1.294
 5967TIP3    H217845   6.235   2.810   1.361
 5968TIP3   OH217846   8.249   1.845   3.391
 5968TIP3    H117847   8.211   1.788   3.457
 5968TIP3    H217848   8.340   1.817   3.384
 5969TIP3   OH217849   0.688   7.447   6.316
 5969TIP3    H117850   0.723   7.498   6.243
 5969TIP3    H217851   0.693   7.356   6.285
 5970TIP3   OH217852   0.579   3.647   1.485
 5970TIP3    H117853   0.557   3.556   1.469
 5970TIP3    H217854   0.499   3.695   1.466
 5971TIP3   OH217855   3.783   5.053   3.712
 5971TIP3    H117856   3.803   5.013   3.797
 5971TIP3    H217857   3.702   5.101   3.727
 5972TIP3   OH217858   3.909   2.605   3.241
 5972TIP3    H117859   3.869   2.539   3.184
 5972TIP3    H217860   3.938   2.674   3.181
 5973TIP3   OH217861   4.753   7.748   2.157
 5973TIP3    H117862   4.724   7.823   2.105
 5973TIP3    H217863   4.682   7.685   2.148
 5974TIP3   OH217864   1.195   2.187   0.107
 5974TIP3    H117865   1.132   2.243   0.154
 5974TIP3    H217866   1.248   2.249   0.058
 5975TIP3   OH217867   1.927   5.610   4.356
 5975TIP3    H117868   2.000   5.650   4.308
 5975TIP3    H217869   1.960   5.523   4.380
 5976TIP3   OH217870   2.242   6.356   1.751
 5976TIP3    H117871   2.161   6.308   1.734
 5976TIP3    H217872   2.218   6.449   1.743
 5977TIP3   OH217873   0.403   3.790   4.896
 5977TIP3    H117874   0.326   3.842   4.873
 5977TIP3    H217875   0.369   3.703   4.917
 5978TIP3   OH217876   6.156   4.615   4.851
 5978TIP3    H117877   6.204   4.697   4.860
 5978TIP3    H217878   6.067   4.636   4.880
 5979TIP3   OH217879   7.695   4.591   1.827
 5979TIP3    H117880   7.610   4.632   1.813
 5979TIP3    H217881   7.712   4.601   1.921
 5980TIP3   OH217882   6.812   2.467   6.576
 5980TIP3    H117883   6.778   2.413   6.648
 5980TIP3    H217884   6.790   2.417   6.497
 5981TIP3   OH217885   8.195   6.163   2.445
 5981TIP3    H117886   8.210   6.215   2.524
 5981TIP3    H217887   8.275   6.110   2.437
 5982TIP3   OH217888   8.280   0.060   1.823
 5982TIP3    H117889   8.211   0.003   1.789
 5982TIP3    H217890   8.237   0.145   1.833
 5983TIP3   OH217891   0.146   4.645   1.413
 5983TIP3    H117892   0.155   4.654   1.318
 5983TIP3    H217893   0.052   4.659   1.429
 5984TIP3   OH217894   8.133   7.030   4.482
 5984TIP3    H117895   8.045   7.068   4.474
 5984TIP3    H217896   8.119   6.939   4.505
 5985TIP3   OH217897   4.748   4.059   6.058
 5985TIP3    H117898   4.677   3.997   6.044
 5985TIP3    H217899   4.746   4.117   5.982
 5986TIP3   OH217900   0.528   5.254   4.038
 5986TIP3    H117901   0.442   5.293   4.019
 5986TIP3    H217902   0.564   5.309   4.108
 5987TIP3   OH217903   6.914   6.526   5.472
 5987TIP3    H117904   6.985   6.496   5.415
 5987TIP3    H217905   6.861   6.582   5.415
 5988TIP3   OH217906   4.418   2.427   0.925
 5988TIP3    H117907   4.482   2.362   0.955
 5988TIP3    H217908   4.387   2.468   1.006
 5989TIP3   OH217909   5.254   0.171   3.452
 5989TIP3    H117910   5.313   0.174   3.527
 5989TIP3    H217911   5.224   0.080   3.448
 5990TIP3   OH217912   6.101   3.525   2.360
 5990TIP3    H117913   6.117   3.619   2.359
 5990TIP3    H217914   6.108   3.500   2.452
 5991TIP3   OH217915   3.899   5.679   2.124
 5991TIP3    H117916   3.897   5.682   2.220
 5991TIP3    H217917   3.959   5.607   2.103
 5992TIP3   OH217918   1.707   2.178   0.832
 5992TIP3    H117919   1.777   2.164   0.768
 5992TIP3    H217920   1.753   2.196   0.914
 5993TIP3   OH217921   3.695   7.851   5.430
 5993TIP3    H117922   3.769   7.889   5.477
 5993TIP3    H217923   3.674   7.772   5.479
 5994TIP3   OH217924   7.696   3.410   0.605
 5994TIP3    H117925   7.782   3.420   0.647
 5994TIP3    H217926   7.640   3.474   0.649
 5995TIP3   OH217927   2.585   4.440   0.785
 5995TIP3    H117928   2.596   4.491   0.866
 5995TIP3    H217929   2.669   4.449   0.740
 5996TIP3   OH217930   1.065   1.482   6.199
 5996TIP3    H117931   0.996   1.481   6.132
 5996TIP3    H217932   1.124   1.552   6.172
 5997TIP3   OH217933   8.018   3.837   3.307
 5997TIP3    H117934   8.020   3.924   3.267
 5997TIP3    H217935   8.019   3.854   3.401
 5998TIP3   OH217936   4.263   6.965   0.070
 5998TIP3    H117937   4.298   6.957  -0.019
 5998TIP3    H217938   4.177   6.924   0.065
 5999TIP3   OH217939   1.617   0.518   2.280
 5999TIP3    H117940   1.595   0.502   2.372
 5999TIP3    H217941   1.712   0.521   2.279
 6000TIP3   OH217942   0.113   0.817   5.118
 6000TIP3    H117943   0.024   0.820   5.154
 6000TIP3    H217944   0.147   0.732   5.144
 6001TIP3   OH217945   4.213   5.598   4.354
 6001TIP3    H117946   4.181   5.626   4.440
 6001TIP3    H217947   4.210   5.502   4.358
 6002TIP3   OH217948   3.192   5.280   0.547
 6002TIP3    H117949   3.107   5.301   0.585
 6002TIP3    H217950   3.255   5.301   0.616
 6003TIP3   OH217951   6.492   4.040   3.657
 6003TIP3    H117952   6.430   4.059   3.587
 6003TIP3    H217953   6.558   4.108   3.650
 6004TIP3   OH217954   3.963   1.557   6.579
 6004TIP3    H117955   3.936   1.499   6.507
 6004TIP3    H217956   4.059   1.559   6.573
 6005TIP3   OH217957   5.926   6.716   0.868
 6005TIP3    H117958   5.929   6.622   0.886
 6005TIP3    H217959   5.862   6.751   0.930
 6006TIP3   OH217960   3.483   0.194   0.593
 6006TIP3    H117961   3.461   0.240   0.674
 6006TIP3    H217962   3.410   0.133   0.581
 6007TIP3   OH217963   2.378   5.826   0.185
 6007TIP3    H117964   2.322   5.821   0.107
 6007TIP3    H217965   2.327   5.785   0.254
 6008TIP3   OH217966   1.843   7.785   1.017
 6008TIP3    H117967   1.790   7.721   0.969
 6008TIP3    H217968   1.781   7.850   1.049
 6009TIP3   OH217969   2.152   0.522   4.798
 6009TIP3    H117970   2.238   0.482   4.809
 6009TIP3    H217971   2.169   0.605   4.753
 6010TIP3   OH217972   8.200   5.666   3.730
 6010TIP3    H117973   8.158   5.738   3.682
 6010TIP3    H217974   8.278   5.645   3.679
 6011TIP3   OH217975   8.271   5.417   6.048
 6011TIP3    H117976   8.198   5.379   6.000
 6011TIP3    H217977   8.272   5.509   6.022
 6012TIP3   OH217978   1.182   6.254   6.008
 6012TIP3    H117979   1.204   6.343   5.983
 6012TIP3    H217980   1.266   6.208   6.009
 6013TIP3   OH217981   6.444   4.947   2.096
 6013TIP3    H117982   6.441   4.899   2.179
 6013TIP3    H217983   6.353   4.975   2.081
 6014TIP3   OH217984   5.860   4.594   1.973
 6014TIP3    H117985   5.903   4.628   2.052
 6014TIP3    H217986   5.887   4.654   1.904
 6015TIP3   OH217987   7.315   6.906   4.674
 6015TIP3    H117988   7.264   6.827   4.691
 6015TIP3    H217989   7.331   6.943   4.761
 6016TIP3   OH217990   3.338   3.685   4.888
 6016TIP3    H117991   3.419   3.700   4.935
 6016TIP3    H217992   3.365   3.650   4.803
 6017TIP3   OH217993   6.648   1.745   6.412
 6017TIP3    H117994   6.633   1.662   6.456
 6017TIP3    H217995   6.565   1.765   6.369
 6018TIP3   OH217996   7.888   5.033   6.684
 6018TIP3    H117997   7.873   4.940   6.702
 6018TIP3    H217998   7.929   5.035   6.597
 6019TIP3   OH217999   3.005   0.769   1.135
 6019TIP3    H118000   2.965   0.715   1.067
 6019TIP3    H218001   2.989   0.859   1.105
 6020TIP3   OH218002   5.519   1.962   6.191
 6020TIP3    H118003   5.447   2.017   6.224
 6020TIP3    H218004   5.548   2.007   6.111
 6021TIP3   OH218005   4.847   3.566   3.598
 6021TIP3    H118006   4.942   3.570   3.608
 6021TIP3    H218007   4.814   3.631   3.661
 6022TIP3   OH218008   7.086   7.631   0.830
 6022TIP3    H118009   7.083   7.538   0.808
 6022TIP3    H218010   6.994   7.659   0.829
 6023TIP3   OH218011   1.510   1.049   4.835
 6023TIP3    H118012   1.443   1.116   4.846
 6023TIP3    H218013   1.497   1.016   4.746
 6024TIP3   OH218014   0.688   4.741   0.443
 6024TIP3    H118015   0.684   4.662   0.388
 6024TIP3    H218016   0.598   4.775   0.442
 6025TIP3   OH218017   2.758   4.337   5.153
 6025TIP3    H118018   2.692   4.399   5.121
 6025TIP3    H218019   2.838   4.388   5.159
 6026TIP3   OH218020   0.320   3.514   1.598
 6026TIP3    H118021   0.306   3.420   1.594
 6026TIP3    H218022   0.233   3.551   1.610
 6027TIP3   OH218023   0.901   7.620   0.781
 6027TIP3    H118024   0.944   7.702   0.757
 6027TIP3    H218025   0.911   7.565   0.703
 6028TIP3   OH218026   7.220   5.430   2.974
 6028TIP3    H118027   7.197   5.366   2.907
 6028TIP3    H218028   7.314   5.417   2.988
 6029TIP3   OH218029   2.122   6.682   4.842
 6029TIP3    H118030   2.036   6.699   4.804
 6029TIP3    H218031   2.160   6.769   4.855
 6030TIP3   OH218032   5.158   1.277   4.537
 6030TIP3    H118033   5.098   1.351   4.533
 6030TIP3    H218034   5.241   1.316   4.567
 6031TIP3   OH218035   1.083   4.188   3.308
 6031TIP3    H118036   1.043   4.162   3.391
 6031TIP3    H218037   1.177   4.178   3.323
 6032TIP3   OH218038   7.961   7.443   3.758
 6032TIP3    H118039   7.919   7.418   3.676
 6032TIP3    H218040   7.889   7.467   3.816
 6033TIP3   OH218041   5.738   7.180   0.419
 6033TIP3    H118042   5.809   7.213   0.363
 6033TIP3    H218043   5.689   7.257   0.444
 6034TIP3   OH218044   1.236   3.040   3.654
 6034TIP3    H118045   1.172   3.093   3.700
 6034TIP3    H218046   1.185   2.990   3.590
 6035TIP3   OH218047   2.650   0.204   2.057
 6035TIP3    H118048   2.560   0.234   2.044
 6035TIP3    H218049   2.700   0.283   2.073
 6036TIP3   OH218050   4.225   4.015   0.767
 6036TIP3    H118051   4.160   3.946   0.769
 6036TIP3    H218052   4.250   4.029   0.858
 6037TIP3   OH218053   1.460   2.773   5.622
 6037TIP3    H118054   1.382   2.824   5.644
 6037TIP3    H218055   1.511   2.831   5.565
 6038TIP3   OH218056   6.652   3.711   0.060
 6038TIP3    H118057   6.611   3.784   0.014
 6038TIP3    H218058   6.590   3.688   0.129
 6039TIP3   OH218059   4.239   1.826   3.810
 6039TIP3    H118060   4.288   1.906   3.793
 6039TIP3    H218061   4.149   1.847   3.783
 6040TIP3   OH218062   8.221   4.713   0.537
 6040TIP3    H118063   8.162   4.787   0.526
 6040TIP3    H218064   8.271   4.734   0.616
 6041TIP3   OH218065   1.830   5.980   4.144
 6041TIP3    H118066   1.777   5.903   4.124
 6041TIP3    H218067   1.833   5.983   4.240
 6042TIP3   OH218068   7.154   4.785   5.595
 6042TIP3    H118069   7.127   4.706   5.642
 6042TIP3    H218070   7.118   4.857   5.648
 6043TIP3   OH218071   1.400   1.474   0.252
 6043TIP3    H118072   1.305   1.466   0.261
 6043TIP3    H218073   1.414   1.477   0.157
 6044TIP3   OH218074   0.472   3.223   5.437
 6044TIP3    H118075   0.415   3.185   5.504
 6044TIP3    H218076   0.412   3.256   5.370
 6045TIP3   OH218077   6.895   5.572   3.689
 6045TIP3    H118078   6.862   5.552   3.602
 6045TIP3    H218079   6.972   5.626   3.674
 6046TIP3   OH218080   1.339   3.752   6.058
 6046TIP3    H118081   1.253   3.754   6.017
 6046TIP3    H218082   1.400   3.743   5.985
 6047TIP3   OH218083   8.155   1.111   2.603
 6047TIP3    H118084   8.245   1.142   2.605
 6047TIP3    H218085   8.159   1.022   2.638
 6048TIP3   OH218086   0.830   7.830   2.032
 6048TIP3    H118087   0.740   7.799   2.018
 6048TIP3    H218088   0.872   7.822   1.947
 6049TIP3   OH218089   3.536   1.315   1.515
 6049TIP3    H118090   3.515   1.378   1.446
 6049TIP3    H218091   3.495   1.233   1.486
 6050TIP3   OH218092   7.065   7.704   2.718
 6050TIP3    H118093   7.034   7.779   2.768
 6050TIP3    H218094   7.015   7.630   2.752
 6051TIP3   OH218095   0.949   3.864   3.931
 6051TIP3    H118096   1.010   3.918   3.880
 6051TIP3    H218097   0.881   3.840   3.868
 6052TIP3   OH218098   6.066   7.619   2.429
 6052TIP3    H118099   6.005   7.672   2.481
 6052TIP3    H218100   6.151   7.662   2.442
 6053TIP3   OH218101   6.060   1.611   1.952
 6053TIP3    H118102   6.046   1.524   1.916
 6053TIP3    H218103   5.984   1.662   1.924
 6054TIP3   OH218104   6.149   7.155   6.605
 6054TIP3    H118105   6.125   7.110   6.686
 6054TIP3    H218106   6.110   7.241   6.613
 6055TIP3   OH218107   3.639   1.993   6.764
 6055TIP3    H118108   3.708   2.059   6.769
 6055TIP3    H218109   3.645   1.959   6.675
 6056TIP3   OH218110   0.563   3.105   3.787
 6056TIP3    H118111   0.528   3.077   3.703
 6056TIP3    H218112   0.585   3.197   3.775
 6057TIP3   OH218113   5.602   7.474   2.082
 6057TIP3    H118114   5.597   7.558   2.036
 6057TIP3    H218115   5.566   7.411   2.019
 6058TIP3   OH218116   5.513   0.429   4.119
 6058TIP3    H118117   5.600   0.389   4.126
 6058TIP3    H218118   5.457   0.375   4.174
 6059TIP3   OH218119   7.156   0.759   0.919
 6059TIP3    H118120   7.111   0.831   0.874
 6059TIP3    H218121   7.086   0.698   0.941
 6060TIP3   OH218122   3.654   3.856   3.207
 6060TIP3    H118123   3.584   3.791   3.212
 6060TIP3    H218124   3.707   3.827   3.133
 6061TIP3   OH218125   0.318   4.043   5.639
 6061TIP3    H118126   0.332   3.981   5.567
 6061TIP3    H218127   0.290   4.124   5.596
 6062TIP3   OH218128   5.605   0.862   6.010
 6062TIP3    H118129   5.634   0.842   5.921
 6062TIP3    H218130   5.589   0.777   6.050
 6063TIP3   OH218131   2.467   6.763   6.529
 6063TIP3    H118132   2.423   6.772   6.614
 6063TIP3    H218133   2.521   6.684   6.538
 6064TIP3   OH218134  -0.039   4.386   3.743
 6064TIP3    H118135   0.056   4.377   3.756
 6064TIP3    H218136  -0.049   4.406   3.650
 6065TIP3   OH218137   0.605   1.800   5.374
 6065TIP3    H118138   0.540   1.796   5.304
 6065TIP3    H218139   0.689   1.795   5.329
 6066TIP3   OH218140   0.243   6.204   3.083
 6066TIP3    H118141   0.160   6.242   3.054
 6066TIP3    H218142   0.261   6.247   3.167
 6067TIP3   OH218143   1.513   1.719   2.630
 6067TIP3    H118144   1.474   1.725   2.543
 6067TIP3    H218145   1.446   1.677   2.684
 6068TIP3   OH218146   0.021   5.595   1.378
 6068TIP3    H118147   0.053   5.621   1.291
 6068TIP3    H218148  -0.065   5.638   1.385
 6069TIP3   OH218149   6.721   2.227   0.849
 6069TIP3    H118150   6.759   2.192   0.929
 6069TIP3    H218151   6.631   2.195   0.849
 6070TIP3   OH218152   7.014   6.075   5.074
 6070TIP3    H118153   6.925   6.042   5.061
 6070TIP3    H218154   7.022   6.146   5.011
 6071TIP3   OH218155   4.462   5.176   4.905
 6071TIP3    H118156   4.446   5.167   4.999
 6071TIP3    H218157   4.387   5.226   4.873
 6072TIP3   OH218158   0.785   4.448   1.385
 6072TIP3    H118159   0.723   4.450   1.458
 6072TIP3    H218160   0.840   4.371   1.402
 6073TIP3   OH218161   0.724   4.293   0.883
 6073TIP3    H118162   0.777   4.256   0.953
 6073TIP3    H218163   0.771   4.372   0.857
 6074TIP3   OH218164   7.853   4.590   5.451
 6074TIP3    H118165   7.768   4.625   5.480
 6074TIP3    H218166   7.841   4.495   5.452
 6075TIP3   OH218167   2.243   1.441   4.515
 6075TIP3    H118168   2.293   1.479   4.444
 6075TIP3    H218169   2.160   1.488   4.514
 6076TIP3   OH218170   1.630   3.356   0.451
 6076TIP3    H118171   1.554   3.414   0.450
 6076TIP3    H218172   1.656   3.353   0.543
 6077TIP3   OH218173   0.561   2.117   2.966
 6077TIP3    H118174   0.618   2.105   2.890
 6077TIP3    H218175   0.556   2.212   2.978
 6078TIP3   OH218176   4.164   7.474   4.315
 6078TIP3    H118177   4.112   7.430   4.249
 6078TIP3    H218178   4.149   7.567   4.301
 6079TIP3   OH218179   5.690   7.562   0.216
 6079TIP3    H118180   5.657   7.652   0.213
 6079TIP3    H218181   5.731   7.549   0.130
 6080TIP3   OH218182   4.014   6.881   3.081
 6080TIP3    H118183   3.976   6.862   2.996
 6080TIP3    H218184   4.077   6.811   3.096
 6081TIP3   OH218185   6.784   5.675   4.516
 6081TIP3    H118186   6.794   5.603   4.579
 6081TIP3    H218187   6.810   5.753   4.564
 6082TIP3   OH218188   6.998   0.165   6.021
 6082TIP3    H118189   6.922   0.206   6.062
 6082TIP3    H218190   7.019   0.223   5.947
 6083TIP3   OH218191   6.203   7.698   3.499
 6083TIP3    H118192   6.113   7.730   3.500
 6083TIP3    H218193   6.254   7.769   3.539
 6084TIP3   OH218194   5.221   4.102   5.816
 6084TIP3    H118195   5.179   4.025   5.778
 6084TIP3    H218196   5.312   4.098   5.785
 6085TIP3   OH218197   4.699   0.590   3.352
 6085TIP3    H118198   4.738   0.545   3.278
 6085TIP3    H218199   4.640   0.655   3.313
 6086TIP3   OH218200   0.076   6.249   6.333
 6086TIP3    H118201   0.038   6.207   6.410
 6086TIP3    H218202   0.035   6.336   6.330
 6087TIP3   OH218203   1.076   3.818   3.638
 6087TIP3    H118204   1.014   3.750   3.613
 6087TIP3    H218205   1.158   3.771   3.651
 6088TIP3   OH218206   3.038   7.028   2.255
 6088TIP3    H118207   2.998   6.944   2.280
 6088TIP3    H218208   3.124   7.028   2.297
 6089TIP3   OH218209   1.417   3.504   3.323
 6089TIP3    H118210   1.502   3.494   3.366
 6089TIP3    H218211   1.387   3.591   3.350
 6090TIP3   OH218212   0.924   1.129   6.288
 6090TIP3    H118213   0.928   1.073   6.366
 6090TIP3    H218214   1.007   1.176   6.288
 6091TIP3   OH218215   2.590   1.481   5.179
 6091TIP3    H118216   2.587   1.560   5.125
 6091TIP3    H218217   2.509   1.483   5.230
 6092TIP3   OH218218   4.823   2.010   5.542
 6092TIP3    H118219   4.745   2.035   5.492
 6092TIP3    H218220   4.864   1.940   5.490
 6093TIP3   OH218221   5.300   4.775   5.070
 6093TIP3    H118222   5.297   4.834   4.994
 6093TIP3    H218223   5.386   4.732   5.064
 6094TIP3   OH218224   4.662   4.466   4.919
 6094TIP3    H118225   4.683   4.486   5.010
 6094TIP3    H218226   4.625   4.548   4.885
 6095TIP3   OH218227   2.231   2.449   1.827
 6095TIP3    H118228   2.210   2.541   1.811
 6095TIP3    H218229   2.321   2.450   1.858
 6096TIP3   OH218230   7.718   0.169   6.523
 6096TIP3    H118231   7.741   0.095   6.580
 6096TIP3    H218232   7.644   0.211   6.567
 6097TIP3   OH218233   2.430   5.045   1.009
 6097TIP3    H118234   2.417   4.991   1.087
 6097TIP3    H218235   2.421   5.135   1.041
 6098TIP3   OH218236   4.022   2.627   2.074
 6098TIP3    H118237   3.997   2.597   2.161
 6098TIP3    H218238   4.099   2.682   2.089
 6099TIP3   OH218239   3.665   0.302   4.864
 6099TIP3    H118240   3.705   0.247   4.931
 6099TIP3    H218241   3.576   0.319   4.896
 6100TIP3   OH218242   6.102   5.615   0.327
 6100TIP3    H118243   6.056   5.557   0.266
 6100TIP3    H218244   6.171   5.561   0.364
 6101TIP3   OH218245   6.934   2.561   4.138
 6101TIP3    H118246   6.924   2.477   4.092
 6101TIP3    H218247   6.906   2.627   4.074
 6102TIP3   OH218248   5.772   0.461   6.610
 6102TIP3    H118249   5.692   0.482   6.657
 6102TIP3    H218250   5.773   0.521   6.535
 6103TIP3   OH218251   0.982   5.196   0.923
 6103TIP3    H118252   0.986   5.166   1.014
 6103TIP3    H218253   0.954   5.288   0.930
 6104TIP3   OH218254   8.039   3.564   0.540
 6104TIP3    H118255   8.004   3.526   0.460
 6104TIP3    H218256   7.982   3.531   0.609
 6105TIP3   OH218257   1.262   3.103   4.609
 6105TIP3    H118258   1.311   3.125   4.688
 6105TIP3    H218259   1.329   3.089   4.542
 6106TIP3   OH218260   6.638   4.101   0.707
 6106TIP3    H118261   6.554   4.146   0.701
 6106TIP3    H218262   6.649   4.060   0.621
 6107TIP3   OH218263   4.387   7.464   0.454
 6107TIP3    H118264   4.415   7.519   0.527
 6107TIP3    H218265   4.457   7.398   0.447
 6108TIP3   OH218266   6.108   2.382   4.042
 6108TIP3    H118267   6.132   2.414   4.129
 6108TIP3    H218268   6.043   2.313   4.059
 6109TIP3   OH218269   1.095   3.356   1.977
 6109TIP3    H118270   1.187   3.355   2.005
 6109TIP3    H218271   1.051   3.409   2.044
 6110TIP3   OH218272   4.832   2.081   5.802
 6110TIP3    H118273   4.789   2.163   5.824
 6110TIP3    H218274   4.822   2.073   5.707
 6111TIP3   OH218275   8.217   0.117   4.660
 6111TIP3    H118276   8.218   0.045   4.724
 6111TIP3    H218277   8.164   0.084   4.588
 6112TIP3   OH218278   3.723   0.050   5.568
 6112TIP3    H118279   3.796   0.101   5.603
 6112TIP3    H218280   3.645   0.098   5.597
 6113TIP3   OH218281   3.336   6.140   3.658
 6113TIP3    H118282   3.383   6.166   3.578
 6113TIP3    H218283   3.354   6.047   3.667
 6114TIP3   OH218284   0.069   6.652   6.303
 6114TIP3    H118285   0.124   6.573   6.302
 6114TIP3    H218286   0.098   6.702   6.226
 6115TIP3   OH218287   3.689   0.652   5.029
 6115TIP3    H118288   3.749   0.727   5.037
 6115TIP3    H218289   3.602   0.691   5.021
 6116TIP3   OH218290   0.604   1.130   4.098
 6116TIP3    H118291   0.581   1.215   4.136
 6116TIP3    H218292   0.580   1.139   4.005
 6117TIP3   OH218293   8.081   0.246   1.018
 6117TIP3    H118294   8.087   0.166   0.965
 6117TIP3    H218295   8.117   0.314   0.962
 6118TIP3   OH218296   7.072   2.709   0.816
 6118TIP3    H118297   7.091   2.696   0.909
 6118TIP3    H218298   6.998   2.651   0.798
 6119TIP3   OH218299   3.553   0.732   5.549
 6119TIP3    H118300   3.613   0.731   5.623
 6119TIP3    H218301   3.514   0.644   5.549
 6120TIP3   OH218302   5.876   1.179   5.584
 6120TIP3    H118303   5.815   1.148   5.650
 6120TIP3    H218304   5.878   1.108   5.519
 6121TIP3   OH218305   6.154   2.127   2.724
 6121TIP3    H118306   6.100   2.083   2.790
 6121TIP3    H218307   6.204   2.057   2.683
 6122TIP3   OH218308   2.307   4.473   5.845
 6122TIP3    H118309   2.213   4.465   5.856
 6122TIP3    H218310   2.342   4.392   5.883
 6123TIP3   OH218311   5.478   0.386   0.680
 6123TIP3    H118312   5.418   0.334   0.626
 6123TIP3    H218313   5.445   0.376   0.769
 6124TIP3   OH218314   2.642   2.452   5.166
 6124TIP3    H118315   2.705   2.402   5.115
 6124TIP3    H218316   2.563   2.453   5.112
 6125TIP3   OH218317   5.162   5.853   3.388
 6125TIP3    H118318   5.156   5.912   3.463
 6125TIP3    H218319   5.072   5.834   3.364
 6126TIP3   OH218320   4.429   7.777   5.326
 6126TIP3    H118321   4.490   7.738   5.389
 6126TIP3    H218322   4.456   7.742   5.241
 6127TIP3   OH218323   1.298   2.347   5.842
 6127TIP3    H118324   1.281   2.318   5.931
 6127TIP3    H218325   1.354   2.424   5.852
 6128TIP3   OH218326   6.312   5.248   6.649
 6128TIP3    H118327   6.384   5.259   6.712
 6128TIP3    H218328   6.244   5.307   6.681
 6129TIP3   OH218329   4.893   7.190   4.270
 6129TIP3    H118330   4.898   7.170   4.363
 6129TIP3    H218331   4.829   7.129   4.235
 6130TIP3   OH218332   4.814   0.116   2.302
 6130TIP3    H118333   4.741   0.060   2.273
 6130TIP3    H218334   4.869   0.058   2.354
 6131TIP3   OH218335   5.191   6.602   5.950
 6131TIP3    H118336   5.252   6.572   5.883
 6131TIP3    H218337   5.114   6.546   5.939
 6132TIP3   OH218338   5.514   6.969   5.870
 6132TIP3    H118339   5.566   7.031   5.922
 6132TIP3    H218340   5.572   6.894   5.857
 6133TIP3   OH218341   3.933   1.290   2.702
 6133TIP3    H118342   3.955   1.240   2.623
 6133TIP3    H218343   3.999   1.265   2.766
 6134TIP3   OH218344   0.049   5.499   3.192
 6134TIP3    H118345   0.095   5.542   3.264
 6134TIP3    H218346   0.117   5.484   3.126
 6135TIP3   OH218347   6.910   7.311   0.160
 6135TIP3    H118348   6.879   7.401   0.174
 6135TIP3    H218349   7.004   7.319   0.148
 6136TIP3   OH218350   0.663   4.935   3.818
 6136TIP3    H118351   0.705   4.999   3.762
 6136TIP3    H218352   0.569   4.952   3.808
 6137TIP3   OH218353   0.713   7.249   3.632
 6137TIP3    H118354   0.796   7.273   3.671
 6137TIP3    H218355   0.647   7.297   3.683
 6138TIP3   OH218356   4.285   3.162   0.522
 6138TIP3    H118357   4.239   3.135   0.601
 6138TIP3    H218358   4.215   3.192   0.463
 6139TIP3   OH218359   6.968   7.273   6.583
 6139TIP3    H118360   6.885   7.226   6.573
 6139TIP3    H218361   6.994   7.256   6.674
 6140TIP3   OH218362   5.866   7.558   3.220
 6140TIP3    H118363   5.945   7.604   3.192
 6140TIP3    H218364   5.810   7.556   3.141
 6141TIP3   OH218365   2.701   4.010   0.864
 6141TIP3    H118366   2.756   4.081   0.899
 6141TIP3    H218367   2.629   4.055   0.820
 6142TIP3   OH218368   1.992   5.471   6.046
 6142TIP3    H118369   2.024   5.560   6.059
 6142TIP3    H218370   2.062   5.427   5.998
 6143TIP3   OH218371   3.563   1.093   6.309
 6143TIP3    H118372   3.631   1.158   6.326
 6143TIP3    H218373   3.607   1.009   6.314
 6144TIP3   OH218374   4.444   5.519   6.610
 6144TIP3    H118375   4.514   5.583   6.596
 6144TIP3    H218376   4.422   5.528   6.703
 6145TIP3   OH218377   6.621   5.419   6.037
 6145TIP3    H118378   6.586   5.394   5.951
 6145TIP3    H218379   6.680   5.492   6.019
 6146TIP3   OH218380   8.239   4.688   0.187
 6146TIP3    H118381   8.282   4.613   0.229
 6146TIP3    H218382   8.146   4.670   0.195
 6147TIP3   OH218383   4.801   3.514   1.965
 6147TIP3    H118384   4.837   3.602   1.976
 6147TIP3    H218385   4.720   3.526   1.917
 6148TIP3   OH218386   4.076   7.081   6.506
 6148TIP3    H118387   4.095   7.038   6.423
 6148TIP3    H218388   4.103   7.018   6.573
 6149TIP3   OH218389   8.278   1.522   0.611
 6149TIP3    H118390   8.267   1.435   0.648
 6149TIP3    H218391   8.201   1.571   0.640
 6150TIP3   OH218392   3.105   7.216   1.728
 6150TIP3    H118393   3.103   7.163   1.808
 6150TIP3    H218394   3.035   7.280   1.740
 6151TIP3   OH218395   0.628   4.216   4.714
 6151TIP3    H118396   0.679   4.278   4.660
 6151TIP3    H218397   0.672   4.217   4.799
 6152TIP3   OH218398   4.028   7.330   6.405
 6152TIP3    H118399   4.032   7.241   6.439
 6152TIP3    H218400   4.067   7.324   6.317
 6153TIP3   OH218401   6.559   4.901   1.707
 6153TIP3    H118402   6.627   4.925   1.770
 6153TIP3    H218403   6.604   4.848   1.641
 6154TIP3   OH218404   5.436   2.793   2.768
 6154TIP3    H118405   5.513   2.827   2.722
 6154TIP3    H218406   5.392   2.738   2.703
 6155TIP3   OH218407   8.249   0.222   3.416
 6155TIP3    H118408   8.163   0.183   3.434
 6155TIP3    H218409   8.236   0.274   3.338
 6156TIP3   OH218410   4.206   1.033   0.697
 6156TIP3    H118411   4.130   1.049   0.753
 6156TIP3    H218412   4.232   0.943   0.716
 6157TIP3   OH218413   2.892   1.731   5.101
 6157TIP3    H118414   2.799   1.721   5.082
 6157TIP3    H218415   2.910   1.666   5.169
 6158TIP3   OH218416   2.297   1.567   3.224
 6158TIP3    H118417   2.301   1.516   3.143
 6158TIP3    H218418   2.316   1.656   3.197
 6159TIP3   OH218419   1.319   2.168   1.778
 6159TIP3    H118420   1.332   2.108   1.704
 6159TIP3    H218421   1.313   2.112   1.854
 6160TIP3   OH218422   5.287   6.804   0.233
 6160TIP3    H118423   5.360   6.758   0.275
 6160TIP3    H218424   5.315   6.814   0.142
 6161TIP3   OH218425   1.004   3.066   5.047
 6161TIP3    H118426   0.912   3.073   5.071
 6161TIP3    H218427   1.004   3.067   4.951
 6162TIP3   OH218428   6.337   5.066   4.186
 6162TIP3    H118429   6.242   5.076   4.179
 6162TIP3    H218430   6.351   4.971   4.185
 6163TIP3   OH218431   1.911   3.716   0.467
 6163TIP3    H118432   1.828   3.717   0.513
 6163TIP3    H218433   1.889   3.695   0.377
 6164TIP3   OH218434   6.326   0.146   3.503
 6164TIP3    H118435   6.325   0.197   3.422
 6164TIP3    H218436   6.312   0.209   3.572
 6165TIP3   OH218437   0.237   7.726   3.451
 6165TIP3    H118438   0.280   7.681   3.378
 6165TIP3    H218439   0.286   7.807   3.460
 6166TIP3   OH218440   6.946   1.225   1.086
 6166TIP3    H118441   6.884   1.228   1.013
 6166TIP3    H218442   6.991   1.309   1.082
 6167TIP3   OH218443   5.219   3.864   0.185
 6167TIP3    H118444   5.126   3.866   0.205
 6167TIP3    H218445   5.253   3.945   0.223
 6168TIP3   OH218446   0.280   2.122   2.819
 6168TIP3    H118447   0.372   2.120   2.846
 6168TIP3    H218448   0.251   2.211   2.838
 6169TIP3   OH218449   4.193   2.238   3.118
 6169TIP3    H118450   4.230   2.153   3.141
 6169TIP3    H218451   4.105   2.238   3.155
 6170TIP3   OH218452   1.699   2.202   3.261
 6170TIP3    H118453   1.762   2.253   3.210
 6170TIP3    H218454   1.748   2.124   3.288
 6171TIP3   OH218455   5.377   4.506   6.634
 6171TIP3    H118456   5.305   4.564   6.662
 6171TIP3    H218457   5.436   4.563   6.585
 6172TIP3   OH218458   3.626   3.801   1.324
 6172TIP3    H118459   3.683   3.875   1.307
 6172TIP3    H218460   3.543   3.840   1.351
 6173TIP3   OH218461   7.966   1.339   4.405
 6173TIP3    H118462   7.918   1.347   4.488
 6173TIP3    H218463   7.913   1.280   4.352
 6174TIP3   OH218464   2.334   7.720   3.601
 6174TIP3    H118465   2.403   7.730   3.667
 6174TIP3    H218466   2.256   7.758   3.642
 6175TIP3   OH218467   1.110   2.906   4.769
 6175TIP3    H118468   1.156   2.963   4.707
 6175TIP3    H218469   1.173   2.836   4.787
 6176TIP3   OH218470   0.013   1.122   4.769
 6176TIP3    H118471   0.108   1.114   4.776
 6176TIP3    H218472  -0.004   1.119   4.675
 6177TIP3   OH218473   5.012   6.872   1.463
 6177TIP3    H118474   5.064   6.875   1.544
 6177TIP3    H218475   4.969   6.787   1.466
 6178TIP3   OH218476   2.480   6.272   5.008
 6178TIP3    H118477   2.436   6.330   4.946
 6178TIP3    H218478   2.457   6.306   5.094
 6179TIP3   OH218479   7.382   2.546   2.634
 6179TIP3    H118480   7.309   2.506   2.682
 6179TIP3    H218481   7.410   2.619   2.689
 6180TIP3   OH218482   5.874   3.186   3.294
 6180TIP3    H118483   5.787   3.215   3.268
 6180TIP3    H218484   5.924   3.267   3.305
 6181TIP3   OH218485   5.511   3.564   5.287
 6181TIP3    H118486   5.431   3.520   5.257
 6181TIP3    H218487   5.569   3.492   5.312
 6182TIP3   OH218488   0.462   2.569   1.050
 6182TIP3    H118489   0.473   2.627   0.974
 6182TIP3    H218490   0.427   2.488   1.014
 6183TIP3   OH218491   2.898   3.197   2.839
 6183TIP3    H118492   2.849   3.268   2.881
 6183TIP3    H218493   2.890   3.215   2.746
 6184TIP3   OH218494   7.300   7.819   5.905
 6184TIP3    H118495   7.371   7.794   5.964
 6184TIP3    H218496   7.288   7.742   5.849
 6185TIP3   OH218497   1.377   1.884   4.701
 6185TIP3    H118498   1.373   1.814   4.635
 6185TIP3    H218499   1.301   1.868   4.757
 6186TIP3   OH218500   3.881   4.294   2.087
 6186TIP3    H118501   3.802   4.269   2.041
 6186TIP3    H218502   3.951   4.243   2.045
 6187TIP3   OH218503   7.669   4.374   0.081
 6187TIP3    H118504   7.737   4.379   0.014
 6187TIP3    H218505   7.599   4.322   0.041
 6188TIP3   OH218506   4.513   4.691   5.367
 6188TIP3    H118507   4.467   4.616   5.404
 6188TIP3    H218508   4.455   4.766   5.386
 6189TIP3   OH218509   5.501   3.908   3.488
 6189TIP3    H118510   5.477   3.997   3.515
 6189TIP3    H218511   5.524   3.917   3.395
 6190TIP3   OH218512   4.864   2.998   2.951
 6190TIP3    H118513   4.782   2.957   2.926
 6190TIP3    H218514   4.906   2.935   3.009
 6191TIP3   OH218515   1.197   6.352   0.158
 6191TIP3    H118516   1.230   6.379   0.244
 6191TIP3    H218517   1.104   6.376   0.160
 6192TIP3   OH218518   3.119   0.343   3.391
 6192TIP3    H118519   3.155   0.418   3.440
 6192TIP3    H218520   3.178   0.334   3.316
 6193TIP3   OH218521   7.988   2.776   5.555
 6193TIP3    H118522   7.927   2.756   5.626
 6193TIP3    H218523   8.030   2.858   5.582
 6194TIP3   OH218524   3.050   1.583   0.455
 6194TIP3    H118525   3.047   1.540   0.370
 6194TIP3    H218526   3.053   1.676   0.435
 6195TIP3   OH218527   7.796   3.538   5.480
 6195TIP3    H118528   7.876   3.489   5.494
 6195TIP3    H218529   7.758   3.549   5.567
 6196TIP3   OH218530   0.049   2.006   6.511
 6196TIP3    H118531   0.065   2.083   6.456
 6196TIP3    H218532   0.048   2.040   6.600
 6197TIP3   OH218533   1.437   5.495   3.259
 6197TIP3    H118534   1.473   5.412   3.228
 6197TIP3    H218535   1.512   5.554   3.261
 6198TIP3   OH218536   5.436   2.415   3.200
 6198TIP3    H118537   5.443   2.457   3.286
 6198TIP3    H218538   5.430   2.322   3.219
 6199TIP3   OH218539   7.934   7.223   4.128
 6199TIP3    H118540   7.958   7.178   4.209
 6199TIP3    H218541   7.838   7.224   4.129
 6200TIP3   OH218542   7.742   2.513   1.528
 6200TIP3    H118543   7.771   2.434   1.575
 6200TIP3    H218544   7.659   2.488   1.488
 6201TIP3   OH218545   5.470   1.404   3.848
 6201TIP3    H118546   5.385   1.425   3.809
 6201TIP3    H218547   5.453   1.330   3.906
 6202TIP3   OH218548   6.235   0.040   0.384
 6202TIP3    H118549   6.284  -0.040   0.402
 6202TIP3    H218550   6.189   0.021   0.302
 6203TIP3   OH218551   4.959   1.798   0.511
 6203TIP3    H118552   4.894   1.869   0.513
 6203TIP3    H218553   4.925   1.732   0.572
 6204TIP3   OH218554   1.300   6.004   3.584
 6204TIP3    H118555   1.283   6.093   3.616
 6204TIP3    H218556   1.266   5.947   3.653
 6205TIP3   OH218557   2.644   6.779   4.496
 6205TIP3    H118558   2.737   6.793   4.518
 6205TIP3    H218559   2.635   6.817   4.409
 6206TIP3   OH218560   2.232   4.196   6.727
 6206TIP3    H118561   2.202   4.217   6.638
 6206TIP3    H218562   2.231   4.280   6.773
 6207TIP3   OH218563   1.662   0.502   6.340
 6207TIP3    H118564   1.627   0.590   6.352
 6207TIP3    H218565   1.594   0.455   6.291
 6208TIP3   OH218566   5.013   5.308   6.281
 6208TIP3    H118567   5.015   5.307   6.377
 6208TIP3    H218568   5.060   5.387   6.257
 6209TIP3   OH218569   5.489   3.189   4.618
 6209TIP3    H118570   5.443   3.108   4.596
 6209TIP3    H218571   5.582   3.168   4.607
 6210TIP3   OH218572   1.107   2.799   1.396
 6210TIP3    H118573   1.115   2.726   1.458
 6210TIP3    H218574   1.190   2.846   1.405
 6211TIP3   OH218575   4.326   5.799   6.330
 6211TIP3    H118576   4.394   5.731   6.334
 6211TIP3    H218577   4.265   5.776   6.400
 6212TIP3   OH218578   7.856   4.955   0.109
 6212TIP3    H118579   7.823   5.042   0.086
 6212TIP3    H218580   7.861   4.956   0.205
 6213TIP3   OH218581   7.558   5.792   1.670
 6213TIP3    H118582   7.611   5.770   1.594
 6213TIP3    H218583   7.526   5.708   1.703
 6214TIP3   OH218584   3.519   0.691   2.949
 6214TIP3    H118585   3.578   0.617   2.942
 6214TIP3    H218586   3.569   0.759   2.993
 6215TIP3   OH218587   2.612   1.610   1.145
 6215TIP3    H118588   2.700   1.578   1.125
 6215TIP3    H218589   2.569   1.535   1.187
 6216TIP3   OH218590   6.131   0.699   4.879
 6216TIP3    H118591   6.222   0.726   4.869
 6216TIP3    H218592   6.111   0.715   4.971
 6217TIP3   OH218593   0.995   3.716   5.276
 6217TIP3    H118594   0.997   3.630   5.233
 6217TIP3    H218595   1.088   3.738   5.286
 6218TIP3   OH218596   2.807   2.934   6.049
 6218TIP3    H118597   2.784   3.022   6.019
 6218TIP3    H218598   2.843   2.890   5.972
 6219TIP3   OH218599   0.107   0.437   1.588
 6219TIP3    H118600   0.013   0.422   1.591
 6219TIP3    H218601   0.141   0.399   1.669
 6220TIP3   OH218602   5.088   4.019   1.358
 6220TIP3    H118603   5.174   4.008   1.318
 6220TIP3    H218604   5.107   4.034   1.451
 6221TIP3   OH218605   7.620   3.506   3.577
 6221TIP3    H118606   7.638   3.417   3.547
 6221TIP3    H218607   7.644   3.506   3.669
 6222TIP3   OH218608   7.035   1.470   4.847
 6222TIP3    H118609   6.947   1.504   4.864
 6222TIP3    H218610   7.080   1.542   4.801
 6223TIP3   OH218611   4.571   2.604   1.456
 6223TIP3    H118612   4.664   2.611   1.478
 6223TIP3    H218613   4.554   2.510   1.452
 6224TIP3   OH218614   6.352   0.976   0.419
 6224TIP3    H118615   6.290   1.049   0.406
 6224TIP3    H218616   6.369   0.976   0.513
 6225TIP3   OH218617   7.597   4.723   5.505
 6225TIP3    H118618   7.593   4.772   5.587
 6225TIP3    H218619   7.602   4.791   5.437
 6226TIP3   OH218620   2.911   2.414   0.561
 6226TIP3    H118621   2.928   2.497   0.607
 6226TIP3    H218622   2.994   2.367   0.565
 6227TIP3   OH218623   5.517   2.639   1.105
 6227TIP3    H118624   5.478   2.719   1.070
 6227TIP3    H218625   5.542   2.661   1.194
 6228TIP3   OH218626   0.222   4.245   5.882
 6228TIP3    H118627   0.227   4.300   5.961
 6228TIP3    H218628   0.214   4.308   5.811
 6229TIP3   OH218629   2.874   7.734   2.704
 6229TIP3    H118630   2.951   7.789   2.716
 6229TIP3    H218631   2.831   7.769   2.626
 6230TIP3   OH218632   3.151   7.130   1.243
 6230TIP3    H118633   3.161   7.061   1.179
 6230TIP3    H218634   3.131   7.084   1.325
 6231TIP3   OH218635   1.394   4.721   1.426
 6231TIP3    H118636   1.483   4.751   1.409
 6231TIP3    H218637   1.404   4.651   1.490
 6232TIP3   OH218638   3.990   3.286   0.267
 6232TIP3    H118639   3.967   3.379   0.270
 6232TIP3    H218640   3.913   3.241   0.300
 6233TIP3   OH218641   2.993   2.588   5.671
 6233TIP3    H118642   2.900   2.596   5.650
 6233TIP3    H218643   3.000   2.504   5.716
 6234TIP3   OH218644   0.346   0.529   1.100
 6234TIP3    H118645   0.376   0.512   1.189
 6234TIP3    H218646   0.310   0.446   1.070
 6235TIP3   OH218647   5.193   7.190   1.495
 6235TIP3    H118648   5.165   7.214   1.583
 6235TIP3    H218649   5.271   7.136   1.510
 6236TIP3   OH218650   1.734   4.511   0.330
 6236TIP3    H118651   1.717   4.512   0.236
 6236TIP3    H218652   1.815   4.461   0.339
 6237TIP3   OH218653   6.039   4.682   0.226
 6237TIP3    H118654   6.076   4.738   0.294
 6237TIP3    H218655   6.053   4.730   0.145
 6238TIP3   OH218656   3.281   0.958   6.472
 6238TIP3    H118657   3.306   0.874   6.509
 6238TIP3    H218658   3.337   0.968   6.395
 6239TIP3   OH218659   5.485   1.209   1.107
 6239TIP3    H118660   5.446   1.187   1.022
 6239TIP3    H218661   5.542   1.134   1.127
 6240TIP3   OH218662   1.533   1.069   5.627
 6240TIP3    H118663   1.605   1.117   5.667
 6240TIP3    H218664   1.454   1.112   5.660
 6241TIP3   OH218665   8.090   0.601   6.294
 6241TIP3    H118666   8.025   0.542   6.255
 6241TIP3    H218667   8.169   0.588   6.241
 6242TIP3   OH218668   3.498   0.170   4.296
 6242TIP3    H118669   3.455   0.091   4.330
 6242TIP3    H218670   3.590   0.147   4.292
 6243TIP3   OH218671   2.439   1.699   6.142
 6243TIP3    H118672   2.349   1.703   6.174
 6243TIP3    H218673   2.432   1.658   6.056
 6244TIP3   OH218674   1.525   3.243   2.225
 6244TIP3    H118675   1.440   3.261   2.265
 6244TIP3    H218676   1.527   3.148   2.213
 6245TIP3   OH218677   5.898   3.570   0.798
 6245TIP3    H118678   5.982   3.608   0.826
 6245TIP3    H218679   5.875   3.619   0.720
 6246TIP3   OH218680   4.594   4.453   2.733
 6246TIP3    H118681   4.601   4.477   2.641
 6246TIP3    H218682   4.658   4.383   2.745
 6247TIP3   OH218683   0.836   6.840   2.837
 6247TIP3    H118684   0.827   6.827   2.743
 6247TIP3    H218685   0.924   6.808   2.857
 6248TIP3   OH218686   0.676   7.446   2.364
 6248TIP3    H118687   0.634   7.531   2.376
 6248TIP3    H218688   0.735   7.438   2.439
 6249TIP3   OH218689   4.998   0.828   0.828
 6249TIP3    H118690   5.072   0.775   0.801
 6249TIP3    H218691   5.003   0.830   0.924
 6250TIP3   OH218692   1.152   6.659   2.704
 6250TIP3    H118693   1.149   6.743   2.750
 6250TIP3    H218694   1.239   6.657   2.663
 6251TIP3   OH218695   1.263   6.478   1.476
 6251TIP3    H118696   1.263   6.565   1.437
 6251TIP3    H218697   1.240   6.493   1.568
 6252TIP3   OH218698   1.871   3.759   0.978
 6252TIP3    H118699   1.922   3.689   0.937
 6252TIP3    H218700   1.782   3.747   0.945
 6253TIP3   OH218701   4.399   7.782   6.484
 6253TIP3    H118702   4.434   7.755   6.399
 6253TIP3    H218703   4.309   7.810   6.466
 6254TIP3   OH218704   0.457   2.821   3.345
 6254TIP3    H118705   0.490   2.752   3.288
 6254TIP3    H218706   0.364   2.801   3.356
 6255TIP3   OH218707   6.634   3.632   5.655
 6255TIP3    H118708   6.680   3.630   5.740
 6255TIP3    H218709   6.633   3.725   5.631
 6256TIP3   OH218710   5.003   6.973   0.191
 6256TIP3    H118711   4.984   7.045   0.130
 6256TIP3    H218712   5.097   6.961   0.185
 6257TIP3   OH218713   2.018   2.566   3.276
 6257TIP3    H118714   2.019   2.657   3.246
 6257TIP3    H218715   1.958   2.567   3.351
 6258TIP3   OH218716   1.597   3.202   3.727
 6258TIP3    H118717   1.564   3.113   3.717
 6258TIP3    H218718   1.666   3.209   3.660
 6259TIP3   OH218719   6.524   0.752   2.754
 6259TIP3    H118720   6.583   0.753   2.679
 6259TIP3    H218721   6.480   0.667   2.749
 6260TIP3   OH218722   6.432   0.434   6.142
 6260TIP3    H118723   6.515   0.428   6.093
 6260TIP3    H218724   6.440   0.515   6.192
 6261TIP3   OH218725   6.746   5.694   6.756
 6261TIP3    H118726   6.660   5.735   6.765
 6261TIP3    H218727   6.797   5.729   6.829
 6262TIP3   OH218728   6.705   6.494   1.009
 6262TIP3    H118729   6.739   6.569   1.057
 6262TIP3    H218730   6.616   6.519   0.985
 6263TIP3   OH218731   3.828   0.012   2.883
 6263TIP3    H118732   3.767   0.075   2.921
 6263TIP3    H218733   3.883   0.063   2.825
 6264TIP3   OH218734   2.333   4.040   2.632
 6264TIP3    H118735   2.396   4.026   2.562
 6264TIP3    H218736   2.347   3.966   2.691
 6265TIP3   OH218737   3.530   5.903   2.778
 6265TIP3    H118738   3.579   5.821   2.781
 6265TIP3    H218739   3.533   5.930   2.686
 6266TIP3   OH218740   3.415   1.272   0.498
 6266TIP3    H118741   3.331   1.307   0.529
 6266TIP3    H218742   3.391   1.194   0.447
 6267TIP3   OH218743   3.663   5.153   4.093
 6267TIP3    H118744   3.722   5.225   4.115
 6267TIP3    H218745   3.711   5.074   4.117
 6268TIP3   OH218746   7.035   5.474   4.385
 6268TIP3    H118747   6.997   5.457   4.471
 6268TIP3    H218748   7.086   5.395   4.365
 6269TIP3   OH218749   2.039   5.077   4.598
 6269TIP3    H118750   1.977   5.128   4.547
 6269TIP3    H218751   1.985   5.024   4.656
 6270TIP3   OH218752   5.826  -0.001   5.050
 6270TIP3    H118753   5.802   0.045   5.130
 6270TIP3    H218754   5.776   0.042   4.981
 6271TIP3   OH218755   3.121   0.107   2.128
 6271TIP3    H118756   3.135   0.117   2.034
 6271TIP3    H218757   3.040   0.057   2.136
 6272TIP3   OH218758   7.786   2.052   5.134
 6272TIP3    H118759   7.838   2.076   5.210
 6272TIP3    H218760   7.696   2.076   5.158
 6273TIP3   OH218761   0.240   5.275   3.992
 6273TIP3    H118762   0.282   5.234   3.917
 6273TIP3    H218763   0.234   5.205   4.057
 6274TIP3   OH218764   0.756   0.808   4.934
 6274TIP3    H118765   0.816   0.862   4.883
 6274TIP3    H218766   0.674   0.809   4.885
 6275TIP3   OH218767   2.437   5.746   6.071
 6275TIP3    H118768   2.447   5.651   6.062
 6275TIP3    H218769   2.521   5.782   6.044
 6276TIP3   OH218770   6.804   1.835   0.146
 6276TIP3    H118771   6.885   1.798   0.111
 6276TIP3    H218772   6.739   1.819   0.077
 6277TIP3   OH218773   0.408   7.603   3.296
 6277TIP3    H118774   0.468   7.529   3.285
 6277TIP3    H218775   0.460   7.679   3.272
 6278TIP3   OH218776   1.596   7.618   1.642
 6278TIP3    H118777   1.592   7.671   1.722
 6278TIP3    H218778   1.534   7.547   1.656
 6279TIP3   OH218779   1.851   3.907   3.914
 6279TIP3    H118780   1.783   3.895   3.980
 6279TIP3    H218781   1.894   3.821   3.909
 6280TIP3   OH218782   4.664   3.486   5.082
 6280TIP3    H118783   4.711   3.403   5.069
 6280TIP3    H218784   4.651   3.521   4.994
 6281TIP3   OH218785   0.639   6.066   3.708
 6281TIP3    H118786   0.589   5.985   3.703
 6281TIP3    H218787   0.622   6.100   3.796
 6282TIP3   OH218788   5.360   6.028   3.608
 6282TIP3    H118789   5.268   6.012   3.587
 6282TIP3    H218790   5.381   6.109   3.561
 6283TIP3   OH218791   1.957   7.676   5.247
 6283TIP3    H118792   1.906   7.625   5.183
 6283TIP3    H218793   1.918   7.653   5.331
 6284TIP3   OH218794   4.086   3.175   2.210
 6284TIP3    H118795   4.161   3.192   2.154
 6284TIP3    H218796   4.011   3.176   2.151
 6285TIP3   OH218797   8.263   7.184   6.205
 6285TIP3    H118798   8.282   7.202   6.297
 6285TIP3    H218799   8.343   7.142   6.172
 6286TIP3   OH218800   4.606   3.799   1.798
 6286TIP3    H118801   4.603   3.820   1.891
 6286TIP3    H218802   4.590   3.705   1.794
 6287TIP3   OH218803   7.816   2.266   4.053
 6287TIP3    H118804   7.756   2.331   4.017
 6287TIP3    H218805   7.820   2.197   3.987
 6288TIP3   OH218806   0.632   3.781   1.741
 6288TIP3    H118807   0.620   3.873   1.715
 6288TIP3    H218808   0.626   3.732   1.659
 6289TIP3   OH218809   3.276   4.328   3.593
 6289TIP3    H118810   3.316   4.321   3.506
 6289TIP3    H218811   3.350   4.318   3.654
 6290TIP3   OH218812   0.884   1.416   6.436
 6290TIP3    H118813   0.913   1.498   6.397
 6290TIP3    H218814   0.937   1.407   6.515
 6291TIP3   OH218815   3.155   0.596   3.227
 6291TIP3    H118816   3.123   0.608   3.317
 6291TIP3    H218817   3.199   0.511   3.229
 6292TIP3   OH218818   2.762   2.584   2.622
 6292TIP3    H118819   2.809   2.518   2.572
 6292TIP3    H218820   2.810   2.591   2.704
 6293TIP3   OH218821   3.941   2.866   3.800
 6293TIP3    H118822   3.853   2.895   3.778
 6293TIP3    H218823   3.940   2.857   3.896
 6294TIP3   OH218824   6.352   4.962   0.529
 6294TIP3    H118825   6.379   4.875   0.556
 6294TIP3    H218826   6.335   5.008   0.612
 6295TIP3   OH218827   2.389   2.850   4.312
 6295TIP3    H118828   2.484   2.859   4.300
 6295TIP3    H218829   2.378   2.760   4.344
 6296TIP3   OH218830   8.230   6.557   3.464
 6296TIP3    H118831   8.243   6.652   3.467
 6296TIP3    H218832   8.308   6.524   3.420
 6297TIP3   OH218833   1.423   6.396   4.109
 6297TIP3    H118834   1.415   6.428   4.199
 6297TIP3    H218835   1.381   6.464   4.056
 6298TIP3   OH218836   2.319   1.362   3.057
 6298TIP3    H118837   2.272   1.282   3.035
 6298TIP3    H218838   2.355   1.392   2.974
 6299TIP3   OH218839   1.672   5.951   5.270
 6299TIP3    H118840   1.581   5.925   5.258
 6299TIP3    H218841   1.722   5.870   5.267
 6300TIP3   OH218842   7.030   1.738   5.614
 6300TIP3    H118843   7.002   1.722   5.704
 6300TIP3    H218844   7.074   1.657   5.588
 6301TIP3   OH218845   1.072   3.026   6.493
 6301TIP3    H118846   1.138   3.043   6.560
 6301TIP3    H218847   1.039   2.939   6.514
 6302TIP3   OH218848   4.612   5.226   1.620
 6302TIP3    H118849   4.679   5.196   1.682
 6302TIP3    H218850   4.575   5.145   1.585
 6303TIP3   OH218851   3.319   6.486   0.609
 6303TIP3    H118852   3.301   6.548   0.680
 6303TIP3    H218853   3.316   6.539   0.530
 6304TIP3   OH218854   6.393   3.905   5.886
 6304TIP3    H118855   6.321   3.883   5.945
 6304TIP3    H218856   6.389   3.838   5.817
 6305TIP3   OH218857   0.924   7.483   5.048
 6305TIP3    H118858   0.829   7.476   5.047
 6305TIP3    H218859   0.955   7.398   5.016
 6306TIP3   OH218860   0.891   4.827   1.782
 6306TIP3    H118861   0.906   4.733   1.772
 6306TIP3    H218862   0.956   4.856   1.846
 6307TIP3   OH218863   3.915   1.769   3.272
 6307TIP3    H118864   3.840   1.711   3.283
 6307TIP3    H218865   3.988   1.711   3.254
 6308TIP3   OH218866   0.497   4.081   2.124
 6308TIP3    H118867   0.411   4.105   2.090
 6308TIP3    H218868   0.559   4.134   2.075
 6309TIP3   OH218869   5.640   0.787   1.115
 6309TIP3    H118870   5.713   0.839   1.082
 6309TIP3    H218871   5.611   0.736   1.039
 6310TIP3   OH218872   7.756   0.206   5.912
 6310TIP3    H118873   7.667   0.185   5.885
 6310TIP3    H218874   7.746   0.272   5.981
 6311TIP3   OH218875   1.854   0.797   6.722
 6311TIP3    H118876   1.841   0.874   6.777
 6311TIP3    H218877   1.894   0.732   6.780
 6312TIP3   OH218878   2.917   2.641   0.712
 6312TIP3    H118879   2.941   2.702   0.642
 6312TIP3    H218880   2.983   2.656   0.780
 6313TIP3   OH218881   5.196   5.175   6.034
 6313TIP3    H118882   5.137   5.210   6.101
 6313TIP3    H218883   5.209   5.084   6.058
 6314TIP3   OH218884   8.066   1.784   6.771
 6314TIP3    H118885   8.078   1.858   6.710
 6314TIP3    H218886   8.026   1.823   6.848
 6315TIP3   OH218887   0.909   1.725   6.671
 6315TIP3    H118888   0.846   1.679   6.616
 6315TIP3    H218889   0.862   1.802   6.703
 6316TIP3   OH218890   3.880   0.487   4.912
 6316TIP3    H118891   3.835   0.404   4.894
 6316TIP3    H218892   3.814   0.540   4.957
 6317TIP3   OH218893   2.408   6.786   5.906
 6317TIP3    H118894   2.390   6.790   5.812
 6317TIP3    H218895   2.498   6.756   5.913
 6318TIP3   OH218896   1.821   6.179   6.195
 6318TIP3    H118897   1.888   6.231   6.240
 6318TIP3    H218898   1.798   6.111   6.258
 6319TIP3   OH218899   4.697   1.351   2.332
 6319TIP3    H118900   4.723   1.265   2.299
 6319TIP3    H218901   4.771   1.381   2.384
 6320TIP3   OH218902   4.923   5.220   5.079
 6320TIP3    H118903   4.845   5.274   5.095
 6320TIP3    H218904   4.974   5.228   5.159
 6321TIP3   OH218905   5.406   5.391   5.117
 6321TIP3    H118906   5.468   5.459   5.144
 6321TIP3    H218907   5.398   5.403   5.023
 6322TIP3   OH218908   2.197   2.251   2.487
 6322TIP3    H118909   2.152   2.246   2.572
 6322TIP3    H218910   2.288   2.271   2.509
 6323TIP3   OH218911   4.381   7.767   2.177
 6323TIP3    H118912   4.411   7.818   2.253
 6323TIP3    H218913   4.462   7.735   2.137
 6324TIP3   OH218914   8.055   3.395   1.009
 6324TIP3    H118915   8.034   3.339   1.083
 6324TIP3    H218916   8.006   3.476   1.025
 6325TIP3   OH218917   1.076   4.515   2.562
 6325TIP3    H118918   1.102   4.600   2.597
 6325TIP3    H218919   1.115   4.510   2.476
 6326TIP3   OH218920   0.282   6.933   3.113
 6326TIP3    H118921   0.334   6.858   3.085
 6326TIP3    H218922   0.205   6.894   3.156
 6327TIP3   OH218923   5.868   5.193   5.450
 6327TIP3    H118924   5.906   5.111   5.419
 6327TIP3    H218925   5.820   5.228   5.375
 6328TIP3   OH218926   5.179   2.659   3.032
 6328TIP3    H118927   5.192   2.597   3.104
 6328TIP3    H218928   5.155   2.604   2.957
 6329TIP3   OH218929   3.497   1.186   3.196
 6329TIP3    H118930   3.503   1.135   3.277
 6329TIP3    H218931   3.576   1.162   3.148
 6330TIP3   OH218932   4.760   7.674   0.862
 6330TIP3    H118933   4.679   7.631   0.889
 6330TIP3    H218934   4.734   7.730   0.789
 6331TIP3   OH218935   4.600   3.694   4.513
 6331TIP3    H118936   4.558   3.744   4.583
 6331TIP3    H218937   4.655   3.758   4.467
 6332TIP3   OH218938   3.297   3.961   0.862
 6332TIP3    H118939   3.310   3.870   0.889
 6332TIP3    H218940   3.209   3.982   0.892
 6333TIP3   OH218941   1.410   1.699   1.455
 6333TIP3    H118942   1.481   1.722   1.395
 6333TIP3    H218943   1.357   1.637   1.406
 6334TIP3   OH218944   4.208   0.857   4.487
 6334TIP3    H118945   4.131   0.890   4.533
 6334TIP3    H218946   4.255   0.806   4.552
 6335TIP3   OH218947   7.629   6.620   0.817
 6335TIP3    H118948   7.640   6.681   0.745
 6335TIP3    H218949   7.603   6.538   0.775
 6336TIP3   OH218950   1.657   3.400   0.725
 6336TIP3    H118951   1.569   3.390   0.760
 6336TIP3    H218952   1.669   3.495   0.717
 6337TIP3   OH218953   3.912   7.507   3.902
 6337TIP3    H118954   3.920   7.541   3.813
 6337TIP3    H218955   3.889   7.414   3.890
 6338TIP3   OH218956   6.202   5.777   2.531
 6338TIP3    H118957   6.114   5.773   2.495
 6338TIP3    H218958   6.191   5.817   2.618
 6339TIP3   OH218959   8.154   2.242   3.184
 6339TIP3    H118960   8.200   2.302   3.125
 6339TIP3    H218961   8.085   2.295   3.223
 6340TIP3   OH218962   0.492   3.603   6.102
 6340TIP3    H118963   0.504   3.581   6.010
 6340TIP3    H218964   0.571   3.569   6.145
 6341TIP3   OH218965   6.299   1.262   5.330
 6341TIP3    H118966   6.211   1.250   5.365
 6341TIP3    H218967   6.302   1.354   5.305
 6342TIP3   OH218968   5.935   6.813   2.077
 6342TIP3    H118969   5.890   6.752   2.136
 6342TIP3    H218970   5.993   6.863   2.135
 6343TIP3   OH218971   4.835   0.467   2.030
 6343TIP3    H118972   4.913   0.513   2.063
 6343TIP3    H218973   4.767   0.486   2.094
 6344TIP3   OH218974   0.855   7.754   6.609
 6344TIP3    H118975   0.920   7.814   6.645
 6344TIP3    H218976   0.908   7.688   6.563
 6345TIP3   OH218977   0.833   2.152   5.429
 6345TIP3    H118978   0.741   2.125   5.429
 6345TIP3    H218979   0.843   2.206   5.507
 6346TIP3   OH218980   7.021   7.725   3.083
 6346TIP3    H118981   6.982   7.753   3.166
 6346TIP3    H218982   7.114   7.716   3.102
 6347TIP3   OH218983   4.383   6.630   0.599
 6347TIP3    H118984   4.288   6.621   0.604
 6347TIP3    H218985   4.404   6.608   0.508
 6348TIP3   OH218986   3.348   0.209   2.287
 6348TIP3    H118987   3.348   0.304   2.271
 6348TIP3    H218988   3.289   0.174   2.219
 6349TIP3   OH218989   3.407   4.198   3.001
 6349TIP3    H118990   3.397   4.291   2.978
 6349TIP3    H218991   3.372   4.151   2.926
 6350TIP3   OH218992   6.337   4.511   4.671
 6350TIP3    H118993   6.249   4.535   4.700
 6350TIP3    H218994   6.385   4.493   4.751
 6351TIP3   OH218995   0.323   7.229   4.278
 6351TIP3    H118996   0.232   7.213   4.303
 6351TIP3    H218997   0.320   7.313   4.231
 6352TIP3   OH218998   5.984   1.528   2.370
 6352TIP3    H118999   6.001   1.439   2.340
 6352TIP3    H219000   5.893   1.546   2.343
 6353TIP3   OH219001   2.174   2.232   5.192
 6353TIP3    H119002   2.116   2.308   5.183
 6353TIP3    H219003   2.120   2.165   5.233
 6354TIP3   OH219004   7.496   2.219   6.619
 6354TIP3    H119005   7.505   2.173   6.703
 6354TIP3    H219006   7.424   2.281   6.633
 6355TIP3   OH219007   6.135   6.791   6.348
 6355TIP3    H119008   6.205   6.841   6.389
 6355TIP3    H219009   6.156   6.791   6.254
 6356TIP3   OH219010   1.268   2.293   6.287
 6356TIP3    H119011   1.218   2.318   6.364
 6356TIP3    H219012   1.213   2.319   6.213
 6357TIP3   OH219013   4.156   1.848   1.879
 6357TIP3    H119014   4.140   1.942   1.872
 6357TIP3    H219015   4.121   1.825   1.966
 6358TIP3   OH219016   5.452   4.401   3.350
 6358TIP3    H119017   5.433   4.484   3.393
 6358TIP3    H219018   5.418   4.411   3.261
 6359TIP3   OH219019   7.199   4.912   1.442
 6359TIP3    H119020   7.214   4.874   1.528
 6359TIP3    H219021   7.248   4.856   1.382
 6360TIP3   OH219022   0.125   0.886   1.352
 6360TIP3    H119023   0.122   0.808   1.408
 6360TIP3    H219024   0.208   0.878   1.304
 6361TIP3   OH219025   6.122   2.070   4.917
 6361TIP3    H119026   6.038   2.066   4.963
 6361TIP3    H219027   6.099   2.091   4.827
 6362TIP3   OH219028   3.890   5.359   3.770
 6362TIP3    H119029   3.879   5.454   3.778
 6362TIP3    H219030   3.921   5.332   3.857
 6363TIP3   OH219031   4.586   4.508   2.463
 6363TIP3    H119032   4.522   4.567   2.502
 6363TIP3    H219033   4.587   4.531   2.370
 6364TIP3   OH219034   3.182   4.492   4.405
 6364TIP3    H119035   3.256   4.541   4.441
 6364TIP3    H219036   3.128   4.559   4.362
 6365TIP3   OH219037   0.379   2.051   1.904
 6365TIP3    H119038   0.461   2.099   1.902
 6365TIP3    H219039   0.363   2.033   1.997
 6366TIP3   OH219040   7.752   5.409   1.124
 6366TIP3    H119041   7.677   5.374   1.173
 6366TIP3    H219042   7.822   5.346   1.139
 6367TIP3   OH219043   5.069   0.344   2.316
 6367TIP3    H119044   5.071   0.420   2.258
 6367TIP3    H219045   5.016   0.280   2.270
 6368TIP3   OH219046   7.470   6.783   3.938
 6368TIP3    H119047   7.488   6.809   3.847
 6368TIP3    H219048   7.378   6.805   3.951
 6369TIP3   OH219049   2.177   4.498   6.227
 6369TIP3    H119050   2.213   4.579   6.192
 6369TIP3    H219051   2.141   4.523   6.312
 6370TIP3   OH219052   5.146   3.461   0.166
 6370TIP3    H119053   5.229   3.479   0.122
 6370TIP3    H219054   5.156   3.371   0.198
 6371TIP3   OH219055   5.953   2.029   1.427
 6371TIP3    H119056   6.024   2.012   1.365
 6371TIP3    H219057   5.874   1.999   1.381
 6372TIP3   OH219058   5.600   4.672   6.541
 6372TIP3    H119059   5.615   4.680   6.447
 6372TIP3    H219060   5.668   4.727   6.581
 6373TIP3   OH219061   7.522   3.860   3.553
 6373TIP3    H119062   7.448   3.887   3.607
 6373TIP3    H219063   7.483   3.833   3.470
 6374TIP3   OH219064   6.867   4.253   6.568
 6374TIP3    H119065   6.876   4.225   6.477
 6374TIP3    H219066   6.809   4.189   6.608
 6375TIP3   OH219067   1.905   6.615   1.668
 6375TIP3    H119068   1.971   6.556   1.629
 6375TIP3    H219069   1.822   6.584   1.633
 6376TIP3   OH219070   3.580   6.961   4.214
 6376TIP3    H119071   3.504   6.904   4.226
 6376TIP3    H219072   3.655   6.902   4.221
 6377TIP3   OH219073   4.296   0.541   4.269
 6377TIP3    H119074   4.387   0.522   4.295
 6377TIP3    H219075   4.304   0.613   4.207
 6378TIP3   OH219076   2.501   4.810   6.317
 6378TIP3    H119077   2.485   4.900   6.291
 6378TIP3    H219078   2.421   4.783   6.363
 6379TIP3   OH219079   7.461   2.019   2.095
 6379TIP3    H119080   7.397   1.959   2.133
 6379TIP3    H219081   7.502   1.969   2.025
 6380TIP3   OH219082   7.686   1.012   3.763
 6380TIP3    H119083   7.771   1.056   3.754
 6380TIP3    H219084   7.708   0.920   3.774
 6381TIP3   OH219085   4.580   1.367   6.100
 6381TIP3    H119086   4.675   1.373   6.111
 6381TIP3    H219087   4.563   1.274   6.087
 6382TIP3   OH219088   1.409   5.840   5.323
 6382TIP3    H119089   1.410   5.761   5.268
 6382TIP3    H219090   1.353   5.817   5.397
 6383TIP3   OH219091   5.851   1.919   1.654
 6383TIP3    H119092   5.801   1.995   1.683
 6383TIP3    H219093   5.888   1.946   1.570
 6384TIP3   OH219094   1.946   7.569   2.983
 6384TIP3    H119095   1.862   7.603   2.952
 6384TIP3    H219096   1.929   7.537   3.071
 6385TIP3   OH219097   2.883   4.018   5.839
 6385TIP3    H119098   2.938   4.072   5.896
 6385TIP3    H219099   2.802   4.005   5.888
 6386TIP3   OH219100   4.601   6.840   1.802
 6386TIP3    H119101   4.604   6.931   1.773
 6386TIP3    H219102   4.688   6.805   1.783
 6387TIP3   OH219103   1.622   4.468   0.054
 6387TIP3    H119104   1.611   4.414  -0.024
 6387TIP3    H219105   1.611   4.558   0.024
 6388TIP3   OH219106   5.774   7.257   5.337
 6388TIP3    H119107   5.861   7.232   5.304
 6388TIP3    H219108   5.786   7.345   5.372
 6389TIP3   OH219109   7.299   3.283   0.235
 6389TIP3    H119110   7.231   3.344   0.207
 6389TIP3    H219111   7.371   3.296   0.174
 6390TIP3   OH219112   0.587   2.307   1.722
 6390TIP3    H119113   0.608   2.262   1.804
 6390TIP3    H219114   0.631   2.391   1.729
 6391TIP3   OH219115   4.828   4.985   4.955
 6391TIP3    H119116   4.825   5.028   5.040
 6391TIP3    H219117   4.789   5.048   4.895
 6392TIP3   OH219118   7.589   0.404   4.152
 6392TIP3    H119119   7.554   0.323   4.190
 6392TIP3    H219120   7.627   0.451   4.226
 6393TIP3   OH219121   7.140   1.641   6.536
 6393TIP3    H119122   7.085   1.565   6.514
 6393TIP3    H219123   7.138   1.695   6.457
 6394TIP3   OH219124   0.927   3.410   1.073
 6394TIP3    H119125   0.885   3.493   1.049
 6394TIP3    H219126   0.913   3.403   1.167
 6395TIP3   OH219127   1.091   2.793   0.867
 6395TIP3    H119128   1.049   2.810   0.951
 6395TIP3    H219129   1.044   2.850   0.805
 6396TIP3   OH219130   1.198   6.906   4.527
 6396TIP3    H119131   1.116   6.954   4.528
 6396TIP3    H219132   1.202   6.864   4.613
 6397TIP3   OH219133   3.393   1.755   0.144
 6397TIP3    H119134   3.370   1.671   0.102
 6397TIP3    H219135   3.441   1.729   0.222
 6398TIP3   OH219136   2.206   3.697   3.308
 6398TIP3    H119137   2.245   3.624   3.260
 6398TIP3    H219138   2.279   3.734   3.359
 6399TIP3   OH219139   7.708   0.714   2.252
 6399TIP3    H119140   7.651   0.770   2.306
 6399TIP3    H219141   7.753   0.658   2.315
 6400TIP3   OH219142   7.013   5.713   2.354
 6400TIP3    H119143   6.922   5.701   2.326
 6400TIP3    H219144   7.010   5.706   2.449
 6401TIP3   OH219145   6.938   5.493   4.655
 6401TIP3    H119146   7.011   5.543   4.693
 6401TIP3    H219147   6.878   5.480   4.729
 6402TIP3   OH219148   5.004   2.161   3.099
 6402TIP3    H119149   5.050   2.182   3.180
 6402TIP3    H219150   4.967   2.074   3.115
 6403TIP3   OH219151   1.670   5.783   4.762
 6403TIP3    H119152   1.645   5.710   4.819
 6403TIP3    H219153   1.700   5.740   4.681
 6404TIP3   OH219154   3.906   3.250   0.652
 6404TIP3    H119155   3.914   3.292   0.738
 6404TIP3    H219156   3.951   3.166   0.663
 6405TIP3   OH219157   1.075   3.181   4.235
 6405TIP3    H119158   1.046   3.268   4.206
 6405TIP3    H219159   1.044   3.174   4.325
 6406TIP3   OH219160   2.622   6.169   5.332
 6406TIP3    H119161   2.633   6.252   5.285
 6406TIP3    H219162   2.529   6.166   5.354
 6407TIP3   OH219163   4.320   0.284   5.606
 6407TIP3    H119164   4.300   0.369   5.567
 6407TIP3    H219165   4.354   0.232   5.534
 6408TIP3   OH219166   1.788   7.414   3.152
 6408TIP3    H119167   1.762   7.346   3.091
 6408TIP3    H219168   1.717   7.418   3.216
 6409TIP3   OH219169   5.515   4.734   5.680
 6409TIP3    H119170   5.608   4.712   5.685
 6409TIP3    H219171   5.484   4.730   5.771
 6410TIP3   OH219172   1.643   7.607   2.049
 6410TIP3    H119173   1.710   7.645   1.991
 6410TIP3    H219174   1.569   7.668   2.043
 6411TIP3   OH219175   3.597   0.708   3.496
 6411TIP3    H119176   3.590   0.626   3.546
 6411TIP3    H219177   3.647   0.684   3.418
 6412TIP3   OH219178   1.041   4.704   0.060
 6412TIP3    H119179   1.047   4.790   0.020
 6412TIP3    H219180   1.132   4.681   0.081
 6413TIP3   OH219181   1.062   5.147   0.064
 6413TIP3    H119182   1.125   5.217   0.080
 6413TIP3    H219183   1.034   5.119   0.151
 6414TIP3   OH219184   2.738   6.403   3.671
 6414TIP3    H119185   2.757   6.497   3.667
 6414TIP3    H219186   2.719   6.386   3.764
 6415TIP3   OH219187   2.120   1.249   2.855
 6415TIP3    H119188   2.089   1.181   2.915
 6415TIP3    H219189   2.071   1.327   2.880
 6416TIP3   OH219190   0.772   7.676   3.409
 6416TIP3    H119191   0.858   7.671   3.452
 6416TIP3    H219192   0.718   7.725   3.471
 6417TIP3   OH219193   1.354   3.590   4.455
 6417TIP3    H119194   1.341   3.516   4.395
 6417TIP3    H219195   1.311   3.562   4.536
 6418TIP3   OH219196   3.757   6.463   2.037
 6418TIP3    H119197   3.828   6.528   2.029
 6418TIP3    H219198   3.797   6.390   2.084
 6419TIP3   OH219199   5.952   6.612   5.974
 6419TIP3    H119200   5.873   6.652   6.009
 6419TIP3    H219201   6.017   6.683   5.974
 6420TIP3   OH219202   1.854   2.810   2.529
 6420TIP3    H119203   1.865   2.824   2.623
 6420TIP3    H219204   1.771   2.853   2.509
 6421TIP3   OH219205   3.466   5.667   6.481
 6421TIP3    H119206   3.485   5.684   6.573
 6421TIP3    H219207   3.429   5.579   6.481
 6422TIP3   OH219208   1.117   2.389   5.619
 6422TIP3    H119209   1.157   2.404   5.533
 6422TIP3    H219210   1.191   2.373   5.677
 6423TIP3   OH219211   1.423   1.063   2.736
 6423TIP3    H119212   1.474   1.093   2.811
 6423TIP3    H219213   1.354   1.128   2.725
 6424TIP3   OH219214   5.377   2.936   4.167
 6424TIP3    H119215   5.469   2.923   4.147
 6424TIP3    H219216   5.330   2.886   4.101
 6425TIP3   OH219217   2.089   6.701   0.493
 6425TIP3    H119218   2.052   6.684   0.580
 6425TIP3    H219219   2.096   6.797   0.489
 6426TIP3   OH219220   5.850   0.402   4.913
 6426TIP3    H119221   5.762   0.437   4.899
 6426TIP3    H219222   5.871   0.425   5.003
 6427TIP3   OH219223   3.443   0.610   4.493
 6427TIP3    H119224   3.366   0.575   4.448
 6427TIP3    H219225   3.415   0.695   4.526
 6428TIP3   OH219226   6.858   0.393   3.178
 6428TIP3    H119227   6.824   0.475   3.142
 6428TIP3    H219228   6.891   0.346   3.101
 6429TIP3   OH219229   6.873   6.665   6.056
 6429TIP3    H119230   6.945   6.673   5.994
 6429TIP3    H219231   6.796   6.647   6.003
 6430TIP3   OH219232   1.198   1.967   2.596
 6430TIP3    H119233   1.256   1.931   2.528
 6430TIP3    H219234   1.254   2.028   2.645
 6431TIP3   OH219235   1.388   6.468   0.903
 6431TIP3    H119236   1.474   6.439   0.931
 6431TIP3    H219237   1.344   6.494   0.984
 6432TIP3   OH219238   7.309   7.152   2.675
 6432TIP3    H119239   7.218   7.128   2.657
 6432TIP3    H219240   7.316   7.242   2.643
 6433TIP3   OH219241   5.784   6.402   6.007
 6433TIP3    H119242   5.852   6.464   5.980
 6433TIP3    H219243   5.705   6.435   5.965
 6434TIP3   OH219244   2.372   1.298   5.323
 6434TIP3    H119245   2.361   1.270   5.232
 6434TIP3    H219246   2.304   1.252   5.370
 6435TIP3   OH219247   1.190   6.440   1.084
 6435TIP3    H119248   1.155   6.522   1.120
 6435TIP3    H219249   1.136   6.423   1.007
 6436TIP3   OH219250   4.789   0.226   4.901
 6436TIP3    H119251   4.807   0.132   4.903
 6436TIP3    H219252   4.863   0.264   4.855
 6437TIP3   OH219253   3.394   3.297   6.374
 6437TIP3    H119254   3.428   3.288   6.285
 6437TIP3    H219255   3.456   3.250   6.429
 6438TIP3   OH219256   3.940   2.830   3.076
 6438TIP3    H119257   3.846   2.847   3.074
 6438TIP3    H219258   3.980   2.916   3.088
 6439TIP3   OH219259   7.774   2.545   6.159
 6439TIP3    H119260   7.769   2.451   6.143
 6439TIP3    H219261   7.683   2.575   6.159
 6440TIP3   OH219262   0.310   2.586   3.036
 6440TIP3    H119263   0.295   2.672   2.997
 6440TIP3    H219264   0.355   2.536   2.968
 6441TIP3   OH219265   0.980   0.387   3.200
 6441TIP3    H119266   1.058   0.401   3.254
 6441TIP3    H219267   0.959   0.474   3.166
 6442TIP3   OH219268   1.263   1.663   5.917
 6442TIP3    H119269   1.197   1.702   5.859
 6442TIP3    H219270   1.261   1.569   5.898
 6443TIP3   OH219271   7.359   6.315   2.080
 6443TIP3    H119272   7.396   6.398   2.111
 6443TIP3    H219273   7.433   6.269   2.042
 6444TIP3   OH219274   0.532   7.507   4.054
 6444TIP3    H119275   0.579   7.489   4.135
 6444TIP3    H219276   0.557   7.597   4.031
 6445TIP3   OH219277   2.528   6.802   2.168
 6445TIP3    H119278   2.436   6.781   2.183
 6445TIP3    H219279   2.566   6.721   2.134
 6446TIP3   OH219280   6.037   0.849   6.466
 6446TIP3    H119281   5.972   0.842   6.396
 6446TIP3    H219282   6.071   0.760   6.476
 6447TIP3   OH219283   4.894   2.371   2.953
 6447TIP3    H119284   4.903   2.288   2.999
 6447TIP3    H219285   4.870   2.434   3.021
 6448TIP3   OH219286   5.297   6.237   5.720
 6448TIP3    H119287   5.235   6.303   5.690
 6448TIP3    H219288   5.309   6.180   5.643
 6449TIP3   OH219289   5.505   2.666   5.583
 6449TIP3    H119290   5.525   2.676   5.490
 6449TIP3    H219291   5.574   2.610   5.617
 6450TIP3   OH219292   4.139   0.935   6.496
 6450TIP3    H119293   4.190   1.009   6.530
 6450TIP3    H219294   4.079   0.975   6.433
 6451TIP3   OH219295   3.296   5.174   3.896
 6451TIP3    H119296   3.377   5.225   3.894
 6451TIP3    H219297   3.297   5.130   3.980
 6452TIP3   OH219298   2.448   1.879   0.179
 6452TIP3    H119299   2.456   1.824   0.257
 6452TIP3    H219300   2.483   1.964   0.206
 6453TIP3   OH219301   8.245   6.591   2.627
 6453TIP3    H119302   8.339   6.605   2.644
 6453TIP3    H219303   8.206   6.585   2.714
 6454TIP3   OH219304   5.980   6.407   4.306
 6454TIP3    H119305   5.927   6.486   4.311
 6454TIP3    H219306   5.981   6.385   4.213
 6455TIP3   OH219307   7.571   1.437   6.656
 6455TIP3    H119308   7.504   1.382   6.695
 6455TIP3    H219309   7.524   1.515   6.626
 6456TIP3   OH219310   4.204   6.740   4.914
 6456TIP3    H119311   4.190   6.655   4.872
 6456TIP3    H219312   4.289   6.769   4.881
 6457TIP3   OH219313   1.850   2.239   1.377
 6457TIP3    H119314   1.930   2.231   1.429
 6457TIP3    H219315   1.781   2.248   1.442
 6458TIP3   OH219316   4.097   4.975   0.151
 6458TIP3    H119317   4.115   4.916   0.224
 6458TIP3    H219318   4.174   4.965   0.094
 6459TIP3   OH219319   8.072   6.478   1.095
 6459TIP3    H119320   7.986   6.478   1.053
 6459TIP3    H219321   8.052   6.478   1.189
 6460TIP3   OH219322   2.932   6.327   4.153
 6460TIP3    H119323   2.910   6.418   4.170
 6460TIP3    H219324   2.904   6.280   4.232
 6461TIP3   OH219325   4.838   2.299   0.440
 6461TIP3    H119326   4.785   2.319   0.363
 6461TIP3    H219327   4.797   2.349   0.510
 6462TIP3   OH219328   3.601   3.816   4.894
 6462TIP3    H119329   3.612   3.768   4.812
 6462TIP3    H219330   3.557   3.898   4.869
 6463TIP3   OH219331   0.364   1.594   3.124
 6463TIP3    H119332   0.307   1.654   3.076
 6463TIP3    H219333   0.400   1.535   3.058
 6464TIP3   OH219334   3.713   0.415   1.479
 6464TIP3    H119335   3.622   0.393   1.497
 6464TIP3    H219336   3.763   0.343   1.517
 6465TIP3   OH219337   4.193   5.804   3.480
 6465TIP3    H119338   4.232   5.745   3.416
 6465TIP3    H219339   4.228   5.891   3.457
 6466TIP3   OH219340   6.645   3.468   5.273
 6466TIP3    H119341   6.712   3.529   5.243
 6466TIP3    H219342   6.672   3.383   5.237
 6467TIP3   OH219343   2.516   3.408   6.205
 6467TIP3    H119344   2.486   3.383   6.118
 6467TIP3    H219345   2.509   3.503   6.206
 6468TIP3   OH219346   8.056   6.757   4.543
 6468TIP3    H119347   7.999   6.689   4.578
 6468TIP3    H219348   8.018   6.778   4.457
 6469TIP3   OH219349   5.769   0.594   0.838
 6469TIP3    H119350   5.836   0.529   0.814
 6469TIP3    H219351   5.787   0.669   0.782
 6470TIP3   OH219352   1.148   0.789   1.679
 6470TIP3    H119353   1.187   0.771   1.593
 6470TIP3    H219354   1.113   0.704   1.707
 6471TIP3   OH219355   6.891   5.917   3.117
 6471TIP3    H119356   6.920   5.905   3.208
 6471TIP3    H219357   6.970   5.904   3.065
 6472TIP3   OH219358   1.451   1.199   1.281
 6472TIP3    H119359   1.526   1.143   1.263
 6472TIP3    H219360   1.375   1.141   1.276
 6473TIP3   OH219361   8.138   0.394   4.612
 6473TIP3    H119362   8.173   0.321   4.663
 6473TIP3    H219363   8.214   0.448   4.593
 6474TIP3   OH219364   6.158   3.637   0.587
 6474TIP3    H119365   6.150   3.629   0.682
 6474TIP3    H219366   6.251   3.628   0.570
 6475TIP3   OH219367   5.079   4.065   1.885
 6475TIP3    H119368   5.105   3.979   1.850
 6475TIP3    H219369   5.017   4.044   1.955
 6476TIP3   OH219370   4.612   5.029   4.292
 6476TIP3    H119371   4.656   5.112   4.308
 6476TIP3    H219372   4.672   4.981   4.234
 6477TIP3   OH219373   0.324   2.381   5.260
 6477TIP3    H119374   0.384   2.319   5.301
 6477TIP3    H219375   0.380   2.453   5.231
 6478TIP3   OH219376   2.245   6.545   0.243
 6478TIP3    H119377   2.280   6.533   0.154
 6478TIP3    H219378   2.182   6.616   0.235
 6479TIP3   OH219379   7.058   0.261   2.650
 6479TIP3    H119380   7.064   0.166   2.661
 6479TIP3    H219381   6.968   0.282   2.676
 6480TIP3   OH219382   7.686   2.853   0.437
 6480TIP3    H119383   7.684   2.948   0.424
 6480TIP3    H219384   7.688   2.817   0.348
 6481TIP3   OH219385   8.093   7.158   3.307
 6481TIP3    H119386   8.070   7.085   3.364
 6481TIP3    H219387   8.019   7.167   3.247
 6482TIP3   OH219388   2.188   2.333   4.273
 6482TIP3    H119389   2.258   2.393   4.248
 6482TIP3    H219390   2.107   2.382   4.256
 6483TIP3   OH219391   3.312   3.090   0.055
 6483TIP3    H119392   3.236   3.043   0.019
 6483TIP3    H219393   3.360   3.023   0.104
 6484TIP3   OH219394   5.112   7.202   6.723
 6484TIP3    H119395   5.117   7.109   6.701
 6484TIP3    H219396   5.133   7.206   6.816
 6485TIP3   OH219397   3.917   2.678   6.407
 6485TIP3    H119398   3.916   2.750   6.344
 6485TIP3    H219399   3.830   2.639   6.399
 6486TIP3   OH219400   7.360   3.953   3.760
 6486TIP3    H119401   7.422   3.965   3.831
 6486TIP3    H219402   7.290   3.900   3.797
 6487TIP3   OH219403   6.073   6.285   0.064
 6487TIP3    H119404   6.100   6.199   0.097
 6487TIP3    H219405   6.055   6.270  -0.028
 6488TIP3   OH219406   3.415   7.678   6.530
 6488TIP3    H119407   3.467   7.632   6.463
 6488TIP3    H219408   3.338   7.710   6.483
 6489TIP3   OH219409   0.448   2.112   5.683
 6489TIP3    H119410   0.542   2.093   5.674
 6489TIP3    H219411   0.445   2.200   5.720
 6490TIP3   OH219412   5.581   4.203   5.153
 6490TIP3    H119413   5.608   4.139   5.087
 6490TIP3    H219414   5.531   4.152   5.217
 6491TIP3   OH219415   0.988   5.227   3.463
 6491TIP3    H119416   0.950   5.292   3.404
 6491TIP3    H219417   0.998   5.148   3.410
 6492TIP3   OH219418   7.690   5.431   6.692
 6492TIP3    H119419   7.716   5.357   6.636
 6492TIP3    H219420   7.636   5.391   6.760
 6493TIP3   OH219421   6.975   4.254   2.652
 6493TIP3    H119422   6.898   4.209   2.686
 6493TIP3    H219423   6.998   4.206   2.572
 6494TIP3   OH219424   1.466   5.703   6.669
 6494TIP3    H119425   1.415   5.630   6.705
 6494TIP3    H219426   1.538   5.661   6.622
 6495TIP3   OH219427   2.382   5.637   3.527
 6495TIP3    H119428   2.291   5.643   3.557
 6495TIP3    H219429   2.427   5.587   3.596
 6496TIP3   OH219430   6.853   5.806   5.217
 6496TIP3    H119431   6.888   5.742   5.155
 6496TIP3    H219432   6.844   5.756   5.299
 6497TIP3   OH219433   8.160   2.409   5.739
 6497TIP3    H119434   8.237   2.370   5.780
 6497TIP3    H219435   8.122   2.465   5.807
 6498TIP3   OH219436   2.825   4.393   5.928
 6498TIP3    H119437   2.753   4.351   5.882
 6498TIP3    H219438   2.848   4.468   5.873
 6499TIP3   OH219439   7.277   0.801   0.652
 6499TIP3    H119440   7.277   0.784   0.558
 6499TIP3    H219441   7.186   0.822   0.672
 6500TIP3   OH219442   4.700   7.169   5.416
 6500TIP3    H119443   4.794   7.174   5.396
 6500TIP3    H219444   4.692   7.210   5.502
 6501TIP3   OH219445   1.440   0.780   2.795
 6501TIP3    H119446   1.493   0.852   2.827
 6501TIP3    H219447   1.358   0.821   2.767
 6502TIP3   OH219448   8.236   2.065   0.873
 6502TIP3    H119449   8.168   2.097   0.814
 6502TIP3    H219450   8.289   2.006   0.819
 6503TIP3   OH219451   0.093   1.981   3.705
 6503TIP3    H119452   0.148   1.903   3.708
 6503TIP3    H219453   0.004   1.948   3.724
 6504TIP3   OH219454   3.666   3.011   6.117
 6504TIP3    H119455   3.758   3.036   6.125
 6504TIP3    H219456   3.668   2.915   6.115
 6505TIP3   OH219457   6.350   3.709   6.199
 6505TIP3    H119458   6.361   3.669   6.285
 6505TIP3    H219459   6.415   3.665   6.143
 6506TIP3   OH219460   0.483   4.594   1.282
 6506TIP3    H119461   0.529   4.564   1.361
 6506TIP3    H219462   0.419   4.524   1.265
 6507TIP3   OH219463   8.326   1.095   3.489
 6507TIP3    H119464   8.368   1.096   3.575
 6507TIP3    H219465   8.268   1.171   3.489
 6508TIP3   OH219466   6.261   4.436   4.232
 6508TIP3    H119467   6.350   4.428   4.198
 6508TIP3    H219468   6.271   4.427   4.327
 6509TIP3   OH219469   6.308   1.995   5.481
 6509TIP3    H119470   6.274   2.007   5.392
 6509TIP3    H219471   6.402   1.978   5.468
 6510TIP3   OH219472   4.133   7.209   4.445
 6510TIP3    H119473   4.122   7.268   4.371
 6510TIP3    H219474   4.043   7.191   4.474
 6511TIP3   OH219475   0.125   6.323   5.086
 6511TIP3    H119476   0.155   6.409   5.057
 6511TIP3    H219477   0.040   6.312   5.044
 6512TIP3   OH219478   2.525   4.909   3.591
 6512TIP3    H119479   2.593   4.911   3.658
 6512TIP3    H219480   2.536   4.824   3.548
 6513TIP3   OH219481   5.940   5.912   3.373
 6513TIP3    H119482   6.009   5.971   3.342
 6513TIP3    H219483   5.982   5.826   3.375
 6514TIP3   OH219484   6.277   1.853   4.978
 6514TIP3    H119485   6.230   1.936   4.972
 6514TIP3    H219486   6.304   1.834   4.889
 6515TIP3   OH219487   6.564   3.375   4.717
 6515TIP3    H119488   6.545   3.298   4.664
 6515TIP3    H219489   6.656   3.365   4.742
 6516TIP3   OH219490   6.977   5.991   1.731
 6516TIP3    H119491   6.954   5.946   1.812
 6516TIP3    H219492   6.911   5.962   1.668
 6517TIP3   OH219493   4.562   4.239   1.153
 6517TIP3    H119494   4.509   4.169   1.194
 6517TIP3    H219495   4.499   4.308   1.133
 6518TIP3   OH219496   3.769   4.393   2.836
 6518TIP3    H119497   3.840   4.449   2.869
 6518TIP3    H219498   3.809   4.344   2.765
 6519TIP3   OH219499   4.457   1.880   5.662
 6519TIP3    H119500   4.389   1.942   5.635
 6519TIP3    H219501   4.430   1.797   5.622
 6520TIP3   OH219502   6.023   4.433   2.816
 6520TIP3    H119503   5.964   4.370   2.775
 6520TIP3    H219504   6.002   4.517   2.776
 6521TIP3   OH219505   7.934   5.767   3.648
 6521TIP3    H119506   7.991   5.775   3.572
 6521TIP3    H219507   7.948   5.848   3.697
 6522TIP3   OH219508   6.803   0.396   0.646
 6522TIP3    H119509   6.740   0.390   0.717
 6522TIP3    H219510   6.765   0.343   0.576
 6523TIP3   OH219511   2.220   5.406   5.888
 6523TIP3    H119512   2.253   5.320   5.916
 6523TIP3    H219513   2.298   5.459   5.876
 6524TIP3   OH219514   8.288   7.730   0.652
 6524TIP3    H119515   8.300   7.642   0.687
 6524TIP3    H219516   8.307   7.721   0.559
 6525TIP3   OH219517   4.223   6.146   4.029
 6525TIP3    H119518   4.239   6.051   4.023
 6525TIP3    H219519   4.132   6.152   4.057
 6526TIP3   OH219520   0.847   1.514   6.048
 6526TIP3    H119521   0.777   1.464   6.089
 6526TIP3    H219522   0.818   1.605   6.054
 6527TIP3   OH219523   4.750   3.499   2.454
 6527TIP3    H119524   4.834   3.540   2.474
 6527TIP3    H219525   4.704   3.496   2.538
 6528TIP3   OH219526   5.345   6.514   5.744
 6528TIP3    H119527   5.437   6.527   5.723
 6528TIP3    H219528   5.298   6.537   5.664
 6529TIP3   OH219529   1.504   5.234   5.333
 6529TIP3    H119530   1.410   5.234   5.355
 6529TIP3    H219531   1.544   5.181   5.401
 6530TIP3   OH219532   5.875   1.305   2.185
 6530TIP3    H119533   5.783   1.319   2.207
 6530TIP3    H219534   5.904   1.237   2.246
 6531TIP3   OH219535   0.924   6.246   1.869
 6531TIP3    H119536   0.857   6.219   1.932
 6531TIP3    H219537   0.940   6.338   1.890
 6532TIP3   OH219538   2.723   6.486   6.396
 6532TIP3    H119539   2.653   6.473   6.332
 6532TIP3    H219540   2.687   6.452   6.478
 6533TIP3   OH219541   1.501   1.916   2.077
 6533TIP3    H119542   1.425   1.957   2.035
 6533TIP3    H219543   1.567   1.913   2.008
 6534TIP3   OH219544   0.928   3.464   6.012
 6534TIP3    H119545   1.014   3.426   6.029
 6534TIP3    H219546   0.938   3.512   5.931
 6535TIP3   OH219547   8.221   7.793   4.794
 6535TIP3    H119548   8.230   7.702   4.767
 6535TIP3    H219549   8.226   7.790   4.890
 6536TIP3   OH219550   2.327   1.619   1.442
 6536TIP3    H119551   2.278   1.553   1.393
 6536TIP3    H219552   2.335   1.693   1.382
 6537TIP3   OH219553   1.883   5.963   5.749
 6537TIP3    H119554   1.922   6.000   5.828
 6537TIP3    H219555   1.935   5.884   5.731
 6538TIP3   OH219556   0.736   0.876   5.775
 6538TIP3    H119557   0.825   0.891   5.807
 6538TIP3    H219558   0.738   0.903   5.684
 6539TIP3   OH219559   4.943   4.721   0.656
 6539TIP3    H119560   4.857   4.739   0.696
 6539TIP3    H219561   4.995   4.799   0.677
 6540TIP3   OH219562   0.268   1.115   6.576
 6540TIP3    H119563   0.200   1.055   6.547
 6540TIP3    H219564   0.228   1.164   6.648
 6541TIP3   OH219565   3.788   4.942   3.212
 6541TIP3    H119566   3.799   4.923   3.119
 6541TIP3    H219567   3.856   5.006   3.232
 6542TIP3   OH219568   6.175   6.391   5.482
 6542TIP3    H119569   6.270   6.383   5.480
 6542TIP3    H219570   6.149   6.392   5.390
 6543TIP3   OH219571   5.424   4.597   6.223
 6543TIP3    H119572   5.483   4.522   6.214
 6543TIP3    H219573   5.481   4.672   6.238
 6544TIP3   OH219574   6.014   6.094   6.589
 6544TIP3    H119575   5.961   6.053   6.521
 6544TIP3    H219576   6.070   6.156   6.541
 6545TIP3   OH219577   6.829   3.598   1.481
 6545TIP3    H119578   6.744   3.580   1.519
 6545TIP3    H219579   6.844   3.525   1.421
 6546TIP3   OH219580   6.212   3.538   5.875
 6546TIP3    H119581   6.307   3.528   5.885
 6546TIP3    H219582   6.198   3.541   5.780
 6547TIP3   OH219583   1.138   1.725   2.010
 6547TIP3    H119584   1.155   1.678   2.092
 6547TIP3    H219585   1.052   1.764   2.022
 6548TIP3   OH219586   2.399   6.570   0.589
 6548TIP3    H119587   2.426   6.654   0.551
 6548TIP3    H219588   2.430   6.504   0.527
 6549TIP3   OH219589   4.193   2.618   1.603
 6549TIP3    H119590   4.231   2.664   1.528
 6549TIP3    H219591   4.099   2.639   1.599
 6550TIP3   OH219592   6.852   5.256   6.387
 6550TIP3    H119593   6.899   5.180   6.351
 6550TIP3    H219594   6.918   5.326   6.389
 6551TIP3   OH219595   1.952   2.010   6.573
 6551TIP3    H119596   1.874   1.967   6.538
 6551TIP3    H219597   2.025   1.972   6.524
 6552TIP3   OH219598   2.474   0.317   6.034
 6552TIP3    H119599   2.464   0.324   6.128
 6552TIP3    H219600   2.565   0.341   6.017
 6553TIP3   OH219601   5.597   4.083   4.901
 6553TIP3    H119602   5.677   4.114   4.859
 6553TIP3    H219603   5.548   4.041   4.831
 6554TIP3   OH219604   3.210   4.896   1.018
 6554TIP3    H119605   3.284   4.836   1.029
 6554TIP3    H219606   3.209   4.916   0.925
 6555TIP3   OH219607   7.959   4.134   4.386
 6555TIP3    H119608   7.964   4.133   4.482
 6555TIP3    H219609   7.901   4.061   4.365
 6556TIP3   OH219610   3.995   4.609   4.560
 6556TIP3    H119611   4.057   4.536   4.551
 6556TIP3    H219612   4.042   4.684   4.525
 6557TIP3   OH219613   0.892   5.253   4.177
 6557TIP3    H119614   0.861   5.172   4.137
 6557TIP3    H219615   0.813   5.292   4.216
 6558TIP3   OH219616   6.460   1.352   0.868
 6558TIP3    H119617   6.539   1.303   0.846
 6558TIP3    H219618   6.415   1.297   0.933
 6559TIP3   OH219619   2.014   1.144   1.731
 6559TIP3    H119620   1.946   1.204   1.701
 6559TIP3    H219621   1.984   1.115   1.817
 6560TIP3   OH219622   0.140   0.786   6.024
 6560TIP3    H119623   0.079   0.835   5.968
 6560TIP3    H219624   0.186   0.853   6.074
 6561TIP3   OH219625   2.609   5.226   5.963
 6561TIP3    H119626   2.646   5.160   6.021
 6561TIP3    H219627   2.529   5.186   5.929
 6562TIP3   OH219628   4.693   7.376   2.730
 6562TIP3    H119629   4.713   7.425   2.810
 6562TIP3    H219630   4.779   7.356   2.692
 6563TIP3   OH219631   5.280   6.394   2.537
 6563TIP3    H119632   5.369   6.426   2.522
 6563TIP3    H219633   5.239   6.461   2.590
 6564TIP3   OH219634   1.555   6.787   6.576
 6564TIP3    H119635   1.496   6.750   6.641
 6564TIP3    H219636   1.609   6.849   6.625
 6565TIP3   OH219637   6.307   1.042   3.700
 6565TIP3    H119638   6.276   0.963   3.743
 6565TIP3    H219639   6.343   1.011   3.616
 6566TIP3   OH219640   6.415   2.218   6.217
 6566TIP3    H119641   6.447   2.197   6.305
 6566TIP3    H219642   6.491   2.205   6.161
 6567TIP3   OH219643   7.020   6.743   1.701
 6567TIP3    H119644   6.988   6.679   1.638
 6567TIP3    H219645   6.953   6.811   1.702
 6568TIP3   OH219646   7.055   7.512   2.175
 6568TIP3    H119647   7.046   7.601   2.210
 6568TIP3    H219648   7.148   7.503   2.155
 6569TIP3   OH219649   5.819   6.022   6.149
 6569TIP3    H119650   5.823   6.029   6.244
 6569TIP3    H219651   5.823   5.928   6.131
 6570TIP3   OH219652   2.351   3.935   1.345
 6570TIP3    H119653   2.269   3.932   1.296
 6570TIP3    H219654   2.328   3.974   1.429
 6571TIP3   OH219655   8.232   7.752   3.109
 6571TIP3    H119656   8.205   7.735   3.019
 6571TIP3    H219657   8.196   7.678   3.159
 6572TIP3   OH219658   7.407   2.166   2.359
 6572TIP3    H119659   7.416   2.158   2.264
 6572TIP3    H219660   7.336   2.106   2.382
 6573TIP3   OH219661   8.202   0.794   3.056
 6573TIP3    H119662   8.282   0.757   3.018
 6573TIP3    H219663   8.152   0.717   3.085
 6574TIP3   OH219664  -0.040   2.902   4.237
 6574TIP3    H119665  -0.065   2.977   4.183
 6574TIP3    H219666  -0.035   2.829   4.176
 6575TIP3   OH219667   3.221   1.990   0.947
 6575TIP3    H119668   3.150   1.931   0.922
 6575TIP3    H219669   3.202   2.072   0.902
 6576TIP3   OH219670   1.967   2.556   5.440
 6576TIP3    H119671   1.970   2.526   5.348
 6576TIP3    H219672   1.938   2.479   5.488
 6577TIP3   OH219673   5.767   6.549   5.255
 6577TIP3    H119674   5.804   6.628   5.293
 6577TIP3    H219675   5.696   6.580   5.198
 6578TIP3   OH219676   4.357   1.144   4.706
 6578TIP3    H119677   4.384   1.106   4.622
 6578TIP3    H219678   4.370   1.238   4.695
 6579TIP3   OH219679   0.835   3.623   4.984
 6579TIP3    H119680   0.781   3.701   4.975
 6579TIP3    H219681   0.797   3.576   5.058
 6580TIP3   OH219682   4.396   5.923   6.104
 6580TIP3    H119683   4.323   5.968   6.062
 6580TIP3    H219684   4.356   5.880   6.180
 6581TIP3   OH219685   7.896   6.352   5.475
 6581TIP3    H119686   7.884   6.404   5.395
 6581TIP3    H219687   7.941   6.411   5.535
 6582TIP3   OH219688   8.093   3.473   2.160
 6582TIP3    H119689   8.057   3.416   2.092
 6582TIP3    H219690   8.187   3.478   2.140
 6583TIP3   OH219691   5.103   5.001   1.304
 6583TIP3    H119692   5.028   5.007   1.363
 6583TIP3    H219693   5.078   4.936   1.239
 6584TIP3   OH219694   3.277   7.446   1.918
 6584TIP3    H119695   3.351   7.385   1.914
 6584TIP3    H219696   3.304   7.519   1.862
 6585TIP3   OH219697   6.433   3.429   4.202
 6585TIP3    H119698   6.425   3.384   4.118
 6585TIP3    H219699   6.509   3.487   4.191
 6586TIP3   OH219700   7.791   7.709   1.275
 6586TIP3    H119701   7.849   7.666   1.212
 6586TIP3    H219702   7.792   7.651   1.351
 6587TIP3   OH219703   3.342   3.332   2.955
 6587TIP3    H119704   3.375   3.242   2.951
 6587TIP3    H219705   3.327   3.357   2.864
 6588TIP3   OH219706   6.453   7.463   5.216
 6588TIP3    H119707   6.414   7.408   5.284
 6588TIP3    H219708   6.536   7.421   5.195
 6589TIP3   OH219709   6.505   4.693   0.871
 6589TIP3    H119710   6.536   4.726   0.955
 6589TIP3    H219711   6.525   4.763   0.808
 6590TIP3   OH219712   3.093   0.421   1.011
 6590TIP3    H119713   3.110   0.351   0.949
 6590TIP3    H219714   2.997   0.427   1.015
 6591TIP3   OH219715   4.902   7.468   5.455
 6591TIP3    H119716   4.946   7.547   5.486
 6591TIP3    H219717   4.901   7.409   5.531
 6592TIP3   OH219718   2.828   2.033   6.607
 6592TIP3    H119719   2.877   1.952   6.594
 6592TIP3    H219720   2.826   2.045   6.702
 6593TIP3   OH219721   1.194   5.651   0.907
 6593TIP3    H119722   1.207   5.730   0.959
 6593TIP3    H219723   1.217   5.580   0.966
 6594TIP3   OH219724   3.617   3.260   5.844
 6594TIP3    H119725   3.683   3.274   5.911
 6594TIP3    H219726   3.601   3.347   5.808
 6595TIP3   OH219727   8.030   0.333   0.321
 6595TIP3    H119728   7.944   0.294   0.340
 6595TIP3    H219729   8.031   0.414   0.373
 6596TIP3   OH219730   2.802   7.532   6.276
 6596TIP3    H119731   2.724   7.520   6.222
 6596TIP3    H219732   2.821   7.445   6.311
 6597TIP3   OH219733   3.987   0.564   4.347
 6597TIP3    H119734   3.948   0.477   4.346
 6597TIP3    H219735   3.981   0.592   4.438
 6598TIP3   OH219736   1.570   4.905   4.071
 6598TIP3    H119737   1.509   4.902   4.146
 6598TIP3    H219738   1.514   4.889   3.995
 6599TIP3   OH219739   2.060   6.463   0.907
 6599TIP3    H119740   2.132   6.525   0.901
 6599TIP3    H219741   2.091   6.396   0.969
 6600TIP3   OH219742   5.733   7.094   6.000
 6600TIP3    H119743   5.741   7.189   5.998
 6600TIP3    H219744   5.783   7.067   6.077
 6601TIP3   OH219745   1.783   0.852   4.749
 6601TIP3    H119746   1.800   0.921   4.814
 6601TIP3    H219747   1.817   0.888   4.667
 6602TIP3   OH219748   0.611   5.366   0.364
 6602TIP3    H119749   0.603   5.278   0.327
 6602TIP3    H219750   0.697   5.367   0.406
 6603TIP3   OH219751   5.830   7.479   5.481
 6603TIP3    H119752   5.849   7.561   5.526
 6603TIP3    H219753   5.884   7.414   5.526
 6604TIP3   OH219754   2.517   5.116   5.312
 6604TIP3    H119755   2.552   5.114   5.401
 6604TIP3    H219756   2.429   5.080   5.320
 6605TIP3   OH219757   3.412   4.632   3.690
 6605TIP3    H119758   3.419   4.664   3.780
 6605TIP3    H219759   3.458   4.548   3.690
 6606TIP3   OH219760   1.404   4.108   2.960
 6606TIP3    H119761   1.312   4.131   2.955
 6606TIP3    H219762   1.411   4.051   3.037
 6607TIP3   OH219763   3.972   2.106   2.795
 6607TIP3    H119764   3.966   2.202   2.803
 6607TIP3    H219765   3.918   2.085   2.719
 6608TIP3   OH219766   4.449   2.385   3.417
 6608TIP3    H119767   4.399   2.401   3.337
 6608TIP3    H219768   4.403   2.312   3.460
 6609TIP3   OH219769   8.115   0.314   4.196
 6609TIP3    H119770   8.202   0.344   4.169
 6609TIP3    H219771   8.091   0.247   4.132
 6610TIP3   OH219772   3.298   1.398   3.157
 6610TIP3    H119773   3.374   1.366   3.206
 6610TIP3    H219774   3.235   1.327   3.160
 6611TIP3   OH219775   0.782   4.214   6.327
 6611TIP3    H119776   0.761   4.286   6.267
 6611TIP3    H219777   0.740   4.239   6.410
 6612TIP3   OH219778   2.328   6.344   1.290
 6612TIP3    H119779   2.354   6.268   1.342
 6612TIP3    H219780   2.353   6.420   1.344
 6613TIP3   OH219781   7.576   6.511   5.599
 6613TIP3    H119782   7.585   6.439   5.537
 6613TIP3    H219783   7.585   6.590   5.545
 6614TIP3   OH219784   3.156   7.161   2.762
 6614TIP3    H119785   3.089   7.108   2.718
 6614TIP3    H219786   3.217   7.186   2.691
 6615TIP3   OH219787   3.386   4.400   3.901
 6615TIP3    H119788   3.432   4.430   3.980
 6615TIP3    H219789   3.435   4.324   3.871
 6616TIP3   OH219790   7.335   1.266   4.011
 6616TIP3    H119791   7.402   1.300   4.070
 6616TIP3    H219792   7.263   1.240   4.069
 6617TIP3   OH219793   4.673   0.154   0.692
 6617TIP3    H119794   4.728   0.217   0.739
 6617TIP3    H219795   4.585   0.192   0.694
 6618TIP3   OH219796   5.816   7.659   1.293
 6618TIP3    H119797   5.732   7.615   1.273
 6618TIP3    H219798   5.880   7.588   1.292
 6619TIP3   OH219799   0.793   1.270   3.805
 6619TIP3    H119800   0.727   1.326   3.845
 6619TIP3    H219801   0.758   1.250   3.718
 6620TIP3   OH219802   8.141   4.904   5.086
 6620TIP3    H119803   8.050   4.876   5.071
 6620TIP3    H219804   8.160   4.962   5.013
 6621TIP3   OH219805   6.172   6.530   1.044
 6621TIP3    H119806   6.164   6.445   1.000
 6621TIP3    H219807   6.157   6.595   0.975
 6622TIP3   OH219808   4.076   2.811   1.303
 6622TIP3    H119809   4.161   2.777   1.329
 6622TIP3    H219810   4.074   2.799   1.208
 6623TIP3   OH219811   4.975   1.949   2.812
 6623TIP3    H119812   4.912   2.005   2.768
 6623TIP3    H219813   4.930   1.866   2.824
 6624TIP3   OH219814   7.700   6.625   2.365
 6624TIP3    H119815   7.730   6.692   2.304
 6624TIP3    H219816   7.727   6.657   2.451
 6625TIP3   OH219817   7.956   3.068   3.311
 6625TIP3    H119818   8.001   3.091   3.230
 6625TIP3    H219819   7.904   3.145   3.333
 6626TIP3   OH219820   7.466   6.776   6.096
 6626TIP3    H119821   7.489   6.724   6.019
 6626TIP3    H219822   7.538   6.838   6.106
 6627TIP3   OH219823   7.168   3.709   3.872
 6627TIP3    H119824   7.093   3.650   3.870
 6627TIP3    H219825   7.164   3.751   3.958
 6628TIP3   OH219826   1.980   6.795   5.745
 6628TIP3    H119827   2.009   6.704   5.748
 6628TIP3    H219828   1.950   6.813   5.834
 6629TIP3   OH219829   0.832   0.850   1.310
 6629TIP3    H119830   0.830   0.903   1.390
 6629TIP3    H219831   0.753   0.795   1.316
 6630TIP3   OH219832   4.276   3.119   2.022
 6630TIP3    H119833   4.232   3.051   1.971
 6630TIP3    H219834   4.354   3.076   2.056
 6631TIP3   OH219835   5.529   3.484   6.477
 6631TIP3    H119836   5.505   3.536   6.400
 6631TIP3    H219837   5.560   3.401   6.441
 6632TIP3   OH219838   1.100   7.128   2.520
 6632TIP3    H119839   1.112   7.110   2.614
 6632TIP3    H219840   1.188   7.123   2.483
 6633TIP3   OH219841   0.386   5.256   3.263
 6633TIP3    H119842   0.298   5.236   3.232
 6633TIP3    H219843   0.406   5.341   3.225
 6634TIP3   OH219844   6.899   6.947   6.033
 6634TIP3    H119845   6.805   6.932   6.019
 6634TIP3    H219846   6.920   6.896   6.112
 6635TIP3   OH219847   5.655   0.058   2.140
 6635TIP3    H119848   5.651  -0.014   2.202
 6635TIP3    H219849   5.667   0.016   2.054
 6636TIP3   OH219850   5.474   1.131   3.386
 6636TIP3    H119851   5.474   1.097   3.296
 6636TIP3    H219852   5.567   1.149   3.404
 6637TIP3   OH219853   3.944   3.716   6.294
 6637TIP3    H119854   3.937   3.811   6.303
 6637TIP3    H219855   3.856   3.684   6.310
 6638TIP3   OH219856   4.669   2.867   3.529
 6638TIP3    H119857   4.725   2.820   3.592
 6638TIP3    H219858   4.580   2.838   3.550
 6639TIP3   OH219859   0.299   7.496   0.665
 6639TIP3    H119860   0.206   7.474   0.678
 6639TIP3    H219861   0.342   7.466   0.745
 6640TIP3   OH219862   2.619   2.033   1.844
 6640TIP3    H119863   2.626   1.937   1.848
 6640TIP3    H219864   2.525   2.050   1.849
 6641TIP3   OH219865   5.765   6.855   1.047
 6641TIP3    H119866   5.704   6.908   0.995
 6641TIP3    H219867   5.821   6.919   1.091
 6642TIP3   OH219868   3.190   0.050   6.277
 6642TIP3    H119869   3.164  -0.042   6.268
 6642TIP3    H219870   3.260   0.050   6.342
 6643TIP3   OH219871   0.831   4.369   5.137
 6643TIP3    H119872   0.794   4.439   5.083
 6643TIP3    H219873   0.843   4.295   5.077
 6644TIP3   OH219874   4.880   0.068   1.584
 6644TIP3    H119875   4.796   0.101   1.553
 6644TIP3    H219876   4.862  -0.024   1.606
 6645TIP3   OH219877   3.047   0.823  -0.007
 6645TIP3    H119878   3.099   0.751  -0.042
 6645TIP3    H219879   3.046   0.809   0.088
 6646TIP3   OH219880   2.746   3.810   5.248
 6646TIP3    H119881   2.694   3.885   5.279
 6646TIP3    H219882   2.715   3.737   5.301
 6647TIP3   OH219883   7.944   4.996   1.266
 6647TIP3    H119884   8.020   4.970   1.214
 6647TIP3    H219885   7.891   4.916   1.272
 6648TIP3   OH219886   6.384   2.302   4.386
 6648TIP3    H119887   6.465   2.332   4.426
 6648TIP3    H219888   6.395   2.319   4.293
 6649TIP3   OH219889   2.970   3.511   4.584
 6649TIP3    H119890   2.896   3.497   4.643
 6649TIP3    H219891   3.023   3.431   4.594
 6650TIP3   OH219892   4.116   5.639   4.616
 6650TIP3    H119893   4.027   5.675   4.611
 6650TIP3    H219894   4.157   5.686   4.688
 6651TIP3   OH219895   4.742   3.113   4.298
 6651TIP3    H119896   4.687   3.137   4.224
 6651TIP3    H219897   4.742   3.190   4.355
 6652TIP3   OH219898   0.962   3.147   3.237
 6652TIP3    H119899   0.952   3.168   3.329
 6652TIP3    H219900   0.956   3.231   3.192
 6653TIP3   OH219901   7.938   3.646   1.185
 6653TIP3    H119902   7.891   3.595   1.251
 6653TIP3    H219903   7.871   3.676   1.125
 6654TIP3   OH219904   3.392   5.017   4.914
 6654TIP3    H119905   3.426   4.928   4.920
 6654TIP3    H219906   3.369   5.040   5.004
 6655TIP3   OH219907   3.616   7.406   2.313
 6655TIP3    H119908   3.649   7.317   2.318
 6655TIP3    H219909   3.576   7.412   2.226
 6656TIP3   OH219910   7.919   7.054   0.907
 6656TIP3    H119911   7.928   7.072   0.814
 6656TIP3    H219912   7.890   6.963   0.911
 6657TIP3   OH219913   6.699   6.041   2.942
 6657TIP3    H119914   6.605   6.022   2.948
 6657TIP3    H219915   6.740   5.984   3.006
 6658TIP3   OH219916   3.942   4.665   3.613
 6658TIP3    H119917   3.916   4.674   3.522
 6658TIP3    H219918   3.990   4.582   3.617
 6659TIP3   OH219919   7.819   3.777   0.630
 6659TIP3    H119920   7.870   3.843   0.582
 6659TIP3    H219921   7.768   3.827   0.693
 6660TIP3   OH219922   2.227   4.846   6.408
 6660TIP3    H119923   2.135   4.869   6.398
 6660TIP3    H219924   2.239   4.833   6.502
 6661TIP3   OH219925   6.620   0.867   6.027
 6661TIP3    H119926   6.701   0.863   5.976
 6661TIP3    H219927   6.588   0.956   6.014
 6662TIP3   OH219928   5.003   3.464   5.558
 6662TIP3    H119929   5.009   3.496   5.468
 6662TIP3    H219930   4.912   3.480   5.582
 6663TIP3   OH219931   0.611   0.133   2.031
 6663TIP3    H119932   0.579   0.164   1.946
 6663TIP3    H219933   0.607   0.038   2.026
 6664TIP3   OH219934   7.430   2.282   1.132
 6664TIP3    H119935   7.388   2.321   1.208
 6664TIP3    H219936   7.377   2.312   1.058
 6665TIP3   OH219937   7.680   6.868   2.238
 6665TIP3    H119938   7.654   6.854   2.147
 6665TIP3    H219939   7.728   6.951   2.237
 6666TIP3   OH219940   6.483   5.355   0.651
 6666TIP3    H119941   6.564   5.352   0.599
 6666TIP3    H219942   6.425   5.413   0.601
 6667TIP3   OH219943   3.339   2.267   4.991
 6667TIP3    H119944   3.327   2.192   5.049
 6667TIP3    H219945   3.433   2.283   4.992
 6668TIP3   OH219946   2.833   0.089   0.301
 6668TIP3    H119947   2.825  -0.007   0.306
 6668TIP3    H219948   2.822   0.109   0.208
 6669TIP3   OH219949   1.174   3.804   6.781
 6669TIP3    H119950   1.162   3.857   6.703
 6669TIP3    H219951   1.097   3.821   6.835
 6670TIP3   OH219952   3.856   6.917   5.207
 6670TIP3    H119953   3.761   6.930   5.203
 6670TIP3    H219954   3.887   6.987   5.264
 6671TIP3   OH219955   3.455   0.653   0.774
 6671TIP3    H119956   3.543   0.677   0.803
 6671TIP3    H219957   3.454   0.676   0.681
 6672TIP3   OH219958   2.229   0.895   5.330
 6672TIP3    H119959   2.230   0.984   5.364
 6672TIP3    H219960   2.142   0.861   5.352
 6673TIP3   OH219961   5.798   3.340   4.854
 6673TIP3    H119962   5.821   3.382   4.771
 6673TIP3    H219963   5.708   3.367   4.871
 6674TIP3   OH219964   1.968   2.501   2.711
 6674TIP3    H119965   1.960   2.416   2.668
 6674TIP3    H219966   1.907   2.558   2.664
 6675TIP3   OH219967   0.114   7.360   0.455
 6675TIP3    H119968   0.120   7.316   0.369
 6675TIP3    H219969   0.204   7.361   0.487
 6676TIP3   OH219970   6.608   1.940   3.250
 6676TIP3    H119971   6.528   1.906   3.291
 6676TIP3    H219972   6.639   1.870   3.193
 6677TIP3   OH219973   6.390   0.074   5.130
 6677TIP3    H119974   6.448  -0.002   5.129
 6677TIP3    H219975   6.381   0.096   5.223
 6678TIP3   OH219976   1.921   3.774   1.408
 6678TIP3    H119977   1.895   3.857   1.448
 6678TIP3    H219978   1.999   3.795   1.358
 6679TIP3   OH219979   7.822   7.496   2.979
 6679TIP3    H119980   7.775   7.414   2.994
 6679TIP3    H219981   7.915   7.471   2.982
 6680TIP3   OH219982   7.313   2.053   0.607
 6680TIP3    H119983   7.308   2.149   0.612
 6680TIP3    H219984   7.360   2.036   0.526
 6681TIP3   OH219985   2.657   7.098   2.131
 6681TIP3    H119986   2.633   7.123   2.220
 6681TIP3    H219987   2.654   7.002   2.131
 6682TIP3   OH219988   3.490   1.072   2.152
 6682TIP3    H119989   3.417   1.134   2.158
 6682TIP3    H219990   3.467   1.015   2.079
 6683TIP3   OH219991   7.393   1.522   3.891
 6683TIP3    H119992   7.356   1.440   3.924
 6683TIP3    H219993   7.395   1.512   3.796
 6684TIP3   OH219994   6.550   1.015   4.467
 6684TIP3    H119995   6.552   0.972   4.553
 6684TIP3    H219996   6.642   1.016   4.439
 6685TIP3   OH219997   2.544   3.114   1.943
 6685TIP3    H119998   2.590   3.039   1.905
 6685TIP3    H219999   2.456   3.082   1.963
 6686TIP3   OH220000   7.290   0.285   6.449
 6686TIP3    H120001   7.368   0.310   6.399
 6686TIP3    H220002   7.324   0.229   6.519
 6687TIP3   OH220003   1.257   1.975   3.758
 6687TIP3    H120004   1.242   2.039   3.827
 6687TIP3    H220005   1.309   2.022   3.693
 6688TIP3   OH220006   6.435   6.975   4.822
 6688TIP3    H120007   6.371   7.043   4.843
 6688TIP3    H220008   6.420   6.907   4.887
 6689TIP3   OH220009   7.175   2.414   2.165
 6689TIP3    H120010   7.154   2.334   2.118
 6689TIP3    H220011   7.152   2.395   2.256
 6690TIP3   OH220012   3.234   0.627   1.201
 6690TIP3    H120013   3.215   0.552   1.145
 6690TIP3    H220014   3.233   0.702   1.142
 6691TIP3   OH220015   3.000   2.872   5.522
 6691TIP3    H120016   2.922   2.826   5.553
 6691TIP3    H220017   2.971   2.919   5.444
 6692TIP3   OH220018   6.361   3.782   3.509
 6692TIP3    H120019   6.346   3.833   3.429
 6692TIP3    H220020   6.366   3.848   3.578
 6693TIP3   OH220021   1.428   4.633   5.787
 6693TIP3    H120022   1.395   4.611   5.874
 6693TIP3    H220023   1.368   4.589   5.726
 6694TIP3   OH220024   6.666   6.527   1.902
 6694TIP3    H120025   6.632   6.485   1.823
 6694TIP3    H220026   6.740   6.579   1.872
 6695TIP3   OH220027   4.926   7.518   1.533
 6695TIP3    H120028   4.904   7.512   1.626
 6695TIP3    H220029   4.955   7.608   1.522
 6696TIP3   OH220030   1.429   4.564   0.354
 6696TIP3    H120031   1.409   4.594   0.443
 6696TIP3    H220032   1.523   4.543   0.356
 6697TIP3   OH220033   7.124   7.738   4.833
 6697TIP3    H120034   7.036   7.716   4.804
 6697TIP3    H220035   7.132   7.832   4.814
 6698TIP3   OH220036   8.237   0.130   6.279
 6698TIP3    H120037   8.164   0.069   6.272
 6698TIP3    H220038   8.215   0.185   6.354
 6699TIP3   OH220039   1.693   4.484   1.493
 6699TIP3    H120040   1.755   4.476   1.421
 6699TIP3    H220041   1.740   4.536   1.559
 6700TIP3   OH220042   2.297   5.917   3.413
 6700TIP3    H120043   2.320   6.008   3.392
 6700TIP3    H220044   2.295   5.914   3.509
 6701TIP3   OH220045   7.102   3.050   1.200
 6701TIP3    H120046   7.041   3.037   1.273
 6701TIP3    H220047   7.109   3.145   1.190
 6702TIP3   OH220048   8.079   5.083   5.710
 6702TIP3    H120049   8.125   5.120   5.634
 6702TIP3    H220050   7.989   5.070   5.680
 6703TIP3   OH220051   0.351   5.082   4.581
 6703TIP3    H120052   0.371   5.109   4.671
 6703TIP3    H220053   0.433   5.096   4.533
 6704TIP3   OH220054   0.387   2.113   3.756
 6704TIP3    H120055   0.408   2.141   3.845
 6704TIP3    H220056   0.308   2.060   3.766
 6705TIP3   OH220057   0.986   3.953   4.719
 6705TIP3    H120058   0.967   4.046   4.732
 6705TIP3    H220059   0.911   3.919   4.671
 6706TIP3   OH220060   4.823   0.978   5.385
 6706TIP3    H120061   4.741   1.017   5.356
 6706TIP3    H220062   4.891   1.023   5.335
 6707TIP3   OH220063   2.826   3.904   4.134
 6707TIP3    H120064   2.877   3.947   4.066
 6707TIP3    H220065   2.891   3.851   4.181
 6708TIP3   OH220066   3.105   2.484   2.855
 6708TIP3    H120067   3.165   2.555   2.834
 6708TIP3    H220068   3.094   2.490   2.950
 6709TIP3   OH220069   2.600   2.371   3.166
 6709TIP3    H120070   2.616   2.408   3.079
 6709TIP3    H220071   2.645   2.287   3.165
 6710TIP3   OH220072   1.167   4.761   1.684
 6710TIP3    H120073   1.248   4.792   1.644
 6710TIP3    H220074   1.129   4.702   1.618
 6711TIP3   OH220075   6.254   2.132   1.492
 6711TIP3    H120076   6.236   2.044   1.526
 6711TIP3    H220077   6.219   2.131   1.403
 6712TIP3   OH220078   3.078   4.976   0.124
 6712TIP3    H120079   3.076   4.907   0.058
 6712TIP3    H220080   3.124   4.936   0.198
 6713TIP3   OH220081   7.999   6.776   2.214
 6713TIP3    H120082   7.925   6.725   2.181
 6713TIP3    H220083   8.051   6.713   2.263
 6714TIP3   OH220084   5.158   0.145   5.340
 6714TIP3    H120085   5.179   0.070   5.285
 6714TIP3    H220086   5.183   0.119   5.428
 6715TIP3   OH220087   8.230   5.139   2.788
 6715TIP3    H120088   8.211   5.085   2.865
 6715TIP3    H220089   8.186   5.222   2.805
 6716TIP3   OH220090   2.721   4.592   3.648
 6716TIP3    H120091   2.642   4.541   3.632
 6716TIP3    H220092   2.790   4.527   3.659
 6717TIP3   OH220093   7.649   5.848   4.914
 6717TIP3    H120094   7.732   5.806   4.937
 6717TIP3    H220095   7.660   5.877   4.824
 6718TIP3   OH220096   6.066   4.200   3.238
 6718TIP3    H120097   6.052   4.135   3.170
 6718TIP3    H220098   6.076   4.283   3.191
 6719TIP3   OH220099   6.285   4.686   1.914
 6719TIP3    H120100   6.292   4.770   1.869
 6719TIP3    H220101   6.372   4.671   1.951
 6720TIP3   OH220102   0.760   6.670   0.906
 6720TIP3    H120103   0.815   6.744   0.881
 6720TIP3    H220104   0.722   6.640   0.824
 6721TIP3   OH220105   6.587   7.537   3.339
 6721TIP3    H120106   6.641   7.471   3.295
 6721TIP3    H220107   6.517   7.487   3.381
 6722TIP3   OH220108   4.107   5.110   2.394
 6722TIP3    H120109   4.088   5.097   2.301
 6722TIP3    H220110   4.082   5.027   2.435
 6723TIP3   OH220111   0.577   7.716   1.936
 6723TIP3    H120112   0.570   7.632   1.891
 6723TIP3    H220113   0.506   7.768   1.900
 6724TIP3   OH220114   5.386   2.084   0.547
 6724TIP3    H120115   5.404   2.109   0.637
 6724TIP3    H220116   5.312   2.024   0.553
 6725TIP3   OH220117  -0.015   0.948   0.827
 6725TIP3    H120118  -0.006   1.005   0.904
 6725TIP3    H220119   0.025   0.998   0.756
 6726TIP3   OH220120   7.902   3.798   0.072
 6726TIP3    H120121   7.978   3.856   0.074
 6726TIP3    H220122   7.847   3.833   0.002
 6727TIP3   OH220123   7.522   2.869   2.570
 6727TIP3    H120124   7.448   2.930   2.570
 6727TIP3    H220125   7.565   2.883   2.654
 6728TIP3   OH220126   1.951   1.082   3.958
 6728TIP3    H120127   1.941   1.065   4.052
 6728TIP3    H220128   1.926   1.174   3.948
 6729TIP3   OH220129   6.365   5.678   6.709
 6729TIP3    H120130   6.295   5.681   6.774
 6729TIP3    H220131   6.362   5.763   6.666
 6730TIP3   OH220132   1.063   0.370   2.087
 6730TIP3    H120133   1.142   0.331   2.049
 6730TIP3    H220134   0.992   0.338   2.032
 6731TIP3   OH220135   0.433   1.944   3.113
 6731TIP3    H120136   0.482   2.004   3.056
 6731TIP3    H220137   0.357   1.918   3.061
 6732TIP3   OH220138   6.544   7.609   2.516
 6732TIP3    H120139   6.604   7.594   2.443
 6732TIP3    H220140   6.593   7.668   2.574
 6733TIP3   OH220141   7.994   7.659   0.250
 6733TIP3    H120142   7.937   7.619   0.314
 6733TIP3    H220143   7.961   7.748   0.240
 6734TIP3   OH220144   5.842   6.673   3.444
 6734TIP3    H120145   5.762   6.700   3.400
 6734TIP3    H220146   5.877   6.753   3.483
 6735TIP3   OH220147   4.653   5.852   6.164
 6735TIP3    H120148   4.566   5.852   6.124
 6735TIP3    H220149   4.704   5.792   6.111
 6736TIP3   OH220150   3.321   4.341   5.957
 6736TIP3    H120151   3.400   4.346   5.904
 6736TIP3    H220152   3.351   4.353   6.047
 6737TIP3   OH220153   2.158   7.540   0.028
 6737TIP3    H120154   2.158   7.587  -0.055
 6737TIP3    H220155   2.235   7.483   0.024
 6738TIP3   OH220156   2.459   4.425   1.762
 6738TIP3    H120157   2.506   4.405   1.682
 6738TIP3    H220158   2.522   4.473   1.816
 6739TIP3   OH220159   5.139   5.078   3.875
 6739TIP3    H120160   5.213   5.018   3.862
 6739TIP3    H220161   5.062   5.022   3.877
 6740TIP3   OH220162   3.458   4.571   1.424
 6740TIP3    H120163   3.465   4.638   1.355
 6740TIP3    H220164   3.531   4.511   1.406
 6741TIP3   OH220165   4.259   3.244   2.548
 6741TIP3    H120166   4.254   3.318   2.489
 6741TIP3    H220167   4.263   3.167   2.491
 6742TIP3   OH220168   3.022   0.710   6.546
 6742TIP3    H120169   2.927   0.709   6.554
 6742TIP3    H220170   3.051   0.775   6.610
 6743TIP3   OH220171   2.576   0.553   0.807
 6743TIP3    H120172   2.543   0.466   0.829
 6743TIP3    H220173   2.508   0.613   0.837
 6744TIP3   OH220174   7.219   1.988   3.462
 6744TIP3    H120175   7.253   2.001   3.374
 6744TIP3    H220176   7.268   2.051   3.516
 6745TIP3   OH220177   2.240   1.051   6.416
 6745TIP3    H120178   2.190   1.120   6.461
 6745TIP3    H220179   2.212   1.058   6.325
 6746TIP3   OH220180   3.868   1.503   3.479
 6746TIP3    H120181   3.820   1.444   3.537
 6746TIP3    H220182   3.802   1.538   3.419
 6747TIP3   OH220183   2.870   7.162   3.733
 6747TIP3    H120184   2.896   7.177   3.642
 6747TIP3    H220185   2.951   7.174   3.783
 6748TIP3   OH220186   2.931   6.009   3.059
 6748TIP3    H120187   3.023   6.032   3.046
 6748TIP3    H220188   2.920   6.013   3.154
 6749TIP3   OH220189   5.075   2.405   2.423
 6749TIP3    H120190   5.161   2.375   2.453
 6749TIP3    H220191   5.030   2.432   2.503
 6750TIP3   OH220192   3.698   1.526   3.989
 6750TIP3    H120193   3.728   1.455   3.932
 6750TIP3    H220194   3.629   1.487   4.042
 6751TIP3   OH220195   0.603   4.407   3.708
 6751TIP3    H120196   0.556   4.453   3.638
 6751TIP3    H220197   0.611   4.471   3.778
 6752TIP3   OH220198   4.664   0.165   4.304
 6752TIP3    H120199   4.659   0.078   4.263
 6752TIP3    H220200   4.584   0.209   4.277
 6753TIP3   OH220201   5.308   2.170   6.064
 6753TIP3    H120202   5.274   2.243   6.116
 6753TIP3    H220203   5.243   2.155   5.996
 6754TIP3   OH220204   6.360   0.632   4.627
 6754TIP3    H120205   6.423   0.561   4.628
 6754TIP3    H220206   6.381   0.686   4.703
 6755TIP3   OH220207   4.613   3.351   6.526
 6755TIP3    H120208   4.603   3.257   6.514
 6755TIP3    H220209   4.529   3.380   6.562
 6756TIP3   OH220210   0.316   4.377   4.151
 6756TIP3    H120211   0.266   4.459   4.152
 6756TIP3    H220212   0.395   4.397   4.201
 6757TIP3   OH220213   7.140   2.848   4.797
 6757TIP3    H120214   7.148   2.920   4.860
 6757TIP3    H220215   7.231   2.830   4.770
 6758TIP3   OH220216   7.968   4.520   0.235
 6758TIP3    H120217   7.887   4.488   0.276
 6758TIP3    H220218   7.939   4.569   0.159
 6759TIP3   OH220219   8.003   4.493   4.153
 6759TIP3    H120220   8.090   4.497   4.113
 6759TIP3    H220221   7.943   4.489   4.079
 6760TIP3   OH220222   0.946   3.413   4.215
 6760TIP3    H120223   0.968   3.479   4.149
 6760TIP3    H220224   0.852   3.420   4.227
 6761TIP3   OH220225   0.607   6.063   0.994
 6761TIP3    H120226   0.642   6.144   0.956
 6761TIP3    H220227   0.684   6.018   1.029
 6762TIP3   OH220228   4.396   7.579   3.145
 6762TIP3    H120229   4.412   7.649   3.081
 6762TIP3    H220230   4.469   7.519   3.133
 6763TIP3   OH220231   5.101   6.567   1.187
 6763TIP3    H120232   5.153   6.633   1.142
 6763TIP3    H220233   5.055   6.520   1.117
 6764TIP3   OH220234   0.245   4.363   3.743
 6764TIP3    H120235   0.262   4.439   3.799
 6764TIP3    H220236   0.331   4.324   3.728
 6765TIP3   OH220237   0.400   2.599   2.719
 6765TIP3    H120238   0.450   2.635   2.646
 6765TIP3    H220239   0.311   2.631   2.705
 6766TIP3   OH220240   4.464   5.652   2.275
 6766TIP3    H120241   4.522   5.601   2.332
 6766TIP3    H220242   4.524   5.708   2.225
 6767TIP3   OH220243   2.058   0.636   5.710
 6767TIP3    H120244   2.116   0.649   5.636
 6767TIP3    H220245   1.979   0.597   5.673
 6768TIP3   OH220246   3.561   2.922   0.583
 6768TIP3    H120247   3.595   2.904   0.495
 6768TIP3    H220248   3.466   2.926   0.573
 6769TIP3   OH220249   2.974   7.378   6.524
 6769TIP3    H120250   2.992   7.364   6.617
 6769TIP3    H220251   3.023   7.309   6.479
 6770TIP3   OH220252   4.208   4.278   5.606
 6770TIP3    H120253   4.144   4.349   5.615
 6770TIP3    H220254   4.184   4.234   5.525
 6771TIP3   OH220255   6.266   5.368   2.980
 6771TIP3    H120256   6.236   5.341   3.067
 6771TIP3    H220257   6.343   5.422   2.997
 6772TIP3   OH220258   5.145   6.360   1.349
 6772TIP3    H120259   5.069   6.332   1.297
 6772TIP3    H220260   5.182   6.433   1.299
 6773TIP3   OH220261   3.897   5.674   2.380
 6773TIP3    H120262   3.872   5.597   2.431
 6773TIP3    H220263   3.878   5.748   2.437
 6774TIP3   OH220264   6.716   1.597   1.887
 6774TIP3    H120265   6.752   1.571   1.972
 6774TIP3    H220266   6.648   1.533   1.869
 6775TIP3   OH220267   4.768   2.052   2.454
 6775TIP3    H120268   4.780   2.146   2.464
 6775TIP3    H220269   4.846   2.022   2.408
 6776TIP3   OH220270   4.557   7.116   1.736
 6776TIP3    H120271   4.463   7.108   1.722
 6776TIP3    H220272   4.574   7.210   1.733
 6777TIP3   OH220273   5.273   5.366   2.559
 6777TIP3    H120274   5.261   5.331   2.647
 6777TIP3    H220275   5.324   5.446   2.572
 6778TIP3   OH220276   5.057   2.896   3.411
 6778TIP3    H120277   5.033   2.989   3.420
 6778TIP3    H220278   5.102   2.876   3.493
 6779TIP3   OH220279   5.138   7.416   1.354
 6779TIP3    H120280   5.070   7.475   1.388
 6779TIP3    H220281   5.136   7.340   1.412
 6780TIP3   OH220282   4.405   3.560   5.179
 6780TIP3    H120283   4.389   3.467   5.197
 6780TIP3    H220284   4.495   3.563   5.147
 6781TIP3   OH220285   7.257   6.754   4.192
 6781TIP3    H120286   7.349   6.728   4.190
 6781TIP3    H220287   7.212   6.685   4.143
 6782TIP3   OH220288   1.187   7.518   0.266
 6782TIP3    H120289   1.149   7.516   0.354
 6782TIP3    H220290   1.266   7.465   0.273
 6783TIP3   OH220291   4.035   6.344   1.610
 6783TIP3    H120292   3.985   6.413   1.567
 6783TIP3    H220293   4.054   6.378   1.697
 6784TIP3   OH220294   6.759   5.972   5.023
 6784TIP3    H120295   6.764   5.930   5.109
 6784TIP3    H220296   6.757   5.899   4.961
 6785TIP3   OH220297   1.293   2.873   1.882
 6785TIP3    H120298   1.311   2.933   1.809
 6785TIP3    H220299   1.252   2.928   1.949
 6786TIP3   OH220300   7.951   3.156   0.584
 6786TIP3    H120301   7.869   3.183   0.542
 6786TIP3    H220302   7.951   3.061   0.576
 6787TIP3   OH220303   1.914   7.600   3.364
 6787TIP3    H120304   1.868   7.516   3.352
 6787TIP3    H220305   1.938   7.602   3.456
 6788TIP3   OH220306   6.446   1.805   0.237
 6788TIP3    H120307   6.472   1.896   0.227
 6788TIP3    H220308   6.479   1.779   0.323
 6789TIP3   OH220309   5.923   0.220   1.830
 6789TIP3    H120310   5.992   0.189   1.772
 6789TIP3    H220311   5.958   0.208   1.918
 6790TIP3   OH220312   2.162   2.941   0.029
 6790TIP3    H120313   2.083   2.972  -0.016
 6790TIP3    H220314   2.161   2.988   0.113
 6791TIP3   OH220315   3.756   5.926   6.679
 6791TIP3    H120316   3.695   5.953   6.610
 6791TIP3    H220317   3.819   5.998   6.685
 6792TIP3   OH220318   5.424   2.095   0.840
 6792TIP3    H120319   5.440   2.167   0.902
 6792TIP3    H220320   5.330   2.099   0.824
 6793TIP3   OH220321   6.911   5.300   5.253
 6793TIP3    H120322   6.818   5.300   5.274
 6793TIP3    H220323   6.915   5.320   5.160
 6794TIP3   OH220324   4.097   4.464   5.864
 6794TIP3    H120325   4.181   4.495   5.830
 6794TIP3    H220326   4.102   4.369   5.859
 6795TIP3   OH220327   7.051   0.877   5.477
 6795TIP3    H120328   7.138   0.914   5.484
 6795TIP3    H220329   7.013   0.919   5.400
 6796TIP3   OH220330   0.395   1.982   3.418
 6796TIP3    H120331   0.360   2.070   3.404
 6796TIP3    H220332   0.440   1.961   3.335
 6797TIP3   OH220333   6.193   7.741   4.918
 6797TIP3    H120334   6.246   7.674   4.961
 6797TIP3    H220335   6.116   7.694   4.887
 6798TIP3   OH220336   2.379   7.519   0.678
 6798TIP3    H120337   2.286   7.537   0.663
 6798TIP3    H220338   2.423   7.550   0.599
 6799TIP3   OH220339   5.542   6.540   0.132
 6799TIP3    H120340   5.542   6.621   0.182
 6799TIP3    H220341   5.565   6.472   0.195
 6800TIP3   OH220342   3.081   0.703   4.723
 6800TIP3    H120343   3.099   0.700   4.817
 6800TIP3    H220344   3.061   0.795   4.706
 6801TIP3   OH220345   7.904   4.734   5.068
 6801TIP3    H120346   7.938   4.649   5.038
 6801TIP3    H220347   7.813   4.736   5.036
 6802TIP3   OH220348   5.584   0.413   0.099
 6802TIP3    H120349   5.509   0.457   0.058
 6802TIP3    H220350   5.551   0.326   0.122
 6803TIP3   OH220351   1.829   2.228   6.698
 6803TIP3    H120352   1.866   2.149   6.657
 6803TIP3    H220353   1.748   2.244   6.650
 6804TIP3   OH220354   2.502   6.846   1.737
 6804TIP3    H120355   2.567   6.781   1.765
 6804TIP3    H220356   2.548   6.929   1.739
 6805TIP3   OH220357   5.847   0.506   3.904
 6805TIP3    H120358   5.762   0.532   3.867
 6805TIP3    H220359   5.885   0.448   3.838
 6806TIP3   OH220360   5.965   7.519   2.192
 6806TIP3    H120361   5.888   7.470   2.219
 6806TIP3    H220362   5.992   7.566   2.272
 6807TIP3   OH220363   6.766   5.687   5.438
 6807TIP3    H120364   6.803   5.745   5.504
 6807TIP3    H220365   6.749   5.605   5.485
 6808TIP3   OH220366   2.660   4.593   3.945
 6808TIP3    H120367   2.743   4.566   3.983
 6808TIP3    H220368   2.683   4.651   3.873
 6809TIP3   OH220369   4.473   3.899   3.806
 6809TIP3    H120370   4.393   3.916   3.857
 6809TIP3    H220371   4.540   3.883   3.872
 6810TIP3   OH220372   5.305   7.792   3.732
 6810TIP3    H120373   5.246   7.720   3.713
 6810TIP3    H220374   5.248   7.864   3.760
 6811TIP3   OH220375   4.484   6.112   0.620
 6811TIP3    H120376   4.417   6.050   0.590
 6811TIP3    H220377   4.506   6.162   0.541
 6812TIP3   OH220378   5.363   0.394   3.263
 6812TIP3    H120379   5.333   0.323   3.320
 6812TIP3    H220380   5.288   0.453   3.257
 6813TIP3   OH220381   1.718   7.203   2.572
 6813TIP3    H120382   1.642   7.260   2.583
 6813TIP3    H220383   1.774   7.222   2.648
 6814TIP3   OH220384   0.905   2.440   1.721
 6814TIP3    H120385   0.911   2.421   1.814
 6814TIP3    H220386   0.825   2.492   1.712
 6815TIP3   OH220387   1.359   4.654   0.599
 6815TIP3    H120388   1.296   4.726   0.602
 6815TIP3    H220389   1.306   4.576   0.619
 6816TIP3   OH220390   2.915   6.398   5.100
 6816TIP3    H120391   2.861   6.354   5.034
 6816TIP3    H220392   2.956   6.470   5.052
 6817TIP3   OH220393   7.587   5.362   0.681
 6817TIP3    H120394   7.563   5.421   0.610
 6817TIP3    H220395   7.587   5.417   0.759
 6818TIP3   OH220396   1.423   0.939   3.425
 6818TIP3    H120397   1.474   0.913   3.502
 6818TIP3    H220398   1.430   0.864   3.365
 6819TIP3   OH220399   3.721   4.577   4.397
 6819TIP3    H120400   3.648   4.619   4.351
 6819TIP3    H220401   3.787   4.646   4.406
 6820TIP3   OH220402   6.276   4.595   0.766
 6820TIP3    H120403   6.231   4.568   0.846
 6820TIP3    H220404   6.360   4.629   0.797
 6821TIP3   OH220405   1.363   3.327   5.303
 6821TIP3    H120406   1.453   3.359   5.309
 6821TIP3    H220407   1.344   3.292   5.391
 6822TIP3   OH220408   3.188   5.523   4.137
 6822TIP3    H120409   3.236   5.486   4.211
 6822TIP3    H220410   3.187   5.618   4.154
 6823TIP3   OH220411   3.660   3.153   4.438
 6823TIP3    H120412   3.706   3.183   4.517
 6823TIP3    H220413   3.709   3.193   4.366
 6824TIP3   OH220414   7.130   3.956   6.465
 6824TIP3    H120415   7.038   3.985   6.466
 6824TIP3    H220416   7.177   4.026   6.511
 6825TIP3   OH220417   3.430   6.700   6.717
 6825TIP3    H120418   3.393   6.630   6.771
 6825TIP3    H220419   3.450   6.770   6.780
 6826TIP3   OH220420   3.967   3.854   5.955
 6826TIP3    H120421   3.888   3.908   5.959
 6826TIP3    H220422   3.968   3.806   6.038
 6827TIP3   OH220423   3.369   2.559   6.383
 6827TIP3    H120424   3.332   2.643   6.356
 6827TIP3    H220425   3.386   2.512   6.302
 6828TIP3   OH220426   5.993   3.134   4.887
 6828TIP3    H120427   5.933   3.203   4.858
 6828TIP3    H220428   5.976   3.126   4.981
 6829TIP3   OH220429   6.455   6.202   6.462
 6829TIP3    H120430   6.454   6.158   6.378
 6829TIP3    H220431   6.363   6.209   6.487
 6830TIP3   OH220432   0.569   3.059   1.871
 6830TIP3    H120433   0.476   3.077   1.856
 6830TIP3    H220434   0.613   3.141   1.850
 6831TIP3   OH220435   7.757   3.294   3.760
 6831TIP3    H120436   7.793   3.335   3.838
 6831TIP3    H220437   7.825   3.233   3.731
 6832TIP3   OH220438   1.767   7.405   5.771
 6832TIP3    H120439   1.861   7.385   5.768
 6832TIP3    H220440   1.726   7.321   5.794
 6833TIP3   OH220441   1.962   3.261   6.086
 6833TIP3    H120442   1.920   3.222   6.163
 6833TIP3    H220443   2.014   3.333   6.122
 6834TIP3   OH220444   0.093   1.607   5.196
 6834TIP3    H120445   0.120   1.697   5.214
 6834TIP3    H220446   0.076   1.605   5.102
 6835TIP3   OH220447   6.418   3.762   0.419
 6835TIP3    H120448   6.408   3.684   0.473
 6835TIP3    H220449   6.480   3.817   0.468
 6836TIP3   OH220450   6.654   1.741   1.130
 6836TIP3    H120451   6.681   1.663   1.081
 6836TIP3    H220452   6.724   1.754   1.194
 6837TIP3   OH220453   0.362   1.662   0.545
 6837TIP3    H120454   0.437   1.662   0.604
 6837TIP3    H220455   0.352   1.571   0.518
 6838TIP3   OH220456   3.996   5.451   3.144
 6838TIP3    H120457   4.058   5.391   3.101
 6838TIP3    H220458   3.997   5.423   3.236
 6839TIP3   OH220459   2.578   6.538   2.121
 6839TIP3    H120460   2.497   6.489   2.134
 6839TIP3    H220461   2.645   6.471   2.111
 6840TIP3   OH220462   6.302   0.796   4.133
 6840TIP3    H120463   6.337   0.856   4.199
 6840TIP3    H220464   6.209   0.788   4.155
 6841TIP3   OH220465   4.252   1.323   0.435
 6841TIP3    H120466   4.226   1.251   0.377
 6841TIP3    H220467   4.347   1.331   0.422
 6842TIP3   OH220468   3.676   1.533   2.004
 6842TIP3    H120469   3.648   1.515   1.914
 6842TIP3    H220470   3.751   1.475   2.018
 6843TIP3   OH220471   1.822   5.231   1.449
 6843TIP3    H120472   1.903   5.180   1.448
 6843TIP3    H220473   1.823   5.279   1.366
 6844TIP3   OH220474   1.738   1.578   6.306
 6844TIP3    H120475   1.698   1.501   6.347
 6844TIP3    H220476   1.679   1.650   6.330
 6845TIP3   OH220477   6.450   2.033   1.779
 6845TIP3    H120478   6.354   2.037   1.779
 6845TIP3    H220479   6.477   2.121   1.805
 6846TIP3   OH220480   4.488   7.274   4.151
 6846TIP3    H120481   4.510   7.271   4.058
 6846TIP3    H220482   4.508   7.363   4.178
 6847TIP3   OH220483   0.593   3.594   5.817
 6847TIP3    H120484   0.670   3.539   5.826
 6847TIP3    H220485   0.564   3.580   5.727
 6848TIP3   OH220486   7.337   7.036   4.903
 6848TIP3    H120487   7.338   7.043   4.999
 6848TIP3    H220488   7.356   7.124   4.872
 6849TIP3   OH220489   7.605   7.639   1.936
 6849TIP3    H120490   7.679   7.581   1.951
 6849TIP3    H220491   7.544   7.621   2.008
 6850TIP3   OH220492   2.023   3.045   4.988
 6850TIP3    H120493   2.016   3.129   5.033
 6850TIP3    H220494   2.058   2.985   5.054
 6851TIP3   OH220495   2.577   2.227   2.065
 6851TIP3    H120496   2.514   2.165   2.103
 6851TIP3    H220497   2.608   2.183   1.986
 6852TIP3   OH220498   2.618   1.454   3.057
 6852TIP3    H120499   2.541   1.442   3.001
 6852TIP3    H220500   2.635   1.548   3.054
 6853TIP3   OH220501   5.820   6.322   6.606
 6853TIP3    H120502   5.908   6.288   6.593
 6853TIP3    H220503   5.830   6.389   6.674
 6854TIP3   OH220504   0.736   5.566   0.679
 6854TIP3    H120505   0.730   5.474   0.707
 6854TIP3    H220506   0.775   5.562   0.592
 6855TIP3   OH220507   2.723   5.269   6.262
 6855TIP3    H120508   2.774   5.339   6.302
 6855TIP3    H220509   2.786   5.218   6.212
 6856TIP3   OH220510   1.845   6.677   6.607
 6856TIP3    H120511   1.843   6.765   6.646
 6856TIP3    H220512   1.908   6.684   6.535
 6857TIP3   OH220513   1.891   7.099   4.997
 6857TIP3    H120514   1.978   7.087   5.035
 6857TIP3    H220515   1.898   7.061   4.910
 6858TIP3   OH220516   4.639   4.254   3.006
 6858TIP3    H120517   4.581   4.327   3.029
 6858TIP3    H220518   4.588   4.176   3.026
 6859TIP3   OH220519   3.964   0.404   3.454
 6859TIP3    H120520   4.059   0.412   3.456
 6859TIP3    H220521   3.943   0.347   3.527
 6860TIP3   OH220522   5.716   1.566   6.711
 6860TIP3    H120523   5.789   1.559   6.650
 6860TIP3    H220524   5.736   1.502   6.779
 6861TIP3   OH220525   0.886   5.709   0.463
 6861TIP3    H120526   0.954   5.690   0.529
 6861TIP3    H220527   0.862   5.800   0.480
 6862TIP3   OH220528   4.991   5.549   6.675
 6862TIP3    H120529   4.956   5.460   6.665
 6862TIP3    H220530   4.981   5.569   6.768
 6863TIP3   OH220531   7.660   4.867   5.006
 6863TIP3    H120532   7.576   4.899   4.974
 6863TIP3    H220533   7.712   4.946   5.022
 6864TIP3   OH220534   5.490   2.607   6.349
 6864TIP3    H120535   5.456   2.525   6.386
 6864TIP3    H220536   5.576   2.584   6.316
 6865TIP3   OH220537   3.042   4.187   0.120
 6865TIP3    H120538   3.123   4.206   0.167
 6865TIP3    H220539   3.045   4.092   0.105
 6866TIP3   OH220540   6.990   5.613   5.056
 6866TIP3    H120541   7.001   5.521   5.079
 6866TIP3    H220542   7.075   5.640   5.023
 6867TIP3   OH220543   1.619   5.334   5.910
 6867TIP3    H120544   1.640   5.241   5.907
 6867TIP3    H220545   1.524   5.338   5.899
 6868TIP3   OH220546   0.979   1.156   1.390
 6868TIP3    H120547   0.893   1.154   1.347
 6868TIP3    H220548   0.962   1.196   1.475
 6869TIP3   OH220549   2.673   4.615   5.031
 6869TIP3    H120550   2.715   4.665   5.101
 6869TIP3    H220551   2.745   4.592   4.972
 6870TIP3   OH220552   4.901   5.569   5.373
 6870TIP3    H120553   4.930   5.504   5.437
 6870TIP3    H220554   4.975   5.578   5.313
 6871TIP3   OH220555   5.023   3.067   4.140
 6871TIP3    H120556   5.111   3.099   4.158
 6871TIP3    H220557   4.971   3.095   4.216
 6872TIP3   OH220558   1.411   7.682   3.440
 6872TIP3    H120559   1.477   7.694   3.371
 6872TIP3    H220560   1.328   7.681   3.394
 6873TIP3   OH220561   0.436   7.385   1.176
 6873TIP3    H120562   0.411   7.477   1.182
 6873TIP3    H220563   0.354   7.339   1.161
 6874TIP3   OH220564   3.574   5.767   6.262
 6874TIP3    H120565   3.564   5.862   6.259
 6874TIP3    H220566   3.558   5.744   6.353
 6875TIP3   OH220567   5.621   5.932   4.703
 6875TIP3    H120568   5.605   5.916   4.610
 6875TIP3    H220569   5.707   5.893   4.720
 6876TIP3   OH220570   3.369   6.658   2.765
 6876TIP3    H120571   3.332   6.693   2.684
 6876TIP3    H220572   3.339   6.718   2.833
 6877TIP3   OH220573   3.949   6.138   5.933
 6877TIP3    H120574   3.938   6.214   5.989
 6877TIP3    H220575   3.861   6.121   5.898
 6878TIP3   OH220576   6.785   0.219   2.708
 6878TIP3    H120577   6.804   0.204   2.616
 6878TIP3    H220578   6.776   0.132   2.746
 6879TIP3   OH220579   6.163   6.702   1.260
 6879TIP3    H120580   6.167   6.652   1.178
 6879TIP3    H220581   6.232   6.767   1.252
 6880TIP3   OH220582   1.855   4.687   5.296
 6880TIP3    H120583   1.785   4.708   5.234
 6880TIP3    H220584   1.810   4.660   5.376
 6881TIP3   OH220585   3.996   1.550   2.196
 6881TIP3    H120586   4.084   1.545   2.233
 6881TIP3    H220587   3.982   1.643   2.178
 6882TIP3   OH220588   7.329   2.942   2.944
 6882TIP3    H120589   7.325   3.027   2.901
 6882TIP3    H220590   7.237   2.916   2.953
 6883TIP3   OH220591   4.214   1.550   1.136
 6883TIP3    H120592   4.198   1.643   1.150
 6883TIP3    H220593   4.169   1.506   1.209
 6884TIP3   OH220594   7.305   6.427   4.072
 6884TIP3    H120595   7.366   6.490   4.034
 6884TIP3    H220596   7.219   6.458   4.044
 6885TIP3   OH220597   8.066   1.224   5.160
 6885TIP3    H120598   8.053   1.238   5.254
 6885TIP3    H220599   7.977   1.214   5.125
 6886TIP3   OH220600   7.048   2.449   3.356
 6886TIP3    H120601   7.023   2.532   3.398
 6886TIP3    H220602   7.001   2.382   3.405
 6887TIP3   OH220603   3.533   0.219   3.962
 6887TIP3    H120604   3.512   0.275   4.036
 6887TIP3    H220605   3.627   0.204   3.969
 6888TIP3   OH220606   6.016   3.076   1.892
 6888TIP3    H120607   5.976   3.045   1.811
 6888TIP3    H220608   6.051   3.163   1.871
 6889TIP3   OH220609   4.258   7.032   1.709
 6889TIP3    H120610   4.282   6.971   1.639
 6889TIP3    H220611   4.273   6.982   1.789
 6890TIP3   OH220612   1.924   4.434   6.132
 6890TIP3    H120613   1.918   4.339   6.123
 6890TIP3    H220614   2.009   4.449   6.173
 6891TIP3   OH220615   5.972   1.072   2.309
 6891TIP3    H120616   5.963   1.092   2.403
 6891TIP3    H220617   5.935   0.985   2.300
 6892TIP3   OH220618   3.518   6.508   6.131
 6892TIP3    H120619   3.525   6.516   6.226
 6892TIP3    H220620   3.608   6.518   6.100
 6893TIP3   OH220621   4.966   0.909   1.774
 6893TIP3    H120622   4.955   0.814   1.770
 6893TIP3    H220623   5.049   0.922   1.818
 6894TIP3   OH220624   7.546   4.241   6.362
 6894TIP3    H120625   7.572   4.181   6.431
 6894TIP3    H220626   7.621   4.244   6.303
 6895TIP3   OH220627   3.212   7.336   2.531
 6895TIP3    H120628   3.233   7.363   2.442
 6895TIP3    H220629   3.213   7.418   2.581
 6896TIP3   OH220630   6.058   2.227   0.834
 6896TIP3    H120631   5.966   2.214   0.855
 6896TIP3    H220632   6.090   2.140   0.810
 6897TIP3   OH220633   0.581   5.107   0.283
 6897TIP3    H120634   0.640   5.085   0.211
 6897TIP3    H220635   0.529   5.028   0.297
 6898TIP3   OH220636   0.779   2.224   6.167
 6898TIP3    H120637   0.852   2.227   6.229
 6898TIP3    H220638   0.756   2.131   6.163
 6899TIP3   OH220639   7.531   2.811   0.645
 6899TIP3    H120640   7.557   2.897   0.679
 6899TIP3    H220641   7.593   2.793   0.574
 6900TIP3   OH220642   7.445   5.208   3.029
 6900TIP3    H120643   7.510   5.253   2.975
 6900TIP3    H220644   7.476   5.219   3.119
 6901TIP3   OH220645   1.035   2.942   3.515
 6901TIP3    H120646   0.990   2.983   3.441
 6901TIP3    H220647   0.999   2.854   3.520
 6902TIP3   OH220648   7.829   2.820   2.584
 6902TIP3    H120649   7.811   2.851   2.496
 6902TIP3    H220650   7.767   2.869   2.640
 6903TIP3   OH220651   6.562   1.510   0.158
 6903TIP3    H120652   6.539   1.598   0.187
 6903TIP3    H220653   6.553   1.512   0.063
 6904TIP3   OH220654   6.963   5.945   3.721
 6904TIP3    H120655   6.967   6.038   3.698
 6904TIP3    H220656   7.053   5.922   3.745
 6905TIP3   OH220657   4.862   7.400   0.093
 6905TIP3    H120658   4.922   7.349   0.039
 6905TIP3    H220659   4.914   7.427   0.168
 6906TIP3   OH220660   4.053   4.018   2.508
 6906TIP3    H120661   4.113   4.028   2.434
 6906TIP3    H220662   4.105   4.043   2.584
 6907TIP3   OH220663   5.288   7.167   6.282
 6907TIP3    H120664   5.192   7.170   6.276
 6907TIP3    H220665   5.318   7.163   6.191
 6908TIP3   OH220666   0.247   6.826   6.168
 6908TIP3    H120667   0.336   6.790   6.175
 6908TIP3    H220668   0.219   6.802   6.080
 6909TIP3   OH220669   7.053   0.083   0.445
 6909TIP3    H120670   7.079   0.099   0.354
 6909TIP3    H220671   7.062   0.168   0.488
 6910TIP3   OH220672   0.267   3.659   5.851
 6910TIP3    H120673   0.228   3.606   5.921
 6910TIP3    H220674   0.216   3.638   5.773
 6911TIP3   OH220675   5.258   5.521   6.615
 6911TIP3    H120676   5.313   5.599   6.629
 6911TIP3    H220677   5.178   5.540   6.664
 6912TIP3   OH220678   3.674   2.546   1.392
 6912TIP3    H120679   3.764   2.540   1.360
 6912TIP3    H220680   3.671   2.630   1.439
 6913TIP3   OH220681   1.555   7.369   1.923
 6913TIP3    H120682   1.623   7.302   1.917
 6913TIP3    H220683   1.591   7.435   1.983
 6914TIP3   OH220684   5.238   2.735   3.805
 6914TIP3    H120685   5.256   2.647   3.839
 6914TIP3    H220686   5.176   2.773   3.867
 6915TIP3   OH220687   0.187   3.264   2.170
 6915TIP3    H120688   0.257   3.252   2.235
 6915TIP3    H220689   0.149   3.349   2.192
 6916TIP3   OH220690   0.395   4.183   3.318
 6916TIP3    H120691   0.476   4.158   3.364
 6916TIP3    H220692   0.419   4.180   3.226
 6917TIP3   OH220693   6.802   4.151   0.954
 6917TIP3    H120694   6.790   4.126   0.862
 6917TIP3    H220695   6.833   4.072   0.997
 6918TIP3   OH220696   5.356   2.869   3.342
 6918TIP3    H120697   5.287   2.818   3.384
 6918TIP3    H220698   5.354   2.953   3.388
 6919TIP3   OH220699   0.549   7.113   1.199
 6919TIP3    H120700   0.495   7.179   1.156
 6919TIP3    H220701   0.513   7.106   1.288
 6920TIP3   OH220702   6.571   6.753   1.596
 6920TIP3    H120703   6.478   6.748   1.616
 6920TIP3    H220704   6.589   6.676   1.543
 6921TIP3   OH220705   7.217   6.534   1.103
 6921TIP3    H120706   7.170   6.552   1.185
 6921TIP3    H220707   7.249   6.620   1.075
 6922TIP3   OH220708   5.136   6.435   6.263
 6922TIP3    H120709   5.076   6.372   6.224
 6922TIP3    H220710   5.190   6.467   6.190
 6923TIP3   OH220711   4.415   0.035   6.256
 6923TIP3    H120712   4.438   0.126   6.237
 6923TIP3    H220713   4.471  -0.016   6.199
 6924TIP3   OH220714   6.303   5.832   1.993
 6924TIP3    H120715   6.358   5.908   2.012
 6924TIP3    H220716   6.216   5.869   1.977
 6925TIP3   OH220717   1.980   0.863   5.834
 6925TIP3    H120718   2.002   0.770   5.834
 6925TIP3    H220719   1.961   0.884   5.743
 6926TIP3   OH220720   4.265   1.382   2.340
 6926TIP3    H120721   4.346   1.340   2.310
 6926TIP3    H220722   4.195   1.329   2.302
 6927TIP3   OH220723   6.307   4.956   6.626
 6927TIP3    H120724   6.239   4.921   6.569
 6927TIP3    H220725   6.307   5.050   6.609
 6928TIP3   OH220726   5.670   3.003   0.797
 6928TIP3    H120727   5.704   3.091   0.781
 6928TIP3    H220728   5.748   2.949   0.805
 6929TIP3   OH220729   3.933   7.858   1.726
 6929TIP3    H120730   3.873   7.783   1.734
 6929TIP3    H220731   4.020   7.820   1.735
 6930TIP3   OH220732   0.266   3.560   2.362
 6930TIP3    H120733   0.350   3.525   2.331
 6930TIP3    H220734   0.253   3.519   2.447
 6931TIP3   OH220735   3.453   0.085   6.405
 6931TIP3    H120736   3.490   0.036   6.478
 6931TIP3    H220737   3.506   0.060   6.329
 6932TIP3   OH220738   7.212   3.549   6.514
 6932TIP3    H120739   7.292   3.553   6.462
 6932TIP3    H220740   7.226   3.477   6.575
 6933TIP3   OH220741   5.756   0.536   0.303
 6933TIP3    H120742   5.692   0.559   0.370
 6933TIP3    H220743   5.709   0.479   0.243
 6934TIP3   OH220744   5.629   6.228   4.356
 6934TIP3    H120745   5.586   6.261   4.435
 6934TIP3    H220746   5.718   6.207   4.384
 6935TIP3   OH220747   0.862   0.300   0.665
 6935TIP3    H120748   0.776   0.259   0.677
 6935TIP3    H220749   0.894   0.267   0.582
 6936TIP3   OH220750   6.487   1.463   1.788
 6936TIP3    H120751   6.430   1.387   1.800
 6936TIP3    H220752   6.427   1.538   1.786
 6937TIP3   OH220753   2.096   1.747   1.138
 6937TIP3    H120754   2.107   1.830   1.185
 6937TIP3    H220755   2.184   1.712   1.131
 6938TIP3   OH220756   0.095   4.434   6.455
 6938TIP3    H120757   0.146   4.357   6.430
 6938TIP3    H220758   0.095   4.489   6.377
 6939TIP3   OH220759   1.330   1.193   4.560
 6939TIP3    H120760   1.334   1.098   4.549
 6939TIP3    H220761   1.412   1.215   4.603
 6940TIP3   OH220762   4.297   5.983   1.087
 6940TIP3    H120763   4.376   5.951   1.044
 6940TIP3    H220764   4.276   5.917   1.153
 6941TIP3   OH220765   0.521   6.191   5.048
 6941TIP3    H120766   0.573   6.177   5.127
 6941TIP3    H220767   0.547   6.121   4.989
 6942TIP3   OH220768   0.018   0.216   0.377
 6942TIP3    H120769  -0.067   0.254   0.356
 6942TIP3    H220770   0.039   0.251   0.463
 6943TIP3   OH220771   7.889   1.401   1.336
 6943TIP3    H120772   7.975   1.390   1.297
 6943TIP3    H220773   7.838   1.326   1.304
 6944TIP3   OH220774   5.963   1.509   4.389
 6944TIP3    H120775   5.950   1.424   4.429
 6944TIP3    H220776   5.883   1.525   4.339
 6945TIP3   OH220777   1.235   5.235   6.059
 6945TIP3    H120778   1.163   5.187   6.100
 6945TIP3    H220779   1.289   5.266   6.132
 6946TIP3   OH220780   3.848   4.534   5.866
 6946TIP3    H120781   3.942   4.520   5.880
 6946TIP3    H220782   3.822   4.594   5.935
 6947TIP3   OH220783   1.850   5.122   5.441
 6947TIP3    H120784   1.758   5.101   5.454
 6947TIP3    H220785   1.891   5.104   5.525
 6948TIP3   OH220786   4.899   6.998   3.958
 6948TIP3    H120787   4.974   6.947   3.988
 6948TIP3    H220788   4.833   6.987   4.027
 6949TIP3   OH220789   2.158   2.471   1.506
 6949TIP3    H120790   2.114   2.510   1.582
 6949TIP3    H220791   2.140   2.377   1.514
 6950TIP3   OH220792   3.894   7.299   1.301
 6950TIP3    H120793   3.808   7.294   1.342
 6950TIP3    H220794   3.875   7.307   1.207
 6951TIP3   OH220795   6.193   3.455   1.382
 6951TIP3    H120796   6.180   3.496   1.468
 6951TIP3    H220797   6.170   3.363   1.396
 6952TIP3   OH220798   5.683   1.369   1.317
 6952TIP3    H120799   5.742   1.385   1.391
 6952TIP3    H220800   5.643   1.284   1.335
 6953TIP3   OH220801   6.444   4.414   4.917
 6953TIP3    H120802   6.521   4.377   4.960
 6953TIP3    H220803   6.386   4.339   4.903
 6954TIP3   OH220804   5.336   3.506   2.855
 6954TIP3    H120805   5.341   3.420   2.814
 6954TIP3    H220806   5.269   3.497   2.923
 6955TIP3   OH220807   7.220   4.880   2.687
 6955TIP3    H120808   7.186   4.807   2.740
 6955TIP3    H220809   7.241   4.840   2.603
 6956TIP3   OH220810   2.116   3.719   2.225
 6956TIP3    H120811   2.023   3.729   2.205
 6956TIP3    H220812   2.152   3.676   2.147
 6957TIP3   OH220813   7.731   6.869   6.205
 6957TIP3    H120814   7.794   6.797   6.199
 6957TIP3    H220815   7.783   6.945   6.231
 6958TIP3   OH220816   0.336   2.490   1.792
 6958TIP3    H120817   0.415   2.526   1.831
 6958TIP3    H220818   0.360   2.475   1.700
 6959TIP3   OH220819   2.274   0.829   5.798
 6959TIP3    H120820   2.222   0.765   5.749
 6959TIP3    H220821   2.210   0.892   5.832
 6960TIP3   OH220822   1.812   6.696   4.786
 6960TIP3    H120823   1.732   6.690   4.734
 6960TIP3    H220824   1.791   6.760   4.854
 6961TIP3   OH220825   6.013   4.919   2.711
 6961TIP3    H120826   6.092   4.933   2.761
 6961TIP3    H220827   5.951   4.879   2.772
 6962TIP3   OH220828   6.029   1.836   2.783
 6962TIP3    H120829   6.062   1.748   2.802
 6962TIP3    H220830   5.943   1.839   2.824
 6963TIP3   OH220831   8.208   7.117   2.895
 6963TIP3    H120832   8.263   7.103   2.972
 6963TIP3    H220833   8.119   7.108   2.928
 6964TIP3   OH220834   2.164   3.550   4.338
 6964TIP3    H120835   2.246   3.511   4.308
 6964TIP3    H220836   2.148   3.623   4.279
 6965TIP3   OH220837   7.729   1.571   4.411
 6965TIP3    H120838   7.657   1.618   4.368
 6965TIP3    H220839   7.770   1.637   4.467
 6966TIP3   OH220840   1.471   4.094   1.650
 6966TIP3    H120841   1.443   4.002   1.655
 6966TIP3    H220842   1.565   4.091   1.662
 6967TIP3   OH220843   3.466   5.964   3.026
 6967TIP3    H120844   3.485   5.934   2.938
 6967TIP3    H220845   3.434   5.886   3.072
 6968TIP3   OH220846   6.823   6.314   5.214
 6968TIP3    H120847   6.780   6.256   5.277
 6968TIP3    H220848   6.912   6.323   5.247
 6969TIP3   OH220849   1.444   3.825   2.975
 6969TIP3    H120850   1.536   3.801   2.973
 6969TIP3    H220851   1.429   3.868   2.890
 6970TIP3   OH220852   7.651   1.195   5.833
 6970TIP3    H120853   7.729   1.142   5.850
 6970TIP3    H220854   7.598   1.186   5.912
 6971TIP3   OH220855   8.208   5.607   6.511
 6971TIP3    H120856   8.146   5.540   6.539
 6971TIP3    H220857   8.156   5.664   6.454
 6972TIP3   OH220858   7.670   2.532   0.686
 6972TIP3    H120859   7.625   2.480   0.619
 6972TIP3    H220860   7.613   2.607   0.701
 6973TIP3   OH220861   2.077   5.931   1.507
 6973TIP3    H120862   1.989   5.897   1.523
 6973TIP3    H220863   2.118   5.865   1.451
 6974TIP3   OH220864   7.518   0.082   5.514
 6974TIP3    H120865   7.460   0.007   5.503
 6974TIP3    H220866   7.599   0.057   5.472
 6975TIP3   OH220867   1.583   3.924   6.666
 6975TIP3    H120868   1.605   3.994   6.605
 6975TIP3    H220869   1.551   3.853   6.611
 6976TIP3   OH220870   7.061   5.698   5.664
 6976TIP3    H120871   7.013   5.766   5.616
 6976TIP3    H220872   7.016   5.692   5.748
 6977TIP3   OH220873   3.694   7.795   0.138
 6977TIP3    H120874   3.626   7.747   0.089
 6977TIP3    H220875   3.703   7.746   0.220
 6978TIP3   OH220876   7.515   5.176   2.000
 6978TIP3    H120877   7.584   5.215   1.945
 6978TIP3    H220878   7.474   5.251   2.043
 6979TIP3   OH220879   4.969   2.755   2.650
 6979TIP3    H120880   5.004   2.837   2.685
 6979TIP3    H220881   4.879   2.776   2.625
 6980TIP3   OH220882   0.348   0.420   3.651
 6980TIP3    H120883   0.417   0.472   3.694
 6980TIP3    H220884   0.370   0.329   3.673
 6981TIP3   OH220885   2.868   6.263   1.196
 6981TIP3    H120886   2.821   6.182   1.181
 6981TIP3    H220887   2.958   6.244   1.169
 6982TIP3   OH220888   3.271   1.911   5.722
 6982TIP3    H120889   3.240   1.838   5.776
 6982TIP3    H220890   3.220   1.905   5.642
 6983TIP3   OH220891   3.955   2.671   4.457
 6983TIP3    H120892   3.897   2.745   4.440
 6983TIP3    H220893   3.972   2.633   4.371
 6984TIP3   OH220894   4.919   5.324   0.788
 6984TIP3    H120895   4.870   5.245   0.812
 6984TIP3    H220896   5.009   5.293   0.777
 6985TIP3   OH220897   0.656   2.099   2.216
 6985TIP3    H120898   0.652   2.015   2.262
 6985TIP3    H220899   0.623   2.162   2.279
 6986TIP3   OH220900   5.254   0.066   1.773
 6986TIP3    H120901   5.315   0.122   1.726
 6986TIP3    H220902   5.274   0.081   1.866
 6987TIP3   OH220903   7.262   0.891   2.346
 6987TIP3    H120904   7.193   0.928   2.291
 6987TIP3    H220905   7.243   0.797   2.348
 6988TIP3   OH220906   4.261   1.510   1.811
 6988TIP3    H120907   4.307   1.554   1.739
 6988TIP3    H220908   4.181   1.476   1.770
 6989TIP3   OH220909   3.297   6.879   3.255
 6989TIP3    H120910   3.364   6.882   3.324
 6989TIP3    H220911   3.275   6.786   3.248
 6990TIP3   OH220912   0.504   1.423   3.505
 6990TIP3    H120913   0.562   1.469   3.444
 6990TIP3    H220914   0.417   1.456   3.484
 6991TIP3   OH220915   4.937   2.033   1.538
 6991TIP3    H120916   4.908   2.124   1.533
 6991TIP3    H220917   5.018   2.036   1.588
 6992TIP3   OH220918   6.578   0.552   4.462
 6992TIP3    H120919   6.566   0.621   4.396
 6992TIP3    H220920   6.666   0.568   4.497
 6993TIP3   OH220921   3.530   1.905   4.603
 6993TIP3    H120922   3.508   1.912   4.510
 6993TIP3    H220923   3.502   1.816   4.628
 6994TIP3   OH220924   4.977   0.721   4.246
 6994TIP3    H120925   4.891   0.679   4.233
 6994TIP3    H220926   5.039   0.655   4.214
 6995TIP3   OH220927   0.350   5.200   3.761
 6995TIP3    H120928   0.414   5.143   3.718
 6995TIP3    H220929   0.281   5.212   3.697
 6996TIP3   OH220930   0.943   5.820   0.916
 6996TIP3    H120931   0.915   5.887   0.979
 6996TIP3    H220932   0.899   5.845   0.834
 6997TIP3   OH220933   2.710   6.309   5.883
 6997TIP3    H120934   2.802   6.306   5.909
 6997TIP3    H220935   2.681   6.218   5.885
 6998TIP3   OH220936   0.529   1.895   2.674
 6998TIP3    H120937   0.598   1.869   2.736
 6998TIP3    H220938   0.558   1.979   2.639
 6999TIP3   OH220939   8.171   1.900   4.716
 6999TIP3    H120940   8.157   1.939   4.803
 6999TIP3    H220941   8.264   1.877   4.715
 7000TIP3   OH220942   4.271   3.072   6.037
 7000TIP3    H120943   4.238   2.987   6.008
 7000TIP3    H220944   4.194   3.128   6.041
 7001TIP3   OH220945   3.708   1.538   4.675
 7001TIP3    H120946   3.643   1.588   4.626
 7001TIP3    H220947   3.755   1.603   4.727
 7002TIP3   OH220948   3.603   0.189   2.925
 7002TIP3    H120949   3.556   0.216   2.846
 7002TIP3    H220950   3.534   0.163   2.986
 7003TIP3   OH220951   1.059   7.219   2.191
 7003TIP3    H120952   1.136   7.177   2.230
 7003TIP3    H220953   1.032   7.158   2.122
 7004TIP3   OH220954   0.767   1.813   1.531
 7004TIP3    H120955   0.719   1.778   1.456
 7004TIP3    H220956   0.746   1.906   1.533
 7005TIP3   OH220957   0.557   6.600   6.631
 7005TIP3    H120958   0.583   6.563   6.547
 7005TIP3    H220959   0.569   6.694   6.621
 7006TIP3   OH220960   4.457   2.970   4.459
 7006TIP3    H120961   4.438   2.929   4.543
 7006TIP3    H220962   4.525   3.035   4.478
 7007TIP3   OH220963   3.413   2.150   5.814
 7007TIP3    H120964   3.354   2.198   5.873
 7007TIP3    H220965   3.361   2.077   5.782
 7008TIP3   OH220966   2.568   4.329   2.584
 7008TIP3    H120967   2.657   4.298   2.597
 7008TIP3    H220968   2.529   4.265   2.525
 7009TIP3   OH220969   8.112   4.124   2.511
 7009TIP3    H120970   8.164   4.203   2.525
 7009TIP3    H220971   8.169   4.067   2.459
 7010TIP3   OH220972   1.582   1.990   2.600
 7010TIP3    H120973   1.527   1.912   2.592
 7010TIP3    H220974   1.595   2.020   2.510
 7011TIP3   OH220975   6.785   5.284   2.861
 7011TIP3    H120976   6.841   5.286   2.939
 7011TIP3    H220977   6.844   5.259   2.790
 7012TIP3   OH220978   4.949   5.298   5.983
 7012TIP3    H120979   4.886   5.340   5.925
 7012TIP3    H220980   5.026   5.284   5.928
 7013TIP3   OH220981   6.126   2.426   4.316
 7013TIP3    H120982   6.159   2.501   4.365
 7013TIP3    H220983   6.191   2.357   4.331
 7014TIP3   OH220984   0.532   4.800   4.525
 7014TIP3    H120985   0.463   4.857   4.557
 7014TIP3    H220986   0.507   4.782   4.434
 7015TIP3   OH220987   4.758   6.737   2.052
 7015TIP3    H120988   4.844   6.736   2.009
 7015TIP3    H220989   4.735   6.830   2.056
 7016TIP3   OH220990   4.741   2.316   5.811
 7016TIP3    H120991   4.740   2.379   5.883
 7016TIP3    H220992   4.754   2.369   5.732
 7017TIP3   OH220993   7.219   0.228   5.592
 7017TIP3    H120994   7.232   0.207   5.684
 7017TIP3    H220995   7.302   0.205   5.550
 7018TIP3   OH220996   3.924   7.276   0.423
 7018TIP3    H120997   3.854   7.342   0.430
 7018TIP3    H220998   3.991   7.318   0.369
 7019TIP3   OH220999   6.602   5.247   6.460
 7019TIP3    H121000   6.577   5.326   6.508
 7019TIP3    H221001   6.693   5.261   6.436
 7020TIP3   OH221002   1.373   0.712   5.563
 7020TIP3    H121003   1.278   0.706   5.561
 7020TIP3    H221004   1.397   0.684   5.652
 7021TIP3   OH221005   3.989   1.234   3.115
 7021TIP3    H121006   4.015   1.190   3.034
 7021TIP3    H221007   3.964   1.322   3.088
 7022TIP3   OH221008   7.245   0.204   5.103
 7022TIP3    H121009   7.209   0.118   5.081
 7022TIP3    H221010   7.327   0.185   5.149
 7023TIP3   OH221011   1.393   3.522   4.893
 7023TIP3    H121012   1.349   3.521   4.979
 7023TIP3    H221013   1.476   3.565   4.909
 7024TIP3   OH221014   7.631   5.500   5.712
 7024TIP3    H121015   7.722   5.527   5.704
 7024TIP3    H221016   7.581   5.582   5.708
 7025TIP3   OH221017   1.512   3.008   5.018
 7025TIP3    H121018   1.421   3.036   5.034
 7025TIP3    H221019   1.511   2.976   4.928
 7026TIP3   OH221020   7.186   1.920   4.641
 7026TIP3    H121021   7.093   1.943   4.641
 7026TIP3    H221022   7.228   1.993   4.596
 7027TIP3   OH221023   2.746   2.354   6.689
 7027TIP3    H121024   2.825   2.325   6.643
 7027TIP3    H221025   2.674   2.329   6.631
 7028TIP3   OH221026   5.793   7.527  -0.089
 7028TIP3    H121027   5.879   7.567  -0.089
 7028TIP3    H221028   5.752   7.555  -0.171
 7029TIP3   OH221029   3.184   5.766   6.680
 7029TIP3    H121030   3.257   5.720   6.720
 7029TIP3    H221031   3.134   5.698   6.634
 7030TIP3   OH221032   0.248   4.352   1.047
 7030TIP3    H121033   0.168   4.346   1.099
 7030TIP3    H221034   0.318   4.331   1.108
 7031TIP3   OH221035   2.239   3.930   6.614
 7031TIP3    H121036   2.330   3.907   6.593
 7031TIP3    H221037   2.245   4.017   6.654
 7032TIP3   OH221038   2.807   4.274   2.674
 7032TIP3    H121039   2.850   4.348   2.632
 7032TIP3    H221040   2.816   4.291   2.768
 7033TIP3   OH221041   0.255   6.961   5.469
 7033TIP3    H121042   0.319   6.893   5.447
 7033TIP3    H221043   0.281   7.036   5.415
 7034TIP3   OH221044   6.133   3.064   2.341
 7034TIP3    H121045   6.192   3.016   2.399
 7034TIP3    H221046   6.060   3.004   2.327
 7035TIP3   OH221047   5.282   0.640   3.749
 7035TIP3    H121048   5.297   0.584   3.673
 7035TIP3    H221049   5.370   0.666   3.778
 7036TIP3   OH221050   0.368   7.660   5.128
 7036TIP3    H121051   0.331   7.638   5.043
 7036TIP3    H221052   0.311   7.730   5.161
 7037TIP3   OH221053   2.075   1.561   2.669
 7037TIP3    H121054   2.130   1.569   2.591
 7037TIP3    H221055   1.988   1.541   2.634
 7038TIP3   OH221056   7.178   7.583   6.086
 7038TIP3    H121057   7.180   7.666   6.038
 7038TIP3    H221058   7.210   7.518   6.023
 7039TIP3   OH221059   5.097   5.008   4.902
 7039TIP3    H121060   5.095   5.101   4.879
 7039TIP3    H221061   5.005   4.986   4.920
 7040TIP3   OH221062   7.297   5.519   4.835
 7040TIP3    H121063   7.385   5.498   4.869
 7040TIP3    H221064   7.239   5.458   4.880
 7041TIP3   OH221065   2.466   6.146   1.414
 7041TIP3    H121066   2.474   6.143   1.509
 7041TIP3    H221067   2.407   6.073   1.393
 7042TIP3   OH221068   7.788   5.414   5.144
 7042TIP3    H121069   7.829   5.497   5.118
 7042TIP3    H221070   7.818   5.400   5.234
 7043TIP3   OH221071   4.214   7.324   4.687
 7043TIP3    H121072   4.189   7.412   4.661
 7043TIP3    H221073   4.189   7.268   4.613
 7044TIP3   OH221074   6.591   6.443   4.368
 7044TIP3    H121075   6.685   6.456   4.381
 7044TIP3    H221076   6.557   6.529   4.346
 7045TIP3   OH221077   6.095   6.910   2.429
 7045TIP3    H121078   6.121   6.904   2.521
 7045TIP3    H221079   6.053   6.826   2.411
 7046TIP3   OH221080   7.835   7.405   1.761
 7046TIP3    H121081   7.895   7.340   1.722
 7046TIP3    H221082   7.749   7.365   1.753
 7047TIP3   OH221083   8.036   6.569   5.585
 7047TIP3    H121084   8.020   6.648   5.532
 7047TIP3    H221085   8.124   6.582   5.620
 7048TIP3   OH221086   7.535   1.294   3.478
 7048TIP3    H121087   7.487   1.282   3.559
 7048TIP3    H221088   7.580   1.378   3.488
 7049TIP3   OH221089   7.577   1.146   1.518
 7049TIP3    H121090   7.569   1.109   1.606
 7049TIP3    H221091   7.670   1.137   1.497
 7050TIP3   OH221092   1.367   2.684   4.913
 7050TIP3    H121093   1.343   2.691   5.005
 7050TIP3    H221094   1.300   2.628   4.874
 7051TIP3   OH221095   2.045   7.174   2.163
 7051TIP3    H121096   1.983   7.101   2.165
 7051TIP3    H221097   2.033   7.217   2.248
 7052TIP3   OH221098   2.328   4.469   2.068
 7052TIP3    H121099   2.385   4.532   2.112
 7052TIP3    H221100   2.387   4.417   2.013
 7053TIP3   OH221101   6.030   5.907   2.015
 7053TIP3    H121102   6.001   5.963   2.088
 7053TIP3    H221103   6.062   5.828   2.057
 7054TIP3   OH221104   2.726   2.176   5.075
 7054TIP3    H121105   2.815   2.139   5.078
 7054TIP3    H221106   2.694   2.169   5.164
 7055TIP3   OH221107   0.158   6.947   6.400
 7055TIP3    H121108   0.176   6.869   6.452
 7055TIP3    H221109   0.189   6.924   6.312
 7056TIP3   OH221110   6.779   4.645   3.379
 7056TIP3    H121111   6.687   4.667   3.370
 7056TIP3    H221112   6.780   4.564   3.429
 7057TIP3   OH221113   5.111   3.878   3.306
 7057TIP3    H121114   5.162   3.958   3.301
 7057TIP3    H221115   5.033   3.895   3.253
 7058TIP3   OH221116   6.738   4.702   0.284
 7058TIP3    H121117   6.708   4.612   0.299
 7058TIP3    H221118   6.811   4.714   0.346
 7059TIP3   OH221119   6.990   4.433   4.880
 7059TIP3    H121120   6.904   4.464   4.851
 7059TIP3    H221121   7.028   4.508   4.926
 7060TIP3   OH221122   2.900   1.757   6.486
 7060TIP3    H121123   2.931   1.830   6.433
 7060TIP3    H221124   2.893   1.684   6.425
 7061TIP3   OH221125   3.872   1.361   2.047
 7061TIP3    H121126   3.913   1.430   2.100
 7061TIP3    H221127   3.945   1.320   2.001
 7062TIP3   OH221128   3.715   4.877   1.198
 7062TIP3    H121129   3.770   4.800   1.216
 7062TIP3    H221130   3.630   4.840   1.173
 7063TIP3   OH221131   6.949   6.875   3.225
 7063TIP3    H121132   6.971   6.962   3.258
 7063TIP3    H221133   6.937   6.822   3.303
 7064TIP3   OH221134   8.191   1.059   6.655
 7064TIP3    H121135   8.248   1.078   6.729
 7064TIP3    H221136   8.195   0.964   6.645
 7065TIP3   OH221137   6.528   0.645   1.946
 7065TIP3    H121138   6.492   0.557   1.954
 7065TIP3    H221139   6.452   0.700   1.927
 7066TIP3   OH221140   7.795   4.449   5.813
 7066TIP3    H121141   7.751   4.525   5.774
 7066TIP3    H221142   7.725   4.400   5.856
 7067TIP3   OH221143   1.922   0.602   3.886
 7067TIP3    H121144   1.892   0.688   3.856
 7067TIP3    H221145   2.015   0.601   3.863
 7068TIP3   OH221146   6.262   2.952   4.483
 7068TIP3    H121147   6.294   2.994   4.403
 7068TIP3    H221148   6.335   2.960   4.545
 7069TIP3   OH221149   4.603   6.012   4.866
 7069TIP3    H121150   4.614   5.985   4.774
 7069TIP3    H221151   4.659   5.952   4.915
 7070TIP3   OH221152   0.429   2.274   6.421
 7070TIP3    H121153   0.453   2.365   6.403
 7070TIP3    H221154   0.471   2.223   6.352
 7071TIP3   OH221155   1.377   2.871   1.399
 7071TIP3    H121156   1.379   2.796   1.339
 7071TIP3    H221157   1.442   2.849   1.466
 7072TIP3   OH221158   5.463   2.781   3.089
 7072TIP3    H121159   5.439   2.799   3.180
 7072TIP3    H221160   5.385   2.743   3.049
 7073TIP3   OH221161   4.511   0.290   0.449
 7073TIP3    H121162   4.474   0.282   0.536
 7073TIP3    H221163   4.541   0.380   0.443
 7074TIP3   OH221164   4.301   6.272   5.486
 7074TIP3    H121165   4.207   6.287   5.473
 7074TIP3    H221166   4.334   6.353   5.524
 7075TIP3   OH221167   3.805   0.842   4.729
 7075TIP3    H121168   3.737   0.774   4.721
 7075TIP3    H221169   3.800   0.869   4.821
 7076TIP3   OH221170   4.711   4.901   5.263
 7076TIP3    H121171   4.624   4.862   5.264
 7076TIP3    H221172   4.696   4.994   5.279
 7077TIP3   OH221173   5.063   7.612   6.359
 7077TIP3    H121174   5.047   7.558   6.436
 7077TIP3    H221175   5.000   7.580   6.294
 7078TIP3   OH221176   1.174   7.342   3.553
 7078TIP3    H121177   1.159   7.340   3.648
 7078TIP3    H221178   1.135   7.261   3.521
 7079TIP3   OH221179   0.182   0.216   3.033
 7079TIP3    H121180   0.119   0.266   3.085
 7079TIP3    H221181   0.239   0.176   3.099
 7080TIP3   OH221182   0.939   4.693   4.542
 7080TIP3    H121183   0.929   4.632   4.470
 7080TIP3    H221184   0.987   4.767   4.504
 7081TIP3   OH221185   3.276   7.168   4.811
 7081TIP3    H121186   3.255   7.216   4.891
 7081TIP3    H221187   3.371   7.163   4.809
 7082TIP3   OH221188   4.811   1.991   0.125
 7082TIP3    H121189   4.848   1.907   0.100
 7082TIP3    H221190   4.872   2.026   0.191
 7083TIP3   OH221191   2.141   3.873   3.107
 7083TIP3    H121192   2.154   3.818   3.184
 7083TIP3    H221193   2.226   3.915   3.094
 7084TIP3   OH221194   2.701   4.833   1.106
 7084TIP3    H121195   2.741   4.765   1.160
 7084TIP3    H221196   2.678   4.902   1.168
 7085TIP3   OH221197   5.542   3.621   3.417
 7085TIP3    H121198   5.552   3.704   3.464
 7085TIP3    H221199   5.448   3.611   3.404
 7086TIP3   OH221200   6.588   5.125   3.000
 7086TIP3    H121201   6.611   5.033   2.996
 7086TIP3    H221202   6.654   5.169   2.946
 7087TIP3   OH221203   7.674   2.978   2.762
 7087TIP3    H121204   7.687   3.073   2.768
 7087TIP3    H221205   7.693   2.946   2.850
 7088TIP3   OH221206   6.693   0.742   3.781
 7088TIP3    H121207   6.661   0.807   3.843
 7088TIP3    H221208   6.626   0.673   3.781
 7089TIP3   OH221209   2.484   0.680   4.022
 7089TIP3    H121210   2.403   0.719   4.055
 7089TIP3    H221211   2.531   0.753   3.981
 7090TIP3   OH221212   2.754   5.257   5.588
 7090TIP3    H121213   2.763   5.166   5.559
 7090TIP3    H221214   2.814   5.264   5.662
 7091TIP3   OH221215   2.663   1.420   1.779
 7091TIP3    H121216   2.663   1.496   1.721
 7091TIP3    H221217   2.593   1.364   1.746
 7092TIP3   OH221218   0.110   0.515   4.638
 7092TIP3    H121219   0.177   0.541   4.575
 7092TIP3    H221220   0.131   0.423   4.658
 7093TIP3   OH221221   7.591   7.673   0.903
 7093TIP3    H121222   7.561   7.660   0.814
 7093TIP3    H221223   7.571   7.591   0.948
 7094TIP3   OH221224   3.652   1.406   6.634
 7094TIP3    H121225   3.599   1.464   6.579
 7094TIP3    H221226   3.743   1.431   6.615
 7095TIP3   OH221227   0.694   2.350   6.682
 7095TIP3    H121228   0.685   2.258   6.708
 7095TIP3    H221229   0.742   2.347   6.599
 7096TIP3   OH221230   1.765   1.395   4.816
 7096TIP3    H121231   1.816   1.337   4.759
 7096TIP3    H221232   1.763   1.351   4.901
 7097TIP3   OH221233   7.242   0.404   2.527
 7097TIP3    H121234   7.208   0.334   2.583
 7097TIP3    H221235   7.170   0.423   2.467
 7098TIP3   OH221236   2.287   2.507   3.339
 7098TIP3    H121237   2.217   2.526   3.278
 7098TIP3    H221238   2.282   2.577   3.404
 7099TIP3   OH221239   5.207   1.909   1.208
 7099TIP3    H121240   5.245   1.875   1.289
 7099TIP3    H221241   5.125   1.950   1.236
 7100TIP3   OH221242   1.907   5.963   4.621
 7100TIP3    H121243   1.884   5.876   4.588
 7100TIP3    H221244   1.985   5.948   4.675
 7101TIP3   OH221245   6.447   0.202   0.325
 7101TIP3    H121246   6.488   0.139   0.266
 7101TIP3    H221247   6.371   0.156   0.361
 7102TIP3   OH221248   6.752   4.570   1.873
 7102TIP3    H121249   6.826   4.588   1.930
 7102TIP3    H221250   6.791   4.559   1.786
 7103TIP3   OH221251   6.970   4.720   0.462
 7103TIP3    H121252   7.013   4.635   0.467
 7103TIP3    H221253   6.906   4.719   0.533
 7104TIP3   OH221254   0.683   0.320   4.412
 7104TIP3    H121255   0.625   0.386   4.376
 7104TIP3    H221256   0.692   0.255   4.342
 7105TIP3   OH221257   6.589   3.057   1.774
 7105TIP3    H121258   6.626   2.984   1.823
 7105TIP3    H221259   6.564   3.120   1.842
 7106TIP3   OH221260   6.890   2.111   1.088
 7106TIP3    H121261   6.958   2.064   1.137
 7106TIP3    H221262   6.878   2.059   1.008
 7107TIP3   OH221263   2.820   5.683   5.570
 7107TIP3    H121264   2.899   5.729   5.596
 7107TIP3    H221265   2.757   5.700   5.640
 7108TIP3   OH221266   4.549   6.595   6.428
 7108TIP3    H121267   4.644   6.587   6.434
 7108TIP3    H221268   4.526   6.550   6.347
 7109TIP3   OH221269   0.686   7.176   6.232
 7109TIP3    H121270   0.730   7.092   6.227
 7109TIP3    H221271   0.648   7.189   6.145
 7110TIP3   OH221272   7.474   5.539   3.948
 7110TIP3    H121273   7.542   5.480   3.982
 7110TIP3    H221274   7.424   5.564   4.026
 7111TIP3   OH221275   2.945   6.938   1.777
 7111TIP3    H121276   2.852   6.953   1.793
 7111TIP3    H221277   2.958   6.846   1.799
 7112TIP3   OH221278   1.979   1.495   5.501
 7112TIP3    H121279   2.069   1.516   5.475
 7112TIP3    H221280   1.986   1.472   5.593
 7113TIP3   OH221281   5.958   3.476   4.156
 7113TIP3    H121282   6.023   3.463   4.087
 7113TIP3    H221283   5.973   3.565   4.187
 7114TIP3   OH221284   0.845   6.474   1.095
 7114TIP3    H121285   0.883   6.521   1.169
 7114TIP3    H221286   0.833   6.542   1.028
 7115TIP3   OH221287   0.044   3.362   1.411
 7115TIP3    H121288   0.090   3.295   1.461
 7115TIP3    H221289  -0.046   3.328   1.402
 7116TIP3   OH221290   6.624   1.319   2.297
 7116TIP3    H121291   6.709   1.311   2.341
 7116TIP3    H221292   6.578   1.238   2.319
 7117TIP3   OH221293   2.814   5.214   2.693
 7117TIP3    H121294   2.827   5.305   2.718
 7117TIP3    H221295   2.767   5.176   2.767
 7118TIP3   OH221296   6.118   4.914   3.905
 7118TIP3    H121297   6.088   4.835   3.950
 7118TIP3    H221298   6.209   4.925   3.933
 7119TIP3   OH221299   2.056   6.188   4.768
 7119TIP3    H121300   2.135   6.184   4.713
 7119TIP3    H221301   2.072   6.262   4.827
 7120TIP3   OH221302   0.695   6.403   2.204
 7120TIP3    H121303   0.684   6.425   2.111
 7120TIP3    H221304   0.752   6.471   2.239
 7121TIP3   OH221305   4.163   5.613   2.125
 7121TIP3    H121306   4.130   5.571   2.046
 7121TIP3    H221307   4.255   5.632   2.107
 7122TIP3   OH221308   5.461   6.937   5.585
 7122TIP3    H121309   5.524   6.989   5.535
 7122TIP3    H221310   5.483   6.954   5.676
 7123TIP3   OH221311   0.219   5.235   6.565
 7123TIP3    H121312   0.126   5.214   6.573
 7123TIP3    H221313   0.263   5.164   6.611
 7124TIP3   OH221314   4.243   2.537   5.126
 7124TIP3    H121315   4.189   2.459   5.117
 7124TIP3    H221316   4.274   2.534   5.217
 7125TIP3   OH221317   6.910   5.729   5.933
 7125TIP3    H121318   6.959   5.807   5.959
 7125TIP3    H221319   6.909   5.673   6.010
 7126TIP3   OH221320   5.119   1.123   3.328
 7126TIP3    H121321   5.193   1.168   3.367
 7126TIP3    H221322   5.054   1.118   3.399
 7127TIP3   OH221323   4.772   2.024   3.936
 7127TIP3    H121324   4.683   2.049   3.959
 7127TIP3    H221325   4.821   2.106   3.935
 7128TIP3   OH221326   6.376   3.562   6.470
 7128TIP3    H121327   6.338   3.617   6.539
 7128TIP3    H221328   6.470   3.577   6.477
 7129TIP3   OH221329   4.252   2.175   2.329
 7129TIP3    H121330   4.186   2.105   2.327
 7129TIP3    H221331   4.323   2.138   2.381
 7130TIP3   OH221332   8.042   6.074   2.167
 7130TIP3    H121333   8.112   6.137   2.152
 7130TIP3    H221334   8.000   6.064   2.082
 7131TIP3   OH221335   1.302   4.915   2.456
 7131TIP3    H121336   1.261   4.956   2.379
 7131TIP3    H221337   1.278   4.972   2.529
 7132TIP3   OH221338   2.836   3.660   3.414
 7132TIP3    H121339   2.910   3.604   3.394
 7132TIP3    H221340   2.767   3.631   3.355
 7133TIP3   OH221341   7.935   5.912   4.497
 7133TIP3    H121342   7.858   5.878   4.542
 7133TIP3    H221343   7.907   5.922   4.406
 7134TIP3   OH221344   0.057   1.664   5.532
 7134TIP3    H121345   0.140   1.646   5.488
 7134TIP3    H221346   0.017   1.732   5.478
 7135TIP3   OH221347   4.825   5.704   4.195
 7135TIP3    H121348   4.779   5.739   4.120
 7135TIP3    H221349   4.827   5.776   4.258
 7136TIP3   OH221350   5.751   0.508   1.097
 7136TIP3    H121351   5.765   0.552   1.014
 7136TIP3    H221352   5.772   0.574   1.163
 7137TIP3   OH221353   2.310   5.125   4.752
 7137TIP3    H121354   2.367   5.198   4.775
 7137TIP3    H221355   2.221   5.162   4.756
 7138TIP3   OH221356   3.219   4.271   5.273
 7138TIP3    H121357   3.194   4.182   5.248
 7138TIP3    H221358   3.199   4.324   5.196
 7139TIP3   OH221359   4.090   5.803   6.497
 7139TIP3    H121360   4.073   5.709   6.490
 7139TIP3    H221361   4.009   5.844   6.468
 7140TIP3   OH221362   3.798   4.568   2.535
 7140TIP3    H121363   3.799   4.510   2.459
 7140TIP3    H221364   3.731   4.531   2.592
 7141TIP3   OH221365   7.909   5.969   1.593
 7141TIP3    H121366   7.832   5.915   1.577
 7141TIP3    H221367   7.950   5.931   1.671
 7142TIP3   OH221368   4.916   3.530   2.721
 7142TIP3    H121369   4.984   3.466   2.741
 7142TIP3    H221370   4.835   3.487   2.748
 7143TIP3   OH221371   0.744   1.331   4.275
 7143TIP3    H121372   0.701   1.248   4.297
 7143TIP3    H221373   0.713   1.351   4.186
 7144TIP3   OH221374   0.982   4.675   2.192
 7144TIP3    H121375   1.041   4.735   2.145
 7144TIP3    H221376   1.039   4.604   2.221
 7145TIP3   OH221377   7.599   6.482   2.832
 7145TIP3    H121378   7.506   6.467   2.819
 7145TIP3    H221379   7.616   6.568   2.792
 7146TIP3   OH221380   4.845   7.562   6.645
 7146TIP3    H121381   4.894   7.636   6.608
 7146TIP3    H221382   4.905   7.487   6.636
 7147TIP3   OH221383   1.044   2.027   2.110
 7147TIP3    H121384   0.968   1.970   2.110
 7147TIP3    H221385   1.047   2.063   2.199
 7148TIP3   OH221386   4.492   6.988   1.177
 7148TIP3    H121387   4.495   6.893   1.179
 7148TIP3    H221388   4.450   7.013   1.260
 7149TIP3   OH221389   3.836   6.100   2.766
 7149TIP3    H121390   3.830   6.082   2.860
 7149TIP3    H221391   3.845   6.195   2.760
 7150TIP3   OH221392   5.338   5.312   0.277
 7150TIP3    H121393   5.363   5.255   0.204
 7150TIP3    H221394   5.272   5.262   0.325
 7151TIP3   OH221395   5.959   7.703   1.779
 7151TIP3    H121396   5.909   7.729   1.701
 7151TIP3    H221397   6.033   7.654   1.744
 7152TIP3   OH221398   5.511   5.400   1.358
 7152TIP3    H121399   5.425   5.361   1.344
 7152TIP3    H221400   5.512   5.478   1.303
 7153TIP3   OH221401   0.477   5.466   3.761
 7153TIP3    H121402   0.497   5.459   3.668
 7153TIP3    H221403   0.427   5.387   3.781
 7154TIP3   OH221404   1.340   6.899   6.439
 7154TIP3    H121405   1.422   6.896   6.488
 7154TIP3    H221406   1.342   6.821   6.384
 7155TIP3   OH221407   2.374   4.446   3.737
 7155TIP3    H121408   2.450   4.401   3.700
 7155TIP3    H221409   2.310   4.375   3.750
 7156TIP3   OH221410   6.465   7.452   6.487
 7156TIP3    H121411   6.539   7.483   6.540
 7156TIP3    H221412   6.493   7.467   6.396
 7157TIP3   OH221413   1.231   7.293   1.319
 7157TIP3    H121414   1.259   7.201   1.323
 7157TIP3    H221415   1.141   7.289   1.287
 7158TIP3   OH221416   3.393   0.651   5.021
 7158TIP3    H121417   3.413   0.712   5.092
 7158TIP3    H221418   3.302   0.671   4.997
 7159TIP3   OH221419   5.678   3.038   3.977
 7159TIP3    H121420   5.755   3.094   3.965
 7159TIP3    H221421   5.621   3.059   3.903
 7160TIP3   OH221422   0.582   1.708   3.685
 7160TIP3    H121423   0.582   1.794   3.641
 7160TIP3    H221424   0.504   1.710   3.741
 7161TIP3   OH221425   4.321   0.029   4.550
 7161TIP3    H121426   4.408   0.064   4.536
 7161TIP3    H221427   4.322  -0.056   4.507
 7162TIP3   OH221428   7.359   5.726   5.663
 7162TIP3    H121429   7.304   5.655   5.628
 7162TIP3    H221430   7.303   5.772   5.725
 7163TIP3   OH221431   4.590   5.503   5.641
 7163TIP3    H121432   4.512   5.558   5.644
 7163TIP3    H221433   4.558   5.415   5.625
 7164TIP3   OH221434   8.041   2.811   6.404
 7164TIP3    H121435   8.086   2.814   6.489
 7164TIP3    H221436   7.975   2.741   6.414
 7165TIP3   OH221437   2.464   0.762   2.087
 7165TIP3    H121438   2.511   0.752   2.169
 7165TIP3    H221439   2.532   0.769   2.020
 7166TIP3   OH221440   6.805   7.353   5.776
 7166TIP3    H121441   6.740   7.392   5.719
 7166TIP3    H221442   6.866   7.309   5.717
 7167TIP3   OH221443   5.802   4.336   2.098
 7167TIP3    H121444   5.818   4.421   2.057
 7167TIP3    H221445   5.888   4.297   2.107
 7168TIP3   OH221446   1.207   3.892   5.421
 7168TIP3    H121447   1.135   3.951   5.396
 7168TIP3    H221448   1.286   3.946   5.411
 7169TIP3   OH221449   2.820   2.064   1.337
 7169TIP3    H121450   2.746   2.090   1.392
 7169TIP3    H221451   2.811   1.969   1.327
 7170TIP3   OH221452   0.992   5.946   5.910
 7170TIP3    H121453   1.019   5.860   5.942
 7170TIP3    H221454   0.982   5.935   5.816
 7171TIP3   OH221455   1.552   3.492   1.991
 7171TIP3    H121456   1.628   3.523   1.942
 7171TIP3    H221457   1.524   3.567   2.042
 7172TIP3   OH221458   3.995   6.978   3.698
 7172TIP3    H121459   3.911   6.932   3.706
 7172TIP3    H221460   3.971   7.068   3.677
 7173TIP3   OH221461   4.007   4.138   3.190
 7173TIP3    H121462   3.981   4.121   3.100
 7173TIP3    H221463   3.931   4.182   3.229
 7174TIP3   OH221464   4.512   4.285   4.754
 7174TIP3    H121465   4.571   4.336   4.809
 7174TIP3    H221466   4.492   4.342   4.680
 7175TIP3   OH221467   7.415   1.455   0.859
 7175TIP3    H121468   7.360   1.518   0.811
 7175TIP3    H221469   7.371   1.443   0.942
 7176TIP3   OH221470   1.657   1.993   1.473
 7176TIP3    H121471   1.633   1.979   1.381
 7176TIP3    H221472   1.746   2.027   1.469
 7177TIP3   OH221473   2.138   3.609   6.050
 7177TIP3    H121474   2.129   3.545   6.120
 7177TIP3    H221475   2.104   3.690   6.087
 7178TIP3   OH221476   1.640   7.074   0.934
 7178TIP3    H121477   1.674   7.032   0.855
 7178TIP3    H221478   1.702   7.144   0.953
 7179TIP3   OH221479  -0.029   1.643   3.947
 7179TIP3    H121480   0.044   1.594   3.986
 7179TIP3    H221481  -0.048   1.712   4.011
 7180TIP3   OH221482   2.274   4.643   1.742
 7180TIP3    H121483   2.290   4.699   1.818
 7180TIP3    H221484   2.325   4.564   1.759
 7181TIP3   OH221485   1.566   1.610   2.079
 7181TIP3    H121486   1.612   1.550   2.020
 7181TIP3    H221487   1.482   1.625   2.036
 7182TIP3   OH221488   7.654   3.931   1.892
 7182TIP3    H121489   7.648   3.938   1.797
 7182TIP3    H221490   7.591   3.862   1.915
 7183TIP3   OH221491   6.519   4.181   4.642
 7183TIP3    H121492   6.447   4.187   4.705
 7183TIP3    H221493   6.487   4.121   4.575
 7184TIP3   OH221494   3.415   3.594   2.179
 7184TIP3    H121495   3.492   3.587   2.122
 7184TIP3    H221496   3.384   3.684   2.165
 7185TIP3   OH221497   7.879   7.539   2.698
 7185TIP3    H121498   7.915   7.451   2.685
 7185TIP3    H221499   7.854   7.541   2.790
 7186TIP3   OH221500   8.143   3.778   0.378
 7186TIP3    H121501   8.116   3.716   0.445
 7186TIP3    H221502   8.136   3.730   0.296
 7187TIP3   OH221503   4.250   5.530   0.845
 7187TIP3    H121504   4.329   5.519   0.792
 7187TIP3    H221505   4.281   5.574   0.925
 7188TIP3   OH221506   5.572   3.208   2.327
 7188TIP3    H121507   5.551   3.115   2.336
 7188TIP3    H221508   5.629   3.212   2.250
 7189TIP3   OH221509   7.006   0.913   0.415
 7189TIP3    H121510   6.943   0.855   0.372
 7189TIP3    H221511   7.091   0.879   0.389
 7190TIP3   OH221512   6.768   6.466   2.362
 7190TIP3    H121513   6.811   6.510   2.289
 7190TIP3    H221514   6.728   6.536   2.413
 7191TIP3   OH221515   7.930   6.715   0.277
 7191TIP3    H121516   7.886   6.798   0.291
 7191TIP3    H221517   7.889   6.679   0.198
 7192TIP3   OH221518   2.960   2.029   5.102
 7192TIP3    H121519   2.935   1.936   5.102
 7192TIP3    H221520   3.050   2.029   5.134
 7193TIP3   OH221521   4.393   3.650   2.084
 7193TIP3    H121522   4.445   3.573   2.107
 7193TIP3    H221523   4.336   3.664   2.159
 7194TIP3   OH221524   7.951   6.038   4.941
 7194TIP3    H121525   7.906   5.955   4.953
 7194TIP3    H221526   7.910   6.097   5.005
 7195TIP3   OH221527   0.148   3.047   1.066
 7195TIP3    H121528   0.181   3.111   1.003
 7195TIP3    H221529   0.199   3.063   1.145
 7196TIP3   OH221530   5.856   4.661   0.923
 7196TIP3    H121531   5.804   4.737   0.950
 7196TIP3    H221532   5.796   4.608   0.871
 7197TIP3   OH221533   7.238   5.293   1.067
 7197TIP3    H121534   7.185   5.216   1.047
 7197TIP3    H221535   7.177   5.366   1.061
 7198TIP3   OH221536   2.251   2.856   1.487
 7198TIP3    H121537   2.317   2.916   1.522
 7198TIP3    H221538   2.187   2.912   1.444
 7199TIP3   OH221539   5.672   0.524   3.656
 7199TIP3    H121540   5.753   0.474   3.641
 7199TIP3    H221541   5.605   0.476   3.608
 7200TIP3   OH221542   4.699   6.534   3.930
 7200TIP3    H121543   4.706   6.440   3.944
 7200TIP3    H221544   4.715   6.572   4.017
 7201TIP3   OH221545   5.629   0.700   4.578
 7201TIP3    H121546   5.701   0.655   4.622
 7201TIP3    H221547   5.591   0.633   4.520
 7202TIP3   OH221548   0.408   5.084   6.703
 7202TIP3    H121549   0.410   5.055   6.794
 7202TIP3    H221550   0.361   5.015   6.656
 7203TIP3   OH221551   7.941   2.412   3.214
 7203TIP3    H121552   7.869   2.362   3.173
 7203TIP3    H221553   7.973   2.468   3.144
 7204TIP3   OH221554   3.861   5.906   1.972
 7204TIP3    H121555   3.868   5.838   2.039
 7204TIP3    H221556   3.951   5.917   1.940
 7205TIP3   OH221557   3.565   4.789   0.677
 7205TIP3    H121558   3.540   4.702   0.708
 7205TIP3    H221559   3.623   4.823   0.744
 7206TIP3   OH221560   3.088   3.102   5.627
 7206TIP3    H121561   3.158   3.121   5.564
 7206TIP3    H221562   3.053   3.018   5.598
 7207TIP3   OH221563   3.774   0.680   0.225
 7207TIP3    H121564   3.754   0.586   0.218
 7207TIP3    H221565   3.693   0.723   0.200
 7208TIP3   OH221566   6.860   2.300   0.616
 7208TIP3    H121567   6.841   2.246   0.539
 7208TIP3    H221568   6.823   2.251   0.689
 7209TIP3   OH221569   3.081   3.909   0.582
 7209TIP3    H121570   3.035   3.954   0.653
 7209TIP3    H221571   3.125   3.836   0.625
 7210TIP3   OH221572   4.252   0.679   4.867
 7210TIP3    H121573   4.324   0.741   4.882
 7210TIP3    H221574   4.201   0.719   4.797
 7211TIP3   OH221575   2.624   5.893   6.304
 7211TIP3    H121576   2.629   5.819   6.244
 7211TIP3    H221577   2.532   5.894   6.333
 7212TIP3   OH221578   4.586   6.869   2.726
 7212TIP3    H121579   4.558   6.846   2.814
 7212TIP3    H221580   4.681   6.878   2.732
 7213TIP3   OH221581   5.020   6.659   0.040
 7213TIP3    H121582   5.034   6.567   0.065
 7213TIP3    H221583   5.013   6.706   0.123
 7214TIP3   OH221584   7.188   4.302   4.773
 7214TIP3    H121585   7.256   4.299   4.840
 7214TIP3    H221586   7.109   4.325   4.821
 7215TIP3   OH221587   1.155   0.354   1.300
 7215TIP3    H121588   1.184   0.415   1.368
 7215TIP3    H221589   1.112   0.283   1.349
 7216TIP3   OH221590   0.977   7.042   5.498
 7216TIP3    H121591   1.067   7.015   5.477
 7216TIP3    H221592   0.975   7.135   5.478
 7217TIP3   OH221593   3.726   7.350   5.477
 7217TIP3    H121594   3.666   7.280   5.455
 7217TIP3    H221595   3.772   7.370   5.396
 7218TIP3   OH221596   2.313   2.610   4.436
 7218TIP3    H121597   2.266   2.533   4.468
 7218TIP3    H221598   2.270   2.684   4.479
 7219TIP3   OH221599   2.849   6.727   5.295
 7219TIP3    H121600   2.804   6.767   5.220
 7219TIP3    H221601   2.785   6.663   5.329
 7220TIP3   OH221602   7.764   1.954   0.111
 7220TIP3    H121603   7.691   2.012   0.131
 7220TIP3    H221604   7.727   1.886   0.055
 7221TIP3   OH221605   6.406   7.280   0.917
 7221TIP3    H121606   6.485   7.324   0.948
 7221TIP3    H221607   6.398   7.203   0.973
 7222TIP3   OH221608   3.484   1.955   4.331
 7222TIP3    H121609   3.412   1.956   4.269
 7222TIP3    H221610   3.556   1.999   4.286
 7223TIP3   OH221611   5.525   0.128   1.631
 7223TIP3    H121612   5.534   0.033   1.627
 7223TIP3    H221613   5.447   0.147   1.578
 7224TIP3   OH221614   1.964   7.010   6.618
 7224TIP3    H121615   2.013   6.989   6.539
 7224TIP3    H221616   1.886   7.056   6.587
 7225TIP3   OH221617   0.158   0.893   6.424
 7225TIP3    H121618   0.196   0.807   6.440
 7225TIP3    H221619   0.069   0.874   6.392
 7226TIP3   OH221620   7.299   3.733   3.185
 7226TIP3    H121621   7.343   3.697   3.262
 7226TIP3    H221622   7.363   3.723   3.115
 7227TIP3   OH221623   4.583   0.039   5.729
 7227TIP3    H121624   4.570   0.053   5.635
 7227TIP3    H221625   4.652  -0.027   5.735
 7228TIP3   OH221626   4.148   1.487  -0.011
 7228TIP3    H121627   4.148   1.405   0.038
 7228TIP3    H221628   4.231   1.529   0.011
 7229TIP3   OH221629   1.777   6.606   2.371
 7229TIP3    H121630   1.700   6.594   2.316
 7229TIP3    H221631   1.851   6.593   2.312
 7230TIP3   OH221632   6.010   6.905   0.171
 7230TIP3    H121633   5.931   6.919   0.224
 7230TIP3    H221634   6.060   6.986   0.181
 7231TIP3   OH221635   1.772   0.436   1.847
 7231TIP3    H121636   1.839   0.406   1.909
 7231TIP3    H221637   1.821   0.455   1.767
 7232TIP3   OH221638   5.327   7.730   1.707
 7232TIP3    H121639   5.387   7.710   1.635
 7232TIP3    H221640   5.262   7.661   1.704
 7233TIP3   OH221641   4.630   0.874   0.876
 7233TIP3    H121642   4.700   0.939   0.873
 7233TIP3    H221643   4.676   0.790   0.880
 7234TIP3   OH221644   7.493   5.826   6.423
 7234TIP3    H121645   7.410   5.787   6.396
 7234TIP3    H221646   7.505   5.799   6.514
 7235TIP3   OH221647   2.751   3.822   4.573
 7235TIP3    H121648   2.746   3.805   4.667
 7235TIP3    H221649   2.703   3.750   4.533
 7236TIP3   OH221650   7.450   6.218   1.175
 7236TIP3    H121651   7.496   6.301   1.185
 7236TIP3    H221652   7.412   6.222   1.087
 7237TIP3   OH221653   1.959   6.532   3.233
 7237TIP3    H121654   1.926   6.489   3.154
 7237TIP3    H221655   1.901   6.501   3.302
 7238TIP3   OH221656   3.844   3.009   6.668
 7238TIP3    H121657   3.758   2.983   6.700
 7238TIP3    H221658   3.847   2.976   6.578
 7239TIP3   OH221659   2.527   3.614   1.536
 7239TIP3    H121660   2.524   3.664   1.455
 7239TIP3    H221661   2.594   3.657   1.589
 7240TIP3   OH221662   4.844   4.269   4.881
 7240TIP3    H121663   4.823   4.239   4.793
 7240TIP3    H221664   4.788   4.345   4.895
 7241TIP3   OH221665   6.749   7.463   3.110
 7241TIP3    H121666   6.806   7.424   3.042
 7241TIP3    H221667   6.661   7.451   3.076
 7242TIP3   OH221668   5.376   1.882   6.551
 7242TIP3    H121669   5.357   1.946   6.483
 7242TIP3    H221670   5.465   1.852   6.531
 7243TIP3   OH221671   1.539   1.361   3.559
 7243TIP3    H121672   1.484   1.339   3.635
 7243TIP3    H221673   1.545   1.279   3.510
 7244TIP3   OH221674   1.653   0.401   2.562
 7244TIP3    H121675   1.705   0.321   2.558
 7244TIP3    H221676   1.581   0.380   2.620
 7245TIP3   OH221677   2.458   7.206   5.302
 7245TIP3    H121678   2.546   7.172   5.284
 7245TIP3    H221679   2.413   7.134   5.345
 7246TIP3   OH221680   0.938   0.391   5.836
 7246TIP3    H121681   0.891   0.467   5.800
 7246TIP3    H221682   0.971   0.344   5.760
 7247TIP3   OH221683   6.790   1.787   5.798
 7247TIP3    H121684   6.752   1.823   5.878
 7247TIP3    H221685   6.799   1.863   5.740
 7248TIP3   OH221686   2.926   4.941   4.274
 7248TIP3    H121687   2.843   4.975   4.240
 7248TIP3    H221688   2.989   5.010   4.257
 7249TIP3   OH221689   6.009   6.202   3.476
 7249TIP3    H121690   5.993   6.176   3.567
 7249TIP3    H221691   6.053   6.287   3.483
 7250TIP3   OH221692   4.123   6.193   3.676
 7250TIP3    H121693   4.136   6.210   3.770
 7250TIP3    H221694   4.100   6.278   3.639
 7251TIP3   OH221695   5.137   6.757   3.913
 7251TIP3    H121696   5.118   6.675   3.958
 7251TIP3    H221697   5.184   6.810   3.978
 7252TIP3   OH221698   7.402   7.265   6.704
 7252TIP3    H121699   7.386   7.356   6.730
 7252TIP3    H221700   7.335   7.248   6.637
 7253TIP3   OH221701   0.746   5.019   2.238
 7253TIP3    H121702   0.734   5.108   2.269
 7253TIP3    H221703   0.702   5.016   2.153
 7254TIP3   OH221704   0.618   0.498   1.918
 7254TIP3    H121705   0.533   0.501   1.873
 7254TIP3    H221706   0.603   0.543   2.001
 7255TIP3   OH221707   4.014   7.417   5.346
 7255TIP3    H121708   4.032   7.402   5.253
 7255TIP3    H221709   4.007   7.512   5.354
 7256TIP3   OH221710   4.543   2.875   0.182
 7256TIP3    H121711   4.633   2.853   0.209
 7256TIP3    H221712   4.542   2.971   0.182
 7257TIP3   OH221713   4.717   7.476   4.216
 7257TIP3    H121714   4.783   7.532   4.175
 7257TIP3    H221715   4.766   7.409   4.261
 7258TIP3   OH221716   2.671   6.673   3.615
 7258TIP3    H121717   2.586   6.699   3.651
 7258TIP3    H221718   2.734   6.730   3.659
 7259TIP3   OH221719   3.167   4.117   3.105
 7259TIP3    H121720   3.172   4.087   3.196
 7259TIP3    H221721   3.257   4.144   3.084
 7260TIP3   OH221722   4.834   7.181   6.018
 7260TIP3    H121723   4.868   7.261   5.977
 7260TIP3    H221724   4.911   7.125   6.029
 7261TIP3   OH221725   7.082   2.374   3.901
 7261TIP3    H121726   6.988   2.358   3.912
 7261TIP3    H221727   7.122   2.287   3.905
 7262TIP3   OH221728   4.246   4.467   0.597
 7262TIP3    H121729   4.320   4.508   0.641
 7262TIP3    H221730   4.178   4.462   0.664
 7263TIP3   OH221731   5.788   6.933   4.842
 7263TIP3    H121732   5.780   7.015   4.794
 7263TIP3    H221733   5.697   6.902   4.853
 7264TIP3   OH221734   1.085   4.897   4.382
 7264TIP3    H121735   1.114   4.984   4.357
 7264TIP3    H221736   1.100   4.843   4.304
 7265TIP3   OH221737   6.107   6.624   3.281
 7265TIP3    H121738   6.150   6.708   3.269
 7265TIP3    H221739   6.035   6.642   3.342
 7266TIP3   OH221740   1.938   0.278   6.184
 7266TIP3    H121741   1.860   0.276   6.239
 7266TIP3    H221742   1.961   0.186   6.171
 7267TIP3   OH221743   0.666   5.850   1.505
 7267TIP3    H121744   0.634   5.926   1.553
 7267TIP3    H221745   0.696   5.789   1.572
 7268TIP3   OH221746   5.614   6.791   2.986
 7268TIP3    H121747   5.645   6.851   3.055
 7268TIP3    H221748   5.620   6.705   3.026
 7269TIP3   OH221749   2.839   6.143   1.462
 7269TIP3    H121750   2.860   6.200   1.387
 7269TIP3    H221751   2.850   6.054   1.429
 7270TIP3   OH221752   6.077   3.640   0.188
 7270TIP3    H121753   6.159   3.608   0.150
 7270TIP3    H221754   6.104   3.711   0.246
 7271TIP3   OH221755   6.100   7.101   1.289
 7271TIP3    H121756   6.062   7.188   1.303
 7271TIP3    H221757   6.172   7.096   1.352
 7272TIP3   OH221758   6.232   4.286   0.890
 7272TIP3    H121759   6.294   4.261   0.959
 7272TIP3    H221760   6.217   4.379   0.903
 7273TIP3   OH221761   7.499   4.975   1.547
 7273TIP3    H121762   7.469   4.943   1.632
 7273TIP3    H221763   7.514   5.069   1.560
 7274TIP3   OH221764   0.032   2.867   0.875
 7274TIP3    H121765   0.096   2.911   0.932
 7274TIP3    H221766   0.005   2.790   0.925
 7275TIP3   OH221767   3.938   0.260   3.977
 7275TIP3    H121768   3.883   0.339   3.979
 7275TIP3    H221769   3.985   0.262   4.060
 7276TIP3   OH221770   6.946   4.543   1.631
 7276TIP3    H121771   6.931   4.479   1.561
 7276TIP3    H221772   7.040   4.538   1.648
 7277TIP3   OH221773   8.201   7.348   4.954
 7277TIP3    H121774   8.120   7.297   4.947
 7277TIP3    H221775   8.189   7.400   5.034
 7278TIP3   OH221776   5.967   3.613   1.785
 7278TIP3    H121777   5.921   3.529   1.787
 7278TIP3    H221778   5.954   3.649   1.873
 7279TIP3   OH221779   4.509   1.585   0.899
 7279TIP3    H121780   4.553   1.649   0.954
 7279TIP3    H221781   4.489   1.632   0.818
 7280TIP3   OH221782   7.846   1.003   5.339
 7280TIP3    H121783   7.762   1.021   5.382
 7280TIP3    H221784   7.855   1.072   5.274
 7281TIP3   OH221785   2.460   7.492   0.265
 7281TIP3    H121786   2.483   7.399   0.264
 7281TIP3    H221787   2.534   7.535   0.223
 7282TIP3   OH221788   2.373   5.914   4.532
 7282TIP3    H121789   2.377   6.009   4.540
 7282TIP3    H221790   2.395   5.897   4.441
 7283TIP3   OH221791   0.384   0.541   0.314
 7283TIP3    H121792   0.363   0.522   0.223
 7283TIP3    H221793   0.308   0.510   0.364
 7284TIP3   OH221794   2.728   6.264   4.873
 7284TIP3    H121795   2.657   6.241   4.933
 7284TIP3    H221796   2.688   6.262   4.786
 7285TIP3   OH221797   5.179   2.456   3.192
 7285TIP3    H121798   5.271   2.439   3.170
 7285TIP3    H221799   5.144   2.369   3.213
 7286TIP3   OH221800   6.194   1.254   4.323
 7286TIP3    H121801   6.249   1.176   4.324
 7286TIP3    H221802   6.105   1.221   4.309
 7287TIP3   OH221803   1.782   3.838   0.183
 7287TIP3    H121804   1.752   3.858   0.094
 7287TIP3    H221805   1.851   3.903   0.200
 7288TIP3   OH221806   7.566   0.269   1.725
 7288TIP3    H121807   7.526   0.351   1.697
 7288TIP3    H221808   7.578   0.280   1.819
 7289TIP3   OH221809   0.382   4.985   1.327
 7289TIP3    H121810   0.286   4.983   1.331
 7289TIP3    H221811   0.402   5.052   1.262
 7290TIP3   OH221812   4.105   1.099   5.285
 7290TIP3    H121813   4.163   1.172   5.263
 7290TIP3    H221814   4.108   1.042   5.209
 7291TIP3   OH221815   0.294   6.480   0.328
 7291TIP3    H121816   0.236   6.417   0.371
 7291TIP3    H221817   0.381   6.440   0.332
 7292TIP3   OH221818   0.415   5.506   0.545
 7292TIP3    H121819   0.492   5.475   0.497
 7292TIP3    H221820   0.346   5.512   0.479
 7293TIP3   OH221821   4.631   7.433   3.145
 7293TIP3    H121822   4.705   7.490   3.166
 7293TIP3    H221823   4.645   7.354   3.197
 7294TIP3   OH221824   1.345   1.918   6.304
 7294TIP3    H121825   1.366   1.843   6.359
 7294TIP3    H221826   1.355   1.886   6.215
 7295TIP3   OH221827   2.601   6.334   5.638
 7295TIP3    H121828   2.588   6.242   5.618
 7295TIP3    H221829   2.628   6.335   5.730
 7296TIP3   OH221830   0.475   0.771   4.866
 7296TIP3    H121831   0.415   0.845   4.853
 7296TIP3    H221832   0.420   0.693   4.852
 7297TIP3   OH221833   4.641   2.490   2.337
 7297TIP3    H121834   4.572   2.459   2.279
 7297TIP3    H221835   4.680   2.564   2.291
 7298TIP3   OH221836   1.354   7.668   0.105
 7298TIP3    H121837   1.293   7.640   0.037
 7298TIP3    H221838   1.304   7.663   0.186
 7299TIP3   OH221839   6.404   6.233   3.683
 7299TIP3    H121840   6.482   6.262   3.730
 7299TIP3    H221841   6.337   6.298   3.707
 7300TIP3   OH221842   3.165   0.467   6.476
 7300TIP3    H121843   3.120   0.548   6.452
 7300TIP3    H221844   3.169   0.468   6.571
 7301TIP3   OH221845   7.350   7.386   0.820
 7301TIP3    H121846   7.276   7.335   0.854
 7301TIP3    H221847   7.402   7.408   0.898
 7302TIP3   OH221848   1.456   3.948   1.297
 7302TIP3    H121849   1.524   3.910   1.241
 7302TIP3    H221850   1.377   3.946   1.243
 7303TIP3   OH221851   4.412   2.533   1.198
 7303TIP3    H121852   4.386   2.455   1.247
 7303TIP3    H221853   4.401   2.605   1.260
 7304TIP3   OH221854   4.447   5.725   3.705
 7304TIP3    H121855   4.465   5.810   3.665
 7304TIP3    H221856   4.436   5.665   3.632
 7305TIP3   OH221857   4.616   7.369   1.076
 7305TIP3    H121858   4.618   7.309   1.001
 7305TIP3    H221859   4.695   7.347   1.126
 7306TIP3   OH221860   7.354   0.901   3.764
 7306TIP3    H121861   7.314   0.988   3.764
 7306TIP3    H221862   7.423   0.907   3.831
 7307TIP3   OH221863   4.460   6.925   2.255
 7307TIP3    H121864   4.433   6.838   2.283
 7307TIP3    H221865   4.538   6.944   2.308
 7308TIP3   OH221866   1.568   3.408   3.990
 7308TIP3    H121867   1.489   3.393   3.938
 7308TIP3    H221868   1.640   3.385   3.931
 7309TIP3   OH221869   6.825   3.788   3.902
 7309TIP3    H121870   6.858   3.827   3.821
 7309TIP3    H221871   6.859   3.846   3.971
 7310TIP3   OH221872   1.787   6.045   6.444
 7310TIP3    H121873   1.710   6.038   6.501
 7310TIP3    H221874   1.859   6.064   6.504
 7311TIP3   OH221875   4.480   3.980   4.256
 7311TIP3    H121876   4.522   3.968   4.341
 7311TIP3    H221877   4.510   3.906   4.203
 7312TIP3   OH221878   6.552   2.685   1.124
 7312TIP3    H121879   6.529   2.600   1.089
 7312TIP3    H221880   6.612   2.722   1.059
 7313TIP3   OH221881   0.201   1.729   1.095
 7313TIP3    H121882   0.247   1.804   1.133
 7313TIP3    H221883   0.194   1.751   1.002
 7314TIP3   OH221884   0.208   2.568   1.419
 7314TIP3    H121885   0.260   2.498   1.459
 7314TIP3    H221886   0.264   2.603   1.350
 7315TIP3   OH221887   6.562   6.354   4.108
 7315TIP3    H121888   6.507   6.290   4.062
 7315TIP3    H221889   6.544   6.339   4.201
 7316TIP3   OH221890   3.903   4.156   5.194
 7316TIP3    H121891   3.811   4.180   5.208
 7316TIP3    H221892   3.953   4.224   5.239
 7317TIP3   OH221893   3.757   5.199   2.711
 7317TIP3    H121894   3.851   5.185   2.706
 7317TIP3    H221895   3.739   5.206   2.804
 7318TIP3   OH221896   5.917   1.455   2.652
 7318TIP3    H121897   5.968   1.512   2.709
 7318TIP3    H221898   5.962   1.460   2.568
 7319TIP3   OH221899   1.878   5.498   3.753
 7319TIP3    H121900   1.856   5.546   3.674
 7319TIP3    H221901   1.905   5.565   3.816
 7320TIP3   OH221902   1.591   2.040   5.354
 7320TIP3    H121903   1.561   2.091   5.280
 7320TIP3    H221904   1.651   1.975   5.316
 7321TIP3   OH221905   4.664   6.431   5.933
 7321TIP3    H121906   4.740   6.485   5.959
 7321TIP3    H221907   4.652   6.450   5.840
 7322TIP3   OH221908   0.632   0.195   1.590
 7322TIP3    H121909   0.617   0.148   1.507
 7322TIP3    H221910   0.670   0.279   1.563
 7323TIP3   OH221911   1.844   6.550   0.376
 7323TIP3    H121912   1.934   6.518   0.391
 7323TIP3    H221913   1.792   6.470   0.367
 7324TIP3   OH221914   1.663   2.765   0.595
 7324TIP3    H121915   1.734   2.801   0.542
 7324TIP3    H221916   1.698   2.683   0.629
 7325TIP3   OH221917   5.394   0.549   1.046
 7325TIP3    H121918   5.461   0.489   1.079
 7325TIP3    H221919   5.318   0.493   1.031
 7326TIP3   OH221920   3.140   7.844   6.467
 7326TIP3    H121921   3.103   7.759   6.443
 7326TIP3    H221922   3.078   7.879   6.531
 7327TIP3   OH221923   0.376   4.981   5.867
 7327TIP3    H121924   0.413   5.013   5.785
 7327TIP3    H221925   0.299   5.035   5.881
 7328TIP3   OH221926   0.387   4.128   1.392
 7328TIP3    H121927   0.416   4.089   1.475
 7328TIP3    H221928   0.441   4.084   1.326
 7329TIP3   OH221929   3.512   0.436   5.613
 7329TIP3    H121930   3.562   0.430   5.695
 7329TIP3    H221931   3.541   0.361   5.562
 7330TIP3   OH221932   3.339   2.932   3.695
 7330TIP3    H121933   3.409   2.996   3.680
 7330TIP3    H221934   3.328   2.930   3.790
 7331TIP3   OH221935   6.003   7.084   4.952
 7331TIP3    H121936   5.948   7.162   4.946
 7331TIP3    H221937   5.947   7.013   4.922
 7332TIP3   OH221938   0.085   2.304   4.054
 7332TIP3    H121939   0.061   2.397   4.056
 7332TIP3    H221940   0.058   2.274   3.968
 7333TIP3   OH221941   6.048   3.262   0.702
 7333TIP3    H121942   6.068   3.168   0.708
 7333TIP3    H221943   6.014   3.273   0.613
 7334TIP3   OH221944   0.532   1.019   6.592
 7334TIP3    H121945   0.452   1.070   6.601
 7334TIP3    H221946   0.598   1.082   6.564
 7335TIP3   OH221947   3.849   3.822   5.088
 7335TIP3    H121948   3.755   3.814   5.071
 7335TIP3    H221949   3.887   3.844   5.003
 7336TIP3   OH221950   8.019   7.188   5.503
 7336TIP3    H121951   8.059   7.121   5.559
 7336TIP3    H221952   8.047   7.271   5.541
 7337TIP3   OH221953   2.703   3.139   2.180
 7337TIP3    H121954   2.790   3.101   2.172
 7337TIP3    H221955   2.654   3.102   2.107
 7338TIP3   OH221956   4.081   1.989   4.075
 7338TIP3    H121957   4.116   2.066   4.031
 7338TIP3    H221958   4.025   2.025   4.145
 7339TIP3   OH221959   8.260   0.378   3.179
 7339TIP3    H121960   8.191   0.415   3.124
 7339TIP3    H221961   8.288   0.450   3.235
 7340TIP3   OH221962   6.046   3.806   3.661
 7340TIP3    H121963   6.024   3.881   3.606
 7340TIP3    H221964   6.107   3.841   3.726
 7341TIP3   OH221965   5.412   4.004   2.923
 7341TIP3    H121966   5.458   3.924   2.899
 7341TIP3    H221967   5.388   3.992   3.015
 7342TIP3   OH221968   4.664   5.672   5.455
 7342TIP3    H121969   4.746   5.648   5.412
 7342TIP3    H221970   4.637   5.593   5.501
 7343TIP3   OH221971   2.273   3.076   2.835
 7343TIP3    H121972   2.255   3.109   2.746
 7343TIP3    H221973   2.192   3.032   2.860
 7344TIP3   OH221974   3.839   1.501   0.747
 7344TIP3    H121975   3.925   1.506   0.705
 7344TIP3    H221976   3.826   1.408   0.765
 7345TIP3   OH221977   4.987   1.066   4.389
 7345TIP3    H121978   5.004   1.042   4.298
 7345TIP3    H221979   4.940   1.150   4.384
 7346TIP3   OH221980   2.047   0.851   6.231
 7346TIP3    H121981   2.001   0.772   6.204
 7346TIP3    H221982   2.037   0.854   6.326
 7347TIP3   OH221983   1.192   5.102   5.137
 7347TIP3    H121984   1.173   5.008   5.135
 7347TIP3    H221985   1.257   5.114   5.067
 7348TIP3   OH221986   4.868   5.590   0.895
 7348TIP3    H121987   4.868   5.618   0.804
 7348TIP3    H221988   4.893   5.497   0.892
 7349TIP3   OH221989   1.336   6.695   1.838
 7349TIP3    H121990   1.307   6.710   1.928
 7349TIP3    H221991   1.309   6.774   1.791
 7350TIP3   OH221992   2.199   4.113   0.212
 7350TIP3    H121993   2.141   4.051   0.256
 7350TIP3    H221994   2.150   4.196   0.214
 7351TIP3   OH221995   0.937   3.870   6.101
 7351TIP3    H121996   0.923   3.850   6.194
 7351TIP3    H221997   0.849   3.880   6.066
 7352TIP3   OH221998   7.556   3.248   5.320
 7352TIP3    H121999   7.516   3.335   5.319
 7352TIP3    H222000   7.586   3.236   5.410
 7353TIP3   OH222001   3.153   7.560   6.745
 7353TIP3    H122002   3.241   7.598   6.743
 7353TIP3    H222003   3.164   7.472   6.708
 7354TIP3   OH222004   3.562   2.745   3.387
 7354TIP3    H122005   3.483   2.725   3.438
 7354TIP3    H222006   3.627   2.769   3.453
 7355TIP3   OH222007   3.455   1.646   4.601
 7355TIP3    H122008   3.409   1.605   4.528
 7355TIP3    H222009   3.397   1.633   4.676
 7356TIP3   OH222010   1.046   5.279   1.197
 7356TIP3    H122011   1.087   5.201   1.234
 7356TIP3    H222012   1.019   5.330   1.273
 7357TIP3   OH222013   1.278   0.200   2.032
 7357TIP3    H122014   1.328   0.156   1.962
 7357TIP3    H222015   1.342   0.257   2.074
 7358TIP3   OH222016   2.725   6.541   0.431
 7358TIP3    H122017   2.648   6.509   0.384
 7358TIP3    H222018   2.767   6.462   0.464
 7359TIP3   OH222019   2.841   5.277   2.408
 7359TIP3    H122020   2.823   5.205   2.469
 7359TIP3    H222021   2.832   5.356   2.461
 7360TIP3   OH222022   3.432   7.765   6.055
 7360TIP3    H122023   3.454   7.803   5.969
 7360TIP3    H222024   3.468   7.677   6.052
 7361TIP3   OH222025   7.304   7.269   3.241
 7361TIP3    H122026   7.374   7.207   3.262
 7361TIP3    H222027   7.264   7.290   3.325
 7362TIP3   OH222028   5.412   1.109   5.013
 7362TIP3    H122029   5.393   1.197   4.982
 7362TIP3    H222030   5.326   1.070   5.028
 7363TIP3   OH222031   2.648   2.074   4.001
 7363TIP3    H122032   2.699   2.029   3.934
 7363TIP3    H222033   2.606   2.147   3.955
 7364TIP3   OH222034   1.110   3.565   2.431
 7364TIP3    H122035   1.072   3.499   2.490
 7364TIP3    H222036   1.190   3.594   2.476
 7365TIP3   OH222037   4.728   1.852   2.686
 7365TIP3    H122038   4.722   1.860   2.591
 7365TIP3    H222039   4.643   1.817   2.713
 7366TIP3   OH222040   7.486   2.431   1.440
 7366TIP3    H122041   7.512   2.352   1.488
 7366TIP3    H222042   7.390   2.427   1.439
 7367TIP3   OH222043   0.549   7.352   0.933
 7367TIP3    H122044   0.487   7.337   1.005
 7367TIP3    H222045   0.610   7.418   0.966
 7368TIP3   OH222046   1.269   6.756   3.235
 7368TIP3    H122047   1.299   6.740   3.146
 7368TIP3    H222048   1.348   6.776   3.285
 7369TIP3   OH222049   0.255   1.921   5.745
 7369TIP3    H122050   0.177   1.961   5.785
 7369TIP3    H222051   0.312   1.994   5.725
 7370TIP3   OH222052   7.186   5.115   3.006
 7370TIP3    H122053   7.208   5.022   3.003
 7370TIP3    H222054   7.269   5.160   2.995
 7371TIP3   OH222055   2.661   6.630   4.049
 7371TIP3    H122056   2.726   6.623   4.118
 7371TIP3    H222057   2.636   6.723   4.048
 7372TIP3   OH222058   1.332   3.654   1.097
 7372TIP3    H122059   1.297   3.743   1.104
 7372TIP3    H222060   1.266   3.607   1.045
 7373TIP3   OH222061   4.458   5.752   5.004
 7373TIP3    H122062   4.437   5.812   5.075
 7373TIP3    H222063   4.552   5.763   4.989
 7374TIP3   OH222064   3.422   0.740   2.199
 7374TIP3    H122065   3.516   0.751   2.217
 7374TIP3    H222066   3.380   0.752   2.284
 7375TIP3   OH222067   7.446   3.785   6.209
 7375TIP3    H122068   7.463   3.732   6.131
 7375TIP3    H222069   7.527   3.834   6.223
 7376TIP3   OH222070   6.582   4.992   0.347
 7376TIP3    H122071   6.610   4.903   0.326
 7376TIP3    H222072   6.519   4.982   0.419
 7377TIP3   OH222073   4.381   1.127   6.380
 7377TIP3    H122074   4.455   1.178   6.413
 7377TIP3    H222075   4.404   1.036   6.402
 7378TIP3   OH222076   1.287   3.130   1.321
 7378TIP3    H122077   1.317   3.040   1.319
 7378TIP3    H222078   1.342   3.176   1.258
 7379TIP3   OH222079   3.124   6.812   5.220
 7379TIP3    H122080   3.095   6.903   5.206
 7379TIP3    H222081   3.052   6.771   5.266
 7380TIP3   OH222082   4.222   3.757   4.476
 7380TIP3    H122083   4.235   3.685   4.538
 7380TIP3    H222084   4.268   3.730   4.397
 7381TIP3   OH222085   7.094   7.797   2.448
 7381TIP3    H122086   7.104   7.765   2.538
 7381TIP3    H222087   7.011   7.844   2.448
 7382TIP3   OH222088   3.330   3.815   4.498
 7382TIP3    H122089   3.237   3.793   4.499
 7382TIP3    H222090   3.333   3.906   4.528
 7383TIP3   OH222091   0.213   4.123   4.352
 7383TIP3    H122092   0.157   4.164   4.418
 7383TIP3    H222093   0.301   4.155   4.372
 7384TIP3   OH222094   3.978   6.589   2.085
 7384TIP3    H122095   4.068   6.567   2.061
 7384TIP3    H222096   3.984   6.677   2.122
 7385TIP3   OH222097   7.171   4.272   2.862
 7385TIP3    H122098   7.168   4.176   2.861
 7385TIP3    H222099   7.126   4.299   2.782
 7386TIP3   OH222100   2.117   7.568   0.600
 7386TIP3    H122101   2.139   7.591   0.510
 7386TIP3    H222102   2.104   7.652   0.644
 7387TIP3   OH222103   1.609   0.431   5.683
 7387TIP3    H122104   1.621   0.361   5.747
 7387TIP3    H222105   1.544   0.489   5.723
 7388TIP3   OH222106   2.129   1.086   6.153
 7388TIP3    H122107   2.134   1.102   6.059
 7388TIP3    H222108   2.086   1.001   6.161
 7389TIP3   OH222109   1.978   1.158   1.993
 7389TIP3    H122110   1.910   1.094   1.970
 7389TIP3    H222111   2.006   1.132   2.081
 7390TIP3   OH222112   1.265   3.487   1.321
 7390TIP3    H122113   1.288   3.573   1.284
 7390TIP3    H222114   1.280   3.425   1.249
 7391TIP3   OH222115   4.219   2.671   4.587
 7391TIP3    H122116   4.217   2.618   4.667
 7391TIP3    H222117   4.131   2.661   4.550
 7392TIP3   OH222118   7.109   4.618   5.059
 7392TIP3    H122119   7.128   4.711   5.052
 7392TIP3    H222120   7.105   4.601   5.153
 7393TIP3   OH222121   3.544   4.184   0.619
 7393TIP3    H122122   3.505   4.239   0.550
 7393TIP3    H222123   3.619   4.234   0.649
 7394TIP3   OH222124   0.718   3.759   1.259
 7394TIP3    H122125   0.677   3.695   1.317
 7394TIP3    H222126   0.646   3.793   1.206
 7395TIP3   OH222127   6.223   3.232   4.751
 7395TIP3    H122128   6.141   3.244   4.704
 7395TIP3    H222129   6.200   3.179   4.827
 7396TIP3   OH222130   3.140   6.209   3.854
 7396TIP3    H122131   3.202   6.196   3.782
 7396TIP3    H222132   3.098   6.123   3.864
 7397TIP3   OH222133   7.399   2.132   4.776
 7397TIP3    H122134   7.333   2.199   4.759
 7397TIP3    H222135   7.351   2.061   4.820
 7398TIP3   OH222136   6.738   6.763   5.417
 7398TIP3    H122137   6.664   6.759   5.357
 7398TIP3    H222138   6.815   6.769   5.359
 7399TIP3   OH222139   4.571   5.897   5.576
 7399TIP3    H122140   4.565   5.807   5.545
 7399TIP3    H222141   4.563   5.890   5.671
 7400TIP3   OH222142   0.399   5.613   6.749
 7400TIP3    H122143   0.376   5.622   6.841
 7400TIP3    H222144   0.441   5.527   6.743
 7401TIP3   OH222145   2.570   7.366   0.540
 7401TIP3    H122146   2.580   7.461   0.536
 7401TIP3    H222147   2.501   7.351   0.604
 7402TIP3   OH222148   4.170   4.007   3.654
 7402TIP3    H122149   4.227   4.053   3.593
 7402TIP3    H222150   4.144   3.928   3.607
 7403TIP3   OH222151   7.664   6.227   6.201
 7403TIP3    H122152   7.645   6.196   6.289
 7403TIP3    H222153   7.738   6.287   6.212
 7404TIP3   OH222154   8.046   4.732   6.018
 7404TIP3    H122155   8.120   4.788   5.994
 7404TIP3    H222156   7.995   4.785   6.079
 7405TIP3   OH222157   7.793   7.436   0.607
 7405TIP3    H122158   7.718   7.411   0.660
 7405TIP3    H222159   7.869   7.414   0.661
 7406TIP3   OH222160   0.790   7.495   0.185
 7406TIP3    H122161   0.704   7.470   0.153
 7406TIP3    H222162   0.849   7.427   0.153
 7407TIP3   OH222163   6.977   1.884   6.494
 7407TIP3    H122164   7.064   1.853   6.518
 7407TIP3    H222165   6.993   1.956   6.433
 7408TIP3   OH222166   5.202   7.785   1.945
 7408TIP3    H122167   5.258   7.750   1.877
 7408TIP3    H222168   5.173   7.709   1.995
 7409TIP3   OH222169   5.795   5.595   5.347
 7409TIP3    H122170   5.799   5.531   5.418
 7409TIP3    H222171   5.841   5.672   5.383
 7410TIP3   OH222172   1.467   0.508   3.918
 7410TIP3    H122173   1.508   0.426   3.891
 7410TIP3    H222174   1.426   0.542   3.838
 7411TIP3   OH222175   3.095   6.915   6.337
 7411TIP3    H122176   3.181   6.953   6.357
 7411TIP3    H222177   3.042   6.990   6.309
 7412TIP3   OH222178   6.728   5.822   3.776
 7412TIP3    H122179   6.812   5.856   3.744
 7412TIP3    H222180   6.749   5.779   3.859
 7413TIP3   OH222181   2.183   3.040   3.425
 7413TIP3    H122182   2.251   3.088   3.377
 7413TIP3    H222183   2.130   3.109   3.466
 7414TIP3   OH222184   8.125   7.051   5.132
 7414TIP3    H122185   8.132   7.145   5.150
 7414TIP3    H222186   8.057   7.044   5.065
 7415TIP3   OH222187   1.963   5.716   3.930
 7415TIP3    H122188   1.910   5.776   3.876
 7415TIP3    H222189   2.041   5.767   3.950
 7416TIP3   OH222190   6.531   6.652   3.536
 7416TIP3    H122191   6.573   6.673   3.619
 7416TIP3    H222192   6.603   6.643   3.474
 7417TIP3   OH222193   6.710   0.058   5.827
 7417TIP3    H122194   6.693  -0.035   5.839
 7417TIP3    H222195   6.634   0.101   5.867
 7418TIP3   OH222196   4.721   5.469   3.784
 7418TIP3    H122197   4.802   5.421   3.799
 7418TIP3    H222198   4.735   5.553   3.828
 7419TIP3   OH222199   2.429   4.939   1.265
 7419TIP3    H122200   2.416   5.019   1.315
 7419TIP3    H222201   2.502   4.895   1.308
 7420TIP3   OH222202   8.132   6.550   3.735
 7420TIP3    H122203   8.169   6.555   3.647
 7420TIP3    H222204   8.176   6.475   3.775
 7421TIP3   OH222205   4.675   3.944   3.976
 7421TIP3    H122206   4.711   3.976   4.059
 7421TIP3    H222207   4.727   3.989   3.909
 7422TIP3   OH222208   1.591   7.251   5.925
 7422TIP3    H122209   1.612   7.220   6.013
 7422TIP3    H222210   1.565   7.342   5.938
 7423TIP3   OH222211   2.690   0.941   6.104
 7423TIP3    H122212   2.605   0.905   6.078
 7423TIP3    H222213   2.669   1.015   6.160
 7424TIP3   OH222214   1.210   7.150   3.321
 7424TIP3    H122215   1.169   7.230   3.288
 7424TIP3    H222216   1.288   7.139   3.267
 7425TIP3   OH222217   5.261   6.260   4.886
 7425TIP3    H122218   5.319   6.223   4.953
 7425TIP3    H222219   5.201   6.316   4.934
 7426TIP3   OH222220   5.125   7.218   3.775
 7426TIP3    H122221   5.209   7.247   3.741
 7426TIP3    H222222   5.106   7.136   3.729
 7427TIP3   OH222223   2.738   4.613   1.267
 7427TIP3    H122224   2.693   4.581   1.345
 7427TIP3    H222225   2.713   4.551   1.198
 7428TIP3   OH222226   2.197   2.414   4.585
 7428TIP3    H122227   2.106   2.387   4.574
 7428TIP3    H222228   2.247   2.341   4.547
 7429TIP3   OH222229   0.068   7.128   4.367
 7429TIP3    H122230   0.049   7.125   4.273
 7429TIP3    H222231  -0.012   7.096   4.409
 7430TIP3   OH222232   8.031   5.809   5.705
 7430TIP3    H122233   7.958   5.870   5.693
 7430TIP3    H222234   8.085   5.820   5.626
 7431TIP3   OH222235   2.216   4.803   2.503
 7431TIP3    H122236   2.298   4.847   2.481
 7431TIP3    H222237   2.231   4.712   2.478
 7432TIP3   OH222238   2.746   7.770   4.691
 7432TIP3    H122239   2.738   7.777   4.596
 7432TIP3    H222240   2.754   7.676   4.707
 7433TIP3   OH222241   5.598   5.268   0.392
 7433TIP3    H122242   5.523   5.326   0.379
 7433TIP3    H222243   5.569   5.204   0.457
 7434TIP3   OH222244   6.928   1.788   4.690
 7434TIP3    H122245   6.930   1.820   4.780
 7434TIP3    H222246   6.885   1.702   4.697
 7435TIP3   OH222247   6.870   3.169   4.434
 7435TIP3    H122248   6.963   3.154   4.419
 7435TIP3    H222249   6.827   3.089   4.402
 7436TIP3   OH222250   3.299   4.574   4.794
 7436TIP3    H122251   3.326   4.503   4.737
 7436TIP3    H222252   3.226   4.616   4.748
 7437TIP3   OH222253   4.836   5.467   5.781
 7437TIP3    H122254   4.744   5.489   5.769
 7437TIP3    H222255   4.864   5.437   5.695
 7438TIP3   OH222256   3.164   5.804   4.211
 7438TIP3    H122257   3.226   5.867   4.174
 7438TIP3    H222258   3.200   5.783   4.297
 7439TIP3   OH222259   6.218   4.653   0.474
 7439TIP3    H122260   6.137   4.698   0.500
 7439TIP3    H222261   6.270   4.648   0.554
 7440TIP3   OH222262   2.011   4.967   4.963
 7440TIP3    H122263   1.960   5.031   5.014
 7440TIP3    H222264   1.958   4.950   4.886
 7441TIP3   OH222265   7.885   4.124   0.842
 7441TIP3    H122266   7.977   4.110   0.864
 7441TIP3    H222267   7.883   4.208   0.797
 7442TIP3   OH222268   8.007   2.293   4.244
 7442TIP3    H122269   8.070   2.360   4.218
 7442TIP3    H222270   7.933   2.305   4.185
 7443TIP3   OH222271   4.314   2.616   2.799
 7443TIP3    H122272   4.262   2.670   2.858
 7443TIP3    H222273   4.292   2.526   2.823
 7444TIP3   OH222274   5.942   3.611   1.461
 7444TIP3    H122275   5.955   3.543   1.527
 7444TIP3    H222276   5.946   3.564   1.378
 7445TIP3   OH222277   6.574   4.621   5.204
 7445TIP3    H122278   6.641   4.688   5.208
 7445TIP3    H222279   6.617   4.546   5.163
 7446TIP3   OH222280   6.107   1.994   3.877
 7446TIP3    H122281   6.183   2.003   3.819
 7446TIP3    H222282   6.145   1.981   3.964
 7447TIP3   OH222283   7.755   6.255   1.130
 7447TIP3    H122284   7.767   6.202   1.208
 7447TIP3    H222285   7.756   6.345   1.161
 7448TIP3   OH222286   3.736   7.084   3.615
 7448TIP3    H122287   3.699   7.101   3.529
 7448TIP3    H222288   3.740   7.170   3.657
 7449TIP3   OH222289   2.288   5.575   2.716
 7449TIP3    H122290   2.357   5.510   2.730
 7449TIP3    H222291   2.264   5.604   2.804
 7450TIP3   OH222292   0.389   5.323   4.718
 7450TIP3    H122293   0.356   5.387   4.781
 7450TIP3    H222294   0.435   5.375   4.652
 7451TIP3   OH222295   1.400   0.354   3.123
 7451TIP3    H122296   1.339   0.370   3.051
 7451TIP3    H222297   1.449   0.436   3.131
 7452TIP3   OH222298   0.038   7.431   5.238
 7452TIP3    H122299   0.015   7.518   5.273
 7452TIP3    H222300  -0.013   7.370   5.291
 7453TIP3   OH222301   1.063   4.390   3.546
 7453TIP3    H122302   1.034   4.438   3.468
 7453TIP3    H222303   1.159   4.393   3.541
 7454TIP3   OH222304   2.508   4.149   1.856
 7454TIP3    H122305   2.504   4.239   1.887
 7454TIP3    H222306   2.590   4.143   1.807
 7455TIP3   OH222307   1.020   4.496   0.649
 7455TIP3    H122308   0.944   4.480   0.704
 7455TIP3    H222309   1.092   4.452   0.694
 7456TIP3   OH222310   2.288   0.641   1.656
 7456TIP3    H122311   2.278   0.621   1.749
 7456TIP3    H222312   2.312   0.733   1.653
 7457TIP3   OH222313   0.297   6.326   0.728
 7457TIP3    H122314   0.265   6.308   0.640
 7457TIP3    H222315   0.312   6.240   0.767
 7458TIP3   OH222316   6.334   3.465   4.835
 7458TIP3    H122317   6.418   3.433   4.802
 7458TIP3    H222318   6.268   3.413   4.790
 7459TIP3   OH222319   5.007   0.713   3.709
 7459TIP3    H122320   4.938   0.659   3.670
 7459TIP3    H222321   5.058   0.652   3.762
 7460TIP3   OH222322   7.486   3.149   0.437
 7460TIP3    H122323   7.430   3.114   0.506
 7460TIP3    H222324   7.443   3.229   0.408
 7461TIP3   OH222325   0.327   4.356   5.478
 7461TIP3    H122326   0.289   4.295   5.415
 7461TIP3    H222327   0.287   4.441   5.457
 7462TIP3   OH222328   2.449   7.518   1.387
 7462TIP3    H122329   2.388   7.456   1.347
 7462TIP3    H222330   2.511   7.540   1.317
 7463TIP3   OH222331   1.204   3.542   6.676
 7463TIP3    H122332   1.185   3.622   6.725
 7463TIP3    H222333   1.126   3.487   6.688
 7464TIP3   OH222334   3.413   7.721   3.399
 7464TIP3    H122335   3.458   7.670   3.332
 7464TIP3    H222336   3.462   7.803   3.405
 7465TIP3   OH222337   1.242   5.804   4.925
 7465TIP3    H122338   1.164   5.763   4.888
 7465TIP3    H222339   1.227   5.803   5.019
 7466TIP3   OH222340   4.402   2.872   1.784
 7466TIP3    H122341   4.377   2.950   1.736
 7466TIP3    H222342   4.486   2.894   1.824
 7467TIP3   OH222343   4.039   7.507   1.398
 7467TIP3    H122344   4.043   7.556   1.316
 7467TIP3    H222345   3.984   7.431   1.378
 7468TIP3   OH222346   1.191   4.248   1.308
 7468TIP3    H122347   1.173   4.324   1.252
 7468TIP3    H222348   1.284   4.256   1.330
 7469TIP3   OH222349   7.613   6.708   6.662
 7469TIP3    H122350   7.646   6.672   6.579
 7469TIP3    H222351   7.527   6.667   6.673
 7470TIP3   OH222352   6.660   2.767   3.576
 7470TIP3    H122353   6.740   2.783   3.526
 7470TIP3    H222354   6.614   2.699   3.527
 7471TIP3   OH222355   4.963   4.422   1.999
 7471TIP3    H122356   5.053   4.388   1.998
 7471TIP3    H222357   4.952   4.463   1.913
 7472TIP3   OH222358   7.482   2.248   4.084
 7472TIP3    H122359   7.563   2.210   4.117
 7472TIP3    H222360   7.510   2.318   4.025
 7473TIP3   OH222361   5.313   1.163   3.939
 7473TIP3    H122362   5.223   1.142   3.962
 7473TIP3    H222363   5.364   1.086   3.968
 7474TIP3   OH222364   6.931   0.219   3.396
 7474TIP3    H122365   6.956   0.148   3.337
 7474TIP3    H222366   6.896   0.287   3.338
 7475TIP3   OH222367   1.457   2.575   5.815
 7475TIP3    H122368   1.442   2.622   5.897
 7475TIP3    H222369   1.449   2.641   5.747
 7476TIP3   OH222370   0.450   7.341   4.831
 7476TIP3    H122371   0.512   7.414   4.836
 7476TIP3    H222372   0.380   7.372   4.774
 7477TIP3   OH222373   6.754   5.652   0.984
 7477TIP3    H122374   6.741   5.621   0.894
 7477TIP3    H222375   6.842   5.689   0.983
 7478TIP3   OH222376   1.774   7.104   3.900
 7478TIP3    H122377   1.692   7.134   3.939
 7478TIP3    H222378   1.752   7.081   3.810
 7479TIP3   OH222379   2.065   5.857   6.380
 7479TIP3    H122380   1.989   5.857   6.321
 7479TIP3    H222381   2.083   5.765   6.396
 7480TIP3   OH222382   5.720   6.764   1.898
 7480TIP3    H122383   5.688   6.765   1.988
 7480TIP3    H222384   5.812   6.788   1.904
 7481TIP3   OH222385   2.477   2.859   2.066
 7481TIP3    H122386   2.514   2.880   2.153
 7481TIP3    H222387   2.387   2.833   2.084
 7482TIP3   OH222388   4.179   2.357   3.788
 7482TIP3    H122389   4.144   2.312   3.712
 7482TIP3    H222390   4.133   2.441   3.790
 7483TIP3   OH222391   6.129   0.137   0.952
 7483TIP3    H122392   6.073   0.211   0.927
 7483TIP3    H222393   6.155   0.157   1.042
 7484TIP3   OH222394   3.816   2.888   5.347
 7484TIP3    H122395   3.750   2.837   5.394
 7484TIP3    H222396   3.824   2.845   5.262
 7485TIP3   OH222397   0.982   2.754   1.929
 7485TIP3    H122398   0.947   2.797   1.851
 7485TIP3    H222399   1.075   2.777   1.928
 7486TIP3   OH222400   3.782   3.039   2.418
 7486TIP3    H122401   3.751   3.113   2.366
 7486TIP3    H222402   3.861   3.009   2.373
 7487TIP3   OH222403   4.175   3.796   5.749
 7487TIP3    H122404   4.108   3.786   5.817
 7487TIP3    H222405   4.140   3.863   5.690
 7488TIP3   OH222406   4.194   1.107   3.990
 7488TIP3    H122407   4.200   1.073   4.079
 7488TIP3    H222408   4.119   1.061   3.951
 7489TIP3   OH222409   4.688   3.433   2.193
 7489TIP3    H122410   4.752   3.477   2.137
 7489TIP3    H222411   4.715   3.454   2.282
 7490TIP3   OH222412   4.154   0.217   4.672
 7490TIP3    H122413   4.176   0.308   4.651
 7490TIP3    H222414   4.232   0.168   4.647
 7491TIP3   OH222415   8.122   3.623   0.155
 7491TIP3    H122416   8.118   3.533   0.123
 7491TIP3    H222417   8.055   3.669   0.105
 7492TIP3   OH222418   3.950   0.860   3.259
 7492TIP3    H122419   3.873   0.803   3.265
 7492TIP3    H222420   3.962   0.874   3.165
 7493TIP3   OH222421   2.916   4.523   2.530
 7493TIP3    H122422   2.914   4.516   2.434
 7493TIP3    H222423   3.009   4.532   2.551
 7494TIP3   OH222424   4.796   2.680   6.203
 7494TIP3    H122425   4.801   2.669   6.298
 7494TIP3    H222426   4.704   2.703   6.187
 7495TIP3   OH222427   3.897   6.353   4.495
 7495TIP3    H122428   3.883   6.359   4.590
 7495TIP3    H222429   3.875   6.263   4.473
 7496TIP3   OH222430   8.245   7.594   4.459
 7496TIP3    H122431   8.267   7.596   4.552
 7496TIP3    H222432   8.155   7.627   4.454
 7497TIP3   OH222433   2.674   3.787   1.722
 7497TIP3    H122434   2.746   3.786   1.658
 7497TIP3    H222435   2.694   3.713   1.780
 7498TIP3   OH222436   0.540   4.511   5.514
 7498TIP3    H122437   0.448   4.488   5.502
 7498TIP3    H222438   0.588   4.432   5.488
 7499TIP3   OH222439   6.536   4.931   5.283
 7499TIP3    H122440   6.443   4.914   5.290
 7499TIP3    H222441   6.562   4.894   5.199
 7500TIP3   OH222442   2.596   3.234   0.160
 7500TIP3    H122443   2.594   3.248   0.065
 7500TIP3    H222444   2.619   3.320   0.196
 7501TIP3   OH222445   0.411   1.079   1.427
 7501TIP3    H122446   0.418   1.072   1.332
 7501TIP3    H222447   0.483   1.136   1.453
 7502TIP3   OH222448   6.589   3.047   4.957
 7502TIP3    H122449   6.584   3.112   4.888
 7502TIP3    H222450   6.681   3.022   4.961
 7503TIP3   OH222451   6.286   3.211   3.311
 7503TIP3    H122452   6.312   3.121   3.292
 7503TIP3    H222453   6.309   3.223   3.403
 7504TIP3   OH222454   2.363   1.145   3.276
 7504TIP3    H122455   2.325   1.110   3.357
 7504TIP3    H222456   2.401   1.229   3.302
 7505TIP3   OH222457   7.777   4.963   3.180
 7505TIP3    H122458   7.766   5.018   3.102
 7505TIP3    H222459   7.715   4.892   3.169
 7506TIP3   OH222460   0.251   0.857   2.549
 7506TIP3    H122461   0.212   0.924   2.493
 7506TIP3    H222462   0.202   0.862   2.631
 7507TIP3   OH222463   7.997   3.792   3.843
 7507TIP3    H122464   7.908   3.765   3.866
 7507TIP3    H222465   8.014   3.868   3.899
 7508TIP3   OH222466   7.131   6.251   4.840
 7508TIP3    H122467   7.159   6.237   4.750
 7508TIP3    H222468   7.092   6.339   4.839
 7509TIP3   OH222469   0.168   3.482   6.037
 7509TIP3    H122470   0.250   3.438   6.014
 7509TIP3    H222471   0.178   3.502   6.130
 7510TIP3   OH222472   2.191   2.354   6.170
 7510TIP3    H122473   2.121   2.306   6.214
 7510TIP3    H222474   2.271   2.319   6.209
 7511TIP3   OH222475   1.154   3.342   0.376
 7511TIP3    H122476   1.161   3.436   0.395
 7511TIP3    H222477   1.064   3.331   0.346
 7512TIP3   OH222478   7.100   1.928   4.250
 7512TIP3    H122479   7.101   1.856   4.312
 7512TIP3    H222480   7.099   1.886   4.164
 7513TIP3   OH222481   5.937   5.701   4.388
 7513TIP3    H122482   5.955   5.781   4.340
 7513TIP3    H222483   6.000   5.700   4.459
 7514TIP3   OH222484   1.911   2.275   5.957
 7514TIP3    H122485   1.929   2.262   5.864
 7514TIP3    H222486   1.840   2.338   5.959
 7515TIP3   OH222487   3.269   3.723   0.391
 7515TIP3    H122488   3.251   3.810   0.355
 7515TIP3    H222489   3.186   3.695   0.427
 7516TIP3   OH222490   7.508   2.784   1.099
 7516TIP3    H122491   7.514   2.871   1.139
 7516TIP3    H222492   7.593   2.744   1.116
 7517TIP3   OH222493   4.304   7.209   0.181
 7517TIP3    H122494   4.294   7.125   0.137
 7517TIP3    H222495   4.278   7.274   0.116
 7518TIP3   OH222496   8.040   4.523   2.952
 7518TIP3    H122497   8.095   4.446   2.968
 7518TIP3    H222498   8.043   4.536   2.858
 7519TIP3   OH222499   5.064   3.214   4.731
 7519TIP3    H122500   5.133   3.220   4.798
 7519TIP3    H222501   5.002   3.283   4.755
 7520TIP3   OH222502   0.857   5.460   2.657
 7520TIP3    H122503   0.812   5.500   2.730
 7520TIP3    H222504   0.808   5.488   2.579
 7521TIP3   OH222505   2.194   1.029   0.825
 7521TIP3    H122506   2.225   1.120   0.823
 7521TIP3    H222507   2.109   1.034   0.868
 7522TIP3   OH222508   3.186   7.430   6.146
 7522TIP3    H122509   3.167   7.489   6.073
 7522TIP3    H222510   3.167   7.342   6.112
 7523TIP3   OH222511   3.911   6.840   2.841
 7523TIP3    H122512   3.946   6.921   2.804
 7523TIP3    H222513   3.906   6.779   2.768
 7524TIP3   OH222514   0.270   6.535   5.807
 7524TIP3    H122515   0.273   6.589   5.728
 7524TIP3    H222516   0.335   6.466   5.792
 7525TIP3   OH222517   5.312   3.608   0.608
 7525TIP3    H122518   5.361   3.609   0.525
 7525TIP3    H222519   5.228   3.647   0.587
 7526TIP3   OH222520   2.052   4.445   2.155
 7526TIP3    H122521   2.018   4.424   2.068
 7526TIP3    H222522   2.143   4.471   2.140
 7527TIP3   OH222523   2.882   5.158   4.597
 7527TIP3    H122524   2.926   5.203   4.670
 7527TIP3    H222525   2.789   5.162   4.619
 7528TIP3   OH222526   4.068   6.429   0.018
 7528TIP3    H122527   4.110   6.357   0.066
 7528TIP3    H222528   3.993   6.453   0.072
 7529TIP3   OH222529   7.274   7.176   4.233
 7529TIP3    H122530   7.285   7.131   4.149
 7529TIP3    H222531   7.323   7.122   4.295
 7530TIP3   OH222532   0.239   0.938   4.900
 7530TIP3    H122533   0.187   0.961   4.823
 7530TIP3    H222534   0.174   0.929   4.970
 7531TIP3   OH222535   2.745   0.336   5.567
 7531TIP3    H122536   2.797   0.306   5.493
 7531TIP3    H222537   2.786   0.419   5.593
 7532TIP3   OH222538   5.436   5.935   5.296
 7532TIP3    H122539   5.356   5.884   5.290
 7532TIP3    H222540   5.423   5.991   5.372
 7533TIP3   OH222541   4.182   2.796   2.220
 7533TIP3    H122542   4.164   2.850   2.143
 7533TIP3    H222543   4.265   2.831   2.254
 7534TIP3   OH222544   7.572   7.063   4.629
 7534TIP3    H122545   7.490   7.017   4.647
 7534TIP3    H222546   7.633   7.030   4.695
 7535TIP3   OH222547   1.706   5.688   5.191
 7535TIP3    H122548   1.655   5.630   5.248
 7535TIP3    H222549   1.785   5.638   5.171
 7536TIP3   OH222550   6.516   1.494   6.003
 7536TIP3    H122551   6.489   1.580   5.972
 7536TIP3    H222552   6.607   1.505   6.029
 7537TIP3   OH222553   3.963   7.140   2.862
 7537TIP3    H122554   3.936   7.167   2.774
 7537TIP3    H222555   4.056   7.120   2.853
 7538TIP3   OH222556   2.531   0.215   2.556
 7538TIP3    H122557   2.551   0.213   2.462
 7538TIP3    H222558   2.465   0.146   2.567
 7539TIP3   OH222559   5.015   4.268   4.240
 7539TIP3    H122560   4.938   4.317   4.209
 7539TIP3    H222561   5.089   4.326   4.224
 7540TIP3   OH222562   6.846   1.516   0.612
 7540TIP3    H122563   6.771   1.464   0.581
 7540TIP3    H222564   6.915   1.451   0.626
 7541TIP3   OH222565   1.321   0.101   6.243
 7541TIP3    H122566   1.323   0.084   6.337
 7541TIP3    H222567   1.284   0.021   6.205
 7542TIP3   OH222568   4.064   1.941   2.972
 7542TIP3    H122569   4.021   2.009   2.921
 7542TIP3    H222570   4.129   1.904   2.912
 7543TIP3   OH222571   5.626   4.519   1.264
 7543TIP3    H122572   5.608   4.549   1.353
 7543TIP3    H222573   5.548   4.542   1.214
 7544TIP3   OH222574   0.542   5.023   4.197
 7544TIP3    H122575   0.560   5.099   4.142
 7544TIP3    H222576   0.570   5.049   4.285
 7545TIP3   OH222577   2.567   5.378   3.396
 7545TIP3    H122578   2.472   5.368   3.394
 7545TIP3    H222579   2.600   5.289   3.408
 7546TIP3   OH222580   1.793   1.529   2.583
 7546TIP3    H122581   1.699   1.521   2.567
 7546TIP3    H222582   1.807   1.621   2.602
 7547TIP3   OH222583   2.866   3.427   0.564
 7547TIP3    H122584   2.888   3.402   0.654
 7547TIP3    H222585   2.940   3.481   0.536
 7548TIP3   OH222586   1.282   1.886   2.352
 7548TIP3    H122587   1.296   1.895   2.258
 7548TIP3    H222588   1.340   1.814   2.378
 7549TIP3   OH222589   5.236   3.063   2.792
 7549TIP3    H122590   5.312   3.118   2.811
 7549TIP3    H222591   5.230   3.003   2.865
 7550TIP3   OH222592   0.861   0.095   5.454
 7550TIP3    H122593   0.816   0.066   5.374
 7550TIP3    H222594   0.846   0.190   5.456
 7551TIP3   OH222595   1.714   4.325   1.977
 7551TIP3    H122596   1.734   4.281   1.894
 7551TIP3    H222597   1.759   4.409   1.970
 7552TIP3   OH222598   1.765   3.008   0.811
 7552TIP3    H122599   1.737   3.065   0.883
 7552TIP3    H222600   1.705   3.027   0.740
 7553TIP3   OH222601   8.104   1.464   6.798
 7553TIP3    H122602   8.018   1.470   6.756
 7553TIP3    H222603   8.163   1.507   6.737
 7554TIP3   OH222604   2.607   4.281   3.986
 7554TIP3    H122605   2.703   4.273   3.983
 7554TIP3    H222606   2.589   4.314   4.075
 7555TIP3   OH222607   2.248   5.482   1.489
 7555TIP3    H122608   2.281   5.536   1.561
 7555TIP3    H222609   2.158   5.461   1.514
 7556TIP3   OH222610   1.954   3.251   3.242
 7556TIP3    H122611   1.922   3.209   3.162
 7556TIP3    H222612   2.036   3.293   3.216
 7557TIP3   OH222613   1.505   2.299   6.127
 7557TIP3    H122614   1.462   2.337   6.204
 7557TIP3    H222615   1.595   2.332   6.131
 7558TIP3   OH222616   4.067   6.464   3.634
 7558TIP3    H122617   3.979   6.492   3.609
 7558TIP3    H222618   4.104   6.540   3.678
 7559TIP3   OH222619   0.487   1.436   6.382
 7559TIP3    H122620   0.412   1.416   6.326
 7559TIP3    H222621   0.457   1.417   6.471
 7560TIP3   OH222622   4.698   4.515   3.435
 7560TIP3    H122623   4.710   4.520   3.340
 7560TIP3    H222624   4.604   4.526   3.448
 7561TIP3   OH222625   5.452   5.742   3.633
 7561TIP3    H122626   5.538   5.735   3.673
 7561TIP3    H222627   5.451   5.830   3.593
 7562TIP3   OH222628   6.323   7.241   4.230
 7562TIP3    H122629   6.411   7.269   4.254
 7562TIP3    H222630   6.267   7.316   4.250
 7563TIP3   OH222631   3.326   7.288   4.549
 7563TIP3    H122632   3.297   7.254   4.634
 7563TIP3    H222633   3.340   7.210   4.496
 7564TIP3   OH222634   7.278   7.296   5.499
 7564TIP3    H122635   7.347   7.327   5.559
 7564TIP3    H222636   7.318   7.304   5.412
 7565TIP3   OH222637   7.860   0.277   3.626
 7565TIP3    H122638   7.791   0.246   3.684
 7565TIP3    H222639   7.815   0.325   3.557
 7566TIP3   OH222640   0.174   1.898   2.640
 7566TIP3    H122641   0.220   1.977   2.669
 7566TIP3    H222642   0.116   1.928   2.571
 7567TIP3   OH222643   3.758   6.765   3.422
 7567TIP3    H122644   3.772   6.816   3.342
 7567TIP3    H222645   3.709   6.688   3.394
 7568TIP3   OH222646   7.470   0.576   0.245
 7568TIP3    H122647   7.415   0.624   0.182
 7568TIP3    H222648   7.454   0.621   0.329
 7569TIP3   OH222649   3.119   3.842   2.992
 7569TIP3    H122650   3.036   3.841   3.040
 7569TIP3    H222651   3.157   3.928   3.011
 7570TIP3   OH222652   0.303   6.019   6.270
 7570TIP3    H122653   0.368   5.957   6.304
 7570TIP3    H222654   0.230   6.014   6.332
 7571TIP3   OH222655   3.599   1.028   3.406
 7571TIP3    H122656   3.618   0.934   3.415
 7571TIP3    H222657   3.684   1.070   3.417
 7572TIP3   OH222658   4.367   0.869   5.152
 7572TIP3    H122659   4.410   0.898   5.233
 7572TIP3    H222660   4.423   0.798   5.119
 7573TIP3   OH222661   0.594   6.895   2.971
 7573TIP3    H122662   0.689   6.885   2.963
 7573TIP3    H222663   0.572   6.845   3.050
 7574TIP3   OH222664   2.038   1.004   2.950
 7574TIP3    H122665   2.001   0.986   2.864
 7574TIP3    H222666   1.993   0.943   3.009
 7575TIP3   OH222667   5.076   6.513   5.374
 7575TIP3    H122668   5.109   6.567   5.303
 7575TIP3    H222669   5.025   6.445   5.331
 7576TIP3   OH222670   7.216   2.634   1.487
 7576TIP3    H122671   7.151   2.570   1.515
 7576TIP3    H222672   7.265   2.590   1.417
 7577TIP3   OH222673   0.684   2.392   2.628
 7577TIP3    H122674   0.701   2.479   2.592
 7577TIP3    H222675   0.638   2.409   2.711
 7578TIP3   OH222676   2.338   0.280   0.842
 7578TIP3    H122677   2.249   0.310   0.821
 7578TIP3    H222678   2.340   0.274   0.937
 7579TIP3   OH222679   3.849   2.677   0.214
 7579TIP3    H122680   3.937   2.644   0.231
 7579TIP3    H222681   3.846   2.693   0.120
 7580TIP3   OH222682   3.895   5.956   0.621
 7580TIP3    H122683   3.812   5.908   0.621
 7580TIP3    H222684   3.959   5.894   0.586
 7581TIP3   OH222685   3.333   0.365   2.888
 7581TIP3    H122686   3.272   0.366   2.814
 7581TIP3    H222687   3.337   0.456   2.917
 7582TIP3   OH222688   3.230   2.057   5.174
 7582TIP3    H122689   3.287   2.069   5.249
 7582TIP3    H222690   3.249   1.968   5.143
 7583TIP3   OH222691   3.755   1.293   6.177
 7583TIP3    H122692   3.819   1.287   6.106
 7583TIP3    H222693   3.670   1.290   6.133
 7584TIP3   OH222694   2.622   1.998   2.991
 7584TIP3    H122695   2.590   2.032   3.075
 7584TIP3    H222696   2.557   2.029   2.927
 7585TIP3   OH222697   7.158   1.571   2.834
 7585TIP3    H122698   7.226   1.540   2.894
 7585TIP3    H222699   7.183   1.662   2.815
 7586TIP3   OH222700   6.780   0.909   2.031
 7586TIP3    H122701   6.715   0.917   1.960
 7586TIP3    H222702   6.800   0.815   2.033
 7587TIP3   OH222703   4.071   1.934   0.533
 7587TIP3    H122704   4.106   2.023   0.531
 7587TIP3    H222705   3.977   1.945   0.541
 7588TIP3   OH222706   6.131   6.837   1.840
 7588TIP3    H122707   6.056   6.807   1.788
 7588TIP3    H222708   6.159   6.918   1.797
 7589TIP3   OH222709   0.103   2.082   0.392
 7589TIP3    H122710   0.101   2.136   0.471
 7589TIP3    H222711   0.184   2.107   0.348
 7590TIP3   OH222712   5.723   3.374   5.222
 7590TIP3    H122713   5.665   3.382   5.147
 7590TIP3    H222714   5.800   3.327   5.188
 7591TIP3   OH222715   0.915   4.175   1.377
 7591TIP3    H122716   1.007   4.159   1.358
 7591TIP3    H222717   0.885   4.095   1.421
 7592TIP3   OH222718   6.725   5.278   1.291
 7592TIP3    H122719   6.637   5.305   1.318
 7592TIP3    H222720   6.733   5.310   1.201
 7593TIP3   OH222721   2.350   1.252   2.707
 7593TIP3    H122722   2.331   1.251   2.613
 7593TIP3    H222723   2.264   1.246   2.749
 7594TIP3   OH222724   6.065   3.310   0.059
 7594TIP3    H122725   5.993   3.324   0.120
 7594TIP3    H222726   6.025   3.266  -0.016
 7595TIP3   OH222727   1.876   2.034   2.462
 7595TIP3    H122728   1.808   2.027   2.395
 7595TIP3    H222729   1.950   2.075   2.417
 7596TIP3   OH222730   8.111   0.606   2.469
 7596TIP3    H122731   8.032   0.570   2.427
 7596TIP3    H222732   8.183   0.558   2.428
 7597TIP3   OH222733   5.065   3.226   5.844
 7597TIP3    H122734   5.090   3.161   5.910
 7597TIP3    H222735   5.149   3.255   5.807
 7598TIP3   OH222736   6.621   0.897   0.364
 7598TIP3    H122737   6.646   0.961   0.431
 7598TIP3    H222738   6.526   0.905   0.357
 7599TIP3   OH222739   6.293   0.398   0.596
 7599TIP3    H122740   6.271   0.373   0.506
 7599TIP3    H222741   6.375   0.352   0.615
 7600TIP3   OH222742   2.742   0.480   1.624
 7600TIP3    H122743   2.834   0.507   1.628
 7600TIP3    H222744   2.703   0.537   1.557
 7601TIP3   OH222745   1.772   2.740   0.934
 7601TIP3    H122746   1.712   2.688   0.879
 7601TIP3    H222747   1.796   2.814   0.878
 7602TIP3   OH222748   0.296   7.294   1.482
 7602TIP3    H122749   0.308   7.268   1.573
 7602TIP3    H222750   0.359   7.365   1.469
 7603TIP3   OH222751   2.279   7.538   5.457
 7603TIP3    H122752   2.240   7.578   5.380
 7603TIP3    H222753   2.284   7.609   5.521
 7604TIP3   OH222754   5.563   1.772   5.005
 7604TIP3    H122755   5.621   1.698   5.023
 7604TIP3    H222756   5.571   1.785   4.910
 7605TIP3   OH222757   6.470   7.633   5.795
 7605TIP3    H122758   6.517   7.564   5.843
 7605TIP3    H222759   6.404   7.664   5.857
 7606TIP3   OH222760   1.751   4.053   0.486
 7606TIP3    H122761   1.680   3.988   0.492
 7606TIP3    H222762   1.783   4.062   0.576
 7607TIP3   OH222763   5.683   0.869   0.749
 7607TIP3    H122764   5.641   0.955   0.745
 7607TIP3    H222765   5.613   0.809   0.775
 7608TIP3   OH222766   5.903   0.638   0.084
 7608TIP3    H122767   5.934   0.561   0.037
 7608TIP3    H222768   5.887   0.608   0.173
 7609TIP3   OH222769   1.377   3.475   1.597
 7609TIP3    H122770   1.325   3.513   1.526
 7609TIP3    H222771   1.412   3.394   1.560
 7610TIP3   OH222772   2.607   7.005   5.153
 7610TIP3    H122773   2.696   6.977   5.132
 7610TIP3    H222774   2.552   6.961   5.088
 7611TIP3   OH222775   1.041   7.243   4.352
 7611TIP3    H122776   1.040   7.337   4.369
 7611TIP3    H222777   0.981   7.231   4.278
 7612TIP3   OH222778   3.890   4.127   0.236
 7612TIP3    H122779   3.985   4.115   0.231
 7612TIP3    H222780   3.875   4.215   0.201
 7613TIP3   OH222781   7.049   3.814   2.614
 7613TIP3    H122782   7.143   3.831   2.618
 7613TIP3    H222783   7.032   3.796   2.521
 7614TIP3   OH222784   3.809   3.415   1.164
 7614TIP3    H122785   3.870   3.423   1.237
 7614TIP3    H222786   3.771   3.502   1.155
 7615TIP3   OH222787   5.503   6.230   1.441
 7615TIP3    H122788   5.426   6.264   1.396
 7615TIP3    H222789   5.576   6.250   1.382
 7616TIP3   OH222790   0.481   6.251   6.248
 7616TIP3    H122791   0.411   6.186   6.247
 7616TIP3    H222792   0.525   6.236   6.332
 7617TIP3   OH222793   0.327   0.514   1.886
 7617TIP3    H122794   0.247   0.566   1.878
 7617TIP3    H222795   0.374   0.528   1.804
 7618TIP3   OH222796   6.551   7.057   5.303
 7618TIP3    H122797   6.586   7.031   5.388
 7618TIP3    H222798   6.626   7.096   5.258
 7619TIP3   OH222799   5.694   6.986   3.550
 7619TIP3    H122800   5.626   6.935   3.506
 7619TIP3    H222801   5.751   7.017   3.479
 7620TIP3   OH222802   3.515   5.306   0.176
 7620TIP3    H122803   3.490   5.213   0.169
 7620TIP3    H222804   3.552   5.313   0.263
 7621TIP3   OH222805   2.267   7.198   6.755
 7621TIP3    H122806   2.216   7.180   6.677
 7621TIP3    H222807   2.293   7.290   6.746
 7622TIP3   OH222808   3.308   0.842   1.978
 7622TIP3    H122809   3.365   0.801   2.043
 7622TIP3    H222810   3.229   0.788   1.979
 7623TIP3   OH222811   0.504   4.167   5.825
 7623TIP3    H122812   0.507   4.112   5.746
 7623TIP3    H222813   0.413   4.194   5.832
 7624TIP3   OH222814   1.749   1.128   2.402
 7624TIP3    H122815   1.819   1.168   2.454
 7624TIP3    H222816   1.748   1.179   2.321
 7625TIP3   OH222817   4.208   0.773   0.973
 7625TIP3    H122818   4.264   0.715   1.024
 7625TIP3    H222819   4.151   0.814   1.038
 7626TIP3   OH222820   3.932   4.517   3.968
 7626TIP3    H122821   3.875   4.588   3.998
 7626TIP3    H222822   3.884   4.477   3.896
 7627TIP3   OH222823   4.393   3.666   5.895
 7627TIP3    H122824   4.378   3.572   5.891
 7627TIP3    H222825   4.312   3.705   5.864
 7628TIP3   OH222826   5.217   5.283   0.759
 7628TIP3    H122827   5.296   5.332   0.734
 7628TIP3    H222828   5.240   5.241   0.841
 7629TIP3   OH222829   3.361   6.437   0.152
 7629TIP3    H122830   3.327   6.409   0.067
 7629TIP3    H222831   3.414   6.364   0.182
 7630TIP3   OH222832   0.617   3.380   0.814
 7630TIP3    H122833   0.602   3.374   0.908
 7630TIP3    H222834   0.531   3.365   0.775
 7631TIP3   OH222835   3.381   4.792   5.442
 7631TIP3    H122836   3.346   4.786   5.353
 7631TIP3    H222837   3.314   4.840   5.490
 7632TIP3   OH222838   5.133   1.773   5.251
 7632TIP3    H122839   5.224   1.764   5.280
 7632TIP3    H222840   5.083   1.780   5.332
 7633TIP3   OH222841   5.252   7.746   6.225
 7633TIP3    H122842   5.184   7.704   6.277
 7633TIP3    H222843   5.208   7.772   6.144
 7634TIP3   OH222844   6.852   6.029   4.021
 7634TIP3    H122845   6.936   5.985   4.032
 7634TIP3    H222846   6.829   6.015   3.929
 7635TIP3   OH222847   1.423   3.643   0.759
 7635TIP3    H122848   1.340   3.686   0.736
 7635TIP3    H222849   1.398   3.566   0.809
 7636TIP3   OH222850   5.220   6.866   5.712
 7636TIP3    H122851   5.239   6.833   5.800
 7636TIP3    H222852   5.302   6.853   5.664
 7637TIP3   OH222853   1.851   4.137   0.723
 7637TIP3    H122854   1.935   4.098   0.698
 7637TIP3    H222855   1.865   4.173   0.810
 7638TIP3   OH222856   3.093   0.613   4.066
 7638TIP3    H122857   3.134   0.695   4.094
 7638TIP3    H222858   2.999   0.628   4.079
 7639TIP3   OH222859   2.045   3.017   0.899
 7639TIP3    H122860   2.050   3.093   0.957
 7639TIP3    H222861   1.955   3.019   0.866
 7640TIP3   OH222862   3.811   1.020   0.176
 7640TIP3    H122863   3.773   1.095   0.129
 7640TIP3    H222864   3.750   0.948   0.160
 7641TIP3   OH222865   7.620   5.520   0.919
 7641TIP3    H122866   7.546   5.554   0.968
 7641TIP3    H222867   7.680   5.487   0.986
 7642TIP3   OH222868   5.632   5.349   5.744
 7642TIP3    H122869   5.582   5.402   5.806
 7642TIP3    H222870   5.713   5.327   5.791
 7643TIP3   OH222871   2.306   6.215   5.782
 7643TIP3    H122872   2.353   6.298   5.795
 7643TIP3    H222873   2.268   6.196   5.868
 7644TIP3   OH222874   3.320   2.684   3.858
 7644TIP3    H122875   3.388   2.619   3.840
 7644TIP3    H222876   3.339   2.757   3.798
 7645TIP3   OH222877   1.273   1.297   4.835
 7645TIP3    H122878   1.271   1.384   4.876
 7645TIP3    H222879   1.325   1.309   4.756
 7646TIP3   OH222880   2.653   7.302   3.567
 7646TIP3    H122881   2.711   7.225   3.564
 7646TIP3    H222882   2.656   7.331   3.658
 7647TIP3   OH222883   0.768   3.633   2.162
 7647TIP3    H122884   0.784   3.634   2.068
 7647TIP3    H222885   0.735   3.721   2.181
 7648TIP3   OH222886   1.943  -0.013   6.184
 7648TIP3    H122887   2.012   0.002   6.248
 7648TIP3    H222888   1.959  -0.102   6.152
 7649TIP3   OH222889   7.616   5.601   3.461
 7649TIP3    H122890   7.610   5.664   3.533
 7649TIP3    H222891   7.596   5.653   3.383
 7650TIP3   OH222892   2.521   0.206   1.100
 7650TIP3    H122893   2.495   0.161   1.181
 7650TIP3    H222894   2.520   0.299   1.123
 7651TIP3   OH222895   1.500   6.434   5.074
 7651TIP3    H122896   1.545   6.450   5.156
 7651TIP3    H222897   1.463   6.346   5.083
 7652TIP3   OH222898   4.460   2.309   4.092
 7652TIP3    H122899   4.510   2.352   4.162
 7652TIP3    H222900   4.368   2.322   4.117
 7653TIP3   OH222901   0.654   4.478   2.981
 7653TIP3    H122902   0.627   4.401   2.931
 7653TIP3    H222903   0.677   4.543   2.915
 7654TIP3   OH222904   7.922   5.654   5.906
 7654TIP3    H122905   7.949   5.575   5.858
 7654TIP3    H222906   7.933   5.725   5.842
 7655TIP3   OH222907   1.620   1.422   1.172
 7655TIP3    H122908   1.600   1.439   1.080
 7655TIP3    H222909   1.564   1.348   1.195
 7656TIP3   OH222910   1.025   4.629   0.345
 7656TIP3    H122911   1.116   4.604   0.357
 7656TIP3    H222912   0.977   4.547   0.348
 7657TIP3   OH222913   2.035   5.622   2.144
 7657TIP3    H122914   1.997   5.704   2.175
 7657TIP3    H222915   1.960   5.563   2.134
 7658TIP3   OH222916   2.244   3.876   3.798
 7658TIP3    H122917   2.191   3.948   3.832
 7658TIP3    H222918   2.334   3.902   3.816
 7659TIP3   OH222919   7.173   3.191   4.196
 7659TIP3    H122920   7.231   3.136   4.249
 7659TIP3    H222921   7.114   3.231   4.259
 7660TIP3   OH222922   5.827   1.835   2.527
 7660TIP3    H122923   5.861   1.857   2.614
 7660TIP3    H222924   5.789   1.748   2.538
 7661TIP3   OH222925   5.559   0.205   3.005
 7661TIP3    H122926   5.620   0.149   2.958
 7661TIP3    H222927   5.604   0.290   3.011
 7662TIP3   OH222928   2.169   1.311   4.104
 7662TIP3    H122929   2.152   1.319   4.010
 7662TIP3    H222930   2.140   1.394   4.141
 7663TIP3   OH222931   5.772   6.601   4.488
 7663TIP3    H122932   5.714   6.610   4.413
 7663TIP3    H222933   5.791   6.691   4.515
 7664TIP3   OH222934   7.984   5.660   2.140
 7664TIP3    H122935   7.926   5.733   2.160
 7664TIP3    H222936   8.062   5.675   2.194
 7665TIP3   OH222937   0.651   4.785   5.389
 7665TIP3    H122938   0.679   4.770   5.479
 7665TIP3    H222939   0.597   4.709   5.367
 7666TIP3   OH222940   0.508   3.731   1.072
 7666TIP3    H122941   0.427   3.680   1.071
 7666TIP3    H222942   0.571   3.677   1.024
 7667TIP3   OH222943   4.317   2.795   4.062
 7667TIP3    H122944   4.326   2.727   3.996
 7667TIP3    H222945   4.386   2.777   4.126
 7668TIP3   OH222946   7.068   1.708   4.441
 7668TIP3    H122947   7.013   1.714   4.519
 7668TIP3    H222948   7.145   1.659   4.470
 7669TIP3   OH222949   6.704   3.939   2.020
 7669TIP3    H122950   6.796   3.964   2.013
 7669TIP3    H222951   6.687   3.936   2.114
 7670TIP3   OH222952   7.413   3.336   6.105
 7670TIP3    H122953   7.330   3.350   6.060
 7670TIP3    H222954   7.405   3.387   6.186
 7671TIP3   OH222955   1.838   2.872   6.415
 7671TIP3    H122956   1.901   2.844   6.348
 7671TIP3    H222957   1.812   2.792   6.459
 7672TIP3   OH222958   4.785   6.760   2.964
 7672TIP3    H122959   4.812   6.788   2.876
 7672TIP3    H222960   4.837   6.814   3.023
 7673TIP3   OH222961   0.806   6.601   1.584
 7673TIP3    H122962   0.752   6.669   1.544
 7673TIP3    H222963   0.764   6.582   1.668
 7674TIP3   OH222964   3.732   6.532   0.610
 7674TIP3    H122965   3.795   6.582   0.662
 7674TIP3    H222966   3.651   6.583   0.613
 7675TIP3   OH222967   4.239   1.284   4.950
 7675TIP3    H122968   4.154   1.323   4.925
 7675TIP3    H222969   4.261   1.226   4.878
 7676TIP3   OH222970   5.946   5.822   2.381
 7676TIP3    H122971   5.935   5.902   2.329
 7676TIP3    H222972   5.964   5.754   2.316
 7677TIP3   OH222973   4.757   6.408   1.411
 7677TIP3    H122974   4.673   6.363   1.404
 7677TIP3    H222975   4.733   6.499   1.430
 7678TIP3   OH222976   0.645   1.919   3.530
 7678TIP3    H122977   0.565   1.955   3.493
 7678TIP3    H222978   0.705   1.993   3.535
 7679TIP3   OH222979   4.571   1.361   5.266
 7679TIP3    H122980   4.500   1.423   5.251
 7679TIP3    H222981   4.566   1.339   5.359
 7680TIP3   OH222982   7.582   1.913   2.386
 7680TIP3    H122983   7.557   1.976   2.317
 7680TIP3    H222984   7.515   1.925   2.454
 7681TIP3   OH222985   6.393   1.181   3.035
 7681TIP3    H122986   6.389   1.156   3.127
 7681TIP3    H222987   6.468   1.240   3.029
 7682TIP3   OH222988   1.261   6.081   6.493
 7682TIP3    H122989   1.233   6.038   6.413
 7682TIP3    H222990   1.193   6.147   6.510
 7683TIP3   OH222991   7.843   5.667   2.442
 7683TIP3    H122992   7.850   5.756   2.476
 7683TIP3    H222993   7.780   5.674   2.370
 7684TIP3   OH222994   8.274   3.753   2.537
 7684TIP3    H122995   8.315   3.770   2.622
 7684TIP3    H222996   8.236   3.665   2.546
 7685TIP3   OH222997   5.086   3.905   4.493
 7685TIP3    H122998   5.175   3.940   4.502
 7685TIP3    H222999   5.094   3.841   4.421
 7686TIP3   OH223000   2.147   3.901   1.611
 7686TIP3    H123001   2.189   3.986   1.625
 7686TIP3    H223002   2.070   3.921   1.558
 7687TIP3   OH223003   6.878   0.848   1.661
 7687TIP3    H123004   6.943   0.811   1.601
 7687TIP3    H223005   6.855   0.775   1.718
 7688TIP3   OH223006   0.665   3.839   6.057
 7688TIP3    H123007   0.582   3.861   6.015
 7688TIP3    H223008   0.640   3.804   6.142
 7689TIP3   OH223009   1.165   1.301   6.384
 7689TIP3    H123010   1.100   1.313   6.453
 7689TIP3    H223011   1.155   1.379   6.329
 7690TIP3   OH223012   1.085   1.886   6.489
 7690TIP3    H123013   1.050   1.878   6.578
 7690TIP3    H223014   1.171   1.845   6.493
 7691TIP3   OH223015   7.622   2.808   6.333
 7691TIP3    H123016   7.623   2.777   6.243
 7691TIP3    H223017   7.653   2.898   6.328
 7692TIP3   OH223018   3.705   4.937   4.321
 7692TIP3    H123019   3.654   5.000   4.372
 7692TIP3    H223020   3.642   4.871   4.294
 7693TIP3   OH223021   7.451   2.446   2.133
 7693TIP3    H123022   7.356   2.439   2.142
 7693TIP3    H223023   7.472   2.532   2.169
 7694TIP3   OH223024   2.220   5.156   2.880
 7694TIP3    H123025   2.172   5.239   2.876
 7694TIP3    H223026   2.205   5.117   2.794
 7695TIP3   OH223027   0.763   6.981   3.629
 7695TIP3    H123028   0.831   6.951   3.568
 7695TIP3    H223029   0.752   7.073   3.609
 7696TIP3   OH223030   6.218   0.739   3.109
 7696TIP3    H123031   6.190   0.829   3.124
 7696TIP3    H223032   6.310   0.747   3.082
 7697TIP3   OH223033   1.111   5.856   1.417
 7697TIP3    H123034   1.029   5.894   1.386
 7697TIP3    H223035   1.106   5.862   1.513
 7698TIP3   OH223036   2.039   4.517   3.796
 7698TIP3    H123037   1.979   4.559   3.735
 7698TIP3    H223038   2.076   4.444   3.746
 7699TIP3   OH223039   2.345   3.738   2.388
 7699TIP3    H123040   2.368   3.645   2.392
 7699TIP3    H223041   2.257   3.739   2.352
 7700TIP3   OH223042   8.108   4.923   2.127
 7700TIP3    H123043   8.179   4.865   2.099
 7700TIP3    H223044   8.145   4.972   2.201
 7701TIP3   OH223045   1.296   7.438   5.048
 7701TIP3    H123046   1.355   7.490   5.103
 7701TIP3    H223047   1.322   7.347   5.065
 7702TIP3   OH223048   3.754   7.654   1.709
 7702TIP3    H123049   3.691   7.597   1.752
 7702TIP3    H223050   3.729   7.653   1.617
 7703TIP3   OH223051   7.985   3.613   1.819
 7703TIP3    H123052   8.080   3.618   1.808
 7703TIP3    H223053   7.950   3.669   1.749
 7704TIP3   OH223054   2.161   4.075   2.215
 7704TIP3    H123055   2.095   4.040   2.274
 7704TIP3    H223056   2.201   4.147   2.264
 7705TIP3   OH223057   2.963   5.048   1.332
 7705TIP3    H123058   2.949   5.131   1.377
 7705TIP3    H223059   3.050   5.056   1.294
 7706TIP3   OH223060   6.625   7.515  -0.033
 7706TIP3    H123061   6.691   7.506   0.036
 7706TIP3    H223062   6.552   7.461  -0.004
 7707TIP3   OH223063   3.033   1.285   1.096
 7707TIP3    H123064   2.990   1.277   1.012
 7707TIP3    H223065   3.124   1.258   1.080
 7708TIP3   OH223066   1.504   7.560   1.220
 7708TIP3    H123067   1.593   7.526   1.218
 7708TIP3    H223068   1.454   7.502   1.163
 7709TIP3   OH223069   1.613   4.394   0.764
 7709TIP3    H123070   1.685   4.332   0.750
 7709TIP3    H223071   1.571   4.402   0.678
 7710TIP3   OH223072   3.780   1.111   3.676
 7710TIP3    H123073   3.819   1.094   3.590
 7710TIP3    H223074   3.848   1.087   3.738
 7711TIP3   OH223075   6.588   1.122   0.104
 7711TIP3    H123076   6.620   1.086   0.187
 7711TIP3    H223077   6.501   1.083   0.093
 7712TIP3   OH223078   4.472   1.641   1.221
 7712TIP3    H123079   4.439   1.610   1.305
 7712TIP3    H223080   4.428   1.586   1.156
 7713TIP3   OH223081   1.863   4.246   0.314
 7713TIP3    H123082   1.913   4.168   0.290
 7713TIP3    H223083   1.806   4.218   0.385
 7714TIP3   OH223084   5.047   0.597   2.164
 7714TIP3    H123085   5.115   0.633   2.107
 7714TIP3    H223086   5.069   0.630   2.251
 7715TIP3   OH223087   1.610   2.272   2.961
 7715TIP3    H123088   1.677   2.215   2.999
 7715TIP3    H223089   1.538   2.214   2.938
 7716TIP3   OH223090   3.433   0.759   6.137
 7716TIP3    H123091   3.344   0.735   6.161
 7716TIP3    H223092   3.482   0.677   6.139
 7717TIP3   OH223093   4.150   5.718   0.576
 7717TIP3    H123094   4.191   5.678   0.653
 7717TIP3    H223095   4.084   5.655   0.549
 7718TIP3   OH223096   5.146   7.792   4.645
 7718TIP3    H123097   5.164   7.735   4.570
 7718TIP3    H223098   5.103   7.869   4.607
 7719TIP3   OH223099   2.639   0.793   3.079
 7719TIP3    H123100   2.640   0.871   3.024
 7719TIP3    H223101   2.562   0.804   3.135
 7720TIP3   OH223102   1.278   2.104   4.342
 7720TIP3    H123103   1.242   2.167   4.405
 7720TIP3    H223104   1.362   2.141   4.317
 7721TIP3   OH223105   1.274   7.623   2.571
 7721TIP3    H123106   1.221   7.553   2.532
 7721TIP3    H223107   1.210   7.688   2.601
 7722TIP3   OH223108   0.641   0.897   0.035
 7722TIP3    H123109   0.725   0.883  -0.010
 7722TIP3    H223110   0.652   0.853   0.119
 7723TIP3   OH223111   7.202   6.834   0.352
 7723TIP3    H123112   7.195   6.781   0.273
 7723TIP3    H223113   7.159   6.917   0.328
 7724TIP3   OH223114   1.486   0.852   4.055
 7724TIP3    H123115   1.467   0.944   4.037
 7724TIP3    H223116   1.412   0.804   4.017
 7725TIP3   OH223117   5.105   4.242   5.010
 7725TIP3    H123118   5.150   4.220   4.929
 7725TIP3    H223119   5.014   4.259   4.983
 7726TIP3   OH223120   5.919   3.169   5.256
 7726TIP3    H123121   5.958   3.163   5.343
 7726TIP3    H223122   5.991   3.198   5.199
 7727TIP3   OH223123   5.530   2.862   6.221
 7727TIP3    H123124   5.541   2.767   6.226
 7727TIP3    H223125   5.505   2.879   6.131
 7728TIP3   OH223126   1.264   0.102   6.506
 7728TIP3    H123127   1.323   0.172   6.535
 7728TIP3    H223128   1.179   0.145   6.496
 7729TIP3   OH223129   7.270   1.238   4.689
 7729TIP3    H123130   7.267   1.207   4.780
 7729TIP3    H223131   7.230   1.325   4.693
 7730TIP3   OH223132   5.130   6.192   3.437
 7730TIP3    H123133   5.218   6.227   3.425
 7730TIP3    H223134   5.074   6.250   3.385
 7731TIP3   OH223135   6.765   3.422   4.395
 7731TIP3    H123136   6.777   3.327   4.400
 7731TIP3    H223137   6.670   3.434   4.396
 7732TIP3   OH223138   5.581   2.446   2.424
 7732TIP3    H123139   5.589   2.352   2.409
 7732TIP3    H223140   5.608   2.458   2.515
 7733TIP3   OH223141   2.205   6.029   1.033
 7733TIP3    H123142   2.276   6.022   0.969
 7733TIP3    H223143   2.128   5.996   0.988
 7734TIP3   OH223144   3.826   1.749   4.849
 7734TIP3    H123145   3.914   1.761   4.814
 7734TIP3    H223146   3.808   1.829   4.898
 7735TIP3   OH223147   0.532   2.745   4.282
 7735TIP3    H123148   0.556   2.838   4.277
 7735TIP3    H223149   0.436   2.745   4.278
 7736TIP3   OH223150   0.836   0.133   0.081
 7736TIP3    H123151   0.796   0.056   0.040
 7736TIP3    H223152   0.912   0.153   0.026
 7737TIP3   OH223153   6.800   2.695   2.476
 7737TIP3    H123154   6.828   2.623   2.419
 7737TIP3    H223155   6.707   2.679   2.490
 7738TIP3   OH223156   1.094   4.459   3.260
 7738TIP3    H123157   1.115   4.368   3.284
 7738TIP3    H223158   1.000   4.456   3.238
 7739TIP3   OH223159   5.911   7.113   2.362
 7739TIP3    H123160   6.005   7.109   2.378
 7739TIP3    H223161   5.896   7.197   2.320
 7740TIP3   OH223162   2.710   5.661   0.718
 7740TIP3    H123163   2.774   5.692   0.654
 7740TIP3    H223164   2.638   5.627   0.666
 7741TIP3   OH223165   7.096   6.158   1.972
 7741TIP3    H123166   7.114   6.237   2.022
 7741TIP3    H223167   7.018   6.120   2.012
 7742TIP3   OH223168   2.408   7.540   0.981
 7742TIP3    H123169   2.360   7.585   1.050
 7742TIP3    H223170   2.353   7.549   0.903
 7743TIP3   OH223171   6.585   5.514   6.305
 7743TIP3    H123172   6.630   5.458   6.242
 7743TIP3    H223173   6.627   5.494   6.389
 7744TIP3   OH223174   3.292   6.536   4.601
 7744TIP3    H123175   3.267   6.445   4.616
 7744TIP3    H223176   3.373   6.547   4.651
 7745TIP3   OH223177   2.498   2.581   2.523
 7745TIP3    H123178   2.587   2.577   2.559
 7745TIP3    H223179   2.459   2.658   2.566
 7746TIP3   OH223180   4.856   3.263   3.715
 7746TIP3    H123181   4.783   3.207   3.688
 7746TIP3    H223182   4.843   3.344   3.665
 7747TIP3   OH223183   6.383   1.535   5.316
 7747TIP3    H123184   6.390   1.569   5.405
 7747TIP3    H223185   6.468   1.557   5.276
 7748TIP3   OH223186   4.755   1.562   3.361
 7748TIP3    H123187   4.719   1.569   3.450
 7748TIP3    H223188   4.780   1.651   3.338
 7749TIP3   OH223189   7.941   0.966   1.111
 7749TIP3    H123190   8.026   0.930   1.137
 7749TIP3    H223191   7.939   0.958   1.016
 7750TIP3   OH223192   4.150   4.003   5.058
 7750TIP3    H123193   4.064   4.016   5.099
 7750TIP3    H223194   4.179   3.918   5.089
 7751TIP3   OH223195   0.943   3.234   0.235
 7751TIP3    H123196   0.874   3.218   0.300
 7751TIP3    H223197   0.987   3.149   0.226
 7752TIP3   OH223198   3.142   2.557   0.071
 7752TIP3    H123199   3.125   2.513   0.154
 7752TIP3    H223200   3.148   2.650   0.093
 7753TIP3   OH223201   0.223   3.470   4.309
 7753TIP3    H123202   0.215   3.490   4.216
 7753TIP3    H223203   0.317   3.468   4.325
 7754TIP3   OH223204   6.083   5.971   3.753
 7754TIP3    H123205   6.151   6.003   3.812
 7754TIP3    H223206   6.130   5.931   3.680
 7755TIP3   OH223207   4.678   0.438   3.094
 7755TIP3    H123208   4.716   0.352   3.076
 7755TIP3    H223209   4.734   0.500   3.047
 7756TIP3   OH223210   5.283   7.801   0.887
 7756TIP3    H123211   5.268   7.818   0.794
 7756TIP3    H223212   5.198   7.769   0.919
 7757TIP3   OH223213   0.916   3.934   5.665
 7757TIP3    H123214   0.837   3.989   5.660
 7757TIP3    H223215   0.986   3.996   5.683
 7758TIP3   OH223216   4.038   4.519   3.177
 7758TIP3    H123217   4.114   4.477   3.136
 7758TIP3    H223218   3.971   4.450   3.180
 7759TIP3   OH223219   2.747   4.831   5.825
 7759TIP3    H123220   2.827   4.782   5.804
 7759TIP3    H223221   2.700   4.774   5.886
 7760TIP3   OH223222   5.863   4.472   1.583
 7760TIP3    H123223   5.909   4.535   1.639
 7760TIP3    H223224   5.931   4.409   1.557
 7761TIP3   OH223225   7.117   0.659   3.764
 7761TIP3    H123226   7.114   0.719   3.838
 7761TIP3    H223227   7.043   0.600   3.777
 7762TIP3   OH223228   0.775   6.913   6.212
 7762TIP3    H123229   0.832   6.838   6.195
 7762TIP3    H223230   0.688   6.883   6.187
 7763TIP3   OH223231   7.676   6.338   2.575
 7763TIP3    H123232   7.655   6.390   2.653
 7763TIP3    H223233   7.771   6.350   2.563
 7764TIP3   OH223234   3.022   2.358   5.050
 7764TIP3    H123235   3.051   2.293   4.986
 7764TIP3    H223236   2.995   2.306   5.126
 7765TIP3   OH223237   1.741   2.368   1.599
 7765TIP3    H123238   1.810   2.418   1.641
 7765TIP3    H223239   1.678   2.350   1.670
 7766TIP3   OH223240   4.373   3.423   6.106
 7766TIP3    H123241   4.346   3.504   6.150
 7766TIP3    H223242   4.453   3.397   6.152
 7767TIP3   OH223243   7.645   4.703   0.350
 7767TIP3    H123244   7.677   4.621   0.313
 7767TIP3    H223245   7.711   4.728   0.415
 7768TIP3   OH223246   2.397   4.407   1.398
 7768TIP3    H123247   2.343   4.435   1.324
 7768TIP3    H223248   2.452   4.482   1.417
 7769TIP3   OH223249   6.887   0.053   2.062
 7769TIP3    H123250   6.975   0.020   2.078
 7769TIP3    H223251   6.900   0.143   2.032
 7770TIP3   OH223252   8.142   6.312   0.678
 7770TIP3    H123253   8.147   6.291   0.771
 7770TIP3    H223254   8.107   6.233   0.638
 7771TIP3   OH223255   5.011   0.280   3.533
 7771TIP3    H123256   4.971   0.198   3.503
 7771TIP3    H223257   5.104   0.270   3.512
 7772TIP3   OH223258   4.263   5.405   5.357
 7772TIP3    H123259   4.315   5.469   5.308
 7772TIP3    H223260   4.247   5.448   5.442
 7773TIP3   OH223261   5.777   3.592   3.245
 7773TIP3    H123262   5.837   3.559   3.312
 7773TIP3    H223263   5.691   3.591   3.288
 7774TIP3   OH223264   0.047   0.553   6.180
 7774TIP3    H123265   0.099   0.612   6.126
 7774TIP3    H223266   0.112   0.495   6.221
 7775TIP3   OH223267   7.525   6.596   3.651
 7775TIP3    H123268   7.551   6.566   3.738
 7775TIP3    H223269   7.532   6.692   3.656
 7776TIP3   OH223270   0.158   5.170   5.893
 7776TIP3    H123271   0.143   5.264   5.886
 7776TIP3    H223272   0.206   5.147   5.813
 7777TIP3   OH223273   1.748   6.323   2.403
 7777TIP3    H123274   1.732   6.284   2.489
 7777TIP3    H223275   1.745   6.418   2.419
 7778TIP3   OH223276   5.707   0.567   6.100
 7778TIP3    H123277   5.652   0.539   6.027
 7778TIP3    H223278   5.792   0.586   6.060
 7779TIP3   OH223279  -0.016   2.021   5.878
 7779TIP3    H123280  -0.075   1.966   5.930
 7779TIP3    H223281  -0.074   2.069   5.819
 7780TIP3   OH223282   4.152   2.148   6.030
 7780TIP3    H123283   4.095   2.108   5.964
 7780TIP3    H223284   4.144   2.242   6.014
 7781TIP3   OH223285   5.669   7.721   1.997
 7781TIP3    H123286   5.751   7.747   1.954
 7781TIP3    H223287   5.606   7.789   1.972
 7782TIP3   OH223288   5.715   4.140   5.525
 7782TIP3    H123289   5.728   4.201   5.452
 7782TIP3    H223290   5.802   4.131   5.564
 7783TIP3   OH223291   2.930   1.915   4.416
 7783TIP3    H123292   2.988   1.986   4.388
 7783TIP3    H223293   2.971   1.881   4.495
 7784TIP3   OH223294   5.199   4.241   0.869
 7784TIP3    H123295   5.273   4.301   0.875
 7784TIP3    H223296   5.144   4.277   0.799
 7785TIP3   OH223297   1.225   1.333   4.342
 7785TIP3    H123298   1.216   1.422   4.374
 7785TIP3    H223299   1.274   1.288   4.411
 7786TIP3   OH223300   0.948   1.504   2.863
 7786TIP3    H123301   1.025   1.493   2.919
 7786TIP3    H223302   0.978   1.560   2.792
 7787TIP3   OH223303   2.059   4.339   0.140
 7787TIP3    H123304   2.009   4.345   0.058
 7787TIP3    H223305   1.994   4.350   0.209
 7788TIP3   OH223306   4.804   2.216   5.268
 7788TIP3    H123307   4.883   2.171   5.298
 7788TIP3    H223308   4.741   2.146   5.253
 7789TIP3   OH223309   3.048   5.623   3.365
 7789TIP3    H123310   3.110   5.561   3.403
 7789TIP3    H223311   2.983   5.569   3.321
 7790TIP3   OH223312   5.267   4.656   5.310
 7790TIP3    H123313   5.267   4.698   5.224
 7790TIP3    H223314   5.233   4.568   5.293
 7791TIP3   OH223315   2.416   2.215   1.763
 7791TIP3    H123316   2.334   2.260   1.787
 7791TIP3    H223317   2.398   2.176   1.678
 7792TIP3   OH223318   5.014   1.810   5.732
 7792TIP3    H123319   4.964   1.883   5.770
 7792TIP3    H223320   5.080   1.852   5.678
 7793TIP3   OH223321   2.964   6.417   3.852
 7793TIP3    H123322   2.928   6.410   3.940
 7793TIP3    H223323   3.053   6.383   3.860
 7794TIP3   OH223324   3.099   3.271   3.078
 7794TIP3    H123325   3.040   3.208   3.037
 7794TIP3    H223326   3.179   3.267   3.025
 7795TIP3   OH223327   6.561   6.538   6.672
 7795TIP3    H123328   6.599   6.455   6.699
 7795TIP3    H223329   6.573   6.541   6.577
 7796TIP3   OH223330   1.091   2.537   3.594
 7796TIP3    H123331   1.090   2.618   3.644
 7796TIP3    H223332   1.164   2.487   3.632
 7797TIP3   OH223333   0.366   7.585   6.332
 7797TIP3    H123334   0.440   7.592   6.392
 7797TIP3    H223335   0.296   7.545   6.385
 7798TIP3   OH223336   4.553   4.627   6.717
 7798TIP3    H123337   4.637   4.668   6.737
 7798TIP3    H223338   4.507   4.691   6.662
 7799TIP3   OH223339   4.910   4.006   2.101
 7799TIP3    H123340   4.940   4.022   2.190
 7799TIP3    H223341   4.891   3.912   2.099
 7800TIP3   OH223342   3.904   4.376   6.471
 7800TIP3    H123343   3.993   4.399   6.500
 7800TIP3    H223344   3.853   4.373   6.552
 7801TIP3   OH223345   1.418   7.760   4.037
 7801TIP3    H123346   1.402   7.830   3.973
 7801TIP3    H223347   1.434   7.807   4.120
 7802TIP3   OH223348   1.008   1.297   1.638
 7802TIP3    H123349   1.092   1.330   1.606
 7802TIP3    H223350   0.979   1.363   1.701
 7803TIP3   OH223351   5.186   5.724   4.951
 7803TIP3    H123352   5.280   5.742   4.940
 7803TIP3    H223353   5.143   5.781   4.888
 7804TIP3   OH223354   4.712   5.177   4.810
 7804TIP3    H123355   4.691   5.237   4.737
 7804TIP3    H223356   4.629   5.165   4.856
 7805TIP3   OH223357   5.775   2.947   5.229
 7805TIP3    H123358   5.835   3.021   5.237
 7805TIP3    H223359   5.697   2.973   5.278
 7806TIP3   OH223360   4.406   2.968   2.654
 7806TIP3    H123361   4.383   2.997   2.566
 7806TIP3    H223362   4.343   3.012   2.711
 7807TIP3   OH223363   0.835   2.029   1.788
 7807TIP3    H123364   0.791   2.093   1.844
 7807TIP3    H223365   0.870   2.080   1.715
 7808TIP3   OH223366   7.069   4.925   3.923
 7808TIP3    H123367   6.998   4.978   3.887
 7808TIP3    H223368   7.149   4.967   3.890
 7809TIP3   OH223369   6.945   4.254   1.778
 7809TIP3    H123370   7.015   4.259   1.713
 7809TIP3    H223371   6.864   4.249   1.727
 7810TIP3   OH223372   1.864   6.236   1.043
 7810TIP3    H123373   1.838   6.195   1.125
 7810TIP3    H223374   1.878   6.328   1.065
 7811TIP3   OH223375   6.668   1.657   3.136
 7811TIP3    H123376   6.732   1.598   3.175
 7811TIP3    H223377   6.600   1.598   3.101
 7812TIP3   OH223378   8.153   4.751   1.829
 7812TIP3    H123379   8.204   4.676   1.798
 7812TIP3    H223380   8.163   4.749   1.925
 7813TIP3   OH223381   5.084   4.989   3.344
 7813TIP3    H123382   5.125   5.047   3.279
 7813TIP3    H223383   4.998   5.027   3.360
 7814TIP3   OH223384   7.962   7.637   6.002
 7814TIP3    H123385   7.885   7.580   6.003
 7814TIP3    H223386   7.951   7.693   6.079
 7815TIP3   OH223387   0.332   6.231   1.086
 7815TIP3    H123388   0.260   6.185   1.043
 7815TIP3    H223389   0.316   6.218   1.179
 7816TIP3   OH223390   7.665   0.427   3.447
 7816TIP3    H123391   7.573   0.404   3.459
 7816TIP3    H223392   7.691   0.381   3.368
 7817TIP3   OH223393   2.560   5.509   3.717
 7817TIP3    H123394   2.571   5.415   3.726
 7817TIP3    H223395   2.648   5.543   3.701
 7818TIP3   OH223396   5.235   0.744   3.407
 7818TIP3    H123397   5.216   0.746   3.501
 7818TIP3    H223398   5.212   0.656   3.380
 7819TIP3   OH223399   3.454  -0.019   5.011
 7819TIP3    H123400   3.387   0.014   5.070
 7819TIP3    H223401   3.427   0.012   4.924
 7820TIP3   OH223402   2.617   3.296   3.780
 7820TIP3    H123403   2.637   3.290   3.687
 7820TIP3    H223404   2.655   3.379   3.808
 7821TIP3   OH223405   2.064   5.346   6.553
 7821TIP3    H123406   2.093   5.346   6.645
 7821TIP3    H223407   2.134   5.300   6.506
 7822TIP3   OH223408   1.531   4.902   5.835
 7822TIP3    H123409   1.505   4.812   5.814
 7822TIP3    H223410   1.530   4.905   5.931
 7823TIP3   OH223411   5.306   5.570   4.079
 7823TIP3    H123412   5.316   5.475   4.089
 7823TIP3    H223413   5.392   5.600   4.048
 7824TIP3   OH223414   6.229   4.069   4.610
 7824TIP3    H123415   6.289   4.031   4.546
 7824TIP3    H223416   6.146   4.023   4.596
 7825TIP3   OH223417   2.049   5.315   4.220
 7825TIP3    H123418   2.143   5.311   4.204
 7825TIP3    H223419   2.010   5.331   4.134
 7826TIP3   OH223420   1.526   5.556   3.562
 7826TIP3    H123421   1.490   5.577   3.475
 7826TIP3    H223422   1.620   5.569   3.552
 7827TIP3   OH223423   1.664   3.755   3.283
 7827TIP3    H123424   1.700   3.754   3.194
 7827TIP3    H223425   1.741   3.750   3.340
 7828TIP3   OH223426   0.564   4.605   3.235
 7828TIP3    H123427   0.484   4.640   3.196
 7828TIP3    H223428   0.592   4.536   3.175
 7829TIP3   OH223429   4.058   2.392   3.368
 7829TIP3    H123430   4.058   2.487   3.365
 7829TIP3    H223431   3.977   2.367   3.324
 7830TIP3   OH223432   5.502   1.431   4.343
 7830TIP3    H123433   5.493   1.339   4.370
 7830TIP3    H223434   5.428   1.445   4.283
 7831TIP3   OH223435   3.776   2.633   1.091
 7831TIP3    H123436   3.817   2.706   1.043
 7831TIP3    H223437   3.836   2.616   1.164
 7832TIP3   OH223438   3.078   5.854   2.787
 7832TIP3    H123439   3.089   5.861   2.692
 7832TIP3    H223440   3.117   5.935   2.821
 7833TIP3   OH223441   7.549   3.998   5.239
 7833TIP3    H123442   7.510   3.915   5.213
 7833TIP3    H223443   7.505   4.022   5.321
 7834TIP3   OH223444   5.326   2.557   6.648
 7834TIP3    H123445   5.261   2.488   6.664
 7834TIP3    H223446   5.377   2.561   6.728
 7835TIP3   OH223447   6.370   2.228   5.676
 7835TIP3    H123448   6.323   2.202   5.597
 7835TIP3    H223449   6.357   2.323   5.682
 7836TIP3   OH223450   6.837   4.795   4.284
 7836TIP3    H123451   6.763   4.824   4.230
 7836TIP3    H223452   6.808   4.713   4.323
 7837TIP3   OH223453   1.568   1.303   6.262
 7837TIP3    H123454   1.495   1.242   6.251
 7837TIP3    H223455   1.533   1.388   6.235
 7838TIP3   OH223456   2.648   5.759   6.557
 7838TIP3    H123457   2.641   5.823   6.486
 7838TIP3    H223458   2.614   5.805   6.634
 7839TIP3   OH223459   7.894   6.276   2.911
 7839TIP3    H123460   7.909   6.257   3.003
 7839TIP3    H223461   7.814   6.228   2.889
 7840TIP3   OH223462   6.567   0.240   1.875
 7840TIP3    H123463   6.602   0.160   1.835
 7840TIP3    H223464   6.597   0.235   1.966
 7841TIP3   OH223465   3.611   3.485   3.849
 7841TIP3    H123466   3.548   3.471   3.777
 7841TIP3    H223467   3.652   3.569   3.829
 7842TIP3   OH223468   3.190   3.303   5.254
 7842TIP3    H123469   3.118   3.364   5.242
 7842TIP3    H223470   3.154   3.234   5.309
 7843TIP3   OH223471   0.790   1.803   5.763
 7843TIP3    H123472   0.697   1.794   5.742
 7843TIP3    H223473   0.835   1.762   5.689
 7844TIP3   OH223474   4.394   0.310   5.319
 7844TIP3    H123475   4.395   0.231   5.266
 7844TIP3    H223476   4.483   0.344   5.313
 7845TIP3   OH223477   6.678   0.238   0.473
 7845TIP3    H123478   6.592   0.239   0.430
 7845TIP3    H223479   6.704   0.146   0.471
 7846TIP3   OH223480   6.144   0.647   0.317
 7846TIP3    H123481   6.186   0.561   0.321
 7846TIP3    H223482   6.162   0.678   0.228
 7847TIP3   OH223483   4.024   5.581   1.352
 7847TIP3    H123484   3.933   5.594   1.323
 7847TIP3    H223485   4.020   5.587   1.447
 7848TIP3   OH223486   3.729   1.696   1.622
 7848TIP3    H123487   3.816   1.670   1.651
 7848TIP3    H223488   3.739   1.719   1.530
 7849TIP3   OH223489   7.575   1.077   3.294
 7849TIP3    H123490   7.535   1.099   3.210
 7849TIP3    H223491   7.532   1.135   3.357
 7850TIP3   OH223492   2.869   4.187   1.014
 7850TIP3    H123493   2.864   4.163   1.106
 7850TIP3    H223494   2.920   4.268   1.013
 7851TIP3   OH223495   3.128   0.816   5.992
 7851TIP3    H123496   3.078   0.751   6.042
 7851TIP3    H223497   3.082   0.822   5.908
 7852TIP3   OH223498   0.817   4.832   4.899
 7852TIP3    H123499   0.766   4.818   4.819
 7852TIP3    H223500   0.767   4.789   4.968
 7853TIP3   OH223501   3.241   0.124   5.168
 7853TIP3    H123502   3.184   0.089   5.236
 7853TIP3    H223503   3.185   0.130   5.090
 7854TIP3   OH223504   2.994   1.290   5.073
 7854TIP3    H123505   2.919   1.349   5.081
 7854TIP3    H223506   3.020   1.271   5.163
 7855TIP3   OH223507   0.392   4.931   3.011
 7855TIP3    H123508   0.476   4.885   3.004
 7855TIP3    H223509   0.333   4.866   3.049
 7856TIP3   OH223510   1.230   5.561   3.409
 7856TIP3    H123511   1.296   5.537   3.343
 7856TIP3    H223512   1.264   5.641   3.449
 7857TIP3   OH223513   6.354   4.362   3.099
 7857TIP3    H123514   6.382   4.413   3.175
 7857TIP3    H223515   6.260   4.379   3.093
 7858TIP3   OH223516   1.870   5.862   3.719
 7858TIP3    H123517   1.855   5.955   3.703
 7858TIP3    H223518   1.811   5.817   3.658
 7859TIP3   OH223519   5.452   6.572   2.199
 7859TIP3    H123520   5.441   6.549   2.291
 7859TIP3    H223521   5.475   6.489   2.156
 7860TIP3   OH223522   8.224   0.699   0.186
 7860TIP3    H123523   8.221   0.642   0.110
 7860TIP3    H223524   8.154   0.763   0.171
 7861TIP3   OH223525   3.399   4.614   4.487
 7861TIP3    H123526   3.382   4.699   4.527
 7861TIP3    H223527   3.439   4.635   4.402
 7862TIP3   OH223528   6.812   2.315   1.964
 7862TIP3    H123529   6.828   2.265   2.044
 7862TIP3    H223530   6.790   2.403   1.994
 7863TIP3   OH223531   7.412   6.938   4.345
 7863TIP3    H123532   7.504   6.931   4.369
 7863TIP3    H223533   7.396   6.861   4.290
 7864TIP3   OH223534   5.398   5.475   0.468
 7864TIP3    H123535   5.372   5.415   0.399
 7864TIP3    H223536   5.316   5.501   0.510
 7865TIP3   OH223537   7.237   6.353   1.361
 7865TIP3    H123538   7.269   6.391   1.280
 7865TIP3    H223539   7.209   6.265   1.337
 7866TIP3   OH223540   0.953   2.783   6.420
 7866TIP3    H123541   0.964   2.695   6.385
 7866TIP3    H223542   0.916   2.834   6.348
 7867TIP3   OH223543   1.319   1.558   4.834
 7867TIP3    H123544   1.404   1.569   4.876
 7867TIP3    H223545   1.270   1.636   4.860
 7868TIP3   OH223546   2.475   3.781   4.466
 7868TIP3    H123547   2.388   3.820   4.470
 7868TIP3    H223548   2.500   3.789   4.373
 7869TIP3   OH223549   3.190   7.666   3.246
 7869TIP3    H123550   3.128   7.600   3.279
 7869TIP3    H223551   3.265   7.661   3.306
 7870TIP3   OH223552   1.302   5.374   3.626
 7870TIP3    H123553   1.336   5.399   3.540
 7870TIP3    H223554   1.212   5.406   3.626
 7871TIP3   OH223555   7.342   5.976   6.117
 7871TIP3    H123556   7.422   6.014   6.081
 7871TIP3    H223557   7.324   6.027   6.196
 7872TIP3   OH223558   2.068   2.216   3.998
 7872TIP3    H123559   2.099   2.261   3.919
 7872TIP3    H223560   2.138   2.230   4.062
 7873TIP3   OH223561   6.141   0.561   5.621
 7873TIP3    H123562   6.082   0.500   5.577
 7873TIP3    H223563   6.147   0.529   5.711
 7874TIP3   OH223564   4.133   2.331   6.689
 7874TIP3    H123565   4.106   2.290   6.607
 7874TIP3    H223566   4.060   2.389   6.712
 7875TIP3   OH223567   5.969   1.339   0.262
 7875TIP3    H123568   6.049   1.375   0.301
 7875TIP3    H223569   5.985   1.342   0.167
 7876TIP3   OH223570   1.666   3.103   5.217
 7876TIP3    H123571   1.614   3.068   5.146
 7876TIP3    H223572   1.673   3.197   5.198
 7877TIP3   OH223573   4.262   7.165   2.831
 7877TIP3    H123574   4.333   7.191   2.891
 7877TIP3    H223575   4.228   7.249   2.799
 7878TIP3   OH223576   7.231   3.755   5.066
 7878TIP3    H123577   7.276   3.777   5.148
 7878TIP3    H223578   7.142   3.787   5.078
 7879TIP3   OH223579   4.992   1.961   4.732
 7879TIP3    H123580   5.084   1.958   4.706
 7879TIP3    H223581   4.968   1.869   4.744
 7880TIP3   OH223582   3.755   6.319   1.787
 7880TIP3    H123583   3.751   6.363   1.702
 7880TIP3    H223584   3.781   6.387   1.848
 7881TIP3   OH223585   1.502   7.000   0.095
 7881TIP3    H123586   1.424   7.001   0.039
 7881TIP3    H223587   1.468   7.021   0.183
 7882TIP3   OH223588   3.362   7.162   5.738
 7882TIP3    H123589   3.348   7.251   5.771
 7882TIP3    H223590   3.315   7.106   5.800
 7883TIP3   OH223591   0.220   3.225   4.156
 7883TIP3    H123592   0.307   3.262   4.141
 7883TIP3    H223593   0.234   3.157   4.222
 7884TIP3   OH223594   5.884   5.383   6.327
 7884TIP3    H123595   5.893   5.442   6.402
 7884TIP3    H223596   5.804   5.411   6.283
 7885TIP3   OH223597   3.388   1.097   1.346
 7885TIP3    H123598   3.358   1.015   1.386
 7885TIP3    H223599   3.438   1.069   1.269
 7886TIP3   OH223600   6.058   0.022   5.400
 7886TIP3    H123601   6.047  -0.068   5.371
 7886TIP3    H223602   5.969   0.054   5.415
 7887TIP3   OH223603   5.590   4.480   1.561
 7887TIP3    H123604   5.589   4.507   1.653
 7887TIP3    H223605   5.681   4.459   1.542
 7888TIP3   OH223606   8.165   5.405   3.825
 7888TIP3    H123607   8.077   5.386   3.793
 7888TIP3    H223608   8.190   5.485   3.778
 7889TIP3   OH223609   6.518   1.514   2.917
 7889TIP3    H123610   6.449   1.506   2.852
 7889TIP3    H223611   6.590   1.461   2.883
 7890TIP3   OH223612   7.623   3.195   4.526
 7890TIP3    H123613   7.666   3.128   4.473
 7890TIP3    H223614   7.664   3.187   4.612
 7891TIP3   OH223615   7.936   1.813   0.328
 7891TIP3    H123616   7.890   1.852   0.254
 7891TIP3    H223617   7.886   1.842   0.405
 7892TIP3   OH223618   7.149   7.679   1.867
 7892TIP3    H123619   7.194   7.595   1.863
 7892TIP3    H223620   7.219   7.743   1.880
 7893TIP3   OH223621   3.679   7.207   4.189
 7893TIP3    H123622   3.633   7.127   4.213
 7893TIP3    H223623   3.769   7.192   4.216
 7894TIP3   OH223624   6.250   3.703   6.695
 7894TIP3    H123625   6.243   3.789   6.736
 7894TIP3    H223626   6.302   3.651   6.756
 7895TIP3   OH223627   1.689   5.840   1.875
 7895TIP3    H123628   1.610   5.844   1.930
 7895TIP3    H223629   1.687   5.752   1.837
 7896TIP3   OH223630   0.623   2.175   0.252
 7896TIP3    H123631   0.711   2.155   0.219
 7896TIP3    H223632   0.589   2.092   0.284
 7897TIP3   OH223633   1.160   0.207   0.387
 7897TIP3    H123634   1.156   0.181   0.294
 7897TIP3    H223635   1.069   0.224   0.411
 7898TIP3   OH223636   0.855   4.120   3.147
 7898TIP3    H123637   0.854   4.214   3.131
 7898TIP3    H223638   0.948   4.099   3.160
 7899TIP3   OH223639   7.949   0.123   5.491
 7899TIP3    H123640   7.974   0.185   5.559
 7899TIP3    H223641   7.955   0.173   5.409
 7900TIP3   OH223642   3.929   3.809   3.606
 7900TIP3    H123643   3.994   3.763   3.551
 7900TIP3    H223644   3.967   3.808   3.693
 7901TIP3   OH223645   3.165   0.771   5.525
 7901TIP3    H123646   3.251   0.807   5.508
 7901TIP3    H223647   3.123   0.767   5.439
 7902TIP3   OH223648   0.272   1.866   0.858
 7902TIP3    H123649   0.311   1.805   0.795
 7902TIP3    H223650   0.260   1.947   0.809
 7903TIP3   OH223651   6.459   1.788   1.672
 7903TIP3    H123652   6.480   1.879   1.697
 7903TIP3    H223653   6.404   1.756   1.743
 7904TIP3   OH223654   3.757   4.595   1.577
 7904TIP3    H123655   3.732   4.529   1.512
 7904TIP3    H223656   3.674   4.635   1.603
 7905TIP3   OH223657   1.449   0.159   0.691
 7905TIP3    H123658   1.538   0.168   0.725
 7905TIP3    H223659   1.401   0.232   0.730
 7906TIP3   OH223660   2.739   2.442   3.393
 7906TIP3    H123661   2.670   2.397   3.345
 7906TIP3    H223662   2.771   2.508   3.331
 7907TIP3   OH223663   5.446   5.164   0.919
 7907TIP3    H123664   5.388   5.189   0.991
 7907TIP3    H223665   5.533   5.195   0.947
 7908TIP3   OH223666   1.432   6.778   4.685
 7908TIP3    H123667   1.361   6.840   4.699
 7908TIP3    H223668   1.458   6.751   4.773
 7909TIP3   OH223669   4.383   5.493   3.197
 7909TIP3    H123670   4.395   5.430   3.126
 7909TIP3    H223671   4.391   5.441   3.277
 7910TIP3   OH223672   7.432   2.910   6.533
 7910TIP3    H123673   7.490   2.870   6.468
 7910TIP3    H223674   7.377   2.970   6.482
 7911TIP3   OH223675   4.099   2.582   0.246
 7911TIP3    H123676   4.130   2.497   0.213
 7911TIP3    H223677   4.178   2.635   0.253
 7912TIP3   OH223678   4.263   1.931   1.414
 7912TIP3    H123679   4.284   1.898   1.501
 7912TIP3    H223680   4.347   1.960   1.378
 7913TIP3   OH223681   2.909   1.480   3.800
 7913TIP3    H123682   2.953   1.565   3.797
 7913TIP3    H223683   2.970   1.423   3.847
 7914TIP3   OH223684   2.378   0.926   5.069
 7914TIP3    H123685   2.341   0.912   5.156
 7914TIP3    H223686   2.447   0.860   5.061
 7915TIP3   OH223687   5.425   0.856   1.253
 7915TIP3    H123688   5.401   0.883   1.164
 7915TIP3    H223689   5.504   0.803   1.241
 7916TIP3   OH223690   6.340   4.272   1.455
 7916TIP3    H123691   6.433   4.296   1.453
 7916TIP3    H223692   6.327   4.221   1.375
 7917TIP3   OH223693   1.347   4.941   4.236
 7917TIP3    H123694   1.286   4.884   4.190
 7917TIP3    H223695   1.318   5.030   4.215
 7918TIP3   OH223696   4.453   1.171   0.781
 7918TIP3    H123697   4.466   1.106   0.850
 7918TIP3    H223698   4.367   1.150   0.744
 7919TIP3   OH223699   7.500   5.808   0.930
 7919TIP3    H123700   7.556   5.846   0.998
 7919TIP3    H223701   7.494   5.715   0.953
 7920TIP3   OH223702   6.222   4.158   3.953
 7920TIP3    H123703   6.170   4.202   4.019
 7920TIP3    H223704   6.159   4.133   3.886
 7921TIP3   OH223705   0.725   6.866   0.571
 7921TIP3    H123706   0.745   6.776   0.594
 7921TIP3    H223707   0.804   6.898   0.528
 7922TIP3   OH223708   1.688   3.456   5.630
 7922TIP3    H123709   1.691   3.538   5.680
 7922TIP3    H223710   1.749   3.398   5.674
 7923TIP3   OH223711   1.571   0.339   1.264
 7923TIP3    H123712   1.503   0.404   1.248
 7923TIP3    H223713   1.579   0.336   1.360
 7924TIP3   OH223714   5.677   1.633   1.224
 7924TIP3    H123715   5.763   1.671   1.204
 7924TIP3    H223716   5.696   1.544   1.252
 7925TIP3   OH223717   7.552   1.678   4.869
 7925TIP3    H123718   7.631   1.629   4.845
 7925TIP3    H223719   7.559   1.689   4.964
 7926TIP3   OH223720   6.000   4.830   1.169
 7926TIP3    H123721   6.049   4.769   1.224
 7926TIP3    H223722   6.026   4.917   1.200
 7927TIP3   OH223723   3.454   7.083   4.444
 7927TIP3    H123724   3.416   7.020   4.384
 7927TIP3    H223725   3.534   7.041   4.475
 7928TIP3   OH223726   3.769   3.400   6.063
 7928TIP3    H123727   3.751   3.493   6.070
 7928TIP3    H223728   3.829   3.381   6.135
 7929TIP3   OH223729   6.073   2.484   2.231
 7929TIP3    H123730   6.125   2.552   2.273
 7929TIP3    H223731   6.101   2.486   2.139
 7930TIP3   OH223732   6.112   1.883   0.999
 7930TIP3    H123733   6.038   1.904   0.942
 7930TIP3    H223734   6.168   1.826   0.945
 7931TIP3   OH223735   3.053   7.333   5.736
 7931TIP3    H123736   2.964   7.368   5.727
 7931TIP3    H223737   3.043   7.238   5.732
 7932TIP3   OH223738   0.365   4.182   4.719
 7932TIP3    H123739   0.326   4.241   4.654
 7932TIP3    H223740   0.458   4.182   4.700
 7933TIP3   OH223741   3.346   5.589   3.165
 7933TIP3    H123742   3.300   5.642   3.100
 7933TIP3    H223743   3.328   5.499   3.140
 7934TIP3   OH223744   4.781   0.426   1.141
 7934TIP3    H123745   4.755   0.373   1.217
 7934TIP3    H223746   4.699   0.448   1.098
 7935TIP3   OH223747   6.181   6.760   3.964
 7935TIP3    H123748   6.098   6.797   3.995
 7935TIP3    H223749   6.222   6.724   4.043
 7936TIP3   OH223750   2.500   7.310   5.968
 7936TIP3    H123751   2.489   7.388   6.022
 7936TIP3    H223752   2.471   7.337   5.881
 7937TIP3   OH223753   7.397   7.341   2.446
 7937TIP3    H123754   7.470   7.283   2.470
 7937TIP3    H223755   7.436   7.429   2.447
 7938TIP3   OH223756   1.831   0.252   3.096
 7938TIP3    H123757   1.899   0.190   3.069
 7938TIP3    H223758   1.840   0.324   3.033
 7939TIP3   OH223759   2.811   4.078   5.009
 7939TIP3    H123760   2.768   4.142   4.953
 7939TIP3    H223761   2.797   4.110   5.098
 7940TIP3   OH223762   1.392   1.946   1.646
 7940TIP3    H123763   1.367   1.868   1.696
 7940TIP3    H223764   1.464   1.918   1.590
 7941TIP3   OH223765   1.122   5.951   2.579
 7941TIP3    H123766   1.153   5.976   2.666
 7941TIP3    H223767   1.088   6.033   2.542
 7942TIP3   OH223768   5.805   2.094   4.157
 7942TIP3    H123769   5.725   2.058   4.194
 7942TIP3    H223770   5.818   2.046   4.075
 7943TIP3   OH223771   3.205   6.043   0.702
 7943TIP3    H123772   3.277   6.022   0.643
 7943TIP3    H223773   3.150   6.104   0.653
 7944TIP3   OH223774   6.448   3.311   0.432
 7944TIP3    H123775   6.526   3.265   0.462
 7944TIP3    H223776   6.375   3.255   0.459
 7945TIP3   OH223777   3.550   6.180   2.588
 7945TIP3    H123778   3.612   6.189   2.660
 7945TIP3    H223779   3.601   6.146   2.516
 7946TIP3   OH223780   7.743   5.249   1.869
 7946TIP3    H123781   7.780   5.222   1.785
 7946TIP3    H223782   7.803   5.213   1.934
 7947TIP3   OH223783   7.219   6.241   6.010
 7947TIP3    H123784   7.162   6.260   6.084
 7947TIP3    H223785   7.298   6.294   6.026
 7948TIP3   OH223786   1.806   1.396   4.226
 7948TIP3    H123787   1.892   1.435   4.239
 7948TIP3    H223788   1.797   1.387   4.131
 7949TIP3   OH223789   6.088   0.188   4.868
 7949TIP3    H123790   5.995   0.208   4.871
 7949TIP3    H223791   6.130   0.273   4.857
 7950TIP3   OH223792   0.077   2.389   3.565
 7950TIP3    H123793   0.153   2.378   3.622
 7950TIP3    H223794   0.034   2.303   3.566
 7951TIP3   OH223795   0.717   3.753   2.855
 7951TIP3    H123796   0.710   3.841   2.891
 7951TIP3    H223797   0.804   3.750   2.816
 7952TIP3   OH223798   6.878   2.109   4.208
 7952TIP3    H123799   6.800   2.053   4.204
 7952TIP3    H223800   6.948   2.051   4.240
 7953TIP3   OH223801   3.514   6.737   3.855
 7953TIP3    H123802   3.568   6.679   3.801
 7953TIP3    H223803   3.428   6.695   3.857
 7954TIP3   OH223804   4.857   1.231   1.197
 7954TIP3    H123805   4.863   1.292   1.271
 7954TIP3    H223806   4.917   1.160   1.220
 7955TIP3   OH223807   7.712   2.754   4.613
 7955TIP3    H123808   7.643   2.703   4.570
 7955TIP3    H223809   7.791   2.735   4.562
 7956TIP3   OH223810   3.179   4.537   0.460
 7956TIP3    H123811   3.174   4.613   0.401
 7956TIP3    H223812   3.129   4.563   0.537
 7957TIP3   OH223813   4.072   2.078   4.612
 7957TIP3    H123814   4.012   2.016   4.573
 7957TIP3    H223815   4.155   2.065   4.566
 7958TIP3   OH223816   0.822   7.320   4.608
 7958TIP3    H123817   0.778   7.405   4.614
 7958TIP3    H223818   0.765   7.267   4.553
 7959TIP3   OH223819   6.225   1.487   3.762
 7959TIP3    H123820   6.260   1.568   3.724
 7959TIP3    H223821   6.292   1.421   3.747
 7960TIP3   OH223822   7.296   7.453   1.972
 7960TIP3    H123823   7.293   7.374   2.026
 7960TIP3    H223824   7.351   7.514   2.022
 7961TIP3   OH223825   5.832   3.951   3.278
 7961TIP3    H123826   5.886   3.959   3.199
 7961TIP3    H223827   5.744   3.980   3.250
 7962TIP3   OH223828   0.183   6.549   2.978
 7962TIP3    H123829   0.267   6.521   3.012
 7962TIP3    H223830   0.142   6.596   3.051
 7963TIP3   OH223831   5.190   6.636   4.607
 7963TIP3    H123832   5.192   6.555   4.556
 7963TIP3    H223833   5.131   6.616   4.680
 7964TIP3   OH223834   7.523   6.924   5.390
 7964TIP3    H123835   7.587   6.856   5.410
 7964TIP3    H223836   7.575   7.005   5.389
 7965TIP3   OH223837   7.755  -0.023   1.542
 7965TIP3    H123838   7.835   0.009   1.499
 7965TIP3    H223839   7.714   0.056   1.577
 7966TIP3   OH223840   1.577   3.959   2.301
 7966TIP3    H123841   1.514   4.027   2.324
 7966TIP3    H223842   1.623   3.993   2.224
 7967TIP3   OH223843   5.440   3.817   6.332
 7967TIP3    H123844   5.353   3.778   6.341
 7967TIP3    H223845   5.461   3.809   6.239
 7968TIP3   OH223846   0.795   1.565   3.604
 7968TIP3    H123847   0.732   1.627   3.640
 7968TIP3    H223848   0.741   1.495   3.568
 7969TIP3   OH223849   7.245  -0.026   3.832
 7969TIP3    H123850   7.291  -0.052   3.753
 7969TIP3    H223851   7.191  -0.102   3.854
 7970TIP3   OH223852   1.828   7.225   6.383
 7970TIP3    H123853   1.912   7.269   6.392
 7970TIP3    H223854   1.786   7.237   6.469
 7971TIP3   OH223855   2.116   1.788   5.282
 7971TIP3    H123856   2.057   1.730   5.328
 7971TIP3    H223857   2.066   1.817   5.205
 7972TIP3   OH223858   7.111   2.002   5.615
 7972TIP3    H123859   7.083   1.910   5.610
 7972TIP3    H223860   7.085   2.029   5.703
 7973TIP3   OH223861   4.549   0.019   1.437
 7973TIP3    H123862   4.580  -0.071   1.435
 7973TIP3    H223863   4.522   0.033   1.528
 7974TIP3   OH223864   2.284   2.092   4.358
 7974TIP3    H123865   2.253   2.166   4.306
 7974TIP3    H223866   2.328   2.035   4.295
 7975TIP3   OH223867   5.242   2.801   6.062
 7975TIP3    H123868   5.320   2.796   6.007
 7975TIP3    H223869   5.172   2.763   6.008
 7976TIP3   OH223870   2.680   1.607   0.825
 7976TIP3    H123871   2.610   1.546   0.851
 7976TIP3    H223872   2.750   1.591   0.889
 7977TIP3   OH223873   6.305   5.567   5.355
 7977TIP3    H123874   6.395   5.566   5.322
 7977TIP3    H223875   6.292   5.656   5.387
 7978TIP3   OH223876   3.203   2.383   6.559
 7978TIP3    H123877   3.208   2.465   6.510
 7978TIP3    H223878   3.117   2.348   6.539
 7979TIP3   OH223879   2.176   1.892   5.807
 7979TIP3    H123880   2.151   1.913   5.717
 7979TIP3    H223881   2.166   1.975   5.854
 7980TIP3   OH223882   6.780   4.122   0.247
 7980TIP3    H123883   6.694   4.142   0.211
 7980TIP3    H223884   6.841   4.138   0.176
 7981TIP3   OH223885   8.056   6.093   0.558
 7981TIP3    H123886   8.079   6.115   0.467
 7981TIP3    H223887   7.981   6.035   0.550
 7982TIP3   OH223888   4.854   7.282   2.310
 7982TIP3    H123889   4.922   7.283   2.378
 7982TIP3    H223890   4.772   7.286   2.358
 7983TIP3   OH223891   6.720   7.268   2.881
 7983TIP3    H123892   6.625   7.259   2.876
 7983TIP3    H223893   6.743   7.321   2.805
 7984TIP3   OH223894   2.473   3.712   3.049
 7984TIP3    H123895   2.544   3.719   2.985
 7984TIP3    H223896   2.457   3.803   3.077
 7985TIP3   OH223897   0.304   0.391   1.425
 7985TIP3    H123898   0.241   0.416   1.493
 7985TIP3    H223899   0.306   0.296   1.428
 7986TIP3   OH223900   3.034   5.742   2.401
 7986TIP3    H123901   2.942   5.731   2.426
 7986TIP3    H223902   3.053   5.667   2.345
 7987TIP3   OH223903   5.759   4.573   2.973
 7987TIP3    H123904   5.749   4.492   3.023
 7987TIP3    H223905   5.670   4.597   2.948
 7988TIP3   OH223906   5.828   4.426   3.214
 7988TIP3    H123907   5.832   4.483   3.291
 7988TIP3    H223908   5.849   4.339   3.248
 7989TIP3   OH223909   6.506   0.386   5.498
 7989TIP3    H123910   6.531   0.457   5.439
 7989TIP3    H223911   6.434   0.342   5.452
 7990TIP3   OH223912   0.742   2.739   2.981
 7990TIP3    H123913   0.715   2.747   2.889
 7990TIP3    H223914   0.792   2.658   2.984
 7991TIP3   OH223915   7.125   2.109   2.144
 7991TIP3    H123916   7.151   2.051   2.073
 7991TIP3    H223917   7.148   2.062   2.224
 7992TIP3   OH223918   5.055   4.724   3.307
 7992TIP3    H123919   5.050   4.816   3.333
 7992TIP3    H223920   5.143   4.715   3.271
 7993TIP3   OH223921   0.629   7.753   2.647
 7993TIP3    H123922   0.606   7.688   2.713
 7993TIP3    H223923   0.604   7.713   2.564
 7994TIP3   OH223924   3.978   0.939   3.814
 7994TIP3    H123925   3.952   0.847   3.824
 7994TIP3    H223926   4.072   0.936   3.796
 7995TIP3   OH223927   7.363   1.550   2.506
 7995TIP3    H123928   7.386   1.463   2.472
 7995TIP3    H223929   7.274   1.540   2.539
 7996TIP3   OH223930   3.331   1.306   2.167
 7996TIP3    H123931   3.379   1.351   2.236
 7996TIP3    H223932   3.270   1.371   2.134
 7997TIP3   OH223933   5.389   0.561   1.699
 7997TIP3    H123934   5.406   0.473   1.666
 7997TIP3    H223935   5.340   0.604   1.628
 7998TIP3   OH223936   7.119   1.284   3.087
 7998TIP3    H123937   7.175   1.343   3.037
 7998TIP3    H223938   7.159   1.283   3.174
 7999TIP3   OH223939   2.244   4.261   0.507
 7999TIP3    H123940   2.301   4.216   0.444
 7999TIP3    H223941   2.200   4.190   0.553
 8000TIP3   OH223942   7.353   0.221   3.734
 8000TIP3    H123943   7.310   0.150   3.781
 8000TIP3    H223944   7.285   0.258   3.678
 8001TIP3   OH223945   7.763   0.583   3.138
 8001TIP3    H123946   7.729   0.617   3.055
 8001TIP3    H223947   7.697   0.607   3.203
 8002TIP3   OH223948   4.328   6.506   6.758
 8002TIP3    H123949   4.371   6.548   6.833
 8002TIP3    H223950   4.398   6.457   6.715
 8003TIP3   OH223951   3.397   6.006   6.680
 8003TIP3    H123952   3.320   5.980   6.630
 8003TIP3    H223953   3.402   5.944   6.752
 8004TIP3   OH223954   5.142   4.246   2.745
 8004TIP3    H123955   5.230   4.211   2.735
 8004TIP3    H223956   5.084   4.177   2.711
 8005TIP3   OH223957   5.508   5.252   4.174
 8005TIP3    H123958   5.515   5.254   4.079
 8005TIP3    H223959   5.458   5.173   4.193
 8006TIP3   OH223960   6.036   7.308   1.829
 8006TIP3    H123961   6.069   7.374   1.767
 8006TIP3    H223962   5.945   7.333   1.844
 8007TIP3   OH223963   7.580   0.741   4.829
 8007TIP3    H123964   7.567   0.680   4.902
 8007TIP3    H223965   7.544   0.696   4.753
 8008TIP3   OH223966   6.666   6.593   5.832
 8008TIP3    H123967   6.605   6.594   5.905
 8008TIP3    H223968   6.713   6.510   5.841
 8009TIP3   OH223969   3.107   1.676   6.110
 8009TIP3    H123970   3.112   1.581   6.103
 8009TIP3    H223971   3.151   1.696   6.193
 8010TIP3   OH223972   8.097   0.580   4.207
 8010TIP3    H123973   8.095   0.489   4.236
 8010TIP3    H223974   8.073   0.576   4.114
 8011TIP3   OH223975   4.699   4.578   1.946
 8011TIP3    H123976   4.753   4.550   1.873
 8011TIP3    H223977   4.609   4.567   1.915
 8012TIP3   OH223978   3.545   0.280   1.806
 8012TIP3    H123979   3.624   0.238   1.770
 8012TIP3    H223980   3.494   0.304   1.729
 8013TIP3   OH223981   1.917   1.171   5.550
 8013TIP3    H123982   1.918   1.246   5.610
 8013TIP3    H223983   1.892   1.209   5.466
 8014TIP3   OH223984   1.372   1.082   6.247
 8014TIP3    H123985   1.322   1.143   6.193
 8014TIP3    H223986   1.397   1.011   6.188
 8015TIP3   OH223987   5.387   1.681   3.579
 8015TIP3    H123988   5.435   1.756   3.615
 8015TIP3    H223989   5.453   1.612   3.572
 8016TIP3   OH223990   5.087   7.304   2.476
 8016TIP3    H123991   5.049   7.301   2.564
 8016TIP3    H223992   5.076   7.395   2.448
 8017TIP3   OH223993   5.475   6.859   0.618
 8017TIP3    H123994   5.502   6.916   0.546
 8017TIP3    H223995   5.381   6.876   0.628
 8018TIP3   OH223996   5.823   1.022   6.006
 8018TIP3    H123997   5.765   0.961   5.960
 8018TIP3    H223998   5.893   1.040   5.943
 8019TIP3   OH223999   2.727   7.433   5.220
 8019TIP3    H124000   2.794   7.408   5.156
 8019TIP3    H224001   2.674   7.499   5.176
 8020TIP3   OH224002   7.121   6.299   2.732
 8020TIP3    H124003   7.055   6.301   2.663
 8020TIP3    H224004   7.072   6.277   2.812
 8021TIP3   OH224005   2.056   6.102   1.791
 8021TIP3    H124006   2.048   6.037   1.721
 8021TIP3    H224007   2.018   6.058   1.867
 8022TIP3   OH224008   0.205   1.417   1.302
 8022TIP3    H124009   0.170   1.499   1.336
 8022TIP3    H224010   0.241   1.373   1.379
 8023TIP3   OH224011   2.082   6.891   2.772
 8023TIP3    H124012   2.129   6.949   2.712
 8023TIP3    H224013   2.115   6.804   2.753
 8024TIP3   OH224014   0.209   4.451   5.719
 8024TIP3    H124015   0.176   4.537   5.694
 8024TIP3    H224016   0.260   4.421   5.644
 8025TIP3   OH224017   3.960   3.982   6.364
 8025TIP3    H124018   3.913   3.987   6.447
 8025TIP3    H224019   4.052   3.973   6.389
 8026TIP3   OH224020   2.445   1.059   2.389
 8026TIP3    H124021   2.530   1.033   2.425
 8026TIP3    H224022   2.463   1.138   2.339
 8027TIP3   OH224023   1.940   4.105   5.083
 8027TIP3    H124024   1.862   4.134   5.130
 8027TIP3    H224025   2.013   4.146   5.129
 8028TIP3   OH224026   4.034   3.388   4.915
 8028TIP3    H124027   4.043   3.339   4.997
 8028TIP3    H224028   3.961   3.448   4.931
 8029TIP3   OH224029   2.996   3.488   5.205
 8029TIP3    H124030   2.918   3.452   5.249
 8029TIP3    H224031   2.973   3.491   5.113
 8030TIP3   OH224032   6.319   7.680   3.844
 8030TIP3    H124033   6.272   7.602   3.813
 8030TIP3    H224034   6.299   7.684   3.938
 8031TIP3   OH224035   2.829   3.177   3.232
 8031TIP3    H124036   2.876   3.175   3.315
 8031TIP3    H224037   2.836   3.088   3.198
 8032TIP3   OH224038   0.637   7.091   4.042
 8032TIP3    H124039   0.580   7.138   3.981
 8032TIP3    H224040   0.687   7.031   3.986
 8033TIP3   OH224041   2.939   3.705   6.453
 8033TIP3    H124042   2.980   3.700   6.367
 8033TIP3    H224043   2.857   3.655   6.443
 8034TIP3   OH224044   5.367   1.430   4.666
 8034TIP3    H124045   5.340   1.522   4.669
 8034TIP3    H224046   5.455   1.429   4.704
 8035TIP3   OH224047   6.446   0.902   0.681
 8035TIP3    H124048   6.376   0.837   0.688
 8035TIP3    H224049   6.476   0.915   0.772
 8036TIP3   OH224050   5.670   7.706   6.549
 8036TIP3    H124051   5.644   7.668   6.465
 8036TIP3    H224052   5.701   7.631   6.600
 8037TIP3   OH224053   5.318   4.176   1.125
 8037TIP3    H124054   5.341   4.256   1.172
 8037TIP3    H224055   5.261   4.204   1.054
 8038TIP3   OH224056   3.236   6.549   4.315
 8038TIP3    H124057   3.240   6.488   4.388
 8038TIP3    H224058   3.183   6.622   4.347
 8039TIP3   OH224059   4.187   6.750   1.627
 8039TIP3    H124060   4.264   6.702   1.597
 8039TIP3    H224061   4.201   6.760   1.721
 8040TIP3   OH224062   4.395   3.790   3.195
 8040TIP3    H124063   4.347   3.797   3.113
 8040TIP3    H224064   4.347   3.845   3.256
 8041TIP3   OH224065   6.550   6.906   2.582
 8041TIP3    H124066   6.560   6.896   2.677
 8041TIP3    H224067   6.519   6.996   2.571
 8042TIP3   OH224068   6.411   2.964   2.806
 8042TIP3    H124069   6.414   2.869   2.796
 8042TIP3    H224070   6.479   2.984   2.870
 8043TIP3   OH224071   2.705   5.210   4.822
 8043TIP3    H124072   2.628   5.224   4.767
 8043TIP3    H224073   2.692   5.123   4.861
 8044TIP3   OH224074   1.438   6.426   2.744
 8044TIP3    H124075   1.445   6.453   2.836
 8044TIP3    H224076   1.490   6.490   2.696
 8045TIP3   OH224077   2.576   4.034   3.613
 8045TIP3    H124078   2.540   4.041   3.702
 8045TIP3    H224079   2.644   3.967   3.620
 8046TIP3   OH224080   2.313   3.246   6.309
 8046TIP3    H124081   2.397   3.284   6.282
 8046TIP3    H224082   2.316   3.156   6.274
 8047TIP3   OH224083   5.720   5.801   5.921
 8047TIP3    H124084   5.813   5.788   5.900
 8047TIP3    H224085   5.681   5.714   5.908
 8048TIP3   OH224086   7.454   2.862   3.636
 8048TIP3    H124087   7.499   2.852   3.552
 8048TIP3    H224088   7.362   2.867   3.613
 8049TIP3   OH224089   3.568   2.962   6.712
 8049TIP3    H124090   3.583   2.911   6.792
 8049TIP3    H224091   3.473   2.977   6.711
 8050TIP3   OH224092   7.678   5.059   5.902
 8050TIP3    H124093   7.711   4.969   5.898
 8050TIP3    H224094   7.741   5.106   5.956
 8051TIP3   OH224095   3.908   1.936   5.092
 8051TIP3    H124096   3.882   2.008   5.035
 8051TIP3    H224097   3.833   1.924   5.150
 8052TIP3   OH224098   3.231   4.277   5.707
 8052TIP3    H124099   3.238   4.300   5.800
 8052TIP3    H224100   3.145   4.308   5.680
 8053TIP3   OH224101   5.388   5.452   6.312
 8053TIP3    H124102   5.363   5.522   6.371
 8053TIP3    H224103   5.335   5.467   6.233
 8054TIP3   OH224104   4.062   7.306   6.718
 8054TIP3    H124105   4.015   7.277   6.796
 8054TIP3    H224106   4.013   7.269   6.645
 8055TIP3   OH224107   1.165   7.438   4.806
 8055TIP3    H124108   1.236   7.443   4.869
 8055TIP3    H224109   1.100   7.382   4.848
 8056TIP3   OH224110   3.537   7.137   4.800
 8056TIP3    H124111   3.553   7.232   4.797
 8056TIP3    H224112   3.624   7.098   4.808
 8057TIP3   OH224113   0.704   3.272   4.540
 8057TIP3    H124114   0.624   3.226   4.564
 8057TIP3    H224115   0.743   3.297   4.624
 8058TIP3   OH224116   4.928   0.716   5.350
 8058TIP3    H124117   4.986   0.671   5.411
 8058TIP3    H224118   4.896   0.792   5.399
 8059TIP3   OH224119   4.213   3.975   3.321
 8059TIP3    H124120   4.280   4.040   3.343
 8059TIP3    H224121   4.136   4.028   3.299
 8060TIP3   OH224122   7.842   3.156   1.520
 8060TIP3    H124123   7.896   3.138   1.596
 8060TIP3    H224124   7.853   3.079   1.464
 8061TIP3   OH224125   6.494   0.747   5.742
 8061TIP3    H124126   6.554   0.816   5.769
 8061TIP3    H224127   6.549   0.669   5.732
 8062TIP3   OH224128   5.609   5.066   6.357
 8062TIP3    H124129   5.702   5.088   6.362
 8062TIP3    H224130   5.575   5.085   6.444
 8063TIP3   OH224131   1.968   0.403   3.290
 8063TIP3    H124132   1.910   0.380   3.217
 8063TIP3    H224133   1.963   0.327   3.348
 8064TIP3   OH224134   7.251   4.979   5.151
 8064TIP3    H124135   7.188   4.909   5.167
 8064TIP3    H224136   7.304   4.983   5.230
 8065TIP3   OH224137   6.038   3.103   4.501
 8065TIP3    H124138   6.122   3.057   4.497
 8065TIP3    H224139   6.046   3.174   4.438
 8066TIP3   OH224140   4.310   5.247   5.140
 8066TIP3    H124141   4.258   5.272   5.216
 8066TIP3    H224142   4.331   5.330   5.097
 8067TIP3   OH224143   6.352   1.663   1.093
 8067TIP3    H124144   6.382   1.739   1.143
 8067TIP3    H224145   6.406   1.591   1.123
 8068TIP3   OH224146   7.882   4.892   6.173
 8068TIP3    H124147   7.944   4.944   6.224
 8068TIP3    H224148   7.800   4.941   6.179
 8069TIP3   OH224149   6.996   7.186   5.936
 8069TIP3    H124150   6.969   7.098   5.962
 8069TIP3    H224151   6.914   7.233   5.921
 8070TIP3   OH224152   1.041   2.026   5.828
 8070TIP3    H124153   1.061   2.028   5.922
 8070TIP3    H224154   1.014   2.116   5.808
 8071TIP3   OH224155   3.680   6.754   2.996
 8071TIP3    H124156   3.677   6.659   3.003
 8071TIP3    H224157   3.749   6.771   2.931
 8072TIP3   OH224158   6.263   4.050   2.782
 8072TIP3    H124159   6.178   4.088   2.762
 8072TIP3    H224160   6.248   3.955   2.777
 8073TIP3   OH224161   6.930   7.310   3.597
 8073TIP3    H124162   6.865   7.292   3.528
 8073TIP3    H224163   6.992   7.238   3.591
 8074TIP3   OH224164   0.934   6.460   2.509
 8074TIP3    H124165   0.964   6.544   2.474
 8074TIP3    H224166   0.966   6.458   2.599
 8075TIP3   OH224167   6.910   3.454   0.479
 8075TIP3    H124168   6.987   3.460   0.536
 8075TIP3    H224169   6.923   3.374   0.429
 8076TIP3   OH224170   3.693   3.084   3.994
 8076TIP3    H124171   3.623   3.145   4.016
 8076TIP3    H224172   3.651   2.998   3.997
 8077TIP3   OH224173   3.015   5.777   5.258
 8077TIP3    H124174   3.090   5.828   5.287
 8077TIP3    H224175   2.949   5.842   5.233
 8078TIP3   OH224176   6.194   7.473   6.439
 8078TIP3    H124177   6.182   7.554   6.390
 8078TIP3    H224178   6.287   7.473   6.464
 8079TIP3   OH224179   2.623   0.237   1.587
 8079TIP3    H124180   2.662   0.318   1.619
 8079TIP3    H224181   2.557   0.214   1.653
 8080TIP3   OH224182   2.524   7.293   1.638
 8080TIP3    H124183   2.582   7.253   1.574
 8080TIP3    H224184   2.436   7.284   1.600
 8081TIP3   OH224185   7.356   4.432   6.433
 8081TIP3    H124186   7.321   4.355   6.476
 8081TIP3    H224187   7.438   4.403   6.392
 8082TIP3   OH224188   7.335   4.916   3.636
 8082TIP3    H124189   7.284   4.922   3.555
 8082TIP3    H224190   7.308   4.993   3.687
 8083TIP3   OH224191   0.395   3.723   6.315
 8083TIP3    H124192   0.476   3.703   6.362
 8083TIP3    H224193   0.403   3.674   6.233
 8084TIP3   OH224194   4.413   0.237   0.756
 8084TIP3    H124195   4.413   0.232   0.851
 8084TIP3    H224196   4.375   0.154   0.727
 8085TIP3   OH224197   3.367   0.302   5.848
 8085TIP3    H124198   3.358   0.208   5.831
 8085TIP3    H224199   3.277   0.334   5.849
 8086TIP3   OH224200   3.031   4.575   6.489
 8086TIP3    H124201   3.058   4.638   6.555
 8086TIP3    H224202   3.079   4.600   6.410
 8087TIP3   OH224203   2.591   4.673   5.506
 8087TIP3    H124204   2.624   4.589   5.537
 8087TIP3    H224205   2.513   4.691   5.559
 8088TIP3   OH224206   2.861   5.941   1.194
 8088TIP3    H124207   2.827   5.890   1.268
 8088TIP3    H224208   2.802   5.921   1.122
 8089TIP3   OH224209   3.399   3.541   5.913
 8089TIP3    H124210   3.458   3.540   5.837
 8089TIP3    H224211   3.394   3.633   5.937
 8090TIP3   OH224212   3.336   6.882   4.746
 8090TIP3    H124213   3.248   6.918   4.731
 8090TIP3    H224214   3.389   6.921   4.676
 8091TIP3   OH224215   1.536   4.679   6.671
 8091TIP3    H124216   1.444   4.655   6.673
 8091TIP3    H224217   1.573   4.636   6.749
 8092TIP3   OH224218   3.115   3.838   1.706
 8092TIP3    H124219   3.109   3.885   1.790
 8092TIP3    H224220   3.190   3.877   1.662
 8093TIP3   OH224221   0.204   4.260   5.245
 8093TIP3    H124222   0.225   4.336   5.190
 8093TIP3    H224223   0.175   4.193   5.183
 8094TIP3   OH224224   6.399   3.337   6.286
 8094TIP3    H124225   6.472   3.306   6.341
 8094TIP3    H224226   6.372   3.419   6.327
 8095TIP3   OH224227   6.827   3.509   4.971
 8095TIP3    H124228   6.878   3.540   5.046
 8095TIP3    H224229   6.742   3.551   4.981
 8096TIP3   OH224230   1.764   7.684   0.335
 8096TIP3    H124231   1.827   7.751   0.360
 8096TIP3    H224232   1.770   7.679   0.240
 8097TIP3   OH224233   2.515   2.895   4.670
 8097TIP3    H124234   2.497   2.830   4.737
 8097TIP3    H224235   2.578   2.853   4.612
 8098TIP3   OH224236   1.874   0.415   5.157
 8098TIP3    H124237   1.852   0.499   5.196
 8098TIP3    H224238   1.805   0.400   5.092
 8099TIP3   OH224239   5.657   5.032   5.197
 8099TIP3    H124240   5.742   4.996   5.173
 8099TIP3    H224241   5.640   4.998   5.285
 8100TIP3   OH224242   2.775   2.270   4.809
 8100TIP3    H124243   2.868   2.254   4.826
 8100TIP3    H224244   2.731   2.241   4.889
 8101TIP3   OH224245   6.414   1.395   0.397
 8101TIP3    H124246   6.406   1.436   0.311
 8101TIP3    H224247   6.375   1.308   0.386
 8102TIP3   OH224248   3.206   1.629   2.828
 8102TIP3    H124249   3.138   1.604   2.765
 8102TIP3    H224250   3.158   1.643   2.910
 8103TIP3   OH224251   5.561   5.451   1.954
 8103TIP3    H124252   5.526   5.363   1.956
 8103TIP3    H224253   5.598   5.461   1.866
 8104TIP3   OH224254   6.036   4.693   6.215
 8104TIP3    H124255   6.102   4.634   6.179
 8104TIP3    H224256   6.085   4.769   6.245
 8105TIP3   OH224257   3.794   6.374   2.688
 8105TIP3    H124258   3.820   6.356   2.598
 8105TIP3    H224259   3.724   6.439   2.681
 8106TIP3   OH224260   6.878   7.016   3.972
 8106TIP3    H124261   6.889   6.937   4.025
 8106TIP3    H224262   6.810   7.066   4.018
 8107TIP3   OH224263   5.164   6.829   1.015
 8107TIP3    H124264   5.070   6.842   1.028
 8107TIP3    H224265   5.171   6.793   0.927
 8108TIP3   OH224266   4.770   4.747   0.977
 8108TIP3    H124267   4.717   4.821   1.005
 8108TIP3    H224268   4.741   4.729   0.887
 8109TIP3   OH224269   3.454   3.212   3.967
 8109TIP3    H124270   3.377   3.249   4.011
 8109TIP3    H224271   3.477   3.277   3.901
 8110TIP3   OH224272   0.752   7.380   2.940
 8110TIP3    H124273   0.787   7.469   2.943
 8110TIP3    H224274   0.794   7.336   3.014
 8111TIP3   OH224275   6.564   3.504   1.377
 8111TIP3    H124276   6.622   3.491   1.302
 8111TIP3    H224277   6.583   3.431   1.435
 8112TIP3   OH224278   7.840   3.254   4.723
 8112TIP3    H124279   7.763   3.309   4.737
 8112TIP3    H224280   7.823   3.175   4.774
 8113TIP3   OH224281   8.031   1.245   2.835
 8113TIP3    H124282   8.077   1.228   2.753
 8113TIP3    H224283   8.032   1.161   2.881
 8114TIP3   OH224284   6.618   6.083   4.288
 8114TIP3    H124285   6.534   6.123   4.312
 8114TIP3    H224286   6.672   6.092   4.367
 8115TIP3   OH224287   0.643   3.317   2.671
 8115TIP3    H124288   0.652   3.284   2.581
 8115TIP3    H224289   0.685   3.403   2.669
 8116TIP3   OH224290   6.223   7.126   5.611
 8116TIP3    H124291   6.192   7.069   5.681
 8116TIP3    H224292   6.307   7.159   5.642
 8117TIP3   OH224293   6.799   6.304   0.226
 8117TIP3    H124294   6.755   6.249   0.291
 8117TIP3    H224295   6.728   6.346   0.178
 8118TIP3   OH224296   3.450   7.448   3.541
 8118TIP3    H124297   3.390   7.404   3.481
 8118TIP3    H224298   3.446   7.396   3.621
 8119TIP3   OH224299   2.823   1.745   5.811
 8119TIP3    H124300   2.752   1.798   5.775
 8119TIP3    H224301   2.811   1.749   5.905
 8120TIP3   OH224302   2.131   5.673   6.682
 8120TIP3    H124303   2.222   5.659   6.656
 8120TIP3    H224304   2.081   5.663   6.601
 8121TIP3   OH224305   7.316   0.406   5.985
 8121TIP3    H124306   7.272   0.456   5.916
 8121TIP3    H224307   7.250   0.399   6.055
 8122TIP3   OH224308   3.314   1.932   1.229
 8122TIP3    H124309   3.256   1.975   1.167
 8122TIP3    H224310   3.308   1.985   1.309
 8123TIP3   OH224311   0.873   6.245   5.979
 8123TIP3    H124312   0.848   6.211   5.893
 8123TIP3    H224313   0.968   6.230   5.984
 8124TIP3   OH224314   4.993   6.680   4.166
 8124TIP3    H124315   4.913   6.689   4.115
 8124TIP3    H224316   5.000   6.761   4.216
 8125TIP3   OH224317   5.676   4.420   6.192
 8125TIP3    H124318   5.721   4.398   6.110
 8125TIP3    H224319   5.682   4.515   6.199
 8126TIP3   OH224320   7.369   3.898   1.929
 8126TIP3    H124321   7.390   3.858   1.845
 8126TIP3    H224322   7.334   3.984   1.906
 8127TIP3   OH224323   3.327   1.235   0.961
 8127TIP3    H124324   3.321   1.282   0.878
 8127TIP3    H224325   3.290   1.149   0.942
 8128TIP3   OH224326   0.148   1.729   6.485
 8128TIP3    H124327   0.106   1.814   6.494
 8128TIP3    H224328   0.238   1.743   6.514
 8129TIP3   OH224329   3.400   0.168   4.686
 8129TIP3    H124330   3.451   0.200   4.612
 8129TIP3    H224331   3.398   0.241   4.748
 8130TIP3   OH224332   2.503   3.226   0.454
 8130TIP3    H124333   2.461   3.297   0.502
 8130TIP3    H224334   2.448   3.149   0.472
 8131TIP3   OH224335   0.288   3.354   6.742
 8131TIP3    H124336   0.228   3.318   6.677
 8131TIP3    H224337   0.327   3.276   6.783
 8132TIP3   OH224338   3.792   3.129   0.261
 8132TIP3    H124339   3.800   3.055   0.320
 8132TIP3    H224340   3.850   3.108   0.188
 8133TIP3   OH224341   2.589   5.624   4.790
 8133TIP3    H124342   2.635   5.585   4.863
 8133TIP3    H224343   2.634   5.707   4.774
 8134TIP3   OH224344   4.972   5.920   1.973
 8134TIP3    H124345   4.991   5.915   1.879
 8134TIP3    H224346   5.054   5.894   2.015
 8135TIP3   OH224347   0.480   0.772   2.810
 8135TIP3    H124348   0.556   0.726   2.775
 8135TIP3    H224349   0.422   0.702   2.841
 8136TIP3   OH224350   5.133   7.775   5.949
 8136TIP3    H124351   5.055   7.828   5.932
 8136TIP3    H224352   5.151   7.732   5.865
 8137TIP3   OH224353   7.613   2.262   3.661
 8137TIP3    H124354   7.536   2.206   3.666
 8137TIP3    H224355   7.580   2.345   3.627
 8138TIP3   OH224356   1.837   3.642   4.364
 8138TIP3    H124357   1.785   3.706   4.414
 8138TIP3    H224358   1.909   3.694   4.326
 8139TIP3   OH224359   5.070   6.684   6.608
 8139TIP3    H124360   5.116   6.672   6.691
 8139TIP3    H224361   5.026   6.769   6.616
 8140TIP3   OH224362   0.041   4.899   3.761
 8140TIP3    H124363  -0.020   4.972   3.772
 8140TIP3    H224364   0.099   4.927   3.691
 8141TIP3   OH224365   0.378   4.282   0.252
 8141TIP3    H124366   0.473   4.288   0.241
 8141TIP3    H224367   0.345   4.366   0.222
 8142TIP3   OH224368   3.472   1.448   3.472
 8142TIP3    H124369   3.401   1.390   3.443
 8142TIP3    H224370   3.445   1.476   3.560
 8143TIP3   OH224371   3.907   2.341   2.175
 8143TIP3    H124372   3.831   2.398   2.167
 8143TIP3    H224373   3.967   2.388   2.233
 8144TIP3   OH224374   5.779   7.184   4.722
 8144TIP3    H124375   5.837   7.236   4.666
 8144TIP3    H224376   5.709   7.154   4.663
 8145TIP3   OH224377   5.886   2.927   3.228
 8145TIP3    H124378   5.977   2.924   3.198
 8145TIP3    H224379   5.868   3.020   3.242
 8146TIP3   OH224380   4.338   7.264   6.638
 8146TIP3    H124381   4.242   7.261   6.638
 8146TIP3    H224382   4.360   7.332   6.575
 8147TIP3   OH224383   5.129   3.604   3.247
 8147TIP3    H124384   5.181   3.685   3.248
 8147TIP3    H224385   5.043   3.631   3.279
 8148TIP3   OH224386   1.275   7.681   3.006
 8148TIP3    H124387   1.197   7.703   2.955
 8148TIP3    H224388   1.333   7.757   2.996
 8149TIP3   OH224389   0.985   5.230   2.731
 8149TIP3    H124390   0.994   5.215   2.825
 8149TIP3    H224391   0.933   5.310   2.724
 8150TIP3   OH224392   5.692   2.557   6.579
 8150TIP3    H124393   5.624   2.492   6.560
 8150TIP3    H224394   5.649   2.641   6.565
 8151TIP3   OH224395   6.247   1.854   2.630
 8151TIP3    H124396   6.300   1.835   2.707
 8151TIP3    H224397   6.157   1.859   2.663
 8152TIP3   OH224398   4.855   6.562   6.392
 8152TIP3    H124399   4.926   6.500   6.404
 8152TIP3    H224400   4.875   6.607   6.310
 8153TIP3   OH224401   0.060   6.961   2.684
 8153TIP3    H124402  -0.004   6.965   2.756
 8153TIP3    H224403   0.143   6.941   2.727
 8154TIP3   OH224404   5.652   3.202   1.768
 8154TIP3    H124405   5.605   3.120   1.759
 8154TIP3    H224406   5.604   3.263   1.712
 8155TIP3   OH224407   7.220   2.453   5.616
 8155TIP3    H124408   7.304   2.410   5.636
 8155TIP3    H224409   7.202   2.507   5.693
 8156TIP3   OH224410   3.053   5.807   3.637
 8156TIP3    H124411   3.066   5.845   3.550
 8156TIP3    H224412   2.984   5.742   3.625
 8157TIP3   OH224413   3.767   3.991   6.094
 8157TIP3    H124414   3.812   4.059   6.144
 8157TIP3    H224415   3.709   3.949   6.157
 8158TIP3   OH224416   2.575   1.280   2.223
 8158TIP3    H124417   2.612   1.260   2.137
 8158TIP3    H224418   2.650   1.280   2.283
 8159TIP3   OH224419   2.257   7.345   4.243
 8159TIP3    H124420   2.168   7.335   4.209
 8159TIP3    H224421   2.262   7.437   4.270
 8160TIP3   OH224422   2.886   7.302   1.233
 8160TIP3    H124423   2.950   7.231   1.237
 8160TIP3    H224424   2.855   7.311   1.323
 8161TIP3   OH224425   5.890   4.983   1.721
 8161TIP3    H124426   5.807   5.015   1.686
 8161TIP3    H224427   5.956   5.013   1.659
 8162TIP3   OH224428   6.172   0.690   2.592
 8162TIP3    H124429   6.124   0.607   2.589
 8162TIP3    H224430   6.257   0.669   2.554
 8163TIP3   OH224431   7.195   0.013   4.288
 8163TIP3    H124432   7.126   0.078   4.274
 8163TIP3    H224433   7.275   0.064   4.297
 8164TIP3   OH224434   8.298   5.388   0.248
 8164TIP3    H124435   8.261   5.377   0.160
 8164TIP3    H224436   8.223   5.381   0.307
 8165TIP3   OH224437   6.304   7.624   2.200
 8165TIP3    H124438   6.356   7.704   2.188
 8165TIP3    H224439   6.217   7.647   2.168
 8166TIP3   OH224440   1.173   6.704   0.381
 8166TIP3    H124441   1.106   6.753   0.333
 8166TIP3    H224442   1.250   6.708   0.325
 8167TIP3   OH224443   5.028   7.255   6.345
 8167TIP3    H124444   5.063   7.291   6.427
 8167TIP3    H224445   4.988   7.330   6.301
 8168TIP3   OH224446   4.925   1.680   4.330
 8168TIP3    H124447   4.902   1.611   4.269
 8168TIP3    H224448   4.980   1.637   4.395
 8169TIP3   OH224449   2.326   2.240   0.798
 8169TIP3    H124450   2.343   2.268   0.888
 8169TIP3    H224451   2.248   2.184   0.805
 8170TIP3   OH224452   4.552   6.517   2.874
 8170TIP3    H124453   4.515   6.594   2.917
 8170TIP3    H224454   4.644   6.516   2.901
 8171TIP3   OH224455   0.599   2.857   1.271
 8171TIP3    H124456   0.542   2.793   1.313
 8171TIP3    H224457   0.677   2.859   1.326
 8172TIP3   OH224458   7.329   5.427   6.700
 8172TIP3    H124459   7.283   5.395   6.622
 8172TIP3    H224460   7.260   5.452   6.760
 8173TIP3   OH224461   6.772   1.858   1.928
 8173TIP3    H124462   6.731   1.777   1.900
 8173TIP3    H224463   6.706   1.903   1.980
 8174TIP3   OH224464   1.588   4.942   6.588
 8174TIP3    H124465   1.578   4.857   6.630
 8174TIP3    H224466   1.535   4.937   6.509
 8175TIP3   OH224467   6.650   5.685   5.856
 8175TIP3    H124468   6.736   5.710   5.892
 8175TIP3    H224469   6.624   5.761   5.804
 8176TIP3   OH224470   6.171   2.962   6.245
 8176TIP3    H124471   6.140   2.955   6.155
 8176TIP3    H224472   6.091   2.962   6.298
 8177TIP3   OH224473   0.079   7.826   3.911
 8177TIP3    H124474   0.171   7.804   3.926
 8177TIP3    H224475   0.076   7.858   3.821
 8178TIP3   OH224476   3.280   7.079   2.349
 8178TIP3    H124477   3.287   7.060   2.443
 8178TIP3    H224478   3.298   7.173   2.342
 8179TIP3   OH224479   5.616   4.782   6.282
 8179TIP3    H124480   5.691   4.755   6.229
 8179TIP3    H224481   5.604   4.874   6.260
 8180TIP3   OH224482   6.578   2.792   6.431
 8180TIP3    H124483   6.642   2.840   6.378
 8180TIP3    H224484   6.510   2.766   6.369
 8181TIP3   OH224485   5.040   2.650   2.261
 8181TIP3    H124486   5.079   2.587   2.322
 8181TIP3    H224487   5.052   2.611   2.175
 8182TIP3   OH224488   2.099   0.264   1.061
 8182TIP3    H124489   2.080   0.294   0.972
 8182TIP3    H224490   2.013   0.239   1.096
 8183TIP3   OH224491   1.195   1.718   0.520
 8183TIP3    H124492   1.220   1.799   0.562
 8183TIP3    H224493   1.121   1.742   0.463
 8184TIP3   OH224494   5.861   7.288   0.204
 8184TIP3    H124495   5.931   7.348   0.229
 8184TIP3    H224496   5.791   7.346   0.174
 8185TIP3   OH224497   3.501   1.476   5.356
 8185TIP3    H124498   3.463   1.415   5.419
 8185TIP3    H224499   3.561   1.530   5.407
 8186TIP3   OH224500   3.921   6.529   1.429
 8186TIP3    H124501   3.881   6.579   1.500
 8186TIP3    H224502   3.996   6.582   1.401
 8187TIP3   OH224503   5.715   1.545   0.818
 8187TIP3    H124504   5.623   1.519   0.816
 8187TIP3    H224505   5.745   1.520   0.905
 8188TIP3   OH224506   2.910   6.622   4.180
 8188TIP3    H124507   2.949   6.651   4.098
 8188TIP3    H224508   2.966   6.658   4.249
 8189TIP3   OH224509   3.836   0.772   5.631
 8189TIP3    H124510   3.856   0.694   5.579
 8189TIP3    H224511   3.915   0.786   5.684
 8190TIP3   OH224512   6.399   0.475   1.228
 8190TIP3    H124513   6.440   0.467   1.314
 8190TIP3    H224514   6.443   0.550   1.188
 8191TIP3   OH224515   0.072   6.830   6.739
 8191TIP3    H124516   0.032   6.750   6.772
 8191TIP3    H224517   0.150   6.801   6.692
 8192TIP3   OH224518   6.138   1.648   5.167
 8192TIP3    H124519   6.168   1.718   5.109
 8192TIP3    H224520   6.213   1.631   5.225
 8193TIP3   OH224521   7.412   3.891   4.793
 8193TIP3    H124522   7.355   3.934   4.857
 8193TIP3    H224523   7.354   3.828   4.749
 8194TIP3   OH224524   8.054   4.882   5.328
 8194TIP3    H124525   8.088   4.899   5.241
 8194TIP3    H224526   7.987   4.814   5.315
 8195TIP3   OH224527   3.147   3.607   0.755
 8195TIP3    H124528   3.200   3.618   0.834
 8195TIP3    H224529   3.069   3.561   0.784
 8196TIP3   OH224530   3.221   4.045   4.303
 8196TIP3    H124531   3.155   4.113   4.289
 8196TIP3    H224532   3.184   3.967   4.261
 8197TIP3   OH224533   1.408   0.377   6.526
 8197TIP3    H124534   1.379   0.398   6.437
 8197TIP3    H224535   1.501   0.355   6.516
 8198TIP3   OH224536   0.943   5.236   1.526
 8198TIP3    H124537   0.901   5.318   1.551
 8198TIP3    H224538   0.878   5.191   1.471
 8199TIP3   OH224539   2.284   4.672   4.259
 8199TIP3    H124540   2.333   4.713   4.331
 8199TIP3    H224541   2.352   4.636   4.202
 8200TIP3   OH224542   0.983   7.443   2.677
 8200TIP3    H124543   0.958   7.526   2.636
 8200TIP3    H224544   0.911   7.383   2.657
 8201TIP3   OH224545   1.650   6.084   2.132
 8201TIP3    H124546   1.634   6.018   2.200
 8201TIP3    H224547   1.594   6.157   2.155
 8202TIP3   OH224548   2.481   7.516   4.867
 8202TIP3    H124549   2.489   7.421   4.881
 8202TIP3    H224550   2.513   7.554   4.949
 8203TIP3   OH224551   1.037   5.309   5.820
 8203TIP3    H124552   0.969   5.250   5.853
 8203TIP3    H224553   1.070   5.353   5.898
 8204TIP3   OH224554   6.064   6.802   1.500
 8204TIP3    H124555   6.087   6.772   1.412
 8204TIP3    H224556   5.993   6.865   1.487
 8205TIP3   OH224557   4.156   3.468   2.099
 8205TIP3    H124558   4.101   3.417   2.040
 8205TIP3    H224559   4.245   3.454   2.068
 8206TIP3   OH224560   4.043   7.271   3.673
 8206TIP3    H124561   4.001   7.295   3.590
 8206TIP3    H224562   4.128   7.235   3.648
 8207TIP3   OH224563   0.758   3.295   4.865
 8207TIP3    H124564   0.698   3.351   4.914
 8207TIP3    H224565   0.745   3.208   4.902
 8208TIP3   OH224566   0.477   0.764   6.491
 8208TIP3    H124567   0.470   0.859   6.497
 8208TIP3    H224568   0.565   0.744   6.525
 8209TIP3   OH224569   7.433   2.710   0.130
 8209TIP3    H124570   7.376   2.783   0.156
 8209TIP3    H224571   7.409   2.693   0.038
 8210TIP3   OH224572   2.652   0.555   1.899
 8210TIP3    H124573   2.621   0.465   1.905
 8210TIP3    H224574   2.677   0.566   1.808
 8211TIP3   OH224575   2.142   7.283   5.410
 8211TIP3    H124576   2.197   7.239   5.474
 8211TIP3    H224577   2.178   7.372   5.404
 8212TIP3   OH224578   5.406   4.224   2.634
 8212TIP3    H124579   5.384   4.282   2.561
 8212TIP3    H224580   5.434   4.143   2.592
 8213TIP3   OH224581   6.089   7.329   0.542
 8213TIP3    H124582   6.166   7.354   0.594
 8213TIP3    H224583   6.100   7.373   0.458
 8214TIP3   OH224584   6.703   0.124   4.288
 8214TIP3    H124585   6.616   0.104   4.254
 8214TIP3    H224586   6.695   0.213   4.323
 8215TIP3   OH224587   7.901   5.636   4.296
 8215TIP3    H124588   7.995   5.649   4.304
 8215TIP3    H224589   7.892   5.555   4.247
 8216TIP3   OH224590   5.085   6.345   5.593
 8216TIP3    H124591   5.083   6.414   5.527
 8216TIP3    H224592   5.047   6.269   5.549
 8217TIP3   OH224593   3.731   0.383   3.706
 8217TIP3    H124594   3.769   0.300   3.681
 8217TIP3    H224595   3.740   0.386   3.802
 8218TIP3   OH224596   2.163   5.716   3.257
 8218TIP3    H124597   2.130   5.667   3.332
 8218TIP3    H224598   2.188   5.801   3.293
 8219TIP3   OH224599   6.660   2.463   0.950
 8219TIP3    H124600   6.572   2.467   0.911
 8219TIP3    H224601   6.719   2.459   0.875
 8220TIP3   OH224602   2.252   5.858   0.611
 8220TIP3    H124603   2.316   5.929   0.611
 8220TIP3    H224604   2.171   5.899   0.642
 8221TIP3   OH224605   6.835   3.890   6.211
 8221TIP3    H124606   6.879   3.811   6.181
 8221TIP3    H224607   6.773   3.911   6.141
 8222TIP3   OH224608   0.938   2.027   2.573
 8222TIP3    H124609   1.032   2.033   2.588
 8222TIP3    H224610   0.931   1.986   2.486
 8223TIP3   OH224611   1.576   0.861   5.014
 8223TIP3    H124612   1.561   0.931   4.951
 8223TIP3    H224613   1.507   0.797   4.995
 8224TIP3   OH224614   8.246   5.754   2.991
 8224TIP3    H124615   8.209   5.671   2.960
 8224TIP3    H224616   8.229   5.754   3.085
 8225TIP3   OH224617   1.723   0.458   4.057
 8225TIP3    H124618   1.796   0.441   3.998
 8225TIP3    H224619   1.649   0.476   3.999
 8226TIP3   OH224620   3.609   3.184   0.746
 8226TIP3    H124621   3.625   3.278   0.739
 8226TIP3    H224622   3.622   3.150   0.657
 8227TIP3   OH224623   0.153   1.586   1.758
 8227TIP3    H124624   0.060   1.605   1.761
 8227TIP3    H224625   0.195   1.669   1.782
 8228TIP3   OH224626   5.510   7.415   6.473
 8228TIP3    H124627   5.456   7.462   6.536
 8228TIP3    H224628   5.529   7.331   6.515
 8229TIP3   OH224629   7.822   7.408   5.663
 8229TIP3    H124630   7.750   7.455   5.705
 8229TIP3    H224631   7.850   7.344   5.728
 8230TIP3   OH224632   4.064   6.438   5.444
 8230TIP3    H124633   4.069   6.509   5.381
 8230TIP3    H224634   4.120   6.465   5.517
 8231TIP3   OH224635   7.674   7.769   4.670
 8231TIP3    H124636   7.725   7.696   4.705
 8231TIP3    H224637   7.689   7.840   4.732
 8232TIP3   OH224638   2.400   2.614   3.883
 8232TIP3    H124639   2.495   2.625   3.885
 8232TIP3    H224640   2.378   2.573   3.967
 8233TIP3   OH224641   0.645   0.632   0.381
 8233TIP3    H124642   0.652   0.657   0.473
 8233TIP3    H224643   0.557   0.596   0.372
 8234TIP3   OH224644   2.376   2.059   2.109
 8234TIP3    H124645   2.300   2.106   2.144
 8234TIP3    H224646   2.353   1.967   2.115
 8235TIP3   OH224647   0.271   2.678   5.487
 8235TIP3    H124648   0.182   2.646   5.502
 8235TIP3    H224649   0.260   2.759   5.437
 8236TIP3   OH224650   5.696   1.502   4.892
 8236TIP3    H124651   5.734   1.497   4.805
 8236TIP3    H224652   5.690   1.411   4.922
 8237TIP3   OH224653   0.538   1.727   6.106
 8237TIP3    H124654   0.478   1.675   6.053
 8237TIP3    H224655   0.503   1.719   6.195
 8238TIP3   OH224656   7.496   5.049   2.246
 8238TIP3    H124657   7.557   5.101   2.298
 8238TIP3    H224658   7.505   5.084   2.157
 8239TIP3   OH224659   5.499   4.152   1.639
 8239TIP3    H124660   5.463   4.064   1.642
 8239TIP3    H224661   5.511   4.170   1.545
 8240TIP3   OH224662   7.108   4.252   1.508
 8240TIP3    H124663   7.104   4.164   1.545
 8240TIP3    H224664   7.058   4.247   1.426
 8241TIP3   OH224665   4.873   6.419   6.675
 8241TIP3    H124666   4.938   6.355   6.648
 8241TIP3    H224667   4.839   6.455   6.593
 8242TIP3   OH224668   1.022   0.534   1.770
 8242TIP3    H124669   1.095   0.489   1.815
 8242TIP3    H224670   0.981   0.586   1.839
 8243TIP3   OH224671   4.993   5.246   1.647
 8243TIP3    H124672   5.043   5.319   1.609
 8243TIP3    H224673   4.937   5.216   1.576
 8244TIP3   OH224674   0.968   3.442   2.223
 8244TIP3    H124675   1.015   3.489   2.292
 8244TIP3    H224676   0.889   3.494   2.207
 8245TIP3   OH224677   0.070   6.489   2.184
 8245TIP3    H124678   0.107   6.540   2.255
 8245TIP3    H224679   0.140   6.429   2.157
 8246TIP3   OH224680   1.758   6.111   5.513
 8246TIP3    H124681   1.811   6.077   5.585
 8246TIP3    H224682   1.821   6.128   5.443
 8247TIP3   OH224683   1.406   4.545   1.658
 8247TIP3    H124684   1.476   4.559   1.722
 8247TIP3    H224685   1.346   4.484   1.703
 8248TIP3   OH224686   6.267   2.725   0.937
 8248TIP3    H124687   6.310   2.766   1.012
 8248TIP3    H224688   6.243   2.638   0.968
 8249TIP3   OH224689   7.887   7.758   5.282
 8249TIP3    H124690   7.907   7.848   5.308
 8249TIP3    H224691   7.886   7.709   5.364
 8250TIP3   OH224692   6.019   7.575   4.772
 8250TIP3    H124693   6.019   7.637   4.700
 8250TIP3    H224694   5.933   7.533   4.767
 8251TIP3   OH224695   3.403   1.131   4.438
 8251TIP3    H124696   3.484   1.158   4.482
 8251TIP3    H224697   3.410   1.168   4.350
 8252TIP3   OH224698   4.938   3.554   0.025
 8252TIP3    H124699   5.004   3.514   0.081
 8252TIP3    H224700   4.863   3.495   0.029
 8253TIP3   OH224701   7.563   1.632   1.302
 8253TIP3    H124702   7.516   1.714   1.319
 8253TIP3    H224703   7.500   1.563   1.320
 8254TIP3   OH224704   1.414   0.303   2.736
 8254TIP3    H124705   1.318   0.300   2.739
 8254TIP3    H224706   1.442   0.252   2.812
 8255TIP3   OH224707   1.737   5.396   6.146
 8255TIP3    H124708   1.825   5.411   6.110
 8255TIP3    H224709   1.682   5.384   6.069
 8256TIP3   OH224710   3.029   0.023   0.703
 8256TIP3    H124711   2.966   0.001   0.772
 8256TIP3    H224712   3.038  -0.058   0.652
 8257TIP3   OH224713   7.348   5.995   5.267
 8257TIP3    H124714   7.313   6.076   5.303
 8257TIP3    H224715   7.271   5.938   5.258
 8258TIP3   OH224716   3.196   3.028   5.354
 8258TIP3    H124717   3.271   2.985   5.394
 8258TIP3    H224718   3.204   3.007   5.261
 8259TIP3   OH224719   3.077   6.636   5.023
 8259TIP3    H124720   3.101   6.710   5.078
 8259TIP3    H224721   3.153   6.622   4.968
 8260TIP3   OH224722   1.741   3.237   1.960
 8260TIP3    H124723   1.833   3.253   1.979
 8260TIP3    H224724   1.694   3.266   2.038
 8261TIP3   OH224725   3.106   5.999   1.275
 8261TIP3    H124726   3.155   5.919   1.256
 8261TIP3    H224727   3.020   5.984   1.234
 8262TIP3   OH224728   7.437   5.428   0.245
 8262TIP3    H124729   7.464   5.368   0.176
 8262TIP3    H224730   7.506   5.494   0.248
 8263TIP3   OH224731   4.043   4.006   5.620
 8263TIP3    H124732   4.092   4.049   5.550
 8263TIP3    H224733   3.956   4.045   5.616
 8264TIP3   OH224734   7.642   0.044   4.853
 8264TIP3    H124735   7.655   0.097   4.775
 8264TIP3    H224736   7.550   0.018   4.850
 8265TIP3   OH224737   3.724   2.796   5.769
 8265TIP3    H124738   3.642   2.752   5.748
 8265TIP3    H224739   3.711   2.886   5.741
 8266TIP3   OH224740   3.179   2.108   6.589
 8266TIP3    H124741   3.220   2.186   6.552
 8266TIP3    H224742   3.124   2.141   6.660
 8267TIP3   OH224743   6.758   0.783  -0.024
 8267TIP3    H124744   6.689   0.717  -0.031
 8267TIP3    H224745   6.771   0.794   0.070
 8268TIP3   OH224746   5.792   0.566   2.676
 8268TIP3    H124747   5.785   0.500   2.745
 8268TIP3    H224748   5.787   0.515   2.595
 8269TIP3   OH224749   2.537   6.326   1.093
 8269TIP3    H124750   2.472   6.325   1.022
 8269TIP3    H224751   2.485   6.344   1.172
 8270TIP3   OH224752   4.267   5.385   4.679
 8270TIP3    H124753   4.210   5.447   4.634
 8270TIP3    H224754   4.342   5.437   4.709
 8271TIP3   OH224755   2.443   0.658   6.359
 8271TIP3    H124756   2.420   0.567   6.378
 8271TIP3    H224757   2.389   0.681   6.283
 8272TIP3   OH224758   3.276   0.264   5.555
 8272TIP3    H124759   3.319   0.290   5.637
 8272TIP3    H224760   3.343   0.215   5.508
 8273TIP3   OH224761   6.752   0.428   1.674
 8273TIP3    H124762   6.801   0.408   1.594
 8273TIP3    H224763   6.688   0.358   1.682
 8274TIP3   OH224764   6.821   6.681   4.690
 8274TIP3    H124765   6.761   6.676   4.764
 8274TIP3    H224766   6.777   6.737   4.626
 8275TIP3   OH224767   0.277   0.550   5.144
 8275TIP3    H124768   0.238   0.505   5.069
 8275TIP3    H224769   0.206   0.559   5.208
 8276TIP3   OH224770   3.040   2.099   5.774
 8276TIP3    H124771   3.023   2.067   5.685
 8276TIP3    H224772   3.100   2.035   5.812
 8277TIP3   OH224773   2.449   0.597   5.814
 8277TIP3    H124774   2.443   0.564   5.903
 8277TIP3    H224775   2.433   0.691   5.821
 8278TIP3   OH224776   6.970   4.766   3.041
 8278TIP3    H124777   6.885   4.805   3.019
 8278TIP3    H224778   6.999   4.813   3.118
 8279TIP3   OH224779   5.467   5.002   6.135
 8279TIP3    H124780   5.522   5.041   6.203
 8279TIP3    H224781   5.379   5.001   6.171
 8280TIP3   OH224782   4.045   6.623   3.356
 8280TIP3    H124783   4.057   6.702   3.408
 8280TIP3    H224784   3.987   6.568   3.408
 8281TIP3   OH224785   3.156   7.407   0.635
 8281TIP3    H124786   3.092   7.346   0.670
 8281TIP3    H224787   3.199   7.359   0.565
 8282TIP3   OH224788   5.079   4.542   4.804
 8282TIP3    H124789   5.161   4.500   4.829
 8282TIP3    H224790   5.059   4.602   4.875
 8283TIP3   OH224791   5.477   3.737   2.860
 8283TIP3    H124792   5.566   3.706   2.880
 8283TIP3    H224793   5.423   3.658   2.862
 8284TIP3   OH224794   5.301   0.178   2.373
 8284TIP3    H124795   5.263   0.102   2.328
 8284TIP3    H224796   5.239   0.249   2.355
 8285TIP3   OH224797   1.721   7.777   0.074
 8285TIP3    H124798   1.631   7.804   0.055
 8285TIP3    H224799   1.763   7.857   0.105
 8286TIP3   OH224800   0.310   1.548   0.149
 8286TIP3    H124801   0.234   1.603   0.133
 8286TIP3    H224802   0.334   1.514   0.063
 8287TIP3   OH224803   3.810   5.521   0.105
 8287TIP3    H124804   3.741   5.535   0.041
 8287TIP3    H224805   3.883   5.484   0.055
 8288TIP3   OH224806   6.082   3.859   2.874
 8288TIP3    H124807   6.050   3.801   2.805
 8288TIP3    H224808   6.146   3.807   2.923
 8289TIP3   OH224809   3.981   4.897   1.549
 8289TIP3    H124810   4.015   4.892   1.460
 8289TIP3    H224811   4.039   4.840   1.600
 8290TIP3   OH224812   0.032   6.090   6.112
 8290TIP3    H124813   0.039   6.134   6.197
 8290TIP3    H224814   0.105   6.028   6.111
 8291TIP3   OH224815   1.358   5.274   5.820
 8291TIP3    H124816   1.312   5.253   5.902
 8291TIP3    H224817   1.301   5.240   5.751
 8292TIP3   OH224818   3.583   6.067   6.500
 8292TIP3    H124819   3.505   6.044   6.551
 8292TIP3    H224820   3.549   6.126   6.432
 8293TIP3   OH224821   4.698   2.665   2.006
 8293TIP3    H124822   4.701   2.701   2.094
 8293TIP3    H224823   4.604   2.655   1.988
 8294TIP3   OH224824   2.615   3.761   2.587
 8294TIP3    H124825   2.624   3.669   2.564
 8294TIP3    H224826   2.704   3.797   2.578
 8295TIP3   OH224827   8.250   3.214   3.151
 8295TIP3    H124828   8.281   3.153   3.218
 8295TIP3    H224829   8.248   3.299   3.195
 8296TIP3   OH224830   7.991   0.878   0.720
 8296TIP3    H124831   8.015   0.799   0.769
 8296TIP3    H224832   8.038   0.869   0.637
 8297TIP3   OH224833   2.020   4.527   2.742
 8297TIP3    H124834   2.019   4.504   2.649
 8297TIP3    H224835   2.033   4.444   2.787
 8298TIP3   OH224836   3.063   3.155   5.898
 8298TIP3    H124837   3.131   3.221   5.911
 8298TIP3    H224838   3.070   3.132   5.805
 8299TIP3   OH224839   8.245   4.706   0.805
 8299TIP3    H124840   8.251   4.617   0.841
 8299TIP3    H224841   8.154   4.732   0.820
 8300TIP3   OH224842   2.996   7.687   4.001
 8300TIP3    H124843   3.048   7.764   3.983
 8300TIP3    H224844   2.957   7.664   3.917
 8301TIP3   OH224845   2.900   0.546   0.324
 8301TIP3    H124846   2.885   0.491   0.402
 8301TIP3    H224847   2.838   0.512   0.259
 8302TIP3   OH224848   4.700   4.995   1.086
 8302TIP3    H124849   4.713   5.085   1.057
 8302TIP3    H224850   4.609   4.992   1.115
 8303TIP3   OH224851   8.060   0.338   6.115
 8303TIP3    H124852   8.094   0.261   6.070
 8303TIP3    H224853   8.124   0.407   6.097
 8304TIP3   OH224854   4.188   1.341   6.600
 8304TIP3    H124855   4.126   1.276   6.634
 8304TIP3    H224856   4.156   1.361   6.512
 8305TIP3   OH224857   5.517   1.157   2.511
 8305TIP3    H124858   5.459   1.228   2.538
 8305TIP3    H224859   5.475   1.078   2.546
 8306TIP3   OH224860   5.873   0.773   6.249
 8306TIP3    H124861   5.905   0.685   6.225
 8306TIP3    H224862   5.872   0.821   6.166
 8307TIP3   OH224863   7.184   2.911   3.630
 8307TIP3    H124864   7.167   2.915   3.536
 8307TIP3    H224865   7.098   2.914   3.671
 8308TIP3   OH224866   1.382   4.163   5.164
 8308TIP3    H124867   1.307   4.160   5.105
 8308TIP3    H224868   1.459   4.162   5.107
 8309TIP3   OH224869   7.413   2.922   2.294
 8309TIP3    H124870   7.477   2.914   2.224
 8309TIP3    H224871   7.465   2.936   2.373
 8310TIP3   OH224872   2.617   2.671   1.346
 8310TIP3    H124873   2.529   2.666   1.384
 8310TIP3    H224874   2.603   2.661   1.252
 8311TIP3   OH224875   2.262   0.840   6.706
 8311TIP3    H124876   2.210   0.913   6.739
 8311TIP3    H224877   2.251   0.844   6.611
 8312TIP3   OH224878   5.340   2.548   2.260
 8312TIP3    H124879   5.415   2.606   2.245
 8312TIP3    H224880   5.362   2.468   2.212
 8313TIP3   OH224881   0.243   7.476   4.115
 8313TIP3    H124882   0.214   7.493   4.025
 8313TIP3    H224883   0.334   7.450   4.106
 8314TIP3   OH224884   5.654   2.076   4.803
 8314TIP3    H124885   5.666   2.167   4.778
 8314TIP3    H224886   5.570   2.075   4.850
 8315TIP3   OH224887   0.613   1.143   3.320
 8315TIP3    H124888   0.535   1.199   3.317
 8315TIP3    H224889   0.634   1.127   3.228
 8316TIP3   OH224890   7.764   5.766   0.149
 8316TIP3    H124891   7.819   5.689   0.165
 8316TIP3    H224892   7.689   5.731   0.100
 8317TIP3   OH224893   2.605   6.023   0.380
 8317TIP3    H124894   2.628   6.058   0.466
 8317TIP3    H224895   2.689   6.004   0.339
 8318TIP3   OH224896   8.109   7.764   6.566
 8318TIP3    H124897   8.039   7.720   6.613
 8318TIP3    H224898   8.103   7.732   6.476
 8319TIP3   OH224899   0.451   3.453   4.122
 8319TIP3    H124900   0.444   3.381   4.059
 8319TIP3    H224901   0.534   3.437   4.167
 8320TIP3   OH224902   3.385   1.418   2.442
 8320TIP3    H124903   3.292   1.398   2.432
 8320TIP3    H224904   3.407   1.385   2.530
 8321TIP3   OH224905   7.314   2.308   4.276
 8321TIP3    H124906   7.365   2.286   4.198
 8321TIP3    H224907   7.377   2.354   4.333
 8322TIP3   OH224908   7.736   5.616   2.837
 8322TIP3    H124909   7.747   5.710   2.849
 8322TIP3    H224910   7.802   5.592   2.772
 8323TIP3   OH224911   6.200   7.732   0.515
 8323TIP3    H124912   6.155   7.681   0.582
 8323TIP3    H224913   6.238   7.667   0.457
 8324TIP3   OH224914   3.968   4.542   2.030
 8324TIP3    H124915   3.939   4.550   1.939
 8324TIP3    H224916   3.935   4.457   2.059
 8325TIP3   OH224917   6.628   4.899   2.320
 8325TIP3    H124918   6.680   4.882   2.241
 8325TIP3    H224919   6.644   4.991   2.340
 8326TIP3   OH224920   4.300   1.256   5.525
 8326TIP3    H124921   4.334   1.227   5.609
 8326TIP3    H224922   4.249   1.183   5.492
 8327TIP3   OH224923   1.437   7.292   1.509
 8327TIP3    H124924   1.378   7.293   1.433
 8327TIP3    H224925   1.483   7.208   1.502
 8328TIP3   OH224926   2.963   6.428   5.992
 8328TIP3    H124927   3.058   6.420   6.000
 8328TIP3    H224928   2.946   6.521   6.000
 8329TIP3   OH224929   6.693   4.567   2.288
 8329TIP3    H124930   6.644   4.627   2.344
 8329TIP3    H224931   6.784   4.598   2.293
 8330TIP3   OH224932   3.579   6.312   5.057
 8330TIP3    H124933   3.666   6.279   5.036
 8330TIP3    H224934   3.593   6.402   5.084
 8331TIP3   OH224935   7.047   2.070   0.676
 8331TIP3    H124936   7.001   2.107   0.600
 8331TIP3    H224937   7.135   2.052   0.645
 8332TIP3   OH224938   6.613   7.415   1.443
 8332TIP3    H124939   6.685   7.479   1.441
 8332TIP3    H224940   6.603   7.393   1.535
 8333TIP3   OH224941   1.338   0.129   4.523
 8333TIP3    H124942   1.273   0.062   4.501
 8333TIP3    H224943   1.295   0.212   4.504
 8334TIP3   OH224944   0.673   7.278   6.553
 8334TIP3    H124945   0.629   7.314   6.477
 8334TIP3    H224946   0.603   7.264   6.617
 8335TIP3   OH224947   4.083   2.720   4.202
 8335TIP3    H124948   4.000   2.740   4.160
 8335TIP3    H224949   4.144   2.785   4.166
 8336TIP3   OH224950   6.395   2.185   1.149
 8336TIP3    H124951   6.433   2.173   1.236
 8336TIP3    H224952   6.447   2.128   1.092
 8337TIP3   OH224953   5.652   0.962   5.086
 8337TIP3    H124954   5.630   0.870   5.095
 8337TIP3    H224955   5.572   1.004   5.054
 8338TIP3   OH224956   7.132   3.970   1.541
 8338TIP3    H124957   7.186   3.970   1.461
 8338TIP3    H224958   7.047   3.936   1.512
 8339TIP3   OH224959   4.701   2.360   0.215
 8339TIP3    H124960   4.611   2.348   0.244
 8339TIP3    H224961   4.706   2.452   0.189
 8340TIP3   OH224962   6.310   3.187   6.076
 8340TIP3    H124963   6.283   3.113   6.130
 8340TIP3    H224964   6.360   3.243   6.135
 8341TIP3   OH224965   0.673   2.572   1.753
 8341TIP3    H124966   0.672   2.638   1.822
 8341TIP3    H224967   0.611   2.604   1.687
 8342TIP3   OH224968   2.410   6.166   3.328
 8342TIP3    H124969   2.431   6.154   3.235
 8342TIP3    H224970   2.494   6.182   3.370
 8343TIP3   OH224971   1.204   5.463   1.753
 8343TIP3    H124972   1.117   5.461   1.713
 8343TIP3    H224973   1.190   5.433   1.843
 8344TIP3   OH224974   3.871   4.805   2.091
 8344TIP3    H124975   3.945   4.866   2.094
 8344TIP3    H224976   3.911   4.721   2.066
 8345TIP3   OH224977   8.222   3.393   5.863
 8345TIP3    H124978   8.295   3.425   5.917
 8345TIP3    H224979   8.178   3.472   5.834
 8346TIP3   OH224980   1.639   4.331   3.420
 8346TIP3    H124981   1.561   4.349   3.472
 8346TIP3    H224982   1.614   4.353   3.330
 8347TIP3   OH224983   2.485   6.828   0.748
 8347TIP3    H124984   2.580   6.825   0.738
 8347TIP3    H224985   2.466   6.759   0.812
 8348TIP3   OH224986   5.318   4.373   4.796
 8348TIP3    H124987   5.359   4.383   4.882
 8348TIP3    H224988   5.318   4.279   4.781
 8349TIP3   OH224989   7.946   1.680   3.145
 8349TIP3    H124990   7.856   1.683   3.115
 8349TIP3    H224991   7.998   1.679   3.065
 8350TIP3   OH224992   0.090   5.065   2.420
 8350TIP3    H124993   0.049   5.148   2.394
 8350TIP3    H224994   0.163   5.092   2.477
 8351TIP3   OH224995   4.063   0.677   6.607
 8351TIP3    H124996   4.033   0.636   6.525
 8351TIP3    H224997   4.112   0.754   6.578
 8352TIP3   OH224998   5.245   1.302   4.880
 8352TIP3    H124999   5.156   1.338   4.875
 8352TIP3    H225000   5.290   1.340   4.804
 8353TIP3   OH225001   6.396   4.939   3.298
 8353TIP3    H125002   6.320   4.896   3.338
 8353TIP3    H225003   6.360   4.984   3.222
 8354TIP3   OH225004   8.001   3.785   1.582
 8354TIP3    H125005   8.051   3.717   1.539
 8354TIP3    H225006   8.007   3.860   1.523
 8355TIP3   OH225007   5.512   0.327   1.810
 8355TIP3    H125008   5.583   0.391   1.800
 8355TIP3    H225009   5.536   0.256   1.750
 8356TIP3   OH225010   0.759   3.565   3.029
 8356TIP3    H125011   0.674   3.559   3.071
 8356TIP3    H225012   0.748   3.632   2.961
 8357TIP3   OH225013   8.061   5.248   6.201
 8357TIP3    H125014   8.105   5.327   6.232
 8357TIP3    H225015   8.047   5.196   6.280
 8358TIP3   OH225016   8.178   5.001   3.000
 8358TIP3    H125017   8.154   4.922   3.048
 8358TIP3    H225018   8.125   5.070   3.040
 8359TIP3   OH225019   2.522   1.509   2.060
 8359TIP3    H125020   2.613   1.528   2.035
 8359TIP3    H225021   2.530   1.456   2.139
 8360TIP3   OH225022   0.144   6.015   5.771
 8360TIP3    H125023   0.215   6.075   5.749
 8360TIP3    H225024   0.155   5.998   5.864
 8361TIP3   OH225025   7.614   7.306   2.100
 8361TIP3    H125026   7.534   7.324   2.149
 8361TIP3    H225027   7.682   7.297   2.167
 8362TIP3   OH225028   4.409   3.274   5.200
 8362TIP3    H125029   4.328   3.234   5.232
 8362TIP3    H225030   4.422   3.234   5.114
 8363TIP3   OH225031   5.281   0.888   5.380
 8363TIP3    H125032   5.258   0.822   5.314
 8363TIP3    H225033   5.344   0.844   5.437
 8364TIP3   OH225034   7.644   0.973   5.123
 8364TIP3    H125035   7.719   0.937   5.171
 8364TIP3    H225036   7.572   0.969   5.186
 8365TIP3   OH225037   1.139   4.057   6.078
 8365TIP3    H125038   1.206   4.034   6.142
 8365TIP3    H225039   1.068   3.995   6.094
 8366TIP3   OH225040   1.250   4.971   6.666
 8366TIP3    H125041   1.191   5.010   6.731
 8366TIP3    H225042   1.237   4.877   6.676
 8367TIP3   OH225043   4.163   5.492   1.817
 8367TIP3    H125044   4.209   5.421   1.773
 8367TIP3    H225045   4.230   5.534   1.871
 8368TIP3   OH225046   0.904   6.446   3.888
 8368TIP3    H125047   0.877   6.355   3.887
 8368TIP3    H225048   0.905   6.470   3.981
 8369TIP3   OH225049   0.472   0.562   0.831
 8369TIP3    H125050   0.404   0.575   0.765
 8369TIP3    H225051   0.424   0.551   0.913
 8370TIP3   OH225052   7.508   0.185   5.228
 8370TIP3    H125053   7.527   0.216   5.317
 8370TIP3    H225054   7.593   0.165   5.191
 8371TIP3   OH225055   7.719   5.467   0.347
 8371TIP3    H125056   7.739   5.378   0.376
 8371TIP3    H225057   7.798   5.496   0.302
 8372TIP3   OH225058   2.770   7.444   4.635
 8372TIP3    H125059   2.824   7.511   4.592
 8372TIP3    H225060   2.735   7.392   4.563
 8373TIP3   OH225061   0.244   7.724   4.618
 8373TIP3    H125062   0.212   7.781   4.688
 8373TIP3    H225063   0.265   7.784   4.546
 8374TIP3   OH225064   3.759   6.197   1.424
 8374TIP3    H125065   3.786   6.157   1.341
 8374TIP3    H225066   3.795   6.286   1.420
 8375TIP3   OH225067   4.045   7.798   0.394
 8375TIP3    H125068   4.053   7.734   0.323
 8375TIP3    H225069   4.121   7.855   0.382
 8376TIP3   OH225070   4.996   6.609   2.362
 8376TIP3    H125071   4.995   6.573   2.273
 8376TIP3    H225072   5.088   6.628   2.379
 8377TIP3   OH225073   2.730   7.515   2.825
 8377TIP3    H125074   2.747   7.559   2.742
 8377TIP3    H225075   2.771   7.572   2.891
 8378TIP3   OH225076   3.531   0.996   2.403
 8378TIP3    H125077   3.527   1.026   2.313
 8378TIP3    H225078   3.454   0.940   2.413
 8379TIP3   OH225079   1.815   6.060   1.260
 8379TIP3    H125080   1.818   5.979   1.210
 8379TIP3    H225081   1.734   6.055   1.309
 8380TIP3   OH225082   7.356   1.423   2.978
 8380TIP3    H125083   7.426   1.405   3.041
 8380TIP3    H225084   7.381   1.372   2.900
 8381TIP3   OH225085   0.734   2.794   0.751
 8381TIP3    H125086   0.710   2.886   0.754
 8381TIP3    H225087   0.763   2.779   0.661
 8382TIP3   OH225088   4.606   7.773   4.828
 8382TIP3    H125089   4.524   7.778   4.878
 8382TIP3    H225090   4.635   7.682   4.839
 8383TIP3   OH225091   7.341   6.748   3.113
 8383TIP3    H125092   7.341   6.843   3.122
 8383TIP3    H225093   7.327   6.732   3.020
 8384TIP3   OH225094   1.748   3.168   3.487
 8384TIP3    H125095   1.842   3.186   3.486
 8384TIP3    H225096   1.738   3.088   3.435
 8385TIP3   OH225097   2.745   2.882   0.890
 8385TIP3    H125098   2.780   2.869   0.802
 8385TIP3    H225099   2.805   2.944   0.931
 8386TIP3   OH225100   5.063   6.247   4.214
 8386TIP3    H125101   4.972   6.245   4.243
 8386TIP3    H225102   5.081   6.157   4.186
 8387TIP3   OH225103   1.208   0.952   1.885
 8387TIP3    H125104   1.205   0.914   1.797
 8387TIP3    H225105   1.274   0.900   1.931
 8388TIP3   OH225106   1.646   2.721   4.506
 8388TIP3    H125107   1.630   2.669   4.427
 8388TIP3    H225108   1.729   2.689   4.541
 8389TIP3   OH225109   3.893   6.606   4.388
 8389TIP3    H125110   3.987   6.621   4.399
 8389TIP3    H225111   3.879   6.516   4.417
 8390TIP3   OH225112   3.140   4.003   3.346
 8390TIP3    H125113   3.183   4.037   3.424
 8390TIP3    H225114   3.046   4.013   3.364
 8391TIP3   OH225115   7.558   6.737   4.638
 8391TIP3    H125116   7.538   6.689   4.719
 8391TIP3    H225117   7.502   6.814   4.640
 8392TIP3   OH225118   2.943   2.271   6.478
 8392TIP3    H125119   2.896   2.280   6.395
 8392TIP3    H225120   2.902   2.195   6.520
 8393TIP3   OH225121   3.418   7.141   5.078
 8393TIP3    H125122   3.417   7.184   5.163
 8393TIP3    H225123   3.326   7.138   5.052
 8394TIP3   OH225124   2.075   2.369   1.057
 8394TIP3    H125125   2.017   2.445   1.066
 8394TIP3    H225126   2.142   2.381   1.124
 8395TIP3   OH225127   1.093   4.429   5.834
 8395TIP3    H125128   1.045   4.511   5.841
 8395TIP3    H225129   1.052   4.383   5.761
 8396TIP3   OH225130   6.924   2.131   3.678
 8396TIP3    H125131   6.893   2.043   3.656
 8396TIP3    H225132   6.916   2.180   3.596
 8397TIP3   OH225133   0.948   3.390   2.610
 8397TIP3    H125134   0.886   3.425   2.546
 8397TIP3    H225135   0.939   3.295   2.603
 8398TIP3   OH225136   3.244   0.896   3.732
 8398TIP3    H125137   3.336   0.911   3.754
 8398TIP3    H225138   3.239   0.802   3.711
 8399TIP3   OH225139   7.443   3.094   4.274
 8399TIP3    H125140   7.512   3.126   4.332
 8399TIP3    H225141   7.435   3.161   4.206
 8400TIP3   OH225142   1.872   3.648   2.502
 8400TIP3    H125143   1.788   3.676   2.540
 8400TIP3    H225144   1.925   3.621   2.577
 8401TIP3   OH225145   5.116   5.765   0.054
 8401TIP3    H125146   5.095   5.723  -0.029
 8401TIP3    H225147   5.190   5.715   0.088
 8402TIP3   OH225148   6.215   1.475   0.075
 8402TIP3    H125149   6.291   1.431   0.037
 8402TIP3    H225150   6.148   1.471   0.007
 8403TIP3   OH225151   1.828   3.124   0.405
 8403TIP3    H125152   1.843   3.033   0.430
 8403TIP3    H225153   1.905   3.149   0.355
 8404TIP3   OH225154   5.488   0.859   5.618
 8404TIP3    H125155   5.517   0.787   5.562
 8404TIP3    H225156   5.566   0.913   5.630
 8405TIP3   OH225157   5.817   3.775   5.344
 8405TIP3    H125158   5.896   3.813   5.307
 8405TIP3    H225159   5.755   3.772   5.271
 8406TIP3   OH225160   2.199   7.043   1.099
 8406TIP3    H125161   2.141   7.057   1.024
 8406TIP3    H225162   2.287   7.045   1.061
 8407TIP3   OH225163   5.641   3.951   1.367
 8407TIP3    H125164   5.624   4.043   1.388
 8407TIP3    H225165   5.610   3.941   1.277
 8408TIP3   OH225166   2.543   6.110   6.008
 8408TIP3    H125167   2.465   6.098   6.061
 8408TIP3    H225168   2.608   6.052   6.046
 8409TIP3   OH225169   0.329   6.744   0.113
 8409TIP3    H125170   0.338   6.688   0.036
 8409TIP3    H225171   0.416   6.746   0.153
 8410TIP3   OH225172   1.757   0.898   6.076
 8410TIP3    H125173   1.770   0.921   6.168
 8410TIP3    H225174   1.780   0.805   6.072
 8411TIP3   OH225175   5.984   0.889   5.673
 8411TIP3    H125176   6.049   0.826   5.644
 8411TIP3    H225177   5.964   0.941   5.595
 8412TIP3   OH225178   7.510   0.444   5.319
 8412TIP3    H125179   7.465   0.367   5.284
 8412TIP3    H225180   7.583   0.458   5.259
 8413TIP3   OH225181   0.228   2.959   1.342
 8413TIP3    H125182   0.256   2.902   1.414
 8413TIP3    H225183   0.262   2.916   1.263
 8414TIP3   OH225184   2.011   3.649   3.911
 8414TIP3    H125185   2.078   3.608   3.856
 8414TIP3    H225186   1.932   3.598   3.895
 8415TIP3   OH225187   5.666   1.693   0.569
 8415TIP3    H125188   5.667   1.781   0.606
 8415TIP3    H225189   5.699   1.636   0.639
 8416TIP3   OH225190   7.473   0.455   2.386
 8416TIP3    H125191   7.519   0.529   2.425
 8416TIP3    H225192   7.402   0.436   2.447
 8417TIP3   OH225193   7.472   4.115   3.132
 8417TIP3    H125194   7.380   4.117   3.157
 8417TIP3    H225195   7.503   4.029   3.163
 8418TIP3   OH225196   7.066   6.417   5.244
 8418TIP3    H125197   7.144   6.363   5.256
 8418TIP3    H225198   7.100   6.501   5.214
 8419TIP3   OH225199   4.445   7.231   3.783
 8419TIP3    H125200   4.405   7.222   3.697
 8419TIP3    H225201   4.485   7.318   3.783
 8420TIP3   OH225202   4.884   6.652   1.356
 8420TIP3    H125203   4.962   6.653   1.302
 8420TIP3    H225204   4.816   6.615   1.300
 8421TIP3   OH225205   7.662   0.174   3.776
 8421TIP3    H125206   7.567   0.177   3.760
 8421TIP3    H225207   7.672   0.111   3.848
 8422TIP3   OH225208   0.210   3.659   4.687
 8422TIP3    H125209   0.192   3.748   4.719
 8422TIP3    H225210   0.147   3.604   4.734
 8423TIP3   OH225211   5.433   1.675   1.697
 8423TIP3    H125212   5.429   1.673   1.602
 8423TIP3    H225213   5.526   1.688   1.717
 8424TIP3   OH225214   7.292   1.813   0.468
 8424TIP3    H125215   7.308   1.744   0.532
 8424TIP3    H225216   7.254   1.885   0.518
 8425TIP3   OH225217   5.966   0.799   4.533
 8425TIP3    H125218   5.894   0.840   4.486
 8425TIP3    H225219   5.923   0.742   4.597
 8426TIP3   OH225220   2.835   6.730   5.680
 8426TIP3    H125221   2.925   6.699   5.667
 8426TIP3    H225222   2.789   6.704   5.601
 8427TIP3   OH225223   3.904   5.719   3.204
 8427TIP3    H125224   3.856   5.680   3.277
 8427TIP3    H225225   3.973   5.655   3.185
 8428TIP3   OH225226   0.387   7.358   2.245
 8428TIP3    H125227   0.476   7.327   2.229
 8428TIP3    H225228   0.382   7.444   2.203
 8429TIP3   OH225229   0.487   3.550   6.741
 8429TIP3    H125230   0.439   3.468   6.731
 8429TIP3    H225231   0.552   3.549   6.671
 8430TIP3   OH225232   1.342   6.571   3.927
 8430TIP3    H125233   1.370   6.653   3.968
 8430TIP3    H225234   1.409   6.552   3.862
 8431TIP3   OH225235   7.931   2.700   4.393
 8431TIP3    H125236   8.001   2.666   4.449
 8431TIP3    H225237   7.977   2.742   4.321
 8432TIP3   OH225238   0.526   6.883   6.634
 8432TIP3    H125239   0.472   6.960   6.651
 8432TIP3    H225240   0.603   6.917   6.587
 8433TIP3   OH225241   6.943   6.354   3.886
 8433TIP3    H125242   6.991   6.434   3.906
 8433TIP3    H225243   6.924   6.315   3.971
 8434TIP3   OH225244   5.298   2.974   1.755
 8434TIP3    H125245   5.280   2.902   1.816
 8434TIP3    H225246   5.225   2.973   1.694
 8435TIP3   OH225247   4.193   1.030   4.250
 8435TIP3    H125248   4.138   1.106   4.268
 8435TIP3    H225249   4.193   0.981   4.333
 8436TIP3   OH225250   6.616   4.872   4.129
 8436TIP3    H125251   6.667   4.879   4.048
 8436TIP3    H225252   6.565   4.792   4.118
 8437TIP3   OH225253   4.107   7.542   3.130
 8437TIP3    H125254   4.072   7.456   3.153
 8437TIP3    H225255   4.196   7.542   3.164
 8438TIP3   OH225256   1.020   3.379   5.017
 8438TIP3    H125257   1.036   3.284   5.020
 8438TIP3    H225258   1.097   3.417   5.059
 8439TIP3   OH225259   6.004   1.588   0.967
 8439TIP3    H125260   6.088   1.631   0.952
 8439TIP3    H225261   5.940   1.650   0.932
 8440TIP3   OH225262   4.493   0.286   6.164
 8440TIP3    H125263   4.570   0.316   6.116
 8440TIP3    H225264   4.506   0.318   6.253
 8441TIP3   OH225265   3.360   1.507   6.262
 8441TIP3    H125266   3.301   1.433   6.250
 8441TIP3    H225267   3.422   1.501   6.190
 8442TIP3   OH225268   2.314   5.363   4.305
 8442TIP3    H125269   2.391   5.361   4.249
 8442TIP3    H225270   2.325   5.289   4.364
 8443TIP3   OH225271   5.562   4.889   0.858
 8443TIP3    H125272   5.494   4.950   0.887
 8443TIP3    H225273   5.635   4.904   0.918
 8444TIP3   OH225274   4.411   3.516   3.742
 8444TIP3    H125275   4.497   3.512   3.785
 8444TIP3    H225276   4.348   3.493   3.810
 8445TIP3   OH225277   7.749   5.338   1.460
 8445TIP3    H125278   7.809   5.403   1.498
 8445TIP3    H225279   7.792   5.254   1.475
 8446TIP3   OH225280   6.341   3.632   3.980
 8446TIP3    H125281   6.299   3.687   3.914
 8446TIP3    H225282   6.293   3.549   3.976
 8447TIP3   OH225283   5.363   7.577   5.608
 8447TIP3    H125284   5.421   7.530   5.548
 8447TIP3    H225285   5.399   7.561   5.695
 8448TIP3   OH225286   0.529   5.846   4.101
 8448TIP3    H125287   0.477   5.771   4.072
 8448TIP3    H225288   0.607   5.807   4.141
 8449TIP3   OH225289   2.712   6.442   0.892
 8449TIP3    H125290   2.693   6.390   0.970
 8449TIP3    H225291   2.684   6.387   0.819
 8450TIP3   OH225292   4.362   5.752   1.630
 8450TIP3    H125293   4.419   5.679   1.608
 8450TIP3    H225294   4.275   5.713   1.640
 8451TIP3   OH225295   5.164   5.426   5.244
 8451TIP3    H125296   5.151   5.332   5.255
 8451TIP3    H225297   5.243   5.433   5.191
 8452TIP3   OH225298   4.261   1.211   6.127
 8452TIP3    H125299   4.265   1.121   6.098
 8452TIP3    H225300   4.266   1.206   6.223
 8453TIP3   OH225301   1.288   5.421   1.422
 8453TIP3    H125302   1.382   5.440   1.420
 8453TIP3    H225303   1.272   5.389   1.510
 8454TIP3   OH225304   6.241   3.942   3.269
 8454TIP3    H125305   6.278   3.981   3.189
 8454TIP3    H225306   6.167   3.890   3.238
 8455TIP3   OH225307   0.816   0.546   0.132
 8455TIP3    H125308   0.813   0.576   0.223
 8455TIP3    H225309   0.757   0.605   0.085
 8456TIP3   OH225310   2.403   3.804   1.810
 8456TIP3    H125311   2.369   3.893   1.816
 8456TIP3    H225312   2.491   3.814   1.776
 8457TIP3   OH225313   5.928   7.373   4.566
 8457TIP3    H125314   6.007   7.384   4.620
 8457TIP3    H225315   5.950   7.417   4.484
 8458TIP3   OH225316   2.688   4.830   2.988
 8458TIP3    H125317   2.660   4.832   3.080
 8458TIP3    H225318   2.776   4.792   2.991
 8459TIP3   OH225319   0.345   1.948   2.177
 8459TIP3    H125320   0.369   2.020   2.236
 8459TIP3    H225321   0.317   1.878   2.235
 8460TIP3   OH225322   6.283   4.245   5.141
 8460TIP3    H125323   6.286   4.339   5.161
 8460TIP3    H225324   6.266   4.242   5.047
 8461TIP3   OH225325   6.445   5.795   2.734
 8461TIP3    H125326   6.429   5.882   2.771
 8461TIP3    H225327   6.365   5.745   2.754
 8462TIP3   OH225328   3.186   5.963   5.413
 8462TIP3    H125329   3.267   5.912   5.408
 8462TIP3    H225330   3.206   6.043   5.365
 8463TIP3   OH225331   6.919   1.235   5.067
 8463TIP3    H125332   6.873   1.176   5.127
 8463TIP3    H225333   6.897   1.203   4.980
 8464TIP3   OH225334   1.522   6.972   1.591
 8464TIP3    H125335   1.438   6.996   1.632
 8464TIP3    H225336   1.564   6.916   1.656
 8465TIP3   OH225337   0.214   2.640   3.571
 8465TIP3    H125338   0.160   2.562   3.554
 8465TIP3    H225339   0.181   2.706   3.510
 8466TIP3   OH225340   3.500   0.256   6.589
 8466TIP3    H125341   3.469   0.219   6.507
 8466TIP3    H225342   3.474   0.193   6.656
 8467TIP3   OH225343   8.313   6.941   4.920
 8467TIP3    H125344   8.241   6.961   4.979
 8467TIP3    H225345   8.279   6.873   4.862
 8468TIP3   OH225346   1.893   5.182   4.385
 8468TIP3    H125347   1.864   5.105   4.336
 8468TIP3    H225348   1.944   5.233   4.322
 8469TIP3   OH225349   6.433   4.537   1.691
 8469TIP3    H125350   6.407   4.581   1.771
 8469TIP3    H225351   6.519   4.574   1.669
 8470TIP3   OH225352   5.153   5.048   2.492
 8470TIP3    H125353   5.181   5.140   2.487
 8470TIP3    H225354   5.193   5.015   2.572
 8471TIP3   OH225355   1.982   6.288   0.629
 8471TIP3    H125356   2.022   6.341   0.560
 8471TIP3    H225357   1.987   6.343   0.707
 8472TIP3   OH225358   1.330   2.935   6.484
 8472TIP3    H125359   1.412   2.890   6.508
 8472TIP3    H225360   1.270   2.914   6.556
 8473TIP3   OH225361   7.766   3.624   0.196
 8473TIP3    H125362   7.814   3.690   0.146
 8473TIP3    H225363   7.675   3.636   0.171
 8474TIP3   OH225364   8.206   5.366   0.871
 8474TIP3    H125365   8.258   5.289   0.896
 8474TIP3    H225366   8.142   5.375   0.942
 8475TIP3   OH225367   3.216   5.462   3.518
 8475TIP3    H125368   3.264   5.406   3.457
 8475TIP3    H225369   3.184   5.402   3.585
 8476TIP3   OH225370   7.658   0.521   4.387
 8476TIP3    H125371   7.629   0.506   4.477
 8476TIP3    H225372   7.752   0.540   4.395
 8477TIP3   OH225373   1.931   6.162   0.379
 8477TIP3    H125374   1.966   6.208   0.455
 8477TIP3    H225375   1.837   6.182   0.380
 8478TIP3   OH225376   4.505   7.048   4.775
 8478TIP3    H125377   4.525   6.955   4.767
 8478TIP3    H225378   4.417   7.057   4.738
 8479TIP3   OH225379   3.602   1.986   0.241
 8479TIP3    H125380   3.539   1.991   0.170
 8479TIP3    H225381   3.623   1.892   0.248
 8480TIP3   OH225382   3.485   4.688   5.790
 8480TIP3    H125383   3.567   4.735   5.776
 8480TIP3    H225384   3.501   4.634   5.868
 8481TIP3   OH225385   0.913   6.068   3.574
 8481TIP3    H125386   0.826   6.046   3.606
 8481TIP3    H225387   0.904   6.158   3.542
 8482TIP3   OH225388   5.618   1.519   3.667
 8482TIP3    H125389   5.571   1.471   3.735
 8482TIP3    H225390   5.665   1.452   3.618
 8483TIP3   OH225391   7.216   6.862   3.842
 8483TIP3    H125392   7.170   6.804   3.902
 8483TIP3    H225393   7.178   6.843   3.756
 8484TIP3   OH225394   2.095   6.018   3.847
 8484TIP3    H125395   2.004   6.035   3.822
 8484TIP3    H225396   2.088   5.972   3.931
 8485TIP3   OH225397   1.453   2.888   3.360
 8485TIP3    H125398   1.420   2.977   3.375
 8485TIP3    H225399   1.379   2.831   3.380
 8486TIP3   OH225400   6.482   0.732   1.069
 8486TIP3    H125401   6.478   0.815   1.021
 8486TIP3    H225402   6.575   0.710   1.071
 8487TIP3   OH225403   3.314   5.972   4.745
 8487TIP3    H125404   3.286   6.012   4.663
 8487TIP3    H225405   3.245   5.909   4.765
 8488TIP3   OH225406   7.098   7.110   0.682
 8488TIP3    H125407   7.130   7.021   0.667
 8488TIP3    H225408   7.003   7.101   0.685
 8489TIP3   OH225409   4.710   7.006   0.530
 8489TIP3    H125410   4.778   7.012   0.597
 8489TIP3    H225411   4.747   7.052   0.455
 8490TIP3   OH225412   4.417   6.171   3.806
 8490TIP3    H125413   4.375   6.159   3.891
 8490TIP3    H225414   4.421   6.083   3.768
 8491TIP3   OH225415   0.336   2.171   0.269
 8491TIP3    H125416   0.332   2.129   0.183
 8491TIP3    H225417   0.410   2.231   0.263
 8492TIP3   OH225418   6.943   2.701   6.191
 8492TIP3    H125419   6.930   2.794   6.172
 8492TIP3    H225420   6.863   2.659   6.159
 8493TIP3   OH225421   5.707   7.226   3.684
 8493TIP3    H125422   5.749   7.208   3.768
 8493TIP3    H225423   5.707   7.141   3.639
 8494TIP3   OH225424   3.073   1.027   3.552
 8494TIP3    H125425   3.022   0.949   3.530
 8494TIP3    H225426   3.138   0.996   3.614
 8495TIP3   OH225427   0.506   3.588   3.731
 8495TIP3    H125428   0.534   3.627   3.648
 8495TIP3    H225429   0.473   3.662   3.782
 8496TIP3   OH225430   6.934   4.366   1.054
 8496TIP3    H125431   6.896   4.306   0.990
 8496TIP3    H225432   6.909   4.453   1.024
 8497TIP3   OH225433   4.231   0.892   3.759
 8497TIP3    H125434   4.268   0.905   3.671
 8497TIP3    H225435   4.291   0.939   3.817
 8498TIP3   OH225436   4.990   0.460   6.581
 8498TIP3    H125437   4.914   0.516   6.568
 8498TIP3    H225438   4.961   0.373   6.551
 8499TIP3   OH225439   3.955   4.760   3.033
 8499TIP3    H125440   4.045   4.790   3.021
 8499TIP3    H225441   3.963   4.674   3.073
 8500TIP3   OH225442   6.115   4.441   3.447
 8500TIP3    H125443   6.135   4.368   3.389
 8500TIP3    H225444   6.200   4.476   3.472
 8501TIP3   OH225445   5.196   1.488   5.771
 8501TIP3    H125446   5.121   1.523   5.820
 8501TIP3    H225447   5.259   1.464   5.839
 8502TIP3   OH225448   4.405   0.165   2.047
 8502TIP3    H125449   4.478   0.218   2.015
 8502TIP3    H225450   4.327   0.219   2.032
 8503TIP3   OH225451   6.956   2.981   3.731
 8503TIP3    H125452   6.927   2.987   3.822
 8503TIP3    H225453   6.911   3.052   3.687
 8504TIP3   OH225454   6.302   3.416   4.457
 8504TIP3    H125455   6.350   3.432   4.377
 8504TIP3    H225456   6.341   3.337   4.494
 8505TIP3   OH225457   4.881   6.567   0.327
 8505TIP3    H125458   4.970   6.593   0.354
 8505TIP3    H225459   4.824   6.615   0.387
 8506TIP3   OH225460   7.287   6.119   6.342
 8506TIP3    H125461   7.326   6.185   6.399
 8506TIP3    H225462   7.208   6.161   6.307
 8507TIP3   OH225463   3.498   6.873   6.500
 8507TIP3    H125464   3.470   6.830   6.581
 8507TIP3    H225465   3.587   6.903   6.518
 8508TIP3   OH225466   3.175   4.570   2.490
 8508TIP3    H125467   3.154   4.663   2.502
 8508TIP3    H225468   3.265   4.570   2.458
 8509TIP3   OH225469   2.078   1.630   5.812
 8509TIP3    H125470   1.997   1.659   5.769
 8509TIP3    H225471   2.137   1.705   5.803
 8510TIP3   OH225472   2.275   7.668   6.326
 8510TIP3    H125473   2.316   7.752   6.305
 8510TIP3    H225474   2.196   7.665   6.271
 8511TIP3   OH225475   3.780   2.334   6.581
 8511TIP3    H125476   3.806   2.243   6.565
 8511TIP3    H225477   3.685   2.331   6.588
 8512TIP3   OH225478   8.269   5.263   3.369
 8512TIP3    H125479   8.266   5.168   3.363
 8512TIP3    H225480   8.295   5.292   3.282
 8513TIP3   OH225481   1.082   5.710   6.743
 8513TIP3    H125482   1.021   5.665   6.685
 8513TIP3    H225483   1.047   5.799   6.752
 8514TIP3   OH225484   0.323   3.258   1.549
 8514TIP3    H125485   0.298   3.186   1.606
 8514TIP3    H225486   0.310   3.224   1.460
 8515TIP3   OH225487   7.652   2.939   2.140
 8515TIP3    H125488   7.626   2.849   2.119
 8515TIP3    H225489   7.678   2.977   2.056
 8516TIP3   OH225490   7.706   4.987   3.689
 8516TIP3    H125491   7.646   5.061   3.681
 8516TIP3    H225492   7.720   4.958   3.598
 8517TIP3   OH225493   7.941   4.183   6.014
 8517TIP3    H125494   7.942   4.109   6.075
 8517TIP3    H225495   8.002   4.157   5.945
 8518TIP3   OH225496   0.896   2.198   1.590
 8518TIP3    H125497   0.901   2.277   1.644
 8518TIP3    H225498   0.987   2.180   1.565
 8519TIP3   OH225499   1.046   3.069   1.473
 8519TIP3    H125500   1.116   3.076   1.408
 8519TIP3    H225501   1.079   3.116   1.549
 8520TIP3   OH225502   7.413   4.109   1.023
 8520TIP3    H125503   7.467   4.174   0.979
 8520TIP3    H225504   7.358   4.160   1.083
 8521TIP3   OH225505   3.790   6.400   5.219
 8521TIP3    H125506   3.794   6.310   5.251
 8521TIP3    H225507   3.745   6.448   5.289
 8522TIP3   OH225508   2.216   2.087   2.986
 8522TIP3    H125509   2.308   2.103   2.966
 8522TIP3    H225510   2.212   2.087   3.082
 8523TIP3   OH225511   0.998   5.611   2.296
 8523TIP3    H125512   1.072   5.551   2.291
 8523TIP3    H225513   1.010   5.656   2.380
 8524TIP3   OH225514   2.734   5.464   4.960
 8524TIP3    H125515   2.807   5.482   5.020
 8524TIP3    H225516   2.738   5.370   4.945
 8525TIP3   OH225517   6.990   4.000   2.030
 8525TIP3    H125518   7.066   3.992   2.088
 8525TIP3    H225519   6.961   4.091   2.041
 8526TIP3   OH225520   3.972   5.680   2.765
 8526TIP3    H125521   3.927   5.726   2.835
 8526TIP3    H225522   3.952   5.730   2.686
 8527TIP3   OH225523   4.739   3.529   6.344
 8527TIP3    H125524   4.713   3.470   6.415
 8527TIP3    H225525   4.674   3.598   6.345
 8528TIP3   OH225526   1.927   0.829   3.119
 8528TIP3    H125527   1.956   0.786   3.199
 8528TIP3    H225528   1.877   0.762   3.072
 8529TIP3   OH225529   0.956   0.216   1.125
 8529TIP3    H125530   0.982   0.124   1.135
 8529TIP3    H225531   1.020   0.265   1.177
 8530TIP3   OH225532   3.767   3.813   5.669
 8530TIP3    H125533   3.817   3.863   5.604
 8530TIP3    H225534   3.831   3.757   5.711
 8531TIP3   OH225535   4.263   1.808   0.877
 8531TIP3    H125536   4.324   1.871   0.916
 8531TIP3    H225537   4.235   1.753   0.951
 8532TIP3   OH225538   6.001   4.487   5.946
 8532TIP3    H125539   5.942   4.556   5.917
 8532TIP3    H225540   5.958   4.406   5.919
 8533TIP3   OH225541   5.172   4.461   4.147
 8533TIP3    H125542   5.160   4.552   4.118
 8533TIP3    H225543   5.243   4.466   4.212
 8534TIP3   OH225544   1.597   1.977   4.886
 8534TIP3    H125545   1.531   1.965   4.818
 8534TIP3    H225546   1.612   2.072   4.889
 8535TIP3   OH225547   6.102   3.344   6.208
 8535TIP3    H125548   6.133   3.338   6.299
 8535TIP3    H225549   6.161   3.287   6.159
 8536TIP3   OH225550   4.580   1.419   6.466
 8536TIP3    H125551   4.529   1.466   6.532
 8536TIP3    H225552   4.564   1.467   6.384
 8537TIP3   OH225553   3.362   4.035   4.009
 8537TIP3    H125554   3.408   4.077   4.081
 8537TIP3    H225555   3.409   3.953   3.996
 8538TIP3   OH225556   3.696   6.284   0.501
 8538TIP3    H125557   3.630   6.267   0.569
 8538TIP3    H225558   3.746   6.358   0.534
 8539TIP3   OH225559   3.216   1.569   2.104
 8539TIP3    H125560   3.264   1.613   2.174
 8539TIP3    H225561   3.233   1.622   2.026
 8540TIP3   OH225562   3.799   7.693   0.736
 8540TIP3    H125563   3.742   7.756   0.779
 8540TIP3    H225564   3.880   7.741   0.720
 8541TIP3   OH225565   3.828   5.145   6.099
 8541TIP3    H125566   3.784   5.109   6.022
 8541TIP3    H225567   3.922   5.137   6.079
 8542TIP3   OH225568   3.220   0.526   4.342
 8542TIP3    H125569   3.221   0.480   4.258
 8542TIP3    H225570   3.144   0.584   4.338
 8543TIP3   OH225571   6.428   2.998   6.281
 8543TIP3    H125572   6.339   2.971   6.259
 8543TIP3    H225573   6.433   2.990   6.376
 8544TIP3   OH225574   1.330   5.772   2.725
 8544TIP3    H125575   1.278   5.692   2.727
 8544TIP3    H225576   1.265   5.842   2.734
 8545TIP3   OH225577   3.173   4.869   2.520
 8545TIP3    H125578   3.104   4.932   2.541
 8545TIP3    H225579   3.225   4.863   2.600
 8546TIP3   OH225580   0.954   0.948   4.800
 8546TIP3    H125581   0.978   1.023   4.746
 8546TIP3    H225582   1.027   0.887   4.791
 8547TIP3   OH225583   1.587   5.383   5.120
 8547TIP3    H125584   1.525   5.351   5.185
 8547TIP3    H225585   1.670   5.391   5.168
 8548TIP3   OH225586   5.128   1.958   2.001
 8548TIP3    H125587   5.218   1.967   2.032
 8548TIP3    H225588   5.084   1.907   2.070
 8549TIP3   OH225589   4.193   7.868   5.733
 8549TIP3    H125590   4.107   7.869   5.774
 8549TIP3    H225591   4.184   7.812   5.656
 8550TIP3   OH225592   5.487   5.128   0.640
 8550TIP3    H125593   5.424   5.060   0.617
 8550TIP3    H225594   5.490   5.127   0.735
 8551TIP3   OH225595   1.840   5.813   1.586
 8551TIP3    H125596   1.818   5.843   1.675
 8551TIP3    H225597   1.810   5.722   1.584
 8552TIP3   OH225598   5.199   5.773   4.238
 8552TIP3    H125599   5.223   5.705   4.176
 8552TIP3    H225600   5.272   5.835   4.235
 8553TIP3   OH225601   2.886   6.849   3.801
 8553TIP3    H125602   2.918   6.938   3.814
 8553TIP3    H225603   2.806   6.844   3.853
 8554TIP3   OH225604   0.401   4.059   2.638
 8554TIP3    H125605   0.363   3.972   2.627
 8554TIP3    H225606   0.400   4.098   2.551
 8555TIP3   OH225607   2.996   6.638   3.684
 8555TIP3    H125608   3.018   6.586   3.762
 8555TIP3    H225609   2.933   6.703   3.715
 8556TIP3   OH225610   3.028   7.217   5.401
 8556TIP3    H125611   2.998   7.212   5.491
 8556TIP3    H225612   3.105   7.274   5.404
 8557TIP3   OH225613   0.753   5.674   4.692
 8557TIP3    H125614   0.806   5.643   4.766
 8557TIP3    H225615   0.768   5.768   4.690
 8558TIP3   OH225616   3.146   1.177   6.573
 8558TIP3    H125617   3.197   1.113   6.524
 8558TIP3    H225618   3.211   1.228   6.621
 8559TIP3   OH225619   7.926   6.077   2.419
 8559TIP3    H125620   7.936   6.095   2.326
 8559TIP3    H225621   8.015   6.077   2.453
 8560TIP3   OH225622   5.176   1.910   4.344
 8560TIP3    H125623   5.090   1.932   4.309
 8560TIP3    H225624   5.199   1.828   4.301
 8561TIP3   OH225625   1.000   1.830   2.387
 8561TIP3    H125626   1.085   1.863   2.415
 8561TIP3    H225627   1.020   1.771   2.314
 8562TIP3   OH225628   6.488   7.227   2.210
 8562TIP3    H125629   6.438   7.280   2.147
 8562TIP3    H225630   6.485   7.138   2.174
 8563TIP3   OH225631   6.682   2.908   4.437
 8563TIP3    H125632   6.750   2.902   4.504
 8563TIP3    H225633   6.676   2.820   4.401
 8564TIP3   OH225634   8.223   6.306   3.186
 8564TIP3    H125635   8.154   6.326   3.249
 8564TIP3    H225636   8.302   6.343   3.224
 8565TIP3   OH225637   2.109   7.515   1.232
 8565TIP3    H125638   2.060   7.452   1.285
 8565TIP3    H225639   2.193   7.473   1.216
 8566TIP3   OH225640   4.756   4.631   6.527
 8566TIP3    H125641   4.750   4.543   6.490
 8566TIP3    H225642   4.812   4.622   6.604
 8567TIP3   OH225643   0.652   4.731   5.087
 8567TIP3    H125644   0.576   4.746   5.142
 8567TIP3    H225645   0.635   4.646   5.045
 8568TIP3   OH225646   1.494   4.970   6.303
 8568TIP3    H125647   1.405   4.991   6.331
 8568TIP3    H225648   1.483   4.918   6.224
 8569TIP3   OH225649   7.180   7.563   4.470
 8569TIP3    H125650   7.170   7.543   4.563
 8569TIP3    H225651   7.255   7.622   4.466
 8570TIP3   OH225652   2.003   4.516   2.412
 8570TIP3    H125653   2.045   4.475   2.336
 8570TIP3    H225654   1.965   4.596   2.378
 8571TIP3   OH225655   3.946   2.431   2.852
 8571TIP3    H125656   3.870   2.429   2.909
 8571TIP3    H225657   3.943   2.516   2.809
 8572TIP3   OH225658   7.105   4.473   4.337
 8572TIP3    H125659   7.181   4.512   4.380
 8572TIP3    H225660   7.128   4.472   4.244
 8573TIP3   OH225661   1.848   3.786   5.481
 8573TIP3    H125662   1.775   3.735   5.515
 8573TIP3    H225663   1.880   3.835   5.557
 8574TIP3   OH225664   3.849   1.516   2.488
 8574TIP3    H125665   3.894   1.591   2.525
 8574TIP3    H225666   3.889   1.440   2.532
 8575TIP3   OH225667   5.431   6.782   5.370
 8575TIP3    H125668   5.515   6.816   5.340
 8575TIP3    H225669   5.419   6.822   5.456
 8576TIP3   OH225670   5.175   5.846   5.257
 8576TIP3    H125671   5.090   5.890   5.255
 8576TIP3    H225672   5.185   5.809   5.169
 8577TIP3   OH225673   7.803   1.408   3.749
 8577TIP3    H125674   7.835   1.332   3.701
 8577TIP3    H225675   7.744   1.453   3.688
 8578TIP3   OH225676   1.332   0.639   3.643
 8578TIP3    H125677   1.241   0.631   3.673
 8578TIP3    H225678   1.359   0.548   3.627
 8579TIP3   OH225679   5.238   6.945   6.697
 8579TIP3    H125680   5.311   6.890   6.671
 8579TIP3    H225681   5.187   6.890   6.758
 8580TIP3   OH225682   3.865   3.383   5.454
 8580TIP3    H125683   3.918   3.368   5.532
 8580TIP3    H225684   3.846   3.296   5.421
 8581TIP3   OH225685   2.490   1.748   5.709
 8581TIP3    H125686   2.547   1.815   5.748
 8581TIP3    H225687   2.435   1.796   5.648
 8582TIP3   OH225688   1.241   6.544   5.175
 8582TIP3    H125689   1.257   6.496   5.094
 8582TIP3    H225690   1.326   6.583   5.197
 8583TIP3   OH225691   1.536   7.809   1.877
 8583TIP3    H125692   1.568   7.855   1.954
 8583TIP3    H225693   1.442   7.798   1.893
 8584TIP3   OH225694   5.251   2.086   5.384
 8584TIP3    H125695   5.161   2.080   5.352
 8584TIP3    H225696   5.257   2.018   5.451
 8585TIP3   OH225697   2.295   5.236   6.132
 8585TIP3    H125698   2.255   5.159   6.093
 8585TIP3    H225699   2.232   5.266   6.197
 8586TIP3   OH225700   5.287   5.651   0.669
 8586TIP3    H125701   5.197   5.682   0.655
 8586TIP3    H225702   5.342   5.726   0.646
 8587TIP3   OH225703   1.945   2.198   4.822
 8587TIP3    H125704   1.975   2.280   4.862
 8587TIP3    H225705   2.026   2.148   4.808
 8588TIP3   OH225706   4.175   7.036   3.285
 8588TIP3    H125707   4.169   6.989   3.368
 8588TIP3    H225708   4.141   6.974   3.220
 8589TIP3   OH225709   2.828   7.105   6.312
 8589TIP3    H125710   2.837   7.049   6.389
 8589TIP3    H225711   2.787   7.185   6.345
 8590TIP3   OH225712   2.387   6.590   6.336
 8590TIP3    H125713   2.450   6.563   6.269
 8590TIP3    H225714   2.416   6.676   6.364
 8591TIP3   OH225715   3.538   3.263   3.548
 8591TIP3    H125716   3.466   3.309   3.591
 8591TIP3    H225717   3.613   3.323   3.554
 8592TIP3   OH225718   2.434   3.937   5.507
 8592TIP3    H125719   2.426   3.950   5.602
 8592TIP3    H225720   2.490   3.860   5.499
 8593TIP3   OH225721   3.913   5.638   3.795
 8593TIP3    H125722   3.934   5.698   3.724
 8593TIP3    H225723   3.983   5.650   3.859
 8594TIP3   OH225724   7.433   6.385   6.162
 8594TIP3    H125725   7.381   6.401   6.242
 8594TIP3    H225726   7.501   6.324   6.189
 8595TIP3   OH225727   6.312   4.881   1.227
 8595TIP3    H125728   6.254   4.917   1.160
 8595TIP3    H225729   6.253   4.856   1.298
 8596TIP3   OH225730   4.056   7.654   1.111
 8596TIP3    H125731   4.024   7.725   1.055
 8596TIP3    H225732   4.083   7.586   1.050
 8597TIP3   OH225733   5.717   6.749   2.440
 8597TIP3    H125734   5.705   6.809   2.514
 8597TIP3    H225735   5.811   6.730   2.440
 8598TIP3   OH225736   4.841   1.064   0.883
 8598TIP3    H125737   4.897   1.110   0.945
 8598TIP3    H225738   4.897   0.995   0.847
 8599TIP3   OH225739   6.475   2.806   5.106
 8599TIP3    H125740   6.481   2.881   5.046
 8599TIP3    H225741   6.507   2.732   5.055
 8600TIP3   OH225742   6.767   6.358   6.687
 8600TIP3    H125743   6.783   6.290   6.621
 8600TIP3    H225744   6.844   6.415   6.681
 8601TIP3   OH225745   3.221   1.034   4.174
 8601TIP3    H125746   3.259   1.121   4.178
 8601TIP3    H225747   3.133   1.044   4.208
 8602TIP3   OH225748   5.941   4.427  -0.022
 8602TIP3    H125749   5.997   4.416   0.055
 8602TIP3    H225750   5.852   4.426   0.012
 8603TIP3   OH225751   8.018   0.224   5.239
 8603TIP3    H125752   8.000   0.141   5.195
 8603TIP3    H225753   8.114   0.228   5.247
 8604TIP3   OH225754   6.654   5.844   4.675
 8604TIP3    H125755   6.688   5.775   4.732
 8604TIP3    H225756   6.659   5.923   4.729
 8605TIP3   OH225757   0.694   4.511   4.925
 8605TIP3    H125758   0.607   4.482   4.899
 8605TIP3    H225759   0.725   4.563   4.850
 8606TIP3   OH225760   3.878   1.800   6.525
 8606TIP3    H125761   3.908   1.709   6.527
 8606TIP3    H225762   3.905   1.837   6.609
 8607TIP3   OH225763   4.663   7.314   6.770
 8607TIP3    H125764   4.572   7.336   6.789
 8607TIP3    H225765   4.673   7.334   6.677
 8608TIP3   OH225766   7.174   1.986   2.382
 8608TIP3    H125767   7.120   2.005   2.459
 8608TIP3    H225768   7.172   1.890   2.374
 8609TIP3   OH225769   6.396   1.474   2.181
 8609TIP3    H125770   6.482   1.442   2.210
 8609TIP3    H225771   6.374   1.419   2.106
 8610TIP3   OH225772   6.529   7.070   3.401
 8610TIP3    H125773   6.622   7.083   3.379
 8610TIP3    H225774   6.528   7.070   3.497
 8611TIP3   OH225775   6.696   5.825  -0.003
 8611TIP3    H125776   6.679   5.912   0.033
 8611TIP3    H225777   6.672   5.765   0.068
 8612TIP3   OH225778   4.254   3.561   4.642
 8612TIP3    H125779   4.219   3.581   4.729
 8612TIP3    H225780   4.189   3.503   4.603
 8613TIP3   OH225781   6.972   4.283   3.044
 8613TIP3    H125782   6.960   4.364   3.094
 8613TIP3    H225783   7.060   4.291   3.008
 8614TIP3   OH225784   0.700   1.957   6.176
 8614TIP3    H125785   0.703   1.951   6.271
 8614TIP3    H225786   0.646   1.882   6.149
 8615TIP3   OH225787   3.834   1.887   6.013
 8615TIP3    H125788   3.852   1.807   5.964
 8615TIP3    H225789   3.879   1.876   6.097
 8616TIP3   OH225790   3.534   6.790   1.694
 8616TIP3    H125791   3.449   6.759   1.723
 8616TIP3    H225792   3.530   6.885   1.706
 8617TIP3   OH225793   5.177   2.653   1.124
 8617TIP3    H125794   5.117   2.680   1.054
 8617TIP3    H225795   5.143   2.569   1.152
 8618TIP3   OH225796   5.245   2.003   4.663
 8618TIP3    H125797   5.264   2.013   4.570
 8618TIP3    H225798   5.325   2.030   4.707
 8619TIP3   OH225799   2.042   7.757   0.843
 8619TIP3    H125800   1.981   7.748   0.916
 8619TIP3    H225801   1.995   7.810   0.779
 8620TIP3   OH225802   6.601   3.296   5.999
 8620TIP3    H125803   6.689   3.316   6.031
 8620TIP3    H225804   6.614   3.272   5.907
 8621TIP3   OH225805   6.457   3.959   0.926
 8621TIP3    H125806   6.456   3.865   0.906
 8621TIP3    H225807   6.522   3.996   0.865
 8622TIP3   OH225808   5.938   2.332   3.686
 8622TIP3    H125809   6.003   2.367   3.624
 8622TIP3    H225810   5.855   2.339   3.640
 8623TIP3   OH225811   4.027   2.598   3.796
 8623TIP3    H125812   4.012   2.692   3.793
 8623TIP3    H225813   3.956   2.560   3.745
 8624TIP3   OH225814   2.124   4.903   4.338
 8624TIP3    H125815   2.164   4.820   4.312
 8624TIP3    H225816   2.107   4.948   4.255
 8625TIP3   OH225817   4.079   0.595   6.345
 8625TIP3    H125818   4.116   0.678   6.317
 8625TIP3    H225819   4.122   0.530   6.288
 8626TIP3   OH225820   1.494   3.990   3.277
 8626TIP3    H125821   1.537   3.904   3.274
 8626TIP3    H225822   1.410   3.973   3.320
 8627TIP3   OH225823   7.160   1.555   1.265
 8627TIP3    H125824   7.239   1.503   1.280
 8627TIP3    H225825   7.179   1.639   1.307
 8628TIP3   OH225826   4.019   6.504   5.137
 8628TIP3    H125827   3.945   6.448   5.162
 8628TIP3    H225828   4.005   6.585   5.186
 8629TIP3   OH225829   1.374   3.449   2.849
 8629TIP3    H125830   1.396   3.466   2.941
 8629TIP3    H225831   1.316   3.373   2.852
 8630TIP3   OH225832   2.288   3.733   0.226
 8630TIP3    H125833   2.213   3.677   0.207
 8630TIP3    H225834   2.345   3.680   0.282
 8631TIP3   OH225835   5.862   4.144   4.814
 8631TIP3    H125836   5.899   4.101   4.891
 8631TIP3    H225837   5.910   4.226   4.806
 8632TIP3   OH225838   2.249   5.641   2.975
 8632TIP3    H125839   2.213   5.632   3.063
 8632TIP3    H225840   2.286   5.730   2.973
 8633TIP3   OH225841   7.329   3.585   1.001
 8633TIP3    H125842   7.360   3.675   1.012
 8633TIP3    H225843   7.256   3.577   1.063
 8634TIP3   OH225844   2.547   1.767   5.385
 8634TIP3    H125845   2.497   1.722   5.317
 8634TIP3    H225846   2.481   1.788   5.452
 8635TIP3   OH225847   4.052   2.224   0.490
 8635TIP3    H125848   4.003   2.229   0.407
 8635TIP3    H225849   4.040   2.310   0.530
 8636TIP3   OH225850   4.645   1.710   4.143
 8636TIP3    H125851   4.719   1.689   4.086
 8636TIP3    H225852   4.661   1.800   4.172
 8637TIP3   OH225853   3.192   6.073   2.979
 8637TIP3    H125854   3.215   6.166   2.973
 8637TIP3    H225855   3.276   6.028   2.986
 8638TIP3   OH225856   6.141   3.621   3.511
 8638TIP3    H125857   6.229   3.654   3.493
 8638TIP3    H225858   6.094   3.695   3.548
 8639TIP3   OH225859   8.090   3.846   5.169
 8639TIP3    H125860   8.028   3.780   5.201
 8639TIP3    H225861   8.044   3.888   5.097
 8640TIP3   OH225862   4.372   6.136   4.337
 8640TIP3    H125863   4.433   6.068   4.367
 8640TIP3    H225864   4.319   6.093   4.270
 8641TIP3   OH225865   5.664   5.241   4.804
 8641TIP3    H125866   5.590   5.294   4.833
 8641TIP3    H225867   5.733   5.258   4.868
 8642TIP3   OH225868   3.333   1.229   6.196
 8642TIP3    H125869   3.384   1.234   6.115
 8642TIP3    H225870   3.386   1.176   6.255
 8643TIP3   OH225871   4.487   5.209   0.942
 8643TIP3    H125872   4.518   5.295   0.969
 8643TIP3    H225873   4.391   5.217   0.943
 8644TIP3   OH225874   1.981   7.231   5.704
 8644TIP3    H125875   2.058   7.236   5.761
 8644TIP3    H225876   1.941   7.147   5.727
 8645TIP3   OH225877   4.489   5.633   4.269
 8645TIP3    H125878   4.402   5.596   4.283
 8645TIP3    H225879   4.519   5.592   4.188
 8646TIP3   OH225880   0.715   0.685   6.108
 8646TIP3    H125881   0.736   0.777   6.099
 8646TIP3    H225882   0.798   0.639   6.095
 8647TIP3   OH225883   0.935   2.899   3.124
 8647TIP3    H125884   0.932   2.988   3.159
 8647TIP3    H225885   0.844   2.870   3.122
 8648TIP3   OH225886   5.782   0.488   1.471
 8648TIP3    H125887   5.731   0.563   1.500
 8648TIP3    H225888   5.797   0.437   1.551
 8649TIP3   OH225889   7.723   3.793   3.009
 8649TIP3    H125890   7.779   3.738   3.064
 8649TIP3    H225891   7.780   3.862   2.976
 8650TIP3   OH225892   4.608   7.631   2.596
 8650TIP3    H125893   4.679   7.570   2.616
 8650TIP3    H225894   4.637   7.676   2.516
 8651TIP3   OH225895   5.308   2.549   4.155
 8651TIP3    H125896   5.268   2.516   4.075
 8651TIP3    H225897   5.250   2.620   4.183
 8652TIP3   OH225898   7.304   3.580   5.558
 8652TIP3    H125899   7.376   3.584   5.495
 8652TIP3    H225900   7.248   3.655   5.535
 8653TIP3   OH225901   2.224   7.423   3.497
 8653TIP3    H125902   2.226   7.455   3.407
 8653TIP3    H225903   2.287   7.351   3.498
 8654TIP3   OH225904   6.135   3.909   1.573
 8654TIP3    H125905   6.171   3.937   1.489
 8654TIP3    H225906   6.180   3.962   1.638
 8655TIP3   OH225907   4.255   7.781   3.286
 8655TIP3    H125908   4.231   7.724   3.359
 8655TIP3    H225909   4.293   7.723   3.221
 8656TIP3   OH225910   8.090   7.456   3.010
 8656TIP3    H125911   8.161   7.404   2.974
 8656TIP3    H225912   8.129   7.501   3.085
 8657TIP3   OH225913   5.551   6.569   1.750
 8657TIP3    H125914   5.610   6.588   1.822
 8657TIP3    H225915   5.579   6.484   1.717
 8658TIP3   OH225916   4.901   5.850   1.289
 8658TIP3    H125917   4.912   5.775   1.348
 8658TIP3    H225918   4.920   5.926   1.344
 8659TIP3   OH225919   1.796   7.535   1.143
 8659TIP3    H125920   1.807   7.622   1.105
 8659TIP3    H225921   1.846   7.538   1.225
 8660TIP3   OH225922   4.394   2.894   0.527
 8660TIP3    H125923   4.366   2.985   0.522
 8660TIP3    H225924   4.489   2.897   0.520
 8661TIP3   OH225925   6.947   4.699   2.339
 8661TIP3    H125926   6.993   4.623   2.374
 8661TIP3    H225927   6.970   4.771   2.397
 8662TIP3   OH225928   6.285   6.082   5.651
 8662TIP3    H125929   6.293   6.092   5.746
 8662TIP3    H225930   6.282   6.172   5.618
 8663TIP3   OH225931   2.229   2.946   4.786
 8663TIP3    H125932   2.253   3.023   4.734
 8663TIP3    H225933   2.154   2.974   4.838
 8664TIP3   OH225934   1.411   1.809   2.948
 8664TIP3    H125935   1.421   1.904   2.935
 8664TIP3    H225936   1.439   1.794   3.038
 8665TIP3   OH225937   2.142   4.083   6.019
 8665TIP3    H125938   2.094   4.014   6.064
 8665TIP3    H225939   2.075   4.137   5.977
 8666TIP3   OH225940   7.333   6.274   0.196
 8666TIP3    H125941   7.374   6.346   0.244
 8666TIP3    H225942   7.259   6.314   0.151
 8667TIP3   OH225943   5.217   1.503   3.718
 8667TIP3    H125944   5.244   1.578   3.665
 8667TIP3    H225945   5.148   1.537   3.775
 8668TIP3   OH225946   6.525   0.145   3.893
 8668TIP3    H125947   6.568   0.068   3.930
 8668TIP3    H225948   6.482   0.113   3.814
 8669TIP3   OH225949   5.278   7.272   0.064
 8669TIP3    H125950   5.341   7.248  -0.004
 8669TIP3    H225951   5.333   7.292   0.140
 8670TIP3   OH225952   0.845   2.576   2.377
 8670TIP3    H125953   0.934   2.558   2.346
 8670TIP3    H225954   0.797   2.601   2.298
 8671TIP3   OH225955   7.455   7.023   3.167
 8671TIP3    H125956   7.535   7.056   3.126
 8671TIP3    H225957   7.384   7.055   3.111
 8672TIP3   OH225958   3.425   6.486   5.233
 8672TIP3    H125959   3.496   6.472   5.295
 8672TIP3    H225960   3.448   6.569   5.189
 8673TIP3   OH225961   7.153   3.591   1.202
 8673TIP3    H125962   7.059   3.609   1.203
 8673TIP3    H225963   7.163   3.517   1.262
 8674TIP3   OH225964   2.843   5.255   4.060
 8674TIP3    H125965   2.775   5.225   4.120
 8674TIP3    H225966   2.813   5.225   3.974
 8675TIP3   OH225967   6.950   7.278   4.636
 8675TIP3    H125968   6.865   7.272   4.594
 8675TIP3    H225969   7.001   7.206   4.597
 8676TIP3   OH225970   1.155   2.767   4.429
 8676TIP3    H125971   1.090   2.702   4.457
 8676TIP3    H225972   1.219   2.768   4.500
 8677TIP3   OH225973   1.702   3.005   6.650
 8677TIP3    H125974   1.733   3.085   6.693
 8677TIP3    H225975   1.770   2.986   6.585
 8678TIP3   OH225976   5.711   0.987   4.725
 8678TIP3    H125977   5.642   0.943   4.676
 8678TIP3    H225978   5.757   0.917   4.771
 8679TIP3   OH225979   1.169   0.529   1.517
 8679TIP3    H125980   1.248   0.529   1.571
 8679TIP3    H225981   1.097   0.514   1.578
 8680TIP3   OH225982   1.695   4.428   5.628
 8680TIP3    H125983   1.669   4.425   5.720
 8680TIP3    H225984   1.740   4.345   5.614
 8681TIP3   OH225985   6.203   1.294   1.236
 8681TIP3    H125986   6.196   1.270   1.328
 8681TIP3    H225987   6.114   1.284   1.202
 8682TIP3   OH225988   2.172   6.928   5.051
 8682TIP3    H125989   2.262   6.952   5.028
 8682TIP3    H225990   2.140   7.002   5.103
 8683TIP3   OH225991   0.548   0.057   0.973
 8683TIP3    H125992   0.527   0.138   0.927
 8683TIP3    H225993   0.465   0.030   1.014
 8684TIP3   OH225994   7.620   7.573   3.667
 8684TIP3    H125995   7.692   7.530   3.621
 8684TIP3    H225996   7.554   7.505   3.677
 8685TIP3   OH225997   7.667   2.956   1.845
 8685TIP3    H125998   7.642   2.866   1.823
 8685TIP3    H225999   7.593   3.009   1.817
 8686TIP3   OH226000   5.623   6.091   1.783
 8686TIP3    H126001   5.701   6.055   1.825
 8686TIP3    H226002   5.622   6.051   1.696
 8687TIP3   OH226003   1.039   2.073   0.678
 8687TIP3    H126004   1.044   2.156   0.631
 8687TIP3    H226005   0.947   2.066   0.705
 8688TIP3   OH226006   0.459   2.912   6.703
 8688TIP3    H126007   0.388   2.863   6.746
 8688TIP3    H226008   0.539   2.870   6.735
 8689TIP3   OH226009   1.242   2.393   2.040
 8689TIP3    H126010   1.151   2.362   2.036
 8689TIP3    H226011   1.263   2.415   1.949
 8690TIP3   OH226012   0.545   4.215   2.792
 8690TIP3    H126013   0.496   4.153   2.738
 8690TIP3    H226014   0.571   4.285   2.731
 8691TIP3   OH226015   3.985   0.620   4.635
 8691TIP3    H126016   3.942   0.703   4.656
 8691TIP3    H226017   3.963   0.562   4.709
 8692TIP3   OH226018   1.790   4.993   2.409
 8692TIP3    H126019   1.696   5.014   2.404
 8692TIP3    H226020   1.808   4.991   2.503
 8693TIP3   OH226021   5.857   6.821   6.330
 8693TIP3    H126022   5.843   6.760   6.403
 8693TIP3    H226023   5.952   6.833   6.326
 8694TIP3   OH226024   2.722   1.784   4.157
 8694TIP3    H126025   2.758   1.822   4.078
 8694TIP3    H226026   2.666   1.852   4.194
 8695TIP3   OH226027   1.805   4.236   2.749
 8695TIP3    H126028   1.847   4.224   2.664
 8695TIP3    H226029   1.878   4.239   2.811
 8696TIP3   OH226030   4.606   7.306   6.112
 8696TIP3    H126031   4.678   7.251   6.079
 8696TIP3    H226032   4.542   7.243   6.146
 8697TIP3   OH226033   4.505   3.523   3.470
 8697TIP3    H126034   4.485   3.497   3.560
 8697TIP3    H226035   4.505   3.442   3.421
 8698TIP3   OH226036   5.450   6.457   0.465
 8698TIP3    H126037   5.416   6.374   0.431
 8698TIP3    H226038   5.537   6.436   0.498
 8699TIP3   OH226039   6.372   3.737   2.643
 8699TIP3    H126040   6.449   3.786   2.674
 8699TIP3    H226041   6.365   3.760   2.550
 8700TIP3   OH226042   1.453   2.580   0.662
 8700TIP3    H126043   1.527   2.609   0.608
 8700TIP3    H226044   1.442   2.487   0.640
 8701TIP3   OH226045   6.441   5.752   5.049
 8701TIP3    H126046   6.455   5.846   5.035
 8701TIP3    H226047   6.478   5.711   4.971
 8702TIP3   OH226048   7.897   4.814   2.273
 8702TIP3    H126049   7.984   4.849   2.251
 8702TIP3    H226050   7.842   4.892   2.282
 8703TIP3   OH226051   6.987   5.390   2.340
 8703TIP3    H126052   6.962   5.406   2.431
 8703TIP3    H226053   6.934   5.314   2.314
 8704TIP3   OH226054   5.750   5.931   4.126
 8704TIP3    H126055   5.825   5.920   4.068
 8704TIP3    H226056   5.704   5.847   4.122
 8705TIP3   OH226057   3.457   0.376   1.556
 8705TIP3    H126058   3.437   0.448   1.495
 8705TIP3    H226059   3.382   0.317   1.549
 8706TIP3   OH226060   2.788   6.189   2.854
 8706TIP3    H126061   2.798   6.118   2.792
 8706TIP3    H226062   2.804   6.149   2.940
 8707TIP3   OH226063   7.300   4.754   1.126
 8707TIP3    H126064   7.340   4.681   1.078
 8707TIP3    H226065   7.318   4.734   1.218
 8708TIP3   OH226066   2.032   3.980   4.495
 8708TIP3    H126067   2.013   4.004   4.586
 8708TIP3    H226068   2.065   3.890   4.500
 8709TIP3   OH226069   4.206   4.850   1.978
 8709TIP3    H126070   4.194   4.759   2.003
 8709TIP3    H226071   4.212   4.849   1.883
 8710TIP3   OH226072   5.249   0.071   4.785
 8710TIP3    H126073   5.305   0.146   4.805
 8710TIP3    H226074   5.308  -0.005   4.791
 8711TIP3   OH226075   0.086   3.531   2.155
 8711TIP3    H126076   0.098   3.599   2.088
 8711TIP3    H226077   0.147   3.555   2.225
 8712TIP3   OH226078   7.689   7.634   5.078
 8712TIP3    H126079   7.736   7.642   5.161
 8712TIP3    H226080   7.618   7.698   5.085
 8713TIP3   OH226081   4.585   3.855   5.499
 8713TIP3    H126082   4.672   3.879   5.467
 8713TIP3    H226083   4.562   3.925   5.560
 8714TIP3   OH226084   4.952   1.952   4.214
 8714TIP3    H126085   4.939   1.860   4.237
 8714TIP3    H226086   4.866   1.993   4.227
 8715TIP3   OH226087   5.140   3.352   6.435
 8715TIP3    H126088   5.101   3.413   6.372
 8715TIP3    H226089   5.210   3.309   6.386
 8716TIP3   OH226090   2.891   6.695   4.836
 8716TIP3    H126091   2.926   6.703   4.747
 8716TIP3    H226092   2.968   6.677   4.890
 8717TIP3   OH226093   2.639   1.471   6.580
 8717TIP3    H126094   2.713   1.453   6.522
 8717TIP3    H226095   2.571   1.507   6.522
 8718TIP3   OH226096   0.769   1.149   2.943
 8718TIP3    H126097   0.681   1.114   2.955
 8718TIP3    H226098   0.767   1.235   2.984
 8719TIP3   OH226099   3.529   2.907   4.448
 8719TIP3    H126100   3.521   2.864   4.533
 8719TIP3    H226101   3.551   2.998   4.469
 8720TIP3   OH226102   7.668   7.616   4.438
 8720TIP3    H126103   7.641   7.690   4.493
 8720TIP3    H226104   7.665   7.540   4.496
 8721TIP3   OH226105   5.706   6.184   2.898
 8721TIP3    H126106   5.624   6.228   2.876
 8721TIP3    H226107   5.773   6.251   2.888
 8722TIP3   OH226108   6.809   1.511   5.773
 8722TIP3    H126109   6.797   1.604   5.793
 8722TIP3    H226110   6.784   1.503   5.681
 8723TIP3   OH226111   5.647   2.608   1.659
 8723TIP3    H126112   5.562   2.650   1.649
 8723TIP3    H226113   5.640   2.527   1.608
 8724TIP3   OH226114   0.897   6.719   3.275
 8724TIP3    H126115   0.865   6.672   3.198
 8724TIP3    H226116   0.934   6.801   3.240
 8725TIP3   OH226117   2.578   2.333   3.914
 8725TIP3    H126118   2.521   2.330   3.837
 8725TIP3    H226119   2.630   2.413   3.902
 8726TIP3   OH226120   0.370   4.061   4.095
 8726TIP3    H126121   0.431   4.039   4.025
 8726TIP3    H226122   0.371   4.157   4.099
 8727TIP3   OH226123   7.313   5.445   0.492
 8727TIP3    H126124   7.385   5.500   0.522
 8727TIP3    H226125   7.346   5.404   0.412
 8728TIP3   OH226126   3.937   4.942   6.747
 8728TIP3    H126127   3.944   4.903   6.660
 8728TIP3    H226128   4.023   4.931   6.786
 8729TIP3   OH226129   1.575   6.024   2.985
 8729TIP3    H126130   1.550   5.997   2.896
 8729TIP3    H226131   1.616   6.109   2.973
 8730TIP3   OH226132   3.592   3.533   2.808
 8730TIP3    H126133   3.565   3.483   2.731
 8730TIP3    H226134   3.687   3.537   2.803
 8731TIP3   OH226135   2.568   6.351   4.660
 8731TIP3    H126136   2.561   6.429   4.715
 8731TIP3    H226137   2.579   6.385   4.572
 8732TIP3   OH226138   6.002   7.304   3.619
 8732TIP3    H126139   5.935   7.357   3.662
 8732TIP3    H226140   5.972   7.295   3.529
 8733TIP3   OH226141   6.392   2.956   1.032
 8733TIP3    H126142   6.400   2.902   1.111
 8733TIP3    H226143   6.475   3.003   1.026
 8734TIP3   OH226144   5.724   7.002   3.131
 8734TIP3    H126145   5.778   7.036   3.202
 8734TIP3    H226146   5.640   7.047   3.141
 8735TIP3   OH226147   4.890   0.109   3.297
 8735TIP3    H126148   4.977   0.079   3.270
 8735TIP3    H226149   4.855   0.154   3.220
 8736TIP3   OH226150   7.537   7.079   0.921
 8736TIP3    H126151   7.524   7.104   1.012
 8736TIP3    H226152   7.604   7.010   0.925
 8737TIP3   OH226153   6.495   5.356   5.787
 8737TIP3    H126154   6.430   5.375   5.721
 8737TIP3    H226155   6.467   5.272   5.825
 8738TIP3   OH226156   4.885   0.102   2.819
 8738TIP3    H126157   4.859   0.010   2.816
 8738TIP3    H226158   4.979   0.101   2.803
 8739TIP3   OH226159   6.798   4.276   3.924
 8739TIP3    H126160   6.832   4.297   4.011
 8739TIP3    H226161   6.717   4.228   3.941
 8740TIP3   OH226162   8.126   2.221   3.807
 8740TIP3    H126163   8.063   2.221   3.735
 8740TIP3    H226164   8.121   2.133   3.844
 8741TIP3   OH226165   4.816   4.961   1.661
 8741TIP3    H126166   4.877   4.985   1.731
 8741TIP3    H226167   4.863   4.895   1.610
 8742TIP3   OH226168   7.373   6.224   0.739
 8742TIP3    H126169   7.324   6.236   0.820
 8742TIP3    H226170   7.319   6.265   0.672
 8743TIP3   OH226171   4.520   5.480   4.740
 8743TIP3    H126172   4.546   5.509   4.653
 8743TIP3    H226173   4.596   5.497   4.795
 8744TIP3   OH226174   4.289   6.142   1.529
 8744TIP3    H126175   4.251   6.054   1.529
 8744TIP3    H226176   4.369   6.133   1.477
 8745TIP3   OH226177   1.377   0.647   4.878
 8745TIP3    H126178   1.356   0.624   4.968
 8745TIP3    H226179   1.295   0.680   4.841
 8746TIP3   OH226180   3.388   2.292   3.153
 8746TIP3    H126181   3.421   2.208   3.185
 8746TIP3    H226182   3.462   2.332   3.109
 8747TIP3   OH226183   0.488   7.224   1.912
 8747TIP3    H126184   0.444   7.288   1.968
 8747TIP3    H226185   0.573   7.210   1.953
 8748TIP3   OH226186   6.695   0.402   6.081
 8748TIP3    H126187   6.715   0.326   6.136
 8748TIP3    H226188   6.765   0.465   6.102
 8749TIP3   OH226189   4.563   7.327   0.240
 8749TIP3    H126190   4.469   7.309   0.233
 8749TIP3    H226191   4.569   7.420   0.257
 8750TIP3   OH226192   7.302   6.397   6.418
 8750TIP3    H126193   7.271   6.374   6.506
 8750TIP3    H226194   7.299   6.493   6.416
 8751TIP3   OH226195   1.331   1.371   5.182
 8751TIP3    H126196   1.394   1.434   5.148
 8751TIP3    H226197   1.367   1.286   5.157
 8752TIP3   OH226198   4.770   2.430   1.180
 8752TIP3    H126199   4.717   2.370   1.129
 8752TIP3    H226200   4.710   2.499   1.208
 8753TIP3   OH226201   7.187   5.442   3.437
 8753TIP3    H126202   7.250   5.492   3.386
 8753TIP3    H226203   7.228   5.431   3.523
 8754TIP3   OH226204   4.899   1.872   1.286
 8754TIP3    H126205   4.843   1.795   1.279
 8754TIP3    H226206   4.913   1.883   1.380
 8755TIP3   OH226207   1.344   6.308   6.705
 8755TIP3    H126208   1.369   6.285   6.616
 8755TIP3    H226209   1.269   6.252   6.725
 8756TIP3   OH226210   3.816   0.335   4.359
 8756TIP3    H126211   3.834   0.261   4.300
 8756TIP3    H226212   3.791   0.294   4.441
 8757TIP3   OH226213   4.497   4.062   4.990
 8757TIP3    H126214   4.566   4.004   4.956
 8757TIP3    H226215   4.454   4.096   4.912
 8758TIP3   OH226216   0.199   3.942   4.785
 8758TIP3    H126217   0.105   3.960   4.780
 8758TIP3    H226218   0.240   4.015   4.739
 8759TIP3   OH226219   6.252   3.903   3.839
 8759TIP3    H126220   6.347   3.895   3.827
 8759TIP3    H226221   6.242   3.980   3.896
 8760TIP3   OH226222   1.601   0.366   3.448
 8760TIP3    H126223   1.623   0.288   3.397
 8760TIP3    H226224   1.668   0.369   3.517
 8761TIP3   OH226225   7.177   5.934   2.576
 8761TIP3    H126226   7.233   5.868   2.535
 8761TIP3    H226227   7.238   5.993   2.621
 8762TIP3   OH226228   7.702   7.207   0.146
 8762TIP3    H126229   7.786   7.180   0.111
 8762TIP3    H226230   7.670   7.273   0.084
 8763TIP3   OH226231   0.824   6.881   4.593
 8763TIP3    H126232   0.787   6.878   4.505
 8763TIP3    H226233   0.894   6.947   4.587
 8764TIP3   OH226234   0.688   7.556   4.594
 8764TIP3    H126235   0.606   7.520   4.561
 8764TIP3    H226236   0.673   7.570   4.687
 8765TIP3   OH226237   6.366   1.439   4.199
 8765TIP3    H126238   6.440   1.377   4.200
 8765TIP3    H226239   6.310   1.409   4.270
 8766TIP3   OH226240   6.249   6.393   4.152
 8766TIP3    H126241   6.278   6.319   4.205
 8766TIP3    H226242   6.177   6.358   4.100
 8767TIP3   OH226243   3.146   6.272   3.403
 8767TIP3    H126244   3.220   6.310   3.356
 8767TIP3    H226245   3.132   6.187   3.362
 8768TIP3   OH226246   0.854   7.231   4.144
 8768TIP3    H126247   0.916   7.174   4.099
 8768TIP3    H226248   0.768   7.197   4.122
 8769TIP3   OH226249   5.870   5.249   4.107
 8769TIP3    H126250   5.808   5.317   4.135
 8769TIP3    H226251   5.838   5.223   4.021
 8770TIP3   OH226252   7.548   6.892   3.707
 8770TIP3    H126253   7.499   6.974   3.716
 8770TIP3    H226254   7.640   6.919   3.708
 8771TIP3   OH226255   0.103   1.714   0.438
 8771TIP3    H126256   0.052   1.652   0.490
 8771TIP3    H226257   0.191   1.709   0.474
 8772TIP3   OH226258   6.692   7.888   6.759
 8772TIP3    H126259   6.769   7.943   6.775
 8772TIP3    H226260   6.711   7.845   6.676
 8773TIP3   OH226261   5.657   7.125   4.484
 8773TIP3    H126262   5.682   7.152   4.396
 8773TIP3    H226263   5.562   7.111   4.479
 8774TIP3   OH226264   4.474   5.534   5.945
 8774TIP3    H126265   4.400   5.474   5.936
 8774TIP3    H226266   4.434   5.621   5.941
 8775TIP3   OH226267   4.359   2.487   0.460
 8775TIP3    H126268   4.426   2.538   0.414
 8775TIP3    H226269   4.362   2.520   0.550
 8776TIP3   OH226270   6.727   7.507   2.048
 8776TIP3    H126271   6.820   7.489   2.032
 8776TIP3    H226272   6.725   7.550   2.134
 8777TIP3   OH226273   0.227   4.033   6.044
 8777TIP3    H126274   0.240   4.011   6.136
 8777TIP3    H226275   0.224   4.128   6.042
 8778TIP3   OH226276   7.885   2.594   6.771
 8778TIP3    H126277   7.962   2.538   6.759
 8778TIP3    H226278   7.818   2.555   6.715
 8779TIP3   OH226279   4.344   7.529   2.486
 8779TIP3    H126280   4.377   7.458   2.542
 8779TIP3    H226281   4.381   7.609   2.524
 8780TIP3   OH226282   6.471   6.695   0.683
 8780TIP3    H126283   6.433   6.610   0.707
 8780TIP3    H226284   6.546   6.673   0.628
 8781TIP3   OH226285   1.535   2.781   2.666
 8781TIP3    H126286   1.575   2.696   2.648
 8781TIP3    H226287   1.558   2.835   2.590
 8782TIP3   OH226288   2.691   7.696   6.460
 8782TIP3    H126289   2.680   7.789   6.440
 8782TIP3    H226290   2.735   7.660   6.383
 8783TIP3   OH226291   4.887   6.887   2.732
 8783TIP3    H126292   4.929   6.939   2.664
 8783TIP3    H226293   4.896   6.796   2.701
 8784TIP3   OH226294   5.662   4.821   4.715
 8784TIP3    H126295   5.634   4.849   4.628
 8784TIP3    H226296   5.623   4.885   4.774
 8785TIP3   OH226297   1.428   0.254   0.116
 8785TIP3    H126298   1.397   0.253   0.026
 8785TIP3    H226299   1.514   0.297   0.111
 8786TIP3   OH226300   7.782   1.815   5.001
 8786TIP3    H126301   7.826   1.888   5.043
 8786TIP3    H226302   7.690   1.842   4.995
 8787TIP3   OH226303   5.827   2.844   0.433
 8787TIP3    H126304   5.875   2.772   0.475
 8787TIP3    H226305   5.763   2.801   0.377
 8788TIP3   OH226306   6.842   1.193   2.049
 8788TIP3    H126307   6.810   1.202   1.959
 8788TIP3    H226308   6.826   1.100   2.069
 8789TIP3   OH226309   5.953   7.368   4.145
 8789TIP3    H126310   5.966   7.435   4.078
 8789TIP3    H226311   6.015   7.391   4.214
 8790TIP3   OH226312   4.738   2.285   3.300
 8790TIP3    H126313   4.736   2.366   3.250
 8790TIP3    H226314   4.646   2.263   3.314
 8791TIP3   OH226315   3.677   7.163   3.351
 8791TIP3    H126316   3.631   7.216   3.286
 8791TIP3    H226317   3.722   7.096   3.301
 8792TIP3   OH226318   7.398   4.995   4.093
 8792TIP3    H126319   7.345   5.003   4.172
 8792TIP3    H226320   7.370   5.069   4.038
 8793TIP3   OH226321   8.078   4.546   1.173
 8793TIP3    H126322   8.015   4.515   1.237
 8793TIP3    H226323   8.027   4.605   1.116
 8794TIP3   OH226324   7.660   2.478   5.894
 8794TIP3    H126325   7.695   2.398   5.933
 8794TIP3    H226326   7.591   2.505   5.955
 8795TIP3   OH226327   4.270   2.557   6.106
 8795TIP3    H126328   4.245   2.498   6.035
 8795TIP3    H226329   4.332   2.506   6.158
 8796TIP3   OH226330   0.274   0.302   0.978
 8796TIP3    H126331   0.320   0.290   0.895
 8796TIP3    H226332   0.287   0.220   1.025
 8797TIP3   OH226333   4.605   6.459   4.289
 8797TIP3    H126334   4.606   6.481   4.382
 8797TIP3    H226335   4.522   6.414   4.276
 8798TIP3   OH226336   5.297   6.610   3.480
 8798TIP3    H126337   5.262   6.547   3.416
 8798TIP3    H226338   5.378   6.570   3.511
 8799TIP3   OH226339   0.601   5.363   2.005
 8799TIP3    H126340   0.656   5.363   1.926
 8799TIP3    H226341   0.605   5.273   2.037
 8800TIP3   OH226342   4.031   2.983   2.809
 8800TIP3    H126343   3.949   3.012   2.769
 8800TIP3    H226344   4.036   2.889   2.789
 8801TIP3   OH226345   0.272   3.398   3.733
 8801TIP3    H126346   0.335   3.467   3.711
 8801TIP3    H226347   0.218   3.436   3.802
 8802TIP3   OH226348   7.981   0.247   2.098
 8802TIP3    H126349   8.036   0.227   2.174
 8802TIP3    H226350   8.010   0.185   2.031
 8803TIP3   OH226351   5.137   7.716   5.648
 8803TIP3    H126352   5.145   7.797   5.598
 8803TIP3    H226353   5.218   7.668   5.629
 8804TIP3   OH226354   0.289   5.132   0.424
 8804TIP3    H126355   0.258   5.058   0.372
 8804TIP3    H226356   0.337   5.186   0.362
 8805TIP3   OH226357   4.985   0.096   0.551
 8805TIP3    H126358   4.971   0.148   0.630
 8805TIP3    H226359   4.916   0.123   0.491
 8806TIP3   OH226360   5.917   2.077   2.085
 8806TIP3    H126361   5.946   2.024   2.160
 8806TIP3    H226362   5.827   2.101   2.107
 8807TIP3   OH226363   6.666   1.715   3.510
 8807TIP3    H126364   6.705   1.740   3.426
 8807TIP3    H226365   6.697   1.626   3.526
 8808TIP3   OH226366   2.950   6.639   6.542
 8808TIP3    H126367   2.883   6.589   6.495
 8808TIP3    H226368   3.021   6.577   6.555
 8809TIP3   OH226369   2.729   2.449   6.322
 8809TIP3    H126370   2.664   2.389   6.358
 8809TIP3    H226371   2.781   2.476   6.398
 8810TIP3   OH226372   7.144   5.843   4.945
 8810TIP3    H126373   7.225   5.849   4.995
 8810TIP3    H226374   7.091   5.916   4.976
 8811TIP3   OH226375   5.525   0.534   6.767
 8811TIP3    H126376   5.435   0.516   6.742
 8811TIP3    H226377   5.531   0.505   6.858
 8812TIP3   OH226378   7.723   5.496   6.080
 8812TIP3    H126379   7.789   5.530   6.019
 8812TIP3    H226380   7.648   5.555   6.070
 8813TIP3   OH226381   5.062   7.765   6.678
 8813TIP3    H126382   5.133   7.829   6.676
 8813TIP3    H226383   5.072   7.721   6.763
 8814TIP3   OH226384   6.942   4.362   4.555
 8814TIP3    H126385   7.025   4.383   4.512
 8814TIP3    H226386   6.959   4.373   4.648
 8815TIP3   OH226387   4.946   3.168   5.381
 8815TIP3    H126388   4.876   3.155   5.317
 8815TIP3    H226389   5.023   3.129   5.340
 8816TIP3   OH226390   7.187   5.638   6.512
 8816TIP3    H126391   7.186   5.722   6.557
 8816TIP3    H226392   7.202   5.660   6.420
 8817TIP3   OH226393   2.071   5.424   4.551
 8817TIP3    H126394   2.104   5.348   4.501
 8817TIP3    H226395   2.020   5.386   4.622
 8818TIP3   OH226396   5.890   3.763   0.611
 8818TIP3    H126397   5.983   3.777   0.592
 8818TIP3    H226398   5.872   3.821   0.685
 8819TIP3   OH226399   5.314   2.061   6.338
 8819TIP3    H126400   5.256   2.087   6.409
 8819TIP3    H226401   5.276   2.102   6.260
 8820TIP3   OH226402   7.859   3.213   6.276
 8820TIP3    H126403   7.899   3.255   6.201
 8820TIP3    H226404   7.923   3.147   6.304
 8821TIP3   OH226405   6.222   6.033   5.913
 8821TIP3    H126406   6.147   6.091   5.925
 8821TIP3    H226407   6.229   5.984   5.995
 8822TIP3   OH226408   4.460   2.001   3.268
 8822TIP3    H126409   4.366   2.004   3.253
 8822TIP3    H226410   4.495   1.949   3.196
 8823TIP3   OH226411   6.156   3.340   1.934
 8823TIP3    H126412   6.151   3.330   2.029
 8823TIP3    H226413   6.069   3.369   1.908
 8824TIP3   OH226414   0.622   0.187   0.599
 8824TIP3    H126415   0.575   0.222   0.523
 8824TIP3    H226416   0.652   0.100   0.571
 8825TIP3   OH226417   0.495   5.871   5.181
 8825TIP3    H126418   0.543   5.908   5.106
 8825TIP3    H226419   0.457   5.791   5.146
 8826TIP3   OH226420   4.730   3.608   5.691
 8826TIP3    H126421   4.686   3.544   5.748
 8826TIP3    H226422   4.670   3.619   5.617
 8827TIP3   OH226423   8.189   3.511   5.074
 8827TIP3    H126424   8.159   3.484   4.987
 8827TIP3    H226425   8.200   3.606   5.068
 8828TIP3   OH226426   1.184   6.175   1.782
 8828TIP3    H126427   1.126   6.245   1.812
 8828TIP3    H226428   1.186   6.112   1.855
 8829TIP3   OH226429   6.111   5.679   0.601
 8829TIP3    H126430   6.066   5.667   0.517
 8829TIP3    H226431   6.067   5.619   0.661
 8830TIP3   OH226432   0.536   7.578   6.525
 8830TIP3    H126433   0.630   7.559   6.526
 8830TIP3    H226434   0.516   7.606   6.614
 8831TIP3   OH226435   6.224   0.504   5.875
 8831TIP3    H126436   6.305   0.479   5.831
 8831TIP3    H226437   6.223   0.451   5.955
 8832TIP3   OH226438   5.875   4.326   5.081
 8832TIP3    H126439   5.806   4.372   5.034
 8832TIP3    H226440   5.861   4.233   5.059
 8833TIP3   OH226441   5.224   3.902   6.055
 8833TIP3    H126442   5.219   3.965   6.127
 8833TIP3    H226443   5.209   3.954   5.976
 8834TIP3   OH226444   0.289   2.843   2.955
 8834TIP3    H126445   0.217   2.873   3.011
 8834TIP3    H226446   0.246   2.798   2.883
 8835TIP3   OH226447   8.053   0.154   3.117
 8835TIP3    H126448   8.110   0.224   3.148
 8835TIP3    H226449   7.967   0.195   3.108
 8836TIP3   OH226450   3.608   6.558   3.622
 8836TIP3    H126451   3.544   6.577   3.554
 8836TIP3    H226452   3.559   6.510   3.689
 8837TIP3   OH226453   3.918   2.664   1.600
 8837TIP3    H126454   3.919   2.568   1.599
 8837TIP3    H226455   3.839   2.687   1.648
 8838TIP3   OH226456   6.375   4.684   5.609
 8838TIP3    H126457   6.292   4.714   5.648
 8838TIP3    H226458   6.357   4.678   5.515
 8839TIP3   OH226459   4.659   5.637   3.100
 8839TIP3    H126460   4.613   5.553   3.095
 8839TIP3    H226461   4.732   5.629   3.040
 8840TIP3   OH226462   4.087   3.038   0.686
 8840TIP3    H126463   4.068   2.945   0.684
 8840TIP3    H226464   4.125   3.054   0.772
 8841TIP3   OH226465   5.669   0.269   1.284
 8841TIP3    H126466   5.701   0.226   1.364
 8841TIP3    H226467   5.721   0.349   1.278
 8842TIP3   OH226468   6.428   0.374   2.302
 8842TIP3    H126469   6.396   0.307   2.242
 8842TIP3    H226470   6.432   0.330   2.387
 8843TIP3   OH226471   1.472   0.078   5.604
 8843TIP3    H126472   1.472   0.102   5.697
 8843TIP3    H226473   1.428  -0.007   5.601
 8844TIP3   OH226474   6.264   0.465   5.163
 8844TIP3    H126475   6.178   0.503   5.145
 8844TIP3    H226476   6.245   0.383   5.209
 8845TIP3   OH226477   4.320   2.531   6.625
 8845TIP3    H126478   4.271   2.610   6.603
 8845TIP3    H226479   4.253   2.464   6.639
 8846TIP3   OH226480   2.882   3.289   6.430
 8846TIP3    H126481   2.931   3.300   6.348
 8846TIP3    H226482   2.950   3.282   6.497
 8847TIP3   OH226483   8.331   4.710   5.693
 8847TIP3    H126484   8.294   4.768   5.759
 8847TIP3    H226485   8.270   4.714   5.620
 8848TIP3   OH226486   7.682   3.942   0.770
 8848TIP3    H126487   7.610   4.005   0.762
 8848TIP3    H226488   7.752   3.991   0.814
 8849TIP3   OH226489   0.197   1.082   0.303
 8849TIP3    H126490   0.239   1.166   0.319
 8849TIP3    H226491   0.214   1.063   0.211
 8850TIP3   OH226492   6.825   7.693   5.543
 8850TIP3    H126493   6.803   7.673   5.452
 8850TIP3    H226494   6.742   7.722   5.581
 8851TIP3   OH226495   0.882   3.703   5.523
 8851TIP3    H126496   0.920   3.713   5.436
 8851TIP3    H226497   0.899   3.787   5.567
 8852TIP3   OH226498   1.532   5.209   1.207
 8852TIP3    H126499   1.474   5.160   1.148
 8852TIP3    H226500   1.595   5.251   1.149
 8853TIP3   OH226501   7.856   4.407   0.939
 8853TIP3    H126502   7.888   4.442   0.856
 8853TIP3    H226503   7.935   4.391   0.990
 8854TIP3   OH226504   4.203   2.730   3.050
 8854TIP3    H126505   4.109   2.745   3.043
 8854TIP3    H226506   4.232   2.787   3.121
 8855TIP3   OH226507   2.116   7.355   1.819
 8855TIP3    H126508   2.174   7.348   1.895
 8855TIP3    H226509   2.174   7.353   1.743
 8856TIP3   OH226510   3.347   4.234   0.986
 8856TIP3    H126511   3.367   4.143   0.967
 8856TIP3    H226512   3.364   4.243   1.080
 8857TIP3   OH226513   3.773   0.150   1.507
 8857TIP3    H126514   3.689   0.108   1.485
 8857TIP3    H226515   3.827   0.078   1.538
 8858TIP3   OH226516   3.806   3.591   1.387
 8858TIP3    H126517   3.741   3.659   1.371
 8858TIP3    H226518   3.882   3.638   1.420
 8859TIP3   OH226519   0.862   6.322   6.296
 8859TIP3    H126520   0.789   6.339   6.236
 8859TIP3    H226521   0.931   6.381   6.266
 8860TIP3   OH226522   2.339   0.818   0.477
 8860TIP3    H126523   2.391   0.888   0.516
 8860TIP3    H226524   2.282   0.787   0.547
 8861TIP3   OH226525   3.158   4.410   4.065
 8861TIP3    H126526   3.220   4.363   4.010
 8861TIP3    H226527   3.148   4.495   4.022
 8862TIP3   OH226528   4.008   6.057   1.707
 8862TIP3    H126529   4.061   6.067   1.629
 8862TIP3    H226530   3.962   6.140   1.717
 8863TIP3   OH226531   1.165   6.164   3.933
 8863TIP3    H126532   1.111   6.171   4.012
 8863TIP3    H226533   1.137   6.081   3.893
 8864TIP3   OH226534   7.692   7.418   6.479
 8864TIP3    H126535   7.618   7.437   6.536
 8864TIP3    H226536   7.700   7.495   6.423
 8865TIP3   OH226537   3.511   2.598   2.886
 8865TIP3    H126538   3.576   2.552   2.939
 8865TIP3    H226539   3.558   2.671   2.847
 8866TIP3   OH226540   5.991   5.106   4.766
 8866TIP3    H126541   5.930   5.154   4.822
 8866TIP3    H226542   6.065   5.087   4.823
 8867TIP3   OH226543   1.101   0.768   3.321
 8867TIP3    H126544   1.188   0.758   3.282
 8867TIP3    H226545   1.040   0.757   3.248
 8868TIP3   OH226546   7.185   2.780   2.405
 8868TIP3    H126547   7.136   2.755   2.326
 8868TIP3    H226548   7.262   2.826   2.371
 8869TIP3   OH226549   3.929   3.474   2.911
 8869TIP3    H126550   3.966   3.407   2.852
 8869TIP3    H226551   3.898   3.542   2.852
 8870TIP3   OH226552   2.547   0.219   5.323
 8870TIP3    H126553   2.608   0.193   5.255
 8870TIP3    H226554   2.474   0.260   5.276
 8871TIP3   OH226555   4.168   2.061   5.160
 8871TIP3    H126556   4.157   2.073   5.066
 8871TIP3    H226557   4.095   2.004   5.186
 8872TIP3   OH226558   7.034   2.651   2.205
 8872TIP3    H126559   6.957   2.605   2.240
 8872TIP3    H226560   7.085   2.583   2.162
 8873TIP3   OH226561   4.919   4.146   1.176
 8873TIP3    H126562   4.953   4.078   1.235
 8873TIP3    H226563   4.971   4.223   1.195
 8874TIP3   OH226564   6.623   6.059   0.117
 8874TIP3    H126565   6.706   6.083   0.158
 8874TIP3    H226566   6.570   6.138   0.120
 8875TIP3   OH226567   0.392   5.955   1.776
 8875TIP3    H126568   0.384   5.891   1.846
 8875TIP3    H226569   0.486   5.970   1.768
 8876TIP3   OH226570   1.614   2.271   6.519
 8876TIP3    H126571   1.697   2.282   6.473
 8876TIP3    H226572   1.560   2.218   6.461
 8877TIP3   OH226573   0.729   0.872   6.689
 8877TIP3    H126574   0.648   0.917   6.667
 8877TIP3    H226575   0.718   0.783   6.654
 8878TIP3   OH226576   5.907   3.091   1.575
 8878TIP3    H126577   5.819   3.088   1.614
 8878TIP3    H226578   5.896   3.049   1.490
 8879TIP3   OH226579   7.232   0.593   4.172
 8879TIP3    H126580   7.237   0.527   4.103
 8879TIP3    H226581   7.232   0.543   4.254
 8880TIP3   OH226582   1.950   4.152   6.344
 8880TIP3    H126583   1.908   4.075   6.384
 8880TIP3    H226584   1.889   4.180   6.276
 8881TIP3   OH226585   4.641   6.613   2.280
 8881TIP3    H126586   4.715   6.667   2.252
 8881TIP3    H226587   4.601   6.583   2.199
 8882TIP3   OH226588   6.126   2.481   3.559
 8882TIP3    H126589   6.160   2.499   3.646
 8882TIP3    H226590   6.135   2.564   3.512
 8883TIP3   OH226591   6.839   4.759   0.702
 8883TIP3    H126592   6.905   4.703   0.742
 8883TIP3    H226593   6.854   4.845   0.741
 8884TIP3   OH226594   7.398   2.754   4.788
 8884TIP3    H126595   7.493   2.764   4.794
 8884TIP3    H226596   7.386   2.679   4.730
 8885TIP3   OH226597   0.484   6.319   2.637
 8885TIP3    H126598   0.535   6.370   2.574
 8885TIP3    H226599   0.395   6.351   2.627
 8886TIP3   OH226600   3.438   6.753   2.334
 8886TIP3    H126601   3.383   6.697   2.280
 8886TIP3    H226602   3.523   6.752   2.290
 8887TIP3   OH226603   8.056   7.381   4.589
 8887TIP3    H126604   8.083   7.357   4.501
 8887TIP3    H226605   8.053   7.477   4.588
 8888TIP3   OH226606   4.209   6.541   5.635
 8888TIP3    H126607   4.269   6.509   5.703
 8888TIP3    H226608   4.254   6.616   5.597
 8889TIP3   OH226609   5.755   4.320   5.337
 8889TIP3    H126610   5.844   4.322   5.303
 8889TIP3    H226611   5.702   4.288   5.264
 8890TIP3   OH226612   0.340   3.644   3.400
 8890TIP3    H126613   0.265   3.681   3.448
 8890TIP3    H226614   0.402   3.717   3.394
 8891TIP3   OH226615   5.244   2.672   3.540
 8891TIP3    H126616   5.250   2.689   3.634
 8891TIP3    H226617   5.326   2.629   3.519
 8892TIP3   OH226618   6.499   0.726   3.029
 8892TIP3    H126619   6.571   0.782   3.059
 8892TIP3    H226620   6.502   0.731   2.934
 8893TIP3   OH226621   5.184   6.374   2.823
 8893TIP3    H126622   5.189   6.470   2.819
 8893TIP3    H226623   5.106   6.353   2.772
 8894TIP3   OH226624   4.748   7.138   4.668
 8894TIP3    H126625   4.676   7.094   4.713
 8894TIP3    H226626   4.707   7.179   4.592
 8895TIP3   OH226627   7.611   6.109   5.406
 8895TIP3    H126628   7.601   6.096   5.501
 8895TIP3    H226629   7.559   6.040   5.366
 8896TIP3   OH226630   7.751   0.768   3.621
 8896TIP3    H126631   7.671   0.806   3.583
 8896TIP3    H226632   7.721   0.689   3.666
 8897TIP3   OH226633   1.395   7.050   1.329
 8897TIP3    H126634   1.434   6.996   1.260
 8897TIP3    H226635   1.422   7.010   1.411
 8898TIP3   OH226636   1.587   5.419   1.394
 8898TIP3    H126637   1.613   5.396   1.305
 8898TIP3    H226638   1.543   5.341   1.427
 8899TIP3   OH226639   3.833   3.499   5.111
 8899TIP3    H126640   3.873   3.460   5.189
 8899TIP3    H226641   3.838   3.593   5.127
 8900TIP3   OH226642   3.290   0.488   0.577
 8900TIP3    H126643   3.344   0.432   0.633
 8900TIP3    H226644   3.319   0.469   0.488
 8901TIP3   OH226645   1.345   6.259   4.880
 8901TIP3    H126646   1.422   6.255   4.824
 8901TIP3    H226647   1.327   6.352   4.889
 8902TIP3   OH226648   2.683   1.720   3.014
 8902TIP3    H126649   2.680   1.815   3.010
 8902TIP3    H226650   2.776   1.700   3.026
 8903TIP3   OH226651   0.845   0.068   3.655
 8903TIP3    H126652   0.834   0.020   3.737
 8903TIP3    H226653   0.899   0.144   3.679
 8904TIP3   OH226654   2.659   3.583   3.823
 8904TIP3    H126655   2.594   3.587   3.893
 8904TIP3    H226656   2.742   3.565   3.868
 8905TIP3   OH226657   3.775   7.561   1.180
 8905TIP3    H126658   3.860   7.582   1.143
 8905TIP3    H226659   3.723   7.640   1.167
 8906TIP3   OH226660   0.730   0.118   4.237
 8906TIP3    H126661   0.720   0.023   4.232
 8906TIP3    H226662   0.676   0.151   4.164
 8907TIP3   OH226663   3.228   3.419   6.127
 8907TIP3    H126664   3.250   3.392   6.216
 8907TIP3    H226665   3.312   3.416   6.080
 8908TIP3   OH226666   3.815   0.441   0.799
 8908TIP3    H126667   3.802   0.390   0.878
 8908TIP3    H226668   3.742   0.503   0.798
 8909TIP3   OH226669   6.053   0.420   2.434
 8909TIP3    H126670   5.975   0.474   2.446
 8909TIP3    H226671   6.055   0.401   2.340
 8910TIP3   OH226672   1.245   5.993   4.702
 8910TIP3    H126673   1.261   5.948   4.785
 8910TIP3    H226674   1.296   6.074   4.708
 8911TIP3   OH226675   5.906   3.606   5.538
 8911TIP3    H126676   5.872   3.660   5.466
 8911TIP3    H226677   5.922   3.669   5.609
 8912TIP3   OH226678   0.587   2.350   5.364
 8912TIP3    H126679   0.670   2.381   5.401
 8912TIP3    H226680   0.593   2.254   5.369
 8913TIP3   OH226681   3.162   7.595   2.666
 8913TIP3    H126682   3.152   7.590   2.761
 8913TIP3    H226683   3.133   7.683   2.643
 8914TIP3   OH226684   0.303   4.432   2.559
 8914TIP3    H126685   0.214   4.399   2.563
 8914TIP3    H226686   0.332   4.412   2.470
 8915TIP3   OH226687   3.201   4.982   5.538
 8915TIP3    H126688   3.260   5.057   5.542
 8915TIP3    H226689   3.117   5.016   5.567
 8916TIP3   OH226690   6.652   6.278   1.250
 8916TIP3    H126691   6.681   6.244   1.165
 8916TIP3    H226692   6.569   6.233   1.268
 8917TIP3   OH226693   6.372   5.899   6.514
 8917TIP3    H126694   6.409   5.936   6.594
 8917TIP3    H226695   6.444   5.901   6.451
 8918TIP3   OH226696   6.887   4.494   5.571
 8918TIP3    H126697   6.796   4.511   5.594
 8918TIP3    H226698   6.937   4.546   5.633
 8919TIP3   OH226699   0.294   5.734   2.466
 8919TIP3    H126700   0.277   5.642   2.445
 8919TIP3    H226701   0.233   5.754   2.537
 8920TIP3   OH226702   1.003   1.930   3.663
 8920TIP3    H126703   1.098   1.936   3.655
 8920TIP3    H226704   0.988   1.903   3.754
 8921TIP3   OH226705   5.022   2.272   5.544
 8921TIP3    H126706   4.971   2.194   5.521
 8921TIP3    H226707   5.027   2.270   5.640
 8922TIP3   OH226708   3.061   6.703   4.585
 8922TIP3    H126709   3.140   6.651   4.569
 8922TIP3    H226710   3.062   6.769   4.516
 8923TIP3   OH226711   0.820   7.276   3.209
 8923TIP3    H126712   0.849   7.197   3.164
 8923TIP3    H226713   0.900   7.313   3.246
 8924TIP3   OH226714   3.376   7.188   2.936
 8924TIP3    H126715   3.313   7.158   2.871
 8924TIP3    H226716   3.416   7.108   2.970
 8925TIP3   OH226717   0.071   2.368   2.582
 8925TIP3    H126718   0.010   2.377   2.508
 8925TIP3    H226719   0.113   2.283   2.568
 8926TIP3   OH226720   5.940   2.767   6.131
 8926TIP3    H126721   6.001   2.721   6.073
 8926TIP3    H226722   5.955   2.860   6.113
 8927TIP3   OH226723   3.274   0.045   5.804
 8927TIP3    H126724   3.207   0.034   5.735
 8927TIP3    H226725   3.330  -0.032   5.795
 8928TIP3   OH226726   2.726   4.066   1.721
 8928TIP3    H126727   2.683   3.981   1.725
 8928TIP3    H226728   2.815   4.049   1.753
 8929TIP3   OH226729   6.969   1.975   3.401
 8929TIP3    H126730   7.041   1.978   3.463
 8929TIP3    H226731   6.924   1.893   3.419
 8930TIP3   OH226732   0.848   4.522   0.844
 8930TIP3    H126733   0.872   4.563   0.927
 8930TIP3    H226734   0.778   4.577   0.809
 8931TIP3   OH226735   4.616   3.555   5.433
 8931TIP3    H126736   4.602   3.468   5.470
 8931TIP3    H226737   4.702   3.551   5.392
 8932TIP3   OH226738   5.129   1.881   0.273
 8932TIP3    H126739   5.051   1.825   0.271
 8932TIP3    H226740   5.095   1.970   0.275
 8933TIP3   OH226741   5.573   4.134   4.170
 8933TIP3    H126742   5.564   4.065   4.104
 8933TIP3    H226743   5.588   4.213   4.119
 8934TIP3   OH226744   6.843   3.866   1.012
 8934TIP3    H126745   6.836   3.797   0.946
 8934TIP3    H226746   6.852   3.819   1.095
 8935TIP3   OH226747   7.385   3.792   2.188
 8935TIP3    H126748   7.373   3.827   2.100
 8935TIP3    H226749   7.453   3.847   2.227
 8936TIP3   OH226750   0.985   2.309   0.302
 8936TIP3    H126751   1.002   2.354   0.385
 8936TIP3    H226752   0.913   2.358   0.263
 8937TIP3   OH226753   0.302   6.893   4.977
 8937TIP3    H126754   0.308   6.797   4.982
 8937TIP3    H226755   0.208   6.911   4.976
 8938TIP3   OH226756   6.872   0.011   1.330
 8938TIP3    H126757   6.851  -0.059   1.268
 8938TIP3    H226758   6.788   0.052   1.349
 8939TIP3   OH226759   5.903   2.372   1.720
 8939TIP3    H126760   5.901   2.337   1.631
 8939TIP3    H226761   5.819   2.416   1.731
 8940TIP3   OH226762   0.257   3.093   5.868
 8940TIP3    H126763   0.288   3.074   5.956
 8940TIP3    H226764   0.163   3.105   5.878
 8941TIP3   OH226765   2.877   2.098   6.024
 8941TIP3    H126766   2.925   2.077   5.944
 8941TIP3    H226767   2.870   2.015   6.071
 8942TIP3   OH226768   3.219   2.153   2.148
 8942TIP3    H126769   3.141   2.186   2.104
 8942TIP3    H226770   3.186   2.087   2.209
 8943TIP3   OH226771   2.282   5.903   5.538
 8943TIP3    H126772   2.287   5.999   5.541
 8943TIP3    H226773   2.209   5.884   5.479
 8944TIP3   OH226774   3.493   4.096   1.505
 8944TIP3    H126775   3.562   4.138   1.556
 8944TIP3    H226776   3.496   4.139   1.420
 8945TIP3   OH226777   3.596   2.044   6.118
 8945TIP3    H126778   3.679   1.995   6.113
 8945TIP3    H226779   3.616   2.116   6.178
 8946TIP3   OH226780   5.546   1.248   6.161
 8946TIP3    H126781   5.640   1.262   6.152
 8946TIP3    H226782   5.530   1.258   6.255
 8947TIP3   OH226783   6.545   4.749   1.150
 8947TIP3    H126784   6.509   4.670   1.190
 8947TIP3    H226785   6.473   4.811   1.148
 8948TIP3   OH226786   2.687   3.030   3.949
 8948TIP3    H126787   2.596   3.055   3.932
 8948TIP3    H226788   2.738   3.108   3.925
 8949TIP3   OH226789   6.128   1.739   2.374
 8949TIP3    H126790   6.184   1.722   2.449
 8949TIP3    H226791   6.063   1.668   2.376
 8950TIP3   OH226792   7.808   0.313   3.119
 8950TIP3    H126793   7.793   0.408   3.120
 8950TIP3    H226794   7.723   0.276   3.096
 8951TIP3   OH226795   6.736   0.173   3.604
 8951TIP3    H126796   6.760   0.103   3.665
 8951TIP3    H226797   6.817   0.194   3.558
 8952TIP3   OH226798   5.863   1.541   1.438
 8952TIP3    H126799   5.895   1.466   1.489
 8952TIP3    H226800   5.932   1.607   1.447
 8953TIP3   OH226801   7.930   1.848   4.011
 8953TIP3    H126802   7.927   1.764   4.056
 8953TIP3    H226803   7.841   1.859   3.976
 8954TIP3   OH226804   2.243   5.846   4.009
 8954TIP3    H126805   2.230   5.920   4.068
 8954TIP3    H226806   2.338   5.841   3.998
 8955TIP3   OH226807   7.969   5.018   2.667
 8955TIP3    H126808   7.900   5.057   2.722
 8955TIP3    H226809   8.050   5.053   2.703
 8956TIP3   OH226810   1.249   6.862   1.597
 8956TIP3    H126811   1.330   6.820   1.567
 8956TIP3    H226812   1.192   6.789   1.621
 8957TIP3   OH226813   0.687   7.253   5.953
 8957TIP3    H126814   0.696   7.275   5.860
 8957TIP3    H226815   0.764   7.292   5.994
 8958TIP3   OH226816   2.984   0.294   0.447
 8958TIP3    H126817   2.892   0.285   0.421
 8958TIP3    H226818   3.023   0.209   0.427
 8959TIP3   OH226819   5.792   5.277   0.807
 8959TIP3    H126820   5.717   5.309   0.757
 8959TIP3    H226821   5.758   5.266   0.896
 8960TIP3   OH226822   4.258   2.167   0.663
 8960TIP3    H126823   4.189   2.175   0.597
 8960TIP3    H226824   4.336   2.203   0.620
 8961TIP3   OH226825   4.991   4.404   1.279
 8961TIP3    H126826   4.943   4.354   1.346
 8961TIP3    H226827   4.924   4.457   1.236
 8962TIP3   OH226828   4.580   2.625   0.405
 8962TIP3    H126829   4.631   2.581   0.474
 8962TIP3    H226830   4.642   2.684   0.363
 8963TIP3   OH226831   7.138   1.497   5.514
 8963TIP3    H126832   7.092   1.443   5.450
 8963TIP3    H226833   7.224   1.457   5.524
 8964TIP3   OH226834   1.373   5.552   2.269
 8964TIP3    H126835   1.350   5.463   2.243
 8964TIP3    H226836   1.390   5.597   2.187
 8965TIP3   OH226837   1.185   7.756   0.931
 8965TIP3    H126838   1.258   7.799   0.978
 8965TIP3    H226839   1.203   7.663   0.942
 8966TIP3   OH226840   2.181   5.122   3.543
 8966TIP3    H126841   2.266   5.151   3.511
 8966TIP3    H226842   2.172   5.033   3.511
 8967TIP3   OH226843   5.077   2.243   4.764
 8967TIP3    H126844   5.121   2.220   4.846
 8967TIP3    H226845   5.056   2.159   4.724
 8968TIP3   OH226846   6.718   6.887   3.044
 8968TIP3    H126847   6.660   6.958   3.072
 8968TIP3    H226848   6.790   6.890   3.107
 8969TIP3   OH226849   6.941   2.479   5.342
 8969TIP3    H126850   6.992   2.541   5.290
 8969TIP3    H226851   6.856   2.474   5.297
 8970TIP3   OH226852   5.771   5.611   3.325
 8970TIP3    H126853   5.735   5.528   3.294
 8970TIP3    H226854   5.710   5.677   3.291
 8971TIP3   OH226855   0.113   7.171   3.823
 8971TIP3    H126856   0.136   7.163   3.731
 8971TIP3    H226857   0.126   7.264   3.843
 8972TIP3   OH226858   6.197   5.596   4.542
 8972TIP3    H126859   6.291   5.580   4.539
 8972TIP3    H226860   6.163   5.527   4.599
 8973TIP3   OH226861   5.467   2.500   5.920
 8973TIP3    H126862   5.545   2.518   5.866
 8973TIP3    H226863   5.451   2.582   5.967
 8974TIP3   OH226864   4.632   4.698   3.701
 8974TIP3    H126865   4.560   4.655   3.747
 8974TIP3    H226866   4.696   4.629   3.687
 8975TIP3   OH226867   0.831   2.113   3.546
 8975TIP3    H126868   0.876   2.141   3.467
 8975TIP3    H226869   0.890   2.050   3.586
 8976TIP3   OH226870   3.479   2.184   0.434
 8976TIP3    H126871   3.532   2.197   0.513
 8976TIP3    H226872   3.526   2.117   0.384
 8977TIP3   OH226873   7.694   5.142   3.946
 8977TIP3    H126874   7.634   5.076   3.980
 8977TIP3    H226875   7.781   5.106   3.962
 8978TIP3   OH226876   2.672   0.996   2.504
 8978TIP3    H126877   2.733   1.053   2.553
 8978TIP3    H226878   2.683   0.910   2.544
 8979TIP3   OH226879   6.640   0.093   2.148
 8979TIP3    H126880   6.655   0.116   2.240
 8979TIP3    H226881   6.726   0.068   2.115
 8980TIP3   OH226882   1.343   2.674   0.925
 8980TIP3    H126883   1.256   2.655   0.890
 8980TIP3    H226884   1.403   2.634   0.862
 8981TIP3   OH226885   5.504   1.105   1.490
 8981TIP3    H126886   5.485   1.038   1.556
 8981TIP3    H226887   5.432   1.167   1.498
 8982TIP3   OH226888   5.793   1.976   6.628
 8982TIP3    H126889   5.787   2.020   6.712
 8982TIP3    H226890   5.733   1.902   6.635
 8983TIP3   OH226891   7.104   0.856   3.951
 8983TIP3    H126892   7.073   0.916   3.884
 8983TIP3    H226893   7.195   0.883   3.968
 8984TIP3   OH226894   0.862   2.202   1.124
 8984TIP3    H126895   0.903   2.273   1.175
 8984TIP3    H226896   0.803   2.247   1.064
 8985TIP3   OH226897   1.736   4.649   6.475
 8985TIP3    H126898   1.805   4.638   6.540
 8985TIP3    H226899   1.667   4.697   6.522
 8986TIP3   OH226900   7.221   5.788   6.280
 8986TIP3    H126901   7.268   5.852   6.227
 8986TIP3    H226902   7.134   5.825   6.292
 8987TIP3   OH226903   7.427   3.514   6.341
 8987TIP3    H126904   7.427   3.603   6.306
 8987TIP3    H226905   7.515   3.502   6.376
 8988TIP3   OH226906   8.001   3.936   4.114
 8988TIP3    H126907   7.911   3.944   4.082
 8988TIP3    H226908   8.008   3.844   4.142
 8989TIP3   OH226909   6.880   6.836   0.320
 8989TIP3    H126910   6.960   6.866   0.276
 8989TIP3    H226911   6.818   6.908   0.310
 8990TIP3   OH226912   4.367   2.696   4.928
 8990TIP3    H126913   4.325   2.657   5.005
 8990TIP3    H226914   4.390   2.621   4.873
 8991TIP3   OH226915   3.225   1.495   6.574
 8991TIP3    H126916   3.176   1.572   6.603
 8991TIP3    H226917   3.174   1.461   6.500
 8992TIP3   OH226918   1.544   3.884   1.930
 8992TIP3    H126919   1.506   3.807   1.887
 8992TIP3    H226920   1.471   3.924   1.976
 8993TIP3   OH226921   2.691   1.242   3.955
 8993TIP3    H126922   2.753   1.308   3.925
 8993TIP3    H226923   2.662   1.197   3.876
 8994TIP3   OH226924   0.170   6.722   0.416
 8994TIP3    H126925   0.092   6.734   0.362
 8994TIP3    H226926   0.230   6.671   0.362
 8995TIP3   OH226927   0.558   1.006   2.654
 8995TIP3    H126928   0.501   0.935   2.683
 8995TIP3    H226929   0.636   0.997   2.708
 8996TIP3   OH226930   2.418   3.682   6.044
 8996TIP3    H126931   2.326   3.688   6.021
 8996TIP3    H226932   2.419   3.649   6.135
 8997TIP3   OH226933   3.505   4.651   6.541
 8997TIP3    H126934   3.591   4.662   6.582
 8997TIP3    H226935   3.449   4.618   6.612
 8998TIP3   OH226936   0.930   2.741   6.689
 8998TIP3    H126937   0.850   2.760   6.738
 8998TIP3    H226938   0.922   2.792   6.608
 8999TIP3   OH226939   1.444   6.107   0.274
 8999TIP3    H126940   1.388   6.181   0.250
 8999TIP3    H226941   1.406   6.074   0.355
 9000TIP3   OH226942   8.328   1.280   5.068
 9000TIP3    H126943   8.325   1.363   5.019
 9000TIP3    H226944   8.236   1.255   5.077
 9001TIP3   OH226945   7.330   0.911   5.606
 9001TIP3    H126946   7.340   0.927   5.700
 9001TIP3    H226947   7.352   0.819   5.595
 9002TIP3   OH226948   1.168   2.421   4.394
 9002TIP3    H126949   1.203   2.481   4.328
 9002TIP3    H226950   1.116   2.477   4.452
 9003TIP3   OH226951   1.148   3.932   6.547
 9003TIP3    H126952   1.175   4.023   6.532
 9003TIP3    H226953   1.103   3.906   6.467
 9004TIP3   OH226954   1.471   6.321   2.204
 9004TIP3    H126955   1.497   6.354   2.290
 9004TIP3    H226956   1.531   6.363   2.142
 9005TIP3   OH226957   7.232   2.363   0.923
 9005TIP3    H126958   7.188   2.342   0.840
 9005TIP3    H226959   7.277   2.446   0.905
 9006TIP3   OH226960   0.304   0.429   3.337
 9006TIP3    H126961   0.328   0.521   3.351
 9006TIP3    H226962   0.353   0.404   3.258
 9007TIP3   OH226963   5.809   5.834   0.083
 9007TIP3    H126964   5.875   5.834   0.152
 9007TIP3    H226965   5.829   5.911   0.030
 9008TIP3   OH226966   1.789   2.322   6.284
 9008TIP3    H126967   1.811   2.240   6.241
 9008TIP3    H226968   1.868   2.346   6.332
 9009TIP3   OH226969   2.062   0.793   0.027
 9009TIP3    H126970   2.060   0.886   0.048
 9009TIP3    H226971   2.105   0.753   0.102
 9010TIP3   OH226972   6.123   1.142   1.872
 9010TIP3    H126973   6.210   1.179   1.884
 9010TIP3    H226974   6.116   1.074   1.939
 9011TIP3   OH226975   4.620   0.554   2.199
 9011TIP3    H126976   4.630   0.630   2.256
 9011TIP3    H226977   4.577   0.488   2.254
 9012TIP3   OH226978   3.130   6.393   2.682
 9012TIP3    H126979   3.066   6.324   2.665
 9012TIP3    H226980   3.183   6.398   2.603
 9013TIP3   OH226981   3.633   5.496   2.188
 9013TIP3    H126982   3.583   5.483   2.108
 9013TIP3    H226983   3.717   5.533   2.158
 9014TIP3   OH226984   0.690   1.676   4.213
 9014TIP3    H126985   0.765   1.665   4.154
 9014TIP3    H226986   0.642   1.751   4.177
 9015TIP3   OH226987   5.415   1.768   5.244
 9015TIP3    H126988   5.462   1.767   5.328
 9015TIP3    H226989   5.483   1.779   5.178
 9016TIP3   OH226990   0.418   3.314   5.908
 9016TIP3    H126991   0.474   3.325   5.831
 9016TIP3    H226992   0.342   3.266   5.876
 9017TIP3   OH226993   5.021   7.450   0.991
 9017TIP3    H126994   5.055   7.364   1.015
 9017TIP3    H226995   4.963   7.434   0.917
 9018TIP3   OH226996   6.075   6.350   5.768
 9018TIP3    H126997   6.160   6.389   5.789
 9018TIP3    H226998   6.052   6.299   5.845
 9019TIP3   OH226999   5.623  -0.030   1.891
 9019TIP3    H127000   5.603  -0.120   1.862
 9019TIP3    H227001   5.558   0.024   1.846
 9020TIP3   OH227002   3.875   5.108   1.246
 9020TIP3    H127003   3.818   5.032   1.242
 9020TIP3    H227004   3.865   5.151   1.160
 9021TIP3   OH227005   7.598   4.342   3.894
 9021TIP3    H127006   7.691   4.320   3.895
 9021TIP3    H227007   7.566   4.318   3.981
 9022TIP3   OH227008   3.467   6.656   1.107
 9022TIP3    H127009   3.524   6.709   1.050
 9022TIP3    H227010   3.527   6.609   1.164
 9023TIP3   OH227011   6.859   2.011   3.164
 9023TIP3    H127012   6.905   1.995   3.246
 9023TIP3    H227013   6.766   1.999   3.186
 9024TIP3   OH227014   3.686   5.708   0.998
 9024TIP3    H127015   3.722   5.769   1.062
 9024TIP3    H227016   3.757   5.694   0.935
 9025TIP3   OH227017   2.148   5.410   2.528
 9025TIP3    H127018   2.091   5.342   2.565
 9025TIP3    H227019   2.175   5.462   2.604
 9026TIP3   OH227020   4.324   6.388   4.261
 9026TIP3    H127021   4.321   6.299   4.297
 9026TIP3    H227022   4.278   6.441   4.326
 9027TIP3   OH227023   4.851   1.201   5.604
 9027TIP3    H127024   4.844   1.113   5.568
 9027TIP3    H227025   4.939   1.205   5.642
 9028TIP3   OH227026   7.149   4.303   0.755
 9028TIP3    H127027   7.055   4.318   0.745
 9028TIP3    H227028   7.162   4.215   0.718
 9029TIP3   OH227029   3.129   3.667   0.034
 9029TIP3    H127030   3.154   3.614  -0.042
 9029TIP3    H227031   3.206   3.662   0.092
 9030TIP3   OH227032   8.126   3.140   2.298
 9030TIP3    H127033   8.064   3.173   2.363
 9030TIP3    H227034   8.197   3.204   2.298
 9031TIP3   OH227035   1.689   4.015   2.819
 9031TIP3    H127036   1.714   4.100   2.782
 9031TIP3    H227037   1.674   3.959   2.742
 9032TIP3   OH227038   4.359   4.936   4.366
 9032TIP3    H127039   4.358   5.019   4.413
 9032TIP3    H227040   4.430   4.946   4.302
 9033TIP3   OH227041   4.242   1.522   2.838
 9033TIP3    H127042   4.247   1.432   2.804
 9033TIP3    H227043   4.204   1.512   2.925
 9034TIP3   OH227044   3.308   1.460   1.816
 9034TIP3    H127045   3.314   1.376   1.861
 9034TIP3    H227046   3.394   1.473   1.778
 9035TIP3   OH227047   2.494   1.239   4.590
 9035TIP3    H127048   2.483   1.189   4.509
 9035TIP3    H227049   2.537   1.320   4.563
 9036TIP3   OH227050   1.917   1.312   4.569
 9036TIP3    H127051   1.880   1.336   4.484
 9036TIP3    H227052   1.963   1.229   4.552
 9037TIP3   OH227053   0.971   7.247   1.230
 9037TIP3    H127054   0.934   7.163   1.205
 9037TIP3    H227055   0.896   7.300   1.257
 9038TIP3   OH227056   4.104   2.476   5.916
 9038TIP3    H127057   4.140   2.511   5.834
 9038TIP3    H227058   4.021   2.436   5.891
 9039TIP3   OH227059   2.549   1.817   3.442
 9039TIP3    H127060   2.487   1.809   3.515
 9039TIP3    H227061   2.535   1.737   3.391
 9040TIP3   OH227062   6.619   4.491   5.623
 9040TIP3    H127063   6.542   4.543   5.602
 9040TIP3    H227064   6.617   4.483   5.719
 9041TIP3   OH227065   1.633   6.836   6.282
 9041TIP3    H127066   1.582   6.843   6.362
 9041TIP3    H227067   1.621   6.745   6.253
 9042TIP3   OH227068   6.092   5.103   1.570
 9042TIP3    H127069   6.099   5.142   1.658
 9042TIP3    H227070   6.181   5.080   1.547
 9043TIP3   OH227071   5.962   4.636   2.215
 9043TIP3    H127072   5.967   4.724   2.253
 9043TIP3    H227073   5.992   4.578   2.284
 9044TIP3   OH227074   0.588   3.852   2.282
 9044TIP3    H127075   0.503   3.821   2.314
 9044TIP3    H227076   0.574   3.943   2.258
 9045TIP3   OH227077   2.470   7.105   1.009
 9045TIP3    H127078   2.510   7.018   1.000
 9045TIP3    H227079   2.532   7.155   1.062
 9046TIP3   OH227080   5.015   4.581   2.981
 9046TIP3    H127081   4.938   4.596   3.036
 9046TIP3    H227082   4.980   4.554   2.896
 9047TIP3   OH227083   5.331   6.039   6.424
 9047TIP3    H127084   5.269   6.039   6.351
 9047TIP3    H227085   5.325   6.127   6.461
 9048TIP3   OH227086   5.411   2.041   4.926
 9048TIP3    H127087   5.348   2.107   4.956
 9048TIP3    H227088   5.368   1.957   4.946
 9049TIP3   OH227089   3.984   2.059   2.355
 9049TIP3    H127090   3.968   2.137   2.301
 9049TIP3    H227091   3.962   2.087   2.444
 9050TIP3   OH227092   5.985   5.411   6.084
 9050TIP3    H127093   6.070   5.368   6.073
 9050TIP3    H227094   5.964   5.400   6.176
 9051TIP3   OH227095   2.976   4.310   5.695
 9051TIP3    H127096   2.935   4.250   5.757
 9051TIP3    H227097   2.950   4.397   5.726
 9052TIP3   OH227098   7.347   2.954   0.254
 9052TIP3    H127099   7.256   2.947   0.282
 9052TIP3    H227100   7.382   3.027   0.305
 9053TIP3   OH227101   7.321   6.308   6.710
 9053TIP3    H127102   7.407   6.267   6.719
 9053TIP3    H227103   7.337   6.401   6.721
 9054TIP3   OH227104   4.310  -0.010   0.671
 9054TIP3    H127105   4.235   0.050   0.669
 9054TIP3    H227106   4.293  -0.072   0.600
 9055TIP3   OH227107   6.767   0.091   0.982
 9055TIP3    H127108   6.713   0.108   0.905
 9055TIP3    H227109   6.855   0.078   0.947
 9056TIP3   OH227110   3.602   6.526   6.384
 9056TIP3    H127111   3.582   6.449   6.438
 9056TIP3    H227112   3.634   6.591   6.447
 9057TIP3   OH227113   5.310   7.306   5.212
 9057TIP3    H127114   5.247   7.361   5.258
 9057TIP3    H227115   5.257   7.256   5.150
 9058TIP3   OH227116   6.063   7.286   5.324
 9058TIP3    H127117   6.141   7.342   5.327
 9058TIP3    H227118   6.095   7.203   5.288
 9059TIP3   OH227119   1.353   2.109   6.510
 9059TIP3    H127120   1.310   2.194   6.507
 9059TIP3    H227121   1.302   2.054   6.449
 9060TIP3   OH227122   4.724   5.342   3.307
 9060TIP3    H127123   4.748   5.257   3.342
 9060TIP3    H227124   4.661   5.377   3.370
 9061TIP3   OH227125   4.610   6.141   0.839
 9061TIP3    H127126   4.698   6.172   0.816
 9061TIP3    H227127   4.571   6.116   0.755
 9062TIP3   OH227128   4.326   3.941   0.338
 9062TIP3    H127129   4.412   3.939   0.297
 9062TIP3    H227130   4.307   4.034   0.350
 9063TIP3   OH227131   1.887   5.456   3.186
 9063TIP3    H127132   1.874   5.369   3.149
 9063TIP3    H227133   1.933   5.441   3.269
 9064TIP3   OH227134   0.481   6.647   2.121
 9064TIP3    H127135   0.438   6.642   2.036
 9064TIP3    H227136   0.419   6.607   2.182
 9065TIP3   OH227137   6.188   6.028   0.153
 9065TIP3    H127138   6.241   6.057   0.228
 9065TIP3    H227139   6.247   5.970   0.104
 9066TIP3   OH227140   7.383   1.695   6.108
 9066TIP3    H127141   7.451   1.646   6.155
 9066TIP3    H227142   7.391   1.666   6.017
 9067TIP3   OH227143   8.167   2.082   0.226
 9067TIP3    H127144   8.097   2.117   0.281
 9067TIP3    H227145   8.234   2.053   0.288
 9068TIP3   OH227146   1.275   0.174   4.848
 9068TIP3    H127147   1.368   0.198   4.850
 9068TIP3    H227148   1.263   0.119   4.925
 9069TIP3   OH227149   4.638   3.766   4.206
 9069TIP3    H127150   4.650   3.779   4.112
 9069TIP3    H227151   4.697   3.693   4.228
 9070TIP3   OH227152   3.510   2.497   2.392
 9070TIP3    H127153   3.424   2.538   2.377
 9070TIP3    H227154   3.490   2.409   2.423
 9071TIP3   OH227155   7.554   3.096   4.804
 9071TIP3    H127156   7.644   3.063   4.800
 9071TIP3    H227157   7.537   3.107   4.898
 9072TIP3   OH227158   1.699   2.461   5.914
 9072TIP3    H127159   1.687   2.542   5.963
 9072TIP3    H227160   1.652   2.474   5.832
 9073TIP3   OH227161   5.249   2.326   2.796
 9073TIP3    H127162   5.188   2.284   2.736
 9073TIP3    H227163   5.228   2.419   2.789
 9074TIP3   OH227164   7.409   2.875   5.045
 9074TIP3    H127165   7.483   2.830   5.085
 9074TIP3    H227166   7.406   2.839   4.956
 9075TIP3   OH227167   8.106   3.668   5.730
 9075TIP3    H127168   8.051   3.592   5.712
 9075TIP3    H227169   8.131   3.700   5.643
 9076TIP3   OH227170   1.176   5.433   0.663
 9076TIP3    H127171   1.165   5.523   0.695
 9076TIP3    H227172   1.210   5.444   0.574
 9077TIP3   OH227173   3.552   5.806   0.610
 9077TIP3    H127174   3.537   5.882   0.667
 9077TIP3    H227175   3.470   5.757   0.614
 9078TIP3   OH227176   4.838   3.772   2.840
 9078TIP3    H127177   4.870   3.699   2.787
 9078TIP3    H227178   4.763   3.736   2.887
 9079TIP3   OH227179   0.436   5.706   3.524
 9079TIP3    H127180   0.429   5.801   3.537
 9079TIP3    H227181   0.529   5.687   3.540
 9080TIP3   OH227182   7.159   7.320   0.097
 9080TIP3    H127183   7.204   7.389   0.048
 9080TIP3    H227184   7.224   7.251   0.108
 9081TIP3   OH227185   0.327   6.580   5.218
 9081TIP3    H127186   0.238   6.584   5.254
 9081TIP3    H227187   0.315   6.554   5.127
 9082TIP3   OH227188   1.516   4.614   2.865
 9082TIP3    H127189   1.604   4.641   2.892
 9082TIP3    H227190   1.524   4.520   2.847
 9083TIP3   OH227191   6.820   1.564   6.277
 9083TIP3    H127192   6.804   1.484   6.327
 9083TIP3    H227193   6.796   1.635   6.338
 9084TIP3   OH227194   6.354   1.081   1.095
 9084TIP3    H127195   6.313   1.158   1.135
 9084TIP3    H227196   6.339   1.010   1.159
 9085TIP3   OH227197   3.232   0.724   2.996
 9085TIP3    H127198   3.211   0.695   3.085
 9085TIP3    H227199   3.327   0.733   2.996
 9086TIP3   OH227200   1.210   4.145   1.058
 9086TIP3    H127201   1.205   4.200   1.137
 9086TIP3    H227202   1.283   4.181   1.008
 9087TIP3   OH227203   0.595   6.278   5.541
 9087TIP3    H127204   0.552   6.364   5.547
 9087TIP3    H227205   0.533   6.217   5.582
 9088TIP3   OH227206   7.908   0.928   0.400
 9088TIP3    H127207   7.905   0.995   0.468
 9088TIP3    H227208   8.000   0.921   0.378
 9089TIP3   OH227209   5.694   0.104   4.820
 9089TIP3    H127210   5.707   0.180   4.763
 9089TIP3    H227211   5.600   0.087   4.816
 9090TIP3   OH227212   7.958   1.181   3.105
 9090TIP3    H127213   7.939   1.234   3.182
 9090TIP3    H227214   8.006   1.106   3.139
 9091TIP3   OH227215   2.394   3.624   2.669
 9091TIP3    H127216   2.453   3.684   2.623
 9091TIP3    H227217   2.358   3.568   2.600
 9092TIP3   OH227218   3.856   5.715   0.284
 9092TIP3    H127219   3.844   5.635   0.233
 9092TIP3    H227220   3.861   5.685   0.375
 9093TIP3   OH227221   7.204   4.961   5.980
 9093TIP3    H127222   7.285   4.910   5.972
 9093TIP3    H227223   7.162   4.927   6.060
 9094TIP3   OH227224   8.252   1.179   6.242
 9094TIP3    H127225   8.292   1.244   6.300
 9094TIP3    H227226   8.250   1.099   6.295
 9095TIP3   OH227227   5.550   5.347   1.617
 9095TIP3    H127228   5.605   5.417   1.651
 9095TIP3    H227229   5.572   5.342   1.524
 9096TIP3   OH227230   4.472   1.192   4.065
 9096TIP3    H127231   4.380   1.198   4.041
 9096TIP3    H227232   4.515   1.155   3.987
 9097TIP3   OH227233   7.999   0.010   2.580
 9097TIP3    H127234   7.987   0.091   2.532
 9097TIP3    H227235   7.966  -0.058   2.521
 9098TIP3   OH227236   4.999   4.974   0.739
 9098TIP3    H127237   5.081   5.003   0.699
 9098TIP3    H227238   5.011   4.990   0.833
 9099TIP3   OH227239   8.252   2.599   5.514
 9099TIP3    H127240   8.188   2.669   5.501
 9099TIP3    H227241   8.212   2.541   5.578
 9100TIP3   OH227242   2.511   7.085   2.623
 9100TIP3    H127243   2.545   7.016   2.679
 9100TIP3    H227244   2.533   7.057   2.534
 9101TIP3   OH227245   2.182   1.266   1.424
 9101TIP3    H127246   2.242   1.291   1.494
 9101TIP3    H227247   2.186   1.340   1.363
 9102TIP3   OH227248   1.862   6.412   0.001
 9102TIP3    H127249   1.793   6.347   0.016
 9102TIP3    H227250   1.939   6.377   0.046
 9103TIP3   OH227251   8.309   0.545   2.690
 9103TIP3    H127252   8.260   0.626   2.706
 9103TIP3    H227253   8.320   0.543   2.595
 9104TIP3   OH227254   0.625   6.281   3.536
 9104TIP3    H127255   0.630   6.207   3.597
 9104TIP3    H227256   0.684   6.346   3.574
 9105TIP3   OH227257   4.569   4.636   4.285
 9105TIP3    H127258   4.499   4.683   4.238
 9105TIP3    H227259   4.647   4.651   4.232
 9106TIP3   OH227260   0.800   4.295   3.561
 9106TIP3    H127261   0.882   4.344   3.573
 9106TIP3    H227262   0.737   4.342   3.616
 9107TIP3   OH227263   3.944   2.387   5.095
 9107TIP3    H127264   3.904   2.398   5.182
 9107TIP3    H227265   3.941   2.475   5.056
 9108TIP3   OH227266   1.037   6.311   0.401
 9108TIP3    H127267   0.974   6.346   0.338
 9108TIP3    H227268   1.040   6.217   0.383
 9109TIP3   OH227269   3.817   6.976   1.670
 9109TIP3    H127270   3.893   7.033   1.656
 9109TIP3    H227271   3.761   6.991   1.594
 9110TIP3   OH227272   2.141   7.202   4.788
 9110TIP3    H127273   2.169   7.254   4.713
 9110TIP3    H227274   2.102   7.124   4.749
 9111TIP3   OH227275   1.504   6.986   6.074
 9111TIP3    H127276   1.594   6.952   6.075
 9111TIP3    H227277   1.506   7.060   6.135
 9112TIP3   OH227278   1.661   2.511   3.858
 9112TIP3    H127279   1.596   2.558   3.911
 9112TIP3    H227280   1.610   2.443   3.814
 9113TIP3   OH227281   4.474   0.081   5.462
 9113TIP3    H127282   4.534   0.066   5.390
 9113TIP3    H227283   4.408   0.013   5.454
 9114TIP3   OH227284   4.910   0.921   2.786
 9114TIP3    H127285   4.884   0.948   2.874
 9114TIP3    H227286   4.933   1.002   2.741
 9115TIP3   OH227287   3.219   2.382   1.436
 9115TIP3    H127288   3.199   2.475   1.426
 9115TIP3    H227289   3.153   2.349   1.498
 9116TIP3   OH227290   7.238   0.083   2.414
 9116TIP3    H127291   7.300   0.147   2.448
 9116TIP3    H227292   7.195   0.047   2.491
 9117TIP3   OH227293   5.514   0.273   0.378
 9117TIP3    H127294   5.449   0.341   0.357
 9117TIP3    H227295   5.556   0.305   0.458
 9118TIP3   OH227296   2.149   1.711   3.415
 9118TIP3    H127297   2.200   1.679   3.340
 9118TIP3    H227298   2.199   1.785   3.447
 9119TIP3   OH227299   0.465   5.504   5.377
 9119TIP3    H127300   0.477   5.411   5.355
 9119TIP3    H227301   0.554   5.540   5.377
 9120TIP3   OH227302   7.766   4.782   4.562
 9120TIP3    H127303   7.831   4.783   4.633
 9120TIP3    H227304   7.817   4.759   4.484
 9121TIP3   OH227305   7.979   1.616   4.616
 9121TIP3    H127306   8.062   1.570   4.625
 9121TIP3    H227307   7.985   1.689   4.678
 9122TIP3   OH227308   1.950   0.550   1.678
 9122TIP3    H127309   1.996   0.491   1.619
 9122TIP3    H227310   2.020   0.605   1.716
 9123TIP3   OH227311   6.327   3.246   0.141
 9123TIP3    H127312   6.284   3.246   0.227
 9123TIP3    H227313   6.263   3.285   0.082
 9124TIP3   OH227314   7.426   7.809   3.579
 9124TIP3    H127315   7.484   7.757   3.635
 9124TIP3    H227316   7.373   7.744   3.533
 9125TIP3   OH227317   7.126   7.566   4.057
 9125TIP3    H127318   7.104   7.503   3.988
 9125TIP3    H227319   7.200   7.526   4.103
 9126TIP3   OH227320   8.131   5.838   5.363
 9126TIP3    H127321   8.083   5.920   5.351
 9126TIP3    H227322   8.221   5.867   5.381
 9127TIP3   OH227323   0.107   2.148   5.141
 9127TIP3    H127324   0.076   2.198   5.216
 9127TIP3    H227325   0.155   2.211   5.088
 9128TIP3   OH227326   0.551   4.596   3.513
 9128TIP3    H127327   0.578   4.575   3.424
 9128TIP3    H227328   0.491   4.670   3.504
 9129TIP3   OH227329   7.881   3.501   4.493
 9129TIP3    H127330   7.916   3.447   4.422
 9129TIP3    H227331   7.829   3.441   4.545
 9130TIP3   OH227332   1.283   2.870   5.342
 9130TIP3    H127333   1.271   2.953   5.387
 9130TIP3    H227334   1.206   2.860   5.287
 9131TIP3   OH227335   7.599   6.033   5.994
 9131TIP3    H127336   7.627   6.097   6.060
 9131TIP3    H227337   7.677   5.978   5.980
 9132TIP3   OH227338   4.400   0.675   5.903
 9132TIP3    H127339   4.388   0.588   5.864
 9132TIP3    H227340   4.405   0.659   5.997
 9133TIP3   OH227341   1.488   0.883   6.066
 9133TIP3    H127342   1.578   0.916   6.068
 9133TIP3    H227343   1.466   0.882   5.973
 9134TIP3   OH227344   1.189   4.340   6.065
 9134TIP3    H127345   1.144   4.372   5.987
 9134TIP3    H227346   1.156   4.251   6.077
 9135TIP3   OH227347   4.391   6.703   5.539
 9135TIP3    H127348   4.392   6.776   5.478
 9135TIP3    H227349   4.416   6.741   5.623
 9136TIP3   OH227350   0.491   7.225   5.083
 9136TIP3    H127351   0.422   7.256   5.141
 9136TIP3    H227352   0.465   7.255   4.996
 9137TIP3   OH227353   7.145   3.139   3.933
 9137TIP3    H127354   7.159   3.044   3.937
 9137TIP3    H227355   7.172   3.171   4.020
 9138TIP3   OH227356   1.881   5.024   3.466
 9138TIP3    H127357   1.928   4.968   3.528
 9138TIP3    H227358   1.861   4.966   3.393
 9139TIP3   OH227359   4.285   0.346   3.745
 9139TIP3    H127360   4.316   0.322   3.833
 9139TIP3    H227361   4.239   0.429   3.758
 9140TIP3   OH227362   0.663   6.823   2.009
 9140TIP3    H127363   0.713   6.877   2.070
 9140TIP3    H227364   0.590   6.789   2.061
 9141TIP3   OH227365   7.655   3.483   2.047
 9141TIP3    H127366   7.700   3.400   2.032
 9141TIP3    H227367   7.592   3.464   2.117
 9142TIP3   OH227368   6.752   2.355   1.530
 9142TIP3    H127369   6.657   2.363   1.526
 9142TIP3    H227370   6.777   2.329   1.441
 9143TIP3   OH227371   0.190   2.832   3.371
 9143TIP3    H127372   0.133   2.909   3.368
 9143TIP3    H227373   0.142   2.765   3.323
 9144TIP3   OH227374   0.104   4.996   1.351
 9144TIP3    H127375   0.041   4.961   1.288
 9144TIP3    H227376   0.070   5.083   1.373
 9145TIP3   OH227377   7.259   1.451   2.182
 9145TIP3    H127378   7.259   1.539   2.219
 9145TIP3    H227379   7.167   1.430   2.168
 9146TIP3   OH227380   7.276   7.517   1.521
 9146TIP3    H127381   7.362   7.479   1.538
 9146TIP3    H227382   7.218   7.476   1.584
 9147TIP3   OH227383   4.895   4.714   1.537
 9147TIP3    H127384   4.983   4.707   1.500
 9147TIP3    H227385   4.836   4.709   1.462
 9148TIP3   OH227386   0.906   0.090   0.433
 9148TIP3    H127387   0.928   0.015   0.378
 9148TIP3    H227388   0.811   0.086   0.443
 9149TIP3   OH227389   3.751   3.999   3.840
 9149TIP3    H127390   3.845   4.014   3.847
 9149TIP3    H227391   3.721   3.994   3.931
 9150TIP3   OH227392   1.298   2.102   5.079
 9150TIP3    H127393   1.390   2.096   5.106
 9150TIP3    H227394   1.263   2.014   5.090
 9151TIP3   OH227395   6.625   3.959   0.475
 9151TIP3    H127396   6.678   3.962   0.395
 9151TIP3    H227397   6.653   3.879   0.520
 9152TIP3   OH227398   1.050   5.494   4.101
 9152TIP3    H127399   0.991   5.433   4.146
 9152TIP3    H227400   1.039   5.576   4.148
 9153TIP3   OH227401   5.546   3.756   0.136
 9153TIP3    H127402   5.615   3.730   0.075
 9153TIP3    H227403   5.582   3.829   0.184
 9154TIP3   OH227404   6.800   4.080   2.937
 9154TIP3    H127405   6.727   4.055   2.995
 9154TIP3    H227406   6.854   4.137   2.990
 9155TIP3   OH227407   3.918   3.843   6.600
 9155TIP3    H127408   3.966   3.797   6.530
 9155TIP3    H227409   3.898   3.775   6.664
 9156TIP3   OH227410   7.230   5.274   4.940
 9156TIP3    H127411   7.259   5.188   4.911
 9156TIP3    H227412   7.219   5.266   5.035
 9157TIP3   OH227413   4.980   7.126   4.528
 9157TIP3    H127414   4.903   7.156   4.576
 9157TIP3    H227415   5.032   7.078   4.593
 9158TIP3   OH227416   1.757   5.063   0.442
 9158TIP3    H127417   1.773   5.089   0.533
 9158TIP3    H227418   1.719   4.976   0.449
 9159TIP3   OH227419   8.016   3.718   0.832
 9159TIP3    H127420   7.944   3.712   0.895
 9159TIP3    H227421   7.974   3.706   0.747
 9160TIP3   OH227422   4.035   3.762   3.853
 9160TIP3    H127423   4.047   3.675   3.890
 9160TIP3    H227424   4.043   3.822   3.927
 9161TIP3   OH227425   5.594   3.047   3.064
 9161TIP3    H127426   5.543   2.966   3.071
 9161TIP3    H227427   5.676   3.020   3.022
 9162TIP3   OH227428   3.254   7.468   5.855
 9162TIP3    H127429   3.240   7.558   5.824
 9162TIP3    H227430   3.178   7.420   5.821
 9163TIP3   OH227431   5.895   2.609   0.097
 9163TIP3    H127432   5.924   2.681   0.153
 9163TIP3    H227433   5.950   2.615   0.020
 9164TIP3   OH227434   0.050  -0.012   2.907
 9164TIP3    H127435   0.056   0.034   2.991
 9164TIP3    H227436   0.141  -0.021   2.878
 9165TIP3   OH227437   1.923   1.009   0.933
 9165TIP3    H127438   1.935   1.103   0.947
 9165TIP3    H227439   1.898   0.976   1.019
 9166TIP3   OH227440   1.508   4.854   0.364
 9166TIP3    H127441   1.563   4.823   0.437
 9166TIP3    H227442   1.419   4.832   0.391
 9167TIP3   OH227443   8.124   5.315   5.272
 9167TIP3    H127444   8.033   5.336   5.297
 9167TIP3    H227445   8.119   5.298   5.178
 9168TIP3   OH227446   3.105   1.480   5.588
 9168TIP3    H127447   3.094   1.392   5.551
 9168TIP3    H227448   3.193   1.479   5.626
 9169TIP3   OH227449   8.273   6.505   4.646
 9169TIP3    H127450   8.201   6.526   4.586
 9169TIP3    H227451   8.230   6.481   4.728
 9170TIP3   OH227452   1.930   0.898   2.446
 9170TIP3    H127453   2.000   0.909   2.510
 9170TIP3    H227454   1.865   0.964   2.471
 9171TIP3   OH227455   1.886   2.205   0.636
 9171TIP3    H127456   1.958   2.228   0.577
 9171TIP3    H227457   1.830   2.147   0.584
 9172TIP3   OH227458   6.529   4.727   0.554
 9172TIP3    H127459   6.531   4.631   0.557
 9172TIP3    H227460   6.616   4.754   0.582
 9173TIP3   OH227461   6.507   1.752   0.530
 9173TIP3    H127462   6.485   1.678   0.587
 9173TIP3    H227463   6.469   1.828   0.574
 9174TIP3   OH227464   8.130   0.600   5.580
 9174TIP3    H127465   8.048   0.568   5.544
 9174TIP3    H227466   8.129   0.694   5.562
 9175TIP3   OH227467   2.688   2.756   6.266
 9175TIP3    H127468   2.766   2.702   6.251
 9175TIP3    H227469   2.678   2.807   6.186
 9176TIP3   OH227470   5.190   7.032   5.389
 9176TIP3    H127471   5.257   7.027   5.457
 9176TIP3    H227472   5.232   6.994   5.312
 9177TIP3   OH227473   0.898   7.701   4.813
 9177TIP3    H127474   0.846   7.771   4.852
 9177TIP3    H227475   0.912   7.638   4.884
 9178TIP3   OH227476   2.388   5.356   6.765
 9178TIP3    H127477   2.397   5.418   6.692
 9178TIP3    H227478   2.434   5.399   6.837
 9179TIP3   OH227479   1.293   4.708   6.333
 9179TIP3    H127480   1.295   4.630   6.388
 9179TIP3    H227481   1.331   4.681   6.250
 9180TIP3   OH227482   3.977   2.666   2.689
 9180TIP3    H127483   4.044   2.724   2.654
 9180TIP3    H227484   3.934   2.630   2.611
 9181TIP3   OH227485   5.369   6.000   4.329
 9181TIP3    H127486   5.465   6.000   4.324
 9181TIP3    H227487   5.341   6.026   4.241
 9182TIP3   OH227488   4.645   5.351   1.283
 9182TIP3    H127489   4.571   5.406   1.311
 9182TIP3    H227490   4.608   5.263   1.278
 9183TIP3   OH227491   6.643   5.601   2.760
 9183TIP3    H127492   6.585   5.676   2.746
 9183TIP3    H227493   6.700   5.629   2.832
 9184TIP3   OH227494   6.153   6.289   6.450
 9184TIP3    H127495   6.137   6.320   6.361
 9184TIP3    H227496   6.161   6.368   6.503
 9185TIP3   OH227497   3.616   3.361   5.021
 9185TIP3    H127498   3.543   3.390   5.077
 9185TIP3    H227499   3.690   3.413   5.050
 9186TIP3   OH227500   7.919   6.562   1.612
 9186TIP3    H127501   8.011   6.565   1.639
 9186TIP3    H227502   7.870   6.561   1.695
 9187TIP3   OH227503   6.400   5.104   5.826
 9187TIP3    H127504   6.312   5.092   5.862
 9187TIP3    H227505   6.452   5.036   5.869
 9188TIP3   OH227506   6.279   6.303   1.269
 9188TIP3    H127507   6.201   6.329   1.220
 9188TIP3    H227508   6.281   6.207   1.263
 9189TIP3   OH227509   3.367   1.214   5.859
 9189TIP3    H127510   3.320   1.176   5.785
 9189TIP3    H227511   3.349   1.154   5.932
 9190TIP3   OH227512   4.112   7.294   5.594
 9190TIP3    H127513   4.095   7.360   5.527
 9190TIP3    H227514   4.154   7.222   5.548
 9191TIP3   OH227515   4.730   5.494   0.636
 9191TIP3    H127516   4.757   5.538   0.555
 9191TIP3    H227517   4.782   5.414   0.638
 9192TIP3   OH227518   2.857   2.802   4.805
 9192TIP3    H127519   2.844   2.707   4.807
 9192TIP3    H227520   2.947   2.814   4.777
 9193TIP3   OH227521   6.938   5.483   2.072
 9193TIP3    H127522   6.849   5.453   2.052
 9193TIP3    H227523   6.953   5.454   2.162
 9194TIP3   OH227524   7.349   7.016   5.204
 9194TIP3    H127525   7.395   6.968   5.273
 9194TIP3    H227526   7.397   7.099   5.198
 9195TIP3   OH227527   2.614   3.541   4.136
 9195TIP3    H127528   2.537   3.503   4.177
 9195TIP3    H227529   2.623   3.628   4.176
 9196TIP3   OH227530   6.207   5.983   6.754
 9196TIP3    H127531   6.301   6.000   6.746
 9196TIP3    H227532   6.167   6.035   6.684
 9197TIP3   OH227533   6.326   5.522   2.739
 9197TIP3    H127534   6.417   5.493   2.751
 9197TIP3    H227535   6.297   5.548   2.827
 9198TIP3   OH227536   3.791   7.482   4.305
 9198TIP3    H127537   3.724   7.468   4.238
 9198TIP3    H227538   3.793   7.400   4.355
 9199TIP3   OH227539   1.388   1.279   1.951
 9199TIP3    H127540   1.295   1.285   1.929
 9199TIP3    H227541   1.390   1.272   2.046
 9200TIP3   OH227542   1.245   0.872   5.123
 9200TIP3    H127543   1.208   0.935   5.061
 9200TIP3    H227544   1.175   0.857   5.187
 9201TIP3   OH227545   1.709   7.624   0.839
 9201TIP3    H127546   1.633   7.567   0.846
 9201TIP3    H227547   1.673   7.708   0.811
 9202TIP3   OH227548   8.017   6.211   3.571
 9202TIP3    H127549   8.085   6.255   3.621
 9202TIP3    H227550   7.940   6.212   3.628
 9203TIP3   OH227551   1.004   0.835   5.285
 9203TIP3    H127552   0.983   0.822   5.378
 9203TIP3    H227553   0.927   0.878   5.249
 9204TIP3   OH227554   2.927   4.804   0.852
 9204TIP3    H127555   2.985   4.755   0.910
 9204TIP3    H227556   2.839   4.780   0.880
 9205TIP3   OH227557   4.300   4.295   5.006
 9205TIP3    H127558   4.311   4.257   4.919
 9205TIP3    H227559   4.379   4.268   5.054
 9206TIP3   OH227560   2.093   3.932   1.227
 9206TIP3    H127561   2.036   4.007   1.241
 9206TIP3    H227562   2.087   3.914   1.133
 9207TIP3   OH227563   8.141   3.225   3.607
 9207TIP3    H127564   8.195   3.304   3.614
 9207TIP3    H227565   8.166   3.187   3.523
 9208TIP3   OH227566   7.660   6.137   3.372
 9208TIP3    H127567   7.623   6.218   3.407
 9208TIP3    H227568   7.690   6.089   3.449
 9209TIP3   OH227569   5.600   5.825   3.253
 9209TIP3    H127570   5.622   5.847   3.163
 9209TIP3    H227571   5.504   5.813   3.252
 9210TIP3   OH227572   6.703   3.966   4.312
 9210TIP3    H127573   6.708   3.873   4.333
 9210TIP3    H227574   6.779   3.982   4.257
 9211TIP3   OH227575   5.342   5.919   3.184
 9211TIP3    H127576   5.279   5.872   3.239
 9211TIP3    H227577   5.289   5.960   3.116
 9212TIP3   OH227578   7.428   0.774   1.525
 9212TIP3    H127579   7.400   0.862   1.547
 9212TIP3    H227580   7.395   0.760   1.436
 9213TIP3   OH227581   5.599   3.617   1.155
 9213TIP3    H127582   5.544   3.597   1.231
 9213TIP3    H227583   5.540   3.658   1.093
 9214TIP3   OH227584   5.944   2.327   3.378
 9214TIP3    H127585   5.972   2.325   3.286
 9214TIP3    H227586   5.949   2.420   3.402
 9215TIP3   OH227587   7.452   0.288   0.241
 9215TIP3    H127588   7.467   0.381   0.254
 9215TIP3    H227589   7.415   0.281   0.153
 9216TIP3   OH227590   5.244   0.906   3.178
 9216TIP3    H127591   5.228   0.992   3.219
 9216TIP3    H227592   5.253   0.846   3.252
 9217TIP3   OH227593   1.021   2.373   1.262
 9217TIP3    H127594   1.063   2.367   1.348
 9217TIP3    H227595   1.093   2.360   1.200
 9218TIP3   OH227596   1.544   2.386   0.891
 9218TIP3    H127597   1.583   2.459   0.843
 9218TIP3    H227598   1.603   2.312   0.877
 9219TIP3   OH227599   6.502   1.327   6.206
 9219TIP3    H127600   6.440   1.336   6.278
 9219TIP3    H227601   6.473   1.390   6.141
 9220TIP3   OH227602   0.440   0.723   5.894
 9220TIP3    H127603   0.350   0.713   5.925
 9220TIP3    H227604   0.490   0.749   5.972
 9221TIP3   OH227605   7.098   2.662   0.109
 9221TIP3    H127606   7.060   2.706   0.185
 9221TIP3    H227607   7.028   2.664   0.044
 9222TIP3   OH227608   4.067   1.405   5.845
 9222TIP3    H127609   4.080   1.337   5.911
 9222TIP3    H227610   4.154   1.443   5.832
 9223TIP3   OH227611   0.545   1.196   4.592
 9223TIP3    H127612   0.602   1.120   4.595
 9223TIP3    H227613   0.457   1.160   4.580
 9224TIP3   OH227614   0.626   4.617   3.874
 9224TIP3    H127615   0.637   4.665   3.956
 9224TIP3    H227616   0.677   4.666   3.810
 9225TIP3   OH227617   6.624   3.069   1.146
 9225TIP3    H127618   6.704   3.025   1.173
 9225TIP3    H227619   6.579   3.091   1.228
 9226TIP3   OH227620   2.594   3.529   4.555
 9226TIP3    H127621   2.526   3.596   4.554
 9226TIP3    H227622   2.554   3.453   4.514
 9227TIP3   OH227623   0.913   1.437   1.868
 9227TIP3    H127624   0.872   1.518   1.837
 9227TIP3    H227625   0.868   1.419   1.951
 9228TIP3   OH227626   2.895   5.023   0.704
 9228TIP3    H127627   2.802   5.018   0.681
 9228TIP3    H227628   2.913   4.940   0.749
 9229TIP3   OH227629   0.221   1.843   1.852
 9229TIP3    H127630   0.193   1.842   1.943
 9229TIP3    H227631   0.274   1.922   1.844
 9230TIP3   OH227632   3.080   2.006   5.493
 9230TIP3    H127633   3.137   1.932   5.473
 9230TIP3    H227634   3.119   2.080   5.448
 9231TIP3   OH227635   7.458   2.889   5.855
 9231TIP3    H127636   7.459   2.808   5.804
 9231TIP3    H227637   7.507   2.952   5.802
 9232TIP3   OH227638   7.709   7.087   5.235
 9232TIP3    H127639   7.663   7.136   5.166
 9232TIP3    H227640   7.798   7.121   5.233
 9233TIP3   OH227641   4.025   4.459   1.152
 9233TIP3    H127642   4.004   4.434   1.242
 9233TIP3    H227643   4.121   4.456   1.148
 9234TIP3   OH227644   1.351   7.519   0.649
 9234TIP3    H127645   1.408   7.542   0.576
 9234TIP3    H227646   1.262   7.527   0.613
 9235TIP3   OH227647   7.864   4.561   1.357
 9235TIP3    H127648   7.885   4.604   1.440
 9235TIP3    H227649   7.840   4.472   1.381
 9236TIP3   OH227650   1.400   3.375   5.872
 9236TIP3    H127651   1.393   3.280   5.885
 9236TIP3    H227652   1.477   3.401   5.922
 9237TIP3   OH227653   6.611   3.295   0.766
 9237TIP3    H127654   6.525   3.271   0.802
 9237TIP3    H227655   6.673   3.238   0.810
 9238TIP3   OH227656   3.134   1.552   3.537
 9238TIP3    H127657   3.156   1.460   3.551
 9238TIP3    H227658   3.150   1.594   3.621
 9239TIP3   OH227659   0.767   6.589   0.572
 9239TIP3    H127660   0.699   6.523   0.585
 9239TIP3    H227661   0.849   6.539   0.569
 9240TIP3   OH227662   7.305   1.908   3.207
 9240TIP3    H127663   7.382   1.864   3.172
 9240TIP3    H227664   7.232   1.872   3.156
 9241TIP3   OH227665   0.973   3.130   2.561
 9241TIP3    H127666   0.906   3.065   2.585
 9241TIP3    H227667   1.051   3.103   2.610
 9242TIP3   OH227668   1.436   4.315   1.435
 9242TIP3    H127669   1.444   4.247   1.502
 9242TIP3    H227670   1.497   4.383   1.461
 9243TIP3   OH227671   0.446   4.953   5.426
 9243TIP3    H127672   0.401   5.008   5.362
 9243TIP3    H227673   0.518   4.914   5.378
 9244TIP3   OH227674   2.963   6.402   3.014
 9244TIP3    H127675   2.908   6.431   2.941
 9244TIP3    H227676   2.961   6.476   3.075
 9245TIP3   OH227677   7.368   3.462   5.283
 9245TIP3    H127678   7.296   3.402   5.307
 9245TIP3    H227679   7.351   3.483   5.191
 9246TIP3   OH227680   4.367   5.370   2.637
 9246TIP3    H127681   4.286   5.420   2.645
 9246TIP3    H227682   4.345   5.299   2.576
 9247TIP3   OH227683   7.719   2.194   0.677
 9247TIP3    H127684   7.660   2.265   0.652
 9247TIP3    H227685   7.661   2.125   0.709
 9248TIP3   OH227686   1.051   3.937   0.134
 9248TIP3    H127687   0.971   3.901   0.097
 9248TIP3    H227688   1.059   4.023   0.094
 9249TIP3   OH227689   7.089   7.171   6.233
 9249TIP3    H127690   7.075   7.265   6.246
 9249TIP3    H227691   7.036   7.149   6.156
 9250TIP3   OH227692   4.650   1.607   4.769
 9250TIP3    H127693   4.642   1.513   4.786
 9250TIP3    H227694   4.575   1.628   4.713
 9251TIP3   OH227695   0.402   6.100   5.635
 9251TIP3    H127696   0.436   6.048   5.708
 9251TIP3    H227697   0.409   6.042   5.559
 9252TIP3   OH227698   0.995   5.497   3.304
 9252TIP3    H127699   1.079   5.508   3.348
 9252TIP3    H227700   1.000   5.555   3.228
 9253TIP3   OH227701   3.753   4.934   6.270
 9253TIP3    H127702   3.766   5.012   6.216
 9253TIP3    H227703   3.671   4.896   6.239
 9254TIP3   OH227704   4.818   7.319   0.842
 9254TIP3    H127705   4.814   7.247   0.905
 9254TIP3    H227706   4.738   7.310   0.791
 9255TIP3   OH227707   0.239   3.558   0.811
 9255TIP3    H127708   0.301   3.623   0.778
 9255TIP3    H227709   0.153   3.593   0.789
 9256TIP3   OH227710   5.490   1.608   2.788
 9256TIP3    H127711   5.513   1.585   2.878
 9256TIP3    H227712   5.401   1.643   2.795
 9257TIP3   OH227713   4.687   5.504   2.336
 9257TIP3    H127714   4.677   5.441   2.408
 9257TIP3    H227715   4.750   5.463   2.277
 9258TIP3   OH227716   6.513   4.278   6.504
 9258TIP3    H127717   6.473   4.339   6.566
 9258TIP3    H227718   6.582   4.235   6.554
 9259TIP3   OH227719   7.043   7.118   2.649
 9259TIP3    H127720   6.998   7.142   2.568
 9259TIP3    H227721   6.981   7.059   2.694
 9260TIP3   OH227722   4.417   3.168   5.833
 9260TIP3    H127723   4.388   3.109   5.903
 9260TIP3    H227724   4.508   3.188   5.854
 9261TIP3   OH227725   1.775   4.406   5.023
 9261TIP3    H127726   1.870   4.414   5.033
 9261TIP3    H227727   1.741   4.494   5.039
 9262TIP3   OH227728   4.990   4.262   6.583
 9262TIP3    H127729   4.963   4.171   6.596
 9262TIP3    H227730   4.912   4.305   6.549
 9263TIP3   OH227731   1.331   3.901   2.134
 9263TIP3    H127732   1.261   3.913   2.069
 9263TIP3    H227733   1.334   3.806   2.148
 9264TIP3   OH227734   8.050   2.786   6.711
 9264TIP3    H127735   8.046   2.846   6.785
 9264TIP3    H227736   7.971   2.732   6.720
 9265TIP3   OH227737   8.128   6.897   2.535
 9265TIP3    H127738   8.211   6.909   2.581
 9265TIP3    H227739   8.144   6.823   2.477
 9266TIP3   OH227740   7.652   1.966   0.834
 9266TIP3    H127741   7.688   1.979   0.922
 9266TIP3    H227742   7.617   1.877   0.836
 9267TIP3   OH227743   2.614   2.680   5.736
 9267TIP3    H127744   2.661   2.651   5.814
 9267TIP3    H227745   2.535   2.626   5.734
 9268TIP3   OH227746   2.419   1.700   0.379
 9268TIP3    H127747   2.401   1.618   0.334
 9268TIP3    H227748   2.432   1.675   0.471
 9269TIP3   OH227749   6.302   0.812   6.167
 9269TIP3    H127750   6.341   0.845   6.086
 9269TIP3    H227751   6.366   0.749   6.201
 9270TIP3   OH227752   4.988   3.241   4.405
 9270TIP3    H127753   5.045   3.172   4.441
 9270TIP3    H227754   4.900   3.216   4.434
 9271TIP3   OH227755   7.710   5.793   1.450
 9271TIP3    H127756   7.638   5.845   1.414
 9271TIP3    H227757   7.729   5.729   1.381
 9272TIP3   OH227758   2.518   1.107   1.308
 9272TIP3    H127759   2.472   1.024   1.318
 9272TIP3    H227760   2.593   1.086   1.251
 9273TIP3   OH227761   7.309   0.554   1.031
 9273TIP3    H127762   7.284   0.585   1.118
 9273TIP3    H227763   7.255   0.605   0.971
 9274TIP3   OH227764   0.632   5.952   4.931
 9274TIP3    H127765   0.717   5.957   4.976
 9274TIP3    H227766   0.654   5.958   4.838
 9275TIP3   OH227767   4.983   7.336   3.550
 9275TIP3    H127768   4.937   7.419   3.559
 9275TIP3    H227769   5.015   7.315   3.638
 9276TIP3   OH227770   2.629   1.912   1.149
 9276TIP3    H127771   2.652   1.972   1.077
 9276TIP3    H227772   2.641   1.825   1.112
 9277TIP3   OH227773   1.614   5.208   4.602
 9277TIP3    H127774   1.653   5.215   4.688
 9277TIP3    H227775   1.537   5.265   4.606
 9278TIP3   OH227776   6.389   3.729   2.380
 9278TIP3    H127777   6.446   3.793   2.337
 9278TIP3    H227778   6.407   3.647   2.333
 9279TIP3   OH227779   3.830   3.670   0.645
 9279TIP3    H127780   3.756   3.612   0.663
 9279TIP3    H227781   3.898   3.612   0.610
 9280TIP3   OH227782   0.303   1.052   4.607
 9280TIP3    H127783   0.281   0.959   4.612
 9280TIP3    H227784   0.273   1.079   4.520
 9281TIP3   OH227785   2.210   7.084   5.858
 9281TIP3    H127786   2.188   7.108   5.948
 9281TIP3    H227787   2.180   6.993   5.849
 9282TIP3   OH227788   7.964   0.760   4.619
 9282TIP3    H127789   7.903   0.782   4.689
 9282TIP3    H227790   8.050   0.759   4.661
 9283TIP3   OH227791   6.398   3.744   4.835
 9283TIP3    H127792   6.391   3.648   4.841
 9283TIP3    H227793   6.384   3.763   4.743
 9284TIP3   OH227794   2.423   5.876   0.969
 9284TIP3    H127795   2.418   5.791   1.014
 9284TIP3    H227796   2.448   5.938   1.038
 9285TIP3   OH227797   3.883   4.398   0.185
 9285TIP3    H127798   3.939   4.421   0.259
 9285TIP3    H227799   3.941   4.399   0.109
 9286TIP3   OH227800   6.738   7.617   2.309
 9286TIP3    H127801   6.705   7.699   2.271
 9286TIP3    H227802   6.812   7.644   2.364
 9287TIP3   OH227803   5.091   1.636   3.927
 9287TIP3    H127804   5.002   1.652   3.894
 9287TIP3    H227805   5.128   1.724   3.939
 9288TIP3   OH227806   3.200   5.367   0.979
 9288TIP3    H127807   3.144   5.300   0.939
 9288TIP3    H227808   3.260   5.393   0.909
 9289TIP3   OH227809   5.947   7.745   6.435
 9289TIP3    H127810   5.852   7.757   6.445
 9289TIP3    H227811   5.955   7.662   6.387
 9290TIP3   OH227812   0.386   7.781   5.559
 9290TIP3    H127813   0.368   7.860   5.507
 9290TIP3    H227814   0.438   7.726   5.500
 9291TIP3   OH227815   0.752   4.476   6.254
 9291TIP3    H127816   0.712   4.535   6.190
 9291TIP3    H227817   0.846   4.486   6.240
 9292TIP3   OH227818   0.260   0.906   3.143
 9292TIP3    H127819   0.223   0.994   3.154
 9292TIP3    H227820   0.221   0.855   3.213
 9293TIP3   OH227821   5.865   0.156   2.934
 9293TIP3    H127822   5.864   0.102   3.012
 9293TIP3    H227823   5.901   0.100   2.866
 9294TIP3   OH227824   4.628   2.993   1.872
 9294TIP3    H127825   4.643   3.065   1.934
 9294TIP3    H227826   4.704   2.996   1.813
 9295TIP3   OH227827   1.344   1.519   4.087
 9295TIP3    H127828   1.306   1.524   3.999
 9295TIP3    H227829   1.272   1.544   4.145
 9296TIP3   OH227830   2.155   7.492   6.565
 9296TIP3    H127831   2.223   7.558   6.574
 9296TIP3    H227832   2.073   7.538   6.584
 9297TIP3   OH227833   5.394   5.622   2.079
 9297TIP3    H127834   5.345   5.571   2.144
 9297TIP3    H227835   5.445   5.557   2.030
 9298TIP3   OH227836   7.593   0.011   6.255
 9298TIP3    H127837   7.659  -0.024   6.314
 9298TIP3    H227838   7.631   0.093   6.223
 9299TIP3   OH227839   2.325   1.940   5.212
 9299TIP3    H127840   2.364   1.956   5.298
 9299TIP3    H227841   2.251   1.882   5.230
 9300TIP3   OH227842   0.811   5.477   6.529
 9300TIP3    H127843   0.732   5.424   6.517
 9300TIP3    H227844   0.779   5.565   6.547
 9301TIP3   OH227845   7.985   2.544   3.886
 9301TIP3    H127846   8.056   2.487   3.914
 9301TIP3    H227847   7.989   2.542   3.790
 9302TIP3   OH227848   1.885   7.465   0.051
 9302TIP3    H127849   1.973   7.471   0.087
 9302TIP3    H227850   1.882   7.534  -0.016
 9303TIP3   OH227851   4.729   2.558   4.050
 9303TIP3    H127852   4.801   2.508   4.089
 9303TIP3    H227853   4.744   2.648   4.079
 9304TIP3   OH227854   7.301   4.524   1.767
 9304TIP3    H127855   7.352   4.505   1.846
 9304TIP3    H227856   7.340   4.468   1.700
 9305TIP3   OH227857   1.796   7.796   6.039
 9305TIP3    H127858   1.884   7.825   6.017
 9305TIP3    H227859   1.739   7.849   5.984
 9306TIP3   OH227860   1.257   4.937   0.757
 9306TIP3    H127861   1.245   5.030   0.774
 9306TIP3    H227862   1.177   4.896   0.790
 9307TIP3   OH227863   3.517   0.223   2.643
 9307TIP3    H127864   3.465   0.303   2.635
 9307TIP3    H227865   3.452   0.152   2.635
 9308TIP3   OH227866   0.818   6.999   5.782
 9308TIP3    H127867   0.842   6.986   5.690
 9308TIP3    H227868   0.723   7.008   5.782
 9309TIP3   OH227869   2.868   2.818   3.954
 9309TIP3    H127870   2.930   2.874   4.000
 9309TIP3    H227871   2.788   2.872   3.947
 9310TIP3   OH227872   2.285   7.609   4.340
 9310TIP3    H127873   2.342   7.602   4.417
 9310TIP3    H227874   2.322   7.681   4.289
 9311TIP3   OH227875   5.347   4.627   3.537
 9311TIP3    H127876   5.286   4.579   3.594
 9311TIP3    H227877   5.321   4.719   3.546
 9312TIP3   OH227878   1.909   1.759   4.287
 9312TIP3    H127879   1.863   1.830   4.244
 9312TIP3    H227880   1.846   1.724   4.350
 9313TIP3   OH227881   8.193   6.189   5.820
 9313TIP3    H127882   8.258   6.123   5.843
 9313TIP3    H227883   8.115   6.164   5.869
 9314TIP3   OH227884   7.355   1.703   0.712
 9314TIP3    H127885   7.449   1.684   0.711
 9314TIP3    H227886   7.348   1.782   0.767
 9315TIP3   OH227887   6.131  -0.013   5.086
 9315TIP3    H127888   6.131   0.005   5.180
 9315TIP3    H227889   6.040  -0.030   5.064
 9316TIP3   OH227890   2.451   6.836   0.174
 9316TIP3    H127891   2.360   6.856   0.149
 9316TIP3    H227892   2.443   6.790   0.257
 9317TIP3   OH227893   3.698   4.034   4.637
 9317TIP3    H127894   3.623   4.067   4.687
 9317TIP3    H227895   3.757   4.109   4.630
 9318TIP3   OH227896   5.766   5.176   2.903
 9318TIP3    H127897   5.673   5.197   2.906
 9318TIP3    H227898   5.804   5.244   2.847
 9319TIP3   OH227899   6.160   2.819   5.221
 9319TIP3    H127900   6.245   2.823   5.178
 9319TIP3    H227901   6.166   2.882   5.293
 9320TIP3   OH227902   1.044   1.225   3.597
 9320TIP3    H127903   0.954   1.256   3.586
 9320TIP3    H227904   1.067   1.188   3.511
 9321TIP3   OH227905   0.406   7.674   1.197
 9321TIP3    H127906   0.320   7.659   1.238
 9321TIP3    H227907   0.453   7.729   1.259
 9322TIP3   OH227908   5.102   1.054   4.696
 9322TIP3    H127909   5.148   1.113   4.756
 9322TIP3    H227910   5.095   1.104   4.615
 9323TIP3   OH227911   6.384   7.436   2.728
 9323TIP3    H127912   6.471   7.475   2.726
 9323TIP3    H227913   6.359   7.428   2.636
 9324TIP3   OH227914   6.746   7.517   6.578
 9324TIP3    H127915   6.805   7.585   6.545
 9324TIP3    H227916   6.801   7.463   6.635
 9325TIP3   OH227917   6.812   1.642   3.827
 9325TIP3    H127918   6.796   1.576   3.759
 9325TIP3    H227919   6.789   1.597   3.909
 9326TIP3   OH227920   7.776   2.613   4.020
 9326TIP3    H127921   7.853   2.586   3.970
 9326TIP3    H227922   7.704   2.609   3.956
 9327TIP3   OH227923   4.489   0.929   2.130
 9327TIP3    H127924   4.432   0.853   2.140
 9327TIP3    H227925   4.577   0.896   2.150
 9328TIP3   OH227926   2.211   7.551   4.842
 9328TIP3    H127927   2.179   7.525   4.756
 9328TIP3    H227928   2.305   7.535   4.839
 9329TIP3   OH227929   8.145   0.551   3.675
 9329TIP3    H127930   8.081   0.537   3.605
 9329TIP3    H227931   8.216   0.491   3.654
 9330TIP3   OH227932   0.081   7.499   1.066
 9330TIP3    H127933  -0.001   7.450   1.060
 9330TIP3    H227934   0.129   7.457   1.138
 9331TIP3   OH227935   4.350   0.408   4.872
 9331TIP3    H127936   4.330   0.496   4.840
 9331TIP3    H227937   4.281   0.389   4.935
 9332TIP3   OH227938   4.001   1.572   3.733
 9332TIP3    H127939   3.920   1.539   3.692
 9332TIP3    H227940   4.069   1.557   3.667
 9333TIP3   OH227941   1.590   3.193   6.143
 9333TIP3    H127942   1.668   3.182   6.196
 9333TIP3    H227943   1.593   3.284   6.114
 9334TIP3   OH227944   6.577   0.658   0.572
 9334TIP3    H127945   6.510   0.692   0.632
 9334TIP3    H227946   6.579   0.721   0.500
 9335TIP3   OH227947   2.793   2.026   6.308
 9335TIP3    H127948   2.780   1.951   6.251
 9335TIP3    H227949   2.883   2.016   6.341
 9336TIP3   OH227950   6.803   6.687   2.191
 9336TIP3    H127951   6.814   6.667   2.098
 9336TIP3    H227952   6.709   6.698   2.203
 9337TIP3   OH227953   7.107   5.372   0.684
 9337TIP3    H127954   7.136   5.408   0.768
 9337TIP3    H227955   7.182   5.386   0.625
 9338TIP3   OH227956   1.370   4.246   4.736
 9338TIP3    H127957   1.348   4.302   4.810
 9338TIP3    H227958   1.358   4.157   4.769
 9339TIP3   OH227959   5.180   0.205   6.591
 9339TIP3    H127960   5.254   0.198   6.531
 9339TIP3    H227961   5.217   0.195   6.678
 9340TIP3   OH227962   2.662   6.595   5.485
 9340TIP3    H127963   2.596   6.662   5.502
 9340TIP3    H227964   2.638   6.523   5.543
 9341TIP3   OH227965   4.135   2.221   4.382
 9341TIP3    H127966   4.106   2.308   4.357
 9341TIP3    H227967   4.060   2.183   4.427
 9342TIP3   OH227968   3.437   7.617   2.166
 9342TIP3    H127969   3.477   7.579   2.087
 9342TIP3    H227970   3.360   7.663   2.133
 9343TIP3   OH227971   7.908   5.323   4.601
 9343TIP3    H127972   7.954   5.303   4.519
 9343TIP3    H227973   7.846   5.250   4.611
 9344TIP3   OH227974   7.102   2.417   6.559
 9344TIP3    H127975   7.034   2.407   6.625
 9344TIP3    H227976   7.160   2.343   6.574
 9345TIP3   OH227977   8.127  -0.014  -0.005
 9345TIP3    H127978   8.093   0.073   0.016
 9345TIP3    H227979   8.204  -0.023   0.051
 9346TIP3   OH227980   4.678   1.569   3.614
 9346TIP3    H127981   4.662   1.660   3.639
 9346TIP3    H227982   4.621   1.518   3.672
 9347TIP3   OH227983   5.552   7.807   3.840
 9347TIP3    H127984   5.459   7.786   3.838
 9347TIP3    H227985   5.586   7.775   3.756
 9348TIP3   OH227986   2.251   0.176   2.125
 9348TIP3    H127987   2.272   0.108   2.189
 9348TIP3    H227988   2.223   0.251   2.178
 9349TIP3   OH227989   1.687   1.747   0.526
 9349TIP3    H127990   1.704   1.668   0.577
 9349TIP3    H227991   1.596   1.736   0.497
 9350TIP3   OH227992   6.184   5.481   1.559
 9350TIP3    H127993   6.095   5.506   1.534
 9350TIP3    H227994   6.218   5.435   1.482
 9351TIP3   OH227995   1.406   6.848   4.021
 9351TIP3    H127996   1.400   6.889   4.107
 9351TIP3    H227997   1.498   6.861   3.996
 9352TIP3   OH227998   5.831   0.371   3.485
 9352TIP3    H127999   5.857   0.280   3.476
 9352TIP3    H228000   5.836   0.407   3.396
 9353TIP3   OH228001   5.653   3.250   6.413
 9353TIP3    H128002   5.600   3.171   6.417
 9353TIP3    H228003   5.704   3.241   6.332
 9354TIP3   OH228004   3.881   0.033   6.634
 9354TIP3    H128005   3.941   0.108   6.628
 9354TIP3    H228006   3.903  -0.021   6.558
 9355TIP3   OH228007   6.411   6.971   4.263
 9355TIP3    H128008   6.403   6.994   4.356
 9355TIP3    H228009   6.383   7.050   4.217
 9356TIP3   OH228010   4.583   6.453   6.211
 9356TIP3    H128011   4.603   6.444   6.118
 9356TIP3    H228012   4.569   6.363   6.241
 9357TIP3   OH228013   3.088   5.400   2.992
 9357TIP3    H128014   3.123   5.320   3.031
 9357TIP3    H228015   3.024   5.431   3.056
 9358TIP3   OH228016   7.013   3.572   3.388
 9358TIP3    H128017   6.930   3.530   3.410
 9358TIP3    H228018   7.029   3.633   3.460
 9359TIP3   OH228019   3.716   2.295   5.584
 9359TIP3    H128020   3.785   2.232   5.606
 9359TIP3    H228021   3.755   2.352   5.518
 9360TIP3   OH228022   3.804   3.208   1.716
 9360TIP3    H128023   3.766   3.281   1.667
 9360TIP3    H228024   3.750   3.201   1.795
 9361TIP3   OH228025   4.855   0.635   0.201
 9361TIP3    H128026   4.838   0.546   0.234
 9361TIP3    H228027   4.790   0.689   0.244
 9362TIP3   OH228028   5.739   4.245   0.508
 9362TIP3    H128029   5.718   4.160   0.546
 9362TIP3    H228030   5.819   4.231   0.459
 9363TIP3   OH228031   2.665   2.865   1.852
 9363TIP3    H128032   2.607   2.817   1.912
 9363TIP3    H228033   2.750   2.823   1.863
 9364TIP3   OH228034   3.037   3.731   3.807
 9364TIP3    H128035   2.976   3.680   3.860
 9364TIP3    H228036   2.991   3.814   3.792
 9365TIP3   OH228037   4.442   5.179   0.206
 9365TIP3    H128038   4.394   5.261   0.215
 9365TIP3    H228039   4.427   5.133   0.289
 9366TIP3   OH228040   0.249   1.308   6.163
 9366TIP3    H128041   0.341   1.289   6.145
 9366TIP3    H228042   0.208   1.313   6.077
 9367TIP3   OH228043   5.263   4.082   3.201
 9367TIP3    H128044   5.219   4.126   3.129
 9367TIP3    H228045   5.349   4.126   3.207
 9368TIP3   OH228046   4.611   2.092   2.140
 9368TIP3    H128047   4.545   2.032   2.174
 9368TIP3    H228048   4.693   2.063   2.180
 9369TIP3   OH228049   4.472   7.696   0.553
 9369TIP3    H128050   4.425   7.752   0.492
 9369TIP3    H228051   4.510   7.756   0.617
 9370TIP3   OH228052   2.433   6.950   4.683
 9370TIP3    H128053   2.498   7.019   4.672
 9370TIP3    H228054   2.449   6.891   4.610
 9371TIP3   OH228055   5.097   1.368   5.389
 9371TIP3    H128056   5.138   1.282   5.399
 9371TIP3    H228057   5.013   1.360   5.434
 9372TIP3   OH228058   0.028   1.343   5.340
 9372TIP3    H128059   0.066   1.423   5.304
 9372TIP3    H228060   0.035   1.279   5.268
 9373TIP3   OH228061   0.790   4.722   2.750
 9373TIP3    H128062   0.834   4.646   2.714
 9373TIP3    H228063   0.848   4.796   2.729
 9374TIP3   OH228064   1.168   4.488   4.136
 9374TIP3    H128065   1.195   4.396   4.142
 9374TIP3    H228066   1.224   4.525   4.068
 9375TIP3   OH228067   4.586   5.390   4.093
 9375TIP3    H128068   4.544   5.442   4.024
 9375TIP3    H228069   4.672   5.368   4.058
 9376TIP3   OH228070   3.761   6.364   6.691
 9376TIP3    H128071   3.674   6.328   6.707
 9376TIP3    H228072   3.791   6.320   6.611
 9377TIP3   OH228073   3.440   5.826   2.222
 9377TIP3    H128074   3.380   5.772   2.273
 9377TIP3    H228075   3.430   5.795   2.132
 9378TIP3   OH228076   2.166   5.069   1.968
 9378TIP3    H128077   2.194   5.122   1.894
 9378TIP3    H228078   2.072   5.083   1.973
 9379TIP3   OH228079   7.760   4.405   3.429
 9379TIP3    H128080   7.744   4.448   3.513
 9379TIP3    H228081   7.741   4.313   3.445
 9380TIP3   OH228082   4.238   4.723   3.500
 9380TIP3    H128083   4.202   4.653   3.554
 9380TIP3    H228084   4.288   4.777   3.561
 9381TIP3   OH228085   7.020   1.158   2.427
 9381TIP3    H128086   6.979   1.073   2.442
 9381TIP3    H228087   7.104   1.153   2.473
 9382TIP3   OH228088   5.161   4.045   5.204
 9382TIP3    H128089   5.160   4.095   5.122
 9382TIP3    H228090   5.221   4.092   5.261
 9383TIP3   OH228091   3.448   1.529   2.952
 9383TIP3    H128092   3.388   1.529   2.878
 9383TIP3    H228093   3.399   1.486   3.022
 9384TIP3   OH228094   1.404   4.902   5.565
 9384TIP3    H128095   1.416   4.887   5.659
 9384TIP3    H228096   1.433   4.992   5.551
 9385TIP3   OH228097   7.444   0.676   4.577
 9385TIP3    H128098   7.495   0.730   4.517
 9385TIP3    H228099   7.356   0.713   4.575
 9386TIP3   OH228100   2.170   7.526   3.950
 9386TIP3    H128101   2.107   7.598   3.955
 9386TIP3    H228102   2.127   7.454   3.998
 9387TIP3   OH228103   1.127   2.698   3.175
 9387TIP3    H128104   1.071   2.766   3.138
 9387TIP3    H228105   1.084   2.616   3.153
 9388TIP3   OH228106   6.256   0.403   0.289
 9388TIP3    H128107   6.246   0.428   0.197
 9388TIP3    H228108   6.315   0.328   0.287
 9389TIP3   OH228109   0.441   2.683   0.383
 9389TIP3    H128110   0.369   2.686   0.321
 9389TIP3    H228111   0.402   2.707   0.467
 9390TIP3   OH228112   3.193   1.139   3.853
 9390TIP3    H128113   3.247   1.062   3.868
 9390TIP3    H228114   3.226   1.176   3.771
 9391TIP3   OH228115   2.259   2.552   4.820
 9391TIP3    H128116   2.236   2.500   4.743
 9391TIP3    H228117   2.327   2.612   4.790
 9392TIP3   OH228118   6.362   0.411   4.389
 9392TIP3    H128119   6.315   0.494   4.394
 9392TIP3    H228120   6.448   0.430   4.425
 9393TIP3   OH228121   6.585   6.915   6.050
 9393TIP3    H128122   6.511   6.965   6.085
 9393TIP3    H228123   6.620   6.970   5.979
 9394TIP3   OH228124   3.514   3.087   3.323
 9394TIP3    H128125   3.595   3.112   3.278
 9394TIP3    H228126   3.532   3.100   3.416
 9395TIP3   OH228127   7.868   5.544   3.371
 9395TIP3    H128128   7.787   5.566   3.417
 9395TIP3    H228129   7.840   5.516   3.284
 9396TIP3   OH228130   6.821   2.754   0.565
 9396TIP3    H128131   6.757   2.819   0.593
 9396TIP3    H228132   6.798   2.735   0.475
 9397TIP3   OH228133   4.467   4.803   3.313
 9397TIP3    H128134   4.373   4.803   3.291
 9397TIP3    H228135   4.473   4.864   3.387
 9398TIP3   OH228136   2.872   5.564   1.333
 9398TIP3    H128137   2.943   5.549   1.396
 9398TIP3    H228138   2.913   5.553   1.248
 9399TIP3   OH228139   6.256   2.523   3.866
 9399TIP3    H128140   6.228   2.613   3.887
 9399TIP3    H228141   6.189   2.467   3.906
 9400TIP3   OH228142   1.738   7.197   1.667
 9400TIP3    H128143   1.709   7.199   1.758
 9400TIP3    H228144   1.755   7.105   1.649
 9401TIP3   OH228145   5.456   0.507   4.444
 9401TIP3    H128146   5.420   0.558   4.371
 9401TIP3    H228147   5.430   0.417   4.424
 9402TIP3   OH228148   1.310   7.610   4.657
 9402TIP3    H128149   1.269   7.678   4.603
 9402TIP3    H228150   1.237   7.570   4.704
 9403TIP3   OH228151   3.794   4.674   0.937
 9403TIP3    H128152   3.741   4.660   1.015
 9403TIP3    H228153   3.882   4.692   0.970
 9404TIP3   OH228154   4.532   2.425   2.975
 9404TIP3    H128155   4.544   2.340   3.016
 9404TIP3    H228156   4.492   2.479   3.043
 9405TIP3   OH228157   5.063   4.819   4.578
 9405TIP3    H128158   5.021   4.770   4.649
 9405TIP3    H228159   5.139   4.861   4.620
 9406TIP3   OH228160   1.232   1.148   0.304
 9406TIP3    H128161   1.234   1.104   0.389
 9406TIP3    H228162   1.220   1.241   0.325
 9407TIP3   OH228163   1.948   1.249   2.568
 9407TIP3    H128164   1.905   1.323   2.610
 9407TIP3    H228165   2.042   1.271   2.570
 9408TIP3   OH228166   2.287   6.957   3.604
 9408TIP3    H128167   2.222   6.962   3.534
 9408TIP3    H228168   2.325   7.045   3.608
 9409TIP3   OH228169   8.179   4.541   3.331
 9409TIP3    H128170   8.274   4.555   3.337
 9409TIP3    H228171   8.157   4.493   3.411
 9410TIP3   OH228172   5.348   6.293   4.621
 9410TIP3    H128173   5.431   6.341   4.619
 9410TIP3    H228174   5.330   6.280   4.714
 9411TIP3   OH228175   5.016   1.385   5.141
 9411TIP3    H128176   4.973   1.467   5.118
 9411TIP3    H228177   5.069   1.407   5.218
 9412TIP3   OH228178   5.838   2.030   5.996
 9412TIP3    H128179   5.809   1.948   6.036
 9412TIP3    H228180   5.758   2.082   5.987
 9413TIP3   OH228181   0.412   3.057   0.862
 9413TIP3    H128182   0.451   3.060   0.949
 9413TIP3    H228183   0.329   3.104   0.871
 9414TIP3   OH228184   5.152   5.045   0.308
 9414TIP3    H128185   5.062   5.011   0.305
 9414TIP3    H228186   5.177   5.055   0.216
 9415TIP3   OH228187   1.407   0.355   0.378
 9415TIP3    H128188   1.401   0.298   0.301
 9415TIP3    H228189   1.318   0.357   0.414
 9416TIP3   OH228190   0.536   2.932   0.347
 9416TIP3    H128191   0.547   2.950   0.254
 9416TIP3    H228192   0.499   2.844   0.351
 9417TIP3   OH228193   2.473   0.528   3.281
 9417TIP3    H128194   2.441   0.557   3.196
 9417TIP3    H228195   2.502   0.608   3.324
 9418TIP3   OH228196   1.450   7.227   2.876
 9418TIP3    H128197   1.543   7.241   2.894
 9418TIP3    H228198   1.419   7.310   2.841
 9419TIP3   OH228199   6.388   7.313   6.161
 9419TIP3    H128200   6.321   7.297   6.228
 9419TIP3    H228201   6.446   7.378   6.199
 9420TIP3   OH228202   6.323   0.686   1.495
 9420TIP3    H128203   6.416   0.691   1.518
 9420TIP3    H228204   6.311   0.596   1.464
 9421TIP3   OH228205   4.655   2.472   4.700
 9421TIP3    H128206   4.712   2.429   4.764
 9421TIP3    H228207   4.568   2.468   4.739
 9422TIP3   OH228208   7.913   1.987   0.957
 9422TIP3    H128209   7.953   1.937   0.886
 9422TIP3    H228210   7.958   2.072   0.955
 9423TIP3   OH228211   4.874   4.338   3.124
 9423TIP3    H128212   4.876   4.433   3.127
 9423TIP3    H228213   4.798   4.317   3.070
 9424TIP3   OH228214   3.193   4.303   2.444
 9424TIP3    H128215   3.278   4.282   2.483
 9424TIP3    H228216   3.181   4.397   2.460
 9425TIP3   OH228217   1.268   0.410   1.809
 9425TIP3    H128218   1.356   0.432   1.839
 9425TIP3    H228219   1.276   0.320   1.776
 9426TIP3   OH228220   7.815   6.720   3.571
 9426TIP3    H128221   7.733   6.759   3.601
 9426TIP3    H228222   7.795   6.687   3.483
 9427TIP3   OH228223   8.289   4.038   1.530
 9427TIP3    H128224   8.215   4.028   1.470
 9427TIP3    H228225   8.250   4.071   1.611
 9428TIP3   OH228226   6.740   2.625   3.267
 9428TIP3    H128227   6.791   2.705   3.284
 9428TIP3    H228228   6.699   2.605   3.351
 9429TIP3   OH228229   3.188   6.298   0.400
 9429TIP3    H128230   3.268   6.304   0.452
 9429TIP3    H228231   3.218   6.300   0.309
 9430TIP3   OH228232   0.901   6.932   0.888
 9430TIP3    H128233   0.837   7.003   0.894
 9430TIP3    H228234   0.903   6.910   0.795
 9431TIP3   OH228235   1.271   3.252   2.323
 9431TIP3    H128236   1.200   3.299   2.279
 9431TIP3    H228237   1.236   3.164   2.338
 9432TIP3   OH228238   1.206   3.113   0.976
 9432TIP3    H128239   1.128   3.102   1.030
 9432TIP3    H228240   1.266   3.045   1.006
 9433TIP3   OH228241   5.039   6.668   5.640
 9433TIP3    H128242   5.098   6.744   5.642
 9433TIP3    H228243   5.005   6.667   5.550
 9434TIP3   OH228244   7.229   4.197   6.600
 9434TIP3    H128245   7.139   4.227   6.585
 9434TIP3    H228246   7.229   4.166   6.691
 9435TIP3   OH228247   5.865   5.774   5.527
 9435TIP3    H128248   5.855   5.684   5.558
 9435TIP3    H228249   5.925   5.814   5.590
 9436TIP3   OH228250   8.179   0.791   6.630
 9436TIP3    H128251   8.256   0.735   6.622
 9436TIP3    H228252   8.150   0.780   6.720
 9437TIP3   OH228253   3.623   1.222   0.714
 9437TIP3    H128254   3.609   1.314   0.736
 9437TIP3    H228255   3.604   1.216   0.621
 9438TIP3   OH228256   7.648   4.484   1.150
 9438TIP3    H128257   7.573   4.511   1.097
 9438TIP3    H228258   7.722   4.482   1.090
 9439TIP3   OH228259   5.960   3.449   2.847
 9439TIP3    H128260   5.955   3.361   2.885
 9439TIP3    H228261   6.052   3.474   2.857
 9440TIP3   OH228262   1.071   1.766   5.005
 9440TIP3    H128263   1.141   1.798   5.062
 9440TIP3    H228264   1.015   1.843   4.990
 9441TIP3   OH228265   2.891   6.889   0.895
 9441TIP3    H128266   2.895   6.803   0.853
 9441TIP3    H228267   2.797   6.905   0.908
 9442TIP3   OH228268   2.160   5.702   5.001
 9442TIP3    H128269   2.230   5.637   5.008
 9442TIP3    H228270   2.135   5.700   4.908
 9443TIP3   OH228271   1.314   6.175   4.259
 9443TIP3    H128272   1.348   6.250   4.210
 9443TIP3    H228273   1.297   6.210   4.347
 9444TIP3   OH228274   2.983   1.447   4.815
 9444TIP3    H128275   2.997   1.539   4.792
 9444TIP3    H228276   2.905   1.421   4.767
 9445TIP3   OH228277   3.490   3.202   5.306
 9445TIP3    H128278   3.444   3.279   5.271
 9445TIP3    H228279   3.449   3.186   5.391
 9446TIP3   OH228280   3.182   7.303   5.035
 9446TIP3    H128281   3.107   7.356   5.062
 9446TIP3    H228282   3.253   7.365   5.023
 9447TIP3   OH228283   7.761   7.436   6.047
 9447TIP3    H128284   7.690   7.376   6.071
 9447TIP3    H228285   7.827   7.380   6.007
 9448TIP3   OH228286   2.496   1.452   4.007
 9448TIP3    H128287   2.547   1.477   4.084
 9448TIP3    H228288   2.534   1.369   3.978
 9449TIP3   OH228289   7.716   0.523   6.524
 9449TIP3    H128290   7.765   0.524   6.607
 9449TIP3    H228291   7.758   0.591   6.471
 9450TIP3   OH228292   0.248   0.621   2.177
 9450TIP3    H128293   0.180   0.619   2.110
 9450TIP3    H228294   0.330   0.624   2.127
 9451TIP3   OH228295   1.964   4.251   0.948
 9451TIP3    H128296   1.937   4.340   0.925
 9451TIP3    H228297   2.059   4.252   0.943
 9452TIP3   OH228298   1.117   5.579   0.237
 9452TIP3    H128299   1.111   5.659   0.185
 9452TIP3    H228300   1.027   5.559   0.261
 9453TIP3   OH228301   6.181   4.299   2.522
 9453TIP3    H128302   6.140   4.280   2.607
 9453TIP3    H228303   6.269   4.328   2.543
 9454TIP3   OH228304   6.377   1.849   3.387
 9454TIP3    H128305   6.283   1.834   3.403
 9454TIP3    H228306   6.421   1.780   3.436
 9455TIP3   OH228307   2.246   1.246   2.444
 9455TIP3    H128308   2.158   1.227   2.410
 9455TIP3    H228309   2.303   1.184   2.399
 9456TIP3   OH228310   7.669   3.819   4.963
 9456TIP3    H128311   7.734   3.764   5.006
 9456TIP3    H228312   7.585   3.782   4.990
 9457TIP3   OH228313   3.563   5.789   4.664
 9457TIP3    H128314   3.550   5.877   4.628
 9457TIP3    H228315   3.491   5.779   4.727
 9458TIP3   OH228316   4.288   6.304   1.751
 9458TIP3    H128317   4.286   6.223   1.701
 9458TIP3    H228318   4.299   6.373   1.685
 9459TIP3   OH228319   4.584   0.076   2.816
 9459TIP3    H128320   4.673   0.098   2.788
 9459TIP3    H228321   4.565  -0.006   2.771
 9460TIP3   OH228322   0.439   5.886   3.792
 9460TIP3    H128323   0.357   5.848   3.826
 9460TIP3    H228324   0.504   5.817   3.807
 9461TIP3   OH228325   7.883   3.636   2.222
 9461TIP3    H128326   7.957   3.576   2.231
 9461TIP3    H228327   7.830   3.599   2.152
 9462TIP3   OH228328   6.020   2.154   4.363
 9462TIP3    H128329   6.029   2.245   4.335
 9462TIP3    H228330   5.966   2.113   4.296
 9463TIP3   OH228331   3.617   1.688   2.284
 9463TIP3    H128332   3.628   1.649   2.198
 9463TIP3    H228333   3.656   1.775   2.277
 9464TIP3   OH228334   6.785   7.107   0.260
 9464TIP3    H128335   6.698   7.118   0.222
 9464TIP3    H228336   6.831   7.189   0.239
 9465TIP3   OH228337   4.341   1.836   0.608
 9465TIP3    H128338   4.255   1.853   0.568
 9465TIP3    H228339   4.324   1.835   0.702
 9466TIP3   OH228340   0.495   4.453   0.723
 9466TIP3    H128341   0.555   4.528   0.717
 9466TIP3    H228342   0.551   4.380   0.748
 9467TIP3   OH228343   8.199   5.811   2.209
 9467TIP3    H128344   8.262   5.808   2.137
 9467TIP3    H228345   8.189   5.904   2.228
 9468TIP3   OH228346   5.458   7.642   3.413
 9468TIP3    H128347   5.398   7.583   3.459
 9468TIP3    H228348   5.433   7.635   3.321
 9469TIP3   OH228349   1.708   1.570   3.594
 9469TIP3    H128350   1.736   1.588   3.504
 9469TIP3    H228351   1.664   1.485   3.589
 9470TIP3   OH228352   5.787   1.166   2.546
 9470TIP3    H128353   5.803   1.210   2.630
 9470TIP3    H228354   5.692   1.158   2.541
 9471TIP3   OH228355   3.127   7.583   6.384
 9471TIP3    H128356   3.096   7.518   6.447
 9471TIP3    H228357   3.128   7.537   6.300
 9472TIP3   OH228358   2.764   5.899   3.363
 9472TIP3    H128359   2.755   5.805   3.373
 9472TIP3    H228360   2.704   5.936   3.429
 9473TIP3   OH228361   2.343   0.174   4.887
 9473TIP3    H128362   2.357   0.187   4.980
 9473TIP3    H228363   2.249   0.181   4.875
 9474TIP3   OH228364   7.376   3.201   2.058
 9474TIP3    H128365   7.289   3.181   2.093
 9474TIP3    H228366   7.430   3.215   2.135
 9475TIP3   OH228367   0.628   3.186   2.167
 9475TIP3    H128368   0.552   3.237   2.140
 9475TIP3    H228369   0.699   3.216   2.109
 9476TIP3   OH228370   8.216   7.406   5.608
 9476TIP3    H128371   8.267   7.465   5.664
 9476TIP3    H228372   8.204   7.455   5.527
 9477TIP3   OH228373   4.082   2.246   5.387
 9477TIP3    H128374   4.046   2.326   5.348
 9477TIP3    H228375   4.007   2.206   5.432
 9478TIP3   OH228376   7.846   7.110   6.392
 9478TIP3    H128377   7.917   7.153   6.441
 9478TIP3    H228378   7.768   7.159   6.415
 9479TIP3   OH228379   3.296   6.536   3.978
 9479TIP3    H128380   3.284   6.470   4.046
 9479TIP3    H228381   3.239   6.609   4.004
 9480TIP3   OH228382   6.015   4.120   2.653
 9480TIP3    H128383   5.962   4.111   2.733
 9480TIP3    H228384   5.972   4.063   2.590
 9481TIP3   OH228385   1.667   5.558   6.539
 9481TIP3    H128386   1.647   5.467   6.559
 9481TIP3    H228387   1.720   5.554   6.460
 9482TIP3   OH228388   3.536   6.091   4.875
 9482TIP3    H128389   3.500   6.175   4.903
 9482TIP3    H228390   3.468   6.054   4.818
 9483TIP3   OH228391   0.546   0.364   6.624
 9483TIP3    H128392   0.577   0.430   6.562
 9483TIP3    H228393   0.618   0.355   6.687
 9484TIP3   OH228394   0.081   4.199   5.502
 9484TIP3    H128395   0.016   4.266   5.522
 9484TIP3    H228396   0.103   4.214   5.410
 9485TIP3   OH228397   6.153   7.086   1.687
 9485TIP3    H128398   6.069   7.127   1.665
 9485TIP3    H228399   6.202   7.156   1.730
 9486TIP3   OH228400   3.860   5.458   2.875
 9486TIP3    H128401   3.892   5.539   2.836
 9486TIP3    H228402   3.883   5.466   2.968
 9487TIP3   OH228403   4.838   7.718   0.185
 9487TIP3    H128404   4.930   7.722   0.214
 9487TIP3    H228405   4.843   7.685   0.095
 9488TIP3   OH228406   5.772   4.296   5.948
 9488TIP3    H128407   5.677   4.291   5.959
 9488TIP3    H228408   5.785   4.312   5.855
 9489TIP3   OH228409   3.936   3.432   6.323
 9489TIP3    H128410   3.946   3.386   6.406
 9489TIP3    H228411   3.957   3.523   6.344
 9490TIP3   OH228412   8.157   0.038   5.935
 9490TIP3    H128413   8.075  -0.010   5.948
 9490TIP3    H228414   8.131   0.119   5.891
 9491TIP3   OH228415   1.474   5.279   2.238
 9491TIP3    H128416   1.524   5.206   2.200
 9491TIP3    H228417   1.383   5.257   2.220
 9492TIP3   OH228418   0.236   4.705   2.569
 9492TIP3    H128419   0.305   4.763   2.538
 9492TIP3    H228420   0.280   4.621   2.586
 9493TIP3   OH228421   4.486   7.276   1.384
 9493TIP3    H128422   4.445   7.326   1.455
 9493TIP3    H228423   4.544   7.340   1.342
 9494TIP3   OH228424   3.401   7.360   6.334
 9494TIP3    H128425   3.445   7.276   6.347
 9494TIP3    H228426   3.326   7.339   6.278
 9495TIP3   OH228427   5.437   5.096   3.103
 9495TIP3    H128428   5.476   5.040   3.170
 9495TIP3    H228429   5.354   5.124   3.140
 9496TIP3   OH228430   5.366   0.815   0.442
 9496TIP3    H128431   5.416   0.812   0.361
 9496TIP3    H228432   5.390   0.899   0.482
 9497TIP3   OH228433   5.725   6.366   1.018
 9497TIP3    H128434   5.804   6.382   0.967
 9497TIP3    H228435   5.668   6.439   0.998
 9498TIP3   OH228436   1.882   0.995   4.224
 9498TIP3    H128437   1.797   1.034   4.244
 9498TIP3    H228438   1.861   0.906   4.195
 9499TIP3   OH228439   5.217   6.878   1.638
 9499TIP3    H128440   5.272   6.827   1.697
 9499TIP3    H228441   5.278   6.915   1.574
 9500TIP3   OH228442   0.310   1.317   1.542
 9500TIP3    H128443   0.392   1.365   1.540
 9500TIP3    H228444   0.335   1.225   1.533
 9501TIP3   OH228445   2.033   6.739   4.520
 9501TIP3    H128446   1.969   6.776   4.458
 9501TIP3    H228447   2.032   6.645   4.503
 9502TIP3   OH228448   5.938   2.612   4.217
 9502TIP3    H128449   5.994   2.567   4.280
 9502TIP3    H228450   5.885   2.543   4.178
 9503TIP3   OH228451   2.391   5.608   6.633
 9503TIP3    H128452   2.423   5.577   6.549
 9503TIP3    H228453   2.431   5.695   6.643
 9504TIP3   OH228454   3.501   5.750   3.373
 9504TIP3    H128455   3.478   5.689   3.304
 9504TIP3    H228456   3.534   5.695   3.444
 9505TIP3   OH228457   5.023   1.640   0.931
 9505TIP3    H128458   4.958   1.571   0.945
 9505TIP3    H228459   5.020   1.657   0.837
 9506TIP3   OH228460   5.441   3.726   5.720
 9506TIP3    H128461   5.492   3.796   5.677
 9506TIP3    H228462   5.359   3.724   5.671
 9507TIP3   OH228463   2.172   3.766   6.299
 9507TIP3    H128464   2.192   3.734   6.387
 9507TIP3    H228465   2.101   3.829   6.312
 9508TIP3   OH228466   6.718   6.101   4.797
 9508TIP3    H128467   6.698   6.081   4.888
 9508TIP3    H228468   6.808   6.071   4.784
 9509TIP3   OH228469   0.404   1.529   5.005
 9509TIP3    H128470   0.343   1.456   4.994
 9509TIP3    H228471   0.490   1.489   4.992
 9510TIP3   OH228472   5.410   7.449   0.902
 9510TIP3    H128473   5.380   7.503   0.975
 9510TIP3    H228474   5.376   7.362   0.921
 9511TIP3   OH228475   0.063   6.637   0.659
 9511TIP3    H128476   0.109   6.669   0.581
 9511TIP3    H228477   0.002   6.708   0.681
 9512TIP3   OH228478   1.252   5.174   5.418
 9512TIP3    H128479   1.189   5.147   5.351
 9512TIP3    H228480   1.216   5.139   5.500
 9513TIP3   OH228481   6.319   1.056   5.126
 9513TIP3    H128482   6.304   0.972   5.170
 9513TIP3    H228483   6.282   1.121   5.187
 9514TIP3   OH228484   3.592   1.495   1.727
 9514TIP3    H128485   3.588   1.427   1.660
 9514TIP3    H228486   3.637   1.568   1.685
 9515TIP3   OH228487   0.806   6.971   2.182
 9515TIP3    H128488   0.886   6.944   2.228
 9515TIP3    H228489   0.763   7.032   2.242
 9516TIP3   OH228490   2.042   1.219   6.478
 9516TIP3    H128491   1.955   1.195   6.445
 9516TIP3    H228492   2.044   1.315   6.474
 9517TIP3   OH228493   4.671   1.977   6.042
 9517TIP3    H128494   4.755   2.000   6.002
 9517TIP3    H228495   4.659   2.041   6.112
 9518TIP3   OH228496   0.537   7.532   2.822
 9518TIP3    H128497   0.584   7.460   2.864
 9518TIP3    H228498   0.461   7.547   2.877
 9519TIP3   OH228499   4.462   0.875   4.807
 9519TIP3    H128500   4.439   0.954   4.759
 9519TIP3    H228501   4.506   0.820   4.742
 9520TIP3   OH228502   4.962   2.934   0.096
 9520TIP3    H128503   4.926   2.911   0.010
 9520TIP3    H228504   5.053   2.957   0.078
 9521TIP3   OH228505   4.458   7.332   4.829
 9521TIP3    H128506   4.370   7.336   4.792
 9521TIP3    H228507   4.473   7.238   4.844
 9522TIP3   OH228508   8.105   6.625   4.007
 9522TIP3    H128509   8.079   6.630   3.915
 9522TIP3    H228510   8.174   6.559   4.009
 9523TIP3   OH228511   7.812   2.685   1.827
 9523TIP3    H128512   7.787   2.599   1.862
 9523TIP3    H228513   7.776   2.686   1.738
 9524TIP3   OH228514   1.351   6.548   6.449
 9524TIP3    H128515   1.400   6.466   6.464
 9524TIP3    H228516   1.418   6.610   6.421
 9525TIP3   OH228517   2.526   6.858   3.956
 9525TIP3    H128518   2.579   6.938   3.952
 9525TIP3    H228519   2.474   6.860   3.876
 9526TIP3   OH228520   5.742   6.012   1.229
 9526TIP3    H128521   5.802   6.076   1.268
 9526TIP3    H228522   5.659   6.026   1.276
 9527TIP3   OH228523   6.630   3.651   6.294
 9527TIP3    H128524   6.658   3.606   6.374
 9527TIP3    H228525   6.696   3.628   6.229
 9528TIP3   OH228526   5.182   5.500   2.259
 9528TIP3    H128527   5.194   5.543   2.343
 9528TIP3    H228528   5.098   5.532   2.227
 9529TIP3   OH228529   1.901   3.593   5.047
 9529TIP3    H128530   1.910   3.657   4.976
 9529TIP3    H228531   1.932   3.639   5.125
 9530TIP3   OH228532   1.539   3.282   4.489
 9530TIP3    H128533   1.573   3.350   4.547
 9530TIP3    H228534   1.588   3.203   4.511
 9531TIP3   OH228535   4.871   0.369   0.406
 9531TIP3    H128536   4.817   0.443   0.433
 9531TIP3    H228537   4.948   0.374   0.462
 9532TIP3   OH228538   5.145   6.433   5.066
 9532TIP3    H128539   5.201   6.492   5.117
 9532TIP3    H228540   5.080   6.401   5.129
 9533TIP3   OH228541   5.826   3.911   0.855
 9533TIP3    H128542   5.856   3.996   0.889
 9533TIP3    H228543   5.821   3.855   0.932
 9534TIP3   OH228544   3.905   1.484   3.046
 9534TIP3    H128545   3.841   1.476   2.975
 9534TIP3    H228546   3.913   1.578   3.061
 9535TIP3   OH228547   0.835   1.885   1.052
 9535TIP3    H128548   0.918   1.900   1.096
 9535TIP3    H228549   0.830   1.952   0.984
 9536TIP3   OH228550   7.964   3.972   4.654
 9536TIP3    H128551   7.992   3.890   4.612
 9536TIP3    H228552   8.038   3.997   4.709
 9537TIP3   OH228553   2.605   0.541   2.922
 9537TIP3    H128554   2.598   0.624   2.968
 9537TIP3    H228555   2.534   0.543   2.858
 9538TIP3   OH228556   6.804   0.475   0.314
 9538TIP3    H128557   6.779   0.449   0.403
 9538TIP3    H228558   6.897   0.456   0.309
 9539TIP3   OH228559   4.997   0.989   1.276
 9539TIP3    H128560   4.959   1.005   1.362
 9539TIP3    H228561   5.084   0.954   1.295
 9540TIP3   OH228562   4.565   1.822   4.989
 9540TIP3    H128563   4.583   1.771   5.068
 9540TIP3    H228564   4.604   1.772   4.918
 9541TIP3   OH228565   1.282   6.836   5.058
 9541TIP3    H128566   1.347   6.776   5.021
 9541TIP3    H228567   1.210   6.779   5.086
 9542TIP3   OH228568   5.376   6.899   3.198
 9542TIP3    H128569   5.292   6.881   3.242
 9542TIP3    H228570   5.367   6.988   3.165
 9543TIP3   OH228571   4.646   6.583   4.534
 9543TIP3    H128572   4.680   6.528   4.604
 9543TIP3    H228573   4.722   6.601   4.478
 9544TIP3   OH228574   5.283   6.800   2.148
 9544TIP3    H128575   5.211   6.783   2.087
 9544TIP3    H228576   5.323   6.715   2.163
 9545TIP3   OH228577   7.757   7.442   3.940
 9545TIP3    H128578   7.843   7.450   3.982
 9545TIP3    H228579   7.704   7.393   4.003
 9546TIP3   OH228580   3.237   4.197   2.184
 9546TIP3    H128581   3.221   4.231   2.272
 9546TIP3    H228582   3.319   4.239   2.156
 9547TIP3   OH228583   6.388   6.078   6.211
 9547TIP3    H128584   6.469   6.043   6.173
 9547TIP3    H228585   6.334   6.000   6.228
 9548TIP3   OH228586   0.491   5.110   3.549
 9548TIP3    H128587   0.586   5.108   3.562
 9548TIP3    H228588   0.475   5.195   3.507
 9549TIP3   OH228589   1.803   5.520   5.831
 9549TIP3    H128590   1.766   5.437   5.859
 9549TIP3    H228591   1.839   5.559   5.911
 9550TIP3   OH228592   1.608   3.007   4.490
 9550TIP3    H128593   1.605   2.913   4.473
 9550TIP3    H228594   1.654   3.044   4.415
 9551TIP3   OH228595   0.100   2.325   4.378
 9551TIP3    H128596   0.155   2.403   4.377
 9551TIP3    H228597   0.084   2.306   4.285
 9552TIP3   OH228598   4.289   0.429   5.839
 9552TIP3    H128599   4.208   0.472   5.864
 9552TIP3    H228600   4.270   0.388   5.755
 9553TIP3   OH228601   2.874   4.006   2.646
 9553TIP3    H128602   2.952   4.008   2.701
 9553TIP3    H228603   2.828   4.088   2.667
 9554TIP3   OH228604   4.502   5.832   5.268
 9554TIP3    H128605   4.431   5.811   5.329
 9554TIP3    H228606   4.581   5.823   5.321
 9555TIP3   OH228607   6.388   4.225   0.659
 9555TIP3    H128608   6.343   4.176   0.728
 9555TIP3    H228609   6.319   4.246   0.596
 9556TIP3   OH228610   1.348   2.081   5.756
 9556TIP3    H128611   1.348   2.164   5.708
 9556TIP3    H228612   1.309   2.102   5.841
 9557TIP3   OH228613   1.231   4.909   3.302
 9557TIP3    H128614   1.241   4.903   3.207
 9557TIP3    H228615   1.266   4.827   3.336
 9558TIP3   OH228616   1.117   7.205   6.451
 9558TIP3    H128617   1.030   7.191   6.413
 9558TIP3    H228618   1.122   7.143   6.524
 9559TIP3   OH228619   8.220   5.683   0.946
 9559TIP3    H128620   8.137   5.678   0.993
 9559TIP3    H228621   8.275   5.738   1.001
 9560TIP3   OH228622   0.217   6.766   0.924
 9560TIP3    H128623   0.306   6.797   0.944
 9560TIP3    H228624   0.174   6.764   1.009
 9561TIP3   OH228625   3.658   5.442   1.507
 9561TIP3    H128626   3.680   5.534   1.487
 9561TIP3    H228627   3.740   5.404   1.538
 9562TIP3   OH228628   5.271   6.895   5.174
 9562TIP3    H128629   5.288   6.956   5.101
 9562TIP3    H228630   5.358   6.861   5.197
 9563TIP3   OH228631   6.448   3.064   6.566
 9563TIP3    H128632   6.464   3.068   6.660
 9563TIP3    H228633   6.524   3.106   6.526
 9564TIP3   OH228634   4.739   1.198   1.995
 9564TIP3    H128635   4.664   1.139   1.997
 9564TIP3    H228636   4.713   1.269   1.937
 9565TIP3   OH228637   0.769   3.515   4.641
 9565TIP3    H128638   0.693   3.513   4.583
 9565TIP3    H228639   0.836   3.564   4.592
 9566TIP3   OH228640   0.309   5.654   5.744
 9566TIP3    H128641   0.219   5.627   5.764
 9566TIP3    H228642   0.315   5.646   5.649
 9567TIP3   OH228643   4.713   5.935   1.997
 9567TIP3    H128644   4.807   5.943   1.980
 9567TIP3    H228645   4.708   5.877   2.073
 9568TIP3   OH228646   1.896   0.884   5.579
 9568TIP3    H128647   1.893   0.980   5.581
 9568TIP3    H228648   1.842   0.860   5.504
 9569TIP3   OH228649   6.956   1.845   2.132
 9569TIP3    H128650   6.907   1.865   2.053
 9569TIP3    H228651   6.941   1.920   2.189
 9570TIP3   OH228652   6.587   0.486   0.844
 9570TIP3    H128653   6.655   0.529   0.896
 9570TIP3    H228654   6.551   0.556   0.790
 9571TIP3   OH228655   7.817   0.928   6.660
 9571TIP3    H128656   7.769   0.867   6.716
 9571TIP3    H228657   7.876   0.872   6.609
 9572TIP3   OH228658   1.395   3.570   4.130
 9572TIP3    H128659   1.404   3.517   4.210
 9572TIP3    H228660   1.456   3.530   4.068
 9573TIP3   OH228661   4.086   3.551   5.302
 9573TIP3    H128662   4.074   3.460   5.274
 9573TIP3    H228663   4.088   3.547   5.398
 9574TIP3   OH228664   7.469   2.506   0.315
 9574TIP3    H128665   7.472   2.590   0.269
 9574TIP3    H228666   7.383   2.470   0.293
 9575TIP3   OH228667   0.444   4.756   4.823
 9575TIP3    H128668   0.386   4.718   4.889
 9575TIP3    H228669   0.478   4.681   4.775
 9576TIP3   OH228670   6.221   1.249   3.437
 9576TIP3    H128671   6.286   1.191   3.399
 9576TIP3    H228672   6.165   1.274   3.364
 9577TIP3   OH228673   0.211   1.731   2.271
 9577TIP3    H128674   0.271   1.663   2.241
 9577TIP3    H228675   0.168   1.762   2.192
 9578TIP3   OH228676   7.964   3.329   6.066
 9578TIP3    H128677   7.887   3.321   6.009
 9578TIP3    H228678   7.992   3.420   6.055
 9579TIP3   OH228679   0.608   1.228   1.579
 9579TIP3    H128680   0.670   1.190   1.643
 9579TIP3    H228681   0.599   1.319   1.607
 9580TIP3   OH228682   4.638   4.120   5.741
 9580TIP3    H128683   4.557   4.069   5.747
 9580TIP3    H228684   4.624   4.181   5.669
 9581TIP3   OH228685   2.505   7.763   1.184
 9581TIP3    H128686   2.452   7.777   1.262
 9581TIP3    H228687   2.569   7.834   1.185
 9582TIP3   OH228688   1.740   6.782   1.808
 9582TIP3    H128689   1.669   6.722   1.830
 9582TIP3    H228690   1.810   6.726   1.775
 9583TIP3   OH228691   7.535   5.311   5.966
 9583TIP3    H128692   7.629   5.305   5.985
 9583TIP3    H228693   7.530   5.358   5.883
 9584TIP3   OH228694   5.219   4.818   5.598
 9584TIP3    H128695   5.170   4.866   5.531
 9584TIP3    H228696   5.262   4.886   5.650
 9585TIP3   OH228697   6.050   7.710   4.548
 9585TIP3    H128698   6.114   7.781   4.544
 9585TIP3    H228699   6.081   7.646   4.483
 9586TIP3   OH228700   3.079   3.285   1.596
 9586TIP3    H128701   2.988   3.314   1.582
 9586TIP3    H228702   3.130   3.365   1.594
 9587TIP3   OH228703   0.517   0.070   6.655
 9587TIP3    H128704   0.516   0.164   6.640
 9587TIP3    H228705   0.467   0.033   6.582
 9588TIP3   OH228706   3.117   3.463   4.129
 9588TIP3    H128707   3.205   3.498   4.141
 9588TIP3    H228708   3.075   3.473   4.215
 9589TIP3   OH228709   2.790   3.482   2.840
 9589TIP3    H128710   2.869   3.535   2.852
 9589TIP3    H228711   2.734   3.506   2.914
 9590TIP3   OH228712   2.296   3.844   2.819
 9590TIP3    H128713   2.330   3.758   2.794
 9590TIP3    H228714   2.311   3.849   2.914
 9591TIP3   OH228715   7.068   1.900   3.024
 9591TIP3    H128716   7.021   1.823   2.993
 9591TIP3    H228717   7.000   1.959   3.057
 9592TIP3   OH228718   0.163   6.212   3.813
 9592TIP3    H128719   0.239   6.178   3.861
 9592TIP3    H228720   0.183   6.304   3.797
 9593TIP3   OH228721   4.005   6.199   5.559
 9593TIP3    H128722   4.023   6.143   5.483
 9593TIP3    H228723   3.999   6.287   5.523
 9594TIP3   OH228724   1.835   0.442   6.535
 9594TIP3    H128725   1.772   0.453   6.463
 9594TIP3    H228726   1.909   0.497   6.511
 9595TIP3   OH228727   1.107   6.001   3.398
 9595TIP3    H128728   1.078   6.053   3.473
 9595TIP3    H228729   1.191   5.964   3.427
 9596TIP3   OH228730   4.667   5.224   2.184
 9596TIP3    H128731   4.584   5.264   2.207
 9596TIP3    H228732   4.705   5.197   2.268
 9597TIP3   OH228733   8.243   7.622   5.434
 9597TIP3    H128734   8.203   7.702   5.468
 9597TIP3    H228735   8.329   7.650   5.401
 9598TIP3   OH228736   3.461   0.959   3.855
 9598TIP3    H128737   3.521   0.887   3.834
 9598TIP3    H228738   3.488   0.989   3.941
 9599TIP3   OH228739   6.551   6.388   2.105
 9599TIP3    H128740   6.566   6.425   2.018
 9599TIP3    H228741   6.637   6.362   2.136
 9600TIP3   OH228742   7.026   0.254   2.320
 9600TIP3    H128743   6.978   0.284   2.397
 9600TIP3    H228744   7.035   0.160   2.331
 9601TIP3   OH228745   6.437   3.964   4.456
 9601TIP3    H128746   6.375   3.913   4.404
 9601TIP3    H228747   6.508   3.984   4.394
 9602TIP3   OH228748   4.156   7.111   5.053
 9602TIP3    H128749   4.242   7.150   5.038
 9602TIP3    H228750   4.126   7.150   5.135
 9603TIP3   OH228751   4.058   0.079   1.189
 9603TIP3    H128752   4.122   0.071   1.260
 9603TIP3    H228753   4.070   0.168   1.156
 9604TIP3   OH228754   6.849   5.745   4.855
 9604TIP3    H128755   6.871   5.670   4.910
 9604TIP3    H228756   6.933   5.789   4.840
 9605TIP3   OH228757   0.393   5.915   1.142
 9605TIP3    H128758   0.440   5.984   1.094
 9605TIP3    H228759   0.460   5.849   1.159
 9606TIP3   OH228760   2.289   1.540   0.586
 9606TIP3    H128761   2.373   1.508   0.553
 9606TIP3    H228762   2.312   1.595   0.661
 9607TIP3   OH228763   4.089   5.203   1.875
 9607TIP3    H128764   4.015   5.165   1.827
 9607TIP3    H228765   4.145   5.239   1.806
 9608TIP3   OH228766   0.270   0.667   4.255
 9608TIP3    H128767   0.259   0.728   4.183
 9608TIP3    H228768   0.297   0.722   4.329
 9609TIP3   OH228769   4.258   2.383   1.996
 9609TIP3    H128770   4.175   2.392   1.950
 9609TIP3    H228771   4.318   2.348   1.931
 9610TIP3   OH228772   7.867   0.554   5.479
 9610TIP3    H128773   7.815   0.492   5.530
 9610TIP3    H228774   7.807   0.626   5.459
 9611TIP3   OH228775   7.999   2.770   2.008
 9611TIP3    H128776   7.934   2.742   1.944
 9611TIP3    H228777   8.006   2.697   2.070
 9612TIP3   OH228778   5.044   0.779   4.782
 9612TIP3    H128779   5.071   0.698   4.737
 9612TIP3    H228780   5.041   0.845   4.712
 9613TIP3   OH228781   4.920   5.945   5.230
 9613TIP3    H128782   4.925   6.018   5.169
 9613TIP3    H228783   4.886   5.983   5.311
 9614TIP3   OH228784   1.064   4.690   4.968
 9614TIP3    H128785   1.005   4.748   4.919
 9614TIP3    H228786   1.026   4.686   5.056
 9615TIP3   OH228787   7.031   7.269   3.981
 9615TIP3    H128788   7.054   7.282   4.073
 9615TIP3    H228789   6.960   7.205   3.982
 9616TIP3   OH228790   0.462   7.040   6.006
 9616TIP3    H128791   0.456   7.005   5.917
 9616TIP3    H228792   0.426   7.128   6.000
 9617TIP3   OH228793   8.269   2.979   2.713
 9617TIP3    H128794   8.177   2.957   2.700
 9617TIP3    H228795   8.317   2.916   2.658
 9618TIP3   OH228796   7.402   4.037   2.842
 9618TIP3    H128797   7.480   4.074   2.801
 9618TIP3    H228798   7.383   4.095   2.916
 9619TIP3   OH228799   0.054   4.606   6.246
 9619TIP3    H128800  -0.028   4.628   6.203
 9619TIP3    H228801   0.094   4.690   6.267
 9620TIP3   OH228802   3.320   7.663   1.747
 9620TIP3    H128803   3.241   7.698   1.706
 9620TIP3    H228804   3.386   7.731   1.732
 9621TIP3   OH228805   7.081   2.375   0.472
 9621TIP3    H128806   7.015   2.342   0.533
 9621TIP3    H228807   7.033   2.391   0.390
 9622TIP3   OH228808   5.210   1.820   1.489
 9622TIP3    H128809   5.284   1.762   1.505
 9622TIP3    H228810   5.244   1.908   1.506
 9623TIP3   OH228811   1.570   3.536   2.470
 9623TIP3    H128812   1.620   3.488   2.404
 9623TIP3    H228813   1.558   3.623   2.433
 9624TIP3   OH228814   3.659   3.932   4.083
 9624TIP3    H128815   3.714   3.887   4.147
 9624TIP3    H228816   3.633   4.013   4.127
 9625TIP3   OH228817   2.346   7.236   4.516
 9625TIP3    H128818   2.436   7.210   4.498
 9625TIP3    H228819   2.304   7.241   4.430
 9626TIP3   OH228820   7.763   3.700   3.922
 9626TIP3    H128821   7.682   3.650   3.933
 9626TIP3    H228822   7.802   3.704   4.009
 9627TIP3   OH228823   7.037   2.165   6.402
 9627TIP3    H128824   6.982   2.165   6.481
 9627TIP3    H228825   6.988   2.218   6.339
 9628TIP3   OH228826   4.043   4.425   3.523
 9628TIP3    H128827   4.070   4.384   3.604
 9628TIP3    H228828   3.970   4.371   3.492
 9629TIP3   OH228829   6.926   1.277   3.476
 9629TIP3    H128830   6.910   1.206   3.413
 9629TIP3    H228831   7.012   1.257   3.513
 9630TIP3   OH228832   1.041   0.946   0.259
 9630TIP3    H128833   1.098   1.023   0.257
 9630TIP3    H228834   1.092   0.876   0.219
 9631TIP3   OH228835   7.517   2.004   1.246
 9631TIP3    H128836   7.605   1.986   1.212
 9631TIP3    H228837   7.486   2.078   1.194
 9632TIP3   OH228838   0.335   6.307   4.476
 9632TIP3    H128839   0.419   6.263   4.463
 9632TIP3    H228840   0.358   6.393   4.511
 9633TIP3   OH228841   1.426   3.442   3.675
 9633TIP3    H128842   1.482   3.496   3.620
 9633TIP3    H228843   1.476   3.361   3.688
 9634TIP3   OH228844   7.632   1.621   0.157
 9634TIP3    H128845   7.614   1.701   0.207
 9634TIP3    H228846   7.645   1.651   0.067
 9635TIP3   OH228847   2.465   0.024   3.582
 9635TIP3    H128848   2.546  -0.028   3.584
 9635TIP3    H228849   2.487   0.105   3.628
 9636TIP3   OH228850   1.055   0.239   6.187
 9636TIP3    H128851   1.129   0.211   6.134
 9636TIP3    H228852   0.980   0.191   6.152
 9637TIP3   OH228853   2.612   4.330   3.635
 9637TIP3    H128854   2.706   4.345   3.650
 9637TIP3    H228855   2.603   4.234   3.638
 9638TIP3   OH228856   3.752   7.482   0.572
 9638TIP3    H128857   3.792   7.529   0.645
 9638TIP3    H228858   3.658   7.500   0.580
 9639TIP3   OH228859   3.674   4.344   5.457
 9639TIP3    H128860   3.628   4.325   5.376
 9639TIP3    H228861   3.654   4.436   5.475
 9640TIP3   OH228862   5.992   3.119   2.570
 9640TIP3    H128863   6.044   3.136   2.491
 9640TIP3    H228864   5.902   3.133   2.542
 9641TIP3   OH228865   2.052   4.866   5.267
 9641TIP3    H128866   2.018   4.928   5.203
 9641TIP3    H228867   1.984   4.799   5.274
 9642TIP3   OH228868   5.964   6.201   0.501
 9642TIP3    H128869   5.920   6.286   0.497
 9642TIP3    H228870   6.054   6.220   0.476
 9643TIP3   OH228871   0.044   6.900   2.332
 9643TIP3    H128872   0.094   6.981   2.322
 9643TIP3    H228873  -0.001   6.889   2.249
 9644TIP3   OH228874   2.852   5.564   2.264
 9644TIP3    H128875   2.841   5.475   2.231
 9644TIP3    H228876   2.779   5.576   2.326
 9645TIP3   OH228877   3.637   2.550   0.410
 9645TIP3    H128878   3.583   2.567   0.487
 9645TIP3    H228879   3.690   2.474   0.435
 9646TIP3   OH228880   4.002   7.335   4.154
 9646TIP3    H128881   3.954   7.418   4.155
 9646TIP3    H228882   4.043   7.331   4.067
 9647TIP3   OH228883   7.875   1.448   2.933
 9647TIP3    H128884   7.931   1.519   2.901
 9647TIP3    H228885   7.929   1.370   2.925
 9648TIP3   OH228886   1.331   5.932   5.704
 9648TIP3    H128887   1.423   5.909   5.692
 9648TIP3    H228888   1.301   5.876   5.776
 9649TIP3   OH228889   6.915   3.008   4.031
 9649TIP3    H128890   6.937   2.992   4.123
 9649TIP3    H228891   6.937   3.100   4.017
 9650TIP3   OH228892   3.780   1.877   1.903
 9650TIP3    H128893   3.729   1.921   1.835
 9650TIP3    H228894   3.806   1.948   1.963
 9651TIP3   OH228895   2.050   2.471   5.180
 9651TIP3    H128896   2.100   2.552   5.185
 9651TIP3    H228897   2.020   2.467   5.089
 9652TIP3   OH228898   0.654   2.372   2.958
 9652TIP3    H128899   0.722   2.317   2.997
 9652TIP3    H228900   0.702   2.450   2.927
 9653TIP3   OH228901   5.308   2.096   1.529
 9653TIP3    H128902   5.279   2.178   1.488
 9653TIP3    H228903   5.268   2.098   1.616
 9654TIP3   OH228904   3.050   3.808   4.577
 9654TIP3    H128905   2.969   3.858   4.578
 9654TIP3    H228906   3.032   3.732   4.633
 9655TIP3   OH228907   1.780   4.782   3.271
 9655TIP3    H128908   1.830   4.740   3.201
 9655TIP3    H228909   1.811   4.741   3.351
 9656TIP3   OH228910   5.482   4.873   6.678
 9656TIP3    H128911   5.471   4.821   6.757
 9656TIP3    H228912   5.517   4.811   6.614
 9657TIP3   OH228913   3.682   7.588   1.460
 9657TIP3    H128914   3.669   7.508   1.510
 9657TIP3    H228915   3.708   7.558   1.373
 9658TIP3   OH228916   2.234   7.602   5.185
 9658TIP3    H128917   2.263   7.514   5.159
 9658TIP3    H228918   2.139   7.599   5.180
 9659TIP3   OH228919   3.413   5.882   3.771
 9659TIP3    H128920   3.489   5.830   3.746
 9659TIP3    H228921   3.353   5.819   3.811
 9660TIP3   OH228922   4.565   6.399   3.391
 9660TIP3    H128923   4.601   6.338   3.454
 9660TIP3    H228924   4.505   6.347   3.338
 9661TIP3   OH228925   0.178   5.923   1.535
 9661TIP3    H128926   0.093   5.879   1.534
 9661TIP3    H228927   0.204   5.924   1.627
 9662TIP3   OH228928   6.153   6.234   4.427
 9662TIP3    H128929   6.105   6.205   4.504
 9662TIP3    H228930   6.096   6.299   4.386
 9663TIP3   OH228931   7.564   0.076   0.438
 9663TIP3    H128932   7.538   0.167   0.421
 9663TIP3    H228933   7.529   0.026   0.365
 9664TIP3   OH228934   4.158   2.901   1.902
 9664TIP3    H128935   4.114   2.906   1.816
 9664TIP3    H228936   4.248   2.879   1.881
 9665TIP3   OH228937   0.239   6.856   2.853
 9665TIP3    H128938   0.314   6.798   2.864
 9665TIP3    H228939   0.254   6.927   2.916
 9666TIP3   OH228940   0.280   4.594   0.918
 9666TIP3    H128941   0.363   4.573   0.875
 9666TIP3    H228942   0.248   4.510   0.951
 9667TIP3   OH228943   8.205   2.574   3.423
 9667TIP3    H128944   8.264   2.595   3.351
 9667TIP3    H228945   8.239   2.492   3.459
 9668TIP3   OH228946   0.921   2.207   5.171
 9668TIP3    H128947   0.905   2.187   5.263
 9668TIP3    H228948   0.909   2.124   5.125
 9669TIP3   OH228949   1.302   2.745   5.973
 9669TIP3    H128950   1.342   2.723   6.058
 9669TIP3    H228951   1.208   2.736   5.989
 9670TIP3   OH228952   0.864   1.698   4.002
 9670TIP3    H128953   0.884   1.653   3.920
 9670TIP3    H228954   0.948   1.702   4.048
 9671TIP3   OH228955   5.457   3.833   5.205
 9671TIP3    H128956   5.425   3.905   5.259
 9671TIP3    H228957   5.445   3.755   5.260
 9672TIP3   OH228958   7.239   1.868   2.012
 9672TIP3    H128959   7.168   1.817   2.050
 9672TIP3    H228960   7.276   1.811   1.945
 9673TIP3   OH228961   6.871   0.907   0.997
 9673TIP3    H128962   6.778   0.917   0.976
 9673TIP3    H228963   6.916   0.919   0.913
 9674TIP3   OH228964   0.471   5.446   2.714
 9674TIP3    H128965   0.510   5.360   2.732
 9674TIP3    H228966   0.532   5.509   2.754
 9675TIP3   OH228967   6.259   6.634   3.575
 9675TIP3    H128968   6.255   6.722   3.614
 9675TIP3    H228969   6.346   6.631   3.535
 9676TIP3   OH228970   3.067   1.958   4.001
 9676TIP3    H128971   3.074   1.898   3.927
 9676TIP3    H228972   2.979   1.995   3.994
 9677TIP3   OH228973   1.143   1.740   1.657
 9677TIP3    H128974   1.053   1.737   1.690
 9677TIP3    H228975   1.140   1.805   1.587
 9678TIP3   OH228976   6.818   2.337   6.326
 9678TIP3    H128977   6.756   2.410   6.324
 9678TIP3    H228978   6.766   2.261   6.302
 9679TIP3   OH228979   3.843   3.337   2.574
 9679TIP3    H128980   3.829   3.429   2.552
 9679TIP3    H228981   3.928   3.336   2.619
 9680TIP3   OH228982   3.758   6.670   5.428
 9680TIP3    H128983   3.673   6.629   5.447
 9680TIP3    H228984   3.736   6.758   5.399
 9681TIP3   OH228985   4.105   0.074   5.300
 9681TIP3    H128986   4.105  -0.001   5.359
 9681TIP3    H228987   4.194   0.074   5.263
 9682TIP3   OH228988   6.926   1.009   4.637
 9682TIP3    H128989   7.006   0.984   4.591
 9682TIP3    H228990   6.905   1.096   4.601
 9683TIP3   OH228991   1.145   6.084   0.959
 9683TIP3    H128992   1.109   6.121   0.878
 9683TIP3    H228993   1.230   6.126   0.969
 9684TIP3   OH228994   4.545   0.763   0.023
 9684TIP3    H128995   4.452   0.782   0.033
 9684TIP3    H228996   4.587   0.848   0.018
 9685TIP3   OH228997   6.984   6.050   4.341
 9685TIP3    H128998   6.964   5.999   4.420
 9685TIP3    H228999   6.913   6.113   4.335
 9686TIP3   OH229000   7.983   3.108   4.489
 9686TIP3    H129001   8.068   3.066   4.495
 9686TIP3    H229002   7.950   3.109   4.579
 9687TIP3   OH229003   7.962   6.517   4.204
 9687TIP3    H129004   8.008   6.578   4.147
 9687TIP3    H229005   8.018   6.509   4.281
 9688TIP3   OH229006   4.299   7.598   3.934
 9688TIP3    H129007   4.255   7.514   3.921
 9688TIP3    H229008   4.356   7.584   4.010
 9689TIP3   OH229009   4.376   2.105   4.354
 9689TIP3    H129010   4.354   2.032   4.296
 9689TIP3    H229011   4.295   2.156   4.360
 9690TIP3   OH229012   1.468   5.481   5.524
 9690TIP3    H129013   1.467   5.387   5.503
 9690TIP3    H229014   1.560   5.506   5.517
 9691TIP3   OH229015   2.506   0.489   2.559
 9691TIP3    H129016   2.489   0.535   2.641
 9691TIP3    H229017   2.507   0.397   2.582
 9692TIP3   OH229018   6.863   4.349   5.340
 9692TIP3    H129019   6.839   4.423   5.396
 9692TIP3    H229020   6.821   4.274   5.382
 9693TIP3   OH229021   2.281   5.870   1.951
 9693TIP3    H129022   2.214   5.929   1.987
 9693TIP3    H229023   2.356   5.881   2.010
 9694TIP3   OH229024   4.454   6.792   4.813
 9694TIP3    H129025   4.482   6.700   4.812
 9694TIP3    H229026   4.469   6.820   4.903
 9695TIP3   OH229027   2.167   2.931   5.502
 9695TIP3    H129028   2.244   2.947   5.447
 9695TIP3    H229029   2.203   2.927   5.591
 9696TIP3   OH229030   2.505   6.793   5.591
 9696TIP3    H129031   2.536   6.881   5.609
 9696TIP3    H229032   2.432   6.805   5.531
 9697TIP3   OH229033   1.357   1.106   4.202
 9697TIP3    H129034   1.344   1.191   4.244
 9697TIP3    H229035   1.269   1.068   4.199
 9698TIP3   OH229036   2.931   6.232   5.507
 9698TIP3    H129037   2.978   6.225   5.424
 9698TIP3    H229038   2.883   6.149   5.514
 9699TIP3   OH229039   2.488   1.753   4.363
 9699TIP3    H129040   2.451   1.670   4.331
 9699TIP3    H229041   2.455   1.819   4.302
 9700TIP3   OH229042   1.132   4.148   3.027
 9700TIP3    H129043   1.081   4.228   3.013
 9700TIP3    H229044   1.165   4.156   3.116
 9701TIP3   OH229045   3.529   7.678   2.806
 9701TIP3    H129046   3.571   7.598   2.774
 9701TIP3    H229047   3.588   7.711   2.874
 9702TIP3   OH229048   5.854   7.129   4.202
 9702TIP3    H129049   5.930   7.097   4.251
 9702TIP3    H229050   5.871   7.222   4.190
 9703TIP3   OH229051   4.839   1.607   6.557
 9703TIP3    H129052   4.797   1.645   6.634
 9703TIP3    H229053   4.773   1.548   6.520
 9704TIP3   OH229054   2.298   3.662   6.549
 9704TIP3    H129055   2.338   3.747   6.567
 9704TIP3    H229056   2.296   3.618   6.634
 9705TIP3   OH229057   5.057   5.875   4.762
 9705TIP3    H129058   5.021   5.961   4.783
 9705TIP3    H229059   5.131   5.892   4.704
 9706TIP3   OH229060   0.880   6.032   5.218
 9706TIP3    H129061   0.823   6.091   5.268
 9706TIP3    H229062   0.964   6.036   5.263
 9707TIP3   OH229063   0.464   7.262   2.500
 9707TIP3    H129064   0.429   7.330   2.443
 9707TIP3    H229065   0.387   7.223   2.541
 9708TIP3   OH229066   2.859   0.022   6.403
 9708TIP3    H129067   2.800   0.096   6.392
 9708TIP3    H229068   2.819  -0.049   6.352
 9709TIP3   OH229069   0.173   3.705   3.622
 9709TIP3    H129070   0.227   3.758   3.681
 9709TIP3    H229071   0.134   3.768   3.562
 9710TIP3   OH229072   4.273   2.090   5.585
 9710TIP3    H129073   4.268   2.158   5.653
 9710TIP3    H229074   4.243   2.134   5.505
 9711TIP3   OH229075   7.625   2.050   3.316
 9711TIP3    H129076   7.623   2.001   3.234
 9711TIP3    H229077   7.717   2.067   3.333
 9712TIP3   OH229078   1.008   0.116   1.438
 9712TIP3    H129079   1.003   0.050   1.507
 9712TIP3    H229080   0.991   0.068   1.357
 9713TIP3   OH229081   0.987   6.762   1.998
 9713TIP3    H129082   0.965   6.827   1.932
 9713TIP3    H229083   1.066   6.796   2.040
 9714TIP3   OH229084   0.379   3.193   1.211
 9714TIP3    H129085   0.417   3.280   1.223
 9714TIP3    H229086   0.451   3.141   1.176
 9715TIP3   OH229087   4.929   1.653   5.110
 9715TIP3    H129088   4.841   1.685   5.130
 9715TIP3    H229089   4.987   1.707   5.165
 9716TIP3   OH229090   1.372   1.270   0.922
 9716TIP3    H129091   1.414   1.355   0.929
 9716TIP3    H229092   1.288   1.280   0.967
 9717TIP3   OH229093   1.946   5.318   3.948
 9717TIP3    H129094   1.929   5.392   3.890
 9717TIP3    H229095   1.988   5.252   3.893
 9718TIP3   OH229096   2.793   1.863   3.862
 9718TIP3    H129097   2.726   1.795   3.847
 9718TIP3    H229098   2.873   1.827   3.823
 9719TIP3   OH229099   1.110   1.111   0.841
 9719TIP3    H129100   1.083   1.160   0.764
 9719TIP3    H229101   1.035   1.056   0.863
 9720TIP3   OH229102   0.286   0.804   3.611
 9720TIP3    H129103   0.218   0.867   3.636
 9720TIP3    H229104   0.336   0.790   3.691
 9721TIP3   OH229105   4.718   2.095   6.312
 9721TIP3    H129106   4.758   2.020   6.356
 9721TIP3    H229107   4.703   2.159   6.382
 9722TIP3   OH229108   5.837   5.594   4.148
 9722TIP3    H129109   5.850   5.634   4.234
 9722TIP3    H229110   5.920   5.606   4.103
 9723TIP3   OH229111   7.622   6.389   3.474
 9723TIP3    H129112   7.681   6.429   3.411
 9723TIP3    H229113   7.603   6.459   3.537
 9724TIP3   OH229114   5.370   2.970   4.514
 9724TIP3    H129115   5.426   2.892   4.509
 9724TIP3    H229116   5.329   2.975   4.428
 9725TIP3   OH229117   3.216   1.856   1.566
 9725TIP3    H129118   3.203   1.762   1.559
 9725TIP3    H229119   3.299   1.865   1.613
 9726TIP3   OH229120   5.921   5.507   1.441
 9726TIP3    H129121   5.910   5.565   1.517
 9726TIP3    H229122   5.931   5.566   1.367
 9727TIP3   OH229123   2.118   2.260   3.703
 9727TIP3    H129124   2.038   2.310   3.713
 9727TIP3    H229125   2.090   2.177   3.666
 9728TIP3   OH229126   0.245   4.731   3.120
 9728TIP3    H129127   0.215   4.688   3.040
 9728TIP3    H229128   0.208   4.679   3.191
 9729TIP3   OH229129   4.506   2.114   1.634
 9729TIP3    H129130   4.502   2.157   1.719
 9729TIP3    H229131   4.446   2.040   1.641
 9730TIP3   OH229132   1.201   2.280   1.460
 9730TIP3    H129133   1.274   2.235   1.418
 9730TIP3    H229134   1.237   2.308   1.545
 9731TIP3   OH229135   5.887   1.987   0.305
 9731TIP3    H129136   5.908   2.006   0.397
 9731TIP3    H229137   5.792   1.982   0.303
 9732TIP3   OH229138   1.165   3.476   5.582
 9732TIP3    H129139   1.239   3.415   5.581
 9732TIP3    H229140   1.199   3.553   5.627
 9733TIP3   OH229141   2.354   5.032   0.727
 9733TIP3    H129142   2.319   4.944   0.721
 9733TIP3    H229143   2.387   5.039   0.816
 9734TIP3   OH229144   2.527   1.290   0.601
 9734TIP3    H129145   2.570   1.354   0.544
 9734TIP3    H229146   2.519   1.333   0.686
 9735TIP3   OH229147   0.477   2.801   0.881
 9735TIP3    H129148   0.449   2.890   0.861
 9735TIP3    H229149   0.571   2.801   0.865
 9736TIP3   OH229150   0.478   5.694   6.494
 9736TIP3    H129151   0.431   5.681   6.577
 9736TIP3    H229152   0.443   5.625   6.437
 9737TIP3   OH229153   6.400   1.677   3.612
 9737TIP3    H129154   6.491   1.669   3.586
 9737TIP3    H229155   6.393   1.762   3.654
 9738TIP3   OH229156   5.779   0.279   2.525
 9738TIP3    H129157   5.719   0.280   2.599
 9738TIP3    H229158   5.722   0.282   2.447
 9739TIP3   OH229159   8.069   6.286   5.234
 9739TIP3    H129160   8.091   6.280   5.327
 9739TIP3    H229161   8.011   6.362   5.228
 9740TIP3   OH229162   5.002   1.182   2.054
 9740TIP3    H129163   5.007   1.244   2.126
 9740TIP3    H229164   4.910   1.185   2.026
 9741TIP3   OH229165   3.590   1.391   2.223
 9741TIP3    H129166   3.607   1.435   2.140
 9741TIP3    H229167   3.571   1.300   2.199
 9742TIP3   OH229168   7.640   1.023   1.029
 9742TIP3    H129169   7.572   0.958   1.010
 9742TIP3    H229170   7.693   1.026   0.949
 9743TIP3   OH229171   6.375   7.808   1.759
 9743TIP3    H129172   6.304   7.747   1.739
 9743TIP3    H229173   6.336   7.895   1.745
 9744TIP3   OH229174   1.820   7.513   5.071
 9744TIP3    H129175   1.775   7.545   4.992
 9744TIP3    H229176   1.886   7.453   5.038
 9745TIP3   OH229177   7.994   0.262   4.913
 9745TIP3    H129178   8.065   0.297   4.967
 9745TIP3    H229179   7.947   0.340   4.883
 9746TIP3   OH229180   1.230   0.655   2.179
 9746TIP3    H129181   1.285   0.581   2.152
 9746TIP3    H229182   1.140   0.620   2.175
 9747TIP3   OH229183   4.142   5.680   6.156
 9747TIP3    H129184   4.201   5.710   6.226
 9747TIP3    H229185   4.055   5.681   6.197
 9748TIP3   OH229186   6.498   3.392   3.211
 9748TIP3    H129187   6.476   3.309   3.253
 9748TIP3    H229188   6.414   3.434   3.194
 9749TIP3   OH229189   4.539   0.355   3.543
 9749TIP3    H129190   4.510   0.363   3.452
 9749TIP3    H229191   4.459   0.346   3.594
 9750TIP3   OH229192   2.669   3.247   1.303
 9750TIP3    H129193   2.689   3.241   1.396
 9750TIP3    H229194   2.664   3.156   1.274
 9751TIP3   OH229195   0.712   6.593   1.841
 9751TIP3    H129196   0.692   6.666   1.900
 9751TIP3    H229197   0.796   6.559   1.873
 9752TIP3   OH229198   4.759   3.142   4.796
 9752TIP3    H129199   4.852   3.136   4.774
 9752TIP3    H229200   4.748   3.082   4.870
 9753TIP3   OH229201   7.535   1.808   0.330
 9753TIP3    H129202   7.460   1.792   0.386
 9753TIP3    H229203   7.557   1.900   0.345
 9754TIP3   OH229204   3.125   5.550   6.520
 9754TIP3    H129205   3.156   5.463   6.543
 9754TIP3    H229206   3.032   5.539   6.502
 9755TIP3   OH229207   1.529   1.917   5.589
 9755TIP3    H129208   1.449   1.960   5.618
 9755TIP3    H229209   1.549   1.957   5.505
 9756TIP3   OH229210   1.485   1.905   3.536
 9756TIP3    H129211   1.562   1.913   3.480
 9756TIP3    H229212   1.460   1.813   3.529
 9757TIP3   OH229213   5.124   4.302   3.866
 9757TIP3    H129214   5.140   4.222   3.816
 9757TIP3    H229215   5.193   4.303   3.932
 9758TIP3   OH229216   0.094   3.805   0.649
 9758TIP3    H129217   0.116   3.881   0.596
 9758TIP3    H229218   0.073   3.736   0.586
 9759TIP3   OH229219   3.159   5.657   6.055
 9759TIP3    H129220   3.155   5.641   5.961
 9759TIP3    H229221   3.239   5.612   6.084
 9760TIP3   OH229222   2.046   0.294   2.479
 9760TIP3    H129223   1.976   0.235   2.452
 9760TIP3    H229224   2.126   0.241   2.474
 9761TIP3   OH229225   2.683   2.975   0.644
 9761TIP3    H129226   2.687   3.015   0.557
 9761TIP3    H229227   2.676   3.050   0.704
 9762TIP3   OH229228   7.641   6.349   1.501
 9762TIP3    H129229   7.593   6.420   1.458
 9762TIP3    H229230   7.617   6.357   1.594
 9763TIP3   OH229231   0.538   5.002   6.092
 9763TIP3    H129232   0.534   5.089   6.132
 9763TIP3    H229233   0.499   5.014   6.005
 9764TIP3   OH229234   1.589   7.523   5.930
 9764TIP3    H129235   1.661   7.513   5.868
 9764TIP3    H229236   1.531   7.586   5.888
 9765TIP3   OH229237   5.745   5.064   0.026
 9765TIP3    H129238   5.810   5.081  -0.042
 9765TIP3    H229239   5.753   5.138   0.086
 9766TIP3   OH229240   5.734   3.218   2.572
 9766TIP3    H129241   5.756   3.304   2.609
 9766TIP3    H229242   5.681   3.238   2.495
 9767TIP3   OH229243   4.919   1.577   3.150
 9767TIP3    H129244   4.866   1.537   3.219
 9767TIP3    H229245   5.009   1.556   3.173
 9768TIP3   OH229246   4.695   2.852   4.682
 9768TIP3    H129247   4.627   2.875   4.619
 9768TIP3    H229248   4.671   2.899   4.762
 9769TIP3   OH229249   3.275   6.038   0.983
 9769TIP3    H129250   3.242   5.955   1.017
 9769TIP3    H229251   3.230   6.050   0.900
 9770TIP3   OH229252   4.812   1.362   4.047
 9770TIP3    H129253   4.762   1.301   3.992
 9770TIP3    H229254   4.753   1.383   4.119
 9771TIP3   OH229255   4.348   7.025   5.614
 9771TIP3    H129256   4.407   7.099   5.625
 9771TIP3    H229257   4.322   7.001   5.703
 9772TIP3   OH229258   2.468   3.473   4.891
 9772TIP3    H129259   2.482   3.539   4.959
 9772TIP3    H229260   2.406   3.411   4.931
 9773TIP3   OH229261   4.468   0.622   2.453
 9773TIP3    H129262   4.437   0.532   2.442
 9773TIP3    H229263   4.516   0.621   2.535
 9774TIP3   OH229264   4.838   6.343   0.756
 9774TIP3    H129265   4.903   6.339   0.686
 9774TIP3    H229266   4.757   6.370   0.712
 9775TIP3   OH229267   5.175  -0.025   0.417
 9775TIP3    H129268   5.106  -0.075   0.374
 9775TIP3    H229269   5.129   0.043   0.466
 9776TIP3   OH229270   7.759   6.344   2.254
 9776TIP3    H129271   7.851   6.345   2.280
 9776TIP3    H229272   7.720   6.419   2.299
 9777TIP3   OH229273   0.445   0.410   5.436
 9777TIP3    H129274   0.469   0.422   5.344
 9777TIP3    H229275   0.451   0.497   5.474
 9778TIP3   OH229276   2.680   2.598   3.829
 9778TIP3    H129277   2.758   2.626   3.877
 9778TIP3    H229278   2.683   2.649   3.748
 9779TIP3   OH229279   8.135   0.298   1.843
 9779TIP3    H129280   8.144   0.379   1.894
 9779TIP3    H229281   8.125   0.328   1.753
 9780TIP3   OH229282   4.852   4.531   1.737
 9780TIP3    H129283   4.876   4.460   1.679
 9780TIP3    H229284   4.856   4.610   1.682
 9781TIP3   OH229285   6.614   6.038   3.279
 9781TIP3    H129286   6.650   6.126   3.288
 9781TIP3    H229287   6.679   5.981   3.321
 9782TIP3   OH229288   0.369   5.933   6.535
 9782TIP3    H129289   0.382   5.845   6.499
 9782TIP3    H229290   0.420   5.934   6.616
 9783TIP3   OH229291   2.447   7.265   1.897
 9783TIP3    H129292   2.482   7.291   1.811
 9783TIP3    H229293   2.467   7.172   1.904
 9784TIP3   OH229294   0.903   2.510   2.040
 9784TIP3    H129295   0.811   2.533   2.053
 9784TIP3    H229296   0.940   2.586   1.995
 9785TIP3   OH229297   4.115   3.987   4.601
 9785TIP3    H129298   4.121   3.897   4.568
 9785TIP3    H229299   4.123   4.041   4.522
 9786TIP3   OH229300   0.514   6.154   6.503
 9786TIP3    H129301   0.496   6.177   6.594
 9786TIP3    H229302   0.498   6.060   6.498
 9787TIP3   OH229303   2.781   1.820   2.523
 9787TIP3    H129304   2.847   1.754   2.502
 9787TIP3    H229305   2.738   1.838   2.440
 9788TIP3   OH229306   3.605   7.179   6.438
 9788TIP3    H129307   3.653   7.098   6.453
 9788TIP3    H229308   3.638   7.213   6.355
 9789TIP3   OH229309   1.823   0.692   2.021
 9789TIP3    H129310   1.801   0.603   1.994
 9789TIP3    H229311   1.846   0.684   2.113
 9790TIP3   OH229312   1.577   5.054   5.135
 9790TIP3    H129313   1.510   5.003   5.089
 9790TIP3    H229314   1.527   5.111   5.193
 9791TIP3   OH229315   6.774   7.301   6.324
 9791TIP3    H129316   6.839   7.351   6.373
 9791TIP3    H229317   6.776   7.213   6.364
 9792TIP3   OH229318   3.764   2.964   3.493
 9792TIP3    H129319   3.774   3.020   3.416
 9792TIP3    H229320   3.830   2.895   3.482
 9793TIP3   OH229321   1.638   3.840   1.567
 9793TIP3    H129322   1.609   3.824   1.657
 9793TIP3    H229323   1.717   3.894   1.576
 9794TIP3   OH229324   6.644   6.709   3.776
 9794TIP3    H129325   6.622   6.680   3.865
 9794TIP3    H229326   6.601   6.794   3.768
 9795TIP3   OH229327   0.353   4.611   3.846
 9795TIP3    H129328   0.361   4.699   3.811
 9795TIP3    H229329   0.443   4.584   3.866
 9796TIP3   OH229330   4.054   0.610   2.896
 9796TIP3    H129331   4.099   0.694   2.898
 9796TIP3    H229332   4.114   0.552   2.850
 9797TIP3   OH229333   1.008   5.731   4.250
 9797TIP3    H129334   1.103   5.740   4.261
 9797TIP3    H229335   0.977   5.821   4.239
 9798TIP3   OH229336   5.513   1.590   6.181
 9798TIP3    H129337   5.543   1.546   6.260
 9798TIP3    H229338   5.576   1.565   6.114
 9799TIP3   OH229339   1.635   1.948   6.673
 9799TIP3    H129340   1.630   1.921   6.581
 9799TIP3    H229341   1.583   2.028   6.677
 9800TIP3   OH229342   0.970   2.574   4.494
 9800TIP3    H129343   0.903   2.554   4.428
 9800TIP3    H229344   0.939   2.654   4.536
 9801TIP3   OH229345   4.559   5.466   0.974
 9801TIP3    H129346   4.489   5.501   1.030
 9801TIP3    H229347   4.610   5.543   0.949
 9802TIP3   OH229348   4.888   3.842   5.615
 9802TIP3    H129349   4.837   3.765   5.639
 9802TIP3    H229350   4.844   3.877   5.538
 9803TIP3   OH229351   5.572   1.563   3.046
 9803TIP3    H129352   5.636   1.634   3.053
 9803TIP3    H229353   5.565   1.528   3.134
 9804TIP3   OH229354   1.655   0.028   4.076
 9804TIP3    H129355   1.628  -0.062   4.059
 9804TIP3    H229356   1.679   0.030   4.169
 9805TIP3   OH229357   5.411   0.229   0.948
 9805TIP3    H129358   5.458   0.204   1.027
 9805TIP3    H229359   5.426   0.156   0.888
 9806TIP3   OH229360   3.696   1.443   2.893
 9806TIP3    H129361   3.690   1.351   2.868
 9806TIP3    H229362   3.610   1.464   2.927
 9807TIP3   OH229363   7.751   6.013   0.287
 9807TIP3    H129364   7.758   5.922   0.258
 9807TIP3    H229365   7.672   6.046   0.243
 9808TIP3   OH229366   1.574   5.725   3.002
 9808TIP3    H129367   1.600   5.805   2.957
 9808TIP3    H229368   1.656   5.678   3.018
 9809TIP3   OH229369   6.104   2.204   1.820
 9809TIP3    H129370   6.093   2.199   1.915
 9809TIP3    H229371   6.028   2.253   1.790
 9810TIP3   OH229372   2.010   2.043   2.837
 9810TIP3    H129373   2.069   2.064   2.910
 9810TIP3    H229374   2.050   1.968   2.794
 9811TIP3   OH229375   7.521  -0.028   3.286
 9811TIP3    H129376   7.605  -0.013   3.243
 9811TIP3    H229377   7.461   0.034   3.244
 9812TIP3   OH229378   6.007   3.661   4.602
 9812TIP3    H129379   6.033   3.642   4.692
 9812TIP3    H229380   5.964   3.747   4.608
 9813TIP3   OH229381   7.347   0.249   4.284
 9813TIP3    H129382   7.421   0.224   4.340
 9813TIP3    H229383   7.292   0.303   4.340
 9814TIP3   OH229384   3.837   7.157   2.576
 9814TIP3    H129385   3.815   7.065   2.562
 9814TIP3    H229386   3.754   7.203   2.569
 9815TIP3   OH229387   7.237   6.564   4.431
 9815TIP3    H129388   7.232   6.626   4.359
 9815TIP3    H229389   7.198   6.484   4.395
 9816TIP3   OH229390   1.975   1.430   3.256
 9816TIP3    H129391   2.016   1.345   3.243
 9816TIP3    H229392   2.047   1.492   3.253
 9817TIP3   OH229393   0.224   6.612   2.687
 9817TIP3    H129394   0.276   6.688   2.662
 9817TIP3    H229395   0.235   6.606   2.782
 9818TIP3   OH229396   2.110   4.483   4.367
 9818TIP3    H129397   2.115   4.508   4.459
 9818TIP3    H229398   2.173   4.540   4.323
 9819TIP3   OH229399   4.709   6.090   1.658
 9819TIP3    H129400   4.704   5.996   1.677
 9819TIP3    H229401   4.662   6.100   1.575
 9820TIP3   OH229402   4.597   7.313   2.371
 9820TIP3    H129403   4.552   7.297   2.454
 9820TIP3    H229404   4.555   7.253   2.309
 9821TIP3   OH229405   5.203   2.669   1.419
 9821TIP3    H129406   5.181   2.758   1.447
 9821TIP3    H229407   5.199   2.672   1.323
 9822TIP3   OH229408   7.149   0.174   3.550
 9822TIP3    H129409   7.223   0.174   3.490
 9822TIP3    H229410   7.071   0.177   3.494
 9823TIP3   OH229411   5.824   0.078   0.862
 9823TIP3    H129412   5.867   0.160   0.888
 9823TIP3    H229413   5.734   0.088   0.894
 9824TIP3   OH229414   5.590   1.778   6.452
 9824TIP3    H129415   5.547   1.693   6.457
 9824TIP3    H229416   5.654   1.769   6.382
 9825TIP3   OH229417   5.316   3.226   6.252
 9825TIP3    H129418   5.376   3.287   6.207
 9825TIP3    H229419   5.267   3.185   6.181
 9826TIP3   OH229420   3.287   6.710   6.368
 9826TIP3    H129421   3.360   6.761   6.404
 9826TIP3    H229422   3.211   6.738   6.418
 9827TIP3   OH229423   8.054   2.147   0.618
 9827TIP3    H129424   8.099   2.082   0.563
 9827TIP3    H229425   8.011   2.205   0.556
 9828TIP3   OH229426   1.709   3.857   1.200
 9828TIP3    H129427   1.767   3.843   1.125
 9828TIP3    H229428   1.758   3.823   1.274
 9829TIP3   OH229429   7.799   2.972   5.937
 9829TIP3    H129430   7.736   3.044   5.944
 9829TIP3    H229431   7.808   2.939   6.026
 9830TIP3   OH229432   0.127   2.989   0.657
 9830TIP3    H129433   0.108   3.079   0.684
 9830TIP3    H229434   0.110   2.937   0.736
 9831TIP3   OH229435   3.006   5.521   1.839
 9831TIP3    H129436   2.931   5.564   1.880
 9831TIP3    H229437   2.997   5.429   1.861
 9832TIP3   OH229438   7.550   4.862   6.561
 9832TIP3    H129439   7.474   4.916   6.579
 9832TIP3    H229440   7.595   4.854   6.646
 9833TIP3   OH229441   1.167   6.895   3.868
 9833TIP3    H129442   1.166   6.843   3.788
 9833TIP3    H229443   1.253   6.878   3.906
 9834TIP3   OH229444   1.236   4.642   3.696
 9834TIP3    H129445   1.276   4.564   3.656
 9834TIP3    H229446   1.295   4.714   3.673
 9835TIP3   OH229447   0.639   6.283   4.191
 9835TIP3    H129448   0.711   6.314   4.246
 9835TIP3    H229449   0.584   6.231   4.249
 9836TIP3   OH229450   4.776   0.188   3.051
 9836TIP3    H129451   4.817   0.136   2.982
 9836TIP3    H229452   4.687   0.153   3.057
 9837TIP3   OH229453   7.058   0.489   2.957
 9837TIP3    H129454   6.963   0.499   2.970
 9837TIP3    H229455   7.091   0.578   2.950
 9838TIP3   OH229456   4.481   0.172   4.836
 9838TIP3    H129457   4.508   0.169   4.744
 9838TIP3    H229458   4.442   0.259   4.847
 9839TIP3   OH229459   5.314   4.747   3.177
 9839TIP3    H129460   5.385   4.807   3.199
 9839TIP3    H229461   5.352   4.660   3.187
 9840TIP3   OH229462   1.743   6.266   4.727
 9840TIP3    H129463   1.831   6.230   4.738
 9840TIP3    H229464   1.709   6.274   4.816
 9841TIP3   OH229465   6.284   1.810   1.477
 9841TIP3    H129466   6.346   1.808   1.405
 9841TIP3    H229467   6.336   1.791   1.555
 9842TIP3   OH229468   7.727   2.631   1.181
 9842TIP3    H129469   7.697   2.547   1.215
 9842TIP3    H229470   7.758   2.611   1.092
 9843TIP3   OH229471   5.318   5.605   3.398
 9843TIP3    H129472   5.263   5.683   3.387
 9843TIP3    H229473   5.352   5.612   3.487
 9844TIP3   OH229474   8.045   0.606   0.834
 9844TIP3    H129475   8.029   0.563   0.750
 9844TIP3    H229476   8.140   0.601   0.846
 9845TIP3   OH229477   4.455   2.334   5.997
 9845TIP3    H129478   4.458   2.253   6.047
 9845TIP3    H229479   4.546   2.363   5.994
 9846TIP3   OH229480   5.580   4.906   0.364
 9846TIP3    H129481   5.661   4.924   0.315
 9846TIP3    H229482   5.573   4.979   0.425
 9847TIP3   OH229483   8.094   4.454   0.552
 9847TIP3    H129484   8.095   4.540   0.509
 9847TIP3    H229485   8.185   4.439   0.577
 9848TIP3   OH229486   2.454   0.825   6.002
 9848TIP3    H129487   2.384   0.797   6.061
 9848TIP3    H229488   2.408   0.864   5.927
 9849TIP3   OH229489   3.166   3.503   1.094
 9849TIP3    H129490   3.077   3.512   1.059
 9849TIP3    H229491   3.161   3.539   1.182
 9850TIP3   OH229492   3.101   5.293   0.176
 9850TIP3    H129493   3.165   5.221   0.169
 9850TIP3    H229494   3.144   5.367   0.132
 9851TIP3   OH229495   4.360   3.162   5.571
 9851TIP3    H129496   4.364   3.068   5.555
 9851TIP3    H229497   4.369   3.171   5.665
 9852TIP3   OH229498   3.919   3.588   4.351
 9852TIP3    H129499   3.920   3.604   4.446
 9852TIP3    H229500   4.008   3.562   4.330
 9853TIP3   OH229501   4.010   4.339   0.463
 9853TIP3    H129502   3.996   4.274   0.532
 9853TIP3    H229503   4.025   4.421   0.509
 9854TIP3   OH229504   3.479   4.076   4.816
 9854TIP3    H129505   3.391   4.069   4.780
 9854TIP3    H229506   3.498   4.169   4.816
 9855TIP3   OH229507   1.642   6.279   2.991
 9855TIP3    H129508   1.594   6.321   3.062
 9855TIP3    H229509   1.719   6.242   3.033
 9856TIP3   OH229510   0.887   7.644   3.021
 9856TIP3    H129511   0.953   7.618   3.086
 9856TIP3    H229512   0.935   7.701   2.960
 9857TIP3   OH229513   5.568   2.339   2.687
 9857TIP3    H129514   5.562   2.375   2.776
 9857TIP3    H229515   5.483   2.357   2.648
 9858TIP3   OH229516   5.087   3.632   2.237
 9858TIP3    H129517   5.159   3.636   2.301
 9858TIP3    H229518   5.108   3.555   2.183
 9859TIP3   OH229519   4.715   2.939   6.669
 9859TIP3    H129520   4.653   2.971   6.734
 9859TIP3    H229521   4.790   2.909   6.719
 9860TIP3   OH229522   3.249   6.590   1.818
 9860TIP3    H129523   3.314   6.546   1.873
 9860TIP3    H229524   3.225   6.524   1.752
 9861TIP3   OH229525   3.498   2.978   2.823
 9861TIP3    H129526   3.571   2.916   2.819
 9861TIP3    H229527   3.536   3.057   2.861
 9862TIP3   OH229528   3.339   0.983   6.015
 9862TIP3    H129529   3.393   0.917   6.059
 9862TIP3    H229530   3.254   0.940   6.004
 9863TIP3   OH229531   2.680   2.715   3.571
 9863TIP3    H129532   2.696   2.628   3.534
 9863TIP3    H229533   2.694   2.775   3.497
 9864TIP3   OH229534   0.850   2.369   0.717
 9864TIP3    H129535   0.771   2.423   0.708
 9864TIP3    H229536   0.819   2.288   0.758
 9865TIP3   OH229537   5.772   7.395   1.004
 9865TIP3    H129538   5.842   7.377   1.066
 9865TIP3    H229539   5.736   7.309   0.984
 9866TIP3   OH229540   6.162   5.327   0.294
 9866TIP3    H129541   6.207   5.378   0.227
 9866TIP3    H229542   6.207   5.243   0.295
 9867TIP3   OH229543   7.909   2.496   2.899
 9867TIP3    H129544   7.825   2.503   2.853
 9867TIP3    H229545   7.972   2.470   2.832
 9868TIP3   OH229546   3.288   2.658   2.440
 9868TIP3    H129547   3.197   2.653   2.411
 9868TIP3    H229548   3.292   2.737   2.494
 9869TIP3   OH229549   2.858   0.924   0.700
 9869TIP3    H129550   2.894   0.922   0.611
 9869TIP3    H229551   2.791   0.993   0.697
 9870TIP3   OH229552   0.234   4.384   6.145
 9870TIP3    H129553   0.317   4.404   6.190
 9870TIP3    H229554   0.191   4.469   6.138
 9871TIP3   OH229555   4.620   7.491   6.305
 9871TIP3    H129556   4.590   7.451   6.223
 9871TIP3    H229557   4.637   7.582   6.282
 9872TIP3   OH229558   6.643   3.251   6.451
 9872TIP3    H129559   6.712   3.291   6.399
 9872TIP3    H229560   6.662   3.278   6.541
 9873TIP3   OH229561   7.973   0.817   4.369
 9873TIP3    H129562   7.978   0.811   4.465
 9873TIP3    H229563   7.980   0.727   4.339
 9874TIP3   OH229564   0.086   0.880   4.400
 9874TIP3    H129565   0.160   0.926   4.361
 9874TIP3    H229566   0.036   0.845   4.326
 9875TIP3   OH229567   6.266   5.476   0.072
 9875TIP3    H129568   6.311   5.443  -0.006
 9875TIP3    H229569   6.326   5.541   0.110
 9876TIP3   OH229570   4.739   2.778   3.275
 9876TIP3    H129571   4.726   2.806   3.365
 9876TIP3    H229572   4.829   2.803   3.255
 9877TIP3   OH229573   6.273   3.392   0.777
 9877TIP3    H129574   6.190   3.348   0.757
 9877TIP3    H229575   6.301   3.353   0.860
 9878TIP3   OH229576   7.502   4.593   5.852
 9878TIP3    H129577   7.479   4.678   5.816
 9878TIP3    H229578   7.587   4.607   5.895
 9879TIP3   OH229579   3.681   3.272   0.472
 9879TIP3    H129580   3.772   3.268   0.500
 9879TIP3    H229581   3.680   3.232   0.385
 9880TIP3   OH229582   7.656   1.014   4.641
 9880TIP3    H129583   7.617   0.981   4.561
 9880TIP3    H229584   7.748   1.030   4.618
 9881TIP3   OH229585   6.480   5.337   1.445
 9881TIP3    H129586   6.393   5.334   1.405
 9881TIP3    H229587   6.462   5.352   1.538
 9882TIP3   OH229588   4.476   4.232   3.909
 9882TIP3    H129589   4.391   4.188   3.909
 9882TIP3    H229590   4.518   4.203   3.828
 9883TIP3   OH229591   3.195   5.719   1.446
 9883TIP3    H129592   3.288   5.721   1.466
 9883TIP3    H229593   3.189   5.753   1.356
 9884TIP3   OH229594   0.783   7.031   1.467
 9884TIP3    H129595   0.811   7.054   1.379
 9884TIP3    H229596   0.746   6.943   1.459
 9885TIP3   OH229597   6.375   4.442   6.749
 9885TIP3    H129598   6.293   4.474   6.787
 9885TIP3    H229599   6.402   4.371   6.807
 9886TIP3   OH229600   1.901   4.868   2.992
 9886TIP3    H129601   1.843   4.826   2.928
 9886TIP3    H229602   1.927   4.797   3.051
 9887TIP3   OH229603   1.028   6.234   1.267
 9887TIP3    H129604   1.066   6.234   1.356
 9887TIP3    H229605   1.090   6.286   1.215
 9888TIP3   OH229606   6.662   1.264   5.822
 9888TIP3    H129607   6.659   1.359   5.815
 9888TIP3    H229608   6.754   1.244   5.841
 9889TIP3   OH229609   6.319   1.735   2.138
 9889TIP3    H129610   6.261   1.760   2.211
 9889TIP3    H229611   6.325   1.639   2.145
 9890TIP3   OH229612   1.991   2.945   2.005
 9890TIP3    H129613   1.962   2.903   1.923
 9890TIP3    H229614   2.051   3.013   1.977
 9891TIP3   OH229615   7.574   2.391   4.437
 9891TIP3    H129616   7.610   2.456   4.377
 9891TIP3    H229617   7.651   2.349   4.476
 9892TIP3   OH229618   7.113   7.316   5.016
 9892TIP3    H129619   7.076   7.382   5.074
 9892TIP3    H229620   7.078   7.233   5.050
 9893TIP3   OH229621   6.109   4.568   6.484
 9893TIP3    H129622   6.159   4.488   6.465
 9893TIP3    H229623   6.109   4.575   6.579
 9894TIP3   OH229624   3.364   0.793   4.083
 9894TIP3    H129625   3.423   0.792   4.158
 9894TIP3    H229626   3.312   0.873   4.095
 9895TIP3   OH229627   1.135   1.093   6.734
 9895TIP3    H129628   1.199   1.101   6.663
 9895TIP3    H229629   1.188   1.074   6.812
 9896TIP3   OH229630   0.783   0.652   4.482
 9896TIP3    H129631   0.833   0.670   4.403
 9896TIP3    H229632   0.848   0.638   4.551
 9897TIP3   OH229633   3.919   6.954   4.435
 9897TIP3    H129634   4.003   6.915   4.461
 9897TIP3    H229635   3.905   6.921   4.346
 9898TIP3   OH229636   0.459   2.185   4.019
 9898TIP3    H129637   0.376   2.153   4.056
 9898TIP3    H229638   0.495   2.242   4.087
 9899TIP3   OH229639   6.749   3.437   1.174
 9899TIP3    H129640   6.813   3.371   1.199
 9899TIP3    H229641   6.742   3.428   1.079
 9900TIP3   OH229642   6.987   0.393   4.891
 9900TIP3    H129643   6.973   0.486   4.912
 9900TIP3    H229644   6.913   0.348   4.932
 9901TIP3   OH229645   6.333   0.884   1.288
 9901TIP3    H129646   6.244   0.858   1.264
 9901TIP3    H229647   6.353   0.832   1.366
 9902TIP3   OH229648   1.152   7.106   0.450
 9902TIP3    H129649   1.232   7.154   0.470
 9902TIP3    H229650   1.152   7.032   0.511
 9903TIP3   OH229651   2.968   5.870   6.104
 9903TIP3    H129652   3.047   5.821   6.084
 9903TIP3    H229653   2.999   5.958   6.126
 9904TIP3   OH229654   3.726   2.807   5.044
 9904TIP3    H129655   3.693   2.732   5.093
 9904TIP3    H229656   3.654   2.870   5.044
 9905TIP3   OH229657   2.065   7.831   1.171
 9905TIP3    H129658   1.981   7.824   1.127
 9905TIP3    H229659   2.092   7.741   1.188
 9906TIP3   OH229660   6.946   1.322   4.603
 9906TIP3    H129661   6.964   1.328   4.697
 9906TIP3    H229662   6.863   1.274   4.597
 9907TIP3   OH229663   2.971   6.585   2.439
 9907TIP3    H129664   2.961   6.584   2.534
 9907TIP3    H229665   3.052   6.537   2.423
 9908TIP3   OH229666   5.859   3.381   1.876
 9908TIP3    H129667   5.814   3.302   1.848
 9908TIP3    H229668   5.819   3.403   1.960
 9909TIP3   OH229669   4.715   1.430   1.834
 9909TIP3    H129670   4.786   1.485   1.802
 9909TIP3    H229671   4.636   1.483   1.821
 9910TIP3   OH229672   4.094   5.152   3.912
 9910TIP3    H129673   4.154   5.098   3.963
 9910TIP3    H229674   4.064   5.219   3.974
 9911TIP3   OH229675   3.965   1.044   6.294
 9911TIP3    H129676   3.915   1.124   6.311
 9911TIP3    H229677   3.900   0.974   6.289
 9912TIP3   OH229678   7.016   0.807   1.184
 9912TIP3    H129679   6.960   0.848   1.118
 9912TIP3    H229680   7.057   0.880   1.230
 9913TIP3   OH229681   5.000   6.464   0.938
 9913TIP3    H129682   5.088   6.462   0.898
 9913TIP3    H229683   4.947   6.409   0.880
 9914TIP3   OH229684   3.650   3.031   5.657
 9914TIP3    H129685   3.674   3.090   5.586
 9914TIP3    H229686   3.632   3.088   5.732
 9915TIP3   OH229687   4.748   1.225   1.641
 9915TIP3    H129688   4.817   1.206   1.705
 9915TIP3    H229689   4.671   1.177   1.673
 9916TIP3   OH229690   0.913   2.949   5.554
 9916TIP3    H129691   0.898   2.892   5.629
 9916TIP3    H229692   0.828   2.988   5.536
 9917TIP3   OH229693   6.048   0.791   6.014
 9917TIP3    H129694   6.086   0.801   5.927
 9917TIP3    H229695   6.122   0.766   6.069
 9918TIP3   OH229696   8.128   7.360   0.530
 9918TIP3    H129697   8.086   7.284   0.570
 9918TIP3    H229698   8.209   7.326   0.492
 9919TIP3   OH229699   3.534   6.287   5.936
 9919TIP3    H129700   3.446   6.258   5.913
 9919TIP3    H229701   3.521   6.367   5.987
 9920TIP3   OH229702   2.424   0.452   4.842
 9920TIP3    H129703   2.460   0.369   4.872
 9920TIP3    H229704   2.497   0.495   4.797
 9921TIP3   OH229705   2.352   1.699   0.790
 9921TIP3    H129706   2.287   1.768   0.774
 9921TIP3    H229707   2.435   1.737   0.759
 9922TIP3   OH229708   4.822   3.996   5.392
 9922TIP3    H129709   4.800   4.040   5.310
 9922TIP3    H229710   4.847   4.067   5.451
 9923TIP3   OH229711   4.553   1.045   3.060
 9923TIP3    H129712   4.608   1.076   2.988
 9923TIP3    H229713   4.480   1.107   3.062
 9924TIP3   OH229714   3.585   7.222   0.408
 9924TIP3    H129715   3.596   7.257   0.496
 9924TIP3    H229716   3.653   7.265   0.356
 9925TIP3   OH229717   0.953   3.120   1.928
 9925TIP3    H129718   1.016   3.181   1.965
 9925TIP3    H229719   0.869   3.166   1.932
 9926TIP3   OH229720   7.742   4.375   2.941
 9926TIP3    H129721   7.726   4.299   2.997
 9926TIP3    H229722   7.807   4.427   2.988
 9927TIP3   OH229723   2.047   6.424   4.912
 9927TIP3    H129724   1.958   6.436   4.945
 9927TIP3    H229725   2.085   6.512   4.911
 9928TIP3   OH229726   1.670   6.093   6.777
 9928TIP3    H129727   1.602   6.064   6.717
 9928TIP3    H229728   1.718   6.014   6.800
 9929TIP3   OH229729   1.592   7.554   4.685
 9929TIP3    H129730   1.502   7.589   4.681
 9929TIP3    H229731   1.632   7.583   4.603
 9930TIP3   OH229732   2.194   4.011   4.271
 9930TIP3    H129733   2.232   4.098   4.280
 9930TIP3    H229734   2.137   4.001   4.348
 9931TIP3   OH229735   7.464   5.199   4.832
 9931TIP3    H129736   7.491   5.234   4.747
 9931TIP3    H229737   7.456   5.277   4.888
 9932TIP3   OH229738   6.417   2.001   4.055
 9932TIP3    H129739   6.361   1.948   4.112
 9932TIP3    H229740   6.423   1.950   3.974
 9933TIP3   OH229741   3.149   5.000   4.719
 9933TIP3    H129742   3.077   5.059   4.742
 9933TIP3    H229743   3.226   5.039   4.760
 9934TIP3   OH229744   7.424   4.642   0.506
 9934TIP3    H129745   7.501   4.659   0.452
 9934TIP3    H229746   7.353   4.686   0.460
 9935TIP3   OH229747   0.163   6.184   1.878
 9935TIP3    H129748   0.250   6.207   1.847
 9935TIP3    H229749   0.104   6.210   1.807
 9936TIP3   OH229750   3.253   1.580   4.780
 9936TIP3    H129751   3.244   1.520   4.854
 9936TIP3    H229752   3.203   1.658   4.807
 9937TIP3   OH229753   7.256   6.294   0.967
 9937TIP3    H129754   7.251   6.364   1.033
 9937TIP3    H229755   7.238   6.214   1.016
 9938TIP3   OH229756   0.836   6.685   3.540
 9938TIP3    H129757   0.852   6.681   3.446
 9938TIP3    H229758   0.780   6.609   3.559
 9939TIP3   OH229759   3.294   3.593   4.296
 9939TIP3    H129760   3.339   3.677   4.290
 9939TIP3    H229761   3.363   3.528   4.280
 9940TIP3   OH229762   2.428   5.361   1.354
 9940TIP3    H129763   2.506   5.416   1.348
 9940TIP3    H229764   2.370   5.409   1.413
 9941TIP3   OH229765   0.474   4.686   2.770
 9941TIP3    H129766   0.528   4.740   2.827
 9941TIP3    H229767   0.390   4.679   2.815
 9942TIP3   OH229768   0.312   6.022   2.068
 9942TIP3    H129769   0.269   6.060   1.991
 9942TIP3    H229770   0.286   6.078   2.141
 9943TIP3   OH229771   5.645   1.039   1.271
 9943TIP3    H129772   5.589   1.075   1.340
 9943TIP3    H229773   5.626   0.945   1.272
 9944TIP3   OH229774   7.391   3.913   4.086
 9944TIP3    H129775   7.415   3.843   4.147
 9944TIP3    H229776   7.360   3.984   4.142
 9945TIP3   OH229777   3.091   7.728   0.301
 9945TIP3    H129778   3.072   7.795   0.235
 9945TIP3    H229779   3.059   7.766   0.383
 9946TIP3   OH229780   5.109   1.780   2.249
 9946TIP3    H129781   5.069   1.707   2.203
 9946TIP3    H229782   5.193   1.746   2.280
 9947TIP3   OH229783   7.661   2.269   2.141
 9947TIP3    H129784   7.615   2.187   2.120
 9947TIP3    H229785   7.593   2.336   2.141
 9948TIP3   OH229786   6.817   7.155   1.704
 9948TIP3    H129787   6.886   7.159   1.637
 9948TIP3    H229788   6.806   7.062   1.722
 9949TIP3   OH229789   1.135   5.640   3.065
 9949TIP3    H129790   1.058   5.681   3.105
 9949TIP3    H229791   1.208   5.694   3.094
 9950TIP3   OH229792   4.359   6.510   1.584
 9950TIP3    H129793   4.403   6.576   1.530
 9950TIP3    H229794   4.379   6.537   1.674
 9951TIP3   OH229795   4.917   6.167   5.026
 9951TIP3    H129796   4.952   6.136   4.943
 9951TIP3    H229797   4.828   6.194   5.006
 9952TIP3   OH229798   2.447   2.535   2.874
 9952TIP3    H129799   2.419   2.592   2.802
 9952TIP3    H229800   2.401   2.569   2.951
 9953TIP3   OH229801   5.913   4.038   5.068
 9953TIP3    H129802   5.822   4.010   5.081
 9953TIP3    H229803   5.960   4.001   5.143
 9954TIP3   OH229804   6.275   2.460   6.170
 9954TIP3    H129805   6.212   2.460   6.098
 9954TIP3    H229806   6.307   2.370   6.174
 9955TIP3   OH229807   3.450   2.589   4.936
 9955TIP3    H129808   3.367   2.582   4.985
 9955TIP3    H229809   3.517   2.566   5.000
 9956TIP3   OH229810   4.852   2.924   0.709
 9956TIP3    H129811   4.896   3.001   0.745
 9956TIP3    H229812   4.802   2.888   0.783
 9957TIP3   OH229813   7.539   1.776   3.085
 9957TIP3    H129814   7.600   1.847   3.102
 9957TIP3    H229815   7.586   1.717   3.026
 9958TIP3   OH229816   6.915   1.550   3.146
 9958TIP3    H129817   6.888   1.459   3.153
 9958TIP3    H229818   7.010   1.548   3.158
 9959TIP3   OH229819   4.565   3.866   2.078
 9959TIP3    H129820   4.499   3.796   2.086
 9959TIP3    H229821   4.575   3.899   2.168
 9960TIP3   OH229822   3.873   1.323   4.613
 9960TIP3    H129823   3.794   1.378   4.612
 9960TIP3    H229824   3.890   1.307   4.705
 9961TIP3   OH229825   6.672   0.181   5.568
 9961TIP3    H129826   6.618   0.259   5.584
 9961TIP3    H229827   6.689   0.146   5.655
 9962TIP3   OH229828   4.291   4.963   1.525
 9962TIP3    H129829   4.256   4.898   1.586
 9962TIP3    H229830   4.341   4.912   1.461
 9963TIP3   OH229831   6.622   3.544   2.553
 9963TIP3    H129832   6.552   3.534   2.618
 9963TIP3    H229833   6.698   3.572   2.604
 9964TIP3   OH229834   4.506   7.668   3.417
 9964TIP3    H129835   4.431   7.625   3.376
 9964TIP3    H229836   4.525   7.743   3.360
 9965TIP3   OH229837   5.831   7.881   0.596
 9965TIP3    H129838   5.847   7.787   0.587
 9965TIP3    H229839   5.874   7.920   0.519
 9966TIP3   OH229840   5.753   4.001   2.419
 9966TIP3    H129841   5.814   3.960   2.358
 9966TIP3    H229842   5.724   4.080   2.374
 9967TIP3   OH229843   7.712   3.536   5.015
 9967TIP3    H129844   7.711   3.468   4.947
 9967TIP3    H229845   7.620   3.557   5.029
 9968TIP3   OH229846   3.405   7.800   2.527
 9968TIP3    H129847   3.380   7.732   2.588
 9968TIP3    H229848   3.492   7.773   2.495
 9969TIP3   OH229849   4.080   2.515   5.630
 9969TIP3    H129850   3.999   2.503   5.581
 9969TIP3    H229851   4.139   2.559   5.570
 9970TIP3   OH229852   3.981   7.820   3.174
 9970TIP3    H129853   3.945   7.819   3.262
 9970TIP3    H229854   4.062   7.769   3.180
 9971TIP3   OH229855   0.813   0.563   6.705
 9971TIP3    H129856   0.834   0.605   6.622
 9971TIP3    H229857   0.856   0.478   6.702
 9972TIP3   OH229858   6.000   5.699   3.165
 9972TIP3    H129859   6.068   5.644   3.204
 9972TIP3    H229860   5.918   5.657   3.190
 9973TIP3   OH229861   4.950   2.207   6.168
 9973TIP3    H129862   4.876   2.163   6.211
 9973TIP3    H229863   4.978   2.274   6.230
 9974TIP3   OH229864   7.060   5.208   4.329
 9974TIP3    H129865   7.124   5.189   4.397
 9974TIP3    H229866   7.033   5.122   4.296
 9975TIP3   OH229867   1.819   1.800   2.617
 9975TIP3    H129868   1.836   1.889   2.586
 9975TIP3    H229869   1.735   1.777   2.578
 9976TIP3   OH229870   4.315   3.077   4.063
 9976TIP3    H129871   4.328   3.074   4.158
 9976TIP3    H229872   4.318   2.986   4.035
 9977TIP3   OH229873   5.990   0.637   1.856
 9977TIP3    H129874   5.954   0.722   1.830
 9977TIP3    H229875   6.069   0.628   1.803
 9978TIP3   OH229876   3.299   5.870   6.343
 9978TIP3    H129877   3.362   5.803   6.370
 9978TIP3    H229878   3.216   5.842   6.382
 9979TIP3   OH229879   6.301   5.317   4.799
 9979TIP3    H129880   6.327   5.260   4.727
 9979TIP3    H229881   6.282   5.258   4.871
 9980TIP3   OH229882   6.269   4.938   5.324
 9980TIP3    H129883   6.203   5.007   5.323
 9980TIP3    H229884   6.220   4.858   5.342
 9981TIP3   OH229885   2.872   2.781   1.358
 9981TIP3    H129886   2.813   2.706   1.352
 9981TIP3    H229887   2.848   2.824   1.440
 9982TIP3   OH229888   6.361   3.537   5.256
 9982TIP3    H129889   6.325   3.466   5.201
 9982TIP3    H229890   6.455   3.521   5.257
 9983TIP3   OH229891   1.908   5.090   5.990
 9983TIP3    H129892   1.984   5.087   6.047
 9983TIP3    H229893   1.833   5.087   6.049
 9984TIP3   OH229894   0.564   1.035   3.845
 9984TIP3    H129895   0.550   1.028   3.750
 9984TIP3    H229896   0.631   0.969   3.864
 9985TIP3   OH229897   6.125   3.678   5.274
 9985TIP3    H129898   6.203   3.623   5.277
 9985TIP3    H229899   6.077   3.647   5.197
 9986TIP3   OH229900   4.628   2.237   4.560
 9986TIP3    H129901   4.715   2.204   4.535
 9986TIP3    H229902   4.645   2.298   4.631
 9987TIP3   OH229903   0.932   7.742   1.807
 9987TIP3    H129904   0.901   7.769   1.720
 9987TIP3    H229905   1.006   7.683   1.789
 9988TIP3   OH229906   5.078   2.673   6.529
 9988TIP3    H129907   5.139   2.639   6.595
 9988TIP3    H229908   5.134   2.695   6.455
 9989TIP3   OH229909   8.040   1.978  -0.006
 9989TIP3    H129910   7.952   1.992   0.028
 9989TIP3    H229911   8.096   1.979   0.072
 9990TIP3   OH229912   2.193   5.112   5.892
 9990TIP3    H129913   2.128   5.060   5.939
 9990TIP3    H229914   2.256   5.048   5.858
 9991TIP3   OH229915   1.785   4.353   3.971
 9991TIP3    H129916   1.857   4.316   4.021
 9991TIP3    H229917   1.798   4.320   3.882
 9992TIP3   OH229918   7.834   6.661   2.034
 9992TIP3    H129919   7.741   6.659   2.009
 9992TIP3    H229920   7.872   6.585   1.989
 9993TIP3   OH229921   3.420   4.497   2.971
 9993TIP3    H129922   3.365   4.502   2.893
 9993TIP3    H229923   3.492   4.558   2.954
 9994TIP3   OH229924   7.428   1.638   6.529
 9994TIP3    H129925   7.437   1.733   6.523
 9994TIP3    H229926   7.333   1.623   6.530
 9995TIP3   OH229927   3.750   1.385   3.692
 9995TIP3    H129928   3.666   1.386   3.739
 9995TIP3    H229929   3.773   1.293   3.685
 9996TIP3   OH229930   7.901   3.630   3.143
 9996TIP3    H129931   7.922   3.712   3.187
 9996TIP3    H229932   7.964   3.567   3.179
 9997TIP3   OH229933   4.886   7.718   4.168
 9997TIP3    H129934   4.950   7.735   4.098
 9997TIP3    H229935   4.806   7.762   4.139
 9998TIP3   OH229936   6.703   2.788   0.906
 9998TIP3    H129937   6.711   2.854   0.837
 9998TIP3    H229938   6.723   2.705   0.862
 9999TIP3   OH229939   5.062   6.586   4.844
 9999TIP3    H129940   5.023   6.664   4.884
 9999TIP3    H229941   5.047   6.516   4.908
10000TIP3   OH229942   1.634   6.469   4.385
10000TIP3    H129943   1.713   6.416   4.399
10000TIP3    H229944   1.608   6.450   4.294
10001TIP3   OH229945   0.173   7.210   1.984
10001TIP3    H129946   0.122   7.291   1.979
10001TIP3    H229947   0.258   7.238   2.018
10002TIP3   OH229948   6.214   7.658   1.283
10002TIP3    H129949   6.289   7.601   1.265
10002TIP3    H229950   6.140   7.613   1.244
10003TIP3   OH229951   2.299   1.491   1.918
10003TIP3    H129952   2.267   1.513   2.005
10003TIP3    H229953   2.394   1.483   1.929
10004TIP3   OH229954   7.350   3.795   6.614
10004TIP3    H129955   7.304   3.837   6.687
10004TIP3    H229956   7.282   3.746   6.567
10005TIP3   OH229957   0.236   4.611   2.146
10005TIP3    H129958   0.331   4.601   2.146
10005TIP3    H229959   0.212   4.609   2.239
10006TIP3   OH229960   7.157   4.937   1.967
10006TIP3    H129961   7.133   4.898   2.051
10006TIP3    H229962   7.087   4.910   1.908
10007TIP3   OH229963   5.330   2.078   2.338
10007TIP3    H129964   5.371   1.996   2.367
10007TIP3    H229965   5.314   2.065   2.244
10008TIP3   OH229966   7.632   7.582   5.774
10008TIP3    H129967   7.613   7.675   5.770
10008TIP3    H229968   7.656   7.566   5.866
10009TIP3   OH229969   8.217   7.054   1.450
10009TIP3    H129970   8.132   7.035   1.412
10009TIP3    H229971   8.198   7.105   1.529
10010TIP3   OH229972   3.115   5.260   6.352
10010TIP3    H129973   3.154   5.188   6.303
10010TIP3    H229974   3.091   5.222   6.436
10011TIP3   OH229975   5.673   7.365   2.759
10011TIP3    H129976   5.627   7.296   2.807
10011TIP3    H229977   5.607   7.402   2.700
10012TIP3   OH229978   7.724   6.519   4.354
10012TIP3    H129979   7.774   6.515   4.272
10012TIP3    H229980   7.790   6.535   4.422
10013TIP3   OH229981   6.971   3.564   5.221
10013TIP3    H129982   6.927   3.616   5.288
10013TIP3    H229983   7.002   3.487   5.268
10014TIP3   OH229984   5.901   1.359   3.787
10014TIP3    H129985   5.995   1.349   3.771
10014TIP3    H229986   5.894   1.435   3.845
10015TIP3   OH229987   6.415   6.781   1.211
10015TIP3    H129988   6.504   6.810   1.228
10015TIP3    H229989   6.422   6.687   1.198
10016TIP3   OH229990   6.474   5.582   4.806
10016TIP3    H129991   6.412   5.518   4.771
10016TIP3    H229992   6.495   5.638   4.731
10017TIP3   OH229993   3.835   4.217   2.619
10017TIP3    H129994   3.871   4.155   2.555
10017TIP3    H229995   3.742   4.223   2.598
10018TIP3   OH229996   1.603   4.420   5.372
10018TIP3    H129997   1.635   4.402   5.460
10018TIP3    H229998   1.583   4.513   5.372
10019TIP3   OH229999   7.655   0.749   0.868
10019TIP3    H130000   7.563   0.774   0.859
10019TIP3    H230001   7.691   0.758   0.780
10020TIP3   OH230002   2.127   7.179   5.147
10020TIP3    H130003   2.129   7.256   5.091
10020TIP3    H230004   2.134   7.213   5.236
10021TIP3   OH230005   1.464   3.675   1.763
10021TIP3    H130006   1.414   3.700   1.686
10021TIP3    H230007   1.516   3.600   1.735
10022TIP3   OH230008   3.436   5.705   0.305
10022TIP3    H130009   3.411   5.633   0.363
10022TIP3    H230010   3.425   5.783   0.359
10023TIP3   OH230011   6.528   0.276   3.057
10023TIP3    H130012   6.529   0.261   3.152
10023TIP3    H230013   6.553   0.368   3.047
10024TIP3   OH230014   5.222   6.302   3.851
10024TIP3    H130015   5.150   6.304   3.788
10024TIP3    H230016   5.197   6.363   3.920
10025TIP3   OH230017   1.634   3.472   2.732
10025TIP3    H130018   1.549   3.477   2.776
10025TIP3    H230019   1.617   3.505   2.644
10026TIP3   OH230020   1.176   7.490   0.927
10026TIP3    H130021   1.094   7.471   0.882
10026TIP3    H230022   1.235   7.420   0.899
10027TIP3   OH230023   6.528   2.512   5.654
10027TIP3    H130024   6.577   2.433   5.632
10027TIP3    H230025   6.589   2.564   5.707
10028TIP3   OH230026   0.492   2.542   6.394
10028TIP3    H130027   0.571   2.538   6.447
10028TIP3    H230028   0.450   2.624   6.418
10029TIP3   OH230029   5.853   4.357   1.132
10029TIP3    H130030   5.800   4.424   1.175
10029TIP3    H230031   5.937   4.360   1.177
10030TIP3   OH230032   7.334   0.716   0.066
10030TIP3    H130033   7.261   0.700   0.126
10030TIP3    H230034   7.325   0.808   0.041
10031TIP3   OH230035   8.210   3.187   1.738
10031TIP3    H130036   8.151   3.239   1.793
10031TIP3    H230037   8.156   3.161   1.664
10032TIP3   OH230038   8.073   1.745   5.790
10032TIP3    H130039   8.168   1.731   5.785
10032TIP3    H230040   8.044   1.688   5.860
10033TIP3   OH230041   6.411   3.529   0.580
10033TIP3    H130042   6.380   3.491   0.662
10033TIP3    H230043   6.446   3.455   0.530
10034TIP3   OH230044   1.474   6.640   1.122
10034TIP3    H130045   1.519   6.628   1.038
10034TIP3    H230046   1.457   6.734   1.127
10035TIP3   OH230047   0.733   1.841   6.443
10035TIP3    H130048   0.676   1.771   6.475
10035TIP3    H230049   0.798   1.795   6.389
10036TIP3   OH230050   8.039   4.885   0.434
10036TIP3    H130051   7.945   4.897   0.423
10036TIP3    H230052   8.078   4.935   0.362
10037TIP3   OH230053   5.239   6.575   0.585
10037TIP3    H130054   5.194   6.630   0.521
10037TIP3    H230055   5.320   6.549   0.542
10038TIP3   OH230056   0.176   7.429   2.774
10038TIP3    H130057   0.111   7.373   2.732
10038TIP3    H230058   0.240   7.368   2.811
10039TIP3   OH230059   1.791   6.164   5.202
10039TIP3    H130060   1.726   6.100   5.232
10039TIP3    H230061   1.835   6.120   5.129
10040TIP3   OH230062   3.103   6.290   4.434
10040TIP3    H130063   3.024   6.240   4.413
10040TIP3    H230064   3.081   6.338   4.514
10041TIP3   OH230065   0.735   2.967   4.439
10041TIP3    H130066   0.673   2.934   4.503
10041TIP3    H230067   0.688   3.037   4.393
10042TIP3   OH230068   4.620   2.059   2.856
10042TIP3    H130069   4.559   2.126   2.826
10042TIP3    H230070   4.634   2.002   2.780
10043TIP3   OH230071   3.033   3.926   0.051
10043TIP3    H130072   3.085   3.849   0.029
10043TIP3    H230073   2.961   3.925  -0.012
10044TIP3   OH230074   6.998   5.110   6.670
10044TIP3    H130075   6.951   5.035   6.707
10044TIP3    H230076   6.979   5.106   6.576
10045TIP3   OH230077   0.772   4.082   1.050
10045TIP3    H130078   0.785   4.114   1.139
10045TIP3    H230079   0.681   4.050   1.050
10046TIP3   OH230080   6.532   4.134   5.808
10046TIP3    H130081   6.479   4.076   5.863
10046TIP3    H230082   6.494   4.221   5.822
10047TIP3   OH230083   3.264   1.093   3.021
10047TIP3    H130084   3.344   1.104   3.073
10047TIP3    H230085   3.199   1.148   3.066
10048TIP3   OH230086   1.625   2.887   1.188
10048TIP3    H130087   1.659   2.857   1.272
10048TIP3    H230088   1.678   2.840   1.123
10049TIP3   OH230089   6.583   3.625   5.022
10049TIP3    H130090   6.567   3.703   4.969
10049TIP3    H230091   6.498   3.606   5.062
10050TIP3   OH230092   3.833   4.082   0.988
10050TIP3    H130093   3.840   4.064   0.894
10050TIP3    H230094   3.835   4.177   0.994
10051TIP3   OH230095   7.291   4.655   3.522
10051TIP3    H130096   7.198   4.671   3.508
10051TIP3    H230097   7.318   4.723   3.583
10052TIP3   OH230098   8.287   1.708   2.751
10052TIP3    H130099   8.345   1.771   2.709
10052TIP3    H230100   8.323   1.622   2.727
10053TIP3   OH230101   0.354   2.966   2.711
10053TIP3    H130102   0.328   2.936   2.798
10053TIP3    H230103   0.327   3.057   2.708
10054TIP3   OH230104   5.895   6.069   1.841
10054TIP3    H130105   5.950   6.023   1.905
10054TIP3    H230106   5.955   6.096   1.772
10055TIP3   OH230107   2.300   6.580   0.834
10055TIP3    H130108   2.329   6.587   0.743
10055TIP3    H230109   2.289   6.671   0.863
10056TIP3   OH230110   2.350   4.849   1.929
10056TIP3    H130111   2.379   4.860   2.020
10056TIP3    H230112   2.299   4.927   1.910
10057TIP3   OH230113   5.558   6.522   6.316
10057TIP3    H130114   5.527   6.443   6.273
10057TIP3    H230115   5.552   6.503   6.409
10058TIP3   OH230116   4.166   5.599   3.954
10058TIP3    H130117   4.254   5.563   3.942
10058TIP3    H230118   4.111   5.522   3.970
10059TIP3   OH230119   3.807   6.988   3.211
10059TIP3    H130120   3.734   6.935   3.179
10059TIP3    H230121   3.883   6.954   3.163
10060TIP3   OH230122   6.918   5.464   0.089
10060TIP3    H130123   6.944   5.399   0.024
10060TIP3    H230124   6.999   5.484   0.136
10061TIP3   OH230125   1.401   7.190   0.506
10061TIP3    H130126   1.436   7.101   0.515
10061TIP3    H230127   1.463   7.245   0.555
10062TIP3   OH230128   1.936   5.721   2.723
10062TIP3    H130129   1.861   5.752   2.673
10062TIP3    H230130   1.998   5.794   2.720
10063TIP3   OH230131   6.552   6.820   6.472
10063TIP3    H130132   6.642   6.823   6.440
10063TIP3    H230133   6.515   6.740   6.435
10064TIP3   OH230134   4.753   4.159   4.652
10064TIP3    H130135   4.831   4.196   4.609
10064TIP3    H230136   4.680   4.209   4.616
10065TIP3   OH230137   1.200   6.113   0.054
10065TIP3    H130138   1.190   6.188   0.113
10065TIP3    H230139   1.110   6.087   0.034
10066TIP3   OH230140   1.019   2.542   6.328
10066TIP3    H130141   1.024   2.501   6.242
10066TIP3    H230142   1.104   2.522   6.368
10067TIP3   OH230143   4.903   6.514   3.742
10067TIP3    H130144   4.838   6.516   3.811
10067TIP3    H230145   4.922   6.422   3.728
10068TIP3   OH230146   7.816   4.572   3.947
10068TIP3    H130147   7.765   4.607   4.020
10068TIP3    H230148   7.829   4.646   3.889
10069TIP3   OH230149   3.826   1.752   0.237
10069TIP3    H130150   3.850   1.666   0.203
10069TIP3    H230151   3.869   1.756   0.323
10070TIP3   OH230152   6.426   2.466   2.040
10070TIP3    H130153   6.438   2.411   1.963
10070TIP3    H230154   6.372   2.539   2.009
10071TIP3   OH230155   2.224   4.252   4.911
10071TIP3    H130156   2.226   4.157   4.921
10071TIP3    H230157   2.316   4.279   4.921
10072TIP3   OH230158   7.741   7.217   0.422
10072TIP3    H130159   7.738   7.297   0.474
10072TIP3    H230160   7.729   7.247   0.332
10073TIP3   OH230161   7.302   2.766   6.241
10073TIP3    H130162   7.272   2.695   6.299
10073TIP3    H230163   7.240   2.837   6.257
10074TIP3   OH230164   2.280   3.307   5.007
10074TIP3    H130165   2.291   3.263   5.092
10074TIP3    H230166   2.207   3.260   4.966
10075TIP3   OH230167   1.099   6.628   2.343
10075TIP3    H130168   1.182   6.625   2.295
10075TIP3    H230169   1.075   6.720   2.345
10076TIP3   OH230170   0.133   7.171   0.197
10076TIP3    H130171   0.046   7.192   0.163
10076TIP3    H230172   0.182   7.141   0.120
10077TIP3   OH230173   3.128   6.968   1.015
10077TIP3    H130174   3.154   6.985   0.925
10077TIP3    H230175   3.047   6.918   1.008
10078TIP3   OH230176   1.585   5.933   3.957
10078TIP3    H130177   1.654   5.968   4.013
10078TIP3    H230178   1.518   6.001   3.954
10079TIP3   OH230179   6.640   3.256   5.716
10079TIP3    H130180   6.735   3.259   5.703
10079TIP3    H230181   6.603   3.304   5.642
10080TIP3   OH230182   0.198   7.643   4.311
10080TIP3    H130183   0.195   7.568   4.251
10080TIP3    H230184   0.119   7.635   4.364
10081TIP3   OH230185   1.007   2.919   5.304
10081TIP3    H130186   0.974   2.927   5.394
10081TIP3    H230187   0.994   3.005   5.266
10082TIP3   OH230188   3.421   4.565   2.350
10082TIP3    H130189   3.444   4.473   2.361
10082TIP3    H230190   3.389   4.571   2.261
10083TIP3   OH230191   1.486   7.506   3.086
10083TIP3    H130192   1.402   7.550   3.098
10083TIP3    H230193   1.466   7.413   3.098
10084TIP3   OH230194   5.066   7.028   5.995
10084TIP3    H130195   5.128   7.100   5.983
10084TIP3    H230196   5.103   6.977   6.067
10085TIP3   OH230197   6.155   2.325   5.136
10085TIP3    H130198   6.207   2.289   5.064
10085TIP3    H230199   6.065   2.301   5.115
10086TIP3   OH230200   0.727   3.284   1.883
10086TIP3    H130201   0.653   3.340   1.906
10086TIP3    H230202   0.781   3.338   1.826
10087TIP3   OH230203   6.835   0.160   4.049
10087TIP3    H130204   6.771   0.209   3.996
10087TIP3    H230205   6.845   0.211   4.129
10088TIP3   OH230206   4.090   3.568   5.576
10088TIP3    H130207   4.168   3.616   5.603
10088TIP3    H230208   4.031   3.573   5.651
10089TIP3   OH230209   6.181   2.058   2.308
10089TIP3    H130210   6.266   2.057   2.351
10089TIP3    H230211   6.154   1.967   2.304
10090TIP3   OH230212   6.762   6.359   5.970
10090TIP3    H130213   6.796   6.324   5.888
10090TIP3    H230214   6.782   6.292   6.035
10091TIP3   OH230215   0.291   0.174   5.502
10091TIP3    H130216   0.361   0.234   5.474
10091TIP3    H230217   0.256   0.215   5.582
10092TIP3   OH230218   3.750   4.912   2.331
10092TIP3    H130219   3.767   4.897   2.237
10092TIP3    H230220   3.657   4.893   2.341
10093TIP3   OH230221   1.769   1.902   6.394
10093TIP3    H130222   1.821   1.860   6.326
10093TIP3    H230223   1.717   1.967   6.347
10094TIP3   OH230224   3.286   6.877   1.709
10094TIP3    H130225   3.349   6.947   1.725
10094TIP3    H230226   3.246   6.861   1.795
10095TIP3   OH230227   7.432   0.045   4.059
10095TIP3    H130228   7.413   0.125   4.108
10095TIP3    H230229   7.349   0.023   4.015
10096TIP3   OH230230   0.083   3.818   5.727
10096TIP3    H130231   0.031   3.743   5.698
10096TIP3    H230232   0.100   3.868   5.647
10097TIP3   OH230233   5.298   2.708   0.802
10097TIP3    H130234   5.341   2.785   0.841
10097TIP3    H230235   5.367   2.666   0.750
10098TIP3   OH230236   2.551   6.460   6.147
10098TIP3    H130237   2.639   6.490   6.121
10098TIP3    H230238   2.526   6.397   6.079
10099TIP3   OH230239   1.811   2.994   6.028
10099TIP3    H130240   1.796   2.983   5.934
10099TIP3    H230241   1.803   3.089   6.042
10100TIP3   OH230242   3.136   3.267   3.833
10100TIP3    H130243   3.066   3.202   3.838
10100TIP3    H230244   3.168   3.275   3.923
10101TIP3   OH230245   3.542   2.375   5.827
10101TIP3    H130246   3.501   2.289   5.826
10101TIP3    H230247   3.628   2.361   5.787
10102TIP3   OH230248   1.360   5.566   1.991
10102TIP3    H130249   1.329   5.545   1.904
10102TIP3    H230250   1.388   5.657   1.986
10103TIP3   OH230251   3.485   1.465   0.729
10103TIP3    H130252   3.500   1.536   0.667
10103TIP3    H230253   3.403   1.488   0.772
10104TIP3   OH230254   3.497   0.516   3.684
10104TIP3    H130255   3.575   0.462   3.687
10104TIP3    H230256   3.480   0.540   3.775
10105TIP3   OH230257   3.034   5.844   4.661
10105TIP3    H130258   3.047   5.749   4.659
10105TIP3    H230259   3.053   5.868   4.751
10106TIP3   OH230260   5.610   0.608   0.532
10106TIP3    H130261   5.674   0.664   0.575
10106TIP3    H230262   5.581   0.548   0.601
10107TIP3   OH230263   5.942   7.456   6.577
10107TIP3    H130264   5.902   7.380   6.536
10107TIP3    H230265   6.027   7.464   6.534
10108TIP3   OH230266   1.491   1.799   3.218
10108TIP3    H130267   1.583   1.777   3.230
10108TIP3    H230268   1.444   1.728   3.262
10109TIP3   OH230269   0.667   1.435   4.614
10109TIP3    H130270   0.635   1.352   4.580
10109TIP3    H230271   0.735   1.410   4.677
10110TIP3   OH230272   8.194   4.110   5.283
10110TIP3    H130273   8.152   4.119   5.369
10110TIP3    H230274   8.168   4.023   5.253
10111TIP3   OH230275   6.526   1.454   4.765
10111TIP3    H130276   6.500   1.452   4.673
10111TIP3    H230277   6.529   1.361   4.790
10112TIP3   OH230278   2.909   3.230   1.875
10112TIP3    H130279   2.818   3.258   1.882
10112TIP3    H230280   2.930   3.240   1.782
10113TIP3   OH230281   7.107   2.639   4.334
10113TIP3    H130282   7.047   2.615   4.264
10113TIP3    H230283   7.191   2.601   4.308
10114TIP3   OH230284   4.395   0.993   0.503
10114TIP3    H130285   4.318   0.985   0.447
10114TIP3    H230286   4.359   0.992   0.592
10115TIP3   OH230287   1.520   0.205   4.278
10115TIP3    H130288   1.466   0.129   4.296
10115TIP3    H230289   1.542   0.197   4.185
10116TIP3   OH230290   5.961   2.502   5.679
10116TIP3    H130291   5.956   2.532   5.588
10116TIP3    H230292   6.032   2.439   5.679
10117TIP3   OH230293   4.056   0.411   0.618
10117TIP3    H130294   3.981   0.413   0.678
10117TIP3    H230295   4.090   0.322   0.627
10118TIP3   OH230296   5.274   1.810   4.976
10118TIP3    H130297   5.329   1.752   5.029
10118TIP3    H230298   5.203   1.835   5.035
10119TIP3   OH230299   3.438   3.899   2.935
10119TIP3    H130300   3.514   3.954   2.956
10119TIP3    H230301   3.398   3.941   2.859
10120TIP3   OH230302   0.460   2.197   6.074
10120TIP3    H130303   0.517   2.120   6.068
10120TIP3    H230304   0.371   2.162   6.065
10121TIP3   OH230305   4.946   7.770   5.392
10121TIP3    H130306   4.947   7.773   5.297
10121TIP3    H230307   5.020   7.824   5.419
10122TIP3   OH230308   3.788   2.752   2.045
10122TIP3    H130309   3.798   2.847   2.037
10122TIP3    H230310   3.877   2.718   2.031
10123TIP3   OH230311   4.518   2.763   4.261
10123TIP3    H130312   4.486   2.694   4.318
10123TIP3    H230313   4.503   2.844   4.310
10124TIP3   OH230314   3.752   5.933   4.961
10124TIP3    H130315   3.708   5.857   4.924
10124TIP3    H230316   3.692   6.006   4.946
10125TIP3   OH230317   3.249   2.807   6.320
10125TIP3    H130318   3.163   2.793   6.281
10125TIP3    H230319   3.291   2.874   6.266
10126TIP3   OH230320   8.175   1.829   6.072
10126TIP3    H130321   8.137   1.741   6.068
10126TIP3    H230322   8.188   1.845   6.166
10127TIP3   OH230323   5.890   4.650   2.637
10127TIP3    H130324   5.800   4.647   2.604
10127TIP3    H230325   5.915   4.743   2.630
10128TIP3   OH230326   3.096   2.831   0.225
10128TIP3    H130327   3.091   2.923   0.251
10128TIP3    H230328   3.190   2.813   0.220
10129TIP3   OH230329   2.548   1.949   5.043
10129TIP3    H130330   2.592   2.034   5.038
10129TIP3    H230331   2.467   1.966   5.092
10130TIP3   OH230332   6.534   0.693   6.238
10130TIP3    H130333   6.554   0.753   6.167
10130TIP3    H230334   6.619   0.676   6.280
10131TIP3   OH230335   5.150   1.117   0.353
10131TIP3    H130336   5.193   1.148   0.273
10131TIP3    H230337   5.139   1.023   0.339
10132TIP3   OH230338   0.383   4.790   1.133
10132TIP3    H130339   0.409   4.707   1.174
10132TIP3    H230340   0.396   4.856   1.202
10133TIP3   OH230341   4.760   3.163   2.670
10133TIP3    H130342   4.683   3.208   2.634
10133TIP3    H230343   4.729   3.125   2.753
10134TIP3   OH230344   7.219   5.925   6.531
10134TIP3    H130345   7.130   5.952   6.507
10134TIP3    H230346   7.274   5.998   6.501
10135TIP3   OH230347   6.019   6.279   3.989
10135TIP3    H130348   5.969   6.219   3.934
10135TIP3    H230349   6.000   6.366   3.954
10136TIP3   OH230350   1.357   6.694   2.972
10136TIP3    H130351   1.450   6.694   2.995
10136TIP3    H230352   1.355   6.724   2.881
10137TIP3   OH230353   1.060   3.826   4.975
10137TIP3    H130354   1.021   3.847   4.890
10137TIP3    H230355   1.069   3.730   4.973
10138TIP3   OH230356   0.482   3.812   5.477
10138TIP3    H130357   0.508   3.724   5.503
10138TIP3    H230358   0.458   3.805   5.385
10139TIP3   OH230359   4.884   5.872   6.451
10139TIP3    H130360   4.891   5.836   6.540
10139TIP3    H230361   4.909   5.799   6.394
10140TIP3   OH230362   7.013   6.564   3.003
10140TIP3    H130363   7.012   6.655   2.973
10140TIP3    H230364   6.992   6.569   3.096
10141TIP3   OH230365   7.302   1.177   2.650
10141TIP3    H130366   7.340   1.102   2.695
10141TIP3    H230367   7.362   1.249   2.668
10142TIP3   OH230368   5.382   4.326   1.836
10142TIP3    H130369   5.413   4.267   1.767
10142TIP3    H230370   5.366   4.268   1.910
10143TIP3   OH230371   3.587   4.087   5.902
10143TIP3    H130372   3.608   4.172   5.862
10143TIP3    H230373   3.667   4.063   5.950
10144TIP3   OH230374   6.911   3.090   2.841
10144TIP3    H130375   6.868   3.134   2.768
10144TIP3    H230376   6.875   3.001   2.839
10145TIP3   OH230377   3.935   0.657   3.837
10145TIP3    H130378   3.970   0.651   3.748
10145TIP3    H230379   4.006   0.625   3.892
10146TIP3   OH230380   6.485   4.257   1.750
10146TIP3    H130381   6.494   4.265   1.845
10146TIP3    H230382   6.462   4.345   1.721
10147TIP3   OH230383   6.200   3.628   1.620
10147TIP3    H130384   6.201   3.723   1.610
10147TIP3    H230385   6.131   3.612   1.685
10148TIP3   OH230386   6.843   2.915   4.985
10148TIP3    H130387   6.847   2.827   5.022
10148TIP3    H230388   6.934   2.944   4.981
10149TIP3   OH230389   0.131   1.191   5.635
10149TIP3    H130390   0.181   1.198   5.716
10149TIP3    H230391   0.138   1.099   5.610
10150TIP3   OH230392   2.534   3.076   5.809
10150TIP3    H130393   2.629   3.078   5.817
10150TIP3    H230394   2.504   3.160   5.843
10151TIP3   OH230395   7.955   4.971   1.784
10151TIP3    H130396   8.023   4.915   1.822
10151TIP3    H230397   7.921   5.021   1.858
10152TIP3   OH230398   1.348   5.187   4.009
10152TIP3    H130399   1.440   5.204   4.029
10152TIP3    H230400   1.351   5.116   3.944
10153TIP3   OH230401   6.458   4.136   2.624
10153TIP3    H130402   6.482   4.197   2.694
10153TIP3    H230403   6.395   4.077   2.665
10154TIP3   OH230404   2.912   3.753   2.539
10154TIP3    H130405   2.912   3.847   2.559
10154TIP3    H230406   2.951   3.712   2.617
10155TIP3   OH230407   7.826   7.604   4.843
10155TIP3    H130408   7.842   7.510   4.848
10155TIP3    H230409   7.790   7.627   4.929
10156TIP3   OH230410   3.190   1.114   5.238
10156TIP3    H130411   3.134   1.154   5.304
10156TIP3    H230412   3.229   1.039   5.282
10157TIP3   OH230413   0.165   5.769   0.542
10157TIP3    H130414   0.170   5.689   0.593
10157TIP3    H230415   0.090   5.816   0.578
10158TIP3   OH230416   2.055   5.392   0.281
10158TIP3    H130417   2.126   5.373   0.341
10158TIP3    H230418   2.012   5.469   0.318
10159TIP3   OH230419   6.119   2.465   1.005
10159TIP3    H130420   6.030   2.497   1.020
10159TIP3    H230421   6.108   2.376   0.970
10160TIP3   OH230422   6.369   0.401   3.363
10160TIP3    H130423   6.328   0.430   3.282
10160TIP3    H230424   6.360   0.476   3.423
10161TIP3   OH230425   7.976   3.118   3.031
10161TIP3    H130426   8.041   3.183   3.005
10161TIP3    H230427   7.893   3.151   2.995
10162TIP3   OH230428   3.115   0.410   0.181
10162TIP3    H130429   3.150   0.483   0.130
10162TIP3    H230430   3.049   0.450   0.237
10163TIP3   OH230431   2.097   4.462   0.443
10163TIP3    H130432   2.163   4.393   0.447
10163TIP3    H230433   2.112   4.505   0.358
10164TIP3   OH230434   5.034   5.928   1.701
10164TIP3    H130435   4.958   5.972   1.663
10164TIP3    H230436   5.064   5.868   1.633
10165TIP3   OH230437   0.698   3.020   0.128
10165TIP3    H130438   0.794   3.021   0.126
10165TIP3    H230439   0.673   3.099   0.079
10166TIP3   OH230440   2.526   2.965   2.338
10166TIP3    H130441   2.567   2.903   2.398
10166TIP3    H230442   2.565   3.050   2.359
10167TIP3   OH230443   4.295   1.185   3.120
10167TIP3    H130444   4.309   1.280   3.115
10167TIP3    H230445   4.201   1.174   3.104
10168TIP3   OH230446   2.112   0.033   5.877
10168TIP3    H130447   2.141   0.097   5.942
10168TIP3    H230448   2.042   0.077   5.830
10169TIP3   OH230449   4.944   4.956   2.719
10169TIP3    H130450   5.027   4.969   2.673
10169TIP3    H230451   4.911   4.872   2.687
10170TIP3   OH230452   6.198   2.653   4.510
10170TIP3    H130453   6.256   2.648   4.586
10170TIP3    H230454   6.212   2.741   4.474
10171TIP3   OH230455   3.790   4.091   5.502
10171TIP3    H130456   3.778   4.186   5.501
10171TIP3    H230457   3.706   4.056   5.473
10172TIP3   OH230458   3.184   2.639   0.514
10172TIP3    H130459   3.257   2.582   0.487
10172TIP3    H230460   3.123   2.636   0.440
10173TIP3   OH230461   7.835   0.479   4.842
10173TIP3    H130462   7.834   0.572   4.868
10173TIP3    H230463   7.830   0.481   4.747
10174TIP3   OH230464   8.023   0.318   0.653
10174TIP3    H130465   8.044   0.355   0.567
10174TIP3    H230466   8.018   0.224   0.638
10175TIP3   OH230467   3.705   3.713   3.781
10175TIP3    H130468   3.791   3.715   3.740
10175TIP3    H230469   3.697   3.798   3.825
10176TIP3   OH230470   0.453   5.828   2.220
10176TIP3    H130471   0.385   5.839   2.286
10176TIP3    H230472   0.413   5.862   2.140
10177TIP3   OH230473   1.288   1.710   1.127
10177TIP3    H130474   1.313   1.800   1.147
10177TIP3    H230475   1.318   1.697   1.037
10178TIP3   OH230476   3.570   3.439   4.306
10178TIP3    H130477   3.659   3.413   4.282
10178TIP3    H230478   3.579   3.529   4.339
10179TIP3   OH230479   7.097   7.116   0.281
10179TIP3    H130480   7.133   7.193   0.326
10179TIP3    H230481   7.013   7.147   0.246
10180TIP3   OH230482   4.787   5.633   2.633
10180TIP3    H130483   4.804   5.638   2.539
10180TIP3    H230484   4.698   5.598   2.640
10181TIP3   OH230485   0.268   4.263   2.055
10181TIP3    H130486   0.245   4.281   1.964
10181TIP3    H230487   0.190   4.220   2.091
10182TIP3   OH230488   5.658   7.722   3.602
10182TIP3    H130489   5.590   7.683   3.548
10182TIP3    H230490   5.693   7.794   3.549
10183TIP3   OH230491   5.209   1.599   5.504
10183TIP3    H130492   5.167   1.522   5.466
10183TIP3    H230493   5.201   1.587   5.598
10184TIP3   OH230494   6.573   0.164   0.819
10184TIP3    H130495   6.485   0.127   0.809
10184TIP3    H230496   6.566   0.222   0.895
10185TIP3   OH230497   4.113   0.945   3.470
10185TIP3    H130498   4.053   0.900   3.412
10185TIP3    H230499   4.193   0.956   3.418
10186TIP3   OH230500   2.945   3.832   5.663
10186TIP3    H130501   3.002   3.895   5.618
10186TIP3    H230502   2.897   3.884   5.727
10187TIP3   OH230503   1.303   1.708   0.848
10187TIP3    H130504   1.226   1.652   0.838
10187TIP3    H230505   1.286   1.783   0.791
10188TIP3   OH230506   2.904   5.029   5.732
10188TIP3    H130507   2.946   4.947   5.759
10188TIP3    H230508   2.818   5.027   5.773
10189TIP3   OH230509   6.977   1.938   6.157
10189TIP3    H130510   7.010   1.855   6.124
10189TIP3    H230511   7.055   1.992   6.168
10190TIP3   OH230512   4.084   3.930   4.169
10190TIP3    H130513   4.055   3.972   4.249
10190TIP3    H230514   4.142   3.860   4.198
10191TIP3   OH230515   7.977   3.931   1.136
10191TIP3    H130516   8.036   3.967   1.069
10191TIP3    H230517   7.973   3.837   1.116
10192TIP3   OH230518   5.671   0.155   3.970
10192TIP3    H130519   5.687   0.136   3.877
10192TIP3    H230520   5.579   0.135   3.983
10193TIP3   OH230521   7.378   3.324   3.832
10193TIP3    H130522   7.386   3.287   3.744
10193TIP3    H230523   7.285   3.317   3.853
10194TIP3   OH230524   5.330   4.460   3.125
10194TIP3    H130525   5.237   4.439   3.120
10194TIP3    H230526   5.352   4.492   3.037
10195TIP3   OH230527   5.458   2.588   0.323
10195TIP3    H130528   5.372   2.601   0.283
10195TIP3    H230529   5.460   2.496   0.346
10196TIP3   OH230530   7.067   4.016   2.842
10196TIP3    H130531   7.063   3.973   2.757
10196TIP3    H230532   6.981   4.002   2.881
10197TIP3   OH230533   3.029   0.499   1.697
10197TIP3    H130534   3.087   0.548   1.638
10197TIP3    H230535   3.048   0.533   1.784
10198TIP3   OH230536   5.903   2.342   6.566
10198TIP3    H130537   5.860   2.310   6.487
10198TIP3    H230538   5.831   2.375   6.620
10199TIP3   OH230539   8.100   0.973   4.923
10199TIP3    H130540   8.030   1.034   4.899
10199TIP3    H230541   8.171   0.994   4.862
10200TIP3   OH230542   7.204   4.973   2.323
10200TIP3    H130543   7.207   4.907   2.392
10200TIP3    H230544   7.290   4.968   2.281
10201TIP3   OH230545   7.175   4.261   5.806
10201TIP3    H130546   7.253   4.309   5.832
10201TIP3    H230547   7.183   4.176   5.848
10202TIP3   OH230548   2.876   3.995   3.437
10202TIP3    H130549   2.816   4.066   3.460
10202TIP3    H230550   2.820   3.928   3.397
10203TIP3   OH230551   0.110   4.962   2.015
10203TIP3    H130552   0.199   4.958   1.978
10203TIP3    H230553   0.097   4.877   2.056
10204TIP3   OH230554   8.065   1.698   4.977
10204TIP3    H130555   8.097   1.775   5.024
10204TIP3    H230556   7.969   1.703   4.984
10205TIP3   OH230557   3.761   0.263   4.611
10205TIP3    H130558   3.722   0.306   4.687
10205TIP3    H230559   3.761   0.170   4.633
10206TIP3   OH230560   6.119   6.274   5.040
10206TIP3    H130561   6.185   6.204   5.047
10206TIP3    H230562   6.147   6.325   4.964
10207TIP3   OH230563   1.068   2.150   3.951
10207TIP3    H130564   1.049   2.197   4.032
10207TIP3    H230565   0.996   2.087   3.943
10208TIP3   OH230566   4.526   1.499   2.155
10208TIP3    H130567   4.483   1.451   2.084
10208TIP3    H230568   4.592   1.438   2.189
10209TIP3   OH230569   2.540   6.070   1.138
10209TIP3    H130570   2.514   6.070   1.230
10209TIP3    H230571   2.571   6.159   1.122
10210TIP3   OH230572   0.445   4.670   4.251
10210TIP3    H130573   0.400   4.633   4.327
10210TIP3    H230574   0.374   4.706   4.197
10211TIP3   OH230575   1.414   2.163   3.566
10211TIP3    H130576   1.470   2.170   3.644
10211TIP3    H230577   1.449   2.088   3.518
10212TIP3   OH230578   4.921   5.742   2.377
10212TIP3    H130579   4.921   5.831   2.413
10212TIP3    H230580   4.989   5.697   2.427
10213TIP3   OH230581   2.997   3.463   0.157
10213TIP3    H130582   3.015   3.547   0.115
10213TIP3    H230583   2.946   3.414   0.093
10214TIP3   OH230584   0.786   2.846   6.193
10214TIP3    H130585   0.697   2.813   6.182
10214TIP3    H230586   0.777   2.941   6.186
10215TIP3   OH230587   6.341   1.512   3.158
10215TIP3    H130588   6.400   1.462   3.213
10215TIP3    H230589   6.398   1.558   3.097
10216TIP3   OH230590   2.596   1.540   3.330
10216TIP3    H130591   2.675   1.489   3.348
10216TIP3    H230592   2.573   1.517   3.240
10217TIP3   OH230593   2.598   0.359   6.611
10217TIP3    H130594   2.587   0.264   6.615
10217TIP3    H230595   2.691   0.372   6.596
10218TIP3   OH230596   4.403   2.007   4.635
10218TIP3    H130597   4.395   2.059   4.556
10218TIP3    H230598   4.497   1.998   4.649
10219TIP3   OH230599   0.868   1.408   2.147
10219TIP3    H130600   0.803   1.477   2.162
10219TIP3    H230601   0.817   1.327   2.152
10220TIP3   OH230602   6.509   1.974   6.580
10220TIP3    H130603   6.555   1.958   6.498
10220TIP3    H230604   6.430   1.921   6.575
10221TIP3   OH230605   1.581   1.135   0.097
10221TIP3    H130606   1.528   1.166   0.170
10221TIP3    H230607   1.541   1.052   0.072
10222TIP3   OH230608   3.790   2.038   0.889
10222TIP3    H130609   3.779   1.991   0.807
10222TIP3    H230610   3.701   2.050   0.923
10223TIP3   OH230611   3.071   4.617   0.681
10223TIP3    H130612   3.060   4.702   0.725
10223TIP3    H230613   3.132   4.569   0.738
10224TIP3   OH230614   5.049   2.873   3.949
10224TIP3    H130615   5.050   2.957   3.994
10224TIP3    H230616   4.956   2.853   3.939
10225TIP3   OH230617   7.909   6.119   5.899
10225TIP3    H130618   7.882   6.028   5.905
10225TIP3    H230619   7.879   6.148   5.813
10226TIP3   OH230620   6.810   4.534   3.785
10226TIP3    H130621   6.780   4.454   3.828
10226TIP3    H230622   6.905   4.536   3.800
10227TIP3   OH230623   1.963   3.880   6.054
10227TIP3    H130624   1.934   3.888   6.145
10227TIP3    H230625   1.885   3.899   6.002
10228TIP3   OH230626   4.150   4.319   3.996
10228TIP3    H130627   4.208   4.311   4.071
10228TIP3    H230628   4.088   4.388   4.020
10229TIP3   OH230629   4.993   2.836   3.119
10229TIP3    H130630   5.029   2.761   3.071
10229TIP3    H230631   5.043   2.838   3.201
10230TIP3   OH230632   4.588   2.230   1.085
10230TIP3    H130633   4.616   2.138   1.076
10230TIP3    H230634   4.513   2.226   1.144
10231TIP3   OH230635   6.184   6.019   1.089
10231TIP3    H130636   6.171   6.069   1.009
10231TIP3    H230637   6.133   5.939   1.075
10232TIP3   OH230638   1.606   6.030   1.432
10232TIP3    H130639   1.666   6.085   1.483
10232TIP3    H230640   1.534   6.011   1.492
10233TIP3   OH230641   5.331   6.121   4.048
10233TIP3    H130642   5.285   6.160   3.974
10233TIP3    H230643   5.415   6.167   4.052
10234TIP3   OH230644   6.421   4.884   6.140
10234TIP3    H130645   6.432   4.916   6.230
10234TIP3    H230646   6.435   4.789   6.147
10235TIP3   OH230647   2.770   3.911   0.168
10235TIP3    H130648   2.749   3.895   0.259
10235TIP3    H230649   2.865   3.923   0.167
10236TIP3   OH230650   6.244   6.861   3.732
10236TIP3    H130651   6.225   6.817   3.815
10236TIP3    H230652   6.187   6.938   3.733
10237TIP3   OH230653   6.752   0.404   4.273
10237TIP3    H130654   6.800   0.480   4.240
10237TIP3    H230655   6.685   0.441   4.330
10238TIP3   OH230656   4.242   3.062   0.906
10238TIP3    H130657   4.212   3.152   0.917
10238TIP3    H230658   4.324   3.059   0.956
10239TIP3   OH230659   5.034   5.663   0.571
10239TIP3    H130660   5.061   5.572   0.574
10239TIP3    H230661   4.954   5.663   0.518
10240TIP3   OH230662   0.509   3.273   2.939
10240TIP3    H130663   0.544   3.300   2.854
10240TIP3    H230664   0.587   3.249   2.990
10241TIP3   OH230665   2.297   3.484   2.947
10241TIP3    H130666   2.362   3.446   2.888
10241TIP3    H230667   2.328   3.573   2.963
10242TIP3   OH230668   0.565   7.712   2.362
10242TIP3    H130669   0.498   7.695   2.296
10242TIP3    H230670   0.576   7.807   2.362
10243TIP3   OH230671   5.968   3.910   6.498
10243TIP3    H130672   5.923   3.994   6.512
10243TIP3    H230673   6.061   3.933   6.498
10244TIP3   OH230674   3.858   2.072   4.256
10244TIP3    H130675   3.847   1.979   4.275
10244TIP3    H230676   3.773   2.099   4.221
10245TIP3   OH230677   1.442   0.656   1.255
10245TIP3    H130678   1.490   0.633   1.335
10245TIP3    H230679   1.358   0.688   1.286
10246TIP3   OH230680   5.867   7.540   3.650
10246TIP3    H130681   5.795   7.601   3.637
10246TIP3    H230682   5.936   7.571   3.591
10247TIP3   OH230683   5.773   1.715   3.159
10247TIP3    H130684   5.852   1.667   3.185
10247TIP3    H230685   5.726   1.729   3.242
10248TIP3   OH230686   7.189   6.519   0.146
10248TIP3    H130687   7.134   6.441   0.137
10248TIP3    H230688   7.130   6.592   0.132
10249TIP3   OH230689   7.559   0.520   4.988
10249TIP3    H130690   7.590   0.433   5.014
10249TIP3    H230691   7.469   0.506   4.959
10250TIP3   OH230692   2.121   0.360   5.242
10250TIP3    H130693   2.042   0.393   5.199
10250TIP3    H230694   2.093   0.339   5.331
10251TIP3   OH230695   0.150   7.735   0.955
10251TIP3    H130696   0.134   7.642   0.972
10251TIP3    H230697   0.130   7.779   1.037
10252TIP3   OH230698   7.881   0.949   6.277
10252TIP3    H130699   7.918   0.885   6.337
10252TIP3    H230700   7.903   1.034   6.315
10253TIP3   OH230701   3.466   5.151   6.283
10253TIP3    H130702   3.473   5.082   6.217
10253TIP3    H230703   3.473   5.105   6.367
10254TIP3   OH230704   6.752   5.496   6.556
10254TIP3    H130705   6.809   5.425   6.586
10254TIP3    H230706   6.747   5.555   6.631
10255TIP3   OH230707   3.466   4.022   1.951
10255TIP3    H130708   3.514   4.023   2.033
10255TIP3    H230709   3.382   3.981   1.972
10256TIP3   OH230710   1.077   0.681   6.285
10256TIP3    H130711   1.016   0.667   6.212
10256TIP3    H230712   1.159   0.706   6.242
10257TIP3   OH230713   2.253   4.766   0.746
10257TIP3    H130714   2.287   4.688   0.790
10257TIP3    H230715   2.174   4.735   0.701
10258TIP3   OH230716   5.109   5.512   1.085
10258TIP3    H130717   5.018   5.534   1.066
10258TIP3    H230718   5.160   5.563   1.022
10259TIP3   OH230719   7.621   1.697   0.722
10259TIP3    H130720   7.651   1.749   0.647
10259TIP3    H230721   7.694   1.638   0.741
10260TIP3   OH230722   3.634   5.691   2.645
10260TIP3    H130723   3.727   5.668   2.643
10260TIP3    H230724   3.622   5.746   2.568
10261TIP3   OH230725   5.722   1.667   1.638
10261TIP3    H130726   5.739   1.618   1.558
10261TIP3    H230727   5.781   1.742   1.633
10262TIP3   OH230728   5.634   2.793   3.366
10262TIP3    H130729   5.720   2.834   3.362
10262TIP3    H230730   5.573   2.863   3.340
10263TIP3   OH230731   0.289   4.392   1.338
10263TIP3    H130732   0.208   4.375   1.387
10263TIP3    H230733   0.348   4.321   1.365
10264TIP3   OH230734   1.411   3.250   4.857
10264TIP3    H130735   1.386   3.203   4.937
10264TIP3    H230736   1.425   3.340   4.885
10265TIP3   OH230737   7.271   0.920   3.273
10265TIP3    H130738   7.254   0.873   3.354
10265TIP3    H230739   7.348   0.877   3.236
10266TIP3   OH230740   7.132   1.601   4.112
10266TIP3    H130741   7.063   1.582   4.176
10266TIP3    H230742   7.214   1.581   4.158
10267TIP3   OH230743   7.195   6.537   1.815
10267TIP3    H130744   7.245   6.516   1.736
10267TIP3    H230745   7.149   6.618   1.793
10268TIP3   OH230746   6.792   3.623   5.872
10268TIP3    H130747   6.779   3.701   5.927
10268TIP3    H230748   6.819   3.555   5.933
10269TIP3   OH230749   1.318   2.297   4.618
10269TIP3    H130750   1.255   2.334   4.556
10269TIP3    H230751   1.265   2.249   4.681
10270TIP3   OH230752   4.026   5.968   3.825
10270TIP3    H130753   3.934   5.945   3.810
10270TIP3    H230754   4.052   6.015   3.746
10271TIP3   OH230755   0.376   4.020   0.647
10271TIP3    H130756   0.467   4.045   0.665
10271TIP3    H230757   0.370   4.017   0.552
10272TIP3   OH230758   3.247   3.617   1.911
10272TIP3    H130759   3.216   3.661   1.990
10272TIP3    H230760   3.205   3.531   1.912
10273TIP3   OH230761   2.555   0.181   3.209
10273TIP3    H130762   2.544   0.165   3.303
10273TIP3    H230763   2.620   0.117   3.181
10274TIP3   OH230764   5.153   7.261   2.963
10274TIP3    H130765   5.196   7.309   2.892
10274TIP3    H230766   5.118   7.183   2.922
10275TIP3   OH230767   1.826   0.217   1.179
10275TIP3    H130768   1.740   0.251   1.202
10275TIP3    H230769   1.810   0.158   1.105
10276TIP3   OH230770   3.832   4.302   4.301
10276TIP3    H130771   3.806   4.378   4.353
10276TIP3    H230772   3.801   4.322   4.213
10277TIP3   OH230773   6.189   4.962   0.313
10277TIP3    H130774   6.252   4.963   0.384
10277TIP3    H230775   6.117   5.017   0.345
10278TIP3   OH230776   6.697   1.421   1.621
10278TIP3    H130777   6.613   1.456   1.651
10278TIP3    H230778   6.701   1.445   1.528
10279TIP3   OH230779   3.592   3.849   0.412
10279TIP3    H130780   3.526   3.861   0.480
10279TIP3    H230781   3.675   3.849   0.459
10280TIP3   OH230782   3.566   6.539   5.750
10280TIP3    H130783   3.591   6.584   5.670
10280TIP3    H230784   3.519   6.461   5.721
10281TIP3   OH230785   0.776   4.881   6.198
10281TIP3    H130786   0.801   4.923   6.280
10281TIP3    H230787   0.709   4.938   6.161
10282TIP3   OH230788   3.006   0.700   4.349
10282TIP3    H130789   2.931   0.734   4.300
10282TIP3    H230790   2.968   0.633   4.406
10283TIP3   OH230791   4.389   7.756   5.954
10283TIP3    H130792   4.325   7.827   5.958
10283TIP3    H230793   4.370   7.711   5.871
10284TIP3   OH230794   5.702   1.155   0.896
10284TIP3    H130795   5.736   1.224   0.952
10284TIP3    H230796   5.763   1.082   0.909
10285TIP3   OH230797   4.028   4.186   0.681
10285TIP3    H130798   3.967   4.135   0.734
10285TIP3    H230799   4.115   4.152   0.705
10286TIP3   OH230800   6.757   1.027   6.253
10286TIP3    H130801   6.667   1.032   6.283
10286TIP3    H230802   6.753   0.970   6.176
10287TIP3   OH230803  -0.047   4.488   1.909
10287TIP3    H130804  -0.100   4.427   1.961
10287TIP3    H230805   0.013   4.432   1.859
10288TIP3   OH230806   1.859   1.170   0.066
10288TIP3    H130807   1.773   1.169   0.109
10288TIP3    H230808   1.845   1.122  -0.015
10289TIP3   OH230809   1.213   5.746   3.988
10289TIP3    H130810   1.225   5.827   4.037
10289TIP3    H230811   1.271   5.683   4.030
10290TIP3   OH230812   1.228   1.873   0.167
10290TIP3    H130813   1.317   1.838   0.169
10290TIP3    H230814   1.239   1.967   0.182
10291TIP3   OH230815   4.739   1.179   0.637
10291TIP3    H130816   4.782   1.125   0.704
10291TIP3    H230817   4.673   1.228   0.685
10292TIP3   OH230818   2.366   7.428   3.779
10292TIP3    H130819   2.357   7.445   3.685
10292TIP3    H230820   2.285   7.462   3.817
10293TIP3   OH230821   4.830   1.302   4.382
10293TIP3    H130822   4.746   1.327   4.345
10293TIP3    H230823   4.895   1.337   4.321
10294TIP3   OH230824   8.054   1.617   5.475
10294TIP3    H130825   8.150   1.617   5.483
10294TIP3    H230826   8.024   1.572   5.554
10295TIP3   OH230827   8.289   2.635   1.042
10295TIP3    H130828   8.285   2.617   1.136
10295TIP3    H230829   8.212   2.590   1.006
10296TIP3   OH230830   4.452   4.913   6.228
10296TIP3    H130831   4.435   4.862   6.308
10296TIP3    H230832   4.536   4.879   6.196
10297TIP3   OH230833   5.225   3.046   0.091
10297TIP3    H130834   5.312   3.046   0.130
10297TIP3    H230835   5.241   3.067  -0.001
10298TIP3   OH230836   1.182   4.010   5.821
10298TIP3    H130837   1.128   3.932   5.832
10298TIP3    H230838   1.183   4.050   5.908
10299TIP3   OH230839   7.022   5.081   2.762
10299TIP3    H130840   7.032   5.105   2.855
10299TIP3    H230841   7.094   5.019   2.746
10300TIP3   OH230842   1.291   2.632   5.451
10300TIP3    H130843   1.311   2.719   5.418
10300TIP3    H230844   1.353   2.618   5.522
10301TIP3   OH230845   3.375   6.324   5.666
10301TIP3    H130846   3.285   6.336   5.637
10301TIP3    H230847   3.390   6.229   5.661
10302TIP3   OH230848   1.043   0.292   2.479
10302TIP3    H130849   1.035   0.387   2.482
10302TIP3    H230850   0.993   0.261   2.555
10303TIP3   OH230851   1.972   6.486   4.644
10303TIP3    H130852   1.901   6.545   4.668
10303TIP3    H230853   1.989   6.436   4.724
10304TIP3   OH230854   4.944   4.654   5.306
10304TIP3    H130855   5.005   4.594   5.347
10304TIP3    H230856   4.920   4.715   5.376
10305TIP3   OH230857   2.129   5.038   2.645
10305TIP3    H130858   2.165   4.976   2.582
10305TIP3    H230859   2.055   5.078   2.599
10306TIP3   OH230860   1.007   6.745   0.693
10306TIP3    H130861   1.014   6.661   0.649
10306TIP3    H230862   1.053   6.733   0.776
10307TIP3   OH230863   2.357   1.266   5.764
10307TIP3    H130864   2.377   1.333   5.829
10307TIP3    H230865   2.422   1.278   5.695
10308TIP3   OH230866   4.180   0.718   2.520
10308TIP3    H130867   4.097   0.713   2.566
10308TIP3    H230868   4.158   0.754   2.434
10309TIP3   OH230869   8.049   5.295   0.324
10309TIP3    H130870   8.003   5.328   0.247
10309TIP3    H230871   7.990   5.311   0.397
10310TIP3   OH230872   0.981   2.647   0.111
10310TIP3    H130873   1.064   2.625   0.155
10310TIP3    H230874   0.973   2.582   0.041
10311TIP3   OH230875   1.382   6.736   6.213
10311TIP3    H130876   1.413   6.811   6.162
10311TIP3    H230877   1.351   6.673   6.147
10312TIP3   OH230878   6.710   1.287   4.255
10312TIP3    H130879   6.736   1.195   4.263
10312TIP3    H230880   6.777   1.336   4.302
10313TIP3   OH230881   2.181   6.606   3.672
10313TIP3    H130882   2.157   6.683   3.621
10313TIP3    H230883   2.207   6.541   3.607
10314TIP3   OH230884   6.570   0.212   3.334
10314TIP3    H130885   6.591   0.196   3.426
10314TIP3    H230886   6.506   0.283   3.337
10315TIP3   OH230887   7.039   7.208   1.542
10315TIP3    H130888   7.022   7.270   1.471
10315TIP3    H230889   7.113   7.246   1.589
10316TIP3   OH230890   2.413   3.057   4.056
10316TIP3    H130891   2.371   3.134   4.019
10316TIP3    H230892   2.438   3.083   4.145
10317TIP3   OH230893   3.251   2.721   2.934
10317TIP3    H130894   3.310   2.653   2.901
10317TIP3    H230895   3.302   2.766   3.001
10318TIP3   OH230896   4.160   0.380   3.143
10318TIP3    H130897   4.198   0.422   3.220
10318TIP3    H230898   4.229   0.382   3.077
10319TIP3   OH230899   0.690   4.786   1.216
10319TIP3    H130900   0.715   4.793   1.308
10319TIP3    H230901   0.604   4.744   1.218
10320TIP3   OH230902   5.078   0.973   4.140
10320TIP3    H130903   5.045   0.893   4.181
10320TIP3    H230904   5.089   0.950   4.048
10321TIP3   OH230905   6.642   6.680   4.929
10321TIP3    H130906   6.666   6.701   5.019
10321TIP3    H230907   6.547   6.694   4.925
10322TIP3   OH230908   2.691   2.450   2.185
10322TIP3    H130909   2.607   2.494   2.201
10322TIP3    H230910   2.666   2.361   2.160
10323TIP3   OH230911   0.392   6.934   2.131
10323TIP3    H130912   0.408   6.849   2.171
10323TIP3    H230913   0.419   6.923   2.040
10324TIP3   OH230914   2.279   6.685   1.218
10324TIP3    H130915   2.293   6.726   1.303
10324TIP3    H230916   2.206   6.624   1.232
10325TIP3   OH230917   8.150   5.482   5.636
10325TIP3    H130918   8.219   5.430   5.596
10325TIP3    H230919   8.187   5.570   5.643
10326TIP3   OH230920   1.538   0.750   1.811
10326TIP3    H130921   1.619   0.796   1.789
10326TIP3    H230922   1.505   0.796   1.888
10327TIP3   OH230923   2.756   6.720   2.952
10327TIP3    H130924   2.718   6.713   3.039
10327TIP3    H230925   2.845   6.685   2.961
10328TIP3   OH230926   8.124   3.392   3.897
10328TIP3    H130927   8.034   3.359   3.907
10328TIP3    H230928   8.179   3.317   3.917
10329TIP3   OH230929   7.870   3.845   5.479
10329TIP3    H130930   7.804   3.871   5.543
10329TIP3    H230931   7.856   3.751   5.468
10330TIP3   OH230932   4.398   6.717   4.546
10330TIP3    H130933   4.461   6.645   4.543
10330TIP3    H230934   4.401   6.747   4.637
10331TIP3   OH230935   3.704   4.441   1.343
10331TIP3    H130936   3.743   4.357   1.364
10331TIP3    H230937   3.778   4.495   1.314
10332TIP3   OH230938   0.193   3.756   1.962
10332TIP3    H130939   0.274   3.731   1.918
10332TIP3    H230940   0.215   3.837   2.008
10333TIP3   OH230941   6.329   4.155   1.138
10333TIP3    H130942   6.349   4.063   1.157
10333TIP3    H230943   6.415   4.195   1.122
10334TIP3   OH230944   0.454   4.180   3.644
10334TIP3    H130945   0.515   4.115   3.611
10334TIP3    H230946   0.505   4.261   3.649
10335TIP3   OH230947   1.003   6.780   0.192
10335TIP3    H130948   1.026   6.747   0.105
10335TIP3    H230949   0.928   6.726   0.219
10336TIP3   OH230950   4.126   3.269   4.683
10336TIP3    H130951   4.199   3.211   4.706
10336TIP3    H230952   4.118   3.328   4.758
10337TIP3   OH230953   0.691   2.351   0.964
10337TIP3    H130954   0.740   2.433   0.961
10337TIP3    H230955   0.607   2.372   0.923
10338TIP3   OH230956   6.218   6.239   2.271
10338TIP3    H130957   6.205   6.157   2.319
10338TIP3    H230958   6.269   6.214   2.194
10339TIP3   OH230959   8.066   4.286   1.999
10339TIP3    H130960   8.005   4.213   2.007
10339TIP3    H230961   8.019   4.351   1.947
10340TIP3   OH230962   1.854   0.082   4.635
10340TIP3    H130963   1.810  -0.001   4.623
10340TIP3    H230964   1.786   0.143   4.664
10341TIP3   OH230965   5.001   0.822   4.510
10341TIP3    H130966   4.981   0.756   4.443
10341TIP3    H230967   5.002   0.905   4.462
10342TIP3   OH230968   6.171   5.668   6.469
10342TIP3    H130969   6.219   5.750   6.460
10342TIP3    H230970   6.220   5.619   6.535
10343TIP3   OH230971   4.713   7.072   3.760
10343TIP3    H130972   4.766   7.029   3.827
10343TIP3    H230973   4.657   7.133   3.808
10344TIP3   OH230974   2.245   4.124   1.756
10344TIP3    H130975   2.337   4.138   1.779
10344TIP3    H230976   2.197   4.182   1.815
10345TIP3   OH230977   1.620   2.918   5.427
10345TIP3    H130978   1.633   2.990   5.365
10345TIP3    H230979   1.708   2.886   5.446
10346TIP3   OH230980   7.188   2.586   1.875
10346TIP3    H130981   7.256   2.587   1.808
10346TIP3    H230982   7.181   2.495   1.903
10347TIP3   OH230983   4.714   4.196   3.338
10347TIP3    H130984   4.748   4.216   3.250
10347TIP3    H230985   4.793   4.183   3.391
10348TIP3   OH230986   7.047   5.934   0.635
10348TIP3    H130987   7.053   6.016   0.584
10348TIP3    H230988   7.035   5.866   0.569
10349TIP3   OH230989   0.219   1.536   2.781
10349TIP3    H130990   0.223   1.518   2.687
10349TIP3    H230991   0.311   1.537   2.809
10350TIP3   OH230992   1.255   4.732   4.785
10350TIP3    H130993   1.288   4.652   4.743
10350TIP3    H230994   1.190   4.700   4.848
10351TIP3   OH230995   5.078   1.164   3.608
10351TIP3    H130996   5.063   1.180   3.701
10351TIP3    H230997   5.149   1.100   3.606
10352TIP3   OH230998   4.731   4.831   3.471
10352TIP3    H130999   4.728   4.761   3.406
10352TIP3    H231000   4.722   4.786   3.555
10353TIP3   OH231001   3.365   5.691   5.509
10353TIP3    H131002   3.406   5.656   5.588
10353TIP3    H231003   3.285   5.639   5.498
10354TIP3   OH231004   3.782   4.706   4.108
10354TIP3    H131005   3.706   4.687   4.162
10354TIP3    H231006   3.769   4.796   4.079
10355TIP3   OH231007   5.937   7.524   6.265
10355TIP3    H131008   5.946   7.431   6.244
10355TIP3    H231009   5.843   7.539   6.266
10356TIP3   OH231010   7.163   1.068   5.192
10356TIP3    H131011   7.069   1.053   5.182
10356TIP3    H231012   7.171   1.118   5.274
10357TIP3   OH231013   2.020   3.730   5.267
10357TIP3    H131014   1.968   3.723   5.347
10357TIP3    H231015   2.106   3.758   5.296
10358TIP3   OH231016   7.885   4.286   0.490
10358TIP3    H131017   7.930   4.202   0.480
10358TIP3    H231018   7.956   4.350   0.498
10359TIP3   OH231019   3.575   0.410   0.463
10359TIP3    H131020   3.520   0.399   0.386
10359TIP3    H231021   3.564   0.329   0.513
10360TIP3   OH231022   6.000   3.546   3.788
10360TIP3    H131023   6.012   3.627   3.740
10360TIP3    H231024   5.907   3.546   3.811
10361TIP3   OH231025   7.469   5.408   4.559
10361TIP3    H131026   7.470   5.393   4.464
10361TIP3    H231027   7.498   5.499   4.569
10362TIP3   OH231028   7.604   5.064  -0.011
10362TIP3    H131029   7.614   5.034  -0.101
10362TIP3    H231030   7.524   5.021   0.020
10363TIP3   OH231031   2.021   6.673   0.182
10363TIP3    H131032   2.043   6.643   0.094
10363TIP3    H231033   1.939   6.627   0.203
10364TIP3   OH231034   7.893   4.748   2.654
10364TIP3    H131035   7.959   4.817   2.663
10364TIP3    H231036   7.844   4.750   2.736
10365TIP3   OH231037   8.263   4.854   4.436
10365TIP3    H131038   8.238   4.766   4.407
10365TIP3    H231039   8.345   4.840   4.484
10366TIP3   OH231040   7.796   6.987   3.701
10366TIP3    H131041   7.746   7.062   3.733
10366TIP3    H231042   7.886   7.002   3.731
10367TIP3   OH231043   3.261   6.802   2.970
10367TIP3    H131044   3.263   6.766   3.059
10367TIP3    H231045   3.175   6.843   2.962
10368TIP3   OH231046   6.951   5.095   2.278
10368TIP3    H131047   7.044   5.076   2.268
10368TIP3    H231048   6.922   5.037   2.349
10369TIP3   OH231049   1.808   7.292   0.964
10369TIP3    H131050   1.809   7.351   0.889
10369TIP3    H231051   1.792   7.349   1.040
10370TIP3   OH231052   3.278   6.803   1.263
10370TIP3    H131053   3.209   6.819   1.199
10370TIP3    H231054   3.350   6.767   1.211
10371TIP3   OH231055   4.899   0.211   6.506
10371TIP3    H131056   4.985   0.185   6.538
10371TIP3    H231057   4.915   0.244   6.417
10372TIP3   OH231058   5.666   3.982   6.706
10372TIP3    H131059   5.727   4.056   6.708
10372TIP3    H231060   5.597   4.010   6.646
10373TIP3   OH231061   8.046   3.611   6.074
10373TIP3    H131062   8.124   3.644   6.030
10373TIP3    H231063   7.976   3.671   6.049
10374TIP3   OH231064   7.013   0.986   3.213
10374TIP3    H131065   7.034   1.069   3.170
10374TIP3    H231066   7.092   0.933   3.201
10375TIP3   OH231067   0.238   1.739   3.671
10375TIP3    H131068   0.280   1.725   3.585
10375TIP3    H231069   0.152   1.698   3.662
10376TIP3   OH231070   0.904   4.109   0.616
10376TIP3    H131071   0.944   4.082   0.533
10376TIP3    H231072   0.951   4.060   0.683
10377TIP3   OH231073   3.874   1.081   3.433
10377TIP3    H131074   3.920   1.011   3.386
10377TIP3    H231075   3.937   1.152   3.439
10378TIP3   OH231076   3.100   7.349   3.138
10378TIP3    H131077   3.041   7.396   3.197
10378TIP3    H231078   3.062   7.363   3.051
10379TIP3   OH231079   3.292   4.931   0.770
10379TIP3    H131080   3.290   4.939   0.675
10379TIP3    H231081   3.344   4.853   0.787
10380TIP3   OH231082   4.773   7.024   1.186
10380TIP3    H131083   4.682   7.019   1.214
10380TIP3    H231084   4.802   7.112   1.213
10381TIP3   OH231085   0.487   5.705   0.728
10381TIP3    H131086   0.429   5.631   0.709
10381TIP3    H231087   0.575   5.671   0.708
10382TIP3   OH231088   2.011   4.047   4.818
10382TIP3    H131089   1.990   4.078   4.906
10382TIP3    H231090   1.995   4.122   4.761
10383TIP3   OH231091   5.501   3.588   2.616
10383TIP3    H131092   5.415   3.594   2.657
10383TIP3    H231093   5.537   3.677   2.623
10384TIP3   OH231094   4.322   2.229   0.336
10384TIP3    H131095   4.332   2.313   0.381
10384TIP3    H231096   4.235   2.235   0.295
10385TIP3   OH231097   5.401   6.105   5.080
10385TIP3    H131098   5.411   6.060   5.164
10385TIP3    H231099   5.388   6.034   5.017
10386TIP3   OH231100   1.661   6.585   6.396
10386TIP3    H131101   1.648   6.498   6.434
10386TIP3    H231102   1.686   6.640   6.470
10387TIP3   OH231103   7.523   4.354   5.572
10387TIP3    H131104   7.497   4.418   5.507
10387TIP3    H231105   7.617   4.345   5.560
10388TIP3   OH231106   3.374   3.586   0.179
10388TIP3    H131107   3.360   3.494   0.205
10388TIP3    H231108   3.334   3.636   0.249
10389TIP3   OH231109   3.770   0.077   4.283
10389TIP3    H131110   3.813   0.034   4.357
10389TIP3    H231111   3.766   0.009   4.215
10390TIP3   OH231112   0.801   1.407   3.065
10390TIP3    H131113   0.846   1.422   3.148
10390TIP3    H231114   0.859   1.446   2.999
10391TIP3   OH231115   4.124   0.480   6.806
10391TIP3    H131116   4.076   0.431   6.740
10391TIP3    H231117   4.088   0.569   6.801
10392TIP3   OH231118   0.676   3.055   0.772
10392TIP3    H131119   0.583   3.063   0.791
10392TIP3    H231120   0.720   3.074   0.855
10393TIP3   OH231121   2.894   5.714   4.161
10393TIP3    H131122   2.903   5.808   4.146
10393TIP3    H231123   2.981   5.684   4.188
10394TIP3   OH231124   0.167   3.851   0.914
10394TIP3    H131125   0.148   3.832   0.823
10394TIP3    H231126   0.219   3.932   0.911
10395TIP3   OH231127   7.175   7.712   1.332
10395TIP3    H131128   7.215   7.655   1.397
10395TIP3    H231129   7.207   7.800   1.354
10396TIP3   OH231130   2.808   7.528   2.241
10396TIP3    H131131   2.728   7.558   2.285
10396TIP3    H231132   2.877   7.540   2.306
10397TIP3   OH231133   3.144   2.287   0.642
10397TIP3    H131134   3.233   2.304   0.675
10397TIP3    H231135   3.158   2.252   0.554
10398TIP3   OH231136   7.542   6.874   2.470
10398TIP3    H131137   7.533   6.970   2.467
10398TIP3    H231138   7.603   6.854   2.400
10399TIP3   OH231139   7.057   4.176   2.384
10399TIP3    H131140   7.110   4.146   2.310
10399TIP3    H231141   6.975   4.127   2.376
10400TIP3   OH231142   6.083   4.220   2.102
10400TIP3    H131143   6.153   4.277   2.134
10400TIP3    H231144   6.077   4.240   2.008
10401TIP3   OH231145   2.871   3.610   2.279
10401TIP3    H131146   2.906   3.655   2.356
10401TIP3    H231147   2.781   3.641   2.272
10402TIP3   OH231148   1.950   4.180   4.338
10402TIP3    H131149   1.938   4.254   4.397
10402TIP3    H231150   1.962   4.105   4.396
10403TIP3   OH231151   2.558   0.931   5.524
10403TIP3    H131152   2.518   0.883   5.451
10403TIP3    H231153   2.533   1.022   5.508
10404TIP3   OH231154   6.347   5.627   4.022
10404TIP3    H131155   6.431   5.655   3.984
10404TIP3    H231156   6.364   5.622   4.116
10405TIP3   OH231157   3.526   5.075   2.682
10405TIP3    H131158   3.604   5.130   2.691
10405TIP3    H231159   3.559   4.991   2.650
10406TIP3   OH231160   2.825   4.493   0.270
10406TIP3    H131161   2.809   4.519   0.361
10406TIP3    H231162   2.831   4.397   0.274
10407TIP3   OH231163   0.489   2.699   1.597
10407TIP3    H131164   0.400   2.732   1.609
10407TIP3    H231165   0.504   2.703   1.502
10408TIP3   OH231166   7.196   1.250   4.944
10408TIP3    H131167   7.146   1.222   5.021
10408TIP3    H231168   7.154   1.332   4.917
10409TIP3   OH231169   4.305   0.612   1.194
10409TIP3    H131170   4.217   0.607   1.229
10409TIP3    H231171   4.335   0.700   1.214
10410TIP3   OH231172   7.634   1.103   4.091
10410TIP3    H131173   7.655   1.161   4.018
10410TIP3    H231174   7.714   1.054   4.108
10411TIP3   OH231175   6.382   1.561   5.677
10411TIP3    H131176   6.450   1.585   5.615
10411TIP3    H231177   6.406   1.606   5.759
10412TIP3   OH231178   0.203   4.203   2.831
10412TIP3    H131179   0.253   4.151   2.768
10412TIP3    H231180   0.203   4.150   2.911
10413TIP3   OH231181   0.135   1.435   4.314
10413TIP3    H131182   0.065   1.370   4.308
10413TIP3    H231183   0.168   1.443   4.225
10414TIP3   OH231184   2.964   1.741   3.088
10414TIP3    H131185   3.036   1.720   3.147
10414TIP3    H231186   2.927   1.822   3.122
10415TIP3   OH231187   5.255   2.615   4.893
10415TIP3    H131188   5.349   2.609   4.908
10415TIP3    H231189   5.217   2.549   4.951
10416TIP3   OH231190   3.593   4.420   0.233
10416TIP3    H131191   3.688   4.418   0.236
10416TIP3    H231192   3.572   4.423   0.139
10417TIP3   OH231193   0.761   1.649   1.791
10417TIP3    H131194   0.766   1.722   1.730
10417TIP3    H231195   0.696   1.677   1.856
10418TIP3   OH231196   0.179   4.722   0.416
10418TIP3    H131197   0.087   4.712   0.439
10418TIP3    H231198   0.209   4.633   0.396
10419TIP3   OH231199   1.882   4.021   1.552
10419TIP3    H131200   1.806   4.070   1.521
10419TIP3    H231201   1.871   4.018   1.647
10420TIP3   OH231202   5.525   4.393   0.427
10420TIP3    H131203   5.608   4.349   0.442
10420TIP3    H231204   5.520   4.403   0.331
10421TIP3   OH231205   4.917   0.814   0.551
10421TIP3    H131206   4.927   0.826   0.645
10421TIP3    H231207   4.834   0.856   0.529
10422TIP3   OH231208   0.130   6.722   4.758
10422TIP3    H131209   0.207   6.742   4.706
10422TIP3    H231210   0.085   6.653   4.708
10423TIP3   OH231211   1.782   2.327   2.007
10423TIP3    H131212   1.694   2.296   1.984
10423TIP3    H231213   1.840   2.285   1.943
10424TIP3   OH231214   6.422   1.333   3.649
10424TIP3    H131215   6.390   1.243   3.651
10424TIP3    H231216   6.404   1.363   3.560
10425TIP3   OH231217   1.673   0.425   4.398
10425TIP3    H131218   1.620   0.481   4.455
10425TIP3    H231219   1.612   0.398   4.328
10426TIP3   OH231220   3.270   1.859   4.183
10426TIP3    H131221   3.212   1.791   4.217
10426TIP3    H231222   3.216   1.908   4.120
10427TIP3   OH231223   2.150   5.160   0.960
10427TIP3    H131224   2.246   5.165   0.950
10427TIP3    H231225   2.118   5.238   0.914
10428TIP3   OH231226   2.248   6.694   2.685
10428TIP3    H131227   2.338   6.718   2.705
10428TIP3    H231228   2.250   6.666   2.594
10429TIP3   OH231229   4.885   4.449   3.881
10429TIP3    H131230   4.896   4.532   3.927
10429TIP3    H231231   4.973   4.411   3.879
10430TIP3   OH231232   0.173   0.658   5.605
10430TIP3    H131233   0.260   0.650   5.644
10430TIP3    H231234   0.116   0.609   5.664
10431TIP3   OH231235   0.305   4.516   0.120
10431TIP3    H131236   0.346   4.456   0.057
10431TIP3    H231237   0.243   4.567   0.068
10432TIP3   OH231238   1.323   4.077   3.511
10432TIP3    H131239   1.365   4.162   3.522
10432TIP3    H231240   1.230   4.094   3.524
10433TIP3   OH231241   1.494   7.434   0.871
10433TIP3    H131242   1.533   7.368   0.813
10433TIP3    H231243   1.432   7.481   0.815
10434TIP3   OH231244   7.060   6.284   0.141
10434TIP3    H131245   7.027   6.253   0.057
10434TIP3    H231246   6.983   6.322   0.184
10435TIP3   OH231247   2.381   7.617   2.688
10435TIP3    H131248   2.291   7.618   2.720
10435TIP3    H231249   2.408   7.526   2.695
10436TIP3   OH231250   1.128   1.536   1.261
10436TIP3    H131251   1.188   1.588   1.208
10436TIP3    H231252   1.091   1.598   1.323
10437TIP3   OH231253   3.660   1.653   0.602
10437TIP3    H131254   3.721   1.600   0.653
10437TIP3    H231255   3.607   1.697   0.668
10438TIP3   OH231256   4.488   0.742   4.215
10438TIP3    H131257   4.500   0.831   4.249
10438TIP3    H231258   4.556   0.691   4.259
10439TIP3   OH231259   3.202   4.968   3.406
10439TIP3    H131260   3.179   4.977   3.499
10439TIP3    H231261   3.264   4.896   3.404
10440TIP3   OH231262   0.494   7.193   5.614
10440TIP3    H131263   0.447   7.220   5.693
10440TIP3    H231264   0.496   7.097   5.618
10441TIP3   OH231265   0.735   3.942   1.487
10441TIP3    H131266   0.725   3.879   1.416
10441TIP3    H231267   0.646   3.956   1.520
10442TIP3   OH231268   7.512   4.010   4.516
10442TIP3    H131269   7.573   4.000   4.444
10442TIP3    H231270   7.559   3.975   4.592
10443TIP3   OH231271   0.526   5.241   5.312
10443TIP3    H131272   0.520   5.243   5.217
10443TIP3    H231273   0.619   5.221   5.329
10444TIP3   OH231274   2.598   3.208   0.774
10444TIP3    H131275   2.589   3.295   0.812
10444TIP3    H231276   2.529   3.157   0.815
10445TIP3   OH231277  -0.019   2.443   3.836
10445TIP3    H131278  -0.074   2.369   3.812
10445TIP3    H231279  -0.015   2.497   3.757
10446TIP3   OH231280   7.320   5.123   5.694
10446TIP3    H131281   7.230   5.091   5.701
10446TIP3    H231282   7.343   5.150   5.783
10447TIP3   OH231283   2.982   6.165   2.586
10447TIP3    H131284   3.048   6.095   2.585
10447TIP3    H231285   2.902   6.122   2.614
10448TIP3   OH231286   6.107   5.665   2.144
10448TIP3    H131287   6.173   5.636   2.082
10448TIP3    H231288   6.087   5.587   2.196
10449TIP3   OH231289   3.854   6.818   4.170
10449TIP3    H131290   3.885   6.857   4.089
10449TIP3    H231291   3.898   6.733   4.175
10450TIP3   OH231292   6.172   1.933   5.729
10450TIP3    H131293   6.172   1.839   5.712
10450TIP3    H231294   6.225   1.970   5.659
10451TIP3   OH231295   2.599   2.731   0.415
10451TIP3    H131296   2.688   2.713   0.386
10451TIP3    H231297   2.609   2.775   0.499
10452TIP3   OH231298   6.436   7.227   5.744
10452TIP3    H131299   6.363   7.252   5.800
10452TIP3    H231300   6.465   7.309   5.704
10453TIP3   OH231301   4.366   4.927   4.824
10453TIP3    H131302   4.285   4.933   4.773
10453TIP3    H231303   4.403   5.016   4.821
10454TIP3   OH231304   4.280   4.973   5.934
10454TIP3    H131305   4.363   4.967   5.982
10454TIP3    H231306   4.306   4.989   5.844
10455TIP3   OH231307   3.761   0.853   6.360
10455TIP3    H131308   3.723   0.765   6.362
10455TIP3    H231309   3.792   0.868   6.450
10456TIP3   OH231310   2.848   5.566   6.549
10456TIP3    H131311   2.776   5.629   6.555
10456TIP3    H231312   2.828   5.500   6.616
10457TIP3   OH231313   0.124   4.054   5.060
10457TIP3    H131314   0.132   3.964   5.091
10457TIP3    H231315   0.059   4.050   4.990
10458TIP3   OH231316   1.809   0.782   1.259
10458TIP3    H131317   1.776   0.695   1.280
10458TIP3    H231318   1.874   0.800   1.326
10459TIP3   OH231319   2.104   5.396   0.788
10459TIP3    H131320   2.172   5.455   0.753
10459TIP3    H231321   2.029   5.452   0.804
10460TIP3   OH231322   0.854   6.625   2.211
10460TIP3    H131323   0.943   6.604   2.241
10460TIP3    H231324   0.867   6.690   2.142
10461TIP3   OH231325   3.401   0.970   0.672
10461TIP3    H131326   3.351   1.029   0.616
10461TIP3    H231327   3.401   0.887   0.625
10462TIP3   OH231328   4.017   3.277   5.195
10462TIP3    H131329   3.963   3.212   5.148
10462TIP3    H231330   4.058   3.227   5.266
10463TIP3   OH231331   1.443   7.363   0.011
10463TIP3    H131332   1.538   7.365   0.002
10463TIP3    H231333   1.427   7.366   0.105
10464TIP3   OH231334   6.709   6.871   1.314
10464TIP3    H131335   6.651   6.947   1.321
10464TIP3    H231336   6.767   6.878   1.390
10465TIP3   OH231337   7.672   5.919   3.592
10465TIP3    H131338   7.630   5.880   3.668
10465TIP3    H231339   7.765   5.899   3.603
10466TIP3   OH231340   5.334   4.156   6.215
10466TIP3    H131341   5.414   4.122   6.256
10466TIP3    H231342   5.326   4.245   6.248
10467TIP3   OH231343   8.106   6.763   4.808
10467TIP3    H131344   8.101   6.671   4.832
10467TIP3    H231345   8.119   6.762   4.713
10468TIP3   OH231346   0.308   7.664   2.948
10468TIP3    H131347   0.317   7.605   3.022
10468TIP3    H231348   0.252   7.616   2.886
10469TIP3   OH231349   2.638   4.628   2.750
10469TIP3    H131350   2.631   4.710   2.800
10469TIP3    H231351   2.650   4.560   2.816
10470TIP3   OH231352   3.864   4.691   1.339
10470TIP3    H131353   3.959   4.683   1.350
10470TIP3    H231354   3.832   4.722   1.424
10471TIP3   OH231355   1.040   5.468   5.603
10471TIP3    H131356   1.029   5.537   5.669
10471TIP3    H231357   1.055   5.388   5.655
10472TIP3   OH231358   3.541   6.898   4.974
10472TIP3    H131359   3.545   6.993   4.984
10472TIP3    H231360   3.483   6.884   4.899
10473TIP3   OH231361   6.203   4.667   5.391
10473TIP3    H131362   6.124   4.613   5.398
10473TIP3    H231363   6.232   4.655   5.301
10474TIP3   OH231364   7.806   5.181   5.631
10474TIP3    H131365   7.788   5.181   5.725
10474TIP3    H231366   7.721   5.161   5.590
10475TIP3   OH231367   4.798   1.066   3.672
10475TIP3    H131368   4.745   1.088   3.595
10475TIP3    H231369   4.889   1.077   3.643
10476TIP3   OH231370   3.882   6.978   2.098
10476TIP3    H131371   3.805   7.012   2.054
10476TIP3    H231372   3.929   7.057   2.127
10477TIP3   OH231373   6.256   4.828   2.538
10477TIP3    H131374   6.171   4.855   2.573
10477TIP3    H231375   6.302   4.910   2.521
10478TIP3   OH231376   1.749   5.950   2.540
10478TIP3    H131377   1.820   6.013   2.530
10478TIP3    H231378   1.758   5.892   2.464
10479TIP3   OH231379   0.741   5.924   6.030
10479TIP3    H131380   0.807   5.855   6.030
10479TIP3    H231381   0.790   6.005   6.013
10480TIP3   OH231382   5.549   5.836   6.438
10480TIP3    H131383   5.565   5.859   6.347
10480TIP3    H231384   5.486   5.901   6.469
10481TIP3   OH231385   7.287   1.010   1.599
10481TIP3    H131386   7.335   1.091   1.618
10481TIP3    H231387   7.203   1.039   1.564
10482TIP3   OH231388   2.833   2.555   4.568
10482TIP3    H131389   2.853   2.469   4.530
10482TIP3    H231390   2.879   2.556   4.651
10483TIP3   OH231391   7.120   5.820   2.119
10483TIP3    H131392   7.141   5.766   2.043
10483TIP3    H231393   7.080   5.759   2.181
10484TIP3   OH231394   6.813   1.008   3.660
10484TIP3    H131395   6.797   1.009   3.566
10484TIP3    H231396   6.790   0.919   3.688
10485TIP3   OH231397   2.474   6.177   0.137
10485TIP3    H131398   2.500   6.120   0.209
10485TIP3    H231399   2.393   6.139   0.104
10486TIP3   OH231400   0.722   4.058   4.259
10486TIP3    H131401   0.687   4.093   4.176
10486TIP3    H231402   0.816   4.054   4.245
10487TIP3   OH231403   1.543   1.042   6.708
10487TIP3    H131404   1.536   0.968   6.648
10487TIP3    H231405   1.497   1.114   6.664
10488TIP3   OH231406   5.195   6.127   2.613
10488TIP3    H131407   5.216   6.198   2.673
10488TIP3    H231408   5.203   6.048   2.666
10489TIP3   OH231409   2.780   1.404   1.361
10489TIP3    H131410   2.719   1.413   1.435
10489TIP3    H231411   2.726   1.367   1.291
10490TIP3   OH231412   6.765   2.488   2.998
10490TIP3    H131413   6.765   2.519   3.089
10490TIP3    H231414   6.825   2.414   2.998
10491TIP3   OH231415   2.034   0.103   1.959
10491TIP3    H131416   2.118   0.145   1.977
10491TIP3    H231417   2.048   0.011   1.980
10492TIP3   OH231418   2.622   1.754   1.859
10492TIP3    H131419   2.602   1.695   1.787
10492TIP3    H231420   2.669   1.699   1.922
10493TIP3   OH231421   6.908   0.665   2.155
10493TIP3    H131422   6.837   0.640   2.213
10493TIP3    H231423   6.969   0.591   2.159
10494TIP3   OH231424   1.554   4.766   6.099
10494TIP3    H131425   1.462   4.760   6.072
10494TIP3    H231426   1.581   4.675   6.110
10495TIP3   OH231427   7.701   1.019   1.746
10495TIP3    H131428   7.751   0.964   1.806
10495TIP3    H231429   7.742   1.106   1.754
10496TIP3   OH231430   3.440   5.304   2.952
10496TIP3    H131431   3.534   5.286   2.950
10496TIP3    H231432   3.426   5.365   2.880
10497TIP3   OH231433   7.888   2.131   1.306
10497TIP3    H131434   7.862   2.094   1.390
10497TIP3    H231435   7.805   2.150   1.262
10498TIP3   OH231436   0.944   1.714   6.323
10498TIP3    H131437   0.977   1.767   6.396
10498TIP3    H231438   1.014   1.718   6.258
10499TIP3   OH231439   5.452   0.650   2.106
10499TIP3    H131440   5.463   0.708   2.031
10499TIP3    H231441   5.426   0.566   2.068
10500TIP3   OH231442   6.999   2.269   3.151
10500TIP3    H131443   6.940   2.194   3.154
10500TIP3    H231444   6.985   2.314   3.234
10501TIP3   OH231445   6.462   5.218   0.254
10501TIP3    H131446   6.531   5.273   0.218
10501TIP3    H231447   6.503   5.133   0.266
10502TIP3   OH231448   4.772   2.788   0.278
10502TIP3    H131449   4.843   2.739   0.317
10502TIP3    H231450   4.814   2.841   0.210
10503TIP3   OH231451   1.053   5.704   2.526
10503TIP3    H131452   1.108   5.782   2.536
10503TIP3    H231453   1.088   5.642   2.589
10504TIP3   OH231454   6.192   3.029   6.652
10504TIP3    H131455   6.280   3.058   6.628
10504TIP3    H231456   6.134   3.090   6.607
10505TIP3   OH231457   0.733   2.116   2.729
10505TIP3    H131458   0.798   2.078   2.670
10505TIP3    H231459   0.728   2.208   2.704
10506TIP3   OH231460   7.011   1.082   6.497
10506TIP3    H131461   7.034   0.990   6.484
10506TIP3    H231462   6.960   1.083   6.578
10507TIP3   OH231463   5.134   4.646   1.178
10507TIP3    H131464   5.070   4.711   1.149
10507TIP3    H231465   5.106   4.564   1.137
10508TIP3   OH231466   4.093   4.739   0.321
10508TIP3    H131467   4.165   4.676   0.315
10508TIP3    H231468   4.058   4.744   0.232
10509TIP3   OH231469   8.215   3.148   4.116
10509TIP3    H131470   8.300   3.183   4.090
10509TIP3    H231471   8.181   3.214   4.177
10510TIP3   OH231472   4.015   4.306   4.991
10510TIP3    H131473   4.097   4.262   4.970
10510TIP3    H231474   3.962   4.296   4.912
10511TIP3   OH231475   4.017   6.522   4.061
10511TIP3    H131476   3.955   6.457   4.093
10511TIP3    H231477   4.100   6.475   4.056
10512TIP3   OH231478   2.125   6.936   4.684
10512TIP3    H131479   2.105   6.858   4.631
10512TIP3    H231480   2.219   6.949   4.671
10513TIP3   OH231481   5.764   1.853   4.010
10513TIP3    H131482   5.753   1.834   3.917
10513TIP3    H231483   5.713   1.785   4.054
10514TIP3   OH231484   3.837   2.925   1.238
10514TIP3    H131485   3.924   2.888   1.254
10514TIP3    H231486   3.783   2.892   1.310
10515TIP3   OH231487   1.247   5.082   2.086
10515TIP3    H131488   1.338   5.054   2.074
10515TIP3    H231489   1.196   5.017   2.038
10516TIP3   OH231490   6.726   7.479   4.202
10516TIP3    H131491   6.805   7.486   4.256
10516TIP3    H231492   6.750   7.521   4.119
10517TIP3   OH231493   2.827   2.245   3.109
10517TIP3    H131494   2.817   2.318   3.048
10517TIP3    H231495   2.921   2.244   3.130
10518TIP3   OH231496   8.350   2.827   4.936
10518TIP3    H131497   8.263   2.819   4.898
10518TIP3    H231498   8.398   2.751   4.902
10519TIP3   OH231499   8.069   6.263   0.933
10519TIP3    H131500   8.093   6.190   0.990
10519TIP3    H231501   8.083   6.341   0.986
10520TIP3   OH231502   6.177   0.187   1.635
10520TIP3    H131503   6.226   0.143   1.705
10520TIP3    H231504   6.180   0.125   1.562
10521TIP3   OH231505   5.532   4.328   4.403
10521TIP3    H131506   5.598   4.397   4.410
10521TIP3    H231507   5.561   4.275   4.329
10522TIP3   OH231508   7.243   7.575   5.768
10522TIP3    H131509   7.150   7.573   5.748
10522TIP3    H231510   7.286   7.592   5.684
10523TIP3   OH231511   7.321   7.094   6.098
10523TIP3    H131512   7.286   7.124   6.014
10523TIP3    H231513   7.247   7.101   6.158
10524TIP3   OH231514   7.379   1.027   4.911
10524TIP3    H131515   7.336   1.096   4.962
10524TIP3    H231516   7.307   0.973   4.879
10525TIP3   OH231517   0.267   3.273   5.182
10525TIP3    H131518   0.276   3.295   5.089
10525TIP3    H231519   0.176   3.248   5.191
10526TIP3   OH231520   0.805   2.520   0.263
10526TIP3    H131521   0.851   2.576   0.202
10526TIP3    H231522   0.715   2.551   0.262
10527TIP3   OH231523   5.386   6.559   1.282
10527TIP3    H131524   5.374   6.571   1.376
10527TIP3    H231525   5.461   6.614   1.260
10528TIP3   OH231526   4.139   2.506   4.818
10528TIP3    H131527   4.094   2.427   4.789
10528TIP3    H231528   4.071   2.558   4.861
10529TIP3   OH231529   6.417   2.008   2.458
10529TIP3    H131530   6.452   1.938   2.402
10529TIP3    H231531   6.367   1.961   2.525
10530TIP3   OH231532   0.240   7.499   1.994
10530TIP3    H131533   0.149   7.523   2.009
10530TIP3    H231534   0.256   7.519   1.902
10531TIP3   OH231535   1.379   3.100   5.986
10531TIP3    H131536   1.337   3.036   6.043
10531TIP3    H231537   1.442   3.145   6.042
10532TIP3   OH231538   1.298   2.603   6.451
10532TIP3    H131539   1.313   2.627   6.360
10532TIP3    H231540   1.365   2.650   6.500
10533TIP3   OH231541   7.255   1.535   5.786
10533TIP3    H131542   7.280   1.626   5.774
10533TIP3    H231543   7.238   1.503   5.697
10534TIP3   OH231544   2.485   3.339   1.533
10534TIP3    H131545   2.516   3.339   1.442
10534TIP3    H231546   2.477   3.432   1.555
10535TIP3   OH231547   5.115   2.734   4.666
10535TIP3    H131548   5.020   2.732   4.679
10535TIP3    H231549   5.150   2.680   4.737
10536TIP3   OH231550   2.258   0.654   5.499
10536TIP3    H131551   2.266   0.738   5.453
10536TIP3    H231552   2.347   0.622   5.507
10537TIP3   OH231553   6.000   4.801   4.178
10537TIP3    H131554   6.081   4.757   4.203
10537TIP3    H231555   6.017   4.894   4.193
10538TIP3   OH231556   6.181   1.186   0.363
10538TIP3    H131557   6.134   1.161   0.443
10538TIP3    H231558   6.124   1.157   0.292
10539TIP3   OH231559   4.788   6.183   4.529
10539TIP3    H131560   4.810   6.210   4.440
10539TIP3    H231561   4.744   6.098   4.519
10540TIP3   OH231562   0.714   5.600   5.429
10540TIP3    H131563   0.729   5.694   5.436
10540TIP3    H231564   0.802   5.562   5.432
10541TIP3   OH231565   4.438   2.649   2.070
10541TIP3    H131566   4.383   2.633   1.993
10541TIP3    H231567   4.417   2.578   2.130
10542TIP3   OH231568   0.870   0.115   3.337
10542TIP3    H131569   0.805   0.099   3.268
10542TIP3    H231570   0.905   0.201   3.318
10543TIP3   OH231571   3.515   4.701   1.683
10543TIP3    H131572   3.489   4.739   1.599
10543TIP3    H231573   3.496   4.769   1.747
10544TIP3   OH231574   4.708   1.801   4.467
10544TIP3    H131575   4.794   1.769   4.440
10544TIP3    H231576   4.646   1.748   4.417
10545TIP3   OH231577   4.766   5.153   2.758
10545TIP3    H131578   4.701   5.085   2.776
10545TIP3    H231579   4.848   5.105   2.746
10546TIP3   OH231580   5.530   6.648   5.093
10546TIP3    H131581   5.495   6.630   5.006
10546TIP3    H231582   5.472   6.601   5.152
10547TIP3   OH231583   7.196   0.618   2.669
10547TIP3    H131584   7.269   0.668   2.706
10547TIP3    H231585   7.236   0.537   2.639
10548TIP3   OH231586   6.695   0.743   5.461
10548TIP3    H131587   6.687   0.660   5.414
10548TIP3    H231588   6.664   0.809   5.400
10549TIP3   OH231589   0.026   0.747   2.035
10549TIP3    H131590   0.008   0.819   1.974
10549TIP3    H231591   0.033   0.790   2.120
10550TIP3   OH231592   2.520   1.598   2.431
10550TIP3    H131593   2.591   1.560   2.483
10550TIP3    H231594   2.550   1.687   2.411
10551TIP3   OH231595   6.027   1.410   4.916
10551TIP3    H131596   6.103   1.464   4.895
10551TIP3    H231597   5.980   1.403   4.832
10552TIP3   OH231598   2.791   5.913   2.205
10552TIP3    H131599   2.788   5.875   2.293
10552TIP3    H231600   2.884   5.932   2.191
10553TIP3   OH231601   7.457   3.433   5.719
10553TIP3    H131602   7.400   3.360   5.745
10553TIP3    H231603   7.402   3.489   5.666
10554TIP3   OH231604   1.032   7.328   1.861
10554TIP3    H131605   1.125   7.329   1.884
10554TIP3    H231606   1.030   7.364   1.772
10555TIP3   OH231607   7.928   0.460   5.177
10555TIP3    H131608   7.954   0.380   5.224
10555TIP3    H231609   8.005   0.482   5.124
10556TIP3   OH231610   7.489   5.473   5.474
10556TIP3    H131611   7.399   5.490   5.500
10556TIP3    H231612   7.540   5.486   5.554
10557TIP3   OH231613   3.772   4.995   1.912
10557TIP3    H131614   3.752   4.967   1.823
10557TIP3    H231615   3.798   4.914   1.957
10558TIP3   OH231616   5.995   3.363   1.573
10558TIP3    H131617   5.912   3.341   1.532
10558TIP3    H231618   6.041   3.279   1.579
10559TIP3   OH231619   1.866   2.317   5.647
10559TIP3    H131620   1.779   2.352   5.629
10559TIP3    H231621   1.864   2.229   5.610
10560TIP3   OH231622   7.617   5.799   5.773
10560TIP3    H131623   7.529   5.809   5.735
10560TIP3    H231624   7.601   5.789   5.867
10561TIP3   OH231625   5.546   5.121   6.610
10561TIP3    H131626   5.463   5.169   6.606
10561TIP3    H231627   5.521   5.032   6.637
10562TIP3   OH231628   2.719   4.891   3.274
10562TIP3    H131629   2.632   4.915   3.240
10562TIP3    H231630   2.771   4.971   3.267
10563TIP3   OH231631   5.910   3.048   6.298
10563TIP3    H131632   5.841   3.095   6.252
10563TIP3    H231633   5.865   2.974   6.339
10564TIP3   OH231634   3.897   2.059   5.801
10564TIP3    H131635   3.851   2.019   5.875
10564TIP3    H231636   3.924   1.984   5.747
10565TIP3   OH231637   2.807   0.475   1.002
10565TIP3    H131638   2.817   0.380   0.991
10565TIP3    H231639   2.756   0.503   0.926
10566TIP3   OH231640   6.484   5.953   1.541
10566TIP3    H131641   6.502   6.043   1.567
10566TIP3    H231642   6.562   5.904   1.566
10567TIP3   OH231643   6.223   7.824   5.230
10567TIP3    H131644   6.145   7.860   5.189
10567TIP3    H231645   6.193   7.746   5.276
10568TIP3   OH231646   8.232   1.108   4.481
10568TIP3    H131647   8.278   1.033   4.444
10568TIP3    H231648   8.229   1.172   4.410
10569TIP3   OH231649   2.663   0.128   4.473
10569TIP3    H131650   2.608   0.103   4.547
10569TIP3    H231651   2.638   0.219   4.454
10570TIP3   OH231652   4.645   1.376   5.601
10570TIP3    H131653   4.627   1.390   5.693
10570TIP3    H231654   4.717   1.313   5.600
10571TIP3   OH231655   7.631   1.181   0.213
10571TIP3    H131656   7.587   1.258   0.180
10571TIP3    H231657   7.568   1.140   0.273
10572TIP3   OH231658   2.384   1.766   2.144
10572TIP3    H131659   2.300   1.734   2.175
10572TIP3    H231660   2.430   1.688   2.113
10573TIP3   OH231661   3.017   0.800   0.273
10573TIP3    H131662   3.101   0.788   0.318
10573TIP3    H231663   2.970   0.718   0.287
10574TIP3   OH231664   3.915   5.561   5.696
10574TIP3    H131665   3.926   5.516   5.779
10574TIP3    H231666   3.949   5.500   5.630
10575TIP3   OH231667   3.104   0.791   1.594
10575TIP3    H131668   3.156   0.742   1.657
10575TIP3    H231669   3.058   0.857   1.647
10576TIP3   OH231670   5.485   5.711   6.684
10576TIP3    H131671   5.494   5.789   6.740
10576TIP3    H231672   5.531   5.734   6.603
10577TIP3   OH231673   3.908   7.384   6.140
10577TIP3    H131674   3.940   7.294   6.137
10577TIP3    H231675   3.819   7.376   6.174
10578TIP3   OH231676   0.070   3.336   0.626
10578TIP3    H131677   0.084   3.430   0.609
10578TIP3    H231678   0.027   3.304   0.546
10579TIP3   OH231679   7.858   5.543   4.844
10579TIP3    H131680   7.922   5.473   4.834
10579TIP3    H231681   7.837   5.570   4.755
10580TIP3   OH231682   0.616   1.419   1.974
10580TIP3    H131683   0.555   1.469   2.028
10580TIP3    H231684   0.631   1.339   2.023
10581TIP3   OH231685   0.282   4.564   4.466
10581TIP3    H131686   0.262   4.657   4.482
10581TIP3    H231687   0.205   4.532   4.419
10582TIP3   OH231688   6.871   2.224   2.227
10582TIP3    H131689   6.842   2.155   2.286
10582TIP3    H231690   6.941   2.184   2.176
10583TIP3   OH231691   5.158   4.656   1.503
10583TIP3    H131692   5.237   4.706   1.523
10583TIP3    H231693   5.166   4.636   1.410
10584TIP3   OH231694   7.491   3.635   4.147
10584TIP3    H131695   7.538   3.603   4.070
10584TIP3    H231696   7.406   3.591   4.143
10585TIP3   OH231697   7.242   4.690   3.916
10585TIP3    H131698   7.158   4.729   3.891
10585TIP3    H231699   7.300   4.765   3.930
10586TIP3   OH231700   6.845   1.366   2.446
10586TIP3    H131701   6.901   1.288   2.437
10586TIP3    H231702   6.895   1.425   2.503
10587TIP3   OH231703   4.067   7.457   0.918
10587TIP3    H131704   3.989   7.403   0.929
10587TIP3    H231705   4.075   7.468   0.824
10588TIP3   OH231706   7.704   1.536   5.492
10588TIP3    H131707   7.772   1.542   5.560
10588TIP3    H231708   7.696   1.626   5.460
10589TIP3   OH231709   4.064   0.625   0.225
10589TIP3    H131710   3.977   0.661   0.210
10589TIP3    H231711   4.086   0.650   0.314
10590TIP3   OH231712   2.071   2.371   2.934
10590TIP3    H131713   2.145   2.337   2.884
10590TIP3    H231714   2.025   2.429   2.874
10591TIP3   OH231715   6.802   4.183   5.548
10591TIP3    H131716   6.740   4.232   5.602
10591TIP3    H231717   6.887   4.221   5.569
10592TIP3   OH231718   7.517   4.519   2.768
10592TIP3    H131719   7.590   4.540   2.825
10592TIP3    H231720   7.440   4.523   2.825
10593TIP3   OH231721   2.561   0.194   5.787
10593TIP3    H131722   2.640   0.222   5.834
10593TIP3    H231723   2.503   0.161   5.856
10594TIP3   OH231724   5.734   3.657   2.960
10594TIP3    H131725   5.760   3.566   2.943
10594TIP3    H231726   5.753   3.670   3.053
10595TIP3   OH231727   3.590   3.146   6.522
10595TIP3    H131728   3.663   3.118   6.467
10595TIP3    H231729   3.576   3.073   6.582
10596TIP3   OH231730   1.152   6.519   3.726
10596TIP3    H131731   1.193   6.546   3.808
10596TIP3    H231732   1.065   6.490   3.752
10597TIP3   OH231733   0.261   4.637   1.854
10597TIP3    H131734   0.233   4.628   1.945
10597TIP3    H231735   0.260   4.731   1.837
10598TIP3   OH231736   5.882   6.537   2.665
10598TIP3    H131737   5.969   6.522   2.627
10598TIP3    H231738   5.895   6.608   2.728
10599TIP3   OH231739   5.469   3.577   4.433
10599TIP3    H131740   5.510   3.532   4.507
10599TIP3    H231741   5.474   3.670   4.456
10600TIP3   OH231742   5.734   0.677   5.097
10600TIP3    H131743   5.672   0.652   5.028
10600TIP3    H231744   5.763   0.593   5.133
10601TIP3   OH231745   6.174   0.912   1.588
10601TIP3    H131746   6.210   0.829   1.557
10601TIP3    H231747   6.088   0.888   1.624
10602TIP3   OH231748   1.332   1.992   1.144
10602TIP3    H131749   1.300   2.067   1.095
10602TIP3    H231750   1.416   2.022   1.181
10603TIP3   OH231751   5.941   2.463   2.668
10603TIP3    H131752   5.908   2.374   2.671
10603TIP3    H231753   5.864   2.518   2.657
10604TIP3   OH231754   1.778   6.372   4.980
10604TIP3    H131755   1.703   6.427   5.003
10604TIP3    H231756   1.794   6.320   5.059
10605TIP3   OH231757   3.088   4.271   0.502
10605TIP3    H131758   3.131   4.356   0.492
10605TIP3    H231759   3.091   4.254   0.596
10606TIP3   OH231760   7.288   0.866   0.366
10606TIP3    H131761   7.286   0.874   0.271
10606TIP3    H231762   7.355   0.928   0.395
10607TIP3   OH231763   2.483   1.088   4.359
10607TIP3    H131764   2.571   1.125   4.353
10607TIP3    H231765   2.448   1.091   4.270
10608TIP3   OH231766   6.324   2.937   2.500
10608TIP3    H131767   6.391   2.871   2.484
10608TIP3    H231768   6.373   3.018   2.512
10609TIP3   OH231769   5.768   0.874   2.440
10609TIP3    H131770   5.681   0.840   2.459
10609TIP3    H231771   5.762   0.967   2.462
10610TIP3   OH231772   7.600   5.870   3.858
10610TIP3    H131773   7.688   5.861   3.894
10610TIP3    H231774   7.543   5.868   3.935
10611TIP3   OH231775   1.487   2.957   3.756
10611TIP3    H131776   1.488   2.861   3.750
10611TIP3    H231777   1.403   2.982   3.718
10612TIP3   OH231778   1.702   3.797   2.967
10612TIP3    H131779   1.782   3.745   2.960
10612TIP3    H231780   1.712   3.866   2.901
10613TIP3   OH231781   6.002   5.442   1.894
10613TIP3    H131782   6.089   5.480   1.906
10613TIP3    H231783   6.011   5.385   1.818
10614TIP3   OH231784   6.016   0.175   3.196
10614TIP3    H131785   5.971   0.249   3.154
10614TIP3    H231786   6.095   0.162   3.144
10615TIP3   OH231787   7.287   6.379   3.349
10615TIP3    H131788   7.347   6.357   3.278
10615TIP3    H231789   7.309   6.318   3.419
10616TIP3   OH231790   3.570   0.850   0.148
10616TIP3    H131791   3.548   0.940   0.171
10616TIP3    H231792   3.490   0.815   0.108
10617TIP3   OH231793   2.891   1.949   2.248
10617TIP3    H131794   2.911   1.866   2.206
10617TIP3    H231795   2.970   1.972   2.296
10618TIP3   OH231796   2.353   3.427   3.606
10618TIP3    H131797   2.273   3.391   3.568
10618TIP3    H231798   2.412   3.352   3.615
10619TIP3   OH231799   2.360   4.843   0.502
10619TIP3    H131800   2.327   4.812   0.587
10619TIP3    H231801   2.295   4.909   0.475
10620TIP3   OH231802   1.452   4.190   1.926
10620TIP3    H131803   1.457   4.127   1.854
10620TIP3    H231804   1.543   4.211   1.945
10621TIP3   OH231805   2.975   5.142   5.037
10621TIP3    H131806   2.941   5.138   5.127
10621TIP3    H231807   2.934   5.067   4.994
10622TIP3   OH231808   3.178   5.543   2.265
10622TIP3    H131809   3.237   5.582   2.201
10622TIP3    H231810   3.142   5.466   2.221
10623TIP3   OH231811   7.871   4.805   3.815
10623TIP3    H131812   7.793   4.835   3.769
10623TIP3    H231813   7.887   4.872   3.882
10624TIP3   OH231814   5.898   6.853   3.670
10624TIP3    H131815   5.948   6.932   3.688
10624TIP3    H231816   5.812   6.885   3.642
10625TIP3   OH231817   2.735   3.456   5.817
10625TIP3    H131818   2.677   3.531   5.803
10625TIP3    H231819   2.811   3.474   5.763
10626TIP3   OH231820   7.758   2.679   3.484
10626TIP3    H131821   7.679   2.718   3.446
10626TIP3    H231822   7.737   2.586   3.494
10627TIP3   OH231823   2.009   6.464   2.316
10627TIP3    H131824   1.969   6.382   2.345
10627TIP3    H231825   2.060   6.439   2.239
10628TIP3   OH231826   7.033   2.434   4.843
10628TIP3    H131827   7.039   2.358   4.900
10628TIP3    H231828   7.061   2.401   4.757
10629TIP3   OH231829   7.116   0.099   1.872
10629TIP3    H131830   7.128   0.156   1.796
10629TIP3    H231831   7.052   0.034   1.844
10630TIP3   OH231832   6.935   0.526   6.149
10630TIP3    H131833   6.944   0.593   6.081
10630TIP3    H231834   7.017   0.477   6.145
10631TIP3   OH231835   3.458   1.148   3.654
10631TIP3    H131836   3.460   1.082   3.724
10631TIP3    H231837   3.541   1.138   3.608
10632TIP3   OH231838   4.513   4.300   0.223
10632TIP3    H131839   4.438   4.276   0.277
10632TIP3    H231840   4.588   4.264   0.269
10633TIP3   OH231841   7.424   4.405   1.994
10633TIP3    H131842   7.481   4.335   1.962
10633TIP3    H231843   7.479   4.455   2.054
10634TIP3   OH231844   5.591   6.599   5.696
10634TIP3    H131845   5.646   6.549   5.634
10634TIP3    H231846   5.645   6.674   5.721
10635TIP3   OH231847   0.943   6.745   5.531
10635TIP3    H131848   0.931   6.822   5.476
10635TIP3    H231849   1.022   6.763   5.581
10636TIP3   OH231850   2.989   7.284   6.775
10636TIP3    H131851   3.012   7.192   6.791
10636TIP3    H231852   2.998   7.327   6.860
10637TIP3   OH231853   0.248   3.944   6.310
10637TIP3    H131854   0.283   3.855   6.312
10637TIP3    H231855   0.174   3.942   6.371
10638TIP3   OH231856   4.453   1.637   1.660
10638TIP3    H131857   4.458   1.631   1.565
10638TIP3    H231858   4.540   1.668   1.687
10639TIP3   OH231859   1.023   4.519   6.175
10639TIP3    H131860   1.077   4.471   6.111
10639TIP3    H231861   1.078   4.524   6.253
10640TIP3   OH231862   3.604   2.154   4.170
10640TIP3    H131863   3.550   2.121   4.098
10640TIP3    H231864   3.603   2.249   4.158
10641TIP3   OH231865   5.522   0.005   2.439
10641TIP3    H131866   5.446  -0.039   2.401
10641TIP3    H231867   5.496   0.097   2.444
10642TIP3   OH231868   5.901   4.975   5.859
10642TIP3    H131869   5.884   5.041   5.791
10642TIP3    H231870   5.986   4.999   5.894
10643TIP3   OH231871   3.904   4.624   0.518
10643TIP3    H131872   3.832   4.683   0.497
10643TIP3    H231873   3.949   4.609   0.434
10644TIP3   OH231874   2.929   7.602   3.739
10644TIP3    H131875   2.908   7.525   3.792
10644TIP3    H231876   2.981   7.568   3.667
10645TIP3   OH231877   0.230   1.766   2.965
10645TIP3    H131878   0.230   1.739   2.874
10645TIP3    H231879   0.138   1.771   2.989
10646TIP3   OH231880   3.262   7.007   0.385
10646TIP3    H131881   3.173   6.973   0.393
10646TIP3    H231882   3.256   7.098   0.414
10647TIP3   OH231883   2.147   5.639   4.216
10647TIP3    H131884   2.213   5.689   4.168
10647TIP3    H231885   2.193   5.559   4.243
10648TIP3   OH231886   3.403   3.715   4.025
10648TIP3    H131887   3.490   3.747   4.002
10648TIP3    H231888   3.363   3.689   3.942
10649TIP3   OH231889   3.234   1.738   6.351
10649TIP3    H131890   3.275   1.792   6.419
10649TIP3    H231891   3.296   1.666   6.338
10650TIP3   OH231892   0.095   2.256   1.416
10650TIP3    H131893   0.038   2.241   1.340
10650TIP3    H231894   0.035   2.264   1.490
10651TIP3   OH231895   6.279   2.958   4.140
10651TIP3    H131896   6.364   2.928   4.109
10651TIP3    H231897   6.217   2.896   4.103
10652TIP3   OH231898   0.091   3.927   5.474
10652TIP3    H131899  -0.002   3.908   5.486
10652TIP3    H231900   0.097   4.022   5.480
10653TIP3   OH231901   2.357   5.866   1.662
10653TIP3    H131902   2.361   5.960   1.681
10653TIP3    H231903   2.286   5.858   1.598
10654TIP3   OH231904   1.551   2.141   4.230
10654TIP3    H131905   1.581   2.051   4.222
10654TIP3    H231906   1.523   2.165   4.142
10655TIP3   OH231907   3.040   0.334   2.726
10655TIP3    H131908   2.975   0.367   2.788
10655TIP3    H231909   3.024   0.240   2.723
10656TIP3   OH231910   3.706   4.690   3.751
10656TIP3    H131911   3.657   4.719   3.674
10656TIP3    H231912   3.798   4.704   3.728
10657TIP3   OH231913   2.781   3.052   4.653
10657TIP3    H131914   2.787   2.968   4.608
10657TIP3    H231915   2.862   3.059   4.703
10658TIP3   OH231916   4.222   0.925   0.307
10658TIP3    H131917   4.256   0.840   0.332
10658TIP3    H231918   4.131   0.924   0.336
10659TIP3   OH231919   3.975   5.824   4.079
10659TIP3    H131920   4.049   5.781   4.036
10659TIP3    H231921   3.980   5.915   4.050
10660TIP3   OH231922   0.627   7.243   0.683
10660TIP3    H131923   0.606   7.319   0.737
10660TIP3    H231924   0.545   7.194   0.679
10661TIP3   OH231925   1.038   4.111   2.072
10661TIP3    H131926   0.980   4.090   2.145
10661TIP3    H231927   0.980   4.112   1.996
10662TIP3   OH231928   0.579   1.495   1.611
10662TIP3    H131929   0.625   1.497   1.527
10662TIP3    H231930   0.609   1.573   1.657
10663TIP3   OH231931   3.099   1.030   2.618
10663TIP3    H131932   3.184   1.012   2.659
10663TIP3    H231933   3.073   0.947   2.578
10664TIP3   OH231934   3.946   1.170   4.259
10664TIP3    H131935   3.908   1.099   4.207
10664TIP3    H231936   3.871   1.223   4.286
10665TIP3   OH231937   5.468   7.410   5.955
10665TIP3    H131938   5.456   7.469   6.029
10665TIP3    H231939   5.555   7.432   5.921
10666TIP3   OH231940   2.561   0.547   3.705
10666TIP3    H131941   2.553   0.452   3.694
10666TIP3    H231942   2.494   0.569   3.770
10667TIP3   OH231943   5.132   7.369   4.286
10667TIP3    H131944   5.068   7.298   4.286
10667TIP3    H231945   5.157   7.378   4.194
10668TIP3   OH231946   0.003   1.874   1.511
10668TIP3    H131947   0.079   1.930   1.497
10668TIP3    H231948   0.037   1.785   1.504
10669TIP3   OH231949   6.747   5.660   2.288
10669TIP3    H131950   6.684   5.654   2.216
10669TIP3    H231951   6.702   5.711   2.355
10670TIP3   OH231952   2.172   3.150   3.779
10670TIP3    H131953   2.101   3.192   3.828
10670TIP3    H231954   2.247   3.207   3.791
10671TIP3   OH231955   3.812   5.825   2.927
10671TIP3    H131956   3.780   5.768   2.997
10671TIP3    H231957   3.756   5.903   2.931
10672TIP3   OH231958   5.723   3.138   4.322
10672TIP3    H131959   5.746   3.046   4.308
10672TIP3    H231960   5.759   3.159   4.408
10673TIP3   OH231961   1.628   7.465   3.412
10673TIP3    H131962   1.537   7.446   3.433
10673TIP3    H231963   1.660   7.516   3.487
10674TIP3   OH231964   3.673   0.842   5.324
10674TIP3    H131965   3.744   0.778   5.322
10674TIP3    H231966   3.627   0.826   5.406
10675TIP3   OH231967   5.058   4.679   5.028
10675TIP3    H131968   5.133   4.697   5.085
10675TIP3    H231969   4.988   4.655   5.089
10676TIP3   OH231970   2.130   3.498   1.409
10676TIP3    H131971   2.178   3.518   1.328
10676TIP3    H231972   2.198   3.494   1.476
10677TIP3   OH231973   5.701   0.502   5.656
10677TIP3    H131974   5.608   0.482   5.668
10677TIP3    H231975   5.746   0.431   5.703
10678TIP3   OH231976   4.661   5.599   4.492
10678TIP3    H131977   4.638   5.609   4.399
10678TIP3    H231978   4.756   5.595   4.492
10679TIP3   OH231979   5.171   2.715   4.409
10679TIP3    H131980   5.145   2.711   4.501
10679TIP3    H231981   5.262   2.745   4.410
10680TIP3   OH231982   8.109   4.431   1.583
10680TIP3    H131983   8.058   4.462   1.658
10680TIP3    H231984   8.129   4.510   1.533
10681TIP3   OH231985   3.790   2.495   4.219
10681TIP3    H131986   3.711   2.441   4.221
10681TIP3    H231987   3.780   2.548   4.140
10682TIP3   OH231988   6.161   6.815   6.052
10682TIP3    H131989   6.117   6.876   5.994
10682TIP3    H231990   6.247   6.853   6.067
10683TIP3   OH231991   6.696   3.575   0.340
10683TIP3    H131992   6.785   3.540   0.348
10683TIP3    H231993   6.656   3.557   0.425
10684TIP3   OH231994   1.995   5.825   2.335
10684TIP3    H131995   1.928   5.768   2.373
10684TIP3    H231996   2.072   5.811   2.390
10685TIP3   OH231997   0.820   4.724   3.701
10685TIP3    H131998   0.878   4.711   3.626
10685TIP3    H231999   0.794   4.816   3.696
10686TIP3   OH232000   8.088   3.431   4.827
10686TIP3    H132001   8.017   3.494   4.813
10686TIP3    H232002   8.043   3.351   4.856
10687TIP3   OH232003   5.307   3.843   2.671
10687TIP3    H132004   5.396   3.852   2.636
10687TIP3    H232005   5.318   3.850   2.766
10688TIP3   OH232006   2.128   2.858   4.165
10688TIP3    H132007   2.216   2.857   4.203
10688TIP3    H232008   2.142   2.830   4.074
10689TIP3   OH232009   7.091   0.117   0.168
10689TIP3    H132010   7.035   0.047   0.133
10689TIP3    H232011   7.180   0.082   0.162
10690TIP3   OH232012   5.387   5.307   5.605
10690TIP3    H132013   5.383   5.232   5.545
10690TIP3    H232014   5.479   5.311   5.632
10691TIP3   OH232015   0.309   2.984   6.125
10691TIP3    H132016   0.362   3.015   6.198
10691TIP3    H232017   0.219   3.001   6.152
10692TIP3   OH232018   2.557   4.627   3.361
10692TIP3    H132019   2.628   4.687   3.338
10692TIP3    H232020   2.597   4.541   3.362
10693TIP3   OH232021   4.248   4.395   3.753
10693TIP3    H132022   4.222   4.349   3.833
10693TIP3    H232023   4.322   4.450   3.780
10694TIP3   OH232024   1.755   0.155   2.529
10694TIP3    H132025   1.750   0.143   2.624
10694TIP3    H232026   1.716   0.075   2.492
10695TIP3   OH232027   1.867   1.357   6.008
10695TIP3    H132028   1.873   1.371   6.103
10695TIP3    H232029   1.864   1.262   5.997
10696TIP3   OH232030   3.631   4.260   5.124
10696TIP3    H132031   3.619   4.307   5.042
10696TIP3    H232032   3.564   4.192   5.123
10697TIP3   OH232033   4.038   6.382   1.110
10697TIP3    H132034   4.071   6.317   1.172
10697TIP3    H232035   4.089   6.368   1.030
10698TIP3   OH232036   5.877   3.216   3.954
10698TIP3    H132037   5.867   3.287   4.018
10698TIP3    H232038   5.941   3.157   3.994
10699TIP3   OH232039   8.100   5.660   2.561
10699TIP3    H132040   8.071   5.655   2.652
10699TIP3    H232041   8.020   5.646   2.510
10700TIP3   OH232042   6.366   5.767   0.640
10700TIP3    H132043   6.298   5.705   0.615
10700TIP3    H232044   6.374   5.756   0.735
10701TIP3   OH232045   1.288   5.438   3.949
10701TIP3    H132046   1.211   5.471   3.997
10701TIP3    H232047   1.293   5.346   3.973
10702TIP3   OH232048   1.673   1.933   3.866
10702TIP3    H132049   1.584   1.922   3.901
10702TIP3    H232050   1.686   1.856   3.811
10703TIP3   OH232051   4.596   6.455   0.960
10703TIP3    H132052   4.596   6.422   0.870
10703TIP3    H232053   4.510   6.431   0.995
10704TIP3   OH232054   8.043   2.208   2.932
10704TIP3    H132055   7.969   2.268   2.942
10704TIP3    H232056   8.099   2.227   3.007
10705TIP3   OH232057   7.329   2.623   0.976
10705TIP3    H132058   7.403   2.675   1.007
10705TIP3    H232059   7.257   2.645   1.035
10706TIP3   OH232060   3.986   5.050   2.891
10706TIP3    H132061   3.912   4.996   2.919
10706TIP3    H232062   4.031   4.997   2.825
10707TIP3   OH232063   0.627   5.654   2.090
10707TIP3    H132064   0.639   5.559   2.084
10707TIP3    H232065   0.571   5.667   2.166
10708TIP3   OH232066   2.133   5.151   3.842
10708TIP3    H132067   2.210   5.097   3.859
10708TIP3    H232068   2.094   5.112   3.763
10709TIP3   OH232069   0.349   1.292   3.964
10709TIP3    H132070   0.398   1.307   4.045
10709TIP3    H232071   0.262   1.330   3.981
10710TIP3   OH232072   3.923   3.458   3.689
10710TIP3    H132073   3.891   3.372   3.717
10710TIP3    H232074   3.979   3.487   3.761
10711TIP3   OH232075   8.226   7.589   6.291
10711TIP3    H132076   8.139   7.549   6.288
10711TIP3    H232077   8.228   7.650   6.218
10712TIP3   OH232078   2.768   4.867   4.474
10712TIP3    H132079   2.720   4.821   4.405
10712TIP3    H232080   2.835   4.917   4.427
10713TIP3   OH232081   4.507   6.803   4.027
10713TIP3    H132082   4.433   6.829   4.083
10713TIP3    H232083   4.484   6.836   3.941
10714TIP3   OH232084   4.201   6.328   2.913
10714TIP3    H132085   4.152   6.409   2.896
10714TIP3    H232086   4.201   6.319   3.008
10715TIP3   OH232087   1.379   7.487   1.729
10715TIP3    H132088   1.376   7.408   1.676
10715TIP3    H232089   1.408   7.458   1.816
10716TIP3   OH232090   0.196   2.044   4.076
10716TIP3    H132091   0.141   1.967   4.065
10716TIP3    H232092   0.135   2.115   4.094
10717TIP3   OH232093   7.299   6.472   3.044
10717TIP3    H132094   7.230   6.533   3.019
10717TIP3    H232095   7.379   6.525   3.042
10718TIP3   OH232096   2.082   1.543   1.709
10718TIP3    H132097   2.131   1.535   1.791
10718TIP3    H232098   2.082   1.637   1.689
10719TIP3   OH232099   5.269   5.734   6.376
10719TIP3    H132100   5.272   5.815   6.427
10719TIP3    H232101   5.337   5.745   6.309
10720TIP3   OH232102   6.632   5.478   1.984
10720TIP3    H132103   6.625   5.538   1.911
10720TIP3    H232104   6.582   5.519   2.054
10721TIP3   OH232105   7.140   2.117   3.861
10721TIP3    H132106   7.074   2.110   3.792
10721TIP3    H232107   7.110   2.056   3.928
10722TIP3   OH232108   0.384   1.768   6.644
10722TIP3    H132109   0.404   1.853   6.606
10722TIP3    H232110   0.376   1.785   6.738
10723TIP3   OH232111   2.595   1.704   5.014
10723TIP3    H132112   2.587   1.796   5.038
10723TIP3    H232113   2.538   1.694   4.937
10724TIP3   OH232114   5.469   3.157   3.744
10724TIP3    H132115   5.457   3.245   3.780
10724TIP3    H232116   5.484   3.172   3.650
10725TIP3   OH232117   6.286   2.602   0.147
10725TIP3    H132118   6.205   2.640   0.182
10725TIP3    H232119   6.309   2.534   0.210
10726TIP3   OH232120   2.396   4.206   5.981
10726TIP3    H132121   2.403   4.230   6.073
10726TIP3    H232122   2.308   4.167   5.973
10727TIP3   OH232123   6.347   4.309   6.129
10727TIP3    H132124   6.271   4.263   6.165
10727TIP3    H232125   6.422   4.268   6.174
10728TIP3   OH232126   2.197   4.927   3.240
10728TIP3    H132127   2.147   4.871   3.300
10728TIP3    H232128   2.200   4.878   3.158
10729TIP3   OH232129   5.344   2.461   1.520
10729TIP3    H132130   5.349   2.544   1.473
10729TIP3    H232131   5.270   2.416   1.481
10730TIP3   OH232132   7.408   3.557   2.350
10730TIP3    H132133   7.378   3.643   2.320
10730TIP3    H232134   7.431   3.570   2.442
10731TIP3   OH232135   3.885   7.268   2.125
10731TIP3    H132136   3.917   7.290   2.037
10731TIP3    H232137   3.908   7.344   2.178
10732TIP3   OH232138   7.101   0.496   1.944
10732TIP3    H132139   7.020   0.444   1.944
10732TIP3    H232140   7.138   0.483   2.032
10733TIP3   OH232141   2.100   2.453   2.336
10733TIP3    H132142   2.131   2.513   2.403
10733TIP3    H232143   2.137   2.368   2.360
10734TIP3   OH232144   1.011   1.203   6.000
10734TIP3    H132145   0.972   1.218   5.913
10734TIP3    H232146   0.942   1.227   6.061
10735TIP3   OH232147   7.981   4.748   0.974
10735TIP3    H132148   7.953   4.726   0.885
10735TIP3    H232149   7.921   4.816   1.002
10736TIP3   OH232150   1.879   0.159   5.317
10736TIP3    H132151   1.868   0.246   5.280
10736TIP3    H232152   1.834   0.163   5.401
10737TIP3   OH232153   7.840   7.568   3.273
10737TIP3    H132154   7.859   7.662   3.281
10737TIP3    H232155   7.834   7.553   3.178
10738TIP3   OH232156   8.059   3.975   1.397
10738TIP3    H132157   8.021   3.948   1.313
10738TIP3    H232158   8.045   4.070   1.399
10739TIP3   OH232159   2.843   5.665   2.014
10739TIP3    H132160   2.860   5.631   2.102
10739TIP3    H232161   2.880   5.753   2.014
10740TIP3   OH232162   4.648   5.189   3.675
10740TIP3    H132163   4.637   5.267   3.620
10740TIP3    H232164   4.720   5.211   3.734
10741TIP3   OH232165   5.301   3.851   1.289
10741TIP3    H132166   5.269   3.844   1.199
10741TIP3    H232167   5.364   3.780   1.299
10742TIP3   OH232168   1.744   5.972   0.550
10742TIP3    H132169   1.733   5.956   0.456
10742TIP3    H232170   1.837   5.989   0.561
10743TIP3   OH232171   6.463   7.456   1.977
10743TIP3    H132172   6.555   7.457   2.005
10743TIP3    H232173   6.420   7.522   2.031
10744TIP3   OH232174   2.190   3.221   5.263
10744TIP3    H132175   2.248   3.148   5.285
10744TIP3    H232176   2.102   3.189   5.287
10745TIP3   OH232177   6.900   2.461   2.351
10745TIP3    H132178   6.881   2.381   2.302
10745TIP3    H232179   6.989   2.449   2.384
10746TIP3   OH232180   1.633   0.518   5.065
10746TIP3    H132181   1.593   0.605   5.077
10746TIP3    H232182   1.597   0.465   5.135
10747TIP3   OH232183   0.381   1.690   3.906
10747TIP3    H132184   0.347   1.624   3.966
10747TIP3    H232185   0.315   1.696   3.837
10748TIP3   OH232186   2.592   5.681   5.318
10748TIP3    H132187   2.511   5.731   5.324
10748TIP3    H232188   2.625   5.677   5.407
10749TIP3   OH232189   5.818   5.700   2.172
10749TIP3    H132190   5.856   5.652   2.099
10749TIP3    H232191   5.751   5.755   2.132
10750TIP3   OH232192   6.999   1.340   0.094
10750TIP3    H132193   7.059   1.284   0.144
10750TIP3    H232194   6.919   1.342   0.147
10751TIP3   OH232195   1.457   7.058   5.743
10751TIP3    H132196   1.361   7.063   5.750
10751TIP3    H232197   1.489   7.105   5.820
10752TIP3   OH232198   1.962   3.969   3.585
10752TIP3    H132199   1.992   3.947   3.673
10752TIP3    H232200   1.893   4.034   3.598
10753TIP3   OH232201   6.249   6.088   3.476
10753TIP3    H132202   6.312   6.142   3.524
10753TIP3    H232203   6.164   6.123   3.502
10754TIP3   OH232204   5.567   4.651   5.031
10754TIP3    H132205   5.540   4.560   5.022
10754TIP3    H232206   5.638   4.661   4.966
10755TIP3   OH232207   7.703   4.637   4.169
10755TIP3    H132208   7.759   4.659   4.243
10755TIP3    H232209   7.643   4.570   4.202
10756TIP3   OH232210   4.025   1.334   6.100
10756TIP3    H132211   4.041   1.424   6.126
10756TIP3    H232212   4.111   1.292   6.107
10757TIP3   OH232213   5.990   7.032   1.027
10757TIP3    H132214   6.018   7.054   1.117
10757TIP3    H232215   6.051   6.964   1.000
10758TIP3   OH232216   4.132   2.829   0.067
10758TIP3    H132217   4.199   2.820   0.135
10758TIP3    H232218   4.152   2.758   0.005
10759TIP3   OH232219   7.863   3.646   2.518
10759TIP3    H132220   7.862   3.735   2.553
10759TIP3    H232221   7.867   3.657   2.423
10760TIP3   OH232222   1.254   3.185   2.718
10760TIP3    H132223   1.253   3.091   2.734
10760TIP3    H232224   1.325   3.198   2.655
10761TIP3   OH232225   2.335   1.793   4.581
10761TIP3    H132226   2.404   1.787   4.515
10761TIP3    H232227   2.254   1.805   4.531
10762TIP3   OH232228   2.047   0.331   0.491
10762TIP3    H132229   1.970   0.296   0.535
10762TIP3    H232230   2.016   0.354   0.403
10763TIP3   OH232231   0.122   1.320   6.715
10763TIP3    H132232   0.187   1.383   6.683
10763TIP3    H232233   0.045   1.334   6.659
10764TIP3   OH232234   0.537   0.454   2.769
10764TIP3    H132235   0.586   0.518   2.717
10764TIP3    H232236   0.499   0.395   2.704
10765TIP3   OH232237   2.951   1.393   1.786
10765TIP3    H132238   2.859   1.381   1.761
10765TIP3    H232239   2.997   1.321   1.742
10766TIP3   OH232240   4.163   1.556   0.359
10766TIP3    H132241   4.176   1.462   0.376
10766TIP3    H232242   4.131   1.591   0.442
10767TIP3   OH232243   5.688   6.339   1.736
10767TIP3    H132244   5.639   6.260   1.757
10767TIP3    H232245   5.764   6.308   1.687
10768TIP3   OH232246   5.232   5.667   4.606
10768TIP3    H132247   5.293   5.616   4.659
10768TIP3    H232248   5.273   5.753   4.599
10769TIP3   OH232249   7.486   1.167   6.045
10769TIP3    H132250   7.524   1.208   6.122
10769TIP3    H232251   7.415   1.226   6.019
10770TIP3   OH232252   0.189   7.481   4.982
10770TIP3    H132253   0.149   7.464   5.068
10770TIP3    H232254   0.217   7.395   4.951
10771TIP3   OH232255   2.921   2.983   5.286
10771TIP3    H132256   2.977   3.060   5.282
10771TIP3    H232257   2.917   2.951   5.196
10772TIP3   OH232258   1.399   0.694   6.261
10772TIP3    H132259   1.438   0.738   6.185
10772TIP3    H232260   1.418   0.753   6.334
10773TIP3   OH232261   4.827   3.559   1.519
10773TIP3    H132262   4.891   3.629   1.529
10773TIP3    H232263   4.879   3.480   1.503
10774TIP3   OH232264   7.269   1.908   4.906
10774TIP3    H132265   7.203   1.866   4.961
10774TIP3    H232266   7.234   1.900   4.817
10775TIP3   OH232267   3.579   1.682   0.330
10775TIP3    H132268   3.667   1.706   0.300
10775TIP3    H232269   3.586   1.681   0.426
10776TIP3   OH232270   3.797   1.778   2.607
10776TIP3    H132271   3.867   1.778   2.674
10776TIP3    H232272   3.779   1.871   2.592
10777TIP3   OH232273   3.523   7.379   1.131
10777TIP3    H132274   3.440   7.406   1.092
10777TIP3    H232275   3.582   7.452   1.116
10778TIP3   OH232276   0.604   0.880   3.389
10778TIP3    H132277   0.629   0.815   3.323
10778TIP3    H232278   0.602   0.963   3.343
10779TIP3   OH232279   0.894   1.975   0.221
10779TIP3    H132280   0.922   1.957   0.131
10779TIP3    H232281   0.965   2.027   0.258
10780TIP3   OH232282   3.034   2.192   4.806
10780TIP3    H132283   3.064   2.102   4.809
10780TIP3    H232284   3.105   2.239   4.762
10781TIP3   OH232285   0.264   3.143   4.414
10781TIP3    H132286   0.314   3.200   4.472
10781TIP3    H232287   0.180   3.131   4.459
10782TIP3   OH232288   4.054   2.216   0.848
10782TIP3    H132289   4.037   2.122   0.845
10782TIP3    H232290   4.108   2.233   0.771
10783TIP3   OH232291   5.372   6.342   1.103
10783TIP3    H132292   5.374   6.424   1.153
10783TIP3    H232293   5.373   6.369   1.012
10784TIP3   OH232294   6.798   7.548   0.225
10784TIP3    H132295   6.841   7.524   0.306
10784TIP3    H232296   6.811   7.643   0.218
10785TIP3   OH232297   5.610   4.499   1.835
10785TIP3    H132298   5.536   4.449   1.870
10785TIP3    H232299   5.653   4.534   1.913
10786TIP3   OH232300   3.865   6.142   0.324
10786TIP3    H132301   3.860   6.208   0.394
10786TIP3    H232302   3.815   6.068   0.358
10787TIP3   OH232303   2.051   1.555   4.167
10787TIP3    H132304   2.071   1.605   4.088
10787TIP3    H232305   2.009   1.618   4.225
10788TIP3   OH232306   6.860   3.459   2.749
10788TIP3    H132307   6.954   3.455   2.734
10788TIP3    H232308   6.850   3.472   2.843
10789TIP3   OH232309   4.426   4.797   5.687
10789TIP3    H132310   4.480   4.857   5.738
10789TIP3    H232311   4.420   4.837   5.600
10790TIP3   OH232312   7.268   3.480   2.935
10790TIP3    H132313   7.284   3.562   2.888
10790TIP3    H232314   7.201   3.502   3.000
10791TIP3   OH232315   1.007   2.205   3.354
10791TIP3    H132316   1.099   2.222   3.333
10791TIP3    H232317   0.958   2.266   3.298
10792TIP3   OH232318   0.497   0.310   0.394
10792TIP3    H132319   0.586   0.328   0.365
10792TIP3    H232320   0.446   0.386   0.366
10793TIP3   OH232321   5.788   5.493   0.460
10793TIP3    H132322   5.768   5.471   0.368
10793TIP3    H232323   5.770   5.587   0.466
10794TIP3   OH232324   5.519   0.378   6.250
10794TIP3    H132325   5.609   0.407   6.237
10794TIP3    H232326   5.469   0.460   6.254
10795TIP3   OH232327   4.448   6.662   3.280
10795TIP3    H132328   4.414   6.716   3.351
10795TIP3    H232329   4.517   6.610   3.320
10796TIP3   OH232330   2.471   7.513   6.180
10796TIP3    H132331   2.406   7.569   6.222
10796TIP3    H232332   2.525   7.573   6.128
10797TIP3   OH232333   3.707   5.175   2.436
10797TIP3    H132334   3.726   5.083   2.418
10797TIP3    H232335   3.723   5.185   2.530
10798TIP3   OH232336   3.123   6.437   5.294
10798TIP3    H132337   3.041   6.422   5.247
10798TIP3    H232338   3.182   6.475   5.229
10799TIP3   OH232339   2.810   3.816   0.699
10799TIP3    H132340   2.814   3.737   0.752
10799TIP3    H232341   2.782   3.884   0.760
10800TIP3   OH232342   1.025   5.544   1.369
10800TIP3    H132343   1.107   5.494   1.369
10800TIP3    H232344   1.052   5.635   1.360
10801TIP3   OH232345   4.833   5.949   3.053
10801TIP3    H132346   4.823   6.030   3.004
10801TIP3    H232347   4.861   5.884   2.988
10802TIP3   OH232348   4.930   7.428   5.919
10802TIP3    H132349   5.023   7.440   5.938
10802TIP3    H232350   4.911   7.492   5.850
10803TIP3   OH232351   5.821   3.281   6.140
10803TIP3    H132352   5.816   3.375   6.123
10803TIP3    H232353   5.909   3.267   6.174
10804TIP3   OH232354   3.373   5.488   0.805
10804TIP3    H132355   3.342   5.576   0.782
10804TIP3    H232356   3.462   5.485   0.772
10805TIP3   OH232357   5.215   2.957   6.482
10805TIP3    H132358   5.214   2.871   6.439
10805TIP3    H232359   5.125   2.988   6.474
10806TIP3   OH232360   4.268   5.396   0.207
10806TIP3    H132361   4.261   5.475   0.260
10806TIP3    H232362   4.272   5.427   0.117
10807TIP3   OH232363   0.321   7.475   5.713
10807TIP3    H132364   0.235   7.474   5.756
10807TIP3    H232365   0.301   7.495   5.621
10808TIP3   OH232366   6.027   3.955   5.298
10808TIP3    H132367   6.049   3.865   5.321
10808TIP3    H232368   6.104   4.006   5.325
10809TIP3   OH232369   1.872   5.453   2.670
10809TIP3    H132370   1.906   5.543   2.669
10809TIP3    H232371   1.786   5.461   2.711
10810TIP3   OH232372   3.310   6.255   5.007
10810TIP3    H132373   3.298   6.277   4.915
10810TIP3    H232374   3.379   6.315   5.037
10811TIP3   OH232375   5.739   5.096   3.529
10811TIP3    H132376   5.818   5.062   3.570
10811TIP3    H232377   5.760   5.099   3.435
10812TIP3   OH232378   6.665   1.078   0.561
10812TIP3    H132379   6.697   1.122   0.640
10812TIP3    H232380   6.580   1.042   0.587
10813TIP3   OH232381   3.807   5.681   0.585
10813TIP3    H132382   3.845   5.665   0.671
10813TIP3    H232383   3.715   5.701   0.604
10814TIP3   OH232384   3.685   4.735   5.283
10814TIP3    H132385   3.637   4.689   5.352
10814TIP3    H232386   3.666   4.685   5.203
10815TIP3   OH232387   2.356   6.991   2.969
10815TIP3    H132388   2.451   6.982   2.983
10815TIP3    H232389   2.345   7.083   2.944
10816TIP3   OH232390   0.707   0.332   1.128
10816TIP3    H132391   0.796   0.296   1.126
10816TIP3    H232392   0.683   0.342   1.036
10817TIP3   OH232393   4.112   1.425   4.517
10817TIP3    H132394   4.065   1.429   4.434
10817TIP3    H232395   4.046   1.393   4.580
10818TIP3   OH232396   0.661   3.059   5.573
10818TIP3    H132397   0.607   3.128   5.534
10818TIP3    H232398   0.611   2.979   5.559
10819TIP3   OH232399   6.482   6.388   0.800
10819TIP3    H132400   6.507   6.366   0.710
10819TIP3    H232401   6.389   6.410   0.794
10820TIP3   OH232402   7.966   1.756   1.980
10820TIP3    H132403   8.046   1.730   2.026
10820TIP3    H232404   7.897   1.702   2.020
10821TIP3   OH232405   0.386   3.014   6.432
10821TIP3    H132406   0.425   3.087   6.383
10821TIP3    H232407   0.445   3.002   6.507
10822TIP3   OH232408   1.086   6.725   6.733
10822TIP3    H132409   1.027   6.662   6.692
10822TIP3    H232410   1.052   6.735   6.822
10823TIP3   OH232411   4.924   6.667   3.522
10823TIP3    H132412   5.007   6.714   3.527
10823TIP3    H232413   4.928   6.604   3.594
10824TIP3   OH232414   0.072   5.221   5.111
10824TIP3    H132415  -0.018   5.223   5.078
10824TIP3    H232416   0.078   5.296   5.170
10825TIP3   OH232417   3.979   5.347   5.530
10825TIP3    H132418   4.028   5.323   5.609
10825TIP3    H232419   4.015   5.290   5.462
10826TIP3   OH232420   1.149   6.968   6.623
10826TIP3    H132421   1.121   6.887   6.665
10826TIP3    H232422   1.200   6.939   6.547
10827TIP3   OH232423   8.276   0.775   3.762
10827TIP3    H132424   8.362   0.766   3.804
10827TIP3    H232425   8.253   0.686   3.735
10828TIP3   OH232426   7.348   5.597   3.282
10828TIP3    H132427   7.347   5.617   3.188
10828TIP3    H232428   7.380   5.677   3.323
10829TIP3   OH232429   1.565   4.722   5.389
10829TIP3    H132430   1.536   4.742   5.478
10829TIP3    H232431   1.515   4.780   5.333
10830TIP3   OH232432   6.496   3.775   5.380
10830TIP3    H132433   6.425   3.712   5.374
10830TIP3    H232434   6.458   3.850   5.425
10831TIP3   OH232435   7.788   2.618   5.325
10831TIP3    H132436   7.776   2.527   5.299
10831TIP3    H232437   7.788   2.616   5.420
10832TIP3   OH232438   6.110   4.761   1.412
10832TIP3    H132439   6.164   4.683   1.423
10832TIP3    H232440   6.069   4.775   1.498
10833TIP3   OH232441   2.951   1.106   2.244
10833TIP3    H132442   2.897   1.028   2.259
10833TIP3    H232443   3.010   1.082   2.173
10834TIP3   OH232444   5.668   0.828   3.083
10834TIP3    H132445   5.594   0.769   3.070
10834TIP3    H232446   5.724   0.813   3.006
10835TIP3   OH232447   5.468   1.382   0.604
10835TIP3    H132448   5.394   1.322   0.613
10835TIP3    H232449   5.444   1.458   0.656
10836TIP3   OH232450   4.229   1.507   3.126
10836TIP3    H132451   4.306   1.553   3.159
10836TIP3    H232452   4.173   1.495   3.203
10837TIP3   OH232453   1.543   6.465   4.708
10837TIP3    H132454   1.621   6.409   4.702
10837TIP3    H232455   1.491   6.441   4.632
10838TIP3   OH232456   2.651   4.176   1.453
10838TIP3    H132457   2.729   4.188   1.399
10838TIP3    H232458   2.677   4.114   1.521
10839TIP3   OH232459   0.078   7.310   5.978
10839TIP3    H132460   0.128   7.378   6.024
10839TIP3    H232461   0.011   7.283   6.041
10840TIP3   OH232462   3.470   7.177   0.145
10840TIP3    H132463   3.492   7.187   0.238
10840TIP3    H232464   3.382   7.141   0.145
10841TIP3   OH232465   1.970   7.101   4.244
10841TIP3    H132466   2.002   7.074   4.157
10841TIP3    H232467   1.949   7.019   4.288
10842TIP3   OH232468   7.064   0.082   4.752
10842TIP3    H132469   7.063   0.175   4.776
10842TIP3    H232470   7.073   0.036   4.835
10843TIP3   OH232471   2.952   3.381   5.625
10843TIP3    H132472   2.924   3.290   5.616
10843TIP3    H232473   3.040   3.375   5.663
10844TIP3   OH232474   8.081   2.756   0.090
10844TIP3    H132475   7.990   2.727   0.082
10844TIP3    H232476   8.132   2.675   0.094
10845TIP3   OH232477   4.704   0.390   6.012
10845TIP3    H132478   4.705   0.484   5.994
10845TIP3    H232479   4.756   0.351   5.941
10846TIP3   OH232480   6.776   6.399   6.291
10846TIP3    H132481   6.739   6.465   6.233
10846TIP3    H232482   6.800   6.448   6.370
10847TIP3   OH232483   0.072   7.355   6.739
10847TIP3    H132484   0.159   7.393   6.753
10847TIP3    H232485   0.081   7.264   6.768
10848TIP3   OH232486   4.926   2.646   5.336
10848TIP3    H132487   4.920   2.575   5.273
10848TIP3    H232488   4.836   2.662   5.363
10849TIP3   OH232489   2.736   7.007   3.958
10849TIP3    H132490   2.765   6.988   4.047
10849TIP3    H232491   2.717   7.101   3.958
10850TIP3   OH232492   8.331   3.899   3.179
10850TIP3    H132493   8.345   3.857   3.264
10850TIP3    H232494   8.253   3.954   3.191
10851TIP3   OH232495   1.545   2.260   3.838
10851TIP3    H132496   1.624   2.229   3.881
10851TIP3    H232497   1.475   2.244   3.901
10852TIP3   OH232498   1.578   3.002   2.850
10852TIP3    H132499   1.547   2.930   2.795
10852TIP3    H232500   1.568   2.970   2.939
10853TIP3   OH232501   1.330   3.050   0.679
10853TIP3    H132502   1.314   2.962   0.645
10853TIP3    H232503   1.243   3.087   0.693
10854TIP3   OH232504   0.786   5.959   0.525
10854TIP3    H132505   0.727   5.956   0.449
10854TIP3    H232506   0.727   5.953   0.601
10855TIP3   OH232507   3.386   4.618   0.222
10855TIP3    H132508   3.464   4.564   0.227
10855TIP3    H232509   3.327   4.572   0.163
10856TIP3   OH232510   8.001   6.786   0.565
10856TIP3    H132511   8.000   6.690   0.571
10856TIP3    H232512   7.992   6.805   0.472
10857TIP3   OH232513   6.001   7.452   5.949
10857TIP3    H132514   5.915   7.418   5.924
10857TIP3    H232515   6.001   7.451   6.044
10858TIP3   OH232516   2.290   4.367   0.015
10858TIP3    H132517   2.216   4.312   0.042
10858TIP3    H232518   2.362   4.341   0.074
10859TIP3   OH232519   3.937   3.892   5.334
10859TIP3    H132520   3.905   3.868   5.247
10859TIP3    H232521   3.905   3.981   5.347
10860TIP3   OH232522   5.632   1.327   2.304
10860TIP3    H132523   5.560   1.291   2.251
10860TIP3    H232524   5.612   1.299   2.393
10861TIP3   OH232525   5.794   1.624   5.408
10861TIP3    H132526   5.807   1.627   5.313
10861TIP3    H232527   5.708   1.585   5.419
10862TIP3   OH232528   4.419   2.926   5.038
10862TIP3    H132529   4.405   2.841   4.996
10862TIP3    H232530   4.490   2.910   5.100
10863TIP3   OH232531   6.284   5.051   0.802
10863TIP3    H132532   6.234   5.132   0.806
10863TIP3    H232533   6.230   4.986   0.847
10864TIP3   OH232534   4.595   5.795   1.290
10864TIP3    H132535   4.662   5.741   1.331
10864TIP3    H232536   4.628   5.813   1.202
10865TIP3   OH232537   1.478   3.778   5.399
10865TIP3    H132538   1.445   3.748   5.485
10865TIP3    H232539   1.509   3.867   5.415
10866TIP3   OH232540   1.216   4.641   5.595
10866TIP3    H132541   1.281   4.708   5.572
10866TIP3    H232542   1.132   4.685   5.585
10867TIP3   OH232543   2.455   5.182   3.041
10867TIP3    H132544   2.462   5.158   3.134
10867TIP3    H232545   2.361   5.174   3.022
10868TIP3   OH232546   5.881   7.607   0.578
10868TIP3    H132547   5.948   7.615   0.646
10868TIP3    H232548   5.808   7.562   0.621
10869TIP3   OH232549   5.036   6.103   5.478
10869TIP3    H132550   5.088   6.031   5.516
10869TIP3    H232551   4.946   6.072   5.482
10870TIP3   OH232552   6.716   6.961   4.921
10870TIP3    H132553   6.635   6.988   4.879
10870TIP3    H232554   6.726   6.869   4.897
10871TIP3   OH232555   1.391   2.629   1.203
10871TIP3    H132556   1.413   2.536   1.218
10871TIP3    H232557   1.378   2.635   1.108
10872TIP3   OH232558   1.127   1.634   4.242
10872TIP3    H132559   1.057   1.588   4.290
10872TIP3    H232560   1.126   1.723   4.277
10873TIP3   OH232561   6.811   7.010   2.770
10873TIP3    H132562   6.778   6.925   2.799
10873TIP3    H232563   6.752   7.074   2.809
10874TIP3   OH232564   2.371   5.537   5.015
10874TIP3    H132565   2.367   5.445   5.044
10874TIP3    H232566   2.452   5.542   4.964
10875TIP3   OH232567   4.662   0.497   4.577
10875TIP3    H132568   4.743   0.450   4.596
10875TIP3    H232569   4.671   0.580   4.624
10876TIP3   OH232570   5.321   5.551   0.097
10876TIP3    H132571   5.297   5.591   0.180
10876TIP3    H232572   5.307   5.457   0.111
10877TIP3   OH232573   7.955   1.052   4.536
10877TIP3    H132574   7.966   0.981   4.472
10877TIP3    H232575   8.037   1.101   4.530
10878TIP3   OH232576   4.746   6.263   2.645
10878TIP3    H132577   4.678   6.196   2.652
10878TIP3    H232578   4.715   6.321   2.575
10879TIP3   OH232579   5.837   5.966   6.409
10879TIP3    H132580   5.756   5.943   6.454
10879TIP3    H232581   5.874   5.881   6.383
10880TIP3   OH232582   4.012   2.340   6.429
10880TIP3    H132583   4.007   2.282   6.353
10880TIP3    H232584   3.926   2.334   6.470
10881TIP3   OH232585   4.950   0.308   6.224
10881TIP3    H132586   4.876   0.308   6.164
10881TIP3    H232587   4.980   0.399   6.225
10882TIP3   OH232588   0.952   7.608   3.966
10882TIP3    H132589   0.923   7.583   4.054
10882TIP3    H232590   0.943   7.704   3.965
10883TIP3   OH232591   0.737   7.409   1.239
10883TIP3    H132592   0.667   7.362   1.194
10883TIP3    H232593   0.750   7.488   1.188
10884TIP3   OH232594   1.560   1.363   1.582
10884TIP3    H132595   1.498   1.378   1.511
10884TIP3    H232596   1.584   1.451   1.612
10885TIP3   OH232597   1.557   7.172   2.175
10885TIP3    H132598   1.623   7.239   2.194
10885TIP3    H232599   1.608   7.093   2.158
10886TIP3   OH232600   1.548   1.923   0.844
10886TIP3    H132601   1.588   2.010   0.854
10886TIP3    H232602   1.528   1.916   0.751
10887TIP3   OH232603   5.909   2.900   0.864
10887TIP3    H132604   5.937   2.885   0.954
10887TIP3    H232605   5.982   2.948   0.824
10888TIP3   OH232606   0.962   4.501   4.329
10888TIP3    H132607   0.941   4.438   4.397
10888TIP3    H232608   1.048   4.474   4.296
10889TIP3   OH232609   1.410   2.364   1.158
10889TIP3    H132610   1.499   2.380   1.126
10889TIP3    H232611   1.367   2.317   1.086
10890TIP3   OH232612   5.259   4.981   2.735
10890TIP3    H132613   5.261   4.925   2.813
10890TIP3    H232614   5.322   5.051   2.754
10891TIP3   OH232615   2.190   6.637   5.119
10891TIP3    H132616   2.138   6.656   5.197
10891TIP3    H232617   2.172   6.710   5.060
10892TIP3   OH232618   1.499   1.390   5.548
10892TIP3    H132619   1.579   1.443   5.553
10892TIP3    H232620   1.464   1.390   5.637
10893TIP3   OH232621   3.602   3.561   5.708
10893TIP3    H132622   3.654   3.568   5.628
10893TIP3    H232623   3.614   3.646   5.751
10894TIP3   OH232624   3.570   5.941   5.351
10894TIP3    H132625   3.620   5.860   5.339
10894TIP3    H232626   3.500   5.935   5.287
10895TIP3   OH232627   7.776   0.715   3.961
10895TIP3    H132628   7.816   0.718   3.874
10895TIP3    H232629   7.760   0.622   3.977
10896TIP3   OH232630   5.291   1.103   2.259
10896TIP3    H132631   5.207   1.141   2.286
10896TIP3    H232632   5.291   1.015   2.298
10897TIP3   OH232633   2.373   3.421   4.213
10897TIP3    H132634   2.416   3.345   4.253
10897TIP3    H232635   2.295   3.384   4.172
10898TIP3   OH232636   2.360   3.174   3.260
10898TIP3    H132637   2.428   3.215   3.313
10898TIP3    H232638   2.404   3.150   3.178
10899TIP3   OH232639   2.605   5.978   3.111
10899TIP3    H132640   2.677   6.039   3.127
10899TIP3    H232641   2.626   5.901   3.164
10900TIP3   OH232642   6.355   1.068   2.745
10900TIP3    H132643   6.369   1.075   2.839
10900TIP3    H232644   6.288   1.000   2.735
10901TIP3   OH232645   8.012   2.003   3.226
10901TIP3    H132646   8.056   2.088   3.223
10901TIP3    H232647   8.023   1.973   3.316
10902TIP3   OH232648   2.865   0.372   6.703
10902TIP3    H132649   2.811   0.298   6.731
10902TIP3    H232650   2.927   0.335   6.640
10903TIP3   OH232651   1.053   0.040   5.635
10903TIP3    H132652   0.977   0.074   5.588
10903TIP3    H232653   1.016  -0.014   5.705
10904TIP3   OH232654   5.349   2.044   0.231
10904TIP3    H132655   5.361   2.045   0.326
10904TIP3    H232656   5.303   1.962   0.213
10905TIP3   OH232657   1.604   1.135   0.818
10905TIP3    H132658   1.531   1.186   0.854
10905TIP3    H232659   1.604   1.055   0.870
10906TIP3   OH232660   1.585   0.679   4.563
10906TIP3    H132661   1.581   0.748   4.497
10906TIP3    H232662   1.530   0.712   4.634
10907TIP3   OH232663   5.496   4.323   5.981
10907TIP3    H132664   5.434   4.251   5.988
10907TIP3    H232665   5.442   4.401   5.970
10908TIP3   OH232666   5.492   4.640   0.786
10908TIP3    H132667   5.515   4.723   0.827
10908TIP3    H232668   5.516   4.651   0.694
10909TIP3   OH232669   5.013   5.607   6.407
10909TIP3    H132670   5.101   5.631   6.377
10909TIP3    H232671   5.018   5.611   6.503
10910TIP3   OH232672   5.579   5.004   4.938
10910TIP3    H132673   5.580   5.033   5.029
10910TIP3    H232674   5.586   5.085   4.887
10911TIP3   OH232675   0.728   4.990   6.685
10911TIP3    H132676   0.764   4.955   6.766
10911TIP3    H232677   0.640   4.951   6.679
10912TIP3   OH232678   3.462   5.572   5.263
10912TIP3    H132679   3.555   5.579   5.239
10912TIP3    H232680   3.454   5.625   5.342
10913TIP3   OH232681   7.272   4.595   6.013
10913TIP3    H132682   7.365   4.589   5.989
10913TIP3    H232683   7.262   4.530   6.083
10914TIP3   OH232684   4.124   6.501   2.420
10914TIP3    H132685   4.166   6.433   2.473
10914TIP3    H232686   4.032   6.473   2.415
10915TIP3   OH232687   3.457   0.483   6.218
10915TIP3    H132688   3.366   0.454   6.227
10915TIP3    H232689   3.503   0.406   6.186
10916TIP3   OH232690   0.704   2.789   2.712
10916TIP3    H132691   0.781   2.761   2.662
10916TIP3    H232692   0.704   2.884   2.706
10917TIP3   OH232693   2.695   4.400   1.140
10917TIP3    H132694   2.726   4.354   1.062
10917TIP3    H232695   2.639   4.336   1.184
10918TIP3   OH232696   8.131   5.320   5.856
10918TIP3    H132697   8.126   5.228   5.829
10918TIP3    H232698   8.116   5.370   5.775
10919TIP3   OH232699   6.550   2.023   0.727
10919TIP3    H132700   6.533   2.105   0.681
10919TIP3    H232701   6.627   1.986   0.683
10920TIP3   OH232702   5.897   7.362   2.612
10920TIP3    H132703   5.868   7.441   2.567
10920TIP3    H232704   5.825   7.340   2.671
10921TIP3   OH232705   6.971   1.860   1.756
10921TIP3    H132706   6.915   1.861   1.834
10921TIP3    H232707   6.981   1.767   1.734
10922TIP3   OH232708   4.004   3.489   0.542
10922TIP3    H132709   3.981   3.404   0.578
10922TIP3    H232710   4.099   3.496   0.554
10923TIP3   OH232711   4.272   5.986   2.529
10923TIP3    H132712   4.365   5.968   2.513
10923TIP3    H232713   4.226   5.909   2.496
10924TIP3   OH232714   2.694   1.140   0.754
10924TIP3    H132715   2.646   1.180   0.680
10924TIP3    H232716   2.641   1.161   0.831
10925TIP3   OH232717   3.403   0.424   3.463
10925TIP3    H132718   3.428   0.478   3.538
10925TIP3    H232719   3.431   0.474   3.386
10926TIP3   OH232720   1.207   6.944   0.669
10926TIP3    H132721   1.181   6.858   0.704
10926TIP3    H232722   1.285   6.926   0.617
10927TIP3   OH232723   2.471   7.190   4.168
10927TIP3    H132724   2.402   7.251   4.195
10927TIP3    H232725   2.473   7.197   4.072
10928TIP3   OH232726   2.027   2.134   0.856
10928TIP3    H132727   1.980   2.158   0.776
10928TIP3    H232728   2.007   2.203   0.919
10929TIP3   OH232729   3.654   3.211   1.243
10929TIP3    H132730   3.599   3.168   1.178
10929TIP3    H232731   3.712   3.267   1.192
10930TIP3   OH232732   2.273   5.979   6.107
10930TIP3    H132733   2.325   5.899   6.109
10930TIP3    H232734   2.262   6.002   6.199
10931TIP3   OH232735   5.578   0.704   4.214
10931TIP3    H132736   5.567   0.609   4.216
10931TIP3    H232737   5.652   0.718   4.155
10932TIP3   OH232738   3.185   5.588   5.005
10932TIP3    H132739   3.099   5.589   5.047
10932TIP3    H232740   3.209   5.495   5.005
10933TIP3   OH232741   5.927   7.771   5.838
10933TIP3    H132742   5.952   7.768   5.931
10933TIP3    H232743   6.010   7.773   5.791
10934TIP3   OH232744   7.735   3.035   4.328
10934TIP3    H132745   7.797   2.963   4.339
10934TIP3    H232746   7.750   3.068   4.239
10935TIP3   OH232747   6.883   6.084   5.808
10935TIP3    H132748   6.928   6.043   5.882
10935TIP3    H232749   6.954   6.106   5.747
10936TIP3   OH232750   7.120   1.650   3.780
10936TIP3    H132751   7.144   1.731   3.825
10936TIP3    H232752   7.093   1.591   3.851
10937TIP3   OH232753   0.308   3.095   1.805
10937TIP3    H132754   0.292   3.189   1.800
10937TIP3    H232755   0.221   3.055   1.804
10938TIP3   OH232756   8.196   4.883   1.185
10938TIP3    H132757   8.221   4.795   1.158
10938TIP3    H232758   8.198   4.934   1.104
10939TIP3   OH232759   4.303   2.761   0.277
10939TIP3    H132760   4.378   2.765   0.218
10939TIP3    H232761   4.337   2.786   0.363
10940TIP3   OH232762   3.788   3.646   5.410
10940TIP3    H132763   3.847   3.720   5.392
10940TIP3    H232764   3.847   3.571   5.422
10941TIP3   OH232765   5.531   2.345   6.167
10941TIP3    H132766   5.492   2.330   6.253
10941TIP3    H232767   5.461   2.383   6.115
10942TIP3   OH232768   2.075   2.298   2.023
10942TIP3    H132769   2.160   2.307   2.066
10942TIP3    H232770   2.068   2.376   1.967
10943TIP3   OH232771   2.429   3.444   2.437
10943TIP3    H132772   2.486   3.421   2.510
10943TIP3    H232773   2.463   3.393   2.363
10944TIP3   OH232774   7.973   2.001   6.047
10944TIP3    H132775   7.896   1.989   6.102
10944TIP3    H232776   8.030   1.927   6.068
10945TIP3   OH232777   4.136   3.258   4.350
10945TIP3    H132778   4.145   3.258   4.446
10945TIP3    H232779   4.142   3.166   4.326
10946TIP3   OH232780   4.691   6.904   3.224
10946TIP3    H132781   4.726   6.928   3.310
10946TIP3    H232782   4.640   6.824   3.241
10947TIP3   OH232783   2.487   0.957   2.722
10947TIP3    H132784   2.450   1.044   2.704
10947TIP3    H232785   2.568   0.955   2.672
10948TIP3   OH232786   7.519   2.604   2.376
10948TIP3    H132787   7.583   2.666   2.409
10948TIP3    H232788   7.454   2.597   2.447
10949TIP3   OH232789   0.290   0.958   5.283
10949TIP3    H132790   0.223   0.921   5.226
10949TIP3    H232791   0.350   1.002   5.223
10950TIP3   OH232792   0.239   5.851   4.192
10950TIP3    H132793   0.281   5.886   4.271
10950TIP3    H232794   0.246   5.756   4.202
10951TIP3   OH232795   7.391   5.462   1.779
10951TIP3    H132796   7.351   5.423   1.857
10951TIP3    H232797   7.449   5.529   1.814
10952TIP3   OH232798   0.045   0.355   2.129
10952TIP3    H132799  -0.011   0.403   2.067
10952TIP3    H232800   0.119   0.325   2.077
10953TIP3   OH232801   6.544   4.683   2.472
10953TIP3    H132802   6.548   4.705   2.565
10953TIP3    H232803   6.541   4.767   2.428
10954TIP3   OH232804   6.208   5.632   5.788
10954TIP3    H132805   6.250   5.675   5.863
10954TIP3    H232806   6.270   5.563   5.763
10955TIP3   OH232807   6.901   3.203   0.325
10955TIP3    H132808   6.972   3.139   0.329
10955TIP3    H232809   6.872   3.201   0.234
10956TIP3   OH232810   0.780   3.081   6.744
10956TIP3    H132811   0.766   3.006   6.802
10956TIP3    H232812   0.777   3.157   6.801
10957TIP3   OH232813  -0.016   1.058   5.393
10957TIP3    H132814  -0.051   0.969   5.393
10957TIP3    H232815   0.077   1.048   5.408
10958TIP3   OH232816   3.224   0.242   1.472
10958TIP3    H132817   3.145   0.271   1.427
10958TIP3    H232818   3.204   0.152   1.499
10959TIP3   OH232819   7.143   1.565   0.104
10959TIP3    H132820   7.135   1.618   0.025
10959TIP3    H232821   7.080   1.494   0.092
10960TIP3   OH232822   7.874   7.070   4.347
10960TIP3    H132823   7.829   6.986   4.334
10960TIP3    H232824   7.805   7.130   4.376
10961TIP3   OH232825   6.404   2.392   6.559
10961TIP3    H132826   6.398   2.327   6.629
10961TIP3    H232827   6.318   2.387   6.515
10962TIP3   OH232828   8.010   2.542   3.624
10962TIP3    H132829   7.948   2.534   3.552
10962TIP3    H232830   8.094   2.563   3.582
10963TIP3   OH232831   7.804   4.338   4.877
10963TIP3    H132832   7.841   4.321   4.964
10963TIP3    H232833   7.730   4.277   4.870
10964TIP3   OH232834   6.317   1.653   1.877
10964TIP3    H132835   6.332   1.738   1.920
10964TIP3    H232836   6.233   1.623   1.913
10965TIP3   OH232837   8.080   3.904   3.573
10965TIP3    H132838   8.142   3.939   3.637
10965TIP3    H232839   8.045   3.825   3.615
10966TIP3   OH232840   7.814   7.454   3.519
10966TIP3    H132841   7.774   7.377   3.479
10966TIP3    H232842   7.837   7.511   3.445
10967TIP3   OH232843   0.438   5.090   1.596
10967TIP3    H132844   0.522   5.049   1.616
10967TIP3    H232845   0.427   5.079   1.501
10968TIP3   OH232846   8.129   5.812   3.453
10968TIP3    H132847   8.128   5.724   3.415
10968TIP3    H232848   8.213   5.849   3.426
10969TIP3   OH232849   1.474   4.030   0.184
10969TIP3    H132850   1.421   4.100   0.223
10969TIP3    H232851   1.529   4.075   0.120
10970TIP3   OH232852   8.024   0.251   5.825
10970TIP3    H132853   8.002   0.342   5.845
10970TIP3    H232854   7.948   0.201   5.856
10971TIP3   OH232855   0.723   7.279   1.607
10971TIP3    H132856   0.756   7.210   1.550
10971TIP3    H232857   0.698   7.234   1.688
10972TIP3   OH232858   5.617   6.464   4.089
10972TIP3    H132859   5.529   6.479   4.124
10972TIP3    H232860   5.627   6.368   4.091
10973TIP3   OH232861   4.704   2.195   4.825
10973TIP3    H132862   4.721   2.125   4.762
10973TIP3    H232863   4.626   2.165   4.873
10974TIP3   OH232864   2.493   7.217   3.891
10974TIP3    H132865   2.498   7.144   3.829
10974TIP3    H232866   2.446   7.285   3.844
10975TIP3   OH232867   7.737   6.816   4.368
10975TIP3    H132868   7.665   6.774   4.322
10975TIP3    H232869   7.766   6.751   4.433
10976TIP3   OH232870   6.939   0.613   4.267
10976TIP3    H132871   7.035   0.618   4.262
10976TIP3    H232872   6.919   0.629   4.359
10977TIP3   OH232873   4.219   2.809   5.936
10977TIP3    H132874   4.139   2.766   5.905
10977TIP3    H232875   4.279   2.736   5.953
10978TIP3   OH232876   0.829   5.566   0.243
10978TIP3    H132877   0.735   5.581   0.252
10978TIP3    H232878   0.867   5.604   0.321
10979TIP3   OH232879   7.589   6.391   0.709
10979TIP3    H132880   7.668   6.340   0.693
10979TIP3    H232881   7.519   6.326   0.716
10980TIP3   OH232882   2.518   5.836   3.931
10980TIP3    H132883   2.524   5.928   3.959
10980TIP3    H232884   2.553   5.836   3.842
10981TIP3   OH232885   3.316   1.971   3.655
10981TIP3    H132886   3.366   1.912   3.597
10981TIP3    H232887   3.263   1.912   3.708
10982TIP3   OH232888   3.571   4.913   1.457
10982TIP3    H132889   3.548   5.002   1.433
10982TIP3    H232890   3.604   4.874   1.376
10983TIP3   OH232891   6.107   5.919   4.326
10983TIP3    H132892   6.167   5.851   4.297
10983TIP3    H232893   6.128   5.995   4.272
10984TIP3   OH232894   2.794   3.562   1.274
10984TIP3    H132895   2.789   3.584   1.181
10984TIP3    H232896   2.722   3.611   1.313
10985TIP3   OH232897   4.742   3.766   5.108
10985TIP3    H132898   4.799   3.760   5.032
10985TIP3    H232899   4.705   3.678   5.117
10986TIP3   OH232900   3.677   2.354   2.693
10986TIP3    H132901   3.712   2.436   2.658
10986TIP3    H232902   3.646   2.376   2.781
10987TIP3   OH232903   6.179   0.341   6.086
10987TIP3    H132904   6.155   0.262   6.135
10987TIP3    H232905   6.270   0.358   6.110
10988TIP3   OH232906   3.159   6.041   5.099
10988TIP3    H132907   3.187   6.128   5.071
10988TIP3    H232908   3.063   6.045   5.099
10989TIP3   OH232909   3.218   1.547   0.810
10989TIP3    H132910   3.199   1.473   0.752
10989TIP3    H232911   3.133   1.589   0.823
10990TIP3   OH232912   4.667   0.849   0.259
10990TIP3    H132913   4.583   0.809   0.239
10990TIP3    H232914   4.646   0.939   0.283
10991TIP3   OH232915   0.870   5.220   6.723
10991TIP3    H132916   0.948   5.196   6.773
10991TIP3    H232917   0.831   5.136   6.697
10992TIP3   OH232918   1.812   1.911   5.216
10992TIP3    H132919   1.843   1.838   5.268
10992TIP3    H232920   1.853   1.900   5.130
10993TIP3   OH232921   5.312   3.363   5.194
10993TIP3    H132922   5.228   3.353   5.149
10993TIP3    H232923   5.300   3.316   5.277
10994TIP3   OH232924   4.468   7.561   1.878
10994TIP3    H132925   4.376   7.535   1.873
10994TIP3    H232926   4.489   7.595   1.791
10995TIP3   OH232927   5.067   5.860   1.015
10995TIP3    H132928   5.082   5.954   1.028
10995TIP3    H232929   5.059   5.825   1.104
10996TIP3   OH232930   5.419   3.605   1.342
10996TIP3    H132931   5.445   3.579   1.430
10996TIP3    H232932   5.355   3.540   1.315
10997TIP3   OH232933   7.485   7.474   1.055
10997TIP3    H132934   7.528   7.442   1.134
10997TIP3    H232935   7.410   7.524   1.086
10998TIP3   OH232936   7.056   3.993   5.122
10998TIP3    H132937   7.053   4.087   5.104
10998TIP3    H232938   6.986   3.978   5.185
10999TIP3   OH232939   2.451   2.300   6.185
10999TIP3    H132940   2.514   2.291   6.113
10999TIP3    H232941   2.496   2.262   6.260
11000TIP3   OH232942   8.151   5.049   0.233
11000TIP3    H132943   8.102   5.131   0.240
11000TIP3    H232944   8.243   5.075   0.238
11001TIP3   OH232945   3.110   1.241   1.633
11001TIP3    H132946   3.084   1.247   1.541
11001TIP3    H232947   3.204   1.259   1.632
11002TIP3   OH232948   6.345   3.710   5.677
11002TIP3    H132949   6.435   3.712   5.642
11002TIP3    H232950   6.301   3.642   5.625
11003TIP3   OH232951   2.034   4.253   5.507
11003TIP3    H132952   2.051   4.260   5.413
11003TIP3    H232953   2.017   4.343   5.535
11004TIP3   OH232954   3.707   3.649   6.082
11004TIP3    H132955   3.661   3.647   5.999
11004TIP3    H232956   3.658   3.713   6.135
11005TIP3   OH232957   4.661   6.753   3.661
11005TIP3    H132958   4.671   6.699   3.739
11005TIP3    H232959   4.749   6.758   3.624
11006TIP3   OH232960   6.438   7.642   0.310
11006TIP3    H132961   6.502   7.592   0.259
11006TIP3    H232962   6.369   7.580   0.331
11007TIP3   OH232963   5.726   2.679   3.017
11007TIP3    H132964   5.652   2.727   3.054
11007TIP3    H232965   5.688   2.598   2.985
11008TIP3   OH232966   2.993   0.641   1.383
11008TIP3    H132967   3.024   0.689   1.307
11008TIP3    H232968   3.031   0.686   1.458
11009TIP3   OH232969   4.928   5.827   2.743
11009TIP3    H132970   4.862   5.896   2.736
11009TIP3    H232971   4.891   5.753   2.696
11010TIP3   OH232972   7.178   6.241   4.576
11010TIP3    H132973   7.262   6.283   4.592
11010TIP3    H232974   7.146   6.281   4.495
11011TIP3   OH232975   6.562   3.157   2.961
11011TIP3    H132976   6.542   3.110   3.042
11011TIP3    H232977   6.569   3.249   2.989
11012TIP3   OH232978   7.379   5.029   5.388
11012TIP3    H132979   7.451   5.082   5.424
11012TIP3    H232980   7.340   4.987   5.465
11013TIP3   OH232981   2.284   0.282   4.248
11013TIP3    H132982   2.347   0.264   4.178
11013TIP3    H232983   2.204   0.236   4.221
11014TIP3   OH232984   2.972   3.349   2.234
11014TIP3    H132985   2.920   3.425   2.259
11014TIP3    H232986   2.983   3.359   2.139
11015TIP3   OH232987   1.711   3.127   1.364
11015TIP3    H132988   1.724   3.036   1.389
11015TIP3    H232989   1.643   3.159   1.423
11016TIP3   OH232990   5.686   0.067   5.809
11016TIP3    H132991   5.681   0.117   5.890
11016TIP3    H232992   5.724   0.128   5.746
11017TIP3   OH232993   2.423   2.200   4.578
11017TIP3    H132994   2.388   2.168   4.495
11017TIP3    H232995   2.471   2.279   4.554
11018TIP3   OH232996   5.379   0.605   6.187
11018TIP3    H132997   5.375   0.693   6.224
11018TIP3    H232998   5.368   0.619   6.092
11019TIP3   OH232999   7.156   5.787   5.324
11019TIP3    H133000   7.070   5.830   5.320
11019TIP3    H233001   7.161   5.735   5.244
11020TIP3   OH233002   7.862   5.195   2.496
11020TIP3    H133003   7.906   5.143   2.564
11020TIP3    H233004   7.773   5.162   2.495
11021TIP3   OH233005   7.533   2.102   0.102
11021TIP3    H133006   7.552   2.135   0.015
11021TIP3    H233007   7.444   2.066   0.095
11022TIP3   OH233008   6.826   7.043   4.534
11022TIP3    H133009   6.780   6.969   4.496
11022TIP3    H233010   6.777   7.120   4.505
11023TIP3   OH233011   6.974   3.707   2.077
11023TIP3    H133012   7.012   3.622   2.098
11023TIP3    H233013   7.027   3.770   2.126
11024TIP3   OH233014   3.253   6.474   5.967
11024TIP3    H133015   3.273   6.461   5.874
11024TIP3    H233016   3.336   6.501   6.006
11025TIP3   OH233017   7.519   0.207   3.109
11025TIP3    H133018   7.539   0.265   3.036
11025TIP3    H233019   7.429   0.178   3.094
11026TIP3   OH233020   7.605   6.763   3.374
11026TIP3    H133021   7.678   6.710   3.340
11026TIP3    H233022   7.530   6.739   3.320
11027TIP3   OH233023   0.824   2.463   3.535
11027TIP3    H133024   0.902   2.504   3.571
11027TIP3    H233025   0.840   2.369   3.541
11028TIP3   OH233026   0.840   0.418   1.560
11028TIP3    H133027   0.891   0.338   1.549
11028TIP3    H233028   0.886   0.467   1.628
11029TIP3   OH233029   5.580   7.072   5.389
11029TIP3    H133030   5.584   7.006   5.320
11029TIP3    H233031   5.657   7.128   5.374
11030TIP3   OH233032   0.264   2.404   4.977
11030TIP3    H133033   0.320   2.364   4.911
11030TIP3    H233034   0.303   2.378   5.061
11031TIP3   OH233035   0.101   1.360   4.021
11031TIP3    H133036   0.014   1.399   4.030
11031TIP3    H233037   0.084   1.266   4.009
11032TIP3   OH233038   0.404   3.449   1.338
11032TIP3    H133039   0.345   3.492   1.276
11032TIP3    H233040   0.370   3.474   1.424
11033TIP3   OH233041   2.018   6.005   0.634
11033TIP3    H133042   2.018   6.101   0.628
11033TIP3    H233043   2.000   5.987   0.726
11034TIP3   OH233044   4.871   2.899   4.361
11034TIP3    H133045   4.911   2.923   4.444
11034TIP3    H233046   4.817   2.974   4.337
11035TIP3   OH233047   4.656   3.543   3.909
11035TIP3    H133048   4.716   3.516   3.978
11035TIP3    H233049   4.699   3.616   3.866
11036TIP3   OH233050   0.337   2.734   6.469
11036TIP3    H133051   0.252   2.733   6.426
11036TIP3    H233052   0.356   2.827   6.484
11037TIP3   OH233053   8.048   6.772   1.876
11037TIP3    H133054   8.000   6.855   1.873
11037TIP3    H233055   8.008   6.724   1.948
11038TIP3   OH233056   5.732   7.396   5.873
11038TIP3    H133057   5.691   7.340   5.807
11038TIP3    H233058   5.736   7.483   5.832
11039TIP3   OH233059   6.928   0.408   1.463
11039TIP3    H133060   6.946   0.351   1.388
11039TIP3    H233061   7.014   0.444   1.486
11040TIP3   OH233062   8.231   5.153   1.950
11040TIP3    H133063   8.258   5.062   1.959
11040TIP3    H233064   8.252   5.176   1.860
11041TIP3   OH233065   1.569   4.411   2.563
11041TIP3    H133066   1.502   4.363   2.514
11041TIP3    H233067   1.573   4.365   2.648
11042TIP3   OH233068   4.852   4.660   4.439
11042TIP3    H133069   4.814   4.697   4.518
11042TIP3    H233070   4.935   4.623   4.467
11043TIP3   OH233071   5.423   1.172   4.434
11043TIP3    H133072   5.484   1.152   4.504
11043TIP3    H233073   5.344   1.122   4.455
11044TIP3   OH233074   2.958   6.533   0.129
11044TIP3    H133075   3.034   6.521   0.071
11044TIP3    H233076   2.930   6.444   0.150
11045TIP3   OH233077   0.207   3.979   2.112
11045TIP3    H133078   0.187   3.988   2.205
11045TIP3    H233079   0.139   4.031   2.068
11046TIP3   OH233080   4.298   3.135   6.687
11046TIP3    H133081   4.337   3.115   6.602
11046TIP3    H233082   4.298   3.230   6.692
11047TIP3   OH233083   5.240   1.879   5.561
11047TIP3    H133084   5.329   1.885   5.597
11047TIP3    H233085   5.234   1.790   5.527
11048TIP3   OH233086   4.092   4.685   6.449
11048TIP3    H133087   4.138   4.628   6.387
11048TIP3    H233088   4.161   4.727   6.499
11049TIP3   OH233089   0.943   4.102   0.337
11049TIP3    H133090   0.974   4.049   0.263
11049TIP3    H233091   0.853   4.071   0.352
11050TIP3   OH233092   0.817   6.202   5.686
11050TIP3    H133093   0.790   6.116   5.653
11050TIP3    H233094   0.755   6.263   5.646
11051TIP3   OH233095   4.587   3.234   4.029
11051TIP3    H133096   4.680   3.250   4.014
11051TIP3    H233097   4.546   3.247   3.944
11052TIP3   OH233098   0.044   0.790   2.311
11052TIP3    H133099   0.117   0.739   2.345
11052TIP3    H233100   0.065   0.881   2.333
11053TIP3   OH233101   8.101   3.945   5.550
11053TIP3    H133102   8.016   3.906   5.530
11053TIP3    H233103   8.081   4.021   5.604
11054TIP3   OH233104   0.376   2.358   1.520
11054TIP3    H133105   0.347   2.291   1.458
11054TIP3    H233106   0.470   2.345   1.527
11055TIP3   OH233107   7.329   1.942   0.866
11055TIP3    H133108   7.384   1.998   0.921
11055TIP3    H233109   7.328   1.985   0.780
11056TIP3   OH233110   6.502   2.427   5.955
11056TIP3    H133111   6.559   2.477   6.012
11056TIP3    H233112   6.419   2.475   5.955
11057TIP3   OH233113   3.033   5.181   0.882
11057TIP3    H133114   2.997   5.144   0.801
11057TIP3    H233115   2.992   5.130   0.952
11058TIP3   OH233116   4.891   3.429   4.772
11058TIP3    H133117   4.944   3.492   4.723
11058TIP3    H233118   4.803   3.468   4.774
11059TIP3   OH233119   6.768   2.503   4.846
11059TIP3    H133120   6.741   2.426   4.796
11059TIP3    H233121   6.864   2.499   4.845
11060TIP3   OH233122   3.552   7.672   4.331
11060TIP3    H133123   3.529   7.595   4.279
11060TIP3    H233124   3.467   7.711   4.354
11061TIP3   OH233125   8.154   7.032   6.653
11061TIP3    H133126   8.209   6.956   6.673
11061TIP3    H233127   8.148   7.032   6.557
11062TIP3   OH233128   1.674   3.317   4.226
11062TIP3    H133129   1.613   3.322   4.300
11062TIP3    H233130   1.624   3.353   4.152
11063TIP3   OH233131   4.593   3.188   0.486
11063TIP3    H133132   4.501   3.164   0.474
11063TIP3    H233133   4.638   3.105   0.499
11064TIP3   OH233134   0.431   5.050   4.874
11064TIP3    H133135   0.440   4.955   4.879
11064TIP3    H233136   0.519   5.082   4.856
11065TIP3   OH233137   1.315   0.918   4.645
11065TIP3    H133138   1.276   0.874   4.569
11065TIP3    H233139   1.277   0.874   4.721
11066TIP3   OH233140   1.421   5.042   1.728
11066TIP3    H133141   1.440   5.090   1.647
11066TIP3    H233142   1.332   5.068   1.752
11067TIP3   OH233143   3.328   1.486   0.060
11067TIP3    H133144   3.283   1.426   0.001
11067TIP3    H233145   3.272   1.490   0.138
11068TIP3   OH233146   2.973   2.890   1.853
11068TIP3    H133147   3.024   2.962   1.816
11068TIP3    H233148   3.002   2.885   1.945
11069TIP3   OH233149   4.851   5.266   0.438
11069TIP3    H133150   4.781   5.277   0.374
11069TIP3    H233151   4.838   5.178   0.474
11070TIP3   OH233152   2.226   0.885   2.155
11070TIP3    H133153   2.321   0.871   2.160
11070TIP3    H233154   2.188   0.809   2.198
11071TIP3   OH233155   3.904   1.617   5.914
11071TIP3    H133156   3.957   1.608   5.835
11071TIP3    H233157   3.954   1.572   5.982
11072TIP3   OH233158   4.400   4.569   0.816
11072TIP3    H133159   4.464   4.509   0.777
11072TIP3    H233160   4.379   4.530   0.900
11073TIP3   OH233161   4.955   1.616   3.561
11073TIP3    H133162   4.868   1.584   3.587
11073TIP3    H233163   4.988   1.547   3.503
11074TIP3   OH233164   5.491   1.757   1.412
11074TIP3    H133165   5.510   1.669   1.379
11074TIP3    H233166   5.564   1.811   1.382
11075TIP3   OH233167   6.070   5.498   2.630
11075TIP3    H133168   6.154   5.492   2.676
11075TIP3    H233169   6.022   5.567   2.676
11076TIP3   OH233170   3.277   0.733   0.955
11076TIP3    H133171   3.194   0.726   0.907
11076TIP3    H233172   3.344   0.727   0.887
11077TIP3   OH233173   4.179   4.739   5.507
11077TIP3    H133174   4.211   4.651   5.484
11077TIP3    H233175   4.249   4.798   5.481
11078TIP3   OH233176   2.576   4.553   2.421
11078TIP3    H133177   2.621   4.469   2.423
11078TIP3    H233178   2.508   4.546   2.487
11079TIP3   OH233179   3.935   3.575   5.818
11079TIP3    H133180   3.931   3.483   5.845
11079TIP3    H233181   3.959   3.622   5.897
11080TIP3   OH233182  -0.014   1.887   5.322
11080TIP3    H133183   0.054   1.920   5.263
11080TIP3    H233184  -0.025   1.957   5.387
11081TIP3   OH233185   4.262   6.370   3.470
11081TIP3    H133186   4.336   6.419   3.506
11081TIP3    H233187   4.185   6.409   3.512
11082TIP3   OH233188   8.291   4.252   4.518
11082TIP3    H133189   8.275   4.233   4.610
11082TIP3    H233190   8.216   4.213   4.472
11083TIP3   OH233191   7.303   0.146   5.845
11083TIP3    H133192   7.266   0.065   5.880
11083TIP3    H233193   7.261   0.216   5.895
11084TIP3   OH233194   3.725   2.164   5.248
11084TIP3    H133195   3.720   2.233   5.314
11084TIP3    H233196   3.805   2.116   5.269
11085TIP3   OH233197   6.120   1.242   2.929
11085TIP3    H133198   6.213   1.224   2.931
11085TIP3    H233199   6.096   1.238   2.836
11086TIP3   OH233200   5.196   1.301   6.595
11086TIP3    H133201   5.177   1.394   6.583
11086TIP3    H233202   5.203   1.266   6.506
11087TIP3   OH233203   2.041   3.260   1.082
11087TIP3    H133204   2.129   3.297   1.072
11087TIP3    H233205   1.987   3.314   1.024
11088TIP3   OH233206   5.558   5.359   3.613
11088TIP3    H133207   5.537   5.341   3.704
11088TIP3    H233208   5.651   5.339   3.605
11089TIP3   OH233209   6.355   5.036   1.539
11089TIP3    H133210   6.406   5.058   1.461
11089TIP3    H233211   6.420   5.021   1.607
11090TIP3   OH233212   1.924   4.925   3.752
11090TIP3    H133213   1.976   4.864   3.804
11090TIP3    H233214   1.846   4.875   3.727
11091TIP3   OH233215   6.006   3.689   4.322
11091TIP3    H133216   6.002   3.657   4.412
11091TIP3    H233217   5.985   3.782   4.328
11092TIP3   OH233218   6.308   6.235   1.763
11092TIP3    H133219   6.243   6.175   1.725
11092TIP3    H233220   6.303   6.219   1.857
11093TIP3   OH233221   5.310   0.693   4.041
11093TIP3    H133222   5.394   0.652   4.020
11093TIP3    H233223   5.288   0.744   3.963
11094TIP3   OH233224   1.913   3.315   0.649
11094TIP3    H133225   1.820   3.317   0.668
11094TIP3    H233226   1.925   3.236   0.596
11095TIP3   OH233227   4.193   7.741   1.700
11095TIP3    H133228   4.231   7.739   1.612
11095TIP3    H233229   4.213   7.655   1.736
11096TIP3   OH233230   1.039   0.979   3.790
11096TIP3    H133231   1.071   1.043   3.853
11096TIP3    H233232   1.030   1.027   3.708
11097TIP3   OH233233   6.153   1.174   1.476
11097TIP3    H133234   6.141   1.082   1.500
11097TIP3    H233235   6.198   1.212   1.552
11098TIP3   OH233236   4.740   4.914   6.593
11098TIP3    H133237   4.664   4.895   6.537
11098TIP3    H233238   4.795   4.836   6.586
11099TIP3   OH233239   7.956   7.266   6.585
11099TIP3    H133240   7.892   7.336   6.596
11099TIP3    H233241   8.027   7.289   6.644
11100TIP3   OH233242   4.099   7.576   6.654
11100TIP3    H133243   4.067   7.576   6.564
11100TIP3    H233244   4.079   7.488   6.687
11101TIP3   OH233245   2.273   5.033   5.343
11101TIP3    H133246   2.243   5.124   5.339
11101TIP3    H233247   2.193   4.981   5.334
11102TIP3   OH233248   0.438   1.298   1.173
11102TIP3    H133249   0.374   1.362   1.205
11102TIP3    H233250   0.384   1.230   1.131
11103TIP3   OH233251   5.815   5.499   1.083
11103TIP3    H133252   5.904   5.471   1.060
11103TIP3    H233253   5.825   5.589   1.112
11104TIP3   OH233254   2.374   4.420   4.633
11104TIP3    H133255   2.346   4.341   4.679
11104TIP3    H233256   2.436   4.462   4.693
11105TIP3   OH233257   2.584   0.706   3.477
11105TIP3    H133258   2.582   0.641   3.548
11105TIP3    H233259   2.673   0.701   3.443
11106TIP3   OH233260   7.039   6.822   2.266
11106TIP3    H133261   6.965   6.786   2.217
11106TIP3    H233262   7.113   6.766   2.244
11107TIP3   OH233263   3.979   1.734   1.378
11107TIP3    H133264   4.049   1.793   1.353
11107TIP3    H233265   3.945   1.770   1.460
11108TIP3   OH233266   3.748   7.010   6.629
11108TIP3    H133267   3.841   6.996   6.615
11108TIP3    H233268   3.743   7.094   6.675
11109TIP3   OH233269   8.213   1.395   3.429
11109TIP3    H133270   8.213   1.439   3.344
11109TIP3    H233271   8.190   1.463   3.492
11110TIP3   OH233272   2.870   5.061   1.078
11110TIP3    H133273   2.905   5.041   1.165
11110TIP3    H233274   2.806   4.992   1.061
11111TIP3   OH233275   4.065   6.948   1.129
11111TIP3    H133276   4.000   6.951   1.059
11111TIP3    H233277   4.149   6.956   1.084
11112TIP3   OH233278   3.377   2.570   5.432
11112TIP3    H133279   3.411   2.487   5.465
11112TIP3    H233280   3.355   2.621   5.510
11113TIP3   OH233281   5.554   0.418   4.701
11113TIP3    H133282   5.525   0.459   4.619
11113TIP3    H233283   5.613   0.348   4.673
11114TIP3   OH233284   0.681   3.394   4.294
11114TIP3    H133285   0.673   3.336   4.370
11114TIP3    H233286   0.679   3.482   4.331
11115TIP3   OH233287   6.799   1.437   0.288
11115TIP3    H133288   6.748   1.404   0.362
11115TIP3    H233289   6.733   1.477   0.231
11116TIP3   OH233290   7.645   4.719   3.167
11116TIP3    H133291   7.706   4.645   3.172
11116TIP3    H233292   7.589   4.708   3.244
11117TIP3   OH233293   3.875   7.351   3.481
11117TIP3    H133294   3.831   7.430   3.515
11117TIP3    H233295   3.808   7.308   3.427
11118TIP3   OH233296   0.540   5.574   3.191
11118TIP3    H133297   0.596   5.564   3.114
11118TIP3    H233298   0.601   5.577   3.265
11119TIP3   OH233299   3.106   6.097   6.556
11119TIP3    H133300   3.019   6.108   6.595
11119TIP3    H233301   3.107   6.007   6.524
11120TIP3   OH233302   6.563   1.408   3.278
11120TIP3    H133303   6.601   1.392   3.365
11120TIP3    H233304   6.622   1.362   3.218
11121TIP3   OH233305   4.869   1.924   3.133
11121TIP3    H133306   4.854   1.877   3.215
11121TIP3    H233307   4.790   1.908   3.081
11122TIP3   OH233308   7.513   5.337   0.000
11122TIP3    H133309   7.568   5.261   0.016
11122TIP3    H233310   7.462   5.314  -0.078
11123TIP3   OH233311   1.671   6.791   2.963
11123TIP3    H133312   1.685   6.702   2.930
11123TIP3    H233313   1.746   6.841   2.931
11124TIP3   OH233314   0.250   0.271   4.691
11124TIP3    H133315   0.239   0.184   4.729
11124TIP3    H233316   0.265   0.254   4.598
11125TIP3   OH233317   3.810   4.185   1.478
11125TIP3    H133318   3.783   4.203   1.569
11125TIP3    H233319   3.905   4.188   1.480
11126TIP3   OH233320   1.569   7.822   5.084
11126TIP3    H133321   1.514   7.831   5.006
11126TIP3    H233322   1.594   7.730   5.084
11127TIP3   OH233323   1.014   5.464   3.648
11127TIP3    H133324   1.009   5.433   3.738
11127TIP3    H233325   0.981   5.391   3.596
11128TIP3   OH233326   0.199   7.156   2.564
11128TIP3    H133327   0.154   7.094   2.621
11128TIP3    H233328   0.156   7.146   2.479
11129TIP3   OH233329   5.133   4.245   3.042
11129TIP3    H133330   5.133   4.249   2.947
11129TIP3    H233331   5.048   4.279   3.068
11130TIP3   OH233332   7.663   6.127   2.882
11130TIP3    H133333   7.633   6.088   2.800
11130TIP3    H233334   7.584   6.160   2.924
11131TIP3   OH233335   4.158   0.958   4.782
11131TIP3    H133336   4.092   0.998   4.725
11131TIP3    H233337   4.238   1.009   4.764
11132TIP3   OH233338   1.945   7.293   2.707
11132TIP3    H133339   1.910   7.380   2.689
11132TIP3    H233340   2.034   7.309   2.738
11133TIP3   OH233341   7.697   2.474   6.616
11133TIP3    H133342   7.640   2.425   6.676
11133TIP3    H233343   7.636   2.514   6.554
11134TIP3   OH233344   7.799   2.751   4.936
11134TIP3    H133345   7.774   2.680   4.878
11134TIP3    H233346   7.742   2.741   5.012
11135TIP3   OH233347   7.923   1.137   3.713
11135TIP3    H133348   7.964   1.088   3.642
11135TIP3    H233349   7.979   1.120   3.789
11136TIP3   OH233350   3.879   7.748   4.029
11136TIP3    H133351   3.885   7.660   3.992
11136TIP3    H233352   3.965   7.765   4.066
11137TIP3   OH233353   4.536   1.091   6.087
11137TIP3    H133354   4.450   1.069   6.050
11137TIP3    H233355   4.594   1.098   6.011
11138TIP3   OH233356   2.828   7.219   2.374
11138TIP3    H133357   2.871   7.222   2.460
11138TIP3    H233358   2.899   7.229   2.311
11139TIP3   OH233359   5.795   5.161   3.269
11139TIP3    H133360   5.833   5.231   3.216
11139TIP3    H233361   5.810   5.081   3.219
11140TIP3   OH233362   4.485   5.894   4.330
11140TIP3    H133363   4.401   5.882   4.287
11140TIP3    H233364   4.540   5.822   4.298
11141TIP3   OH233365   4.344   7.113   4.321
11141TIP3    H133366   4.270   7.154   4.365
11141TIP3    H233367   4.375   7.179   4.260
11142TIP3   OH233368   7.429   6.351   2.427
11142TIP3    H133369   7.393   6.368   2.514
11142TIP3    H233370   7.524   6.351   2.440
11143TIP3   OH233371   3.078   1.694   4.301
11143TIP3    H133372   3.027   1.617   4.274
11143TIP3    H233373   3.013   1.763   4.313
11144TIP3   OH233374   4.760   3.411   0.372
11144TIP3    H133375   4.786   3.356   0.298
11144TIP3    H233376   4.695   3.359   0.419
11145TIP3   OH233377   1.117   5.892   2.923
11145TIP3    H133378   1.157   5.955   2.983
11145TIP3    H233379   1.152   5.807   2.950
11146TIP3   OH233380   0.961   4.092   1.787
11146TIP3    H133381   1.041   4.064   1.742
11146TIP3    H233382   0.938   4.175   1.744
11147TIP3   OH233383   1.810   2.000   5.689
11147TIP3    H133384   1.805   2.053   5.769
11147TIP3    H233385   1.720   1.999   5.656
11148TIP3   OH233386   2.566   3.290   3.399
11148TIP3    H133387   2.658   3.272   3.419
11148TIP3    H233388   2.563   3.384   3.383
11149TIP3   OH233389   7.476   0.343   0.687
11149TIP3    H133390   7.514   0.372   0.770
11149TIP3    H233391   7.485   0.419   0.628
11150TIP3   OH233392   6.234   1.978   6.145
11150TIP3    H133393   6.231   2.065   6.186
11150TIP3    H233394   6.266   1.994   6.057
11151TIP3   OH233395   1.536   1.168   3.894
11151TIP3    H133396   1.602   1.160   3.825
11151TIP3    H233397   1.465   1.217   3.854
11152TIP3   OH233398   6.118   0.802   0.590
11152TIP3    H133399   6.173   0.744   0.643
11152TIP3    H233400   6.145   0.785   0.500
11153TIP3   OH233401   5.127   6.399   4.430
11153TIP3    H133402   5.179   6.344   4.489
11153TIP3    H233403   5.088   6.337   4.368
11154TIP3   OH233404   6.583   2.481   0.152
11154TIP3    H133405   6.614   2.391   0.165
11154TIP3    H233406   6.610   2.503   0.063
11155TIP3   OH233407   0.145   0.565   5.881
11155TIP3    H133408   0.139   0.647   5.929
11155TIP3    H233409   0.171   0.500   5.946
11156TIP3   OH233410   7.794   2.783   5.750
11156TIP3    H133411   7.742   2.714   5.790
11156TIP3    H233412   7.799   2.852   5.817
11157TIP3   OH233413   7.160   4.470   2.120
11157TIP3    H133414   7.187   4.492   2.209
11157TIP3    H233415   7.242   4.458   2.072
11158TIP3   OH233416   2.935   3.482   3.193
11158TIP3    H133417   2.937   3.388   3.175
11158TIP3    H233418   2.908   3.522   3.110
11159TIP3   OH233419   0.687   5.120   4.817
11159TIP3    H133420   0.734   5.128   4.735
11159TIP3    H233421   0.721   5.040   4.857
11160TIP3   OH233422   7.106   5.360   4.090
11160TIP3    H133423   7.034   5.401   4.042
11160TIP3    H233424   7.064   5.300   4.152
11161TIP3   OH233425   1.420   1.130   5.135
11161TIP3    H133426   1.442   1.096   5.222
11161TIP3    H233427   1.384   1.055   5.089
11162TIP3   OH233428   6.382   0.830   4.846
11162TIP3    H133429   6.331   0.902   4.810
11162TIP3    H233430   6.468   0.838   4.803
11163TIP3   OH233431   6.341   6.190   3.126
11163TIP3    H133432   6.256   6.150   3.145
11163TIP3    H233433   6.354   6.252   3.198
11164TIP3   OH233434   3.836   4.572   4.834
11164TIP3    H133435   3.917   4.553   4.787
11164TIP3    H233436   3.768   4.533   4.780
11165TIP3   OH233437   5.249   3.354   3.837
11165TIP3    H133438   5.203   3.270   3.833
11165TIP3    H233439   5.212   3.405   3.766
11166TIP3   OH233440   7.190   5.266   6.540
11166TIP3    H133441   7.149   5.206   6.602
11166TIP3    H233442   7.149   5.245   6.456
11167TIP3   OH233443   0.084   2.498   1.948
11167TIP3    H133444   0.081   2.417   1.897
11167TIP3    H233445   0.156   2.548   1.909
11168TIP3   OH233446   1.006   3.904   1.538
11168TIP3    H133447   0.990   3.826   1.592
11168TIP3    H233448   0.918   3.936   1.518
11169TIP3   OH233449   7.817   0.917   4.155
11169TIP3    H133450   7.801   0.840   4.100
11169TIP3    H233451   7.886   0.890   4.215
11170TIP3   OH233452   1.950   4.394   6.695
11170TIP3    H133453   1.968   4.300   6.687
11170TIP3    H233454   1.855   4.400   6.700
11171TIP3   OH233455   2.821   7.208   5.926
11171TIP3    H133456   2.786   7.130   5.883
11171TIP3    H233457   2.824   7.274   5.857
11172TIP3   OH233458   0.696   6.212   5.294
11172TIP3    H133459   0.683   6.297   5.251
11172TIP3    H233460   0.671   6.227   5.385
11173TIP3   OH233461   0.913   4.957   2.920
11173TIP3    H133462   0.990   5.008   2.948
11173TIP3    H233463   0.923   4.873   2.964
11174TIP3   OH233464   4.282   7.174   3.544
11174TIP3    H133465   4.237   7.224   3.476
11174TIP3    H233466   4.372   7.167   3.513
11175TIP3   OH233467   3.908   0.502   2.236
11175TIP3    H133468   3.898   0.565   2.307
11175TIP3    H233469   3.964   0.433   2.272
11176TIP3   OH233470   2.028   4.448   5.029
11176TIP3    H133471   2.099   4.403   4.984
11176TIP3    H233472   2.033   4.538   4.997
11177TIP3   OH233473   2.003   4.747   2.007
11177TIP3    H133474   2.067   4.733   2.077
11177TIP3    H233475   2.052   4.794   1.939
11178TIP3   OH233476   1.002   4.225   4.789
11178TIP3    H133477   1.036   4.209   4.877
11178TIP3    H233478   1.016   4.318   4.774
11179TIP3   OH233479   5.538   3.935   3.222
11179TIP3    H133480   5.507   4.020   3.192
11179TIP3    H233481   5.481   3.872   3.178
11180TIP3   OH233482   0.254   4.626   6.578
11180TIP3    H133483   0.281   4.593   6.665
11180TIP3    H233484   0.198   4.557   6.543
11181TIP3   OH233485   0.635   0.646   2.143
11181TIP3    H133486   0.638   0.729   2.190
11181TIP3    H233487   0.700   0.590   2.187
11182TIP3   OH233488   0.981   6.066   0.252
11182TIP3    H133489   0.991   5.989   0.196
11182TIP3    H233490   0.891   6.095   0.236
11183TIP3   OH233491   6.850   4.198   3.265
11183TIP3    H133492   6.790   4.134   3.227
11183TIP3    H233493   6.895   4.236   3.189
11184TIP3   OH233494   3.765   5.892   0.036
11184TIP3    H133495   3.759   5.856   0.125
11184TIP3    H233496   3.858   5.890   0.015
11185TIP3   OH233497   3.310   5.216   5.586
11185TIP3    H133498   3.375   5.235   5.653
11185TIP3    H233499   3.228   5.250   5.621
11186TIP3   OH233500   1.754   0.933   6.359
11186TIP3    H133501   1.813   0.880   6.413
11186TIP3    H233502   1.788   1.022   6.368
11187TIP3   OH233503   2.449   1.488   2.841
11187TIP3    H133504   2.522   1.477   2.780
11187TIP3    H233505   2.380   1.529   2.790
11188TIP3   OH233506   3.255   6.296   4.734
11188TIP3    H133507   3.287   6.222   4.681
11188TIP3    H233508   3.170   6.267   4.766
11189TIP3   OH233509   6.928   7.485   4.382
11189TIP3    H133510   7.011   7.524   4.410
11189TIP3    H233511   6.949   7.392   4.369
11190TIP3   OH233512   4.927   3.896   0.343
11190TIP3    H133513   4.915   3.931   0.431
11190TIP3    H233514   4.911   3.802   0.352
11191TIP3   OH233515   5.803   0.027   5.505
11191TIP3    H133516   5.814  -0.021   5.587
11191TIP3    H233517   5.715   0.065   5.511
11192TIP3   OH233518   8.028   6.094   0.282
11192TIP3    H133519   8.025   6.158   0.210
11192TIP3    H233520   7.937   6.087   0.311
11193TIP3   OH233521   2.028   3.214   0.246
11193TIP3    H133522   2.037   3.301   0.283
11193TIP3    H233523   2.055   3.224   0.154
11194TIP3   OH233524   0.351   3.815   1.352
11194TIP3    H133525   0.278   3.789   1.295
11194TIP3    H233526   0.313   3.818   1.440
11195TIP3   OH233527   3.617   3.440   6.580
11195TIP3    H133528   3.616   3.345   6.568
11195TIP3    H233529   3.564   3.455   6.659
11196TIP3   OH233530   4.076   1.743   2.737
11196TIP3    H133531   4.135   1.788   2.676
11196TIP3    H233532   4.122   1.662   2.760
11197TIP3   OH233533   7.319   5.008   0.099
11197TIP3    H133534   7.251   5.072   0.077
11197TIP3    H233535   7.284   4.924   0.067
11198TIP3   OH233536   6.902   2.952   6.089
11198TIP3    H133537   6.916   2.962   5.994
11198TIP3    H233538   6.807   2.956   6.100
11199TIP3   OH233539   3.487   4.569   5.132
11199TIP3    H133540   3.413   4.520   5.167
11199TIP3    H233541   3.540   4.503   5.087
11200TIP3   OH233542   5.249   4.878   3.532
11200TIP3    H133543   5.317   4.944   3.532
11200TIP3    H233544   5.182   4.912   3.472
11201TIP3   OH233545   3.718   1.293   0.148
11201TIP3    H133546   3.677   1.304   0.234
11201TIP3    H233547   3.794   1.350   0.150
11202TIP3   OH233548   4.911   5.284   6.691
11202TIP3    H133549   4.826   5.254   6.722
11202TIP3    H233550   4.969   5.208   6.700
11203TIP3   OH233551   6.845   3.698   5.443
11203TIP3    H133552   6.871   3.637   5.513
11203TIP3    H233553   6.750   3.707   5.453
11204TIP3   OH233554   2.227   0.172   1.507
11204TIP3    H133555   2.235   0.249   1.451
11204TIP3    H233556   2.153   0.123   1.471
11205TIP3   OH233557   3.497   3.007   1.944
11205TIP3    H133558   3.546   2.990   1.864
11205TIP3    H233559   3.454   2.924   1.965
11206TIP3   OH233560   5.868   1.098   1.764
11206TIP3    H133561   5.813   1.109   1.842
11206TIP3    H233562   5.957   1.112   1.796
11207TIP3   OH233563   6.577   3.815   3.050
11207TIP3    H133564   6.670   3.792   3.045
11207TIP3    H233565   6.574   3.891   3.109
11208TIP3   OH233566   2.200   5.602   0.131
11208TIP3    H133567   2.205   5.656   0.210
11208TIP3    H233568   2.168   5.517   0.162
11209TIP3   OH233569   7.746   3.585   6.352
11209TIP3    H133570   7.807   3.595   6.425
11209TIP3    H233571   7.726   3.492   6.350
11210TIP3   OH233572   7.894   6.376   4.781
11210TIP3    H133573   7.901   6.287   4.746
11210TIP3    H233574   7.812   6.377   4.830
11211TIP3   OH233575   8.166   3.522   6.327
11211TIP3    H133576   8.131   3.491   6.243
11211TIP3    H233577   8.139   3.614   6.332
11212TIP3   OH233578   1.017   3.161   5.692
11212TIP3    H133579   1.009   3.164   5.787
11212TIP3    H233580   0.959   3.090   5.665
11213TIP3   OH233581   3.900   7.255   1.018
11213TIP3    H133582   3.849   7.182   0.983
11213TIP3    H233583   3.989   7.240   0.984
11214TIP3   OH233584   2.740   0.052   5.570
11214TIP3    H133585   2.822   0.067   5.524
11214TIP3    H233586   2.764   0.046   5.662
11215TIP3   OH233587   1.392   3.347   0.783
11215TIP3    H133588   1.409   3.254   0.797
11215TIP3    H233589   1.307   3.350   0.739
11216TIP3   OH233590   3.028   0.194   4.273
11216TIP3    H133591   3.074   0.225   4.194
11216TIP3    H233592   2.964   0.132   4.241
11217TIP3   OH233593   2.916   0.406   3.130
11217TIP3    H133594   2.926   0.313   3.152
11217TIP3    H233595   2.996   0.447   3.163
11218TIP3   OH233596   6.436   4.654   2.948
11218TIP3    H133597   6.449   4.616   3.035
11218TIP3    H233598   6.512   4.711   2.935
11219TIP3   OH233599   4.210   2.351   2.845
11219TIP3    H133600   4.126   2.394   2.854
11219TIP3    H233601   4.223   2.305   2.928
11220TIP3   OH233602   1.458   5.409   1.701
11220TIP3    H133603   1.461   5.484   1.641
11220TIP3    H233604   1.377   5.422   1.751
11221TIP3   OH233605   4.203   7.518   1.846
11221TIP3    H133606   4.225   7.426   1.859
11221TIP3    H233607   4.109   7.522   1.862
11222TIP3   OH233608   3.791   3.157   3.285
11222TIP3    H133609   3.863   3.218   3.302
11222TIP3    H233610   3.806   3.127   3.196
11223TIP3   OH233611   8.208   3.679   1.366
11223TIP3    H133612   8.228   3.599   1.317
11223TIP3    H233613   8.150   3.728   1.308
11224TIP3   OH233614   2.215   2.357   1.272
11224TIP3    H133615   2.309   2.352   1.292
11224TIP3    H233616   2.180   2.414   1.340
11225TIP3   OH233617   8.205   7.158   2.419
11225TIP3    H133618   8.184   7.068   2.443
11225TIP3    H233619   8.152   7.175   2.341
11226TIP3   OH233620   0.662   3.360   3.737
11226TIP3    H133621   0.720   3.383   3.811
11226TIP3    H233622   0.616   3.441   3.717
11227TIP3   OH233623   5.682   7.642   5.758
11227TIP3    H133624   5.762   7.681   5.792
11227TIP3    H233625   5.672   7.680   5.670
11228TIP3   OH233626   4.459   1.200   2.200
11228TIP3    H133627   4.437   1.248   2.120
11228TIP3    H233628   4.470   1.110   2.172
11229TIP3   OH233629   4.385   1.865   2.649
11229TIP3    H133630   4.407   1.941   2.595
11229TIP3    H233631   4.342   1.805   2.589
11230TIP3   OH233632   4.060   7.485   2.497
11230TIP3    H133633   4.153   7.500   2.483
11230TIP3    H233634   4.041   7.404   2.450
11231TIP3   OH233635   3.519   3.265   6.142
11231TIP3    H133636   3.541   3.188   6.089
11231TIP3    H233637   3.591   3.326   6.127
11232TIP3   OH233638   6.317   0.624   3.580
11232TIP3    H133639   6.355   0.654   3.662
11232TIP3    H233640   6.226   0.651   3.583
11233TIP3   OH233641   7.336   6.710   2.571
11233TIP3    H133642   7.408   6.769   2.547
11233TIP3    H233643   7.257   6.760   2.548
11234TIP3   OH233644   5.341   5.037   4.216
11234TIP3    H133645   5.280   5.011   4.286
11234TIP3    H233646   5.337   4.964   4.153
11235TIP3   OH233647   1.442   1.718   0.416
11235TIP3    H133648   1.443   1.649   0.349
11235TIP3    H233649   1.353   1.716   0.451
11236TIP3   OH233650   4.662   5.819   2.250
11236TIP3    H133651   4.628   5.848   2.335
11236TIP3    H233652   4.751   5.790   2.269
11237TIP3   OH233653   6.381   6.076   0.342
11237TIP3    H133654   6.429   6.005   0.299
11237TIP3    H233655   6.375   6.049   0.434
11238TIP3   OH233656   7.222   5.384   5.840
11238TIP3    H133657   7.227   5.431   5.756
11238TIP3    H233658   7.227   5.453   5.906
11239TIP3   OH233659   0.495   3.986   1.621
11239TIP3    H133660   0.414   3.962   1.665
11239TIP3    H233661   0.539   4.045   1.682
11240TIP3   OH233662   6.885   6.818   3.485
11240TIP3    H133663   6.880   6.888   3.550
11240TIP3    H233664   6.904   6.739   3.536
11241TIP3   OH233665   4.282   0.966   5.965
11241TIP3    H133666   4.189   0.967   5.987
11241TIP3    H233667   4.302   0.873   5.954
11242TIP3   OH233668   3.693   2.220   6.287
11242TIP3    H133669   3.750   2.295   6.268
11242TIP3    H233670   3.629   2.254   6.350
11243TIP3   OH233671   5.671   1.456   1.810
11243TIP3    H133672   5.688   1.533   1.755
11243TIP3    H233673   5.751   1.446   1.862
11244TIP3   OH233674   6.588   3.362   3.783
11244TIP3    H133675   6.517   3.334   3.840
11244TIP3    H233676   6.561   3.448   3.751
11245TIP3   OH233677   4.529   6.844   5.767
11245TIP3    H133678   4.570   6.904   5.830
11245TIP3    H233679   4.601   6.812   5.713
11246TIP3   OH233680   2.853   1.668   0.142
11246TIP3    H133681   2.942   1.694   0.118
11246TIP3    H233682   2.799   1.692   0.067
11247TIP3   OH233683   1.379   4.525   6.043
11247TIP3    H133684   1.422   4.478   6.115
11247TIP3    H233685   1.309   4.466   6.016
11248TIP3   OH233686   4.065   6.971   4.819
11248TIP3    H133687   4.075   7.042   4.882
11248TIP3    H233688   4.080   6.891   4.870
11249TIP3   OH233689   8.229   1.903   0.560
11249TIP3    H133690   8.249   1.842   0.490
11249TIP3    H233691   8.307   1.958   0.568
11250TIP3   OH233692   8.063   6.958   0.115
11250TIP3    H133693   8.082   6.868   0.089
11250TIP3    H233694   8.024   6.998   0.037
11251TIP3   OH233695   3.797   4.427   2.309
11251TIP3    H133696   3.843   4.358   2.262
11251TIP3    H233697   3.780   4.494   2.242
11252TIP3   OH233698   0.090   7.032   0.820
11252TIP3    H133699   0.140   6.954   0.845
11252TIP3    H233700   0.072   7.021   0.727
11253TIP3   OH233701   2.766   1.781   0.374
11253TIP3    H133702   2.812   1.741   0.300
11253TIP3    H233703   2.674   1.763   0.357
11254TIP3   OH233704   3.937   0.731   1.900
11254TIP3    H133705   3.890   0.739   1.817
11254TIP3    H233706   3.903   0.803   1.953
11255TIP3   OH233707   6.313   1.783   6.545
11255TIP3    H133708   6.235   1.829   6.577
11255TIP3    H233709   6.311   1.698   6.589
11256TIP3   OH233710   2.349   6.533   1.509
11256TIP3    H133711   2.395   6.617   1.507
11256TIP3    H233712   2.418   6.469   1.530
11257TIP3   OH233713   7.386   0.090   4.586
11257TIP3    H133714   7.398   0.058   4.676
11257TIP3    H233715   7.406   0.014   4.531
11258TIP3   OH233716   1.005   0.616   4.316
11258TIP3    H133717   0.993   0.593   4.224
11258TIP3    H233718   1.006   0.532   4.362
11259TIP3   OH233719   6.113   1.320   6.123
11259TIP3    H133720   6.162   1.294   6.201
11259TIP3    H233721   6.111   1.241   6.068
11260TIP3   OH233722   3.204   4.007   4.740
11260TIP3    H133723   3.161   4.089   4.714
11260TIP3    H233724   3.161   3.940   4.688
11261TIP3   OH233725   7.016   0.421   5.205
11261TIP3    H133726   7.059   0.394   5.124
11261TIP3    H233727   7.053   0.365   5.273
11262TIP3   OH233728   1.270   3.668   3.750
11262TIP3    H133729   1.347   3.677   3.806
11262TIP3    H233730   1.282   3.584   3.705
11263TIP3   OH233731   8.346   0.154   4.992
11263TIP3    H133732   8.353   0.105   5.074
11263TIP3    H233733   8.280   0.106   4.941
11264TIP3   OH233734   4.786   6.999   3.480
11264TIP3    H133735   4.726   7.020   3.551
11264TIP3    H233736   4.869   6.981   3.523
11265TIP3   OH233737   7.183   1.152   5.480
11265TIP3    H133738   7.244   1.225   5.487
11265TIP3    H233739   7.226   1.079   5.525
11266TIP3   OH233740   4.231   7.215   5.313
11266TIP3    H133741   4.301   7.213   5.247
11266TIP3    H233742   4.210   7.308   5.322
11267TIP3   OH233743   2.772   6.073  -0.012
11267TIP3    H133744   2.787   6.035   0.074
11267TIP3    H233745   2.853   6.119  -0.032
11268TIP3   OH233746   2.394   2.587   1.529
11268TIP3    H133747   2.326   2.523   1.508
11268TIP3    H233748   2.349   2.671   1.530
11269TIP3   OH233749   0.498   4.859   0.185
11269TIP3    H133750   0.530   4.788   0.130
11269TIP3    H233751   0.404   4.863   0.166
11270TIP3   OH233752   1.129   6.499   3.013
11270TIP3    H133753   1.178   6.568   2.969
11270TIP3    H233754   1.188   6.424   3.014
11271TIP3   OH233755   4.898   4.959   5.761
11271TIP3    H133756   4.889   4.872   5.800
11271TIP3    H233757   4.826   5.009   5.798
11272TIP3   OH233758   7.590   4.256   6.760
11272TIP3    H133759   7.539   4.332   6.731
11272TIP3    H233760   7.565   4.186   6.701
11273TIP3   OH233761   3.045   7.199   6.074
11273TIP3    H133762   3.082   7.130   6.019
11273TIP3    H233763   2.956   7.212   6.040
11274TIP3   OH233764   4.460   0.532   0.685
11274TIP3    H133765   4.452   0.438   0.701
11274TIP3    H233766   4.553   0.546   0.667
11275TIP3   OH233767   2.881   4.565   5.708
11275TIP3    H133768   2.835   4.520   5.636
11275TIP3    H233769   2.928   4.637   5.665
11276TIP3   OH233770   6.305   6.481   5.813
11276TIP3    H133771   6.358   6.467   5.735
11276TIP3    H233772   6.335   6.565   5.848
11277TIP3   OH233773   7.496   0.607   0.551
11277TIP3    H133774   7.567   0.672   0.552
11277TIP3    H233775   7.434   0.639   0.617
11278TIP3   OH233776   6.057   1.840   4.453
11278TIP3    H133777   5.987   1.866   4.514
11278TIP3    H233778   6.015   1.843   4.366
11279TIP3   OH233779   1.144   5.006   4.734
11279TIP3    H133780   1.184   5.063   4.668
11279TIP3    H233781   1.174   4.918   4.710
11280TIP3   OH233782   5.553   1.081   3.124
11280TIP3    H133783   5.602   0.999   3.115
11280TIP3    H233784   5.518   1.098   3.037
11281TIP3   OH233785   1.141   0.583   5.044
11281TIP3    H133786   1.188   0.522   5.102
11281TIP3    H233787   1.049   0.563   5.059
11282TIP3   OH233788   0.120   1.006   0.599
11282TIP3    H133789   0.176   0.971   0.668
11282TIP3    H233790   0.181   1.033   0.530
11283TIP3   OH233791   7.220   6.654   5.217
11283TIP3    H133792   7.255   6.722   5.159
11283TIP3    H233793   7.284   6.583   5.211
11284TIP3   OH233794   7.343   1.103   2.216
11284TIP3    H133795   7.297   1.084   2.134
11284TIP3    H233796   7.312   1.036   2.277
11285TIP3   OH233797   4.381   2.426   2.239
11285TIP3    H133798   4.340   2.390   2.160
11285TIP3    H233799   4.334   2.384   2.311
11286TIP3   OH233800   3.235   7.595   5.281
11286TIP3    H133801   3.141   7.608   5.268
11286TIP3    H233802   3.255   7.517   5.229
11287TIP3   OH233803   2.383   1.152   4.124
11287TIP3    H133804   2.308   1.210   4.132
11287TIP3    H233805   2.400   1.149   4.030
11288TIP3   OH233806   3.258   3.334   0.215
11288TIP3    H133807   3.264   3.269   0.144
11288TIP3    H233808   3.165   3.355   0.220
11289TIP3   OH233809   6.873   7.615   3.619
11289TIP3    H133810   6.789   7.616   3.665
11289TIP3    H233811   6.879   7.527   3.582
11290TIP3   OH233812   0.103   6.541   5.362
11290TIP3    H133813   0.103   6.446   5.379
11290TIP3    H233814   0.014   6.559   5.331
11291TIP3   OH233815   2.040   3.927   2.708
11291TIP3    H133816   2.116   3.899   2.759
11291TIP3    H233817   2.069   4.006   2.664
11292TIP3   OH233818   5.862   0.924   0.948
11292TIP3    H133819   5.821   0.869   0.881
11292TIP3    H233820   5.956   0.912   0.935
11293TIP3   OH233821   6.271   1.713   0.844
11293TIP3    H133822   6.308   1.698   0.931
11293TIP3    H233823   6.310   1.644   0.790
11294TIP3   OH233824   4.986   0.131   4.711
11294TIP3    H133825   4.926   0.058   4.727
11294TIP3    H233826   5.073   0.094   4.724
11295TIP3   OH233827   5.158   5.261   2.111
11295TIP3    H133828   5.101   5.281   2.036
11295TIP3    H233829   5.176   5.347   2.150
11296TIP3   OH233830   2.836   5.536   3.135
11296TIP3    H133831   2.882   5.610   3.097
11296TIP3    H233832   2.760   5.574   3.179
11297TIP3   OH233833   5.976   5.455   5.812
11297TIP3    H133834   5.976   5.429   5.904
11297TIP3    H233835   6.053   5.512   5.802
11298TIP3   OH233836   1.376   3.270   1.997
11298TIP3    H133837   1.396   3.203   2.062
11298TIP3    H233838   1.434   3.343   2.018
11299TIP3   OH233839   7.692   1.663   2.922
11299TIP3    H133840   7.752   1.588   2.929
11299TIP3    H233841   7.657   1.657   2.834
11300TIP3   OH233842   0.858   0.666   1.959
11300TIP3    H133843   0.811   0.739   1.919
11300TIP3    H233844   0.790   0.602   1.980
11301TIP3   OH233845   1.373   0.493   6.042
11301TIP3    H133846   1.342   0.537   6.121
11301TIP3    H233847   1.443   0.435   6.072
11302TIP3   OH233848   2.835   6.973   4.521
11302TIP3    H133849   2.885   7.014   4.592
11302TIP3    H233850   2.900   6.954   4.454
11303TIP3   OH233851   3.284   3.635   3.749
11303TIP3    H133852   3.297   3.668   3.661
11303TIP3    H233853   3.196   3.666   3.774
11304TIP3   OH233854   4.781   4.498   0.084
11304TIP3    H133855   4.769   4.404   0.095
11304TIP3    H233856   4.873   4.513   0.104
11305TIP3   OH233857   5.154   4.996   6.508
11305TIP3    H133858   5.190   5.075   6.467
11305TIP3    H233859   5.102   5.029   6.581
11306TIP3   OH233860   4.400   4.534   1.901
11306TIP3    H133861   4.369   4.570   1.818
11306TIP3    H233862   4.331   4.557   1.964
11307TIP3   OH233863   6.792   6.887   1.703
11307TIP3    H133864   6.735   6.837   1.644
11307TIP3    H233865   6.754   6.875   1.790
11308TIP3   OH233866   3.022   6.548   1.404
11308TIP3    H133867   3.091   6.481   1.411
11308TIP3    H233868   3.018   6.587   1.491
11309TIP3   OH233869   1.190   2.201   1.015
11309TIP3    H133870   1.194   2.153   0.932
11309TIP3    H233871   1.139   2.280   0.995
11310TIP3   OH233872   5.825   1.898   4.592
11310TIP3    H133873   5.730   1.897   4.581
11310TIP3    H233874   5.839   1.856   4.677
11311TIP3   OH233875   6.111   3.900   0.306
11311TIP3    H133876   6.129   3.938   0.220
11311TIP3    H233877   6.190   3.918   0.358
11312TIP3   OH233878   0.241   2.635   4.099
11312TIP3    H133879   0.169   2.678   4.053
11312TIP3    H233880   0.295   2.598   4.029
11313TIP3   OH233881   4.854   3.615   3.318
11313TIP3    H133882   4.775   3.664   3.295
11313TIP3    H233883   4.846   3.599   3.412
11314TIP3   OH233884   3.613   5.350   6.163
11314TIP3    H133885   3.670   5.295   6.109
11314TIP3    H233886   3.547   5.290   6.197
11315TIP3   OH233887   7.210   1.860   3.963
11315TIP3    H133888   7.214   1.782   4.018
11315TIP3    H233889   7.118   1.885   3.963
11316TIP3   OH233890   4.759   4.251   2.094
11316TIP3    H133891   4.818   4.176   2.084
11316TIP3    H233892   4.800   4.320   2.042
11317TIP3   OH233893   5.344   5.800   5.985
11317TIP3    H133894   5.308   5.747   5.915
11317TIP3    H233895   5.298   5.884   5.978
11318TIP3   OH233896   7.006   6.857   2.907
11318TIP3    H133897   6.986   6.898   2.991
11318TIP3    H233898   6.921   6.848   2.864
11319TIP3   OH233899   7.919   5.100   2.020
11319TIP3    H133900   7.948   5.167   2.082
11319TIP3    H233901   7.935   5.017   2.064
11320TIP3   OH233902   7.378   1.823   1.375
11320TIP3    H133903   7.425   1.886   1.320
11320TIP3    H233904   7.287   1.829   1.346
11321TIP3   OH233905   6.939   3.411   4.601
11321TIP3    H133906   6.870   3.429   4.537
11321TIP3    H233907   6.952   3.316   4.597
11322TIP3   OH233908   4.607   0.117   5.145
11322TIP3    H133909   4.676   0.055   5.123
11322TIP3    H233910   4.540   0.104   5.078
11323TIP3   OH233911   1.759   2.523   5.085
11323TIP3    H133912   1.718   2.577   5.153
11323TIP3    H233913   1.708   2.540   5.006
11324TIP3   OH233914   8.239   4.287   5.059
11324TIP3    H133915   8.237   4.235   4.978
11324TIP3    H233916   8.209   4.226   5.127
11325TIP3   OH233917   5.793   4.646   5.574
11325TIP3    H133918   5.823   4.666   5.486
11325TIP3    H233919   5.725   4.580   5.561
11326TIP3   OH233920   7.199   2.840   4.508
11326TIP3    H133921   7.293   2.850   4.492
11326TIP3    H233922   7.175   2.762   4.457
11327TIP3   OH233923   3.976   1.417   4.027
11327TIP3    H133924   4.040   1.348   4.042
11327TIP3    H233925   3.986   1.438   3.934
11328TIP3   OH233926   8.268   1.554   3.205
11328TIP3    H133927   8.258   1.511   3.120
11328TIP3    H233928   8.261   1.647   3.186
11329TIP3   OH233929   0.150   5.581   0.762
11329TIP3    H133930   0.061   5.591   0.796
11329TIP3    H233931   0.156   5.488   0.740
11330TIP3   OH233932   4.099   1.728   5.146
11330TIP3    H133933   4.160   1.724   5.073
11330TIP3    H233934   4.051   1.809   5.134
11331TIP3   OH233935   4.377   2.182   1.250
11331TIP3    H133936   4.404   2.090   1.259
11331TIP3    H233937   4.289   2.177   1.212
11332TIP3   OH233938   7.947   4.816   4.771
11332TIP3    H133939   8.028   4.865   4.782
11332TIP3    H233940   7.954   4.743   4.833
11333TIP3   OH233941   4.112   1.732   4.171
11333TIP3    H133942   4.084   1.819   4.143
11333TIP3    H233943   4.121   1.683   4.090
11334TIP3   OH233944   5.331   2.444   4.451
11334TIP3    H133945   5.286   2.444   4.366
11334TIP3    H233946   5.379   2.526   4.453
11335TIP3   OH233947   3.606   7.762   1.094
11335TIP3    H133948   3.523   7.805   1.117
11335TIP3    H233949   3.588   7.717   1.012
11336TIP3   OH233950   0.120   5.552   1.933
11336TIP3    H133951   0.106   5.545   1.838
11336TIP3    H233952   0.200   5.502   1.948
11337TIP3   OH233953   4.318   7.006   1.413
11337TIP3    H133954   4.393   7.065   1.411
11337TIP3    H233955   4.244   7.061   1.388
11338TIP3   OH233956   8.229   0.675   4.745
11338TIP3    H133957   8.291   0.616   4.704
11338TIP3    H233958   8.222   0.644   4.835
11339TIP3   OH233959   4.107  -0.047   5.785
11339TIP3    H133960   4.187   0.003   5.803
11339TIP3    H233961   4.065  -0.001   5.713
11340TIP3   OH233962   6.530   0.342   5.064
11340TIP3    H133963   6.468   0.410   5.090
11340TIP3    H233964   6.499   0.262   5.107
11341TIP3   OH233965   5.250   6.706   2.430
11341TIP3    H133966   5.307   6.751   2.493
11341TIP3    H233967   5.258   6.758   2.350
11342TIP3   OH233968   3.251   1.072   0.435
11342TIP3    H133969   3.244   0.981   0.406
11342TIP3    H233970   3.180   1.117   0.390
11343TIP3   OH233971   4.676   3.942   4.805
11343TIP3    H133972   4.722   4.021   4.776
11343TIP3    H233973   4.598   3.939   4.750
11344TIP3   OH233974   1.157   0.624   2.975
11344TIP3    H133975   1.074   0.653   3.014
11344TIP3    H233976   1.152   0.653   2.884
11345TIP3   OH233977   6.617   5.624   1.488
11345TIP3    H133978   6.656   5.655   1.406
11345TIP3    H233979   6.607   5.530   1.475
11346TIP3   OH233980   5.262   3.301   5.680
11346TIP3    H133981   5.225   3.371   5.626
11346TIP3    H233982   5.349   3.333   5.705
11347TIP3   OH233983   4.535   2.326   1.439
11347TIP3    H133984   4.465   2.286   1.387
11347TIP3    H233985   4.559   2.258   1.502
11348TIP3   OH233986   1.121   5.074   1.729
11348TIP3    H133987   1.090   5.130   1.658
11348TIP3    H233988   1.103   4.985   1.700
11349TIP3   OH233989   3.654   6.559   1.315
11349TIP3    H133990   3.716   6.544   1.243
11349TIP3    H233991   3.688   6.635   1.361
11350TIP3   OH233992   8.132   4.421   6.117
11350TIP3    H133993   8.078   4.372   6.054
11350TIP3    H233994   8.198   4.464   6.064
11351TIP3   OH233995   1.545   6.552   5.981
11351TIP3    H133996   1.620   6.496   5.961
11351TIP3    H233997   1.557   6.629   5.925
11352TIP3   OH233998   5.490   3.452   5.699
11352TIP3    H133999   5.485   3.544   5.727
11352TIP3    H234000   5.583   3.431   5.706
11353TIP3   OH234001   1.191   1.244   5.376
11353TIP3    H134002   1.104   1.259   5.341
11353TIP3    H234003   1.249   1.292   5.317
11354TIP3   OH234004   2.294   1.479   0.259
11354TIP3    H134005   2.304   1.386   0.280
11354TIP3    H234006   2.201   1.488   0.236
11355TIP3   OH234007   2.055   3.279   2.961
11355TIP3    H134008   1.984   3.340   2.939
11355TIP3    H234009   2.135   3.333   2.956
11356TIP3   OH234010   8.076   2.861   1.673
11356TIP3    H134011   8.037   2.798   1.612
11356TIP3    H234012   8.001   2.908   1.709
11357TIP3   OH234013   7.498   2.854   4.114
11357TIP3    H134014   7.492   2.885   4.023
11357TIP3    H234015   7.488   2.933   4.167
11358TIP3   OH234016   6.248   0.962   6.618
11358TIP3    H134017   6.167   0.915   6.594
11358TIP3    H234018   6.318   0.904   6.591
11359TIP3   OH234019   3.218   1.716   1.883
11359TIP3    H134020   3.241   1.634   1.839
11359TIP3    H234021   3.289   1.777   1.860
11360TIP3   OH234022   5.060   5.900   4.429
11360TIP3    H134023   5.114   5.834   4.386
11360TIP3    H234024   5.106   5.918   4.512
11361TIP3   OH234025   2.340   6.094   2.808
11361TIP3    H134026   2.401   6.112   2.736
11361TIP3    H234027   2.348   6.170   2.865
11362TIP3   OH234028   2.860   2.291   4.488
11362TIP3    H134029   2.821   2.238   4.419
11362TIP3    H234030   2.813   2.265   4.567
11363TIP3   OH234031   7.227   2.428   3.099
11363TIP3    H134032   7.207   2.457   3.010
11363TIP3    H234033   7.156   2.368   3.122
11364TIP3   OH234034   6.546   4.727   3.216
11364TIP3    H134035   6.598   4.765   3.145
11364TIP3    H234036   6.493   4.799   3.248
11365TIP3   OH234037   3.279   6.333   1.388
11365TIP3    H134038   3.340   6.361   1.456
11365TIP3    H234039   3.230   6.261   1.427
11366TIP3   OH234040   4.441   5.254   0.648
11366TIP3    H134041   4.374   5.199   0.689
11366TIP3    H234042   4.521   5.233   0.696
11367TIP3   OH234043   3.166   3.361   1.976
11367TIP3    H134044   3.114   3.291   1.937
11367TIP3    H234045   3.245   3.317   2.007
11368TIP3   OH234046   8.133   2.429   2.410
11368TIP3    H134047   8.065   2.365   2.391
11368TIP3    H234048   8.086   2.509   2.433
11369TIP3   OH234049   1.170   3.810   4.267
11369TIP3    H134050   1.238   3.746   4.247
11369TIP3    H234051   1.211   3.895   4.253
11370TIP3   OH234052   7.512   3.238   2.539
11370TIP3    H134053   7.486   3.279   2.621
11370TIP3    H234054   7.452   3.165   2.527
11371TIP3   OH234055   1.349   2.410   2.883
11371TIP3    H134056   1.425   2.372   2.839
11371TIP3    H234057   1.353   2.503   2.863
11372TIP3   OH234058   7.482   1.130   1.905
11372TIP3    H134059   7.562   1.138   1.853
11372TIP3    H234060   7.443   1.047   1.877
11373TIP3   OH234061   1.087   2.653   2.232
11373TIP3    H134062   1.027   2.604   2.176
11373TIP3    H234063   1.055   2.743   2.228
11374TIP3   OH234064   3.178   5.872   3.350
11374TIP3    H134065   3.150   5.782   3.335
11374TIP3    H234066   3.273   5.866   3.360
11375TIP3   OH234067   6.282   2.485   5.735
11375TIP3    H134068   6.375   2.490   5.713
11375TIP3    H234069   6.246   2.569   5.706
11376TIP3   OH234070   7.804   3.747   5.977
11376TIP3    H134071   7.792   3.841   5.969
11376TIP3    H234072   7.717   3.712   5.993
11377TIP3   OH234073   5.247   0.726   2.867
11377TIP3    H134074   5.204   0.802   2.907
11377TIP3    H234075   5.226   0.653   2.925
11378TIP3   OH234076   5.672   2.294   3.492
11378TIP3    H134077   5.739   2.327   3.433
11378TIP3    H234078   5.594   2.284   3.437
11379TIP3   OH234079   7.403   7.044   0.696
11379TIP3    H134080   7.458   7.044   0.775
11379TIP3    H234081   7.313   7.050   0.729
11380TIP3   OH234082   8.061   0.031   0.602
11380TIP3    H134083   8.073  -0.060   0.575
11380TIP3    H234084   8.149   0.065   0.615
11381TIP3   OH234085   3.136   3.399   3.418
11381TIP3    H134086   3.074   3.404   3.490
11381TIP3    H234087   3.128   3.310   3.385
11382TIP3   OH234088   7.683   5.573   3.797
11382TIP3    H134089   7.593   5.564   3.828
11382TIP3    H234090   7.718   5.647   3.846
11383TIP3   OH234091   0.551   4.963   6.414
11383TIP3    H134092   0.514   4.875   6.421
11383TIP3    H234093   0.478   5.017   6.383
11384TIP3   OH234094   8.071   4.188   4.044
11384TIP3    H134095   8.031   4.116   4.093
11384TIP3    H234096   8.141   4.220   4.101
11385TIP3   OH234097   7.110   3.997   0.219
11385TIP3    H134098   7.043   4.008   0.152
11385TIP3    H234099   7.084   4.057   0.289
11386TIP3   OH234100   5.501   3.770   6.066
11386TIP3    H134101   5.549   3.819   6.000
11386TIP3    H234102   5.410   3.770   6.034
11387TIP3   OH234103   2.053   2.852   3.252
11387TIP3    H134104   2.082   2.925   3.307
11387TIP3    H234105   2.050   2.889   3.164
11388TIP3   OH234106   1.911   7.656   4.253
11388TIP3    H134107   1.931   7.569   4.218
11388TIP3    H234108   1.939   7.652   4.345
11389TIP3   OH234109   2.385   0.318   2.997
11389TIP3    H134110   2.388   0.412   3.012
11389TIP3    H234111   2.449   0.282   3.059
11390TIP3   OH234112   0.622   7.321   5.423
11390TIP3    H134113   0.549   7.271   5.460
11390TIP3    H234114   0.664   7.260   5.362
11391TIP3   OH234115   3.871   2.694   3.495
11391TIP3    H134116   3.832   2.623   3.546
11391TIP3    H234117   3.887   2.656   3.409
11392TIP3   OH234118   6.773   5.912   3.489
11392TIP3    H134119   6.786   5.894   3.583
11392TIP3    H234120   6.859   5.940   3.458
11393TIP3   OH234121   6.729   4.924   6.316
11393TIP3    H134122   6.797   4.986   6.292
11393TIP3    H234123   6.648   4.975   6.316
11394TIP3   OH234124   4.935   5.278   2.939
11394TIP3    H134125   4.908   5.242   2.854
11394TIP3    H234126   4.943   5.201   2.995
11395TIP3   OH234127   3.553   0.469   3.219
11395TIP3    H134128   3.633   0.419   3.233
11395TIP3    H234129   3.568   0.515   3.136
11396TIP3   OH234130   6.270   0.557   0.029
11396TIP3    H134131   6.361   0.529   0.015
11396TIP3    H234132   6.251   0.615  -0.045
11397TIP3   OH234133   5.984   3.510   0.426
11397TIP3    H134134   6.036   3.543   0.499
11397TIP3    H234135   6.025   3.549   0.348
11398TIP3   OH234136   6.412   3.262   3.987
11398TIP3    H134137   6.360   3.192   3.948
11398TIP3    H234138   6.478   3.217   4.039
11399TIP3   OH234139   3.164   4.631   3.350
11399TIP3    H134140   3.218   4.680   3.412
11399TIP3    H234141   3.078   4.674   3.353
11400TIP3   OH234142   5.232   5.048   1.680
11400TIP3    H134143   5.206   4.961   1.712
11400TIP3    H234144   5.150   5.096   1.672
11401TIP3   OH234145   5.075   6.359   0.555
11401TIP3    H134146   5.111   6.301   0.488
11401TIP3    H234147   5.147   6.417   0.578
11402TIP3   OH234148   6.958   4.295   2.058
11402TIP3    H134149   7.023   4.365   2.070
11402TIP3    H234150   6.970   4.266   1.968
11403TIP3   OH234151   4.262   5.151   5.477
11403TIP3    H134152   4.247   5.236   5.435
11403TIP3    H234153   4.198   5.148   5.548
11404TIP3   OH234154   2.423   6.588   4.601
11404TIP3    H134155   2.483   6.598   4.674
11404TIP3    H234156   2.465   6.635   4.529
11405TIP3   OH234157   4.804   0.974   4.029
11405TIP3    H134158   4.896   0.993   4.048
11405TIP3    H234159   4.807   0.915   3.954
11406TIP3   OH234160   6.952   5.234   0.941
11406TIP3    H134161   6.907   5.281   1.011
11406TIP3    H234162   6.935   5.285   0.862
11407TIP3   OH234163   7.860   0.755   0.143
11407TIP3    H134164   7.849   0.790   0.232
11407TIP3    H234165   7.937   0.800   0.109
11408TIP3   OH234166   8.089   2.422   5.238
11408TIP3    H134167   8.161   2.393   5.293
11408TIP3    H234168   8.123   2.499   5.192
11409TIP3   OH234169   2.445   2.558   2.239
11409TIP3    H134170   2.460   2.550   2.333
11409TIP3    H234171   2.373   2.620   2.232
11410TIP3   OH234172   3.075   7.203   3.908
11410TIP3    H134173   3.114   7.289   3.918
11410TIP3    H234174   3.073   7.167   3.996
11411TIP3   OH234175   7.937   6.822   5.556
11411TIP3    H134176   7.909   6.808   5.647
11411TIP3    H234177   7.996   6.897   5.561
11412TIP3   OH234178   1.988   2.792   1.547
11412TIP3    H134179   2.077   2.818   1.572
11412TIP3    H234180   2.000   2.714   1.493
11413TIP3   OH234181   5.101   0.538   3.260
11413TIP3    H134182   5.035   0.470   3.273
11413TIP3    H234183   5.051   0.617   3.244
11414TIP3   OH234184   2.594   4.270   4.289
11414TIP3    H134185   2.679   4.240   4.257
11414TIP3    H234186   2.568   4.205   4.354
11415TIP3   OH234187   7.677   6.868   2.971
11415TIP3    H134188   7.648   6.953   3.002
11415TIP3    H234189   7.629   6.855   2.889
11416TIP3   OH234190   3.222   4.455   1.210
11416TIP3    H134191   3.300   4.509   1.200
11416TIP3    H234192   3.245   4.391   1.277
11417TIP3   OH234193   2.546   5.518   5.779
11417TIP3    H134194   2.523   5.606   5.751
11417TIP3    H234195   2.625   5.529   5.832
11418TIP3   OH234196   8.251   1.795   4.174
11418TIP3    H134197   8.183   1.740   4.213
11418TIP3    H234198   8.225   1.884   4.198
11419TIP3   OH234199   5.801   7.839   1.047
11419TIP3    H134200   5.716   7.828   1.004
11419TIP3    H234201   5.823   7.751   1.080
11420TIP3   OH234202   1.877   0.055   0.966
11420TIP3    H134203   1.832  -0.021   1.001
11420TIP3    H234204   1.956   0.020   0.925
11421TIP3   OH234205   5.163   0.085   6.207
11421TIP3    H134206   5.104   0.158   6.227
11421TIP3    H234207   5.157   0.076   6.112
11422TIP3   OH234208   1.450   2.676   3.731
11422TIP3    H134209   1.392   2.654   3.804
11422TIP3    H234210   1.438   2.605   3.668
11423TIP3   OH234211   0.771   0.950   6.134
11423TIP3    H134212   0.729   1.002   6.066
11423TIP3    H234213   0.840   1.006   6.170
11424TIP3   OH234214   4.931   5.617   0.194
11424TIP3    H134215   4.987   5.688   0.163
11424TIP3    H234216   4.991   5.547   0.216
11425TIP3   OH234217   2.091   1.982   0.256
11425TIP3    H134218   2.071   2.034   0.179
11425TIP3    H234219   2.094   2.046   0.328
11426TIP3   OH234220   7.711   1.139   2.972
11426TIP3    H134221   7.766   1.163   3.046
11426TIP3    H234222   7.749   1.185   2.897
11427TIP3   OH234223   7.905   2.274   0.856
11427TIP3    H134224   7.975   2.304   0.798
11427TIP3    H234225   7.852   2.216   0.802
11428TIP3   OH234226   7.785   1.273   1.108
11428TIP3    H134227   7.735   1.191   1.102
11428TIP3    H234228   7.861   1.259   1.052
11429TIP3   OH234229   6.978   5.511   6.372
11429TIP3    H134230   6.899   5.518   6.425
11429TIP3    H234231   7.048   5.542   6.430
11430TIP3   OH234232   0.609   0.124   1.314
11430TIP3    H134233   0.650   0.037   1.314
11430TIP3    H234234   0.641   0.165   1.234
11431TIP3   OH234235   1.499   7.649   0.454
11431TIP3    H134236   1.432   7.710   0.425
11431TIP3    H234237   1.564   7.649   0.383
11432TIP3   OH234238   6.392   2.460   4.150
11432TIP3    H134239   6.483   2.482   4.131
11432TIP3    H234240   6.342   2.500   4.079
11433TIP3   OH234241   2.659   5.073   2.223
11433TIP3    H134242   2.699   5.158   2.237
11433TIP3    H234243   2.567   5.092   2.205
11434TIP3   OH234244   8.349   7.209   6.474
11434TIP3    H134245   8.393   7.125   6.465
11434TIP3    H234246   8.346   7.225   6.569
11435TIP3   OH234247   5.476   5.718   5.501
11435TIP3    H134248   5.396   5.665   5.493
11435TIP3    H234249   5.495   5.746   5.412
11436TIP3   OH234250   6.737   3.437   3.094
11436TIP3    H134251   6.781   3.362   3.134
11436TIP3    H234252   6.652   3.442   3.138
11437TIP3   OH234253   0.165   4.853   1.591
11437TIP3    H134254   0.141   4.919   1.526
11437TIP3    H234255   0.194   4.778   1.540
11438TIP3   OH234256   5.397   2.222   4.131
11438TIP3    H134257   5.349   2.201   4.211
11438TIP3    H234258   5.330   2.229   4.063
11439TIP3   OH234259   0.019   0.390   0.607
11439TIP3    H134260   0.059   0.308   0.635
11439TIP3    H234261  -0.060   0.399   0.661
11440TIP3   OH234262  -0.015   6.827   3.517
11440TIP3    H134263   0.075   6.844   3.488
11440TIP3    H234264  -0.017   6.860   3.607
11441TIP3   OH234265   1.472   7.792   2.770
11441TIP3    H134266   1.402   7.819   2.709
11441TIP3    H234267   1.552   7.827   2.731
11442TIP3   OH234268   0.738   3.227   5.991
11442TIP3    H134269   0.810   3.290   5.996
11442TIP3    H234270   0.736   3.187   6.078
11443TIP3   OH234271   5.188   5.553   1.339
11443TIP3    H134272   5.149   5.482   1.389
11443TIP3    H234273   5.181   5.525   1.248
11444TIP3   OH234274  -0.104   6.226   6.587
11444TIP3    H134275  -0.197   6.241   6.600
11444TIP3    H234276  -0.064   6.247   6.671
11445TIP3   OH234277   8.302   1.597   4.931
11445TIP3    H134278   8.207   1.603   4.936
11445TIP3    H234279   8.327   1.664   4.867
11446TIP3   OH234280   3.528   4.837   6.153
11446TIP3    H134281   3.490   4.784   6.223
11446TIP3    H234282   3.459   4.843   6.087
11447TIP3   OH234283   4.192   3.309   2.993
11447TIP3    H134284   4.255   3.377   3.017
11447TIP3    H234285   4.111   3.334   3.039
11448TIP3   OH234286   0.553   2.281   2.419
11448TIP3    H134287   0.617   2.301   2.487
11448TIP3    H234288   0.523   2.366   2.388
11449TIP3   OH234289   1.895   7.449   3.811
11449TIP3    H134290   1.893   7.361   3.774
11449TIP3    H234291   1.805   7.481   3.806
11450TIP3   OH234292   4.957   6.621   3.176
11450TIP3    H134293   4.868   6.626   3.211
11450TIP3    H234294   4.971   6.705   3.133
11451TIP3   OH234295   6.761   6.161   6.143
11451TIP3    H134296   6.828   6.118   6.195
11451TIP3    H234297   6.705   6.206   6.206
11452TIP3   OH234298   6.563   1.183   5.196
11452TIP3    H134299   6.615   1.104   5.209
11452TIP3    H234300   6.475   1.151   5.178
11453TIP3   OH234301   3.389   5.556   5.800
11453TIP3    H134302   3.394   5.545   5.895
11453TIP3    H234303   3.480   5.567   5.772
11454TIP3   OH234304   5.660   7.797   3.281
11454TIP3    H134305   5.671   7.725   3.219
11454TIP3    H234306   5.587   7.770   3.337
11455TIP3   OH234307   1.056   3.345   6.598
11455TIP3    H134308   1.112   3.276   6.634
11455TIP3    H234309   1.059   3.332   6.503
11456TIP3   OH234310   4.897   7.529   5.127
11456TIP3    H134311   4.908   7.623   5.119
11456TIP3    H234312   4.835   7.505   5.058
11457TIP3   OH234313   1.068   3.621   4.757
11457TIP3    H134314   1.160   3.596   4.745
11457TIP3    H234315   1.046   3.670   4.678
11458TIP3   OH234316   3.465   6.217   4.052
11458TIP3    H134317   3.371   6.219   4.070
11458TIP3    H234318   3.486   6.124   4.043
11459TIP3   OH234319   4.430   1.560   4.185
11459TIP3    H134320   4.502   1.618   4.157
11459TIP3    H234321   4.382   1.541   4.105
11460TIP3   OH234322   2.581   7.842   3.038
11460TIP3    H134323   2.631   7.921   3.060
11460TIP3    H234324   2.646   7.772   3.037
11461TIP3   OH234325   1.644   1.740   0.105
11461TIP3    H134326   1.573   1.805   0.112
11461TIP3    H234327   1.717   1.779   0.153
11462TIP3   OH234328   1.039   1.687   3.515
11462TIP3    H134329   0.958   1.639   3.529
11462TIP3    H234330   1.029   1.767   3.566
11463TIP3   OH234331   5.379   2.474   0.923
11463TIP3    H134332   5.415   2.520   0.999
11463TIP3    H234333   5.310   2.531   0.890
11464TIP3   OH234334   4.218   3.583   0.861
11464TIP3    H134335   4.267   3.537   0.792
11464TIP3    H234336   4.173   3.654   0.816
11465TIP3   OH234337   1.845   3.693   2.218
11465TIP3    H134338   1.854   3.663   2.309
11465TIP3    H234339   1.768   3.749   2.218
11466TIP3   OH234340   6.581   1.611   2.477
11466TIP3    H134341   6.521   1.560   2.531
11466TIP3    H234342   6.660   1.619   2.530
11467TIP3   OH234343   0.302   5.954   3.538
11467TIP3    H134344   0.319   5.963   3.632
11467TIP3    H234345   0.266   6.038   3.512
11468TIP3   OH234346   6.135   0.807   2.839
11468TIP3    H134347   6.161   0.749   2.767
11468TIP3    H234348   6.179   0.770   2.915
11469TIP3   OH234349   0.620   0.503   6.400
11469TIP3    H134350   0.616   0.486   6.305
11469TIP3    H234351   0.653   0.592   6.407
11470TIP3   OH234352   2.907   1.049   0.087
11470TIP3    H134353   2.959   0.978   0.051
11470TIP3    H234354   2.823   1.043   0.041
11471TIP3   OH234355   2.882   6.401   4.641
11471TIP3    H134356   2.824   6.469   4.676
11471TIP3    H234357   2.892   6.339   4.713
11472TIP3   OH234358   4.896   6.563   5.880
11472TIP3    H134359   4.930   6.591   5.795
11472TIP3    H234360   4.898   6.643   5.934
11473TIP3   OH234361   2.766   3.153   0.421
11473TIP3    H134362   2.813   3.178   0.501
11473TIP3    H234363   2.682   3.197   0.428
11474TIP3   OH234364   4.219   5.291   0.950
11474TIP3    H134365   4.215   5.372   0.899
11474TIP3    H234366   4.208   5.221   0.885
11475TIP3   OH234367   7.972   7.322   2.028
11475TIP3    H134368   7.930   7.237   2.041
11475TIP3    H234369   7.939   7.352   1.943
11476TIP3   OH234370   1.751   2.377   4.252
11476TIP3    H134371   1.730   2.302   4.308
11476TIP3    H234372   1.679   2.438   4.266
11477TIP3   OH234373   5.503   0.762   1.856
11477TIP3    H134374   5.481   0.854   1.841
11477TIP3    H234375   5.443   0.713   1.800
11478TIP3   OH234376   7.202   4.003   2.202
11478TIP3    H134377   7.221   3.921   2.247
11478TIP3    H234378   7.285   4.050   2.202
11479TIP3   OH234379   6.399   5.400   1.705
11479TIP3    H134380   6.399   5.337   1.777
11479TIP3    H234381   6.306   5.415   1.687
11480TIP3   OH234382   2.085   5.537   3.452
11480TIP3    H134383   2.022   5.466   3.467
11480TIP3    H234384   2.075   5.595   3.527
11481TIP3   OH234385   0.473   6.050   4.328
11481TIP3    H134386   0.469   5.979   4.264
11481TIP3    H234387   0.390   6.041   4.377
11482TIP3   OH234388   4.729   4.566   5.154
11482TIP3    H134389   4.799   4.617   5.194
11482TIP3    H234390   4.656   4.627   5.146
11483TIP3   OH234391   2.406   0.863   4.503
11483TIP3    H134392   2.324   0.909   4.519
11483TIP3    H234393   2.451   0.916   4.437
11484TIP3   OH234394   2.460   0.719   2.395
11484TIP3    H134395   2.509   0.785   2.444
11484TIP3    H234396   2.493   0.635   2.428
11485TIP3   OH234397   6.650   2.536   4.058
11485TIP3    H134398   6.670   2.445   4.037
11485TIP3    H234399   6.669   2.585   3.978
11486TIP3   OH234400   1.538   1.302   0.480
11486TIP3    H134401   1.457   1.286   0.530
11486TIP3    H234402   1.513   1.367   0.414
11487TIP3   OH234403   5.807   3.893   4.666
11487TIP3    H134404   5.891   3.937   4.656
11487TIP3    H234405   5.748   3.939   4.606
11488TIP3   OH234406   7.823   4.855   3.443
11488TIP3    H134407   7.819   4.872   3.349
11488TIP3    H234408   7.910   4.817   3.457
11489TIP3   OH234409   7.585   7.016   4.052
11489TIP3    H134410   7.668   6.969   4.042
11489TIP3    H234411   7.518   6.952   4.029
11490TIP3   OH234412   4.317   6.694   2.350
11490TIP3    H134413   4.247   6.633   2.374
11490TIP3    H234414   4.378   6.691   2.423
11491TIP3   OH234415   7.175   1.008   6.166
11491TIP3    H134416   7.102   1.057   6.202
11491TIP3    H234417   7.252   1.061   6.186
11492TIP3   OH234418   3.821   5.482   2.581
11492TIP3    H134419   3.877   5.419   2.626
11492TIP3    H234420   3.748   5.431   2.549
11493TIP3   OH234421   3.081   1.764   4.596
11493TIP3    H134422   3.110   1.823   4.666
11493TIP3    H234423   3.156   1.758   4.537
11494TIP3   OH234424   7.528   2.708   6.090
11494TIP3    H134425   7.456   2.714   6.152
11494TIP3    H234426   7.507   2.770   6.021
11495TIP3   OH234427   2.618   6.181   3.520
11495TIP3    H134428   2.693   6.226   3.557
11495TIP3    H234429   2.543   6.215   3.569
11496TIP3   OH234430   0.975   2.468   3.186
11496TIP3    H134431   0.905   2.534   3.190
11496TIP3    H234432   0.936   2.396   3.137
11497TIP3   OH234433   5.832   4.571   6.409
11497TIP3    H134434   5.906   4.565   6.469
11497TIP3    H234435   5.864   4.625   6.336
11498TIP3   OH234436   4.584   3.861   5.979
11498TIP3    H134437   4.517   3.930   5.973
11498TIP3    H234438   4.537   3.782   5.952
11499TIP3   OH234439   3.367   1.301   2.724
11499TIP3    H134440   3.405   1.213   2.735
11499TIP3    H234441   3.273   1.286   2.721
11500TIP3   OH234442   7.567   3.657   5.418
11500TIP3    H134443   7.521   3.582   5.380
11500TIP3    H234444   7.655   3.624   5.437
11501TIP3   OH234445   3.962   7.446   1.660
11501TIP3    H134446   3.979   7.353   1.643
11501TIP3    H234447   3.991   7.490   1.580
11502TIP3   OH234448   6.896   1.129   5.876
11502TIP3    H134449   6.951   1.062   5.917
11502TIP3    H234450   6.953   1.205   5.867
11503TIP3   OH234451   5.116   6.022   3.077
11503TIP3    H134452   5.134   5.981   2.992
11503TIP3    H234453   5.035   5.982   3.107
11504TIP3   OH234454   2.095   6.201   2.418
11504TIP3    H134455   2.169   6.140   2.411
11504TIP3    H234456   2.069   6.196   2.509
11505TIP3   OH234457   1.843   3.443   3.530
11505TIP3    H134458   1.888   3.507   3.474
11505TIP3    H234459   1.793   3.390   3.469
11506TIP3   OH234460   4.182   0.078   6.785
11506TIP3    H134461   4.259   0.042   6.741
11506TIP3    H234462   4.110   0.020   6.758
11507TIP3   OH234463   4.997   5.351   3.227
11507TIP3    H134464   4.904   5.354   3.252
11507TIP3    H234465   5.014   5.437   3.190
11508TIP3   OH234466   2.928   0.119   3.086
11508TIP3    H134467   2.982   0.098   3.009
11508TIP3    H234468   2.858   0.054   3.085
11509TIP3   OH234469   4.904   1.139   5.149
11509TIP3    H134470   4.816   1.168   5.174
11509TIP3    H234471   4.960   1.215   5.164
11510TIP3   OH234472   2.350   5.507   4.552
11510TIP3    H134473   2.317   5.559   4.626
11510TIP3    H234474   2.272   5.478   4.506
11511TIP3   OH234475   6.709   6.161   5.470
11511TIP3    H134476   6.647   6.139   5.540
11511TIP3    H234477   6.665   6.134   5.390
11512TIP3   OH234478   3.846   0.539   5.500
11512TIP3    H134479   3.914   0.472   5.501
11512TIP3    H234480   3.862   0.589   5.420
11513TIP3   OH234481   4.915   1.058   3.049
11513TIP3    H134482   4.991   1.031   3.100
11513TIP3    H234483   4.936   1.147   3.020
11514TIP3   OH234484   5.039   3.193   1.910
11514TIP3    H134485   5.008   3.122   1.966
11514TIP3    H234486   5.068   3.149   1.830
11515TIP3   OH234487   2.230   2.112   3.256
11515TIP3    H134488   2.150   2.132   3.304
11515TIP3    H234489   2.295   2.172   3.292
11516TIP3   OH234490   7.523   1.684   4.299
11516TIP3    H134491   7.459   1.735   4.348
11516TIP3    H234492   7.548   1.740   4.226
11517TIP3   OH234493   2.725   6.651   0.716
11517TIP3    H134494   2.688   6.583   0.773
11517TIP3    H234495   2.734   6.608   0.631
11518TIP3   OH234496   3.356   4.516   6.747
11518TIP3    H134497   3.356   4.425   6.716
11518TIP3    H234498   3.268   4.531   6.779
11519TIP3   OH234499   7.415   2.599   4.160
11519TIP3    H134500   7.427   2.691   4.138
11519TIP3    H234501   7.502   2.568   4.184
11520TIP3   OH234502   7.978   0.700   2.727
11520TIP3    H134503   7.919   0.757   2.678
11520TIP3    H234504   8.030   0.655   2.660
11521TIP3   OH234505   0.294   1.046   4.302
11521TIP3    H134506   0.290   1.026   4.208
11521TIP3    H234507   0.386   1.037   4.325
11522TIP3   OH234508   4.443   1.567   6.268
11522TIP3    H134509   4.398   1.636   6.219
11522TIP3    H234510   4.453   1.496   6.205
11523TIP3   OH234511   4.355   6.470   4.766
11523TIP3    H134512   4.386   6.393   4.718
11523TIP3    H234513   4.274   6.442   4.808
11524TIP3   OH234514   3.992   2.749   0.732
11524TIP3    H134515   3.996   2.737   0.637
11524TIP3    H234516   4.083   2.746   0.760
11525TIP3   OH234517   4.761   5.150   5.492
11525TIP3    H134518   4.708   5.143   5.572
11525TIP3    H234519   4.697   5.163   5.422
11526TIP3   OH234520   4.960   3.047   6.520
11526TIP3    H134521   4.878   3.021   6.560
11526TIP3    H234522   4.936   3.077   6.433
11527TIP3   OH234523   2.222   5.610   5.420
11527TIP3    H134524   2.260   5.556   5.490
11527TIP3    H234525   2.130   5.618   5.443
11528TIP3   OH234526   1.252   6.576   4.575
11528TIP3    H134527   1.322   6.634   4.548
11528TIP3    H234528   1.175   6.607   4.527
11529TIP3   OH234529   6.768   3.028   6.762
11529TIP3    H134530   6.714   3.007   6.838
11529TIP3    H234531   6.761   2.950   6.706
11530TIP3   OH234532   6.254   7.704   6.701
11530TIP3    H134533   6.164   7.730   6.682
11530TIP3    H234534   6.260   7.613   6.670
11531TIP3   OH234535   4.418   1.487   5.483
11531TIP3    H134536   4.350   1.422   5.501
11531TIP3    H234537   4.491   1.461   5.540
11532TIP3   OH234538   0.553   5.504   4.570
11532TIP3    H134539   0.570   5.476   4.480
11532TIP3    H234540   0.630   5.555   4.595
11533TIP3   OH234541   0.687   5.269   2.343
11533TIP3    H134542   0.721   5.356   2.363
11533TIP3    H234543   0.592   5.282   2.333
11534TIP3   OH234544   8.290   3.265   4.804
11534TIP3    H134545   8.238   3.193   4.840
11534TIP3    H234546   8.225   3.331   4.780
11535TIP3   OH234547   8.232   6.445   0.409
11535TIP3    H134548   8.214   6.467   0.500
11535TIP3    H234549   8.280   6.362   0.414
11536TIP3   OH234550   4.820   6.153   2.890
11536TIP3    H134551   4.849   6.234   2.931
11536TIP3    H234552   4.767   6.181   2.815
11537TIP3   OH234553   1.043   2.833   6.066
11537TIP3    H134554   1.087   2.906   6.110
11537TIP3    H234555   0.967   2.814   6.120
11538TIP3   OH234556   5.659   2.408   5.414
11538TIP3    H134557   5.636   2.349   5.486
11538TIP3    H234558   5.713   2.476   5.455
11539TIP3   OH234559   5.466   4.071   2.405
11539TIP3    H134560   5.499   4.111   2.324
11539TIP3    H234561   5.374   4.053   2.386
11540TIP3   OH234562   0.507   2.168   4.413
11540TIP3    H134563   0.552   2.205   4.338
11540TIP3    H234564   0.573   2.115   4.457
11541TIP3   OH234565   4.747   0.065   3.541
11541TIP3    H134566   4.751  -0.029   3.561
11541TIP3    H234567   4.793   0.074   3.458
11542TIP3   OH234568   6.522   4.967   3.562
11542TIP3    H134569   6.441   4.928   3.595
11542TIP3    H234570   6.505   4.984   3.470
11543TIP3   OH234571   2.121   2.701   5.006
11543TIP3    H134572   2.061   2.730   4.937
11543TIP3    H234573   2.170   2.629   4.966
11544TIP3   OH234574   6.677   2.005   1.593
11544TIP3    H134575   6.628   2.044   1.665
11544TIP3    H234576   6.674   1.911   1.609
11545TIP3   OH234577   1.524   3.243   1.549
11545TIP3    H134578   1.476   3.183   1.605
11545TIP3    H234579   1.605   3.262   1.598
11546TIP3   OH234580   8.105   5.499   3.028
11546TIP3    H134581   8.077   5.574   3.079
11546TIP3    H234582   8.169   5.454   3.083
11547TIP3   OH234583   4.682   0.992   1.189
11547TIP3    H134584   4.692   1.086   1.199
11547TIP3    H234585   4.728   0.970   1.108
11548TIP3   OH234586   7.790   0.420   3.938
11548TIP3    H134587   7.728   0.379   3.999
11548TIP3    H234588   7.737   0.442   3.862
11549TIP3   OH234589   5.257   1.274   4.221
11549TIP3    H134590   5.283   1.202   4.163
11549TIP3    H234591   5.267   1.240   4.309
11550TIP3   OH234592   2.661   4.487   1.518
11550TIP3    H134593   2.745   4.500   1.562
11550TIP3    H234594   2.643   4.394   1.525
11551TIP3   OH234595   2.665   0.349   3.439
11551TIP3    H134596   2.617   0.406   3.378
11551TIP3    H234597   2.741   0.320   3.389
11552TIP3   OH234598   2.768   5.586   3.953
11552TIP3    H134599   2.812   5.635   4.023
11552TIP3    H234600   2.833   5.583   3.883
11553TIP3   OH234601   6.656   2.581   1.706
11553TIP3    H134602   6.736   2.611   1.748
11553TIP3    H234603   6.678   2.576   1.613
11554TIP3   OH234604   3.091   2.562   3.139
11554TIP3    H134605   3.183   2.586   3.127
11554TIP3    H234606   3.084   2.538   3.231
11555TIP3   OH234607   4.617   2.880   5.228
11555TIP3    H134608   4.671   2.842   5.297
11555TIP3    H234609   4.625   2.974   5.241
11556TIP3   OH234610   5.214   5.323   5.816
11556TIP3    H134611   5.266   5.288   5.744
11556TIP3    H234612   5.234   5.266   5.890
11557TIP3   OH234613   7.176   6.552   0.800
11557TIP3    H134614   7.102   6.508   0.842
11557TIP3    H234615   7.224   6.593   0.872
11558TIP3   OH234616   3.759   6.354   4.034
11558TIP3    H134617   3.739   6.446   4.021
11558TIP3    H234618   3.674   6.311   4.044
11559TIP3   OH234619   5.915   2.039   3.375
11559TIP3    H134620   5.937   2.131   3.394
11559TIP3    H234621   5.856   2.043   3.300
11560TIP3   OH234622   0.982   0.331   6.670
11560TIP3    H134623   1.061   0.289   6.704
11560TIP3    H234624   0.970   0.292   6.583
11561TIP3   OH234625   3.254   5.686   2.936
11561TIP3    H134626   3.163   5.672   2.911
11561TIP3    H234627   3.305   5.645   2.866
11562TIP3   OH234628   5.707   5.339   6.032
11562TIP3    H134629   5.672   5.399   6.096
11562TIP3    H234630   5.802   5.338   6.049
11563TIP3   OH234631   5.160   5.385   3.682
11563TIP3    H134632   5.223   5.315   3.698
11563TIP3    H234633   5.154   5.392   3.587
11564TIP3   OH234634   4.186   0.296   1.376
11564TIP3    H134635   4.183   0.342   1.291
11564TIP3    H234636   4.279   0.288   1.396
11565TIP3   OH234637   4.163   6.493   4.473
11565TIP3    H134638   4.225   6.544   4.523
11565TIP3    H234639   4.149   6.414   4.525
11566TIP3   OH234640   5.997   0.920   2.576
11566TIP3    H134641   6.060   0.848   2.574
11566TIP3    H234642   5.920   0.886   2.531
11567TIP3   OH234643   2.020   0.768   1.441
11567TIP3    H134644   2.043   0.827   1.512
11567TIP3    H234645   2.086   0.698   1.445
11568TIP3   OH234646   0.441   2.604   6.117
11568TIP3    H134647   0.501   2.579   6.187
11568TIP3    H234648   0.472   2.689   6.088
11569TIP3   OH234649   4.466   1.084   1.906
11569TIP3    H134650   4.509   1.029   1.841
11569TIP3    H234651   4.464   1.030   1.985
11570TIP3   OH234652   7.613   3.893   5.572
11570TIP3    H134653   7.539   3.947   5.547
11570TIP3    H234654   7.589   3.805   5.543
11571TIP3   OH234655   1.049   0.105   5.929
11571TIP3    H134656   0.976   0.154   5.893
11571TIP3    H234657   1.126   0.142   5.887
11572TIP3   OH234658   0.139   3.942   2.376
11572TIP3    H134659   0.083   3.878   2.420
11572TIP3    H234660   0.204   3.967   2.442
11573TIP3   OH234661   4.609   1.153   6.559
11573TIP3    H134662   4.692   1.117   6.526
11573TIP3    H234663   4.601   1.238   6.516
11574TIP3   OH234664   4.008   2.996   1.668
11574TIP3    H134665   3.973   2.945   1.596
11574TIP3    H234666   3.948   3.069   1.678
11575TIP3   OH234667   7.489   5.931   0.661
11575TIP3    H134668   7.468   6.023   0.672
11575TIP3    H234669   7.477   5.893   0.748
11576TIP3   OH234670   6.964   5.335   3.061
11576TIP3    H134671   6.974   5.280   3.139
11576TIP3    H234672   7.049   5.378   3.052
11577TIP3   OH234673   3.636   6.859   2.517
11577TIP3    H134674   3.710   6.862   2.457
11577TIP3    H234675   3.561   6.838   2.462
11578TIP3   OH234676   7.362   7.789   1.543
11578TIP3    H134677   7.371   7.698   1.571
11578TIP3    H234678   7.436   7.804   1.485
11579TIP3   OH234679   2.316   0.329   3.768
11579TIP3    H134680   2.410   0.310   3.763
11579TIP3    H234681   2.297   0.379   3.689
11580TIP3   OH234682   3.497   2.480   6.110
11580TIP3    H134683   3.535   2.436   6.034
11580TIP3    H234684   3.416   2.519   6.078
11581TIP3   OH234685   1.330   4.627   2.459
11581TIP3    H134686   1.422   4.614   2.479
11581TIP3    H234687   1.314   4.720   2.474
11582TIP3   OH234688   5.570   6.555   0.913
11582TIP3    H134689   5.493   6.610   0.932
11582TIP3    H234690   5.604   6.590   0.830
11583TIP3   OH234691   6.191   6.687   5.593
11583TIP3    H134692   6.173   6.598   5.562
11583TIP3    H234693   6.286   6.697   5.584
11584TIP3   OH234694   4.603   3.793   6.242
11584TIP3    H134695   4.671   3.849   6.280
11584TIP3    H234696   4.598   3.820   6.150
11585TIP3   OH234697   7.752   1.471   3.179
11585TIP3    H134698   7.788   1.471   3.090
11585TIP3    H234699   7.828   1.459   3.235
11586TIP3   OH234700   5.289   3.098   3.494
11586TIP3    H134701   5.257   3.181   3.460
11586TIP3    H234702   5.272   3.102   3.588
11587TIP3   OH234703   6.922   7.763   4.244
11587TIP3    H134704   6.845   7.752   4.299
11587TIP3    H234705   6.981   7.693   4.272
11588TIP3   OH234706   1.768   2.638   0.209
11588TIP3    H134707   1.843   2.693   0.232
11588TIP3    H234708   1.797   2.588   0.132
11589TIP3   OH234709   0.375   3.889   5.226
11589TIP3    H134710   0.390   3.981   5.248
11589TIP3    H234711   0.390   3.884   5.131
11590TIP3   OH234712   2.485   7.053   6.499
11590TIP3    H134713   2.496   7.064   6.593
11590TIP3    H234714   2.483   6.958   6.486
11591TIP3   OH234715   0.628   1.521   3.246
11591TIP3    H134716   0.557   1.559   3.193
11591TIP3    H234717   0.676   1.465   3.186
11592TIP3   OH234718   2.582   7.356   1.113
11592TIP3    H134719   2.546   7.420   1.051
11592TIP3    H234720   2.665   7.394   1.142
11593TIP3   OH234721   7.508   0.923   0.700
11593TIP3    H134722   7.497   1.012   0.734
11593TIP3    H234723   7.420   0.896   0.673
11594TIP3   OH234724   2.797   2.658   3.216
11594TIP3    H134725   2.868   2.635   3.155
11594TIP3    H234726   2.840   2.706   3.286
11595TIP3   OH234727   1.933   4.927   0.819
11595TIP3    H134728   1.994   5.000   0.832
11595TIP3    H234729   1.881   4.954   0.743
11596TIP3   OH234730   7.992   1.297   5.423
11596TIP3    H134731   7.918   1.273   5.367
11596TIP3    H234732   7.989   1.393   5.427
11597TIP3   OH234733   8.112   1.951   6.352
11597TIP3    H134734   8.064   2.034   6.354
11597TIP3    H234735   8.164   1.951   6.432
11598TIP3   OH234736   2.170   7.029   1.932
11598TIP3    H134737   2.122   7.093   1.880
11598TIP3    H234738   2.171   7.066   2.020
11599TIP3   OH234739   4.992   0.375   2.824
11599TIP3    H134740   4.929   0.316   2.865
11599TIP3    H234741   5.008   0.337   2.738
11600TIP3   OH234742   1.203   2.776   6.705
11600TIP3    H134743   1.115   2.748   6.681
11600TIP3    H234744   1.255   2.696   6.709
11601TIP3   OH234745   2.176   2.119   6.744
11601TIP3    H134746   2.197   2.092   6.834
11601TIP3    H234747   2.086   2.089   6.731
11602TIP3   OH234748   4.214   0.617   3.833
11602TIP3    H134749   4.248   0.619   3.923
11602TIP3    H234750   4.221   0.707   3.802
11603TIP3   OH234751   4.953   0.159   4.297
11603TIP3    H134752   4.948   0.235   4.355
11603TIP3    H234753   4.863   0.147   4.267
11604TIP3   OH234754   5.902   1.894   5.049
11604TIP3    H134755   5.825   1.949   5.040
11604TIP3    H234756   5.916   1.886   5.143
11605TIP3   OH234757   4.295   3.441   2.349
11605TIP3    H134758   4.288   3.515   2.409
11605TIP3    H234759   4.238   3.465   2.275
11606TIP3   OH234760   4.911   6.325   1.185
11606TIP3    H134761   4.862   6.385   1.241
11606TIP3    H234762   4.849   6.254   1.167
11607TIP3   OH234763   4.070   0.646   1.289
11607TIP3    H134764   3.977   0.630   1.303
11607TIP3    H234765   4.098   0.691   1.369
11608TIP3   OH234766   6.063   5.480   2.354
11608TIP3    H134767   5.993   5.414   2.348
11608TIP3    H234768   6.078   5.491   2.448
11609TIP3   OH234769   2.349   7.355   5.105
11609TIP3    H134770   2.363   7.298   5.030
11609TIP3    H234771   2.383   7.305   5.180
11610TIP3   OH234772   6.308   5.521   6.265
11610TIP3    H134773   6.251   5.586   6.305
11610TIP3    H234774   6.389   5.525   6.316
11611TIP3   OH234775   3.606   7.659   2.385
11611TIP3    H134776   3.598   7.567   2.411
11611TIP3    H234777   3.553   7.667   2.306
11612TIP3   OH234778   0.589   3.427   5.039
11612TIP3    H134779   0.511   3.471   5.074
11612TIP3    H234780   0.652   3.432   5.111
11613TIP3   OH234781   6.473   7.153   2.804
11613TIP3    H134782   6.455   7.207   2.727
11613TIP3    H234783   6.394   7.099   2.814
11614TIP3   OH234784   7.341   5.661   2.812
11614TIP3    H134785   7.396   5.648   2.734
11614TIP3    H234786   7.256   5.623   2.788
11615TIP3   OH234787   3.205   7.051   0.089
11615TIP3    H134788   3.229   6.974   0.037
11615TIP3    H234789   3.178   7.015   0.173
11616TIP3   OH234790   1.100   0.987   5.829
11616TIP3    H134791   1.084   1.044   5.905
11616TIP3    H234792   1.112   1.048   5.756
11617TIP3   OH234793   7.110   1.827   0.263
11617TIP3    H134794   7.158   1.854   0.342
11617TIP3    H234795   7.091   1.734   0.277
11618TIP3   OH234796   7.783   0.004   0.688
11618TIP3    H134797   7.737   0.087   0.698
11618TIP3    H234798   7.861   0.026   0.637
11619TIP3   OH234799   2.253   5.591   1.993
11619TIP3    H134800   2.286   5.679   2.012
11619TIP3    H234801   2.166   5.589   2.033
11620TIP3   OH234802   0.368   1.255   0.765
11620TIP3    H134803   0.437   1.191   0.749
11620TIP3    H234804   0.317   1.218   0.836
11621TIP3   OH234805   2.195   7.126   0.272
11621TIP3    H134806   2.274   7.179   0.255
11621TIP3    H234807   2.203   7.052   0.213
11622TIP3   OH234808   0.816   4.546   0.075
11622TIP3    H134809   0.875   4.607   0.032
11622TIP3    H234810   0.796   4.480   0.008
11623TIP3   OH234811   0.113   1.474   5.978
11623TIP3    H134812   0.083   1.517   6.058
11623TIP3    H234813   0.088   1.534   5.907
11624TIP3   OH234814   6.814   5.131   3.406
11624TIP3    H134815   6.745   5.194   3.384
11624TIP3    H234816   6.803   5.116   3.500
11625TIP3   OH234817   6.878   0.860   4.131
11625TIP3    H134818   6.948   0.866   4.067
11625TIP3    H234819   6.896   0.780   4.180
11626TIP3   OH234820   0.424   0.117   5.102
11626TIP3    H134821   0.390   0.079   5.183
11626TIP3    H234822   0.445   0.207   5.124
11627TIP3   OH234823   1.132   0.763   4.841
11627TIP3    H134824   1.070   0.719   4.783
11627TIP3    H234825   1.134   0.710   4.920
11628TIP3   OH234826   5.220   6.722   6.390
11628TIP3    H134827   5.289   6.656   6.381
11628TIP3    H234828   5.165   6.689   6.461
11629TIP3   OH234829   2.069   1.847   3.107
11629TIP3    H134830   2.154   1.862   3.149
11629TIP3    H234831   2.089   1.835   3.014
11630TIP3   OH234832   0.966   7.371   5.474
11630TIP3    H134833   0.938   7.371   5.382
11630TIP3    H234834   0.938   7.455   5.508
11631TIP3   OH234835   2.816   3.846   4.884
11631TIP3    H134836   2.813   3.924   4.940
11631TIP3    H234837   2.908   3.821   4.883
11632TIP3   OH234838   7.074   4.491   3.814
11632TIP3    H134839   7.080   4.403   3.852
11632TIP3    H234840   7.152   4.536   3.845
11633TIP3   OH234841   3.255   4.057   1.339
11633TIP3    H134842   3.275   4.139   1.294
11633TIP3    H234843   3.283   4.072   1.429
11634TIP3   OH234844   4.852   2.272   1.465
11634TIP3    H134845   4.813   2.281   1.551
11634TIP3    H234846   4.785   2.305   1.404
11635TIP3   OH234847   1.985   6.179   2.675
11635TIP3    H134848   2.029   6.201   2.757
11635TIP3    H234849   1.904   6.229   2.676
11636TIP3   OH234850   2.221   0.755   4.699
11636TIP3    H134851   2.225   0.817   4.772
11636TIP3    H234852   2.137   0.773   4.657
11637TIP3   OH234853   1.565   4.943   2.869
11637TIP3    H134854   1.559   5.037   2.852
11637TIP3    H234855   1.597   4.937   2.959
11638TIP3   OH234856   5.110   5.890   6.653
11638TIP3    H134857   5.109   5.827   6.725
11638TIP3    H234858   5.168   5.960   6.683
11639TIP3   OH234859   5.759   1.145   3.455
11639TIP3    H134860   5.710   1.174   3.531
11639TIP3    H234861   5.841   1.109   3.491
11640TIP3   OH234862   1.763   3.621   1.923
11640TIP3    H134863   1.818   3.632   2.001
11640TIP3    H234864   1.808   3.671   1.855
11641TIP3   OH234865   5.223   4.669   0.779
11641TIP3    H134866   5.314   4.640   0.780
11641TIP3    H234867   5.187   4.638   0.862
11642TIP3   OH234868   5.711   1.227   5.255
11642TIP3    H134869   5.688   1.142   5.217
11642TIP3    H234870   5.790   1.254   5.208
11643TIP3   OH234871   0.926   7.478   6.538
11643TIP3    H134872   0.979   7.447   6.611
11643TIP3    H234873   0.848   7.423   6.540
11644TIP3   OH234874   2.522   0.446   2.264
11644TIP3    H134875   2.476   0.461   2.347
11644TIP3    H234876   2.571   0.365   2.278
11645TIP3   OH234877   4.934   5.274   3.764
11645TIP3    H134878   4.971   5.195   3.804
11645TIP3    H234879   5.010   5.331   3.749
11646TIP3   OH234880   6.361   1.178   3.935
11646TIP3    H134881   6.356   1.112   4.005
11646TIP3    H234882   6.340   1.130   3.855
11647TIP3   OH234883  -0.009   4.433   0.776
11647TIP3    H134884  -0.029   4.349   0.815
11647TIP3    H234885   0.063   4.415   0.716
11648TIP3   OH234886   3.854   2.826   4.067
11648TIP3    H134887   3.760   2.816   4.053
11648TIP3    H234888   3.864   2.915   4.101
11649TIP3   OH234889   1.636   4.346   6.736
11649TIP3    H134890   1.609   4.431   6.702
11649TIP3    H234891   1.596   4.341   6.823
11650TIP3   OH234892   0.426   6.965   4.165
11650TIP3    H134893   0.498   6.991   4.108
11650TIP3    H234894   0.417   7.036   4.228
11651TIP3   OH234895   3.050   2.105   2.622
11651TIP3    H134896   3.141   2.076   2.635
11651TIP3    H234897   3.000   2.054   2.685
11652TIP3   OH234898   0.190   3.533   3.970
11652TIP3    H134899   0.113   3.589   3.969
11652TIP3    H234900   0.263   3.591   3.992
11653TIP3   OH234901   3.251   3.500   1.567
11653TIP3    H134902   3.300   3.544   1.637
11653TIP3    H234903   3.316   3.445   1.523
11654TIP3   OH234904   4.944   7.316   4.814
11654TIP3    H134905   5.016   7.325   4.751
11654TIP3    H234906   4.907   7.229   4.795
11655TIP3   OH234907   4.808   0.258   3.745
11655TIP3    H134908   4.765   0.209   3.675
11655TIP3    H234909   4.882   0.301   3.703
11656TIP3   OH234910   0.105   5.332   1.399
11656TIP3    H134911   0.181   5.365   1.447
11656TIP3    H234912   0.054   5.411   1.379
11657TIP3   OH234913   3.719   6.088   4.313
11657TIP3    H134914   3.711   6.034   4.234
11657TIP3    H234915   3.691   6.175   4.285
11658TIP3   OH234916   6.868   0.181   3.015
11658TIP3    H134917   6.813   0.130   3.075
11658TIP3    H234918   6.805   0.228   2.959
11659TIP3   OH234919   0.041   0.967   1.851
11659TIP3    H134920   0.090   1.043   1.821
11659TIP3    H234921  -0.036   1.003   1.895
11660TIP3   OH234922   0.593   3.046   4.924
11660TIP3    H134923   0.660   2.977   4.912
11660TIP3    H234924   0.530   3.008   4.985
11661TIP3   OH234925   3.966   1.418   1.735
11661TIP3    H134926   3.964   1.510   1.759
11661TIP3    H234927   3.930   1.414   1.647
11662TIP3   OH234928   5.918   5.701   6.386
11662TIP3    H134929   6.011   5.696   6.408
11662TIP3    H234930   5.877   5.631   6.438
11663TIP3   OH234931   1.186   2.417   1.769
11663TIP3    H134932   1.206   2.323   1.768
11663TIP3    H234933   1.093   2.422   1.749
11664TIP3   OH234934   1.653   0.168   6.482
11664TIP3    H134935   1.673   0.121   6.401
11664TIP3    H234936   1.737   0.176   6.527
11665TIP3   OH234937   0.592   5.977   0.709
11665TIP3    H134938   0.545   5.896   0.729
11665TIP3    H234939   0.591   6.026   0.791
11666TIP3   OH234940   7.531   6.053   1.426
11666TIP3    H134941   7.478   6.084   1.352
11666TIP3    H234942   7.601   6.117   1.435
11667TIP3   OH234943   5.333   2.949   4.800
11667TIP3    H134944   5.286   2.869   4.822
11667TIP3    H234945   5.355   2.938   4.707
11668TIP3   OH234946   2.002   6.987   5.358
11668TIP3    H134947   1.995   7.082   5.361
11668TIP3    H234948   1.944   6.956   5.428
11669TIP3   OH234949   2.030   0.171   4.143
11669TIP3    H134950   1.987   0.124   4.214
11669TIP3    H234951   2.082   0.105   4.098
11670TIP3   OH234952   1.261   4.408   0.725
11670TIP3    H134953   1.298   4.371   0.805
11670TIP3    H234954   1.270   4.338   0.660
11671TIP3   OH234955   2.081   6.285   2.909
11671TIP3    H134956   2.175   6.272   2.907
11671TIP3    H234957   2.069   6.380   2.916
11672TIP3   OH234958   1.778   2.518   3.487
11672TIP3    H134959   1.715   2.489   3.422
11672TIP3    H234960   1.752   2.608   3.508
11673TIP3   OH234961   1.445   5.091   0.965
11673TIP3    H134962   1.380   5.116   0.900
11673TIP3    H234963   1.507   5.036   0.917
11674TIP3   OH234964   2.108   3.223   4.447
11674TIP3    H134965   2.098   3.128   4.451
11674TIP3    H234966   2.110   3.243   4.354
11675TIP3   OH234967   8.180   7.467   1.778
11675TIP3    H134968   8.171   7.454   1.872
11675TIP3    H234969   8.241   7.541   1.770
11676TIP3   OH234970   0.795   0.594   5.720
11676TIP3    H134971   0.787   0.625   5.630
11676TIP3    H234972   0.766   0.667   5.774
11677TIP3   OH234973   3.139   4.898   3.141
11677TIP3    H134974   3.156   4.920   3.233
11677TIP3    H234975   3.182   4.968   3.091
11678TIP3   OH234976   2.788   1.578   2.006
11678TIP3    H134977   2.856   1.526   1.963
11678TIP3    H234978   2.832   1.618   2.081
11679TIP3   OH234979   2.413   1.031   0.157
11679TIP3    H134980   2.362   1.095   0.207
11679TIP3    H234981   2.504   1.060   0.167
11680TIP3   OH234982   1.135   4.425   5.136
11680TIP3    H134983   1.101   4.378   5.212
11680TIP3    H234984   1.075   4.499   5.126
11681TIP3   OH234985   2.590   6.973   2.381
11681TIP3    H134986   2.574   6.924   2.301
11681TIP3    H234987   2.683   6.958   2.400
11682TIP3   OH234988   0.779   0.385   5.543
11682TIP3    H134989   0.784   0.427   5.629
11682TIP3    H234990   0.817   0.449   5.482
11683TIP3   OH234991   6.835   6.782   4.120
11683TIP3    H134992   6.906   6.732   4.078
11683TIP3    H234993   6.774   6.715   4.151
11684TIP3   OH234994   4.421   7.022   0.615
11684TIP3    H134995   4.511   7.012   0.584
11684TIP3    H234996   4.377   7.071   0.546
11685TIP3   OH234997   3.377   2.716   6.637
11685TIP3    H134998   3.367   2.687   6.547
11685TIP3    H234999   3.325   2.796   6.642
11686TIP3   OH235000   7.645   3.723   0.439
11686TIP3    H135001   7.707   3.734   0.511
11686TIP3    H235002   7.698   3.692   0.366
11687TIP3   OH235003   1.381   5.096   3.664
11687TIP3    H135004   1.345   5.184   3.649
11687TIP3    H235005   1.476   5.109   3.662
11688TIP3   OH235006   2.073   1.063   6.729
11688TIP3    H135007   2.032   1.137   6.774
11688TIP3    H235008   2.069   1.085   6.636
11689TIP3   OH235009   0.316   4.915   1.814
11689TIP3    H135010   0.250   4.908   1.745
11689TIP3    H235011   0.381   4.976   1.778
11690TIP3   OH235012   3.708   7.270   3.880
11690TIP3    H135013   3.644   7.204   3.855
11690TIP3    H235014   3.745   7.237   3.962
11691TIP3   OH235015   5.129   3.325   3.428
11691TIP3    H135016   5.076   3.248   3.447
11691TIP3    H235017   5.095   3.359   3.345
11692TIP3   OH235018   1.130   5.534   2.740
11692TIP3    H135019   1.151   5.479   2.816
11692TIP3    H235020   1.040   5.510   2.718
11693TIP3   OH235021   4.601   2.628   0.781
11693TIP3    H135022   4.672   2.680   0.818
11693TIP3    H235023   4.523   2.658   0.828
11694TIP3   OH235024   0.411   5.376   0.155
11694TIP3    H135025   0.497   5.380   0.197
11694TIP3    H235026   0.395   5.282   0.143
11695TIP3   OH235027  -0.047   0.307   2.746
11695TIP3    H135028  -0.028   0.400   2.738
11695TIP3    H235029   0.029   0.271   2.791
11696TIP3   OH235030   2.915   6.785   3.316
11696TIP3    H135031   2.822   6.782   3.336
11696TIP3    H235032   2.935   6.878   3.308
11697TIP3   OH235033   0.900   5.358   0.529
11697TIP3    H135034   0.985   5.392   0.557
11697TIP3    H235035   0.906   5.264   0.541
11698TIP3   OH235036   8.031   5.324   2.822
11698TIP3    H135037   8.048   5.389   2.890
11698TIP3    H235038   7.966   5.364   2.765
11699TIP3   OH235039   0.496   6.736   3.198
11699TIP3    H135040   0.481   6.743   3.292
11699TIP3    H235041   0.448   6.657   3.172
11700TIP3   OH235042   4.933   2.817   1.222
11700TIP3    H135043   4.958   2.908   1.205
11700TIP3    H235044   5.001   2.765   1.180
11701TIP3   OH235045   4.542   4.005   3.022
11701TIP3    H135046   4.505   3.983   2.937
11701TIP3    H235047   4.523   3.929   3.077
11702TIP3   OH235048   0.776   5.218   3.197
11702TIP3    H135049   0.695   5.169   3.190
11702TIP3    H235050   0.841   5.154   3.225
11703TIP3   OH235051   1.077   0.711   3.763
11703TIP3    H135052   1.008   0.672   3.710
11703TIP3    H235053   1.057   0.805   3.764
11704TIP3   OH235054   5.759   4.869   4.096
11704TIP3    H135055   5.693   4.826   4.150
11704TIP3    H235056   5.843   4.841   4.132
11705TIP3   OH235057   6.861   6.716   0.798
11705TIP3    H135058   6.850   6.628   0.834
11705TIP3    H235059   6.923   6.704   0.726
11706TIP3   OH235060   2.225   2.525   3.659
11706TIP3    H135061   2.193   2.438   3.684
11706TIP3    H235062   2.303   2.507   3.606
11707TIP3   OH235063   6.562   5.168   4.937
11707TIP3    H135064   6.495   5.134   4.877
11707TIP3    H235065   6.520   5.243   4.980
11708TIP3   OH235066   6.806   0.080   4.645
11708TIP3    H135067   6.900   0.093   4.635
11708TIP3    H235068   6.783   0.018   4.576
11709TIP3   OH235069   2.734   0.588   0.557
11709TIP3    H135070   2.810   0.582   0.614
11709TIP3    H235071   2.664   0.544   0.605
11710TIP3   OH235072   2.462   0.859   3.697
11710TIP3    H135073   2.486   0.815   3.615
11710TIP3    H235074   2.541   0.853   3.750
11711TIP3   OH235075   2.659   4.244   6.130
11711TIP3    H135076   2.592   4.306   6.160
11711TIP3    H235077   2.742   4.291   6.142
11712TIP3   OH235078   7.059   2.186   4.950
11712TIP3    H135079   6.987   2.123   4.946
11712TIP3    H235080   7.097   2.173   5.037
11713TIP3   OH235081   1.119   0.198   0.777
11713TIP3    H135082   1.182   0.257   0.819
11713TIP3    H235083   1.042   0.252   0.764
11714TIP3   OH235084   7.412   7.191   0.184
11714TIP3    H135085   7.426   7.286   0.193
11714TIP3    H235086   7.499   7.155   0.169
11715TIP3   OH235087   3.147   4.285   1.704
11715TIP3    H135088   3.071   4.257   1.755
11715TIP3    H235089   3.214   4.220   1.724
11716TIP3   OH235090   2.109   3.270   4.144
11716TIP3    H135091   2.051   3.339   4.112
11716TIP3    H235092   2.068   3.189   4.115
11717TIP3   OH235093   1.506   7.027   1.902
11717TIP3    H135094   1.541   7.051   1.988
11717TIP3    H235095   1.491   6.933   1.908
11718TIP3   OH235096   2.276   4.641   0.342
11718TIP3    H135097   2.289   4.716   0.400
11718TIP3    H235098   2.365   4.611   0.322
11719TIP3   OH235099   2.093   1.543   3.635
11719TIP3    H135100   2.038   1.619   3.647
11719TIP3    H235101   2.088   1.524   3.541
11720TIP3   OH235102   0.155   7.201   5.014
11720TIP3    H135103   0.078   7.248   4.981
11720TIP3    H235104   0.151   7.115   4.974
11721TIP3   OH235105   0.480   6.252   2.254
11721TIP3    H135106   0.514   6.167   2.228
11721TIP3    H235107   0.556   6.310   2.256
11722TIP3   OH235108   5.143   5.838   5.586
11722TIP3    H135109   5.149   5.752   5.543
11722TIP3    H235110   5.082   5.823   5.659
11723TIP3   OH235111   3.095   1.879   0.456
11723TIP3    H135112   3.064   1.948   0.398
11723TIP3    H235113   3.181   1.909   0.487
11724TIP3   OH235114   4.029   7.264   3.142
11724TIP3    H135115   4.005   7.217   3.062
11724TIP3    H235116   4.088   7.204   3.188
11725TIP3   OH235117   7.995   4.510   3.556
11725TIP3    H135118   8.039   4.438   3.600
11725TIP3    H235119   7.917   4.470   3.518
11726TIP3   OH235120   4.825   3.471   6.715
11726TIP3    H135121   4.743   3.449   6.671
11726TIP3    H235122   4.827   3.567   6.714
11727TIP3   OH235123   7.580   3.128   5.974
11727TIP3    H135124   7.512   3.184   6.010
11727TIP3    H235125   7.538   3.042   5.967
11728TIP3   OH235126   2.373   6.811   0.477
11728TIP3    H135127   2.354   6.836   0.567
11728TIP3    H235128   2.289   6.785   0.440
11729TIP3   OH235129   0.812   1.151   1.782
11729TIP3    H135130   0.854   1.138   1.867
11729TIP3    H235131   0.875   1.202   1.731
11730TIP3   OH235132   7.801   1.731   5.772
11730TIP3    H135133   7.895   1.746   5.784
11730TIP3    H235134   7.778   1.782   5.695
11731TIP3   OH235135   7.272   7.787   0.638
11731TIP3    H135136   7.225   7.753   0.714
11731TIP3    H235137   7.351   7.734   0.633
11732TIP3   OH235138   4.377   1.993   5.329
11732TIP3    H135139   4.292   2.021   5.294
11732TIP3    H235140   4.354   1.931   5.398
11733TIP3   OH235141   1.506   1.417   3.171
11733TIP3    H135142   1.431   1.373   3.132
11733TIP3    H235143   1.581   1.362   3.147
11734TIP3   OH235144   2.565   0.918   1.783
11734TIP3    H135145   2.628   0.847   1.770
11734TIP3    H235146   2.497   0.902   1.717
11735TIP3   OH235147   0.080   2.558   3.201
11735TIP3    H135148   0.017   2.511   3.146
11735TIP3    H235149   0.160   2.563   3.149
11736TIP3   OH235150   6.799   3.221   2.600
11736TIP3    H135151   6.853   3.196   2.526
11736TIP3    H235152   6.814   3.315   2.611
11737TIP3   OH235153   3.797   6.490   0.143
11737TIP3    H135154   3.767   6.490   0.052
11737TIP3    H235155   3.776   6.578   0.175
11738TIP3   OH235156   4.735   7.695   4.430
11738TIP3    H135157   4.688   7.629   4.379
11738TIP3    H235158   4.789   7.644   4.491
11739TIP3   OH235159   0.902   7.774   1.121
11739TIP3    H135160   0.968   7.720   1.165
11739TIP3    H235161   0.952   7.832   1.065
11740TIP3   OH235162   7.589   6.294   4.461
11740TIP3    H135163   7.543   6.328   4.537
11740TIP3    H235164   7.608   6.372   4.408
11741TIP3   OH235165   6.717   3.714   4.369
11741TIP3    H135166   6.678   3.676   4.447
11741TIP3    H235167   6.666   3.677   4.297
11742TIP3   OH235168   0.564   4.642   0.048
11742TIP3    H135169   0.653   4.609   0.036
11742TIP3    H235170   0.510   4.564   0.054
11743TIP3   OH235171   0.971   5.006   3.307
11743TIP3    H135172   1.045   4.945   3.313
11743TIP3    H235173   0.894   4.951   3.321
11744TIP3   OH235174   1.458   7.144   5.478
11744TIP3    H135175   1.403   7.216   5.508
11744TIP3    H235176   1.483   7.097   5.558
11745TIP3   OH235177   4.061   1.624   6.161
11745TIP3    H135178   4.136   1.677   6.132
11745TIP3    H235179   3.994   1.688   6.182
11746TIP3   OH235180   7.545   4.724   3.756
11746TIP3    H135181   7.561   4.761   3.842
11746TIP3    H235182   7.520   4.798   3.702
11747TIP3   OH235183   1.736   6.875   0.139
11747TIP3    H135184   1.647   6.903   0.117
11747TIP3    H235185   1.758   6.809   0.073
11748TIP3   OH235186   5.116   3.846   5.770
11748TIP3    H135187   5.059   3.832   5.694
11748TIP3    H235188   5.195   3.796   5.750
11749TIP3   OH235189   3.939   7.276   5.807
11749TIP3    H135190   4.016   7.297   5.753
11749TIP3    H235191   3.977   7.240   5.887
11750TIP3   OH235192   6.577   3.640   4.132
11750TIP3    H135193   6.515   3.664   4.063
11750TIP3    H235194   6.654   3.609   4.085
11751TIP3   OH235195   1.571   0.945   1.017
11751TIP3    H135196   1.478   0.955   1.038
11751TIP3    H235197   1.617   0.983   1.092
11752TIP3   OH235198   6.332   2.971   5.874
11752TIP3    H135199   6.390   2.977   5.798
11752TIP3    H235200   6.339   3.056   5.916
11753TIP3   OH235201   2.953   5.318   4.352
11753TIP3    H135202   2.896   5.293   4.279
11753TIP3    H235203   2.919   5.269   4.427
11754TIP3   OH235204   2.940   6.196   1.701
11754TIP3    H135205   3.017   6.141   1.715
11754TIP3    H235206   2.910   6.173   1.613
11755TIP3   OH235207   1.214   7.003   5.372
11755TIP3    H135208   1.255   6.927   5.332
11755TIP3    H235209   1.284   7.044   5.423
11756TIP3   OH235210   8.243   6.253   4.204
11756TIP3    H135211   8.252   6.158   4.193
11756TIP3    H235212   8.279   6.271   4.291
11757TIP3   OH235213   7.105   6.177   3.248
11757TIP3    H135214   7.160   6.231   3.305
11757TIP3    H235215   7.049   6.240   3.203
11758TIP3   OH235216   7.688   0.536   1.370
11758TIP3    H135217   7.633   0.488   1.307
11758TIP3    H235218   7.711   0.617   1.324
11759TIP3   OH235219   4.987   6.190   2.027
11759TIP3    H135220   5.001   6.095   2.025
11759TIP3    H235221   4.904   6.203   1.981
11760TIP3   OH235222   0.159   4.579   5.416
11760TIP3    H135223   0.080   4.552   5.463
11760TIP3    H235224   0.129   4.646   5.355
11761TIP3   OH235225   3.454   3.924   0.638
11761TIP3    H135226   3.359   3.936   0.649
11761TIP3    H235227   3.492   4.006   0.667
11762TIP3   OH235228   3.237   0.320   6.243
11762TIP3    H135229   3.226   0.225   6.245
11762TIP3    H235230   3.226   0.347   6.334
11763TIP3   OH235231   1.869   5.111   2.825
11763TIP3    H135232   1.886   5.022   2.854
11763TIP3    H235233   1.947   5.136   2.776
11764TIP3   OH235234   7.198   5.360   1.529
11764TIP3    H135235   7.109   5.341   1.502
11764TIP3    H235236   7.197   5.348   1.625
11765TIP3   OH235237   5.376   1.409   2.511
11765TIP3    H135238   5.359   1.471   2.582
11765TIP3    H235239   5.320   1.439   2.439
11766TIP3   OH235240   3.898   5.209   6.354
11766TIP3    H135241   3.816   5.174   6.390
11766TIP3    H235242   3.893   5.190   6.260
11767TIP3   OH235243   7.106   6.861   2.558
11767TIP3    H135244   7.079   6.950   2.582
11767TIP3    H235245   7.108   6.861   2.463
11768TIP3   OH235246   4.470   5.286   4.495
11768TIP3    H135247   4.410   5.320   4.562
11768TIP3    H235248   4.557   5.297   4.534
11769TIP3   OH235249   3.781   0.144   2.529
11769TIP3    H135250   3.715   0.171   2.593
11769TIP3    H235251   3.742   0.164   2.444
11770TIP3   OH235252   2.432   4.118   6.407
11770TIP3    H135253   2.344   4.149   6.428
11770TIP3    H235254   2.427   4.095   6.314
11771TIP3   OH235255   1.287   3.362   3.125
11771TIP3    H135256   1.226   3.424   3.085
11771TIP3    H235257   1.344   3.417   3.178
11772TIP3   OH235258   5.620   7.431   0.485
11772TIP3    H135259   5.637   7.515   0.442
11772TIP3    H235260   5.630   7.449   0.579
11773TIP3   OH235261   5.237   6.047   5.933
11773TIP3    H135262   5.278   6.098   5.864
11773TIP3    H235263   5.158   6.011   5.892
11774TIP3   OH235264   5.529   7.428   5.437
11774TIP3    H135265   5.618   7.459   5.455
11774TIP3    H235266   5.518   7.441   5.343
11775TIP3   OH235267   3.548   4.199   3.771
11775TIP3    H135268   3.605   4.125   3.795
11775TIP3    H235269   3.590   4.237   3.694
11776TIP3   OH235270   0.263   1.976   4.898
11776TIP3    H135271   0.294   1.889   4.873
11776TIP3    H235272   0.249   1.970   4.993
11777TIP3   OH235273   2.128   1.014   1.522
11777TIP3    H135274   2.091   1.054   1.601
11777TIP3    H235275   2.135   1.087   1.460
11778TIP3   OH235276   6.199   2.853   3.747
11778TIP3    H135277   6.182   2.799   3.670
11778TIP3    H235278   6.129   2.829   3.809
11779TIP3   OH235279   4.828   5.575   1.381
11779TIP3    H135280   4.786   5.494   1.350
11779TIP3    H235281   4.886   5.547   1.451
11780TIP3   OH235282   4.453   2.754   0.991
11780TIP3    H135283   4.485   2.687   1.051
11780TIP3    H235284   4.450   2.834   1.044
11781TIP3   OH235285   7.721   5.825   4.636
11781TIP3    H135286   7.647   5.770   4.613
11781TIP3    H235287   7.794   5.764   4.648
11782TIP3   OH235288   4.929   4.897   3.869
11782TIP3    H135289   5.009   4.862   3.830
11782TIP3    H235290   4.909   4.836   3.940
11783TIP3   OH235291   6.778   6.211   0.578
11783TIP3    H135292   6.693   6.242   0.547
11783TIP3    H235293   6.762   6.121   0.605
11784TIP3   OH235294   1.682   5.259   1.739
11784TIP3    H135295   1.610   5.318   1.718
11784TIP3    H235296   1.670   5.184   1.681
11785TIP3   OH235297   0.753   6.304   0.900
11785TIP3    H135298   0.691   6.337   0.836
11785TIP3    H235299   0.751   6.368   0.972
11786TIP3   OH235300   6.333   7.255   3.928
11786TIP3    H135301   6.391   7.180   3.916
11786TIP3    H235302   6.290   7.238   4.012
11787TIP3   OH235303   8.162   4.653   1.399
11787TIP3    H135304   8.138   4.625   1.311
11787TIP3    H235305   8.141   4.747   1.401
11788TIP3   OH235306   5.784   6.660   1.601
11788TIP3    H135307   5.800   6.566   1.596
11788TIP3    H235308   5.746   6.674   1.688
11789TIP3   OH235309   0.273   5.254   5.424
11789TIP3    H135310   0.357   5.241   5.378
11789TIP3    H235311   0.242   5.339   5.393
11790TIP3   OH235312   7.760   4.168   1.691
11790TIP3    H135313   7.733   4.155   1.781
11790TIP3    H235314   7.699   4.233   1.656
11791TIP3   OH235315   0.592   3.407   1.103
11791TIP3    H135316   0.652   3.379   1.172
11791TIP3    H235317   0.520   3.449   1.150
11792TIP3   OH235318   3.355   4.364   5.481
11792TIP3    H135319   3.334   4.310   5.557
11792TIP3    H235320   3.317   4.317   5.407
11793TIP3   OH235321   5.486   1.484   5.411
11793TIP3    H135322   5.506   1.473   5.318
11793TIP3    H235323   5.395   1.513   5.413
11794TIP3   OH235324   4.969   1.663   1.472
11794TIP3    H135325   4.955   1.647   1.379
11794TIP3    H235326   5.047   1.718   1.475
11795TIP3   OH235327   7.499   5.255   1.629
11795TIP3    H135328   7.476   5.323   1.693
11795TIP3    H235329   7.507   5.302   1.546
11796TIP3   OH235330   7.735   4.792   1.260
11796TIP3    H135331   7.686   4.782   1.179
11796TIP3    H235332   7.767   4.703   1.280
11797TIP3   OH235333   0.711   0.521   2.991
11797TIP3    H135334   0.794   0.556   2.959
11797TIP3    H235335   0.664   0.495   2.912
11798TIP3   OH235336   1.320   4.433   4.945
11798TIP3    H135337   1.391   4.482   4.988
11798TIP3    H235338   1.250   4.430   5.010
11799TIP3   OH235339   7.172   4.427   5.408
11799TIP3    H135340   7.140   4.509   5.446
11799TIP3    H235341   7.267   4.438   5.404
11800TIP3   OH235342   0.471   4.247   4.391
11800TIP3    H135343   0.528   4.318   4.423
11800TIP3    H235344   0.530   4.190   4.341
11801TIP3   OH235345   4.505   3.963   4.600
11801TIP3    H135346   4.521   4.057   4.596
11801TIP3    H235347   4.411   3.954   4.588
11802TIP3   OH235348   4.231   7.503   2.234
11802TIP3    H135349   4.272   7.484   2.318
11802TIP3    H235350   4.265   7.588   2.209
11803TIP3   OH235351   6.018   4.058   3.028
11803TIP3    H135352   6.055   3.994   2.967
11803TIP3    H235353   5.963   4.114   2.974
11804TIP3   OH235354   3.064   0.784   2.552
11804TIP3    H135355   3.017   0.720   2.499
11804TIP3    H235356   3.084   0.738   2.633
11805TIP3   OH235357   5.629   2.964   1.625
11805TIP3    H135358   5.692   2.896   1.649
11805TIP3    H235359   5.548   2.917   1.605
11806TIP3   OH235360   7.151   4.769   1.663
11806TIP3    H135361   7.089   4.781   1.735
11806TIP3    H235362   7.202   4.692   1.688
11807TIP3   OH235363   6.216  -0.033   4.703
11807TIP3    H135364   6.161  -0.086   4.646
11807TIP3    H235365   6.282   0.004   4.645
11808TIP3   OH235366   2.874   0.500   5.918
11808TIP3    H135367   2.807   0.566   5.936
11808TIP3    H235368   2.948   0.524   5.974
11809TIP3   OH235369   2.789   1.388   0.249
11809TIP3    H135370   2.866   1.445   0.250
11809TIP3    H235371   2.747   1.406   0.165
11810TIP3   OH235372   2.133   6.322   6.008
11810TIP3    H135373   2.175   6.399   5.970
11810TIP3    H235374   2.067   6.358   6.068
11811TIP3   OH235375   6.969   5.612   3.372
11811TIP3    H135376   7.028   5.537   3.379
11811TIP3    H235377   7.013   5.682   3.420
11812TIP3   OH235378   6.444   2.209   2.163
11812TIP3    H135379   6.430   2.282   2.102
11812TIP3    H235380   6.364   2.207   2.216
11813TIP3   OH235381   4.778   4.227   2.773
11813TIP3    H135382   4.764   4.203   2.865
11813TIP3    H235383   4.760   4.147   2.724
11814TIP3   OH235384   2.104   5.404   2.854
11814TIP3    H135385   2.046   5.445   2.790
11814TIP3    H235386   2.144   5.477   2.901
11815TIP3   OH235387   0.847   5.989   2.414
11815TIP3    H135388   0.873   5.952   2.499
11815TIP3    H235389   0.845   6.083   2.429
11816TIP3   OH235390   4.864   4.081   3.819
11816TIP3    H135391   4.942   4.058   3.769
11816TIP3    H235392   4.887   4.163   3.863
11817TIP3   OH235393   3.370   2.999   4.692
11817TIP3    H135394   3.399   2.938   4.759
11817TIP3    H235395   3.400   3.085   4.721
11818TIP3   OH235396   0.896   0.498   2.751
11818TIP3    H135397   0.942   0.557   2.692
11818TIP3    H235398   0.887   0.416   2.702
11819TIP3   OH235399   6.060   6.478   5.244
11819TIP3    H135400   6.075   6.414   5.175
11819TIP3    H235401   5.970   6.507   5.231
11820TIP3   OH235402   0.700   7.299   2.624
11820TIP3    H135403   0.612   7.289   2.587
11820TIP3    H235404   0.689   7.363   2.694
11821TIP3   OH235405   7.102   3.026   5.012
11821TIP3    H135406   7.083   3.089   5.081
11821TIP3    H235407   7.197   3.031   5.000
11822TIP3   OH235408   0.080   0.624   6.506
11822TIP3    H135409   0.137   0.572   6.562
11822TIP3    H235410   0.053   0.565   6.436
11823TIP3   OH235411   6.527   1.125   3.436
11823TIP3    H135412   6.608   1.076   3.423
11823TIP3    H235413   6.474   1.106   3.358
11824TIP3   OH235414   3.944   7.696   4.424
11824TIP3    H135415   3.905   7.623   4.375
11824TIP3    H235416   3.956   7.765   4.358
11825TIP3   OH235417   7.754   4.036   4.042
11825TIP3    H135418   7.720   4.021   3.954
11825TIP3    H235419   7.759   4.131   4.050
11826TIP3   OH235420   3.178   7.707   1.226
11826TIP3    H135421   3.209   7.618   1.242
11826TIP3    H235422   3.201   7.725   1.135
11827TIP3   OH235423   6.311   1.287   5.844
11827TIP3    H135424   6.375   1.347   5.883
11827TIP3    H235425   6.232   1.340   5.833
11828TIP3   OH235426   5.651   0.199   6.042
11828TIP3    H135427   5.603   0.270   6.085
11828TIP3    H235428   5.666   0.134   6.111
11829TIP3   OH235429   2.219   6.893   6.093
11829TIP3    H135430   2.250   6.942   6.170
11829TIP3    H235431   2.295   6.844   6.063
11830TIP3   OH235432   2.031   0.774   6.492
11830TIP3    H135433   1.979   0.777   6.572
11830TIP3    H235434   2.073   0.688   6.494
11831TIP3   OH235435   6.381   4.894   4.539
11831TIP3    H135436   6.366   4.989   4.539
11831TIP3    H235437   6.475   4.885   4.552
11832TIP3   OH235438   1.076   2.337   6.099
11832TIP3    H135439   1.068   2.242   6.104
11832TIP3    H235440   1.007   2.363   6.038
11833TIP3   OH235441   2.457   0.795   1.102
11833TIP3    H135442   2.401   0.844   1.163
11833TIP3    H235443   2.396   0.757   1.039
11834TIP3   OH235444   3.949   0.938   2.683
11834TIP3    H135445   3.923   0.857   2.640
11834TIP3    H235446   3.959   1.001   2.612
11835TIP3   OH235447   1.935   2.228   2.662
11835TIP3    H135448   1.861   2.190   2.615
11835TIP3    H235449   1.955   2.164   2.730
11836TIP3   OH235450   0.315   7.195   2.854
11836TIP3    H135451   0.401   7.167   2.886
11836TIP3    H235452   0.315   7.171   2.761
11837TIP3   OH235453   0.472   1.733   1.789
11837TIP3    H135454   0.470   1.684   1.706
11837TIP3    H235455   0.382   1.765   1.799
11838TIP3   OH235456   5.492   7.331   0.260
11838TIP3    H135457   5.545   7.319   0.181
11838TIP3    H235458   5.535   7.403   0.307
11839TIP3   OH235459   4.561   7.642   5.109
11839TIP3    H135460   4.642   7.667   5.153
11839TIP3    H235461   4.580   7.556   5.072
11840TIP3   OH235462   4.086   0.297   4.190
11840TIP3    H135463   4.105   0.372   4.246
11840TIP3    H235464   4.092   0.222   4.249
11841TIP3   OH235465   6.997   6.492   6.667
11841TIP3    H135466   7.077   6.475   6.717
11841TIP3    H235467   7.024   6.551   6.597
11842TIP3   OH235468   7.237   3.499   4.165
11842TIP3    H135469   7.172   3.442   4.206
11842TIP3    H235470   7.186   3.559   4.111
11843TIP3   OH235471   7.482   4.319   5.839
11843TIP3    H135472   7.490   4.333   5.745
11843TIP3    H235473   7.454   4.403   5.874
11844TIP3   OH235474   4.017   0.983   6.039
11844TIP3    H135475   4.012   1.001   6.133
11844TIP3    H235476   3.929   0.952   6.016
11845TIP3   OH235477   5.714   6.183   4.790
11845TIP3    H135478   5.742   6.147   4.874
11845TIP3    H235479   5.665   6.111   4.748
11846TIP3   OH235480   0.484   7.062   1.460
11846TIP3    H135481   0.550   7.129   1.477
11846TIP3    H235482   0.428   7.064   1.538
11847TIP3   OH235483   2.009   1.434   2.043
11847TIP3    H135484   2.052   1.381   1.977
11847TIP3    H235485   1.924   1.392   2.056
11848TIP3   OH235486   6.879   4.520   3.163
11848TIP3    H135487   6.918   4.598   3.123
11848TIP3    H235488   6.855   4.548   3.251
11849TIP3   OH235489   6.339   4.647   2.236
11849TIP3    H135490   6.383   4.584   2.178
11849TIP3    H235491   6.299   4.710   2.176
11850TIP3   OH235492   0.582   0.064   2.836
11850TIP3    H135493   0.497   0.108   2.831
11850TIP3    H235494   0.591   0.020   2.751
11851TIP3   OH235495   5.955   0.676   1.324
11851TIP3    H135496   5.898   0.638   1.390
11851TIP3    H235497   6.012   0.604   1.296
11852TIP3   OH235498   2.751   0.789   5.645
11852TIP3    H135499   2.686   0.854   5.619
11852TIP3    H235500   2.717   0.752   5.726
11853TIP3   OH235501   1.539   2.305   4.463
11853TIP3    H135502   1.487   2.289   4.541
11853TIP3    H235503   1.530   2.225   4.410
11854TIP3   OH235504   0.852   3.438   3.900
11854TIP3    H135505   0.925   3.435   3.837
11854TIP3    H235506   0.881   3.383   3.972
11855TIP3   OH235507   6.532   6.413   1.701
11855TIP3    H135508   6.474   6.365   1.761
11855TIP3    H235509   6.564   6.346   1.640
11856TIP3   OH235510   2.610   2.673   6.550
11856TIP3    H135511   2.654   2.648   6.631
11856TIP3    H235512   2.680   2.677   6.484
11857TIP3   OH235513   2.854   2.148   5.535
11857TIP3    H135514   2.877   2.238   5.511
11857TIP3    H235515   2.931   2.096   5.511
11858TIP3   OH235516   1.930   5.221   2.549
11858TIP3    H135517   1.884   5.295   2.589
11858TIP3    H235518   1.915   5.230   2.455
11859TIP3   OH235519   3.027   1.879   0.714
11859TIP3    H135520   2.972   1.955   0.736
11859TIP3    H235521   3.049   1.892   0.622
11860TIP3   OH235522   4.059   0.917   1.177
11860TIP3    H135523   4.045   1.006   1.144
11860TIP3    H235524   3.985   0.867   1.144
11861TIP3   OH235525   4.071   2.106   1.783
11861TIP3    H135526   4.083   2.188   1.831
11861TIP3    H235527   4.116   2.121   1.699
11862TIP3   OH235528   3.615   6.468   2.347
11862TIP3    H135529   3.546   6.456   2.413
11862TIP3    H235530   3.589   6.410   2.275
11863TIP3   OH235531   7.464   7.286   5.260
11863TIP3    H135532   7.548   7.326   5.284
11863TIP3    H235533   7.430   7.341   5.189
11864TIP3   OH235534   2.346   6.479   4.859
11864TIP3    H135535   2.326   6.516   4.773
11864TIP3    H235536   2.304   6.539   4.921
11865TIP3   OH235537   0.206   6.185   2.259
11865TIP3    H135538   0.289   6.223   2.290
11865TIP3    H235539   0.175   6.131   2.332
11866TIP3   OH235540   0.858   1.955   3.932
11866TIP3    H135541   0.775   1.982   3.894
11866TIP3    H235542   0.838   1.874   3.979
11867TIP3   OH235543   5.864   4.819   2.935
11867TIP3    H135544   5.791   4.866   2.894
11867TIP3    H235545   5.829   4.732   2.954
11868TIP3   OH235546   1.750   2.525   0.737
11868TIP3    H135547   1.828   2.484   0.774
11868TIP3    H235548   1.732   2.475   0.658
11869TIP3   OH235549   1.613   2.895   6.220
11869TIP3    H135550   1.673   2.894   6.294
11869TIP3    H235551   1.667   2.924   6.146
11870TIP3   OH235552   5.769   6.438   3.583
11870TIP3    H135553   5.807   6.515   3.541
11870TIP3    H235554   5.839   6.406   3.641
11871TIP3   OH235555   1.233   5.203   0.809
11871TIP3    H135556   1.216   5.274   0.748
11871TIP3    H235557   1.152   5.195   0.859
11872TIP3   OH235558   1.864   5.057   5.181
11872TIP3    H135559   1.882   5.096   5.267
11872TIP3    H235560   1.769   5.064   5.171
11873TIP3   OH235561   3.251   5.220   3.126
11873TIP3    H135562   3.315   5.192   3.192
11873TIP3    H235563   3.303   5.268   3.062
11874TIP3   OH235564   3.812   4.342   3.750
11874TIP3    H135565   3.763   4.304   3.677
11874TIP3    H235566   3.882   4.279   3.768
11875TIP3   OH235567   5.588   1.756   2.081
11875TIP3    H135568   5.656   1.783   2.019
11875TIP3    H235569   5.630   1.689   2.135
11876TIP3   OH235570   7.485   4.068   6.584
11876TIP3    H135571   7.479   3.973   6.573
11876TIP3    H235572   7.394   4.097   6.591
11877TIP3   OH235573   4.321   4.784   1.056
11877TIP3    H135574   4.350   4.826   0.974
11877TIP3    H235575   4.342   4.692   1.044
11878TIP3   OH235576   5.813   6.997   2.890
11878TIP3    H135577   5.840   7.089   2.892
11878TIP3    H235578   5.785   6.979   2.979
11879TIP3   OH235579   0.618   3.689   6.486
11879TIP3    H135580   0.694   3.716   6.537
11879TIP3    H235581   0.646   3.608   6.442
11880TIP3   OH235582   3.120   5.839   4.908
11880TIP3    H135583   3.156   5.755   4.934
11880TIP3    H235584   3.130   5.895   4.985
11881TIP3   OH235585   1.417   5.624   0.147
11881TIP3    H135586   1.402   5.701   0.203
11881TIP3    H235587   1.365   5.641   0.069
11882TIP3   OH235588   0.655   1.420   5.000
11882TIP3    H135589   0.704   1.377   4.930
11882TIP3    H235590   0.719   1.476   5.044
11883TIP3   OH235591   2.598   7.161   4.635
11883TIP3    H135592   2.621   7.098   4.566
11883TIP3    H235593   2.623   7.246   4.598
11884TIP3   OH235594   2.474   2.226   2.846
11884TIP3    H135595   2.496   2.251   2.756
11884TIP3    H235596   2.486   2.307   2.897
11885TIP3   OH235597   3.176   1.740   5.487
11885TIP3    H135598   3.214   1.705   5.567
11885TIP3    H235599   3.159   1.664   5.432
11886TIP3   OH235600   2.793   6.088   6.439
11886TIP3    H135601   2.811   6.152   6.370
11886TIP3    H235602   2.743   6.019   6.395
11887TIP3   OH235603   1.274   3.111   4.056
11887TIP3    H135604   1.201   3.169   4.078
11887TIP3    H235605   1.325   3.161   3.993
11888TIP3   OH235606   1.708   1.095   3.689
11888TIP3    H135607   1.769   1.165   3.664
11888TIP3    H235608   1.681   1.056   3.606
11889TIP3   OH235609   4.214   5.152   1.211
11889TIP3    H135610   4.126   5.135   1.245
11889TIP3    H235611   4.199   5.196   1.127
11890TIP3   OH235612   2.773   6.500   1.300
11890TIP3    H135613   2.791   6.426   1.243
11890TIP3    H235614   2.858   6.525   1.335
11891TIP3   OH235615   0.960   1.476   3.289
11891TIP3    H135616   1.010   1.531   3.229
11891TIP3    H235617   1.002   1.490   3.374
11892TIP3   OH235618   0.333   6.690   4.172
11892TIP3    H135619   0.346   6.781   4.147
11892TIP3    H235620   0.397   6.641   4.120
11893TIP3   OH235621   3.810   3.315   4.296
11893TIP3    H135622   3.825   3.399   4.340
11893TIP3    H235623   3.896   3.272   4.299
11894TIP3   OH235624   6.986   1.557   3.536
11894TIP3    H135625   7.022   1.555   3.625
11894TIP3    H235626   6.959   1.466   3.520
11895TIP3   OH235627   0.943   7.760   4.548
11895TIP3    H135628   0.932   7.747   4.642
11895TIP3    H235629   0.853   7.764   4.514
11896TIP3   OH235630   0.911   0.174   3.007
11896TIP3    H135631   0.956   0.089   3.004
11896TIP3    H235632   0.961   0.224   3.073
11897TIP3   OH235633   5.762   4.038   4.391
11897TIP3    H135634   5.703   4.061   4.320
11897TIP3    H235635   5.792   4.122   4.426
11898TIP3   OH235636   1.063   6.665   1.645
11898TIP3    H135637   1.117   6.606   1.697
11898TIP3    H235638   0.975   6.629   1.651
11899TIP3   OH235639   4.970   6.447   2.133
11899TIP3    H135640   4.993   6.366   2.087
11899TIP3    H235641   4.956   6.511   2.063
11900TIP3   OH235642   7.143   7.718  -0.011
11900TIP3    H135643   7.059   7.762   0.002
11900TIP3    H235644   7.183   7.717   0.076
11901TIP3   OH235645   7.242   2.932   5.316
11901TIP3    H135646   7.330   2.921   5.282
11901TIP3    H235647   7.236   2.870   5.388
11902TIP3   OH235648   7.974   1.861   5.258
11902TIP3    H135649   8.034   1.916   5.208
11902TIP3    H235650   8.030   1.815   5.320
11903TIP3   OH235651   7.722   2.401   5.106
11903TIP3    H135652   7.668   2.340   5.155
11903TIP3    H235653   7.726   2.365   5.018
11904TIP3   OH235654   3.016   5.443   3.954
11904TIP3    H135655   2.956   5.381   3.995
11904TIP3    H235656   3.071   5.474   4.027
11905TIP3   OH235657   4.659   4.594   5.584
11905TIP3    H135658   4.568   4.612   5.561
11905TIP3    H235659   4.704   4.678   5.576
11906TIP3   OH235660   6.666   2.842   1.936
11906TIP3    H135661   6.614   2.775   1.980
11906TIP3    H235662   6.746   2.849   1.989
11907TIP3   OH235663   6.636   7.822   3.413
11907TIP3    H135664   6.547   7.857   3.404
11907TIP3    H235665   6.627   7.730   3.390
11908TIP3   OH235666   2.612   6.403   6.630
11908TIP3    H135667   2.658   6.425   6.711
11908TIP3    H235668   2.627   6.310   6.617
11909TIP3   OH235669   0.785   6.818   4.138
11909TIP3    H135670   0.729   6.749   4.172
11909TIP3    H235671   0.737   6.854   4.064
11910TIP3   OH235672   6.119   2.371   5.931
11910TIP3    H135673   6.099   2.280   5.913
11910TIP3    H235674   6.187   2.394   5.867
11911TIP3   OH235675   2.586   7.084   5.585
11911TIP3    H135676   2.655   7.078   5.652
11911TIP3    H235677   2.622   7.142   5.518
11912TIP3   OH235678   2.242   6.995   3.873
11912TIP3    H135679   2.147   6.992   3.878
11912TIP3    H235680   2.262   6.990   3.779
11913TIP3   OH235681   7.696   4.351   2.143
11913TIP3    H135682   7.775   4.324   2.190
11913TIP3    H235683   7.699   4.447   2.146
11914TIP3   OH235684   4.703   2.412   2.764
11914TIP3    H135685   4.639   2.432   2.833
11914TIP3    H235686   4.786   2.406   2.810
11915TIP3   OH235687   2.168   0.523   4.420
11915TIP3    H135688   2.240   0.563   4.469
11915TIP3    H235689   2.201   0.437   4.395
11916TIP3   OH235690   3.082   5.121   4.166
11916TIP3    H135691   3.027   5.199   4.167
11916TIP3    H235692   3.171   5.154   4.155
11917TIP3   OH235693   7.116   4.791   5.299
11917TIP3    H135694   7.130   4.779   5.393
11917TIP3    H235695   7.030   4.832   5.292
11918TIP3   OH235696   2.271   2.609   6.105
11918TIP3    H135697   2.307   2.655   6.181
11918TIP3    H235698   2.265   2.518   6.133
11919TIP3   OH235699   2.682   5.097   2.902
11919TIP3    H135700   2.683   5.011   2.945
11919TIP3    H235701   2.604   5.141   2.937
11920TIP3   OH235702   1.542   1.860   5.124
11920TIP3    H135703   1.630   1.853   5.159
11920TIP3    H235704   1.554   1.888   5.033
11921TIP3   OH235705   1.763   5.616   4.069
11921TIP3    H135706   1.833   5.646   4.013
11921TIP3    H235707   1.804   5.552   4.128
11922TIP3   OH235708   6.159   3.250   0.355
11922TIP3    H135709   6.175   3.344   0.365
11922TIP3    H235710   6.069   3.245   0.323
11923TIP3   OH235711   7.959   2.809   4.147
11923TIP3    H135712   7.942   2.888   4.097
11923TIP3    H235713   7.898   2.744   4.112
11924TIP3   OH235714   7.380   4.896   3.312
11924TIP3    H135715   7.416   4.812   3.343
11924TIP3    H235716   7.421   4.962   3.369
11925TIP3   OH235717   1.772   2.025   0.479
11925TIP3    H135718   1.843   2.014   0.416
11925TIP3    H235719   1.744   1.936   0.500
11926TIP3   OH235720   0.873   1.068   3.189
11926TIP3    H135721   0.919   0.985   3.177
11926TIP3    H235722   0.890   1.117   3.109
11927TIP3   OH235723   7.289   4.435   1.499
11927TIP3    H135724   7.208   4.383   1.498
11927TIP3    H235725   7.304   4.457   1.407
11928TIP3   OH235726   0.621   1.625   6.597
11928TIP3    H135727   0.632   1.540   6.639
11928TIP3    H235728   0.562   1.673   6.656
11929TIP3   OH235729   3.276   5.593   4.608
11929TIP3    H135730   3.314   5.674   4.573
11929TIP3    H235731   3.224   5.559   4.536
11930TIP3   OH235732   1.133   7.533   1.211
11930TIP3    H135733   1.196   7.472   1.250
11930TIP3    H235734   1.134   7.512   1.118
11931TIP3   OH235735   3.355   6.080   2.286
11931TIP3    H135736   3.406   5.999   2.277
11931TIP3    H235737   3.420   6.149   2.290
11932TIP3   OH235738   0.223   4.826   4.599
11932TIP3    H135739   0.201   4.793   4.685
11932TIP3    H235740   0.272   4.906   4.616
11933TIP3   OH235741   2.050   5.917   5.172
11933TIP3    H135742   2.103   5.863   5.115
11933TIP3    H235743   1.978   5.948   5.116
11934TIP3   OH235744   3.499   5.431   1.913
11934TIP3    H135745   3.476   5.430   1.821
11934TIP3    H235746   3.566   5.362   1.922
11935TIP3   OH235747   7.793   2.287   1.690
11935TIP3    H135748   7.705   2.260   1.714
11935TIP3    H235749   7.831   2.321   1.771
11936TIP3   OH235750   7.281   3.255   3.095
11936TIP3    H135751   7.262   3.315   3.023
11936TIP3    H235752   7.374   3.236   3.086
11937TIP3   OH235753   3.010   2.304   2.078
11937TIP3    H135754   2.956   2.380   2.056
11937TIP3    H235755   2.974   2.233   2.025
11938TIP3   OH235756   0.200   0.868   6.742
11938TIP3    H135757   0.261   0.863   6.668
11938TIP3    H235758   0.230   0.800   6.802
11939TIP3   OH235759   1.203   6.359   2.063
11939TIP3    H135760   1.279   6.365   2.120
11939TIP3    H235761   1.156   6.282   2.094
11940TIP3   OH235762   1.842   1.363   1.702
11940TIP3    H135763   1.916   1.417   1.731
11940TIP3    H235764   1.814   1.403   1.619
11941TIP3   OH235765   1.562   7.522   5.181
11941TIP3    H135766   1.654   7.528   5.155
11941TIP3    H235767   1.551   7.433   5.212
11942TIP3   OH235768   5.215   6.358   1.619
11942TIP3    H135769   5.184   6.342   1.530
11942TIP3    H235770   5.143   6.328   1.675
11943TIP3   OH235771   7.497   3.812   2.516
11943TIP3    H135772   7.553   3.737   2.535
11943TIP3    H235773   7.543   3.859   2.447
11944TIP3   OH235774   0.212   4.279   1.790
11944TIP3    H135775   0.118   4.264   1.780
11944TIP3    H235776   0.232   4.348   1.728
11945TIP3   OH235777   1.002   4.001   0.905
11945TIP3    H135778   1.046   4.071   0.953
11945TIP3    H235779   0.917   3.993   0.948
11946TIP3   OH235780   5.536   4.023   1.137
11946TIP3    H135781   5.454   4.071   1.148
11946TIP3    H235782   5.595   4.086   1.095
11947TIP3   OH235783   1.656   1.204   5.009
11947TIP3    H135784   1.606   1.155   4.945
11947TIP3    H235785   1.599   1.208   5.086
11948TIP3   OH235786   2.748   5.256   1.339
11948TIP3    H135787   2.681   5.231   1.402
11948TIP3    H235788   2.819   5.293   1.391
11949TIP3   OH235789   4.602   3.734   2.489
11949TIP3    H135790   4.525   3.689   2.523
11949TIP3    H235791   4.648   3.668   2.438
11950TIP3   OH235792   8.199   3.222   0.814
11950TIP3    H135793   8.124   3.237   0.872
11950TIP3    H235794   8.194   3.293   0.750
11951TIP3   OH235795   7.116   2.716   2.863
11951TIP3    H135796   7.090   2.625   2.850
11951TIP3    H235797   7.061   2.766   2.804
11952TIP3   OH235798   1.056   7.338   1.587
11952TIP3    H135799   1.141   7.336   1.544
11952TIP3    H235800   1.007   7.406   1.542
11953TIP3   OH235801   6.217   5.853   6.133
11953TIP3    H135802   6.277   5.791   6.093
11953TIP3    H235803   6.130   5.821   6.110
11954TIP3   OH235804   2.162   1.127   5.874
11954TIP3    H135805   2.241   1.162   5.833
11954TIP3    H235806   2.092   1.186   5.844
11955TIP3   OH235807   5.220   0.871   6.455
11955TIP3    H135808   5.273   0.797   6.425
11955TIP3    H235809   5.259   0.896   6.538
11956TIP3   OH235810   0.884   1.522   5.750
11956TIP3    H135811   0.832   1.504   5.829
11956TIP3    H235812   0.820   1.544   5.683
11957TIP3   OH235813   4.196   1.882   3.506
11957TIP3    H135814   4.197   1.790   3.531
11957TIP3    H235815   4.138   1.923   3.570
11958TIP3   OH235816   4.438   1.015   4.482
11958TIP3    H135817   4.482   1.012   4.397
11958TIP3    H235818   4.392   0.930   4.487
11959TIP3   OH235819   2.926   7.450   0.967
11959TIP3    H135820   2.832   7.464   0.964
11959TIP3    H235821   2.940   7.396   1.045
11960TIP3   OH235822   2.809   4.363   3.026
11960TIP3    H135823   2.801   4.404   3.112
11960TIP3    H235824   2.897   4.387   2.996
11961TIP3   OH235825   7.521   7.521   1.682
11961TIP3    H135826   7.550   7.578   1.752
11961TIP3    H235827   7.536   7.432   1.715
11962TIP3   OH235828   7.358   2.148   3.654
11962TIP3    H135829   7.383   2.102   3.734
11962TIP3    H235830   7.271   2.185   3.673
11963TIP3   OH235831   1.138   4.798   4.118
11963TIP3    H135832   1.166   4.717   4.160
11963TIP3    H235833   1.093   4.771   4.039
11964TIP3   OH235834   4.997   0.949   5.816
11964TIP3    H135835   5.087   0.927   5.795
11964TIP3    H235836   4.999   0.979   5.907
11965TIP3   OH235837   1.721   0.124   2.808
11965TIP3    H135838   1.802   0.092   2.848
11965TIP3    H235839   1.675   0.167   2.880
11966TIP3   OH235840   0.974   1.755   0.365
11966TIP3    H135841   0.897   1.722   0.412
11966TIP3    H235842   0.941   1.830   0.316
11967TIP3   OH235843   6.844   3.214   0.064
11967TIP3    H135844   6.769   3.268   0.091
11967TIP3    H235845   6.807   3.154  -0.001
11968TIP3   OH235846   2.714   1.225   4.233
11968TIP3    H135847   2.683   1.218   4.143
11968TIP3    H235848   2.710   1.318   4.253
11969TIP3   OH235849   2.796   6.138   6.729
11969TIP3    H135850   2.832   6.065   6.779
11969TIP3    H235851   2.785   6.104   6.641
11970TIP3   OH235852   6.493   4.728   3.833
11970TIP3    H135853   6.568   4.734   3.892
11970TIP3    H235854   6.460   4.818   3.827
11971TIP3   OH235855   6.476   6.503   1.201
11971TIP3    H135856   6.551   6.450   1.229
11971TIP3    H235857   6.401   6.445   1.212
11972TIP3   OH235858   3.005   2.789   6.185
11972TIP3    H135859   2.994   2.803   6.090
11972TIP3    H235860   2.977   2.871   6.225
11973TIP3   OH235861   2.137   6.022   4.221
11973TIP3    H135862   2.042   6.013   4.223
11973TIP3    H235863   2.153   6.107   4.181
11974TIP3   OH235864   6.439   6.246   5.919
11974TIP3    H135865   6.395   6.239   6.004
11974TIP3    H235866   6.388   6.311   5.871
11975TIP3   OH235867   2.621   0.211   0.063
11975TIP3    H135868   2.630   0.172  -0.024
11975TIP3    H235869   2.532   0.189   0.090
11976TIP3   OH235870   2.704   3.926   3.212
11976TIP3    H135871   2.733   4.004   3.259
11976TIP3    H235872   2.658   3.959   3.135
11977TIP3   OH235873   2.338   5.795   5.229
11977TIP3    H135874   2.311   5.780   5.138
11977TIP3    H235875   2.272   5.749   5.281
11978TIP3   OH235876   7.979   1.855   2.621
11978TIP3    H135877   8.045   1.921   2.641
11978TIP3    H235878   7.904   1.879   2.676
11979TIP3   OH235879   0.600   1.486   1.329
11979TIP3    H135880   0.513   1.503   1.292
11979TIP3    H235881   0.627   1.403   1.290
11980TIP3   OH235882   6.697   4.483   5.931
11980TIP3    H135883   6.673   4.422   6.000
11980TIP3    H235884   6.790   4.466   5.914
11981TIP3   OH235885   7.276   1.924   0.062
11981TIP3    H135886   7.275   1.856  -0.006
11981TIP3    H235887   7.225   1.887   0.134
11982TIP3   OH235888   6.533   4.195   0.097
11982TIP3    H135889   6.589   4.214   0.022
11982TIP3    H235890   6.475   4.271   0.103
11983TIP3   OH235891   0.980   7.228   5.778
11983TIP3    H135892   0.912   7.286   5.744
11983TIP3    H235893   0.935   7.146   5.798
11984TIP3   OH235894   6.724   3.640   2.320
11984TIP3    H135895   6.759   3.561   2.280
11984TIP3    H235896   6.697   3.612   2.408
11985TIP3   OH235897   2.330   4.828   1.552
11985TIP3    H135898   2.291   4.757   1.603
11985TIP3    H235899   2.424   4.812   1.558
11986TIP3   OH235900   1.975   1.978   3.900
11986TIP3    H135901   1.903   2.016   3.850
11986TIP3    H235902   2.012   2.052   3.948
11987TIP3   OH235903   7.476   3.925   1.668
11987TIP3    H135904   7.459   4.019   1.659
11987TIP3    H235905   7.543   3.906   1.603
11988TIP3   OH235906   1.310   1.170   5.746
11988TIP3    H135907   1.315   1.210   5.833
11988TIP3    H235908   1.239   1.217   5.702
11989TIP3   OH235909   7.526   0.414   4.620
11989TIP3    H135910   7.486   0.500   4.608
11989TIP3    H235911   7.489   0.381   4.701
11990TIP3   OH235912   6.788   2.324   1.230
11990TIP3    H135913   6.718   2.346   1.169
11990TIP3    H235914   6.827   2.244   1.194
11991TIP3   OH235915   4.075   5.361   4.076
11991TIP3    H135916   4.129   5.372   4.154
11991TIP3    H235917   3.986   5.377   4.107
11992TIP3   OH235918   3.770   2.504   3.714
11992TIP3    H135919   3.772   2.419   3.671
11992TIP3    H235920   3.750   2.483   3.806
11993TIP3   OH235921   7.601   4.818   1.026
11993TIP3    H135922   7.584   4.785   0.937
11993TIP3    H235923   7.537   4.889   1.037
11994TIP3   OH235924   6.736   3.635   1.948
11994TIP3    H135925   6.812   3.633   2.006
11994TIP3    H235926   6.756   3.702   1.883
11995TIP3   OH235927   6.072   2.737   3.473
11995TIP3    H135928   5.988   2.704   3.504
11995TIP3    H235929   6.049   2.794   3.399
11996TIP3   OH235930   5.179   0.534   0.146
11996TIP3    H135931   5.192   0.501   0.057
11996TIP3    H235932   5.115   0.473   0.184
11997TIP3   OH235933   6.693   6.103   6.556
11997TIP3    H135934   6.669   6.015   6.526
11997TIP3    H235935   6.632   6.161   6.509
11998TIP3   OH235936   2.693   4.514   6.694
11998TIP3    H135937   2.681   4.448   6.625
11998TIP3    H235938   2.668   4.597   6.654
11999TIP3   OH235939   5.187   6.461   3.304
11999TIP3    H135940   5.132   6.512   3.245
11999TIP3    H235941   5.215   6.386   3.252
12000TIP3   OH235942   5.532   0.473   5.906
12000TIP3    H135943   5.504   0.389   5.871
12000TIP3    H235944   5.451   0.521   5.923
12001TIP3   OH235945   0.405   5.569   4.046
12001TIP3    H135946   0.314   5.537   4.043
12001TIP3    H235947   0.440   5.531   4.127
12002TIP3   OH235948   8.144   6.852   6.346
12002TIP3    H135949   8.236   6.868   6.365
12002TIP3    H235950   8.144   6.810   6.260
12003TIP3   OH235951   7.272   7.057   2.964
12003TIP3    H135952   7.321   7.097   2.892
12003TIP3    H235953   7.181   7.058   2.934
12004TIP3   OH235954   2.695   3.792   0.427
12004TIP3    H135955   2.622   3.732   0.441
12004TIP3    H235956   2.725   3.814   0.515
12005TIP3   OH235957   3.284   3.737   6.670
12005TIP3    H135958   3.359   3.741   6.729
12005TIP3    H235959   3.309   3.672   6.604
12006TIP3   OH235960   1.071   5.374   2.981
12006TIP3    H135961   1.104   5.322   3.055
12006TIP3    H235962   1.108   5.461   2.995
12007TIP3   OH235963   7.084   6.286   6.264
12007TIP3    H135964   7.152   6.323   6.320
12007TIP3    H235965   7.017   6.354   6.257
12008TIP3   OH235966   5.464   3.475   4.745
12008TIP3    H135967   5.480   3.460   4.839
12008TIP3    H235968   5.428   3.392   4.714
12009TIP3   OH235969   5.646   3.221   3.527
12009TIP3    H135970   5.688   3.306   3.539
12009TIP3    H235971   5.617   3.222   3.436
12010TIP3   OH235972   3.069   3.177   1.339
12010TIP3    H135973   3.067   3.207   1.430
12010TIP3    H235974   3.021   3.244   1.290
12011TIP3   OH235975   4.246   4.330   2.180
12011TIP3    H135976   4.327   4.287   2.152
12011TIP3    H235977   4.178   4.265   2.167
12012TIP3   OH235978   1.615   6.318   5.615
12012TIP3    H135979   1.532   6.282   5.645
12012TIP3    H235980   1.654   6.249   5.562
12013TIP3   OH235981   2.688   5.859   6.009
12013TIP3    H135982   2.739   5.902   5.941
12013TIP3    H235983   2.745   5.857   6.086
12014TIP3   OH235984   0.659   0.921   1.892
12014TIP3    H135985   0.608   0.962   1.822
12014TIP3    H235986   0.732   0.981   1.907
12015TIP3   OH235987   2.261   1.517   5.473
12015TIP3    H135988   2.313   1.444   5.441
12015TIP3    H235989   2.311   1.552   5.546
12016TIP3   OH235990   2.834   4.836   2.112
12016TIP3    H135991   2.828   4.897   2.038
12016TIP3    H235992   2.925   4.840   2.139
12017TIP3   OH235993   2.392   2.752   3.544
12017TIP3    H135994   2.381   2.804   3.464
12017TIP3    H235995   2.487   2.755   3.560
12018TIP3   OH235996   3.118   7.655   2.972
12018TIP3    H135997   3.149   7.565   2.963
12018TIP3    H235998   3.166   7.690   3.046
12019TIP3   OH235999   6.084   5.788   4.771
12019TIP3    H136000   6.129   5.707   4.748
12019TIP3    H236001   6.067   5.781   4.865
12020TIP3   OH236002   4.469   5.533   5.233
12020TIP3    H136003   4.460   5.553   5.140
12020TIP3    H236004   4.497   5.615   5.273
12021TIP3   OH236005   5.150   0.627   6.687
12021TIP3    H136006   5.093   0.704   6.692
12021TIP3    H236007   5.109   0.572   6.619
12022TIP3   OH236008   3.592   5.387   0.495
12022TIP3    H136009   3.674   5.366   0.450
12022TIP3    H236010   3.619   5.411   0.583
12023TIP3   OH236011   0.865   5.879   1.310
12023TIP3    H136012   0.872   5.943   1.240
12023TIP3    H236013   0.789   5.907   1.362
12024TIP3   OH236014   5.899   4.934   3.176
12024TIP3    H136015   5.892   4.853   3.226
12024TIP3    H236016   5.888   4.908   3.085
12025TIP3   OH236017   3.745   4.656   6.119
12025TIP3    H136018   3.827   4.686   6.158
12025TIP3    H236019   3.690   4.734   6.116
12026TIP3   OH236020   7.827   1.586   4.113
12026TIP3    H136021   7.830   1.543   4.199
12026TIP3    H236022   7.734   1.585   4.090
12027TIP3   OH236023   4.845   4.535   2.208
12027TIP3    H136024   4.901   4.484   2.149
12027TIP3    H236025   4.767   4.555   2.157
12028TIP3   OH236026   4.082   7.126   0.870
12028TIP3    H136027   4.063   7.120   0.776
12028TIP3    H236028   4.151   7.062   0.885
12029TIP3   OH236029   7.019   7.873   3.609
12029TIP3    H136030   7.114   7.872   3.626
12029TIP3    H236031   6.990   7.785   3.634
12030TIP3   OH236032   3.506   6.499   2.982
12030TIP3    H136033   3.532   6.414   2.946
12030TIP3    H236034   3.454   6.539   2.912
12031TIP3   OH236035   5.214   1.440   2.014
12031TIP3    H136036   5.121   1.422   2.025
12031TIP3    H236037   5.217   1.519   1.959
12032TIP3   OH236038   5.573   5.029   5.875
12032TIP3    H136039   5.644   5.049   5.936
12032TIP3    H236040   5.500   5.001   5.931
12033TIP3   OH236041   7.973   7.640   4.508
12033TIP3    H136042   7.949   7.714   4.564
12033TIP3    H236043   7.891   7.593   4.494
12034TIP3   OH236044   7.444   1.083   1.293
12034TIP3    H136045   7.508   1.040   1.235
12034TIP3    H236046   7.493   1.106   1.371
12035TIP3   OH236047   1.505   0.436   4.725
12035TIP3    H136048   1.474   0.487   4.800
12035TIP3    H236049   1.547   0.501   4.668
12036TIP3   OH236050   5.890   6.270   3.246
12036TIP3    H136051   5.805   6.232   3.223
12036TIP3    H236052   5.905   6.244   3.337
12037TIP3   OH236053   6.652   3.968   3.382
12037TIP3    H136054   6.730   3.969   3.437
12037TIP3    H236055   6.608   3.886   3.406
12038TIP3   OH236056   0.841   2.085   6.621
12038TIP3    H136057   0.897   2.060   6.694
12038TIP3    H236058   0.802   2.003   6.591
12039TIP3   OH236059   2.256   6.871   5.423
12039TIP3    H136060   2.190   6.890   5.356
12039TIP3    H236061   2.252   6.945   5.484
12040TIP3   OH236062   6.514   6.950   6.706
12040TIP3    H136063   6.600   6.965   6.745
12040TIP3    H236064   6.531   6.891   6.633
12041TIP3   OH236065   3.632   4.073   2.832
12041TIP3    H136066   3.568   4.074   2.761
12041TIP3    H236067   3.653   4.165   2.846
12042TIP3   OH236068   5.159   1.850   3.163
12042TIP3    H136069   5.064   1.856   3.176
12042TIP3    H236070   5.177   1.906   3.088
12043TIP3   OH236071   4.865   6.046   3.892
12043TIP3    H136072   4.874   5.951   3.880
12043TIP3    H236073   4.911   6.064   3.975
12044TIP3   OH236074   7.574   5.023   1.283
12044TIP3    H136075   7.648   4.962   1.284
12044TIP3    H236076   7.549   5.032   1.375
12045TIP3   OH236077   3.160   6.376   2.113
12045TIP3    H136078   3.162   6.353   2.206
12045TIP3    H236079   3.092   6.442   2.106
12046TIP3   OH236080   0.726   4.379   4.525
12046TIP3    H136081   0.803   4.329   4.499
12046TIP3    H236082   0.698   4.425   4.445
12047TIP3   OH236083   2.015   3.762   1.809
12047TIP3    H136084   2.027   3.824   1.881
12047TIP3    H236085   2.057   3.804   1.734
12048TIP3   OH236086   7.683   7.057   3.424
12048TIP3    H136087   7.734   7.049   3.505
12048TIP3    H236088   7.703   6.977   3.376
12049TIP3   OH236089   0.695   7.738   4.407
12049TIP3    H136090   0.706   7.676   4.480
12049TIP3    H236091   0.601   7.755   4.405
12050TIP3   OH236092   1.102   7.201   3.798
12050TIP3    H136093   1.179   7.245   3.834
12050TIP3    H236094   1.118   7.108   3.816
12051TIP3   OH236095   2.530   5.186   2.543
12051TIP3    H136096   2.520   5.210   2.451
12051TIP3    H236097   2.529   5.270   2.590
12052TIP3   OH236098   1.922   3.105   5.316
12052TIP3    H136099   1.832   3.107   5.285
12052TIP3    H236100   1.959   3.026   5.278
12053TIP3   OH236101   4.426   5.060   3.993
12053TIP3    H136102   4.422   5.118   4.068
12053TIP3    H236103   4.517   5.030   3.991
12054TIP3   OH236104   4.964   0.536   1.413
12054TIP3    H136105   4.953   0.536   1.508
12054TIP3    H236106   4.923   0.618   1.385
12055TIP3   OH236107   7.862   2.340   4.846
12055TIP3    H136108   7.909   2.293   4.915
12055TIP3    H236109   7.823   2.271   4.792
12056TIP3   OH236110   0.045   5.537   1.655
12056TIP3    H136111   0.024   5.581   1.573
12056TIP3    H236112   0.131   5.497   1.641
12057TIP3   OH236113   0.977   2.585   4.062
12057TIP3    H136114   1.004   2.658   4.118
12057TIP3    H236115   0.882   2.593   4.055
12058TIP3   OH236116   0.038   2.953   1.731
12058TIP3    H136117   0.001   3.040   1.742
12058TIP3    H236118  -0.034   2.901   1.694
12059TIP3   OH236119   2.047   4.513   5.353
12059TIP3    H136120   2.042   4.503   5.258
12059TIP3    H236121   1.988   4.586   5.372
12060TIP3   OH236122   4.462   4.189   5.287
12060TIP3    H136123   4.490   4.120   5.227
12060TIP3    H236124   4.533   4.253   5.285
12061TIP3   OH236125   0.432   0.815   4.455
12061TIP3    H136126   0.443   0.814   4.550
12061TIP3    H236127   0.501   0.874   4.424
12062TIP3   OH236128   0.699   3.816   2.590
12062TIP3    H136129   0.654   3.796   2.672
12062TIP3    H236130   0.631   3.811   2.523
12063TIP3   OH236131   7.608   4.422   4.366
12063TIP3    H136132   7.663   4.361   4.317
12063TIP3    H236133   7.551   4.366   4.420
12064TIP3   OH236134   3.751   5.289   4.410
12064TIP3    H136135   3.680   5.224   4.414
12064TIP3    H236136   3.734   5.347   4.484
12065TIP3   OH236137   7.609   3.204   5.578
12065TIP3    H136138   7.703   3.207   5.560
12065TIP3    H236139   7.597   3.261   5.654
12066TIP3   OH236140   4.699   6.924   6.198
12066TIP3    H136141   4.635   6.983   6.158
12066TIP3    H236142   4.658   6.896   6.280
12067TIP3   OH236143   4.981   6.895   3.117
12067TIP3    H136144   5.028   6.963   3.068
12067TIP3    H236145   4.912   6.942   3.163
12068TIP3   OH236146   3.111   2.922   1.568
12068TIP3    H136147   3.155   2.995   1.524
12068TIP3    H236148   3.019   2.948   1.573
12069TIP3   OH236149   5.580   7.750   6.106
12069TIP3    H136150   5.540   7.810   6.168
12069TIP3    H236151   5.529   7.761   6.025
12070TIP3   OH236152   3.367   4.056   6.051
12070TIP3    H136153   3.452   4.056   6.007
12070TIP3    H236154   3.388   4.079   6.142
12071TIP3   OH236155   2.643   3.904   2.847
12071TIP3    H136156   2.648   3.898   2.752
12071TIP3    H236157   2.650   3.998   2.866
12072TIP3   OH236158   4.478   5.977   3.607
12072TIP3    H136159   4.541   6.046   3.587
12072TIP3    H236160   4.405   5.993   3.547
12073TIP3   OH236161   6.322   2.343   1.637
12073TIP3    H136162   6.301   2.279   1.569
12073TIP3    H236163   6.246   2.342   1.695
12074TIP3   OH236164   7.816   3.969   6.478
12074TIP3    H136165   7.775   3.976   6.392
12074TIP3    H236166   7.777   3.890   6.516
12075TIP3   OH236167   7.120   1.727   2.524
12075TIP3    H136168   7.102   1.765   2.610
12075TIP3    H236169   7.033   1.706   2.488
12076TIP3   OH236170   8.289   7.532   2.315
12076TIP3    H136171   8.335   7.519   2.398
12076TIP3    H236172   8.207   7.576   2.339
12077TIP3   OH236173   7.116   4.846   6.213
12077TIP3    H136174   7.080   4.761   6.189
12077TIP3    H236175   7.206   4.827   6.238
12078TIP3   OH236176   6.776   3.142   1.580
12078TIP3    H136177   6.815   3.098   1.655
12078TIP3    H236178   6.682   3.125   1.588
12079TIP3   OH236179   1.458   2.177   1.438
12079TIP3    H136180   1.528   2.205   1.379
12079TIP3    H236181   1.496   2.103   1.486
12080TIP3   OH236182   1.484   5.664   2.488
12080TIP3    H136183   1.425   5.711   2.548
12080TIP3    H236184   1.427   5.637   2.416
12081TIP3   OH236185   7.243   7.353   1.262
12081TIP3    H136186   7.151   7.364   1.240
12081TIP3    H236187   7.251   7.388   1.351
12082TIP3   OH236188   1.229   6.445   5.452
12082TIP3    H136189   1.296   6.495   5.497
12082TIP3    H236190   1.215   6.491   5.369
12083TIP3   OH236191   3.485   7.702   3.952
12083TIP3    H136192   3.552   7.684   3.887
12083TIP3    H236193   3.448   7.616   3.973
12084TIP3   OH236194   2.790   7.392   5.707
12084TIP3    H136195   2.722   7.387   5.640
12084TIP3    H236196   2.771   7.472   5.755
12085TIP3   OH236197   6.486   4.626   4.198
12085TIP3    H136198   6.508   4.538   4.167
12085TIP3    H236199   6.494   4.621   4.293
12086TIP3   OH236200   2.543   1.618   1.622
12086TIP3    H136201   2.451   1.599   1.603
12086TIP3    H236202   2.574   1.665   1.544
12087TIP3   OH236203   1.696   1.619   3.290
12087TIP3    H136204   1.752   1.627   3.213
12087TIP3    H236205   1.623   1.564   3.261
12088TIP3   OH236206   2.884   4.153   4.520
12088TIP3    H136207   2.884   4.198   4.436
12088TIP3    H236208   2.970   4.172   4.557
12089TIP3   OH236209   5.503   0.646   2.982
12089TIP3    H136210   5.508   0.676   2.891
12089TIP3    H236211   5.412   0.617   2.993
12090TIP3   OH236212   5.585   2.858   1.889
12090TIP3    H136213   5.499   2.873   1.848
12090TIP3    H236214   5.608   2.943   1.927
12091TIP3   OH236215   3.397   0.864   3.193
12091TIP3    H136216   3.367   0.896   3.108
12091TIP3    H236217   3.492   0.853   3.183
12092TIP3   OH236218   8.047   4.542   5.274
12092TIP3    H136219   7.960   4.563   5.306
12092TIP3    H236220   8.034   4.468   5.214
12093TIP3   OH236221   5.935   0.966   5.146
12093TIP3    H136222   5.946   1.061   5.139
12093TIP3    H236223   5.843   0.951   5.124
12094TIP3   OH236224   4.808   2.028   1.067
12094TIP3    H136225   4.776   1.953   1.018
12094TIP3    H236226   4.832   1.991   1.153
12095TIP3   OH236227   3.930   4.158   2.909
12095TIP3    H136228   3.896   4.138   2.822
12095TIP3    H236229   3.979   4.240   2.898
12096TIP3   OH236230   2.450   3.663   0.451
12096TIP3    H136231   2.492   3.612   0.520
12096TIP3    H236232   2.357   3.660   0.472
12097TIP3   OH236233   3.728   5.634   4.977
12097TIP3    H136234   3.783   5.617   5.054
12097TIP3    H236235   3.658   5.691   5.010
12098TIP3   OH236236   5.988   2.600   3.783
12098TIP3    H136237   5.900   2.637   3.770
12098TIP3    H236238   5.971   2.510   3.810
12099TIP3   OH236239   1.297   2.765   3.975
12099TIP3    H136240   1.236   2.801   4.039
12099TIP3    H236241   1.379   2.812   3.990
12100TIP3   OH236242   8.252   0.203   5.646
12100TIP3    H136243   8.329   0.254   5.671
12100TIP3    H236244   8.188   0.222   5.714
12101TIP3   OH236245   1.874   0.208   6.690
12101TIP3    H136246   1.867   0.299   6.664
12101TIP3    H236247   1.906   0.211   6.780
12102TIP3   OH236248   7.241   3.717   4.667
12102TIP3    H136249   7.165   3.703   4.611
12102TIP3    H236250   7.248   3.638   4.720
12103TIP3   OH236251   7.649   6.599   6.405
12103TIP3    H136252   7.674   6.516   6.364
12103TIP3    H236253   7.727   6.655   6.395
12104TIP3   OH236254   6.187   0.133   1.229
12104TIP3    H136255   6.190   0.228   1.243
12104TIP3    H236256   6.145   0.099   1.308
12105TIP3   OH236257   1.634   7.085   5.035
12105TIP3    H136258   1.611   7.159   4.979
12105TIP3    H236259   1.729   7.088   5.041
12106TIP3   OH236260   5.281   1.710   4.715
12106TIP3    H136261   5.339   1.784   4.694
12106TIP3    H236262   5.248   1.730   4.803
12107TIP3   OH236263   2.406   4.270   3.005
12107TIP3    H136264   2.321   4.242   3.038
12107TIP3    H236265   2.390   4.358   2.969
12108TIP3   OH236266   6.215   5.324   1.318
12108TIP3    H136267   6.170   5.240   1.308
12108TIP3    H236268   6.176   5.380   1.250
12109TIP3   OH236269   4.631   3.156   3.577
12109TIP3    H136270   4.617   3.061   3.578
12109TIP3    H236271   4.573   3.188   3.507
12110TIP3   OH236272   2.805   7.159   1.488
12110TIP3    H136273   2.838   7.150   1.577
12110TIP3    H236274   2.827   7.076   1.446
12111TIP3   OH236275   7.912   7.603   5.491
12111TIP3    H136276   7.969   7.653   5.548
12111TIP3    H236277   7.888   7.526   5.542
12112TIP3   OH236278   5.249   7.145   5.726
12112TIP3    H136279   5.272   7.198   5.650
12112TIP3    H236280   5.280   7.057   5.703
12113TIP3   OH236281   5.212   0.466   2.956
12113TIP3    H136282   5.236   0.399   3.020
12113TIP3    H236283   5.135   0.432   2.912
12114TIP3   OH236284   0.383   4.901   3.797
12114TIP3    H136285   0.357   4.940   3.714
12114TIP3    H236286   0.317   4.931   3.860
12115TIP3   OH236287   2.083   0.417   2.711
12115TIP3    H136288   2.072   0.383   2.622
12115TIP3    H236289   2.140   0.353   2.754
12116TIP3   OH236290   0.826   3.659   1.022
12116TIP3    H136291   0.827   3.700   1.109
12116TIP3    H236292   0.795   3.728   0.964
12117TIP3   OH236293   3.951   0.001   6.118
12117TIP3    H136294   4.012   0.074   6.107
12117TIP3    H236295   3.987  -0.069   6.064
12118TIP3   OH236296   6.427   4.374   3.549
12118TIP3    H136297   6.508   4.340   3.588
12118TIP3    H236298   6.411   4.457   3.593
12119TIP3   OH236299   2.945   5.348   0.670
12119TIP3    H136300   2.864   5.316   0.630
12119TIP3    H236301   2.948   5.304   0.755
12120TIP3   OH236302   1.451   7.296   3.552
12120TIP3    H136303   1.454   7.228   3.619
12120TIP3    H236304   1.361   7.328   3.553
12121TIP3   OH236305   7.505   7.388   2.701
12121TIP3    H136306   7.432   7.446   2.722
12121TIP3    H236307   7.542   7.365   2.786
12122TIP3   OH236308   7.959   5.249   1.119
12122TIP3    H136309   7.965   5.199   1.038
12122TIP3    H236310   7.939   5.183   1.186
12123TIP3   OH236311   7.647   2.617   3.127
12123TIP3    H136312   7.579   2.682   3.147
12123TIP3    H236313   7.729   2.658   3.156
12124TIP3   OH236314   2.297   4.766   5.355
12124TIP3    H136315   2.309   4.859   5.377
12124TIP3    H236316   2.224   4.766   5.293
12125TIP3   OH236317   7.672   7.505   2.516
12125TIP3    H136318   7.749   7.541   2.561
12125TIP3    H236319   7.634   7.444   2.579
12126TIP3   OH236320   7.722   6.899   4.817
12126TIP3    H136321   7.717   6.854   4.901
12126TIP3    H236322   7.713   6.829   4.752
12127TIP3   OH236323   2.567   6.967   4.276
12127TIP3    H136324   2.485   6.929   4.306
12127TIP3    H236325   2.542   7.047   4.229
12128TIP3   OH236326   6.512   1.087   2.396
12128TIP3    H136327   6.426   1.091   2.354
12128TIP3    H236328   6.529   0.994   2.408
12129TIP3   OH236329   4.172   7.344   3.926
12129TIP3    H136330   4.133   7.321   3.841
12129TIP3    H236331   4.233   7.273   3.944
12130TIP3   OH236332   1.189   5.294   2.223
12130TIP3    H136333   1.202   5.238   2.146
12130TIP3    H236334   1.159   5.234   2.291
12131TIP3   OH236335   4.420   5.370   2.174
12131TIP3    H136336   4.439   5.463   2.190
12131TIP3    H236337   4.375   5.341   2.254
12132TIP3   OH236338   5.145   3.426   2.072
12132TIP3    H136339   5.238   3.412   2.060
12132TIP3    H236340   5.103   3.357   2.022
12133TIP3   OH236341   8.248   7.293   2.693
12133TIP3    H136342   8.245   7.229   2.764
12133TIP3    H236343   8.267   7.241   2.615
12134TIP3   OH236344   6.710   1.212   4.610
12134TIP3    H136345   6.645   1.186   4.675
12134TIP3    H236346   6.660   1.236   4.532
12135TIP3   OH236347   0.260   0.797   1.793
12135TIP3    H136348   0.191   0.861   1.808
12135TIP3    H236349   0.302   0.787   1.878
12136TIP3   OH236350   4.613   0.296   2.303
12136TIP3    H136351   4.541   0.234   2.304
12136TIP3    H236352   4.691   0.242   2.291
12137TIP3   OH236353   6.425   2.558   1.474
12137TIP3    H136354   6.413   2.503   1.551
12137TIP3    H236355   6.388   2.507   1.402
12138TIP3   OH236356   7.818   6.631   4.632
12138TIP3    H136357   7.731   6.671   4.642
12138TIP3    H236358   7.815   6.554   4.689
12139TIP3   OH236359   3.414   5.990   5.150
12139TIP3    H136360   3.332   6.037   5.135
12139TIP3    H236361   3.456   5.986   5.065
12140TIP3   OH236362   6.739   5.210   2.123
12140TIP3    H136363   6.672   5.213   2.191
12140TIP3    H236364   6.822   5.201   2.170
12141TIP3   OH236365   2.491   2.007   3.696
12141TIP3    H136366   2.582   1.995   3.724
12141TIP3    H236367   2.479   2.102   3.694
12142TIP3   OH236368   3.209   0.516   5.710
12142TIP3    H136369   3.299   0.486   5.702
12142TIP3    H236370   3.213   0.609   5.687
12143TIP3   OH236371   1.252   3.084   3.293
12143TIP3    H136372   1.161   3.061   3.270
12143TIP3    H236373   1.280   3.141   3.222
12144TIP3   OH236374   1.490   2.931   4.103
12144TIP3    H136375   1.413   2.984   4.082
12144TIP3    H236376   1.501   2.941   4.198
12145TIP3   OH236377   4.410   2.436   4.815
12145TIP3    H136378   4.406   2.342   4.797
12145TIP3    H236379   4.328   2.455   4.860
12146TIP3   OH236380   1.025   4.551   1.825
12146TIP3    H136381   1.019   4.553   1.920
12146TIP3    H236382   1.107   4.504   1.807
12147TIP3   OH236383   6.793   3.966   4.906
12147TIP3    H136384   6.802   3.963   5.002
12147TIP3    H236385   6.704   3.996   4.891
12148TIP3   OH236386   7.626   2.096   5.968
12148TIP3    H136387   7.532   2.080   5.974
12148TIP3    H236388   7.664   2.044   6.039
12149TIP3   OH236389   7.164   0.777   4.595
12149TIP3    H136390   7.078   0.736   4.584
12149TIP3    H236391   7.160   0.855   4.540
12150TIP3   OH236392   4.938   5.344   5.573
12150TIP3    H136393   5.012   5.296   5.611
12150TIP3    H236394   4.874   5.276   5.551
12151TIP3   OH236395   4.894   3.954   0.908
12151TIP3    H136396   4.970   3.898   0.920
12151TIP3    H236397   4.888   3.966   0.813
12152TIP3   OH236398   5.901   3.140   5.576
12152TIP3    H136399   5.869   3.217   5.529
12152TIP3    H236400   5.964   3.175   5.639
12153TIP3   OH236401   6.755   5.047   4.397
12153TIP3    H136402   6.787   4.987   4.329
12153TIP3    H236403   6.704   5.112   4.349
12154TIP3   OH236404   7.914   2.522   4.653
12154TIP3    H136405   7.965   2.462   4.598
12154TIP3    H236406   7.885   2.468   4.726
12155TIP3   OH236407   6.171   4.881   2.176
12155TIP3    H136408   6.142   4.917   2.259
12155TIP3    H236409   6.128   4.934   2.110
12156TIP3   OH236410   0.948   5.682   4.902
12156TIP3    H136411   0.958   5.777   4.908
12156TIP3    H236412   0.903   5.657   4.983
12157TIP3   OH236413   8.107   2.244   6.065
12157TIP3    H136414   8.194   2.254   6.105
12157TIP3    H236415   8.097   2.150   6.054
12158TIP3   OH236416   0.151   2.266   2.103
12158TIP3    H136417   0.103   2.343   2.076
12158TIP3    H236418   0.111   2.194   2.054
12159TIP3   OH236419   3.858   0.219   2.065
12159TIP3    H136420   3.773   0.183   2.092
12159TIP3    H236421   3.838   0.271   1.988
12160TIP3   OH236422   1.731   2.599   6.514
12160TIP3    H136423   1.818   2.604   6.553
12160TIP3    H236424   1.695   2.517   6.549
12161TIP3   OH236425   5.522   5.619   4.731
12161TIP3    H136426   5.611   5.584   4.743
12161TIP3    H236427   5.535   5.713   4.719
12162TIP3   OH236428   4.146   5.676   0.190
12162TIP3    H136429   4.053   5.690   0.206
12162TIP3    H236430   4.155   5.686   0.095
12163TIP3   OH236431   2.695   4.980   6.044
12163TIP3    H136432   2.739   4.932   5.973
12163TIP3    H236433   2.766   5.006   6.103
12164TIP3   OH236434   6.394   4.991   3.870
12164TIP3    H136435   6.408   5.078   3.907
12164TIP3    H236436   6.344   5.008   3.790
12165TIP3   OH236437   6.791   0.573   2.931
12165TIP3    H136438   6.728   0.544   2.865
12165TIP3    H236439   6.765   0.663   2.951
12166TIP3   OH236440   7.740   6.801   0.012
12166TIP3    H136441   7.768   6.748  -0.062
12166TIP3    H236442   7.812   6.862   0.027
12167TIP3   OH236443   7.645   3.340   6.396
12167TIP3    H136444   7.726   3.288   6.389
12167TIP3    H236445   7.576   3.274   6.406
12168TIP3   OH236446   6.753   6.936   2.414
12168TIP3    H136447   6.793   6.850   2.422
12168TIP3    H236448   6.661   6.922   2.437
12169TIP3   OH236449   7.948   2.074   1.632
12169TIP3    H136450   7.888   2.003   1.609
12169TIP3    H236451   7.892   2.152   1.635
12170TIP3   OH236452   3.873   3.947   0.461
12170TIP3    H136453   3.856   3.986   0.375
12170TIP3    H236454   3.954   3.899   0.450
12171TIP3   OH236455   0.118   0.847   3.385
12171TIP3    H136456   0.177   0.813   3.452
12171TIP3    H236457   0.091   0.932   3.417
12172TIP3   OH236458   3.420   5.941   4.108
12172TIP3    H136459   3.433   5.902   4.022
12172TIP3    H236460   3.479   5.891   4.166
12173TIP3   OH236461   8.055   7.082   0.361
12173TIP3    H136462   8.032   7.170   0.330
12173TIP3    H236463   8.066   7.031   0.281
12174TIP3   OH236464   7.778   1.910   1.488
12174TIP3    H136465   7.783   1.853   1.565
12174TIP3    H236466   7.792   1.852   1.414
12175TIP3   OH236467   4.263   7.027   4.639
12175TIP3    H136468   4.192   7.002   4.698
12175TIP3    H236469   4.221   7.075   4.568
12176TIP3   OH236470   1.767   1.229   6.448
12176TIP3    H136471   1.775   1.262   6.538
12176TIP3    H236472   1.689   1.272   6.413
12177TIP3   OH236473   3.097   2.075   1.686
12177TIP3    H136474   3.068   2.005   1.627
12177TIP3    H236475   3.019   2.097   1.737
12178TIP3   OH236476   3.660   1.718   5.459
12178TIP3    H136477   3.655   1.800   5.509
12178TIP3    H236478   3.754   1.704   5.447
12179TIP3   OH236479   3.664   1.175   4.475
12179TIP3    H136480   3.671   1.263   4.438
12179TIP3    H236481   3.707   1.181   4.560
12180TIP3   OH236482   1.156   5.104   5.658
12180TIP3    H136483   1.095   5.156   5.711
12180TIP3    H236484   1.179   5.030   5.714
12181TIP3   OH236485   1.084   2.075   6.230
12181TIP3    H136486   1.045   2.118   6.306
12181TIP3    H236487   1.106   1.987   6.261
12182TIP3   OH236488   8.063   1.659   2.878
12182TIP3    H136489   8.104   1.617   2.803
12182TIP3    H236490   8.090   1.750   2.872
12183TIP3   OH236491   5.743   4.247   1.760
12183TIP3    H136492   5.714   4.333   1.793
12183TIP3    H236493   5.674   4.220   1.700
12184TIP3   OH236494   0.880   1.543   4.378
12184TIP3    H136495   0.826   1.479   4.332
12184TIP3    H236496   0.818   1.591   4.434
12185TIP3   OH236497   0.635   4.053   0.736
12185TIP3    H136498   0.708   4.081   0.680
12185TIP3    H236499   0.647   4.104   0.817
12186TIP3   OH236500   8.178   3.017   1.187
12186TIP3    H136501   8.130   2.946   1.146
12186TIP3    H236502   8.263   3.017   1.143
12187TIP3   OH236503   3.392   6.856   5.247
12187TIP3    H136504   3.301   6.837   5.224
12187TIP3    H236505   3.443   6.798   5.190
12188TIP3   OH236506   2.832   4.407   6.432
12188TIP3    H136507   2.900   4.468   6.462
12188TIP3    H236508   2.763   4.464   6.398
12189TIP3   OH236509   0.696   0.670   3.251
12189TIP3    H136510   0.766   0.720   3.210
12189TIP3    H236511   0.671   0.604   3.185
12190TIP3   OH236512   7.112   2.694   3.158
12190TIP3    H136513   7.107   2.729   3.069
12190TIP3    H236514   7.150   2.607   3.148
12191TIP3   OH236515   5.749   1.919   5.603
12191TIP3    H136516   5.721   1.996   5.554
12191TIP3    H236517   5.822   1.883   5.553
12192TIP3   OH236518   5.162   4.792   3.770
12192TIP3    H136519   5.148   4.697   3.768
12192TIP3    H236520   5.187   4.815   3.681
12193TIP3   OH236521   5.114   2.860   5.338
12193TIP3    H136522   5.161   2.802   5.278
12193TIP3    H236523   5.026   2.823   5.343
12194TIP3   OH236524   0.260   7.678   3.731
12194TIP3    H136525   0.264   7.681   3.635
12194TIP3    H236526   0.323   7.744   3.759
12195TIP3   OH236527   2.401   0.601   4.528
12195TIP3    H136528   2.409   0.680   4.474
12195TIP3    H236529   2.356   0.631   4.607
12196TIP3   OH236530   2.209   5.179   1.701
12196TIP3    H136531   2.185   5.115   1.634
12196TIP3    H236532   2.305   5.178   1.702
12197TIP3   OH236533   5.893   2.284   1.432
12197TIP3    H136534   5.965   2.341   1.405
12197TIP3    H236535   5.926   2.196   1.419
12198TIP3   OH236536   5.394   3.881   4.728
12198TIP3    H136537   5.441   3.849   4.650
12198TIP3    H236538   5.321   3.820   4.738
12199TIP3   OH236539   8.292   5.655   0.030
12199TIP3    H136540   8.347   5.581   0.001
12199TIP3    H236541   8.203   5.629   0.004
12200TIP3   OH236542   7.227   6.843   6.270
12200TIP3    H136543   7.296   6.891   6.223
12200TIP3    H236544   7.197   6.777   6.208
12201TIP3   OH236545   5.462   1.801   2.408
12201TIP3    H136546   5.488   1.723   2.358
12201TIP3    H236547   5.542   1.853   2.414
12202TIP3   OH236548   6.534   7.717   3.041
12202TIP3    H136549   6.498   7.629   3.054
12202TIP3    H236550   6.614   7.718   3.094
12203TIP3   OH236551   4.299   3.658   6.217
12203TIP3    H136552   4.358   3.731   6.198
12203TIP3    H236553   4.281   3.665   6.311
12204TIP3   OH236554   1.222   5.133   0.460
12204TIP3    H136555   1.233   5.044   0.426
12204TIP3    H236556   1.134   5.135   0.497
12205TIP3   OH236557   5.749   2.733   5.904
12205TIP3    H136558   5.805   2.702   5.975
12205TIP3    H236559   5.796   2.809   5.869
12206TIP3   OH236560   7.366   3.253   4.664
12206TIP3    H136561   7.426   3.198   4.713
12206TIP3    H236562   7.417   3.285   4.589
12207TIP3   OH236563   6.485   0.259   2.583
12207TIP3    H136564   6.399   0.275   2.621
12207TIP3    H236565   6.542   0.323   2.625
12208TIP3   OH236566   4.919   0.779   3.257
12208TIP3    H136567   4.927   0.874   3.255
12208TIP3    H236568   4.841   0.762   3.309
12209TIP3   OH236569   0.279   7.522   5.441
12209TIP3    H136570   0.372   7.526   5.419
12209TIP3    H236571   0.238   7.583   5.379
12210TIP3   OH236572   7.978   7.356   0.273
12210TIP3    H136573   8.011   7.387   0.357
12210TIP3    H236574   7.931   7.431   0.236
12211TIP3   OH236575   2.365   3.097   1.603
12211TIP3    H136576   2.426   3.161   1.566
12211TIP3    H236577   2.278   3.132   1.585
12212TIP3   OH236578   3.035   4.420   1.025
12212TIP3    H136579   3.040   4.492   0.962
12212TIP3    H236580   3.104   4.438   1.088
12213TIP3   OH236581   5.838   3.890   0.329
12213TIP3    H136582   5.934   3.880   0.331
12213TIP3    H236583   5.805   3.816   0.380
12214TIP3   OH236584   1.039   6.420   2.751
12214TIP3    H136585   1.048   6.398   2.844
12214TIP3    H236586   1.080   6.505   2.742
12215TIP3   OH236587   8.163   7.724   2.856
12215TIP3    H136588   8.123   7.644   2.823
12215TIP3    H236589   8.216   7.756   2.783
12216TIP3   OH236590   3.721   1.151   2.834
12216TIP3    H136591   3.676   1.077   2.794
12216TIP3    H236592   3.779   1.183   2.765
12217TIP3   OH236593   6.158   6.542   2.605
12217TIP3    H136594   6.140   6.451   2.625
12217TIP3    H236595   6.253   6.546   2.594
12218TIP3   OH236596   5.987   3.920   4.465
12218TIP3    H136597   5.893   3.934   4.452
12218TIP3    H236598   6.028   3.972   4.396
12219TIP3   OH236599   4.632   4.446   6.141
12219TIP3    H136600   4.567   4.487   6.083
12219TIP3    H236601   4.666   4.372   6.091
12220TIP3   OH236602   5.260   7.520   0.370
12220TIP3    H136603   5.316   7.446   0.346
12220TIP3    H236604   5.252   7.514   0.465
12221TIP3   OH236605   5.726   5.302   6.711
12221TIP3    H136606   5.656   5.253   6.668
12221TIP3    H236607   5.806   5.255   6.690
12222TIP3   OH236608   3.466   7.053   1.783
12222TIP3    H136609   3.557   7.064   1.811
12222TIP3    H236610   3.440   7.139   1.752
12223TIP3   OH236611   7.639   7.349   1.272
12223TIP3    H136612   7.691   7.331   1.194
12223TIP3    H236613   7.704   7.352   1.343
12224TIP3   OH236614   0.457   0.040   3.693
12224TIP3    H136615   0.395   0.009   3.627
12224TIP3    H236616   0.517   0.097   3.644
12225TIP3   OH236617   8.363   1.205   1.728
12225TIP3    H136618   8.315   1.175   1.651
12225TIP3    H236619   8.447   1.236   1.693
12226TIP3   OH236620   1.029   4.124   5.049
12226TIP3    H136621   1.072   4.045   5.017
12226TIP3    H236622   1.044   4.123   5.144
12227TIP3   OH236623   2.606   0.920   4.737
12227TIP3    H136624   2.676   0.861   4.711
12227TIP3    H236625   2.542   0.915   4.665
12228TIP3   OH236626   2.256   3.114   5.697
12228TIP3    H136627   2.181   3.096   5.753
12228TIP3    H236628   2.331   3.080   5.745
12229TIP3   OH236629   5.327   3.403   3.237
12229TIP3    H136630   5.264   3.475   3.242
12229TIP3    H236631   5.276   3.324   3.252
12230TIP3   OH236632   5.157   1.260   6.033
12230TIP3    H136633   5.247   1.281   6.010
12230TIP3    H236634   5.152   1.165   6.026
12231TIP3   OH236635   7.984   6.525   6.563
12231TIP3    H136636   8.002   6.464   6.492
12231TIP3    H236637   7.958   6.470   6.637
12232TIP3   OH236638   4.902   1.717   4.819
12232TIP3    H136639   4.808   1.701   4.804
12232TIP3    H236640   4.924   1.660   4.892
12233TIP3   OH236641   4.461   1.917   1.242
12233TIP3    H136642   4.536   1.934   1.299
12233TIP3    H236643   4.467   1.824   1.222
12234TIP3   OH236644   2.079   4.270   3.366
12234TIP3    H136645   2.074   4.176   3.347
12234TIP3    H236646   2.121   4.307   3.288
12235TIP3   OH236647   6.039   4.299   4.098
12235TIP3    H136648   5.954   4.342   4.103
12235TIP3    H236649   6.101   4.365   4.128
12236TIP3   OH236650   1.558   5.856   3.660
12236TIP3    H136651   1.483   5.801   3.683
12236TIP3    H236652   1.562   5.921   3.730
12237TIP3   OH236653   0.466   0.642   5.604
12237TIP3    H136654   0.443   0.681   5.520
12237TIP3    H236655   0.519   0.708   5.647
12238TIP3   OH236656   2.357   1.924   5.521
12238TIP3    H136657   2.263   1.939   5.534
12238TIP3    H236658   2.394   2.011   5.508
12239TIP3   OH236659   5.399   4.065   0.595
12239TIP3    H136660   5.488   4.086   0.623
12239TIP3    H236661   5.396   4.092   0.503
12240TIP3   OH236662   0.878   1.561   5.075
12240TIP3    H136663   0.953   1.517   5.115
12240TIP3    H236664   0.916   1.637   5.029
12241TIP3   OH236665   3.345   6.630   4.906
12241TIP3    H136666   3.428   6.593   4.879
12241TIP3    H236667   3.327   6.698   4.841
12242TIP3   OH236668   5.716   1.569   6.007
12242TIP3    H136669   5.800   1.530   6.032
12242TIP3    H236670   5.724   1.583   5.913
12243TIP3   OH236671   0.384   0.685   3.398
12243TIP3    H136672   0.455   0.738   3.363
12243TIP3    H236673   0.363   0.724   3.482
12244TIP3   OH236674   8.030   5.446   6.655
12244TIP3    H136675   8.011   5.494   6.736
12244TIP3    H236676   7.944   5.419   6.622
12245TIP3   OH236677   0.792   5.383   4.980
12245TIP3    H136678   0.729   5.367   4.910
12245TIP3    H236679   0.860   5.317   4.968
12246TIP3   OH236680   3.163   3.981   6.675
12246TIP3    H136681   3.198   4.001   6.762
12246TIP3    H236682   3.205   3.899   6.650
12247TIP3   OH236683   4.884   5.571   2.892
12247TIP3    H136684   4.869   5.599   2.802
12247TIP3    H236685   4.858   5.479   2.893
12248TIP3   OH236686   0.916   5.714   3.927
12248TIP3    H136687   0.997   5.766   3.926
12248TIP3    H236688   0.933   5.645   3.992
12249TIP3   OH236689   4.318   4.554   5.712
12249TIP3    H136690   4.296   4.518   5.626
12249TIP3    H236691   4.339   4.646   5.694
12250TIP3   OH236692   3.626   7.516   3.757
12250TIP3    H136693   3.656   7.468   3.835
12250TIP3    H236694   3.591   7.448   3.700
12251TIP3   OH236695   8.053   7.044   3.788
12251TIP3    H136696   8.083   7.117   3.842
12251TIP3    H236697   8.132   6.991   3.773
12252TIP3   OH236698   1.641   2.548   6.201
12252TIP3    H136699   1.684   2.627   6.169
12252TIP3    H236700   1.711   2.498   6.242
12253TIP3   OH236701   6.766   3.533   3.984
12253TIP3    H136702   6.831   3.592   3.946
12253TIP3    H236703   6.746   3.470   3.915
12254TIP3   OH236704   1.618   1.350   5.296
12254TIP3    H136705   1.686   1.324   5.359
12254TIP3    H236706   1.536   1.331   5.341
12255TIP3   OH236707   0.986   2.381   4.822
12255TIP3    H136708   0.916   2.361   4.760
12255TIP3    H236709   1.044   2.306   4.817
12256TIP3   OH236710   5.182   4.691   6.701
12256TIP3    H136711   5.119   4.682   6.772
12256TIP3    H236712   5.223   4.776   6.716
12257TIP3   OH236713   7.081   4.676   0.196
12257TIP3    H136714   7.121   4.722   0.270
12257TIP3    H236715   6.989   4.704   0.198
12258TIP3   OH236716   3.747   2.843   0.778
12258TIP3    H136717   3.727   2.855   0.685
12258TIP3    H236718   3.824   2.787   0.779
12259TIP3   OH236719   2.235   6.969   2.308
12259TIP3    H136720   2.269   6.880   2.314
12259TIP3    H236721   2.170   6.965   2.238
12260TIP3   OH236722   5.199   2.502   5.463
12260TIP3    H136723   5.128   2.439   5.462
12260TIP3    H236724   5.266   2.463   5.519
12261TIP3   OH236725   8.139   4.126   6.539
12261TIP3    H136726   8.095   4.195   6.588
12261TIP3    H236727   8.177   4.171   6.464
12262TIP3   OH236728   0.928   6.465   0.164
12262TIP3    H136729   0.879   6.528   0.216
12262TIP3    H236730   0.896   6.477   0.075
12263TIP3   OH236731   3.719   2.518   2.211
12263TIP3    H136732   3.629   2.520   2.243
12263TIP3    H236733   3.726   2.595   2.154
12264TIP3   OH236734   5.480   0.046   0.723
12264TIP3    H136735   5.439  -0.031   0.762
12264TIP3    H236736   5.560   0.013   0.683
12265TIP3   OH236737   4.833   1.367   6.015
12265TIP3    H136738   4.875   1.284   5.993
12265TIP3    H236739   4.890   1.434   5.977
12266TIP3   OH236740   3.977   3.583   0.281
12266TIP3    H136741   4.004   3.556   0.369
12266TIP3    H236742   4.002   3.675   0.276
12267TIP3   OH236743   8.063   0.271   6.736
12267TIP3    H136744   8.003   0.314   6.675
12267TIP3    H236745   8.019   0.279   6.821
12268TIP3   OH236746   2.123   1.926   2.575
12268TIP3    H136747   2.192   1.982   2.541
12268TIP3    H236748   2.044   1.956   2.531
12269TIP3   OH236749   2.664   4.753   6.554
12269TIP3    H136750   2.604   4.731   6.483
12269TIP3    H236751   2.717   4.825   6.519
12270TIP3   OH236752   7.106   2.688   6.432
12270TIP3    H136753   7.092   2.616   6.494
12270TIP3    H236754   7.053   2.664   6.356
12271TIP3   OH236755   1.807   3.058   4.814
12271TIP3    H136756   1.843   3.118   4.748
12271TIP3    H236757   1.880   3.041   4.873
12272TIP3   OH236758   3.569   2.698   3.678
12272TIP3    H136759   3.590   2.787   3.707
12272TIP3    H236760   3.654   2.655   3.669
12273TIP3   OH236761   1.513   0.307   6.193
12273TIP3    H136762   1.433   0.259   6.213
12273TIP3    H236763   1.583   0.246   6.214
12274TIP3   OH236764   7.552   2.356   0.525
12274TIP3    H136765   7.543   2.414   0.450
12274TIP3    H236766   7.466   2.358   0.567
12275TIP3   OH236767   7.027   1.341   5.782
12275TIP3    H136768   7.094   1.382   5.838
12275TIP3    H236769   6.955   1.403   5.782
12276TIP3   OH236770   4.180   5.992   4.694
12276TIP3    H136771   4.141   5.961   4.612
12276TIP3    H236772   4.171   6.088   4.690
12277TIP3   OH236773   5.297   0.653   5.923
12277TIP3    H136774   5.283   0.722   5.859
12277TIP3    H236775   5.210   0.617   5.939
12278TIP3   OH236776   5.932   1.130   4.330
12278TIP3    H136777   5.934   1.185   4.408
12278TIP3    H236778   5.899   1.046   4.361
12279TIP3   OH236779   3.129   6.653   5.623
12279TIP3    H136780   3.191   6.710   5.578
12279TIP3    H236781   3.158   6.564   5.599
12280TIP3   OH236782   3.821   5.232   0.977
12280TIP3    H136783   3.839   5.248   0.884
12280TIP3    H236784   3.735   5.189   0.978
12281TIP3   OH236785   3.680   7.000   1.416
12281TIP3    H136786   3.744   6.947   1.370
12281TIP3    H236787   3.604   7.001   1.357
12282TIP3   OH236788   3.582   0.821   4.253
12282TIP3    H136789   3.607   0.827   4.345
12282TIP3    H236790   3.608   0.732   4.227
12283TIP3   OH236791   7.999   6.950   5.896
12283TIP3    H136792   8.002   6.978   5.988
12283TIP3    H236793   8.051   7.015   5.850
12284TIP3   OH236794   3.274   3.245   1.106
12284TIP3    H136795   3.224   3.219   1.183
12284TIP3    H236796   3.245   3.334   1.087
12285TIP3   OH236797   3.248   5.324   2.017
12285TIP3    H136798   3.184   5.392   1.995
12285TIP3    H236799   3.331   5.358   1.984
12286TIP3   OH236800   5.829   6.007   4.975
12286TIP3    H136801   5.923   6.010   4.989
12286TIP3    H236802   5.795   5.959   5.051
12287TIP3   OH236803   3.527   0.067   3.701
12287TIP3    H136804   3.590   0.096   3.768
12287TIP3    H236805   3.534   0.132   3.631
12288TIP3   OH236806   0.916   1.228   5.088
12288TIP3    H136807   0.915   1.259   5.178
12288TIP3    H236808   1.006   1.198   5.073
12289TIP3   OH236809   0.587   7.432   2.058
12289TIP3    H136810   0.673   7.398   2.033
12289TIP3    H236811   0.605   7.508   2.112
12290TIP3   OH236812   1.609   6.521   1.706
12290TIP3    H136813   1.621   6.460   1.780
12290TIP3    H236814   1.587   6.465   1.632
12291TIP3   OH236815   0.950   0.819   5.549
12291TIP3    H136816   0.984   0.742   5.594
12291TIP3    H236817   1.016   0.886   5.562
12292TIP3   OH236818   2.097   0.636   3.240
12292TIP3    H136819   2.110   0.672   3.328
12292TIP3    H236820   2.067   0.547   3.254
12293TIP3   OH236821   4.515   1.903   3.534
12293TIP3    H136822   4.471   1.956   3.600
12293TIP3    H236823   4.476   1.931   3.451
12294TIP3   OH236824   4.077   5.796   5.692
12294TIP3    H136825   4.035   5.877   5.662
12294TIP3    H236826   4.012   5.728   5.676
12295TIP3   OH236827   6.427   2.790   5.443
12295TIP3    H136828   6.420   2.698   5.418
12295TIP3    H236829   6.514   2.798   5.482
12296TIP3   OH236830   7.210   2.363   1.304
12296TIP3    H136831   7.157   2.378   1.226
12296TIP3    H236832   7.165   2.293   1.352
12297TIP3   OH236833   0.759   5.291   1.267
12297TIP3    H136834   0.762   5.219   1.204
12297TIP3    H236835   0.742   5.368   1.213
12298TIP3   OH236836   0.818   5.846   2.030
12298TIP3    H136837   0.781   5.919   2.079
12298TIP3    H236838   0.758   5.773   2.047
12299TIP3   OH236839   6.983   2.007   2.633
12299TIP3    H136840   6.913   1.944   2.648
12299TIP3    H236841   6.990   2.055   2.715
12300TIP3   OH236842   3.209   5.171   5.946
12300TIP3    H136843   3.157   5.174   5.865
12300TIP3    H236844   3.291   5.215   5.924
12301TIP3   OH236845   5.763   0.075   0.091
12301TIP3    H136846   5.679   0.109   0.061
12301TIP3    H236847   5.801   0.032   0.014
12302TIP3   OH236848   1.747   3.414   2.230
12302TIP3    H136849   1.750   3.477   2.158
12302TIP3    H236850   1.674   3.357   2.209
12303TIP3   OH236851   6.112   6.410   3.601
12303TIP3    H136852   6.159   6.492   3.583
12303TIP3    H236853   6.076   6.422   3.689
12304TIP3   OH236854   4.212   6.005   2.205
12304TIP3    H136855   4.209   5.971   2.116
12304TIP3    H236856   4.203   5.928   2.261
12305TIP3   OH236857   7.307   2.338   0.644
12305TIP3    H136858   7.243   2.352   0.575
12305TIP3    H236859   7.316   2.423   0.687
12306TIP3   OH236860   5.694   1.582   2.266
12306TIP3    H136861   5.692   1.602   2.359
12306TIP3    H236862   5.673   1.489   2.261
12307TIP3   OH236863   3.571   2.608   0.680
12307TIP3    H136864   3.653   2.572   0.715
12307TIP3    H236865   3.534   2.657   0.753
12308TIP3   OH236866   7.128   3.015   6.231
12308TIP3    H136867   7.065   2.991   6.164
12308TIP3    H236868   7.086   3.087   6.279
12309TIP3   OH236869   1.495   1.619   5.029
12309TIP3    H136870   1.474   1.708   5.058
12309TIP3    H236871   1.565   1.591   5.088
12310TIP3   OH236872   0.134   2.705   2.777
12310TIP3    H136873   0.045   2.680   2.801
12310TIP3    H236874   0.129   2.722   2.683
12311TIP3   OH236875   1.344   1.278   2.239
12311TIP3    H136876   1.258   1.307   2.268
12311TIP3    H236877   1.392   1.260   2.319
12312TIP3   OH236878   1.204   6.808   5.713
12312TIP3    H136879   1.187   6.892   5.754
12312TIP3    H236880   1.161   6.744   5.769
12313TIP3   OH236881   4.345   3.463   1.137
12313TIP3    H136882   4.411   3.395   1.122
12313TIP3    H236883   4.385   3.523   1.201
12314TIP3   OH236884   0.315   6.482   1.626
12314TIP3    H136885   0.344   6.393   1.646
12314TIP3    H236886   0.347   6.499   1.538
12315TIP3   OH236887   2.451   5.472   6.134
12315TIP3    H136888   2.542   5.449   6.117
12315TIP3    H236889   2.404   5.388   6.128
12316TIP3   OH236890   3.446   1.814   1.748
12316TIP3    H136891   3.479   1.904   1.746
12316TIP3    H236892   3.524   1.760   1.740
12317TIP3   OH236893   7.443   3.754   0.648
12317TIP3    H136894   7.493   3.781   0.570
12317TIP3    H236895   7.352   3.749   0.617
12318TIP3   OH236896   2.189   1.757   0.149
12318TIP3    H136897   2.281   1.777   0.166
12318TIP3    H236898   2.142   1.838   0.171
12319TIP3   OH236899   1.336   3.575   2.607
12319TIP3    H136900   1.406   3.530   2.560
12319TIP3    H236901   1.324   3.524   2.687
12320TIP3   OH236902   1.902   2.835   5.498
12320TIP3    H136903   1.991   2.867   5.486
12320TIP3    H236904   1.909   2.740   5.486
12321TIP3   OH236905   5.699   3.166   2.092
12321TIP3    H136906   5.788   3.131   2.088
12321TIP3    H236907   5.669   3.165   2.001
12322TIP3   OH236908   5.439   3.199   2.900
12322TIP3    H136909   5.503   3.270   2.896
12322TIP3    H236910   5.479   3.133   2.956
12323TIP3   OH236911   2.930   5.117   6.137
12323TIP3    H136912   3.007   5.074   6.175
12323TIP3    H236913   2.966   5.186   6.081
12324TIP3   OH236914   2.021   3.751   4.185
12324TIP3    H136915   2.012   3.711   4.099
12324TIP3    H236916   2.044   3.842   4.167
12325TIP3   OH236917   1.796   4.629   2.877
12325TIP3    H136918   1.829   4.625   2.967
12325TIP3    H236919   1.859   4.577   2.827
12326TIP3   OH236920   4.065   4.196   5.976
12326TIP3    H136921   4.046   4.104   5.959
12326TIP3    H236922   4.005   4.220   6.046
12327TIP3   OH236923   2.672   0.005   6.132
12327TIP3    H136924   2.648   0.077   6.192
12327TIP3    H236925   2.702   0.050   6.053
12328TIP3   OH236926   3.053   2.325   0.933
12328TIP3    H136927   3.003   2.277   0.998
12328TIP3    H236928   3.145   2.306   0.954
12329TIP3   OH236929   4.657   0.416   5.371
12329TIP3    H136930   4.684   0.385   5.457
12329TIP3    H236931   4.687   0.507   5.368
12330TIP3   OH236932   8.135   7.704   3.985
12330TIP3    H136933   8.147   7.739   4.073
12330TIP3    H236934   8.207   7.742   3.934
12331TIP3   OH236935   7.844   1.438   2.280
12331TIP3    H136936   7.872   1.376   2.348
12331TIP3    H236937   7.842   1.523   2.325
12332TIP3   OH236938   5.125   7.538   3.958
12332TIP3    H136939   5.216   7.518   3.978
12332TIP3    H236940   5.075   7.465   3.996
12333TIP3   OH236941   7.390   6.971   3.457
12333TIP3    H136942   7.377   7.005   3.369
12333TIP3    H236943   7.482   6.943   3.459
12334TIP3   OH236944   4.731   4.316   5.919
12334TIP3    H136945   4.679   4.256   5.865
12334TIP3    H236946   4.789   4.359   5.857
12335TIP3   OH236947   2.923   3.058   1.025
12335TIP3    H136948   2.910   3.134   1.081
12335TIP3    H236949   2.990   3.006   1.071
12336TIP3   OH236950   0.113   6.570   4.263
12336TIP3    H136951   0.183   6.630   4.239
12336TIP3    H236952   0.132   6.547   4.354
12337TIP3   OH236953   1.657   6.698   1.500
12337TIP3    H136954   1.622   6.671   1.585
12337TIP3    H236955   1.695   6.618   1.463
12338TIP3   OH236956   3.134   2.824   4.414
12338TIP3    H136957   3.151   2.806   4.506
12338TIP3    H236958   3.144   2.739   4.371
12339TIP3   OH236959   7.821   1.052   1.349
12339TIP3    H136960   7.904   1.017   1.383
12339TIP3    H236961   7.836   1.062   1.255
12340TIP3   OH236962   4.647   1.993   5.291
12340TIP3    H136963   4.551   1.990   5.283
12340TIP3    H236964   4.675   1.902   5.279
12341TIP3   OH236965   8.021   6.851   3.134
12341TIP3    H136966   7.992   6.850   3.226
12341TIP3    H236967   7.993   6.766   3.100
12342TIP3   OH236968   0.894   7.695   2.590
12342TIP3    H136969   0.861   7.729   2.673
12342TIP3    H236970   0.889   7.770   2.530
12343TIP3   OH236971   2.907   0.686   2.192
12343TIP3    H136972   2.840   0.619   2.196
12343TIP3    H236973   2.870   0.760   2.241
12344TIP3   OH236974   3.877   5.248   2.247
12344TIP3    H136975   3.958   5.251   2.297
12344TIP3    H236976   3.809   5.236   2.314
12345TIP3   OH236977   1.230   6.935   4.827
12345TIP3    H136978   1.239   6.922   4.921
12345TIP3    H236979   1.149   6.889   4.804
12346TIP3   OH236980   5.910   0.441   3.161
12346TIP3    H136981   5.815   0.441   3.158
12346TIP3    H236982   5.932   0.527   3.197
12347TIP3   OH236983   5.132   0.024   5.085
12347TIP3    H136984   5.098  -0.064   5.101
12347TIP3    H236985   5.122   0.037   4.991
12348TIP3   OH236986   0.698   4.028   2.932
12348TIP3    H136987   0.742   4.069   3.007
12348TIP3    H236988   0.655   4.100   2.887
12349TIP3   OH236989   3.948   0.032   4.494
12349TIP3    H136990   3.969   0.110   4.547
12349TIP3    H236991   3.866   0.000   4.531
12350TIP3   OH236992   4.677   3.593   0.643
12350TIP3    H136993   4.730   3.514   0.653
12350TIP3    H236994   4.690   3.642   0.724
12351TIP3   OH236995   3.574   2.586   4.703
12351TIP3    H136996   3.668   2.594   4.720
12351TIP3    H236997   3.533   2.591   4.789
12352TIP3   OH236998   0.661   3.791   0.826
12352TIP3    H136999   0.584   3.759   0.780
12352TIP3    H237000   0.677   3.877   0.788
12353TIP3   OH237001   8.249   7.495   4.742
12353TIP3    H137002   8.198   7.427   4.697
12353TIP3    H237003   8.266   7.459   4.829
12354TIP3   OH237004   5.316   5.263   6.541
12354TIP3    H137005   5.273   5.346   6.561
12354TIP3    H237006   5.379   5.284   6.472
12355TIP3   OH237007   1.644   6.732   4.514
12355TIP3    H137008   1.561   6.739   4.560
12355TIP3    H237009   1.634   6.657   4.456
12356TIP3   OH237010   8.177   6.956   5.607
12356TIP3    H137011   8.240   7.011   5.654
12356TIP3    H237012   8.230   6.906   5.545
12357TIP3   OH237013   0.740   4.545   2.105
12357TIP3    H137014   0.777   4.473   2.155
12357TIP3    H237015   0.815   4.602   2.086
12358TIP3   OH237016   1.649   3.770   5.672
12358TIP3    H137017   1.564   3.814   5.666
12358TIP3    H237018   1.692   3.810   5.748
12359TIP3   OH237019   3.114   0.906   6.739
12359TIP3    H137020   3.209   0.915   6.736
12359TIP3    H237021   3.081   0.982   6.692
12360TIP3   OH237022   6.783   5.140   5.577
12360TIP3    H137023   6.774   5.045   5.564
12360TIP3    H237024   6.724   5.179   5.512
12361TIP3   OH237025   4.994   5.567   1.571
12361TIP3    H137026   4.962   5.583   1.660
12361TIP3    H237027   5.042   5.647   1.549
12362TIP3   OH237028   6.883   2.653   1.879
12362TIP3    H137029   6.970   2.616   1.867
12362TIP3    H237030   6.852   2.613   1.960
12363TIP3   OH237031   6.570   0.968   0.934
12363TIP3    H137032   6.625   1.042   0.904
12363TIP3    H237033   6.514   1.006   1.001
12364TIP3   OH237034   4.500   5.649   0.082
12364TIP3    H137035   4.439   5.670   0.152
12364TIP3    H237036   4.485   5.717   0.016
12365TIP3   OH237037   3.845   1.569   1.019
12365TIP3    H137038   3.844   1.662   1.045
12365TIP3    H237039   3.767   1.560   0.963
12366TIP3   OH237040   5.258   7.135   4.311
12366TIP3    H137041   5.327   7.154   4.247
12366TIP3    H237042   5.226   7.222   4.338
12367TIP3   OH237043   6.744   6.223   1.867
12367TIP3    H137044   6.757   6.297   1.927
12367TIP3    H237045   6.763   6.146   1.921
12368TIP3   OH237046   1.067   4.424   2.255
12368TIP3    H137047   1.061   4.361   2.327
12368TIP3    H237048   1.094   4.371   2.180
12369TIP3   OH237049   3.532   0.196   5.438
12369TIP3    H137050   3.508   0.255   5.367
12369TIP3    H237051   3.566   0.118   5.395
12370TIP3   OH237052   0.338   6.703   3.617
12370TIP3    H137053   0.297   6.781   3.581
12370TIP3    H237054   0.418   6.691   3.565
12371TIP3   OH237055   1.313   2.996   4.345
12371TIP3    H137056   1.282   2.912   4.379
12371TIP3    H237057   1.251   3.019   4.276
12372TIP3   OH237058   2.458   0.126   1.348
12372TIP3    H137059   2.373   0.107   1.386
12372TIP3    H237060   2.508   0.167   1.419
12373TIP3   OH237061   2.564   7.366   2.324
12373TIP3    H137062   2.515   7.285   2.308
12373TIP3    H237063   2.653   7.336   2.343
12374TIP3   OH237064   7.553   0.363   1.173
12374TIP3    H137065   7.463   0.360   1.204
12374TIP3    H237066   7.548   0.405   1.087
12375TIP3   OH237067   1.431   3.971   5.663
12375TIP3    H137068   1.416   4.039   5.596
12375TIP3    H237069   1.372   3.996   5.735
12376TIP3   OH237070   6.144   7.194   0.807
12376TIP3    H137071   6.130   7.287   0.828
12376TIP3    H237072   6.123   7.147   0.887
12377TIP3   OH237073   2.159   6.499   3.943
12377TIP3    H137074   2.242   6.533   3.977
12377TIP3    H237075   2.160   6.523   3.850
12378TIP3   OH237076   2.619   4.245   6.567
12378TIP3    H137077   2.541   4.236   6.513
12378TIP3    H237078   2.593   4.214   6.654
12379TIP3   OH237079   5.709   5.527   1.732
12379TIP3    H137080   5.787   5.562   1.775
12379TIP3    H237081   5.673   5.601   1.684
12380TIP3   OH237082   3.888   4.674   3.340
12380TIP3    H137083   3.946   4.626   3.281
12380TIP3    H237084   3.872   4.758   3.296
12381TIP3   OH237085   0.229   3.331   0.272
12381TIP3    H137086   0.251   3.244   0.306
12381TIP3    H237087   0.134   3.335   0.276
12382TIP3   OH237088   2.987   7.503   3.362
12382TIP3    H137089   3.030   7.467   3.439
12382TIP3    H237090   2.900   7.529   3.392
12383TIP3   OH237091   5.300   0.987   3.595
12383TIP3    H137092   5.368   1.023   3.538
12383TIP3    H237093   5.346   0.921   3.648
12384TIP3   OH237094   2.708   2.947   6.449
12384TIP3    H137095   2.654   3.024   6.432
12384TIP3    H237096   2.701   2.894   6.369
12385TIP3   OH237097   7.210   6.210   1.711
12385TIP3    H137098   7.288   6.234   1.760
12385TIP3    H237099   7.147   6.182   1.778
12386TIP3   OH237100   6.920   4.144   0.471
12386TIP3    H137101   6.866   4.132   0.393
12386TIP3    H237102   6.989   4.204   0.443
12387TIP3   OH237103   8.201   3.758   4.822
12387TIP3    H137104   8.187   3.852   4.831
12387TIP3    H237105   8.167   3.736   4.736
12388TIP3   OH237106   5.940   0.338   0.931
12388TIP3    H137107   5.975   0.406   0.873
12388TIP3    H237108   5.875   0.384   0.985
12389TIP3   OH237109   1.964   7.296   4.436
12389TIP3    H137110   1.887   7.287   4.492
12389TIP3    H237111   1.966   7.215   4.385
12390TIP3   OH237112   1.260   3.892   2.413
12390TIP3    H137113   1.302   3.942   2.483
12390TIP3    H237114   1.309   3.916   2.333
12391TIP3   OH237115   6.933   0.563   0.845
12391TIP3    H137116   6.887   0.546   0.762
12391TIP3    H237117   6.978   0.481   0.865
12392TIP3   OH237118   5.152   6.141   1.039
12392TIP3    H137119   5.207   6.214   1.071
12392TIP3    H237120   5.063   6.167   1.063
12393TIP3   OH237121   4.377   3.371   1.954
12393TIP3    H137122   4.376   3.286   1.997
12393TIP3    H237123   4.311   3.364   1.885
12394TIP3   OH237124   4.925   6.102   1.409
12394TIP3    H137125   4.962   6.146   1.486
12394TIP3    H237126   4.842   6.147   1.394
12395TIP3   OH237127   4.880   4.682   4.056
12395TIP3    H137128   4.866   4.609   4.117
12395TIP3    H237129   4.974   4.699   4.060
12396TIP3   OH237130   5.684   0.794   2.720
12396TIP3    H137131   5.700   0.709   2.679
12396TIP3    H237132   5.768   0.819   2.759
12397TIP3   OH237133   0.937   0.377   0.394
12397TIP3    H137134   0.945   0.461   0.347
12397TIP3    H237135   0.873   0.327   0.342
12398TIP3   OH237136   4.996   4.848   1.093
12398TIP3    H137137   4.978   4.938   1.063
12398TIP3    H237138   4.923   4.796   1.059
12399TIP3   OH237139   1.775   7.289   3.560
12399TIP3    H137140   1.741   7.203   3.586
12399TIP3    H237141   1.703   7.329   3.512
12400TIP3   OH237142   7.844   2.974   0.163
12400TIP3    H137143   7.921   3.021   0.131
12400TIP3    H237144   7.770   3.033   0.146
12401TIP3   OH237145   1.829   5.534   1.578
12401TIP3    H137146   1.797   5.509   1.491
12401TIP3    H237147   1.884   5.461   1.606
12402TIP3   OH237148   3.655   1.367   0.420
12402TIP3    H137149   3.644   1.463   0.418
12402TIP3    H237150   3.567   1.334   0.440
12403TIP3   OH237151   6.377   5.497   0.429
12403TIP3    H137152   6.394   5.570   0.369
12403TIP3    H237153   6.371   5.420   0.371
12404TIP3   OH237154   5.398   7.516   6.194
12404TIP3    H137155   5.423   7.473   6.275
12404TIP3    H237156   5.395   7.609   6.216
12405TIP3   OH237157   4.621   2.857   2.870
12405TIP3    H137158   4.650   2.769   2.845
12405TIP3    H237159   4.559   2.882   2.801
12406TIP3   OH237160   6.597   2.764   5.936
12406TIP3    H137161   6.612   2.853   5.969
12406TIP3    H237162   6.510   2.767   5.897
12407TIP3   OH237163   4.735   2.505   0.607
12407TIP3    H137164   4.803   2.486   0.671
12407TIP3    H237165   4.665   2.546   0.658
12408TIP3   OH237166   1.916   5.961   1.964
12408TIP3    H137167   1.846   5.903   1.934
12408TIP3    H237168   1.874   6.017   2.029
12409TIP3   OH237169   0.688   6.846   5.503
12409TIP3    H137170   0.735   6.765   5.523
12409TIP3    H237171   0.753   6.903   5.462
12410TIP3   OH237172   3.836   0.813   1.023
12410TIP3    H137173   3.760   0.870   1.011
12410TIP3    H237174   3.837   0.757   0.946
12411TIP3   OH237175   1.342   5.511   6.115
12411TIP3    H137176   1.411   5.570   6.085
12411TIP3    H237177   1.371   5.481   6.201
12412TIP3   OH237178   5.507   3.804   0.708
12412TIP3    H137179   5.416   3.809   0.679
12412TIP3    H237180   5.502   3.777   0.799
12413TIP3   OH237181   6.923   6.200   3.624
12413TIP3    H137182   6.883   6.172   3.542
12413TIP3    H237183   6.945   6.292   3.611
12414TIP3   OH237184   0.265   1.794   6.174
12414TIP3    H137185   0.338   1.768   6.230
12414TIP3    H237186   0.187   1.771   6.224
12415TIP3   OH237187   0.681   7.258   0.004
12415TIP3    H137188   0.634   7.198   0.062
12415TIP3    H237189   0.773   7.247   0.028
12416TIP3   OH237190   7.519   2.755   3.383
12416TIP3    H137191   7.486   2.813   3.314
12416TIP3    H237192   7.449   2.692   3.397
12417TIP3   OH237193   4.454   4.161   6.282
12417TIP3    H137194   4.372   4.210   6.273
12417TIP3    H237195   4.517   4.210   6.230
12418TIP3   OH237196   3.357   1.978   1.969
12418TIP3    H137197   3.405   1.935   2.040
12418TIP3    H237198   3.297   2.037   2.014
12419TIP3   OH237199   2.919   4.816   6.293
12419TIP3    H137200   2.871   4.740   6.261
12419TIP3    H237201   3.011   4.789   6.291
12420TIP3   OH237202   1.656   1.963   5.991
12420TIP3    H137203   1.713   2.016   6.047
12420TIP3    H237204   1.616   2.027   5.932
12421TIP3   OH237205   6.152   3.676   0.868
12421TIP3    H137206   6.146   3.771   0.856
12421TIP3    H237207   6.148   3.663   0.962
12422TIP3   OH237208   6.359   2.794   0.682
12422TIP3    H137209   6.297   2.770   0.612
12422TIP3    H237210   6.319   2.761   0.762
12423TIP3   OH237211   2.881   5.758   2.968
12423TIP3    H137212   2.918   5.778   2.882
12423TIP3    H237213   2.868   5.844   3.008
12424TIP3   OH237214   2.180   4.771   2.204
12424TIP3    H137215   2.252   4.831   2.225
12424TIP3    H237216   2.110   4.797   2.264
12425TIP3   OH237217   7.405   0.932   5.259
12425TIP3    H137218   7.387   0.838   5.254
12425TIP3    H237219   7.332   0.973   5.212
12426TIP3   OH237220   6.030   6.649   2.348
12426TIP3    H137221   6.030   6.572   2.292
12426TIP3    H237222   6.057   6.617   2.434
12427TIP3   OH237223   1.615   1.126   3.378
12427TIP3    H137224   1.553   1.056   3.397
12427TIP3    H237225   1.641   1.111   3.287
12428TIP3   OH237226   4.816   5.915   0.318
12428TIP3    H137227   4.729   5.950   0.297
12428TIP3    H237228   4.846   5.876   0.236
12429TIP3   OH237229   7.476   2.508   1.867
12429TIP3    H137230   7.463   2.465   1.951
12429TIP3    H237231   7.510   2.439   1.810
12430TIP3   OH237232   2.332   0.926   1.656
12430TIP3    H137233   2.306   0.950   1.745
12430TIP3    H237234   2.257   0.949   1.601
12431TIP3   OH237235   2.983   0.855   3.094
12431TIP3    H137236   3.067   0.823   3.061
12431TIP3    H237237   2.980   0.824   3.185
12432TIP3   OH237238   6.910   2.905   2.133
12432TIP3    H137239   6.962   2.825   2.142
12432TIP3    H237240   6.975   2.975   2.128
12433TIP3   OH237241   5.284   7.345   2.728
12433TIP3    H137242   5.227   7.355   2.652
12433TIP3    H237243   5.336   7.267   2.710
12434TIP3   OH237244   1.799   1.513   1.471
12434TIP3    H137245   1.774   1.435   1.422
12434TIP3    H237246   1.767   1.586   1.417
12435TIP3   OH237247   8.090   2.353   4.507
12435TIP3    H137248   8.104   2.262   4.481
12435TIP3    H237249   8.120   2.405   4.432
12436TIP3   OH237250   3.434   0.977   4.776
12436TIP3    H137251   3.397   0.960   4.689
12436TIP3    H237252   3.460   0.891   4.809
12437TIP3   OH237253   4.462   0.121   4.098
12437TIP3    H137254   4.401   0.192   4.079
12437TIP3    H237255   4.466   0.070   4.017
12438TIP3   OH237256   1.633   2.906   0.288
12438TIP3    H137257   1.542   2.877   0.281
12438TIP3    H237258   1.663   2.911   0.198
12439TIP3   OH237259   0.749   0.037   6.447
12439TIP3    H137260   0.677   0.097   6.468
12439TIP3    H237261   0.751  -0.024   6.521
12440TIP3   OH237262   8.270   4.924   6.703
12440TIP3    H137263   8.342   4.911   6.642
12440TIP3    H237264   8.202   4.968   6.652
12441TIP3   OH237265   0.115   4.908   5.340
12441TIP3    H137266   0.066   4.986   5.316
12441TIP3    H237267   0.145   4.925   5.429
12442TIP3   OH237268   2.628   6.849   1.038
12442TIP3    H137269   2.551   6.795   1.021
12442TIP3    H237270   2.683   6.795   1.095
12443TIP3   OH237271   1.625   7.086   4.207
12443TIP3    H137272   1.634   7.069   4.300
12443TIP3    H237273   1.705   7.050   4.168
12444TIP3   OH237274   5.784   2.920   2.880
12444TIP3    H137275   5.729   2.892   2.807
12444TIP3    H237276   5.803   2.839   2.927
12445TIP3   OH237277   1.601   1.612   4.069
12445TIP3    H137278   1.507   1.596   4.079
12445TIP3    H237279   1.642   1.550   4.129
12446TIP3   OH237280   0.209   7.004   4.556
12446TIP3    H137281   0.150   7.036   4.624
12446TIP3    H237282   0.162   7.018   4.474
12447TIP3   OH237283   4.364   5.670   1.940
12447TIP3    H137284   4.362   5.762   1.912
12447TIP3    H237285   4.457   5.649   1.945
12448TIP3   OH237286   5.457   1.293   1.853
12448TIP3    H137287   5.537   1.344   1.837
12448TIP3    H237288   5.456   1.279   1.948
12449TIP3   OH237289   7.395   7.621   5.562
12449TIP3    H137290   7.454   7.552   5.590
12449TIP3    H237291   7.450   7.679   5.508
12450TIP3   OH237292   6.901   2.826   4.584
12450TIP3    H137293   6.983   2.862   4.619
12450TIP3    H237294   6.878   2.756   4.645
12451TIP3   OH237295   5.274   3.959   0.823
12451TIP3    H137296   5.315   3.990   0.743
12451TIP3    H237297   5.250   4.039   0.870
12452TIP3   OH237298   6.671   0.484   4.746
12452TIP3    H137299   6.642   0.415   4.687
12452TIP3    H237300   6.734   0.535   4.695
12453TIP3   OH237301   7.891   5.454   5.707
12453TIP3    H137302   7.983   5.460   5.681
12453TIP3    H237303   7.866   5.364   5.686
12454TIP3   OH237304   4.061   3.312   2.723
12454TIP3    H137305   4.109   3.243   2.677
12454TIP3    H237306   4.116   3.335   2.797
12455TIP3   OH237307   1.973   3.271   2.614
12455TIP3    H137308   1.908   3.305   2.676
12455TIP3    H237309   1.983   3.341   2.550
12456TIP3   OH237310   7.543   5.588   0.524
12456TIP3    H137311   7.599   5.554   0.454
12456TIP3    H237312   7.527   5.679   0.500
12457TIP3   OH237313   0.472   2.622   5.202
12457TIP3    H137314   0.560   2.623   5.239
12457TIP3    H237315   0.485   2.618   5.108
12458TIP3   OH237316   1.834   6.244   4.044
12458TIP3    H137317   1.909   6.223   3.988
12458TIP3    H237318   1.814   6.162   4.088
12459TIP3   OH237319   5.144   7.537   1.804
12459TIP3    H137320   5.139   7.449   1.840
12459TIP3    H237321   5.064   7.580   1.834
12460TIP3   OH237322   2.596   4.818   0.357
12460TIP3    H137323   2.652   4.778   0.424
12460TIP3    H237324   2.527   4.861   0.406
12461TIP3   OH237325   4.459   0.316   1.442
12461TIP3    H137326   4.498   0.237   1.479
12461TIP3    H237327   4.486   0.387   1.501
12462TIP3   OH237328   0.364   1.707   2.591
12462TIP3    H137329   0.423   1.776   2.620
12462TIP3    H237330   0.277   1.747   2.595
12463TIP3   OH237331   1.659   0.294   0.841
12463TIP3    H137332   1.617   0.377   0.817
12463TIP3    H237333   1.695   0.310   0.928
12464TIP3   OH237334   1.559   2.674   1.564
12464TIP3    H137335   1.468   2.653   1.586
12464TIP3    H237336   1.606   2.664   1.646
12465TIP3   OH237337   2.481   0.708   5.327
12465TIP3    H137338   2.543   0.635   5.324
12465TIP3    H237339   2.423   0.693   5.252
12466TIP3   OH237340   5.020   1.255   3.849
12466TIP3    H137341   4.956   1.297   3.906
12466TIP3    H237342   5.084   1.324   3.831
12467TIP3   OH237343   6.818   2.701   1.503
12467TIP3    H137344   6.798   2.732   1.415
12467TIP3    H237345   6.841   2.609   1.491
12468TIP3   OH237346   1.084   5.417   1.993
12468TIP3    H137347   1.048   5.329   1.988
12468TIP3    H237348   1.138   5.416   2.072
12469TIP3   OH237349   6.272   3.843   1.203
12469TIP3    H137350   6.319   3.781   1.258
12469TIP3    H237351   6.201   3.792   1.164
12470TIP3   OH237352   6.710   5.267   3.680
12470TIP3    H137353   6.646   5.275   3.750
12470TIP3    H237354   6.673   5.318   3.607
12471TIP3   OH237355   1.796   5.361   5.288
12471TIP3    H137356   1.832   5.290   5.340
12471TIP3    H237357   1.835   5.440   5.325
12472TIP3   OH237358   0.118   0.438   3.902
12472TIP3    H137359   0.172   0.408   3.828
12472TIP3    H237360   0.054   0.369   3.915
12473TIP3   OH237361   7.306   1.157   6.400
12473TIP3    H137362   7.340   1.067   6.403
12473TIP3    H237363   7.264   1.170   6.485
12474TIP3   OH237364   4.248   5.762   2.931
12474TIP3    H137365   4.227   5.698   2.863
12474TIP3    H237366   4.231   5.847   2.889
12475TIP3   OH237367   4.706   6.187   6.532
12475TIP3    H137368   4.710   6.155   6.442
12475TIP3    H237369   4.798   6.189   6.560
12476TIP3   OH237370   5.169   4.662   0.516
12476TIP3    H137371   5.073   4.662   0.526
12476TIP3    H237372   5.202   4.647   0.604
12477TIP3   OH237373   4.043   2.546   2.311
12477TIP3    H137374   4.088   2.508   2.386
12477TIP3    H237375   4.074   2.636   2.306
12478TIP3   OH237376   5.225   1.279   1.196
12478TIP3    H137377   5.320   1.280   1.193
12478TIP3    H237378   5.200   1.372   1.198
12479TIP3   OH237379   0.985   1.263   0.638
12479TIP3    H137380   1.011   1.334   0.580
12479TIP3    H237381   0.933   1.205   0.583
12480TIP3   OH237382   3.027   1.490   2.676
12480TIP3    H137383   2.948   1.448   2.709
12480TIP3    H237384   3.078   1.419   2.637
12481TIP3   OH237385   6.817   5.033   4.897
12481TIP3    H137386   6.832   5.055   4.805
12481TIP3    H237387   6.739   5.082   4.921
12482TIP3   OH237388   2.506   2.698   4.857
12482TIP3    H137389   2.583   2.648   4.884
12482TIP3    H237390   2.456   2.711   4.938
12483TIP3   OH237391   7.574   7.220   6.161
12483TIP3    H137392   7.486   7.258   6.155
12483TIP3    H237393   7.568   7.158   6.234
12484TIP3   OH237394   0.874   1.768   2.113
12484TIP3    H137395   0.850   1.677   2.127
12484TIP3    H237396   0.797   1.807   2.072
12485TIP3   OH237397   2.514   4.818   6.782
12485TIP3    H137398   2.585   4.816   6.719
12485TIP3    H237399   2.485   4.909   6.782
12486TIP3   OH237400   6.363   0.403   1.985
12486TIP3    H137401   6.436   0.341   1.973
12486TIP3    H237402   6.289   0.347   2.009
12487TIP3   OH237403   4.928   3.143   3.450
12487TIP3    H137404   4.873   3.167   3.525
12487TIP3    H237405   4.870   3.152   3.374
12488TIP3   OH237406   1.940   2.305   3.158
12488TIP3    H137407   1.987   2.311   3.075
12488TIP3    H237408   1.964   2.385   3.205
12489TIP3   OH237409   4.508   4.914   0.131
12489TIP3    H137410   4.507   4.996   0.181
12489TIP3    H237411   4.448   4.929   0.058
12490TIP3   OH237412   5.026   2.643   1.983
12490TIP3    H137413   4.997   2.698   1.910
12490TIP3    H237414   4.945   2.608   2.021
12491TIP3   OH237415   7.725   3.354   5.879
12491TIP3    H137416   7.689   3.275   5.919
12491TIP3    H237417   7.649   3.398   5.841
12492TIP3   OH237418   1.662   4.167   4.434
12492TIP3    H137419   1.729   4.225   4.400
12492TIP3    H237420   1.653   4.193   4.526
12493TIP3   OH237421   4.072   0.786   2.280
12493TIP3    H137422   4.032   0.789   2.193
12493TIP3    H237423   4.003   0.755   2.338
12494TIP3   OH237424   1.535   6.823   2.424
12494TIP3    H137425   1.609   6.844   2.481
12494TIP3    H237426   1.535   6.893   2.358
12495TIP3   OH237427   3.398   3.097   1.642
12495TIP3    H137428   3.395   3.120   1.549
12495TIP3    H237429   3.454   3.020   1.646
12496TIP3   OH237430   5.886   7.058   3.359
12496TIP3    H137431   5.974   7.018   3.363
12496TIP3    H237432   5.902   7.148   3.333
12497TIP3   OH237433   7.216   4.031   3.153
12497TIP3    H137434   7.246   3.943   3.175
12497TIP3    H237435   7.170   4.021   3.069
12498TIP3   OH237436   7.483   6.168   5.045
12498TIP3    H137437   7.557   6.111   5.025
12498TIP3    H237438   7.428   6.116   5.105
12499TIP3   OH237439   1.424   5.177   1.469
12499TIP3    H137440   1.462   5.173   1.381
12499TIP3    H237441   1.334   5.147   1.458
12500TIP3   OH237442   3.387   5.067   6.681
12500TIP3    H137443   3.445   4.998   6.713
12500TIP3    H237444   3.350   5.106   6.760
12501TIP3   OH237445   0.623   1.880   0.312
12501TIP3    H137446   0.580   1.805   0.272
12501TIP3    H237447   0.697   1.898   0.254
12502TIP3   OH237448   4.257   3.806   2.910
12502TIP3    H137449   4.208   3.791   2.829
12502TIP3    H237450   4.192   3.793   2.980
12503TIP3   OH237451   4.608   0.417   4.991
12503TIP3    H137452   4.665   0.349   4.955
12503TIP3    H237453   4.526   0.408   4.941
12504TIP3   OH237454   1.795   2.102   3.694
12504TIP3    H137455   1.727   2.065   3.749
12504TIP3    H237456   1.797   2.195   3.717
12505TIP3   OH237457   0.163   5.719   6.215
12505TIP3    H137458   0.150   5.649   6.279
12505TIP3    H237459   0.159   5.800   6.266
12506TIP3   OH237460   0.639   0.673   2.611
12506TIP3    H137461   0.570   0.701   2.550
12506TIP3    H237462   0.721   0.687   2.563
12507TIP3   OH237463   7.058   1.048   3.761
12507TIP3    H137464   7.043   1.141   3.780
12507TIP3    H237465   6.975   1.017   3.724
12508TIP3   OH237466   2.460   1.132   4.915
12508TIP3    H137467   2.478   1.043   4.946
12508TIP3    H237468   2.396   1.167   4.978
12509TIP3   OH237469   5.374   3.651   0.331
12509TIP3    H137470   5.456   3.666   0.283
12509TIP3    H237471   5.312   3.713   0.292
12510TIP3   OH237472   0.391   6.813   4.669
12510TIP3    H137473   0.427   6.848   4.751
12510TIP3    H237474   0.333   6.882   4.637
12511TIP3   OH237475   2.825   5.167   3.189
12511TIP3    H137476   2.762   5.237   3.209
12511TIP3    H237477   2.840   5.175   3.094
12512TIP3   OH237478   2.908   6.906   1.390
12512TIP3    H137479   2.933   6.850   1.316
12512TIP3    H237480   2.991   6.922   1.436
12513TIP3   OH237481   6.298   2.656   2.273
12513TIP3    H137482   6.352   2.712   2.218
12513TIP3    H237483   6.361   2.602   2.322
12514TIP3   OH237484   3.478   7.486   0.552
12514TIP3    H137485   3.418   7.540   0.603
12514TIP3    H237486   3.479   7.402   0.597
12515TIP3   OH237487   2.257   3.126   2.003
12515TIP3    H137488   2.225   3.167   2.083
12515TIP3    H237489   2.248   3.194   1.936
12516TIP3   OH237490   6.171   7.058   5.186
12516TIP3    H137491   6.250   7.080   5.136
12516TIP3    H237492   6.108   7.032   5.119
12517TIP3   OH237493   0.979   5.729   5.449
12517TIP3    H137494   0.981   5.808   5.502
12517TIP3    H237495   1.060   5.682   5.473
12518TIP3   OH237496   0.643   4.448   2.681
12518TIP3    H137497   0.703   4.484   2.616
12518TIP3    H237498   0.572   4.512   2.687
12519TIP3   OH237499   4.212   2.985   5.215
12519TIP3    H137500   4.167   2.901   5.228
12519TIP3    H237501   4.287   2.963   5.160
12520TIP3   OH237502   8.021   0.516   5.824
12520TIP3    H137503   8.092   0.505   5.762
12520TIP3    H237504   8.009   0.611   5.831
12521TIP3   OH237505   0.690   3.676   4.044
12521TIP3    H137506   0.743   3.621   3.987
12521TIP3    H237507   0.753   3.729   4.093
12522TIP3   OH237508   4.964   0.777   1.094
12522TIP3    H137509   4.955   0.843   1.163
12522TIP3    H237510   5.036   0.721   1.124
12523TIP3   OH237511   5.804   7.820   4.217
12523TIP3    H137512   5.840   7.863   4.139
12523TIP3    H237513   5.749   7.750   4.183
12524TIP3   OH237514   0.137   5.135   3.111
12524TIP3    H137515   0.202   5.157   3.044
12524TIP3    H237516   0.070   5.085   3.065
12525TIP3   OH237517   0.187   5.618   3.648
12525TIP3    H137518   0.272   5.646   3.615
12525TIP3    H237519   0.184   5.650   3.738
12526TIP3   OH237520   1.377   3.160   0.303
12526TIP3    H137521   1.303   3.208   0.339
12526TIP3    H237522   1.339   3.104   0.235
12527TIP3   OH237523   5.742   1.543   4.277
12527TIP3    H137524   5.660   1.506   4.311
12527TIP3    H237525   5.736   1.532   4.183
12528TIP3   OH237526   1.936   3.651   6.717
12528TIP3    H137527   1.972   3.611   6.796
12528TIP3    H237528   1.851   3.608   6.705
12529TIP3   OH237529   3.403   6.779   4.297
12529TIP3    H137530   3.415   6.684   4.305
12529TIP3    H237531   3.309   6.792   4.310
12530TIP3   OH237532   2.800   5.722   5.097
12530TIP3    H137533   2.884   5.705   5.141
12530TIP3    H237534   2.740   5.657   5.135
12531TIP3   OH237535   0.205   0.313   5.732
12531TIP3    H137536   0.225   0.260   5.809
12531TIP3    H237537   0.188   0.401   5.768
12532TIP3   OH237538   1.068   1.904   4.714
12532TIP3    H137539   1.019   1.825   4.740
12532TIP3    H237540   1.000   1.970   4.699
12533TIP3   OH237541   2.122   4.275   3.689
12533TIP3    H137542   2.073   4.208   3.736
12533TIP3    H237543   2.125   4.244   3.599
12534TIP3   OH237544   0.006   5.972   3.819
12534TIP3    H137545   0.013   6.045   3.758
12534TIP3    H237546  -0.079   5.984   3.861
12535TIP3   OH237547   4.130   3.488   4.215
12535TIP3    H137548   4.211   3.533   4.239
12535TIP3    H237549   4.145   3.397   4.238
12536TIP3   OH237550   4.456   6.274   6.620
12536TIP3    H137551   4.536   6.236   6.586
12536TIP3    H237552   4.391   6.259   6.552
12537TIP3   OH237553   4.373   3.626   4.296
12537TIP3    H137554   4.458   3.617   4.338
12537TIP3    H237555   4.392   3.629   4.202
12538TIP3   OH237556   1.382  -0.017   3.341
12538TIP3    H137557   1.420  -0.004   3.428
12538TIP3    H237558   1.294   0.019   3.348
12539TIP3   OH237559   4.625   5.516   1.836
12539TIP3    H137560   4.654   5.425   1.841
12539TIP3    H237561   4.551   5.515   1.776
12540TIP3   OH237562   4.574   1.778   3.794
12540TIP3    H137563   4.518   1.752   3.867
12540TIP3    H237564   4.528   1.851   3.753
12541TIP3   OH237565   1.904   5.168   1.972
12541TIP3    H137566   1.933   5.258   1.956
12541TIP3    H237567   1.812   5.167   1.944
12542TIP3   OH237568   3.215   1.100   5.672
12542TIP3    H137569   3.130   1.059   5.656
12542TIP3    H237570   3.279   1.036   5.642
12543TIP3   OH237571   5.538   0.594   4.921
12543TIP3    H137572   5.557   0.562   4.833
12543TIP3    H237573   5.442   0.604   4.923
12544TIP3   OH237574   1.033   0.291   4.232
12544TIP3    H137575   1.019   0.329   4.319
12544TIP3    H237576   1.091   0.217   4.248
12545TIP3   OH237577   8.201   6.012   1.852
12545TIP3    H137578   8.136   6.037   1.918
12545TIP3    H237579   8.251   5.942   1.893
12546TIP3   OH237580   7.776   1.955   5.632
12546TIP3    H137581   7.699   2.009   5.613
12546TIP3    H237582   7.837   2.016   5.673
12547TIP3   OH237583   2.650   6.852   3.390
12547TIP3    H137584   2.556   6.841   3.377
12547TIP3    H237585   2.671   6.796   3.465
12548TIP3   OH237586   4.921   1.776   2.501
12548TIP3    H137587   5.016   1.780   2.511
12548TIP3    H237588   4.887   1.812   2.583
12549TIP3   OH237589   0.221   3.839   4.296
12549TIP3    H137590   0.191   3.779   4.364
12549TIP3    H237591   0.304   3.874   4.330
12550TIP3   OH237592   7.489   7.359   5.668
12550TIP3    H137593   7.576   7.323   5.649
12550TIP3    H237594   7.507   7.440   5.715
12551TIP3   OH237595   0.366   7.107   1.690
12551TIP3    H137596   0.419   7.124   1.768
12551TIP3    H237597   0.279   7.085   1.724
12552TIP3   OH237598   7.939   1.384   3.362
12552TIP3    H137599   8.022   1.350   3.395
12552TIP3    H237600   7.877   1.312   3.374
12553TIP3   OH237601   4.385   5.242   4.241
12553TIP3    H137602   4.459   5.281   4.196
12553TIP3    H237603   4.397   5.264   4.333
12554TIP3   OH237604   5.941   2.661   3.191
12554TIP3    H137605   5.908   2.741   3.232
12554TIP3    H237606   5.881   2.644   3.119
12555TIP3   OH237607   1.022   4.855   1.121
12555TIP3    H137608   0.946   4.913   1.126
12555TIP3    H237609   1.021   4.821   1.032
12556TIP3   OH237610   5.339   6.225   0.733
12556TIP3    H137611   5.418   6.210   0.784
12556TIP3    H237612   5.305   6.137   0.715
12557TIP3   OH237613   1.220   0.848   1.392
12557TIP3    H137614   1.172   0.765   1.390
12557TIP3    H237615   1.161   0.911   1.352
12558TIP3   OH237616   1.123   4.936   3.629
12558TIP3    H137617   1.087   4.939   3.718
12558TIP3    H237618   1.192   5.003   3.629
12559TIP3   OH237619   4.671   2.920   0.512
12559TIP3    H137620   4.736   2.906   0.581
12559TIP3    H237621   4.708   2.876   0.436
12560TIP3   OH237622   7.479   5.700   4.628
12560TIP3    H137623   7.408   5.645   4.660
12560TIP3    H237624   7.436   5.779   4.597
12561TIP3   OH237625   0.429   1.054   2.155
12561TIP3    H137626   0.353   1.097   2.116
12561TIP3    H237627   0.393   0.976   2.196
12562TIP3   OH237628   5.785   3.003   3.641
12562TIP3    H137629   5.849   3.028   3.575
12562TIP3    H237630   5.722   3.075   3.642
12563TIP3   OH237631   0.857   4.987   1.409
12563TIP3    H137632   0.938   4.937   1.397
12563TIP3    H237633   0.840   5.026   1.323
12564TIP3   OH237634   1.259   1.314   6.016
12564TIP3    H137635   1.273   1.334   6.108
12564TIP3    H237636   1.164   1.298   6.009
12565TIP3   OH237637   5.974   2.130   4.626
12565TIP3    H137638   5.917   2.053   4.634
12565TIP3    H237639   5.986   2.140   4.531
12566TIP3   OH237640   4.158   6.255   5.789
12566TIP3    H137641   4.089   6.218   5.845
12566TIP3    H237642   4.128   6.239   5.700
12567TIP3   OH237643   0.748   5.964   4.677
12567TIP3    H137644   0.835   6.001   4.659
12567TIP3    H237645   0.697   5.984   4.599
12568TIP3   OH237646   4.652   5.312   6.014
12568TIP3    H137647   4.614   5.232   5.977
12568TIP3    H237648   4.577   5.367   6.035
12569TIP3   OH237649   0.965   4.055   4.184
12569TIP3    H137650   0.944   4.026   4.095
12569TIP3    H237651   1.053   4.092   4.178
12570TIP3   OH237652   7.914   7.603   2.108
12570TIP3    H137653   7.924   7.508   2.113
12570TIP3    H237654   7.978   7.630   2.042
12571TIP3   OH237655   6.051   3.774   3.236
12571TIP3    H137656   6.071   3.694   3.285
12571TIP3    H237657   5.959   3.765   3.211
12572TIP3   OH237658   4.943   6.815   5.428
12572TIP3    H137659   4.999   6.892   5.419
12572TIP3    H237660   4.919   6.792   5.338
12573TIP3   OH237661   2.950   4.174   2.421
12573TIP3    H137662   3.038   4.205   2.438
12573TIP3    H237663   2.932   4.111   2.491
12574TIP3   OH237664   4.757   6.046   5.455
12574TIP3    H137665   4.691   5.986   5.487
12574TIP3    H237666   4.734   6.130   5.495
12575TIP3   OH237667   4.271   1.657   4.415
12575TIP3    H137668   4.229   1.584   4.461
12575TIP3    H237669   4.306   1.618   4.335
12576TIP3   OH237670   0.312   0.808   1.135
12576TIP3    H137671   0.298   0.739   1.070
12576TIP3    H237672   0.382   0.775   1.191
12577TIP3   OH237673   4.863   1.409   0.964
12577TIP3    H137674   4.851   1.350   1.038
12577TIP3    H237675   4.787   1.394   0.908
12578TIP3   OH237676   3.120   7.207   6.334
12578TIP3    H137677   3.195   7.148   6.331
12578TIP3    H237678   3.083   7.203   6.245
12579TIP3   OH237679   4.216   3.811   5.392
12579TIP3    H137680   4.138   3.759   5.408
12579TIP3    H237681   4.201   3.892   5.441
12580TIP3   OH237682   3.102   1.417   6.075
12580TIP3    H137683   3.114   1.368   5.993
12580TIP3    H237684   3.076   1.352   6.139
12581TIP3   OH237685   2.392   4.533   4.024
12581TIP3    H137686   2.324   4.530   3.957
12581TIP3    H237687   2.474   4.534   3.975
12582TIP3   OH237688   5.433   2.334   6.452
12582TIP3    H137689   5.481   2.260   6.491
12582TIP3    H237690   5.348   2.332   6.495
12583TIP3   OH237691   1.126   6.454   6.290
12583TIP3    H137692   1.162   6.430   6.204
12583TIP3    H237693   1.203   6.466   6.346
12584TIP3   OH237694   5.322   0.864   2.393
12584TIP3    H137695   5.242   0.820   2.365
12584TIP3    H237696   5.362   0.803   2.455
12585TIP3   OH237697   2.032   1.797   6.125
12585TIP3    H137698   1.945   1.761   6.113
12585TIP3    H237699   2.075   1.786   6.040
12586TIP3   OH237700   6.040   3.208   1.272
12586TIP3    H137701   6.066   3.211   1.180
12586TIP3    H237702   5.983   3.284   1.283
12587TIP3   OH237703   1.128   6.893   2.873
12587TIP3    H137704   1.147   6.872   2.964
12587TIP3    H237705   1.184   6.968   2.854
12588TIP3   OH237706   4.371   7.461   6.460
12588TIP3    H137707   4.451   7.502   6.429
12588TIP3    H237708   4.306   7.532   6.460
12589TIP3   OH237709   3.667   7.659   5.641
12589TIP3    H137710   3.720   7.596   5.591
12589TIP3    H237711   3.621   7.605   5.706
12590TIP3   OH237712   5.040   0.510   0.820
12590TIP3    H137713   5.090   0.493   0.900
12590TIP3    H237714   5.102   0.553   0.762
12591TIP3   OH237715   4.958   4.048   2.629
12591TIP3    H137716   4.890   4.055   2.562
12591TIP3    H237717   4.989   3.957   2.623
12592TIP3   OH237718   7.594   4.886   5.293
12592TIP3    H137719   7.521   4.948   5.288
12592TIP3    H237720   7.618   4.871   5.201
12593TIP3   OH237721   4.556   2.927   3.121
12593TIP3    H137722   4.565   2.924   3.025
12593TIP3    H237723   4.615   2.858   3.152
12594TIP3   OH237724   0.878   1.382   1.238
12594TIP3    H137725   0.834   1.459   1.275
12594TIP3    H237726   0.970   1.394   1.261
12595TIP3   OH237727   4.639   3.880   0.545
12595TIP3    H137728   4.637   3.791   0.578
12595TIP3    H237729   4.608   3.873   0.455
12596TIP3   OH237730   6.270   5.554   1.925
12596TIP3    H137731   6.345   5.504   1.957
12596TIP3    H237732   6.297   5.646   1.932
12597TIP3   OH237733   3.595   4.422   1.046
12597TIP3    H137734   3.523   4.382   0.997
12597TIP3    H237735   3.564   4.509   1.067
12598TIP3   OH237736   3.300   2.911   0.547
12598TIP3    H137737   3.269   2.821   0.532
12598TIP3    H237738   3.223   2.957   0.579
12599TIP3   OH237739   3.043   1.172   4.797
12599TIP3    H137740   3.005   1.241   4.851
12599TIP3    H237741   3.129   1.205   4.773
12600TIP3   OH237742   7.399   6.167   4.074
12600TIP3    H137743   7.347   6.246   4.065
12600TIP3    H237744   7.462   6.170   4.003
12601TIP3   OH237745   2.341   7.689   1.975
12601TIP3    H137746   2.359   7.768   2.026
12601TIP3    H237747   2.423   7.639   1.978
12602TIP3   OH237748   1.592   3.668   5.012
12602TIP3    H137749   1.601   3.763   5.022
12602TIP3    H237750   1.680   3.634   5.030
12603TIP3   OH237751   1.139   2.769   3.740
12603TIP3    H137752   1.188   2.765   3.822
12603TIP3    H237753   1.196   2.817   3.680
12604TIP3   OH237754   8.052   0.943   2.858
12604TIP3    H137755   8.102   0.930   2.939
12604TIP3    H237756   8.044   0.854   2.822
12605TIP3   OH237757   3.991   4.841   2.407
12605TIP3    H137758   3.999   4.779   2.479
12605TIP3    H237759   3.896   4.850   2.394
12606TIP3   OH237760   7.965   3.044   2.075
12606TIP3    H137761   8.038   3.070   2.132
12606TIP3    H237762   7.979   2.951   2.060
12607TIP3   OH237763   2.395   0.149   1.748
12607TIP3    H137764   2.440   0.066   1.763
12607TIP3    H237765   2.313   0.125   1.704
12608TIP3   OH237766   6.303   4.025   2.221
12608TIP3    H137767   6.222   4.077   2.217
12608TIP3    H237768   6.366   4.083   2.263
12609TIP3   OH237769   6.245   2.192   3.088
12609TIP3    H137770   6.195   2.252   3.143
12609TIP3    H237771   6.188   2.116   3.078
12610TIP3   OH237772   4.816   4.033   4.213
12610TIP3    H137773   4.813   3.993   4.300
12610TIP3    H237774   4.908   4.058   4.202
12611TIP3   OH237775   3.666   4.832   4.709
12611TIP3    H137776   3.592   4.857   4.654
12611TIP3    H237777   3.626   4.807   4.792
12612TIP3   OH237778   4.699   2.713   5.468
12612TIP3    H137779   4.663   2.772   5.533
12612TIP3    H237780   4.758   2.656   5.517
12613TIP3   OH237781   5.817   7.098   3.946
12613TIP3    H137782   5.734   7.051   3.939
12613TIP3    H237783   5.843   7.086   4.037
12614TIP3   OH237784   7.123   1.907   1.067
12614TIP3    H137785   7.056   1.876   1.006
12614TIP3    H237786   7.194   1.939   1.011
12615TIP3   OH237787   5.708   6.715   6.039
12615TIP3    H137788   5.699   6.758   6.125
12615TIP3    H237789   5.654   6.636   6.046
12616TIP3   OH237790   3.472   2.014   0.796
12616TIP3    H137791   3.398   2.012   0.856
12616TIP3    H237792   3.514   1.928   0.806
12617TIP3   OH237793   2.372   3.059   4.507
12617TIP3    H137794   2.352   2.989   4.445
12617TIP3    H237795   2.423   3.017   4.576
12618TIP3   OH237796   5.689   3.418   1.474
12618TIP3    H137797   5.694   3.502   1.518
12618TIP3    H237798   5.604   3.383   1.499
12619TIP3   OH237799   4.485   3.189   3.781
12619TIP3    H137800   4.542   3.218   3.710
12619TIP3    H237801   4.478   3.095   3.771
12620TIP3   OH237802   4.728   4.896   2.261
12620TIP3    H137803   4.821   4.903   2.280
12620TIP3    H237804   4.722   4.907   2.166
12621TIP3   OH237805   7.444   2.680   2.860
12621TIP3    H137806   7.348   2.689   2.855
12621TIP3    H237807   7.466   2.710   2.948
12622TIP3   OH237808   0.029   4.515   5.920
12622TIP3    H137809  -0.036   4.552   5.860
12622TIP3    H237810   0.109   4.509   5.868
12623TIP3   OH237811   5.946   1.054   0.220
12623TIP3    H137812   5.876   1.002   0.259
12623TIP3    H237813   5.939   1.140   0.262
12624TIP3   OH237814   4.684   5.825   1.685
12624TIP3    H137815   4.636   5.757   1.638
12624TIP3    H237816   4.752   5.778   1.733
12625TIP3   OH237817   2.842   4.433   3.298
12625TIP3    H137818   2.924   4.384   3.304
12625TIP3    H237819   2.866   4.523   3.322
12626TIP3   OH237820   4.627   1.787   0.215
12626TIP3    H137821   4.593   1.839   0.289
12626TIP3    H237822   4.668   1.711   0.257
12627TIP3   OH237823   1.223   1.799   4.475
12627TIP3    H137824   1.175   1.834   4.551
12627TIP3    H237825   1.237   1.875   4.419
12628TIP3   OH237826   7.554   2.369   3.376
12628TIP3    H137827   7.492   2.426   3.331
12628TIP3    H237828   7.559   2.291   3.321
12629TIP3   OH237829   6.070   4.417   3.791
12629TIP3    H137830   6.091   4.348   3.729
12629TIP3    H237831   6.155   4.448   3.821
12630TIP3   OH237832   1.450   1.953   0.007
12630TIP3    H137833   1.378   1.997   0.051
12630TIP3    H237834   1.415   1.930  -0.079
12631TIP3   OH237835   1.964   3.104   1.565
12631TIP3    H137836   1.884   3.155   1.577
12631TIP3    H237837   1.938   3.014   1.581
12632TIP3   OH237838   6.906   7.724   0.564
12632TIP3    H137839   6.956   7.792   0.608
12632TIP3    H237840   6.816   7.756   0.563
12633TIP3   OH237841   5.628   3.283   5.952
12633TIP3    H137842   5.564   3.331   6.005
12633TIP3    H237843   5.690   3.248   6.016
12634TIP3   OH237844   1.513   3.054   5.740
12634TIP3    H137845   1.599   3.049   5.781
12634TIP3    H237846   1.452   3.038   5.812
12635TIP3   OH237847   3.880   6.473   3.192
12635TIP3    H137848   3.898   6.391   3.236
12635TIP3    H237849   3.938   6.537   3.233
12636TIP3   OH237850   8.093   4.020   1.758
12636TIP3    H137851   8.091   3.926   1.741
12636TIP3    H237852   8.019   4.036   1.815
12637TIP3   OH237853   6.757   2.250   4.695
12637TIP3    H137854   6.711   2.301   4.629
12637TIP3    H237855   6.838   2.222   4.652
12638TIP3   OH237856   5.370   5.889   2.539
12638TIP3    H137857   5.322   5.931   2.468
12638TIP3    H237858   5.432   5.955   2.570
12639TIP3   OH237859   6.788   5.449   3.238
12639TIP3    H137860   6.836   5.517   3.286
12639TIP3    H237861   6.850   5.416   3.173
12640TIP3   OH237862   0.853   7.610   5.565
12640TIP3    H137863   0.778   7.633   5.511
12640TIP3    H237864   0.901   7.692   5.575
12641TIP3   OH237865   7.893   0.498   2.313
12641TIP3    H137866   7.837   0.453   2.376
12641TIP3    H237867   7.924   0.429   2.254
12642TIP3   OH237868   0.320   5.356   4.394
12642TIP3    H137869   0.414   5.364   4.382
12642TIP3    H237870   0.305   5.381   4.485
12643TIP3   OH237871   8.010   1.593   6.498
12643TIP3    H137872   8.015   1.651   6.575
12643TIP3    H237873   7.938   1.534   6.518
12644TIP3   OH237874   5.544   7.434   4.181
12644TIP3    H137875   5.616   7.426   4.118
12644TIP3    H237876   5.587   7.456   4.264
12645TIP3   OH237877   6.204   2.582   5.018
12645TIP3    H137878   6.204   2.509   5.079
12645TIP3    H237879   6.179   2.658   5.070
12646TIP3   OH237880   2.444   2.873   0.753
12646TIP3    H137881   2.424   2.939   0.819
12646TIP3    H237882   2.507   2.915   0.695
12647TIP3   OH237883   8.087   5.253   5.011
12647TIP3    H137884   8.021   5.204   4.963
12647TIP3    H237885   8.107   5.328   4.954
12648TIP3   OH237886   6.929   7.544   2.879
12648TIP3    H137887   6.980   7.465   2.861
12648TIP3    H237888   6.956   7.572   2.966
12649TIP3   OH237889   7.206   0.812   3.549
12649TIP3    H137890   7.150   0.754   3.601
12649TIP3    H237891   7.268   0.848   3.613
12650TIP3   OH237892   3.076   1.456   0.196
12650TIP3    H137893   3.098   1.372   0.234
12650TIP3    H237894   3.023   1.435   0.119
12651TIP3   OH237895   6.653   0.439   2.713
12651TIP3    H137896   6.721   0.373   2.710
12651TIP3    H237897   6.678   0.503   2.646
12652TIP3   OH237898   2.673   1.211   3.376
12652TIP3    H137899   2.677   1.128   3.424
12652TIP3    H237900   2.602   1.260   3.417
12653TIP3   OH237901   0.464   6.703   2.819
12653TIP3    H137902   0.522   6.731   2.889
12653TIP3    H237903   0.515   6.642   2.767
12654TIP3   OH237904   4.443   6.220   1.983
12654TIP3    H137905   4.399   6.223   1.898
12654TIP3    H237906   4.388   6.164   2.038
12655TIP3   OH237907   7.880   3.657   4.832
12655TIP3    H137908   7.917   3.744   4.815
12655TIP3    H237909   7.886   3.647   4.927
12656TIP3   OH237910   6.436   4.503   3.306
12656TIP3    H137911   6.459   4.591   3.278
12656TIP3    H237912   6.447   4.504   3.401
12657TIP3   OH237913   7.950   7.549   1.078
12657TIP3    H137914   7.996   7.615   1.026
12657TIP3    H237915   8.020   7.506   1.128
12658TIP3   OH237916   7.281   4.741   2.437
12658TIP3    H137917   7.306   4.667   2.493
12658TIP3    H237918   7.264   4.702   2.351
12659TIP3   OH237919   4.074   6.573   6.677
12659TIP3    H137920   4.165   6.568   6.705
12659TIP3    H237921   4.024   6.542   6.752
12660TIP3   OH237922   7.362   6.573   0.387
12660TIP3    H137923   7.284   6.579   0.333
12660TIP3    H237924   7.435   6.582   0.325
12661TIP3   OH237925   1.053   1.965   1.198
12661TIP3    H137926   1.016   2.052   1.212
12661TIP3    H237927   1.147   1.980   1.185
12662TIP3   OH237928   8.129   6.738   1.345
12662TIP3    H137929   8.160   6.760   1.433
12662TIP3    H237930   8.096   6.649   1.353
12663TIP3   OH237931   3.127   5.606   5.778
12663TIP3    H137932   3.111   5.657   5.698
12663TIP3    H237933   3.219   5.580   5.772
12664TIP3   OH237934   7.152   2.423   2.794
12664TIP3    H137935   7.057   2.419   2.786
12664TIP3    H237936   7.183   2.336   2.768
12665TIP3   OH237937   1.725   4.647   5.873
12665TIP3    H137938   1.722   4.629   5.967
12665TIP3    H237939   1.639   4.621   5.841
12666TIP3   OH237940   2.133   7.208   6.100
12666TIP3    H137941   2.040   7.206   6.124
12666TIP3    H237942   2.176   7.251   6.174
12667TIP3   OH237943   4.185   4.361   2.472
12667TIP3    H137944   4.192   4.282   2.526
12667TIP3    H237945   4.204   4.331   2.383
12668TIP3   OH237946   5.536   5.646   5.773
12668TIP3    H137947   5.525   5.671   5.681
12668TIP3    H237948   5.447   5.629   5.804
12669TIP3   OH237949   4.813   4.276   0.859
12669TIP3    H137950   4.753   4.283   0.785
12669TIP3    H237951   4.900   4.291   0.821
12670TIP3   OH237952   0.655   1.709   0.995
12670TIP3    H137953   0.693   1.791   1.027
12670TIP3    H237954   0.629   1.663   1.075
12671TIP3   OH237955   3.311   3.727   1.022
12671TIP3    H137956   3.276   3.652   1.070
12671TIP3    H237957   3.334   3.790   1.089
12672TIP3   OH237958   7.374   0.900   1.819
12672TIP3    H137959   7.319   0.910   1.742
12672TIP3    H237960   7.320   0.851   1.881
12673TIP3   OH237961   2.858   0.596   5.029
12673TIP3    H137962   2.787   0.661   5.027
12673TIP3    H237963   2.937   0.646   5.010
12674TIP3   OH237964   4.994   6.136   4.752
12674TIP3    H137965   4.963   6.178   4.672
12674TIP3    H237966   5.076   6.182   4.773
12675TIP3   OH237967   2.465   1.240   6.320
12675TIP3    H137968   2.427   1.239   6.232
12675TIP3    H237969   2.414   1.175   6.368
12676TIP3   OH237970   6.474   5.005   6.402
12676TIP3    H137971   6.439   4.946   6.468
12676TIP3    H237972   6.489   5.088   6.449
12677TIP3   OH237973   5.720   5.887   3.505
12677TIP3    H137974   5.681   5.869   3.419
12677TIP3    H237975   5.808   5.918   3.484
12678TIP3   OH237976   7.464   6.876   0.456
12678TIP3    H137977   7.458   6.922   0.540
12678TIP3    H237978   7.373   6.865   0.428
12679TIP3   OH237979   2.463   1.095   3.846
12679TIP3    H137980   2.417   1.168   3.803
12679TIP3    H237981   2.448   1.020   3.788
12680TIP3   OH237982   7.735   2.450   0.979
12680TIP3    H137983   7.742   2.516   0.910
12680TIP3    H237984   7.770   2.370   0.940
12681TIP3   OH237985   5.085   2.310   2.162
12681TIP3    H137986   5.058   2.365   2.235
12681TIP3    H237987   5.049   2.224   2.182
12682TIP3   OH237988   5.420   4.748   4.518
12682TIP3    H137989   5.354   4.801   4.563
12682TIP3    H237990   5.415   4.662   4.561
12683TIP3   OH237991   6.146   7.689   3.185
12683TIP3    H137992   6.145   7.782   3.165
12683TIP3    H237993   6.181   7.684   3.274
12684TIP3   OH237994   1.706   4.143   5.684
12684TIP3    H137995   1.663   4.127   5.768
12684TIP3    H237996   1.657   4.090   5.622
12685TIP3   OH237997   2.377   0.162   0.201
12685TIP3    H137998   2.400   0.241   0.250
12685TIP3    H237999   2.291   0.182   0.163
12686TIP3   OH238000   3.459   3.722   5.199
12686TIP3    H138001   3.465   3.745   5.292
12686TIP3    H238002   3.434   3.804   5.156
12687TIP3   OH238003   7.153   3.421   2.394
12687TIP3    H138004   7.236   3.467   2.409
12687TIP3    H238005   7.137   3.431   2.300
12688TIP3   OH238006   2.664   5.240   4.400
12688TIP3    H138007   2.613   5.198   4.469
12688TIP3    H238008   2.649   5.334   4.414
12689TIP3   OH238009   4.591   5.147   5.288
12689TIP3    H138010   4.625   5.228   5.250
12689TIP3    H238011   4.505   5.136   5.247
12690TIP3   OH238012   4.991   6.287   5.844
12690TIP3    H138013   5.031   6.297   5.758
12690TIP3    H238014   4.940   6.367   5.857
12691TIP3   OH238015   2.998   6.928   2.660
12691TIP3    H138016   3.012   6.836   2.683
12691TIP3    H238017   2.905   6.942   2.676
12692TIP3   OH238018   7.431   1.382   4.990
12692TIP3    H138019   7.368   1.310   4.998
12692TIP3    H238020   7.474   1.366   4.906
12693TIP3   OH238021   5.479   6.359   2.034
12693TIP3    H138022   5.569   6.379   2.009
12693TIP3    H238023   5.433   6.344   1.952
12694TIP3   OH238024   1.560   3.523   5.365
12694TIP3    H138025   1.527   3.612   5.374
12694TIP3    H238026   1.586   3.497   5.453
12695TIP3   OH238027   3.119   0.067   3.882
12695TIP3    H138028   3.202   0.044   3.925
12695TIP3    H238029   3.134   0.156   3.849
12696TIP3   OH238030   0.829   3.474   0.409
12696TIP3    H138031   0.808   3.396   0.357
12696TIP3    H238032   0.758   3.479   0.474
12697TIP3   OH238033   2.492   0.001   0.623
12697TIP3    H138034   2.579  -0.038   0.623
12697TIP3    H238035   2.445  -0.045   0.553
12698TIP3   OH238036   5.864   6.384   0.227
12698TIP3    H138037   5.886   6.457   0.286
12698TIP3    H238038   5.947   6.360   0.187
12699TIP3   OH238039   3.122   1.193   0.187
12699TIP3    H138040   3.031   1.163   0.176
12699TIP3    H238041   3.174   1.128   0.141
12700TIP3   OH238042   3.820   1.188   6.500
12700TIP3    H138043   3.861   1.110   6.537
12700TIP3    H238044   3.747   1.206   6.559
12701TIP3   OH238045   1.673   3.662   5.990
12701TIP3    H138046   1.761   3.642   5.958
12701TIP3    H238047   1.664   3.757   5.977
12702TIP3   OH238048   8.136   3.636   4.212
12702TIP3    H138049   8.190   3.650   4.135
12702TIP3    H238050   8.197   3.641   4.286
12703TIP3   OH238051   0.657   3.668   4.326
12703TIP3    H138052   0.617   3.755   4.328
12703TIP3    H238053   0.687   3.658   4.236
12704TIP3   OH238054   4.126   6.777   1.914
12704TIP3    H138055   4.132   6.795   2.008
12704TIP3    H238056   4.033   6.757   1.900
12705TIP3   OH238057   3.299   0.486   2.203
12705TIP3    H138058   3.353   0.564   2.195
12705TIP3    H238059   3.211   0.520   2.221
12706TIP3   OH238060   2.729   3.509   6.461
12706TIP3    H138061   2.652   3.495   6.406
12706TIP3    H238062   2.775   3.425   6.459
12707TIP3   OH238063   3.851   3.241   4.652
12707TIP3    H138064   3.943   3.259   4.674
12707TIP3    H238065   3.802   3.308   4.700
12708TIP3   OH238066   5.909   0.122   3.458
12708TIP3    H138067   5.934   0.042   3.505
12708TIP3    H238068   5.953   0.115   3.373
12709TIP3   OH238069   5.869   5.690   2.675
12709TIP3    H138070   5.907   5.734   2.598
12709TIP3    H238071   5.792   5.743   2.697
12710TIP3   OH238072   7.079   7.304   2.864
12710TIP3    H138073   7.154   7.277   2.917
12710TIP3    H238074   7.070   7.235   2.799
12711TIP3   OH238075   1.614   4.936   1.910
12711TIP3    H138076   1.698   4.935   1.863
12711TIP3    H238077   1.548   4.945   1.841
12712TIP3   OH238078   5.641   4.502   2.287
12712TIP3    H138079   5.674   4.488   2.376
12712TIP3    H238080   5.656   4.419   2.242
12713TIP3   OH238081   2.168   5.221   0.573
12713TIP3    H138082   2.238   5.182   0.625
12713TIP3    H238083   2.148   5.303   0.618
12714TIP3   OH238084   2.336   3.067   0.206
12714TIP3    H138085   2.431   3.063   0.222
12714TIP3    H238086   2.309   3.147   0.251
12715TIP3   OH238087   4.635   2.280   6.492
12715TIP3    H138088   4.669   2.287   6.581
12715TIP3    H238089   4.580   2.358   6.481
12716TIP3   OH238090   5.316   4.797   0.252
12716TIP3    H138091   5.403   4.826   0.279
12716TIP3    H238092   5.263   4.802   0.331
12717TIP3   OH238093   7.755   1.893   1.165
12717TIP3    H138094   7.827   1.920   1.107
12717TIP3    H238095   7.781   1.807   1.197
12718TIP3   OH238096   6.071   4.428   3.087
12718TIP3    H138097   6.061   4.423   2.992
12718TIP3    H238098   5.988   4.464   3.118
12719TIP3   OH238099   7.603   2.733   6.690
12719TIP3    H138100   7.559   2.801   6.639
12719TIP3    H238101   7.690   2.726   6.650
12720TIP3   OH238102   3.726   5.471   6.414
12720TIP3    H138103   3.715   5.444   6.323
12720TIP3    H238104   3.644   5.514   6.437
12721TIP3   OH238105   4.430   2.389   2.522
12721TIP3    H138106   4.506   2.415   2.470
12721TIP3    H238107   4.466   2.347   2.599
12722TIP3   OH238108   6.696   1.387   2.752
12722TIP3    H138109   6.684   1.295   2.729
12722TIP3    H238110   6.784   1.409   2.720
12723TIP3   OH238111   3.388   3.014   6.218
12723TIP3    H138112   3.472   2.981   6.186
12723TIP3    H238113   3.402   3.108   6.229
12724TIP3   OH238114   3.633   1.951   5.640
12724TIP3    H138115   3.636   2.042   5.670
12724TIP3    H238116   3.606   1.902   5.718
12725TIP3   OH238117   1.398   0.899   2.524
12725TIP3    H138118   1.478   0.861   2.487
12725TIP3    H238119   1.427   0.942   2.604
12726TIP3   OH238120   5.576   2.140   5.966
12726TIP3    H138121   5.586   2.225   6.009
12726TIP3    H238122   5.482   2.134   5.948
12727TIP3   OH238123   1.882   6.568   5.339
12727TIP3    H138124   1.947   6.595   5.404
12727TIP3    H238125   1.878   6.641   5.278
12728TIP3   OH238126   5.639   5.811   2.748
12728TIP3    H138127   5.617   5.901   2.726
12728TIP3    H238128   5.572   5.758   2.705
12729TIP3   OH238129   6.882   3.332   1.426
12729TIP3    H138130   6.917   3.278   1.355
12729TIP3    H238131   6.843   3.268   1.486
12730TIP3   OH238132   6.611   0.795   3.332
12730TIP3    H138133   6.624   0.721   3.391
12730TIP3    H238134   6.538   0.768   3.276
12731TIP3   OH238135   4.646   4.304   3.658
12731TIP3    H138136   4.682   4.326   3.572
12731TIP3    H238137   4.723   4.298   3.715
12732TIP3   OH238138   7.343   2.085   5.708
12732TIP3    H138139   7.270   2.077   5.647
12732TIP3    H238140   7.313   2.042   5.788
12733TIP3   OH238141   3.684   7.792   3.681
12733TIP3    H138142   3.646   7.842   3.609
12733TIP3    H238143   3.644   7.705   3.674
12734TIP3   OH238144   2.210   3.975   3.458
12734TIP3    H138145   2.259   3.917   3.516
12734TIP3    H238146   2.120   3.971   3.490
12735TIP3   OH238147   4.680   1.206   2.891
12735TIP3    H138148   4.643   1.238   2.809
12735TIP3    H238149   4.773   1.230   2.887
12736TIP3   OH238150   0.716   1.974   4.475
12736TIP3    H138151   0.678   1.888   4.491
12736TIP3    H238152   0.731   1.976   4.380
12737TIP3   OH238153   7.170   3.113   2.764
12737TIP3    H138154   7.077   3.092   2.755
12737TIP3    H238155   7.172   3.209   2.764
12738TIP3   OH238156   6.669   1.034   6.695
12738TIP3    H138157   6.757   1.067   6.713
12738TIP3    H238158   6.611   1.095   6.740
12739TIP3   OH238159   0.193   5.020   3.561
12739TIP3    H138160   0.193   5.116   3.571
12739TIP3    H238161   0.207   5.006   3.467
12740TIP3   OH238162   2.364   5.092   6.713
12740TIP3    H138163   2.354   5.184   6.737
12740TIP3    H238164   2.277   5.065   6.683
12741TIP3   OH238165   2.254   7.399   2.064
12741TIP3    H138166   2.270   7.493   2.080
12741TIP3    H238167   2.339   7.365   2.037
12742TIP3   OH238168   3.696   7.698   4.548
12742TIP3    H138169   3.777   7.647   4.553
12742TIP3    H238170   3.645   7.653   4.480
12743TIP3   OH238171   2.481   3.252   4.733
12743TIP3    H138172   2.446   3.278   4.647
12743TIP3    H238173   2.470   3.330   4.788
12744TIP3   OH238174   2.503   5.089   6.282
12744TIP3    H138175   2.452   5.087   6.202
12744TIP3    H238176   2.581   5.140   6.260
12745TIP3   OH238177   7.715   0.323   5.102
12745TIP3    H138178   7.748   0.260   5.037
12745TIP3    H238179   7.792   0.371   5.130
12746TIP3   OH238180   4.380   4.030   5.605
12746TIP3    H138181   4.361   4.093   5.535
12746TIP3    H238182   4.299   4.022   5.654
12747TIP3   OH238183   0.640   1.551   5.528
12747TIP3    H138184   0.636   1.519   5.438
12747TIP3    H238185   0.651   1.645   5.520
12748TIP3   OH238186   4.893   5.757   3.840
12748TIP3    H138187   4.971   5.731   3.888
12748TIP3    H238188   4.897   5.707   3.759
12749TIP3   OH238189   7.292   3.331   1.259
12749TIP3    H138190   7.367   3.310   1.203
12749TIP3    H238191   7.312   3.288   1.342
12750TIP3   OH238192   4.558   7.541   2.131
12750TIP3    H138193   4.588   7.456   2.164
12750TIP3    H238194   4.532   7.524   2.041
12751TIP3   OH238195   7.256   1.804   5.320
12751TIP3    H138196   7.186   1.809   5.386
12751TIP3    H238197   7.212   1.771   5.242
12752TIP3   OH238198   4.185   4.089   5.382
12752TIP3    H138199   4.246   4.117   5.314
12752TIP3    H238200   4.102   4.077   5.335
12753TIP3   OH238201   1.358   4.290   4.449
12753TIP3    H138202   1.396   4.275   4.536
12753TIP3    H238203   1.339   4.203   4.416
12754TIP3   OH238204   3.392   7.126   0.851
12754TIP3    H138205   3.302   7.093   0.849
12754TIP3    H238206   3.425   7.099   0.937
12755TIP3   OH238207   3.654   4.839   6.692
12755TIP3    H138208   3.705   4.876   6.764
12755TIP3    H238209   3.713   4.840   6.617
12756TIP3   OH238210   7.363   6.427   5.199
12756TIP3    H138211   7.342   6.334   5.208
12756TIP3    H238212   7.456   6.433   5.220
12757TIP3   OH238213   1.632   2.164   5.809
12757TIP3    H138214   1.641   2.250   5.767
12757TIP3    H238215   1.538   2.145   5.803
12758TIP3   OH238216   3.448   5.594   3.655
12758TIP3    H138217   3.461   5.501   3.639
12758TIP3    H238218   3.353   5.604   3.664
12759TIP3   OH238219   7.870   3.883   2.643
12759TIP3    H138220   7.938   3.951   2.643
12759TIP3    H238221   7.807   3.913   2.708
12760TIP3   OH238222   3.609   6.520   3.232
12760TIP3    H138223   3.549   6.502   3.160
12760TIP3    H238224   3.695   6.500   3.198
12761TIP3   OH238225   3.221   0.194   0.885
12761TIP3    H138226   3.198   0.103   0.866
12761TIP3    H238227   3.274   0.222   0.810
12762TIP3   OH238228   4.491   0.909   2.404
12762TIP3    H138229   4.560   0.911   2.338
12762TIP3    H238230   4.443   0.828   2.387
12763TIP3   OH238231   4.366   2.586   5.599
12763TIP3    H138232   4.410   2.504   5.580
12763TIP3    H238233   4.349   2.624   5.513
12764TIP3   OH238234   0.260   3.219   2.734
12764TIP3    H138235   0.186   3.253   2.684
12764TIP3    H238236   0.278   3.287   2.799
12765TIP3   OH238237   1.243   1.535   2.602
12765TIP3    H138238   1.254   1.500   2.690
12765TIP3    H238239   1.176   1.602   2.610
12766TIP3   OH238240   2.727   6.938   2.746
12766TIP3    H138241   2.708   6.998   2.818
12766TIP3    H238242   2.726   6.851   2.787
12767TIP3   OH238243   1.227   6.173   2.763
12767TIP3    H138244   1.236   6.174   2.858
12767TIP3    H238245   1.310   6.208   2.731
12768TIP3   OH238246   0.241   1.084   1.105
12768TIP3    H138247   0.250   0.989   1.105
12768TIP3    H238248   0.153   1.100   1.072
12769TIP3   OH238249   5.183   0.341   4.614
12769TIP3    H138250   5.234   0.322   4.535
12769TIP3    H238251   5.147   0.257   4.640
12770TIP3   OH238252   4.727   1.644   5.563
12770TIP3    H138253   4.686   1.559   5.580
12770TIP3    H238254   4.717   1.691   5.646
12771TIP3   OH238255   0.263   5.969   4.462
12771TIP3    H138256   0.284   5.915   4.539
12771TIP3    H238257   0.225   6.049   4.499
12772TIP3   OH238258   0.721   3.481  -0.029
12772TIP3    H138259   0.785   3.483  -0.100
12772TIP3    H238260   0.636   3.488  -0.073
12773TIP3   OH238261   7.222   2.060   6.165
12773TIP3    H138262   7.248   2.150   6.184
12773TIP3    H238263   7.237   2.051   6.071
12774TIP3   OH238264   6.154   5.847   1.318
12774TIP3    H138265   6.197   5.820   1.399
12774TIP3    H238266   6.225   5.855   1.254
12775TIP3   OH238267   1.596   7.638   4.381
12775TIP3    H138268   1.557   7.551   4.377
12775TIP3    H238269   1.680   7.628   4.335
12776TIP3   OH238270   0.287   2.163   2.341
12776TIP3    H138271   0.247   2.231   2.286
12776TIP3    H238272   0.378   2.190   2.351
12777TIP3   OH238273   2.828   5.291   1.884
12777TIP3    H138274   2.851   5.287   1.977
12777TIP3    H238275   2.824   5.199   1.857
12778TIP3   OH238276   2.806   7.273   4.202
12778TIP3    H138277   2.883   7.313   4.241
12778TIP3    H238278   2.827   7.180   4.196
12779TIP3   OH238279   5.524   0.686   5.356
12779TIP3    H138280   5.614   0.710   5.333
12779TIP3    H238281   5.471   0.713   5.281
12780TIP3   OH238282   5.598   4.183   2.183
12780TIP3    H138283   5.557   4.141   2.108
12780TIP3    H238284   5.674   4.229   2.147
12781TIP3   OH238285   5.250   5.539   5.502
12781TIP3    H138286   5.222   5.494   5.422
12781TIP3    H238287   5.282   5.468   5.558
12782TIP3   OH238288   0.555   6.911   5.754
12782TIP3    H138289   0.572   6.844   5.820
12782TIP3    H238290   0.581   6.869   5.671
12783TIP3   OH238291   3.776   5.315   0.316
12783TIP3    H138292   3.855   5.267   0.292
12783TIP3    H238293   3.762   5.375   0.243
12784TIP3   OH238294   4.875  -0.031   5.967
12784TIP3    H138295   4.844  -0.050   5.878
12784TIP3    H238296   4.967  -0.007   5.956
12785TIP3   OH238297   5.507   6.445   3.543
12785TIP3    H138298   5.594   6.428   3.580
12785TIP3    H238299   5.486   6.366   3.494
12786TIP3   OH238300   7.975   7.531   4.095
12786TIP3    H138301   8.058   7.570   4.067
12786TIP3    H238302   7.996   7.490   4.179
12787TIP3   OH238303   3.175   6.992   0.718
12787TIP3    H138304   3.109   7.060   0.714
12787TIP3    H238305   3.126   6.910   0.707
12788TIP3   OH238306   7.752   0.825   2.584
12788TIP3    H138307   7.731   0.905   2.536
12788TIP3    H238308   7.723   0.842   2.673
12789TIP3   OH238309   2.640   0.252   0.763
12789TIP3    H138310   2.729   0.283   0.781
12789TIP3    H238311   2.638   0.237   0.669
12790TIP3   OH238312   3.324   0.854   4.552
12790TIP3    H138313   3.232   0.826   4.551
12790TIP3    H238314   3.333   0.910   4.476
12791TIP3   OH238315   0.694   1.375   6.225
12791TIP3    H138316   0.629   1.405   6.288
12791TIP3    H238317   0.774   1.365   6.276
12792TIP3   OH238318   0.255   1.018   6.123
12792TIP3    H138319   0.268   0.987   6.212
12792TIP3    H238320   0.186   1.084   6.130
12793TIP3   OH238321   0.519   7.081   3.799
12793TIP3    H138322   0.443   7.031   3.767
12793TIP3    H238323   0.579   7.083   3.724
12794TIP3   OH238324   2.884   2.152   1.855
12794TIP3    H138325   2.842   2.232   1.824
12794TIP3    H238326   2.815   2.086   1.853
12795TIP3   OH238327   4.081   7.526   5.774
12795TIP3    H138328   4.086   7.588   5.701
12795TIP3    H238329   4.044   7.447   5.735
12796TIP3   OH238330   1.740   5.133   3.892
12796TIP3    H138331   1.802   5.181   3.947
12796TIP3    H238332   1.762   5.041   3.907
12797TIP3   OH238333   7.550   3.107   0.845
12797TIP3    H138334   7.485   3.069   0.904
12797TIP3    H238335   7.528   3.200   0.841
12798TIP3   OH238336   2.034   2.218   1.594
12798TIP3    H138337   1.984   2.229   1.675
12798TIP3    H238338   2.046   2.123   1.586
12799TIP3   OH238339   1.375   2.575   3.132
12799TIP3    H138340   1.408   2.549   3.046
12799TIP3    H238341   1.314   2.647   3.114
12800TIP3   OH238342   5.282   3.046   0.616
12800TIP3    H138343   5.343   2.990   0.568
12800TIP3    H238344   5.311   3.135   0.596
12801TIP3   OH238345   4.974   1.396   2.233
12801TIP3    H138346   4.961   1.414   2.326
12801TIP3    H238347   4.937   1.472   2.189
12802TIP3   OH238348   7.052   6.963   5.729
12802TIP3    H138349   6.964   6.936   5.754
12802TIP3    H238350   7.109   6.896   5.765
12803TIP3   OH238351   1.548   5.888   2.301
12803TIP3    H138352   1.455   5.874   2.283
12803TIP3    H238353   1.565   5.842   2.383
12804TIP3   OH238354   5.372   4.377   2.366
12804TIP3    H138355   5.359   4.299   2.313
12804TIP3    H238356   5.399   4.445   2.304
12805TIP3   OH238357   2.771   1.978   3.443
12805TIP3    H138358   2.818   1.902   3.477
12805TIP3    H238359   2.685   1.944   3.419
12806TIP3   OH238360   3.055   2.916   5.049
12806TIP3    H138361   3.028   2.904   4.958
12806TIP3    H238362   3.124   2.982   5.046
12807TIP3   OH238363   7.127   5.041   4.642
12807TIP3    H138364   7.115   4.954   4.603
12807TIP3    H238365   7.043   5.085   4.628
12808TIP3   OH238366   6.664   7.483   5.960
12808TIP3    H138367   6.713   7.416   5.913
12808TIP3    H238368   6.636   7.440   6.041
12809TIP3   OH238369   2.953   6.543   2.155
12809TIP3    H138370   2.867   6.509   2.133
12809TIP3    H238371   2.960   6.534   2.250
12810TIP3   OH238372   4.295   3.415   5.761
12810TIP3    H138373   4.311   3.348   5.827
12810TIP3    H238374   4.212   3.389   5.719
12811TIP3   OH238375   5.526   2.050   1.147
12811TIP3    H138376   5.449   2.105   1.159
12811TIP3    H238377   5.508   2.000   1.068
12812TIP3   OH238378   0.092   6.872   0.015
12812TIP3    H138379   0.010   6.868   0.063
12812TIP3    H238380   0.157   6.835   0.075
12813TIP3   OH238381   6.561   5.256   3.249
12813TIP3    H138382   6.591   5.214   3.168
12813TIP3    H238383   6.579   5.349   3.236
12814TIP3   OH238384   1.228   4.385   1.826
12814TIP3    H138385   1.292   4.340   1.881
12814TIP3    H238386   1.192   4.316   1.770
12815TIP3   OH238387   2.504   6.640   2.931
12815TIP3    H138388   2.532   6.630   3.022
12815TIP3    H238389   2.584   6.662   2.883
12816TIP3   OH238390   6.170   0.434   4.756
12816TIP3    H138391   6.171   0.528   4.773
12816TIP3    H238392   6.164   0.427   4.661
12817TIP3   OH238393   2.486   3.635   6.313
12817TIP3    H138394   2.532   3.713   6.342
12817TIP3    H238395   2.416   3.622   6.378
12818TIP3   OH238396   1.351   6.402   0.643
12818TIP3    H138397   1.351   6.308   0.665
12818TIP3    H238398   1.350   6.446   0.728
12819TIP3   OH238399   6.201   3.145   3.836
12819TIP3    H138400   6.210   3.056   3.802
12819TIP3    H238401   6.121   3.178   3.795
12820TIP3   OH238402   2.533   5.167   1.494
12820TIP3    H138403   2.466   5.230   1.467
12820TIP3    H238404   2.520   5.157   1.589
12821TIP3   OH238405   4.182   2.741   6.522
12821TIP3    H138406   4.098   2.698   6.506
12821TIP3    H238407   4.162   2.811   6.584
12822TIP3   OH238408   1.460   1.775   6.072
12822TIP3    H138409   1.428   1.759   5.983
12822TIP3    H238410   1.529   1.840   6.061
12823TIP3   OH238411   5.419   7.062   1.557
12823TIP3    H138412   5.458   7.008   1.625
12823TIP3    H238413   5.448   7.022   1.475
12824TIP3   OH238414   6.701   2.596   2.743
12824TIP3    H138415   6.772   2.572   2.683
12824TIP3    H238416   6.715   2.543   2.821
12825TIP3   OH238417   1.395   0.776   0.734
12825TIP3    H138418   1.398   0.848   0.798
12825TIP3    H238419   1.302   0.759   0.722
12826TIP3   OH238420   6.487   1.932   4.561
12826TIP3    H138421   6.415   1.993   4.546
12826TIP3    H238422   6.469   1.858   4.503
12827TIP3   OH238423   4.361   5.277   1.782
12827TIP3    H138424   4.442   5.249   1.740
12827TIP3    H238425   4.363   5.238   1.869
12828TIP3   OH238426   5.496   2.411   5.193
12828TIP3    H138427   5.523   2.355   5.265
12828TIP3    H238428   5.553   2.488   5.198
12829TIP3   OH238429   5.617   7.290   1.586
12829TIP3    H138430   5.554   7.228   1.622
12829TIP3    H238431   5.568   7.339   1.520
12830TIP3   OH238432   0.498   4.613   2.235
12830TIP3    H138433   0.504   4.646   2.324
12830TIP3    H238434   0.584   4.574   2.217
12831TIP3   OH238435   5.942   2.662   6.659
12831TIP3    H138436   5.886   2.632   6.588
12831TIP3    H238437   6.009   2.716   6.616
12832TIP3   OH238438   1.661   3.399   5.971
12832TIP3    H138439   1.676   3.487   6.005
12832TIP3    H238440   1.749   3.364   5.955
12833TIP3   OH238441   6.197   1.853   4.682
12833TIP3    H138442   6.257   1.927   4.678
12833TIP3    H238443   6.160   1.847   4.594
12834TIP3   OH238444   6.525   4.357   5.392
12834TIP3    H138445   6.574   4.362   5.474
12834TIP3    H238446   6.435   4.378   5.416
12835TIP3   OH238447   6.327   4.329   2.210
12835TIP3    H138448   6.412   4.310   2.170
12835TIP3    H238449   6.348   4.346   2.302
12836TIP3   OH238450   7.921   3.393   0.747
12836TIP3    H138451   7.950   3.312   0.706
12836TIP3    H238452   7.902   3.370   0.838
12837TIP3   OH238453   2.193   7.005   3.346
12837TIP3    H138454   2.262   7.044   3.293
12837TIP3    H238455   2.118   7.063   3.334
12838TIP3   OH238456   0.786   0.757   6.418
12838TIP3    H138457   0.738   0.807   6.351
12838TIP3    H238458   0.876   0.754   6.385
12839TIP3   OH238459   3.612   1.599   2.642
12839TIP3    H138460   3.675   1.670   2.650
12839TIP3    H238461   3.623   1.547   2.722
12840TIP3   OH238462   0.218   2.780   1.570
12840TIP3    H138463   0.162   2.723   1.518
12840TIP3    H238464   0.162   2.855   1.592
12841TIP3   OH238465   6.046   1.485   3.551
12841TIP3    H138466   6.123   1.445   3.592
12841TIP3    H238467   6.035   1.568   3.597
12842TIP3   OH238468   2.518   5.359   2.239
12842TIP3    H138469   2.518   5.368   2.143
12842TIP3    H238470   2.451   5.421   2.268
12843TIP3   OH238471   2.430   1.860   6.388
12843TIP3    H138472   2.460   1.788   6.332
12843TIP3    H238473   2.486   1.855   6.465
12844TIP3   OH238474   1.585   0.783   3.647
12844TIP3    H138475   1.495   0.782   3.679
12844TIP3    H238476   1.636   0.742   3.717
12845TIP3   OH238477   0.560   2.517   3.591
12845TIP3    H138478   0.656   2.512   3.589
12845TIP3    H238479   0.541   2.610   3.605
12846TIP3   OH238480   8.203   6.829   1.116
12846TIP3    H138481   8.160   6.809   1.199
12846TIP3    H238482   8.293   6.801   1.129
12847TIP3   OH238483   1.098   7.608   4.227
12847TIP3    H138484   1.023   7.559   4.260
12847TIP3    H238485   1.173   7.574   4.276
12848TIP3   OH238486   3.336   1.832   5.302
12848TIP3    H138487   3.266   1.803   5.361
12848TIP3    H238488   3.354   1.756   5.247
12849TIP3   OH238489   7.183   6.835   0.675
12849TIP3    H138490   7.186   6.760   0.735
12849TIP3    H238491   7.204   6.798   0.589
12850TIP3   OH238492   4.953   7.244   2.711
12850TIP3    H138493   4.907   7.235   2.794
12850TIP3    H238494   4.945   7.157   2.670
12851TIP3   OH238495   6.049   6.274   1.115
12851TIP3    H138496   5.972   6.316   1.154
12851TIP3    H238497   6.035   6.281   1.021
12852TIP3   OH238498   6.191   4.107   5.806
12852TIP3    H138499   6.243   4.027   5.818
12852TIP3    H238500   6.108   4.089   5.851
12853TIP3   OH238501   6.720   1.284   3.096
12853TIP3    H138502   6.769   1.289   3.014
12853TIP3    H238503   6.715   1.190   3.115
12854TIP3   OH238504   0.772   1.828   0.706
12854TIP3    H138505   0.776   1.802   0.798
12854TIP3    H238506   0.791   1.748   0.658
12855TIP3   OH238507   0.076   0.903   2.757
12855TIP3    H138508   0.077   0.983   2.809
12855TIP3    H238509   0.103   0.834   2.817
12856TIP3   OH238510   6.392   5.990   3.941
12856TIP3    H138511   6.447   5.934   3.995
12856TIP3    H238512   6.450   6.060   3.912
12857TIP3   OH238513   4.119   0.705   4.097
12857TIP3    H138514   4.032   0.666   4.110
12857TIP3    H238515   4.105   0.799   4.108
12858TIP3   OH238516   3.561   6.285   4.632
12858TIP3    H138517   3.594   6.361   4.681
12858TIP3    H238518   3.522   6.322   4.553
12859TIP3   OH238519   4.176   6.242   0.206
12859TIP3    H138520   4.111   6.174   0.225
12859TIP3    H238521   4.158   6.311   0.270
12860TIP3   OH238522   3.330   7.475   2.920
12860TIP3    H138523   3.377   7.494   2.838
12860TIP3    H238524   3.326   7.379   2.922
12861TIP3   OH238525   0.391   0.487   4.830
12861TIP3    H138526   0.358   0.404   4.795
12861TIP3    H238527   0.480   0.494   4.794
12862TIP3   OH238528   7.254   2.978   0.917
12862TIP3    H138529   7.285   2.984   1.007
12862TIP3    H238530   7.167   2.939   0.923
12863TIP3   OH238531   4.366   1.852   4.135
12863TIP3    H138532   4.273   1.841   4.117
12863TIP3    H238533   4.392   1.771   4.179
12864TIP3   OH238534   3.474   4.083   3.244
12864TIP3    H138535   3.455   4.118   3.157
12864TIP3    H238536   3.445   3.992   3.240
12865TIP3   OH238537   6.905   0.022   6.414
12865TIP3    H138538   6.848  -0.044   6.375
12865TIP3    H238539   6.866   0.038   6.501
12866TIP3   OH238540   6.016   0.664   3.559
12866TIP3    H138541   5.958   0.617   3.498
12866TIP3    H238542   6.019   0.608   3.637
12867TIP3   OH238543   4.132   4.111   0.117
12867TIP3    H138544   4.221   4.088   0.091
12867TIP3    H238545   4.123   4.203   0.093
12868TIP3   OH238546   5.778   5.270   3.853
12868TIP3    H138547   5.812   5.358   3.834
12868TIP3    H238548   5.833   5.212   3.801
12869TIP3   OH238549   5.131   2.043   6.751
12869TIP3    H138550   5.217   2.001   6.757
12869TIP3    H238551   5.073   1.984   6.801
12870TIP3   OH238552   7.765   3.227   2.806
12870TIP3    H138553   7.786   3.220   2.713
12870TIP3    H238554   7.807   3.309   2.834
12871TIP3   OH238555   5.198   2.042   2.949
12871TIP3    H138556   5.152   2.110   2.997
12871TIP3    H238557   5.134   2.009   2.886
12872TIP3   OH238558   1.205   7.158   2.822
12872TIP3    H138559   1.179   7.241   2.862
12872TIP3    H238560   1.296   7.171   2.796
12873TIP3   OH238561   6.667   5.722   1.229
12873TIP3    H138562   6.669   5.683   1.141
12873TIP3    H238563   6.737   5.787   1.228
12874TIP3   OH238564   4.582   1.865   3.065
12874TIP3    H138565   4.611   1.933   3.004
12874TIP3    H238566   4.535   1.803   3.009
12875TIP3   OH238567   3.156   3.154   2.287
12875TIP3    H138568   3.130   3.106   2.365
12875TIP3    H238569   3.087   3.219   2.274
12876TIP3   OH238570   0.029   3.504   1.151
12876TIP3    H138571   0.053   3.420   1.190
12876TIP3    H238572  -0.037   3.481   1.085
12877TIP3   OH238573   8.177   6.779   6.078
12877TIP3    H138574   8.127   6.833   6.017
12877TIP3    H238575   8.254   6.752   6.029
12878TIP3   OH238576   4.884   2.459   5.138
12878TIP3    H138577   4.849   2.469   5.049
12878TIP3    H238578   4.839   2.381   5.172
12879TIP3   OH238579   3.535   1.144   5.394
12879TIP3    H138580   3.591   1.096   5.455
12879TIP3    H238581   3.513   1.225   5.439
12880TIP3   OH238582   2.081   3.796   5.762
12880TIP3    H138583   2.031   3.867   5.722
12880TIP3    H238584   2.036   3.777   5.844
12881TIP3   OH238585   4.504   4.499   4.569
12881TIP3    H138586   4.552   4.563   4.623
12881TIP3    H238587   4.508   4.535   4.480
12882TIP3   OH238588   3.894   4.972   4.730
12882TIP3    H138589   3.814   4.922   4.712
12882TIP3    H238590   3.962   4.906   4.739
12883TIP3   OH238591   0.534   3.107   4.325
12883TIP3    H138592   0.439   3.106   4.337
12883TIP3    H238593   0.546   3.092   4.231
12884TIP3   OH238594   1.445   0.612   5.818
12884TIP3    H138595   1.443   0.706   5.834
12884TIP3    H238596   1.415   0.573   5.900
12885TIP3   OH238597   0.901   6.259   1.557
12885TIP3    H138598   0.988   6.274   1.519
12885TIP3    H238599   0.910   6.177   1.607
12886TIP3   OH238600   3.935   6.192   5.013
12886TIP3    H138601   3.934   6.099   5.034
12886TIP3    H238602   3.933   6.237   5.098
12887TIP3   OH238603   3.339   2.127   1.436
12887TIP3    H138604   3.315   2.220   1.433
12887TIP3    H238605   3.284   2.090   1.505
12888TIP3   OH238606   6.640   7.061   5.829
12888TIP3    H138607   6.697   7.066   5.752
12888TIP3    H238608   6.562   7.112   5.805
12889TIP3   OH238609   2.387   2.267   3.394
12889TIP3    H138610   2.385   2.358   3.362
12889TIP3    H238611   2.472   2.234   3.364
12890TIP3   OH238612   6.711   6.751   2.801
12890TIP3    H138613   6.753   6.664   2.805
12890TIP3    H238614   6.696   6.774   2.893
12891TIP3   OH238615   3.497   4.222   1.226
12891TIP3    H138616   3.542   4.147   1.186
12891TIP3    H238617   3.555   4.296   1.210
12892TIP3   OH238618   0.577   4.780   2.048
12892TIP3    H138619   0.629   4.702   2.030
12892TIP3    H238620   0.528   4.759   2.127
12893TIP3   OH238621   2.602   7.612   3.760
12893TIP3    H138622   2.668   7.576   3.820
12893TIP3    H238623   2.520   7.570   3.787
12894TIP3   OH238624   2.507   3.426   1.174
12894TIP3    H138625   2.466   3.366   1.236
12894TIP3    H238626   2.599   3.403   1.175
12895TIP3   OH238627   6.871   5.413   3.927
12895TIP3    H138628   6.881   5.427   3.833
12895TIP3    H238629   6.839   5.496   3.961
12896TIP3   OH238630   5.470   1.775   4.424
12896TIP3    H138631   5.375   1.771   4.413
12896TIP3    H238632   5.504   1.706   4.367
12897TIP3   OH238633   2.772   6.454   2.792
12897TIP3    H138634   2.711   6.490   2.727
12897TIP3    H238635   2.754   6.360   2.793
12898TIP3   OH238636   3.126   1.581   1.536
12898TIP3    H138637   3.104   1.501   1.583
12898TIP3    H238638   3.045   1.633   1.540
12899TIP3   OH238639   6.139   4.855   0.032
12899TIP3    H138640   6.212   4.907   0.000
12899TIP3    H238641   6.125   4.886   0.122
12900TIP3   OH238642   7.996   1.853   0.697
12900TIP3    H138643   8.077   1.865   0.646
12900TIP3    H238644   7.927   1.888   0.640
12901TIP3   OH238645   3.295   1.537   4.384
12901TIP3    H138646   3.223   1.585   4.341
12901TIP3    H238647   3.253   1.460   4.422
12902TIP3   OH238648   5.276   2.817   6.722
12902TIP3    H138649   5.261   2.866   6.641
12902TIP3    H238650   5.367   2.788   6.717
12903TIP3   OH238651   0.964   7.058   6.018
12903TIP3    H138652   0.923   7.030   5.936
12903TIP3    H238653   0.925   7.002   6.085
12904TIP3   OH238654   0.439   6.903   1.013
12904TIP3    H138655   0.479   6.884   0.928
12904TIP3    H238656   0.513   6.924   1.070
12905TIP3   OH238657   3.079   3.671   6.218
12905TIP3    H138658   3.120   3.591   6.185
12905TIP3    H238659   3.074   3.729   6.143
12906TIP3   OH238660   0.108   2.752   2.520
12906TIP3    H138661   0.156   2.825   2.480
12906TIP3    H238662   0.095   2.690   2.448
12907TIP3   OH238663   0.120   5.749   2.709
12907TIP3    H138664   0.035   5.786   2.733
12907TIP3    H238665   0.099   5.664   2.672
12908TIP3   OH238666   6.409   7.122   5.072
12908TIP3    H138667   6.469   7.182   5.026
12908TIP3    H238668   6.445   7.115   5.160
12909TIP3   OH238669   6.034   1.721   3.671
12909TIP3    H138670   5.954   1.754   3.713
12909TIP3    H238671   6.065   1.793   3.616
12910TIP3   OH238672   8.259   3.169   0.228
12910TIP3    H138673   8.236   3.190   0.319
12910TIP3    H238674   8.223   3.081   0.214
12911TIP3   OH238675   7.301   6.851   5.895
12911TIP3    H138676   7.348   6.925   5.856
12911TIP3    H238677   7.343   6.838   5.980
12912TIP3   OH238678   1.599   4.651   1.864
12912TIP3    H138679   1.582   4.592   1.937
12912TIP3    H238680   1.597   4.738   1.903
12913TIP3   OH238681   2.721   5.999   3.748
12913TIP3    H138682   2.755   6.084   3.720
12913TIP3    H238683   2.690   5.958   3.667
12914TIP3   OH238684   1.649   5.387   4.388
12914TIP3    H138685   1.584   5.362   4.454
12914TIP3    H238686   1.732   5.353   4.422
12915TIP3   OH238687   1.584   6.376   1.187
12915TIP3    H138688   1.531   6.455   1.179
12915TIP3    H238689   1.657   6.389   1.126
12916TIP3   OH238690   0.510   0.834   2.377
12916TIP3    H138691   0.426   0.864   2.413
12916TIP3    H238692   0.575   0.893   2.416
12917TIP3   OH238693   1.917   3.570   1.183
12917TIP3    H138694   1.892   3.493   1.132
12917TIP3    H238695   1.924   3.640   1.118
12918TIP3   OH238696   2.790   0.961   4.461
12918TIP3    H138697   2.766   0.874   4.491
12918TIP3    H238698   2.828   0.948   4.374
12919TIP3   OH238699   6.739   4.122   2.653
12919TIP3    H138700   6.755   4.083   2.739
12919TIP3    H238701   6.644   4.130   2.648
12920TIP3   OH238702   8.106   5.423   1.272
12920TIP3    H138703   8.054   5.380   1.204
12920TIP3    H238704   8.120   5.354   1.337
12921TIP3   OH238705   4.856   7.437   3.794
12921TIP3    H138706   4.769   7.452   3.830
12921TIP3    H238707   4.905   7.397   3.866
12922TIP3   OH238708   0.901   5.642   1.131
12922TIP3    H138709   0.921   5.711   1.195
12922TIP3    H238710   0.943   5.671   1.050
12923TIP3   OH238711  -0.045   1.383   2.159
12923TIP3    H138712   0.048   1.362   2.165
12923TIP3    H238713  -0.067   1.366   2.067
12924TIP3   OH238714   7.384   1.878   2.584
12924TIP3    H138715   7.429   1.892   2.667
12924TIP3    H238716   7.302   1.834   2.607
12925TIP3   OH238717   7.249   6.699   2.142
12925TIP3    H138718   7.288   6.759   2.078
12925TIP3    H238719   7.323   6.647   2.173
12926TIP3   OH238720   5.846   5.413   2.824
12926TIP3    H138721   5.803   5.469   2.759
12926TIP3    H238722   5.926   5.461   2.847
12927TIP3   OH238723   3.355   1.854   4.991
12927TIP3    H138724   3.380   1.780   5.046
12927TIP3    H238725   3.270   1.830   4.955
12928TIP3   OH238726   4.515   4.682   4.832
12928TIP3    H138727   4.500   4.766   4.788
12928TIP3    H238728   4.430   4.638   4.829
12929TIP3   OH238729   6.501   1.006   6.313
12929TIP3    H138730   6.426   1.065   6.313
12929TIP3    H238731   6.481   0.942   6.381
12930TIP3   OH238732   5.231   3.685   4.237
12930TIP3    H138733   5.224   3.604   4.186
12930TIP3    H238734   5.318   3.680   4.277
12931TIP3   OH238735   6.828   3.696   2.995
12931TIP3    H138736   6.810   3.602   3.004
12931TIP3    H238737   6.908   3.709   3.046
12932TIP3   OH238738   2.184   2.702   1.788
12932TIP3    H138739   2.178   2.796   1.773
12932TIP3    H238740   2.253   2.692   1.853
12933TIP3   OH238741   3.720   7.605   2.098
12933TIP3    H138742   3.812   7.619   2.074
12933TIP3    H238743   3.723   7.570   2.187
12934TIP3   OH238744   1.218   3.342   3.480
12934TIP3    H138745   1.278   3.404   3.437
12934TIP3    H238746   1.245   3.257   3.447
12935TIP3   OH238747   3.282   7.332   3.354
12935TIP3    H138748   3.241   7.260   3.402
12935TIP3    H238749   3.222   7.349   3.281
12936TIP3   OH238750   4.816   2.263   1.739
12936TIP3    H138751   4.753   2.329   1.769
12936TIP3    H238752   4.901   2.297   1.768
12937TIP3   OH238753   1.250   7.604   3.891
12937TIP3    H138754   1.307   7.657   3.946
12937TIP3    H238755   1.174   7.585   3.946
12938TIP3   OH238756   5.630   4.315   3.972
12938TIP3    H138757   5.696   4.253   3.938
12938TIP3    H238758   5.682   4.387   4.008
12939TIP3   OH238759   4.077   7.407   5.064
12939TIP3    H138760   4.018   7.370   4.998
12939TIP3    H238761   4.133   7.467   5.015
12940TIP3   OH238762   7.594   4.710   3.427
12940TIP3    H138763   7.591   4.622   3.465
12940TIP3    H238764   7.680   4.743   3.453
12941TIP3   OH238765   1.598   3.843   4.726
12941TIP3    H138766   1.543   3.768   4.748
12941TIP3    H238767   1.637   3.869   4.810
12942TIP3   OH238768   6.331   5.481   2.424
12942TIP3    H138769   6.236   5.487   2.425
12942TIP3    H238770   6.358   5.502   2.513
12943TIP3   OH238771   0.651   0.140   3.092
12943TIP3    H138772   0.739   0.171   3.072
12943TIP3    H238773   0.617   0.109   3.007
12944TIP3   OH238774   6.568   2.279   1.827
12944TIP3    H138775   6.652   2.279   1.874
12944TIP3    H238776   6.574   2.353   1.767
12945TIP3   OH238777   7.771   0.367   1.905
12945TIP3    H138778   7.815   0.315   1.838
12945TIP3    H238779   7.809   0.338   1.987
12946TIP3   OH238780   4.411   4.761   4.074
12946TIP3    H138781   4.316   4.765   4.065
12946TIP3    H238782   4.441   4.846   4.040
12947TIP3   OH238783   4.312   0.343   2.903
12947TIP3    H138784   4.352   0.427   2.922
12947TIP3    H238785   4.385   0.283   2.888
12948TIP3   OH238786   2.508   6.479   0.297
12948TIP3    H138787   2.418   6.506   0.281
12948TIP3    H238788   2.501   6.403   0.355
12949TIP3   OH238789   1.683   1.233   2.157
12949TIP3    H138790   1.641   1.147   2.154
12949TIP3    H238791   1.669   1.271   2.070
12950TIP3   OH238792   3.677   6.074   1.647
12950TIP3    H138793   3.693   6.116   1.563
12950TIP3    H238794   3.715   6.133   1.712
12951TIP3   OH238795   2.665   5.274   0.616
12951TIP3    H138796   2.615   5.291   0.695
12951TIP3    H238797   2.609   5.305   0.544
12952TIP3   OH238798   2.238   4.189   1.470
12952TIP3    H138799   2.229   4.172   1.564
12952TIP3    H238800   2.288   4.270   1.464
12953TIP3   OH238801   4.133   4.901   0.534
12953TIP3    H138802   4.147   4.850   0.614
12953TIP3    H238803   4.120   4.837   0.465
12954TIP3   OH238804   4.593   0.315   3.926
12954TIP3    H138805   4.609   0.232   3.971
12954TIP3    H238806   4.661   0.319   3.858
12955TIP3   OH238807   8.050   0.563   3.931
12955TIP3    H138808   8.085   0.550   3.844
12955TIP3    H238809   8.001   0.483   3.950
12956TIP3   OH238810   6.587   1.589   5.512
12956TIP3    H138811   6.653   1.655   5.532
12956TIP3    H238812   6.631   1.528   5.452
12957TIP3   OH238813   0.944   7.289   0.082
12957TIP3    H138814   1.009   7.331   0.026
12957TIP3    H238815   0.967   7.196   0.079
12958TIP3   OH238816   4.201   0.247   0.203
12958TIP3    H138817   4.252   0.327   0.214
12958TIP3    H238818   4.244   0.201   0.132
12959TIP3   OH238819   8.245   1.686   3.669
12959TIP3    H138820   8.249   1.656   3.760
12959TIP3    H238821   8.154   1.712   3.656
12960TIP3   OH238822   1.347   1.286   3.733
12960TIP3    H138823   1.304   1.284   3.819
12960TIP3    H238824   1.283   1.247   3.674
12961TIP3   OH238825   4.420   4.065   5.978
12961TIP3    H138826   4.398   4.148   5.936
12961TIP3    H238827   4.393   4.077   6.070
12962TIP3   OH238828   4.114   2.156   1.502
12962TIP3    H138829   4.023   2.163   1.473
12962TIP3    H238830   4.140   2.067   1.476
12963TIP3   OH238831   7.044   3.631   1.637
12963TIP3    H138832   6.967   3.632   1.580
12963TIP3    H238833   7.032   3.706   1.695
12964TIP3   OH238834   4.069   0.133   0.683
12964TIP3    H138835   4.043   0.151   0.773
12964TIP3    H238836   4.003   0.071   0.651
12965TIP3   OH238837   1.900   6.196   3.080
12965TIP3    H138838   1.941   6.115   3.110
12965TIP3    H238839   1.961   6.232   3.015
12966TIP3   OH238840   4.629   1.033   0.037
12966TIP3    H138841   4.537   1.052   0.056
12966TIP3    H238842   4.673   1.118   0.046
12967TIP3   OH238843   2.839   5.005   6.480
12967TIP3    H138844   2.853   4.936   6.414
12967TIP3    H238845   2.779   5.067   6.439
12968TIP3   OH238846   6.150   2.468   6.794
12968TIP3    H138847   6.096   2.533   6.749
12968TIP3    H238848   6.240   2.497   6.780
12969TIP3   OH238849   3.986   5.537   6.492
12969TIP3    H138850   4.038   5.456   6.496
12969TIP3    H238851   3.901   5.508   6.459
12970TIP3   OH238852   6.175   5.170   1.812
12970TIP3    H138853   6.112   5.144   1.879
12970TIP3    H238854   6.254   5.192   1.860
12971TIP3   OH238855   2.916   0.784   3.492
12971TIP3    H138856   2.910   0.741   3.406
12971TIP3    H238857   2.930   0.712   3.554
12972TIP3   OH238858   2.864   1.523   6.354
12972TIP3    H138859   2.890   1.431   6.347
12972TIP3    H238860   2.796   1.534   6.289
12973TIP3   OH238861   2.689   6.025   0.637
12973TIP3    H138862   2.737   5.942   0.629
12973TIP3    H238863   2.749   6.082   0.685
12974TIP3   OH238864   3.310   5.761   2.501
12974TIP3    H138865   3.220   5.749   2.469
12974TIP3    H238866   3.330   5.679   2.545
12975TIP3   OH238867   1.399   3.857   2.663
12975TIP3    H138868   1.321   3.912   2.653
12975TIP3    H238869   1.369   3.769   2.642
12976TIP3   OH238870   0.374   5.663   6.037
12976TIP3    H138871   0.395   5.637   5.948
12976TIP3    H238872   0.291   5.710   6.029
12977TIP3   OH238873   3.313   0.276   3.820
12977TIP3    H138874   3.348   0.364   3.831
12977TIP3    H238875   3.385   0.219   3.847
12978TIP3   OH238876   0.787   6.264   6.604
12978TIP3    H138877   0.769   6.206   6.529
12978TIP3    H238878   0.706   6.265   6.654
12979TIP3   OH238879   7.390   0.544   3.438
12979TIP3    H138880   7.358   0.578   3.522
12979TIP3    H238881   7.314   0.548   3.380
12980TIP3   OH238882   1.240   5.788   6.501
12980TIP3    H138883   1.326   5.778   6.460
12980TIP3    H238884   1.241   5.725   6.573
12981TIP3   OH238885   3.161   3.086   1.801
12981TIP3    H138886   3.254   3.084   1.779
12981TIP3    H238887   3.123   3.146   1.737
12982TIP3   OH238888   5.791   6.795   5.645
12982TIP3    H138889   5.846   6.717   5.642
12982TIP3    H238890   5.839   6.856   5.700
12983TIP3   OH238891   5.910   1.925   0.844
12983TIP3    H138892   5.886   1.997   0.902
12983TIP3    H238893   5.828   1.902   0.799
12984TIP3   OH238894   6.243   2.032   0.722
12984TIP3    H138895   6.301   2.107   0.708
12984TIP3    H238896   6.299   1.966   0.763
12985TIP3   OH238897   5.885   4.163   1.448
12985TIP3    H138898   5.942   4.232   1.481
12985TIP3    H238899   5.942   4.108   1.393
12986TIP3   OH238900   2.908   4.478   2.228
12986TIP3    H138901   2.958   4.539   2.173
12986TIP3    H238902   2.873   4.414   2.167
12987TIP3   OH238903   7.115   5.694   4.734
12987TIP3    H138904   7.176   5.623   4.753
12987TIP3    H238905   7.143   5.765   4.792
12988TIP3   OH238906   3.919   3.574   2.171
12988TIP3    H138907   3.876   3.493   2.201
12988TIP3    H238908   4.006   3.546   2.144
12989TIP3   OH238909   4.034   6.741   0.208
12989TIP3    H138910   3.951   6.733   0.256
12989TIP3    H238911   4.012   6.720   0.118
12990TIP3   OH238912   2.974   5.320   2.174
12990TIP3    H138913   3.062   5.284   2.189
12990TIP3    H238914   2.927   5.306   2.256
12991TIP3   OH238915   1.891   1.019   4.527
12991TIP3    H138916   1.908   1.004   4.433
12991TIP3    H238917   1.976   1.045   4.562
12992TIP3   OH238918   8.020   2.377   6.652
12992TIP3    H138919   8.031   2.334   6.738
12992TIP3    H238920   8.100   2.354   6.604
12993TIP3   OH238921   1.558   2.186   5.124
12993TIP3    H138922   1.520   2.274   5.126
12993TIP3    H238923   1.620   2.189   5.051
12994TIP3   OH238924   3.361   7.679   0.700
12994TIP3    H138925   3.312   7.695   0.620
12994TIP3    H238926   3.309   7.720   0.769
12995TIP3   OH238927   7.745   1.515   4.772
12995TIP3    H138928   7.792   1.566   4.706
12995TIP3    H238929   7.814   1.486   4.832
12996TIP3   OH238930   7.298   1.004   0.068
12996TIP3    H138931   7.297   1.042  -0.019
12996TIP3    H238932   7.307   1.078   0.127
12997TIP3   OH238933   7.740   3.979   4.331
12997TIP3    H138934   7.730   3.979   4.236
12997TIP3    H238935   7.711   3.892   4.359
12998TIP3   OH238936   1.707   1.043   3.131
12998TIP3    H138937   1.760   1.112   3.091
12998TIP3    H238938   1.767   0.969   3.142
12999TIP3   OH238939   0.848   0.567   5.052
12999TIP3    H138940   0.832   0.502   4.983
12999TIP3    H238941   0.813   0.649   5.016
13000TIP3   OH238942   6.617   5.829   1.872
13000TIP3    H138943   6.550   5.782   1.823
13000TIP3    H238944   6.683   5.852   1.807
13001TIP3   OH238945   4.671   1.178   4.570
13001TIP3    H138946   4.730   1.227   4.512
13001TIP3    H238947   4.592   1.164   4.517
13002TIP3   OH238948   5.098   7.192   1.044
13002TIP3    H138949   5.122   7.121   1.104
13002TIP3    H238950   5.162   7.186   0.973
13003TIP3   OH238951   0.668   5.104   5.629
13003TIP3    H138952   0.603   5.052   5.582
13003TIP3    H238953   0.637   5.195   5.620
13004TIP3   OH238954   7.638   0.584   2.554
13004TIP3    H138955   7.689   0.519   2.603
13004TIP3    H238956   7.693   0.662   2.553
13005TIP3   OH238957   3.483   1.403   6.029
13005TIP3    H138958   3.433   1.349   5.968
13005TIP3    H238959   3.518   1.474   5.975
13006TIP3   OH238960   2.959   5.440   5.126
13006TIP3    H138961   3.034   5.381   5.126
13006TIP3    H238962   2.955   5.475   5.214
13007TIP3   OH238963   1.261   0.545   4.620
13007TIP3    H138964   1.302   0.489   4.687
13007TIP3    H238965   1.269   0.495   4.539
13008TIP3   OH238966   1.281   6.298   4.498
13008TIP3    H138967   1.347   6.258   4.555
13008TIP3    H238968   1.289   6.392   4.514
13009TIP3   OH238969   3.344   2.355   2.728
13009TIP3    H138970   3.288   2.307   2.788
13009TIP3    H238971   3.412   2.394   2.783
13010TIP3   OH238972   0.234   5.503   0.339
13010TIP3    H138973   0.148   5.470   0.312
13010TIP3    H238974   0.294   5.469   0.273
13011TIP3   OH238975   6.606   4.809   0.082
13011TIP3    H138976   6.528   4.761   0.110
13011TIP3    H238977   6.679   4.764   0.124
13012TIP3   OH238978   6.246   1.128   2.257
13012TIP3    H138979   6.303   1.116   2.181
13012TIP3    H238980   6.158   1.109   2.224
13013TIP3   OH238981   7.156   2.426   2.433
13013TIP3    H138982   7.210   2.497   2.466
13013TIP3    H238983   7.175   2.352   2.492
13014TIP3   OH238984   1.208   1.084   3.385
13014TIP3    H138985   1.131   1.038   3.420
13014TIP3    H238986   1.281   1.026   3.404
13015TIP3   OH238987   1.304   7.280   1.931
13015TIP3    H138988   1.398   7.293   1.942
13015TIP3    H238989   1.297   7.195   1.886
13016TIP3   OH238990   2.405   2.048   1.254
13016TIP3    H138991   2.459   1.987   1.204
13016TIP3    H238992   2.320   2.047   1.209
13017TIP3   OH238993   3.315   1.173   1.840
13017TIP3    H138994   3.364   1.105   1.793
13017TIP3    H238995   3.235   1.185   1.789
13018TIP3   OH238996   3.887   6.636   6.277
13018TIP3    H138997   3.807   6.676   6.310
13018TIP3    H238998   3.857   6.581   6.204
13019TIP3   OH238999   7.168   3.146   4.476
13019TIP3    H139000   7.167   3.050   4.484
13019TIP3    H239001   7.234   3.174   4.540
13020TIP3   OH239002   6.528   4.651   3.559
13020TIP3    H139003   6.509   4.664   3.653
13020TIP3    H239004   6.589   4.722   3.538
13021TIP3   OH239005   0.890   1.344   0.957
13021TIP3    H139006   0.818   1.366   0.898
13021TIP3    H239007   0.856   1.365   1.045
13022TIP3   OH239008   1.928   3.422   0.386
13022TIP3    H139009   1.933   3.454   0.476
13022TIP3    H239010   1.839   3.389   0.377
13023TIP3   OH239011   7.095   3.786   3.603
13023TIP3    H139012   7.161   3.853   3.582
13023TIP3    H239013   7.129   3.743   3.682
13024TIP3   OH239014   1.250   5.783   5.949
13024TIP3    H139015   1.300   5.716   5.995
13024TIP3    H239016   1.274   5.865   5.992
13025TIP3   OH239017   1.053   2.076   3.027
13025TIP3    H139018   1.113   2.123   3.085
13025TIP3    H239019   0.984   2.044   3.085
13026TIP3   OH239020   1.568   5.850   6.320
13026TIP3    H139021   1.553   5.897   6.402
13026TIP3    H239022   1.661   5.860   6.302
13027TIP3   OH239023   1.074   3.381   3.713
13027TIP3    H139024   1.132   3.357   3.641
13027TIP3    H239025   1.036   3.298   3.742
13028TIP3   OH239026   8.182   7.255   0.890
13028TIP3    H139027   8.254   7.210   0.934
13028TIP3    H239028   8.108   7.195   0.897
13029TIP3   OH239029   5.035   7.711   0.958
13029TIP3    H139030   5.018   7.617   0.965
13029TIP3    H239031   4.965   7.745   0.902
13030TIP3   OH239032   2.640   4.921   2.646
13030TIP3    H139033   2.683   4.918   2.731
13030TIP3    H239034   2.608   5.011   2.638
13031TIP3   OH239035   6.578   5.205   4.244
13031TIP3    H139036   6.504   5.150   4.218
13031TIP3    H239037   6.585   5.271   4.176
13032TIP3   OH239038   1.115   0.317   5.655
13032TIP3    H139039   1.140   0.243   5.599
13032TIP3    H239040   1.149   0.294   5.742
13033TIP3   OH239041   2.925   1.003   1.009
13033TIP3    H139042   2.914   0.953   0.928
13033TIP3    H239043   2.938   1.094   0.980
13034TIP3   OH239044   5.654   2.909   2.310
13034TIP3    H139045   5.727   2.937   2.255
13034TIP3    H239046   5.631   2.822   2.278
13035TIP3   OH239047   7.632   7.204   4.408
13035TIP3    H139048   7.619   7.155   4.489
13035TIP3    H239049   7.572   7.278   4.414
13036TIP3   OH239050   7.881   6.806   6.489
13036TIP3    H139051   7.961   6.854   6.469
13036TIP3    H239052   7.910   6.722   6.524
13037TIP3   OH239053   2.612   3.535   3.240
13037TIP3    H139054   2.531   3.572   3.206
13037TIP3    H239055   2.643   3.476   3.171
13038TIP3   OH239056   3.239   5.772   1.158
13038TIP3    H139057   3.198   5.747   1.075
13038TIP3    H239058   3.304   5.704   1.175
13039TIP3   OH239059   2.640   3.750   5.554
13039TIP3    H139060   2.629   3.710   5.641
13039TIP3    H239061   2.735   3.762   5.546
13040TIP3   OH239062   7.239   6.825   1.880
13040TIP3    H139063   7.297   6.891   1.843
13040TIP3    H239064   7.164   6.823   1.821
13041TIP3   OH239065   1.632   2.760   3.515
13041TIP3    H139066   1.587   2.799   3.440
13041TIP3    H239067   1.562   2.725   3.570
13042TIP3   OH239068   5.479   2.919   5.276
13042TIP3    H139069   5.414   2.849   5.267
13042TIP3    H239070   5.479   2.940   5.369
13043TIP3   OH239071   1.739   7.252   2.926
13043TIP3    H139072   1.776   7.314   2.864
13043TIP3    H239073   1.814   7.202   2.958
13044TIP3   OH239074   0.665   1.837   1.949
13044TIP3    H139075   0.601   1.835   1.878
13044TIP3    H239076   0.727   1.907   1.924
13045TIP3   OH239077   0.174   7.298   1.209
13045TIP3    H139078   0.209   7.277   1.296
13045TIP3    H239079   0.164   7.213   1.166
13046TIP3   OH239080   8.294   7.343   3.445
13046TIP3    H139081   8.370   7.371   3.394
13046TIP3    H239082   8.247   7.284   3.387
13047TIP3   OH239083   8.268   6.964   3.184
13047TIP3    H139084   8.264   7.060   3.188
13047TIP3    H239085   8.176   6.936   3.183
13048TIP3   OH239086   6.674   6.546   1.408
13048TIP3    H139087   6.671   6.453   1.385
13048TIP3    H239088   6.674   6.592   1.324
13049TIP3   OH239089   1.154   7.009   1.042
13049TIP3    H139090   1.068   6.993   1.003
13049TIP3    H239091   1.146   6.978   1.132
13050TIP3   OH239092   0.466   1.661   2.081
13050TIP3    H139093   0.488   1.753   2.088
13050TIP3    H239094   0.482   1.639   1.989
13051TIP3   OH239095   3.025   0.953   4.633
13051TIP3    H139096   2.952   0.968   4.573
13051TIP3    H239097   3.035   1.036   4.680
13052TIP3   OH239098   7.069   1.357   1.635
13052TIP3    H139099   7.001   1.291   1.616
13052TIP3    H239100   7.149   1.306   1.645
13053TIP3   OH239101   7.143   1.378   0.841
13053TIP3    H139102   7.078   1.405   0.905
13053TIP3    H239103   7.220   1.356   0.892
13054TIP3   OH239104   6.061   2.971   5.989
13054TIP3    H139105   6.017   3.051   5.960
13054TIP3    H239106   6.138   2.965   5.933
13055TIP3   OH239107   2.160   4.592   4.609
13055TIP3    H139108   2.214   4.518   4.634
13055TIP3    H239109   2.209   4.669   4.639
13056TIP3   OH239110   1.565   5.281   3.082
13056TIP3    H139111   1.648   5.282   3.130
13056TIP3    H239112   1.589   5.255   2.993
13057TIP3   OH239113   7.994   3.931   6.139
13057TIP3    H139114   8.055   3.874   6.092
13057TIP3    H239115   8.025   3.929   6.230
13058TIP3   OH239116   7.909   3.254   4.265
13058TIP3    H139117   7.827   3.292   4.296
13058TIP3    H239118   7.931   3.188   4.332
13059TIP3   OH239119   6.416   2.668   6.222
13059TIP3    H139120   6.404   2.724   6.145
13059TIP3    H239121   6.350   2.599   6.212
13060TIP3   OH239122   7.051   1.149   2.831
13060TIP3    H139123   7.132   1.121   2.788
13060TIP3    H239124   7.080   1.202   2.905
13061TIP3   OH239125   1.056   5.043   2.362
13061TIP3    H139126   1.001   4.986   2.309
13061TIP3    H239127   1.009   5.050   2.446
13062TIP3   OH239128   0.533   2.071   1.605
13062TIP3    H139129   0.456   2.053   1.659
13062TIP3    H239130   0.563   2.157   1.634
13063TIP3   OH239131   1.464   6.216   3.266
13063TIP3    H139132   1.386   6.251   3.309
13063TIP3    H239133   1.506   6.160   3.333
13064TIP3   OH239134   4.198   0.483   4.559
13064TIP3    H139135   4.116   0.524   4.584
13064TIP3    H239136   4.210   0.507   4.467
13065TIP3   OH239137   0.815   4.795   2.369
13065TIP3    H139138   0.880   4.769   2.305
13065TIP3    H239139   0.767   4.867   2.328
13066TIP3   OH239140   6.064   2.115   5.883
13066TIP3    H139141   6.103   2.047   5.827
13066TIP3    H239142   5.984   2.074   5.917
13067TIP3   OH239143   8.065   2.497   0.723
13067TIP3    H139144   8.134   2.509   0.658
13067TIP3    H239145   7.985   2.523   0.678
13068TIP3   OH239146   7.055   3.682   6.072
13068TIP3    H139147   7.136   3.717   6.107
13068TIP3    H239148   7.069   3.675   5.978
13069TIP3   OH239149   1.740   0.687   2.618
13069TIP3    H139150   1.692   0.604   2.617
13069TIP3    H239151   1.715   0.730   2.536
13070TIP3   OH239152   4.478   4.023   1.709
13070TIP3    H139153   4.525   3.949   1.746
13070TIP3    H239154   4.491   4.094   1.772
13071TIP3   OH239155   2.830   3.917   6.141
13071TIP3    H139156   2.745   3.908   6.096
13071TIP3    H239157   2.884   3.847   6.104
13072TIP3   OH239158   5.635   7.233   5.621
13072TIP3    H139159   5.600   7.282   5.547
13072TIP3    H239160   5.717   7.195   5.588
13073TIP3   OH239161   1.641   6.722   5.683
13073TIP3    H139162   1.584   6.770   5.743
13073TIP3    H239163   1.722   6.709   5.732
13074TIP3   OH239164   1.203   7.714   4.981
13074TIP3    H139165   1.208   7.618   4.981
13074TIP3    H239166   1.286   7.743   4.943
13075TIP3   OH239167   2.920   7.396   4.863
13075TIP3    H139168   2.866   7.433   4.793
13075TIP3    H239169   2.867   7.326   4.900
13076TIP3   OH239170   6.063   0.867   0.083
13076TIP3    H139171   6.007   0.791   0.065
13076TIP3    H239172   6.015   0.917   0.149
13077TIP3   OH239173   0.379   4.768   5.178
13077TIP3    H139174   0.350   4.827   5.108
13077TIP3    H239175   0.308   4.773   5.243
13078TIP3   OH239176   4.666   4.860   3.137
13078TIP3    H139177   4.593   4.835   3.194
13078TIP3    H239178   4.624   4.891   3.056
13079TIP3   OH239179   8.235   3.744   6.638
13079TIP3    H139180   8.324   3.712   6.637
13079TIP3    H239181   8.206   3.734   6.729
13080TIP3   OH239182   7.169   5.195   2.485
13080TIP3    H139183   7.223   5.133   2.436
13080TIP3    H239184   7.113   5.236   2.419
13081TIP3   OH239185   3.039   6.688   6.192
13081TIP3    H139186   3.045   6.739   6.111
13081TIP3    H239187   3.065   6.749   6.261
13082TIP3   OH239188   6.200   3.440   2.603
13082TIP3    H139189   6.220   3.359   2.650
13082TIP3    H239190   6.270   3.500   2.629
13083TIP3   OH239191   3.641   6.400   0.925
13083TIP3    H139192   3.589   6.377   1.002
13083TIP3    H239193   3.718   6.343   0.931
13084TIP3   OH239194   6.071   2.397   3.160
13084TIP3    H139195   6.057   2.491   3.175
13084TIP3    H239196   6.005   2.373   3.095
13085TIP3   OH239197   3.370   5.141   2.174
13085TIP3    H139198   3.310   5.185   2.114
13085TIP3    H239199   3.457   5.174   2.151
13086TIP3   OH239200   8.218   6.276   5.494
13086TIP3    H139201   8.253   6.351   5.542
13086TIP3    H239202   8.205   6.209   5.561
13087TIP3   OH239203   7.662   0.140   2.803
13087TIP3    H139204   7.572   0.110   2.816
13087TIP3    H239205   7.716   0.071   2.842
13088TIP3   OH239206   7.602   1.653   4.002
13088TIP3    H139207   7.637   1.705   3.930
13088TIP3    H239208   7.518   1.620   3.969
13089TIP3   OH239209   0.116   2.567   4.856
13089TIP3    H139210   0.048   2.516   4.811
13089TIP3    H239211   0.159   2.504   4.914
13090TIP3   OH239212   7.652   5.546   6.351
13090TIP3    H139213   7.691   5.545   6.264
13090TIP3    H239214   7.638   5.638   6.370
13091TIP3   OH239215   3.571   4.445   2.640
13091TIP3    H139216   3.601   4.423   2.729
13091TIP3    H239217   3.503   4.380   2.621
13092TIP3   OH239218   2.207   2.827   2.129
13092TIP3    H139219   2.177   2.771   2.200
13092TIP3    H239220   2.131   2.880   2.106
13093TIP3   OH239221   5.470   1.203   6.490
13093TIP3    H139222   5.548   1.170   6.535
13093TIP3    H239223   5.403   1.135   6.505
13094TIP3   OH239224   4.003   2.750   5.781
13094TIP3    H139225   3.912   2.774   5.798
13094TIP3    H239226   4.000   2.701   5.698
13095TIP3   OH239227   2.856   0.592   3.768
13095TIP3    H139228   2.884   0.529   3.835
13095TIP3    H239229   2.776   0.555   3.732
13096TIP3   OH239230   3.211   5.401   4.383
13096TIP3    H139231   3.119   5.381   4.361
13096TIP3    H239232   3.236   5.332   4.444
13097TIP3   OH239233   2.874   1.977   3.144
13097TIP3    H139234   2.786   1.997   3.112
13097TIP3    H239235   2.884   2.031   3.223
13098TIP3   OH239236   5.524   5.316   2.960
13098TIP3    H139237   5.483   5.402   2.968
13098TIP3    H239238   5.489   5.267   3.035
13099TIP3   OH239239   6.677   6.837   1.944
13099TIP3    H139240   6.642   6.754   1.976
13099TIP3    H239241   6.683   6.893   2.021
13100TIP3   OH239242   2.339   0.805   0.838
13100TIP3    H139243   2.429   0.837   0.842
13100TIP3    H239244   2.285   0.884   0.837
13101TIP3   OH239245   4.165   4.560   6.109
13101TIP3    H139246   4.107   4.629   6.140
13101TIP3    H239247   4.148   4.556   6.015
13102TIP3   OH239248   1.167   0.811   2.748
13102TIP3    H139249   1.147   0.900   2.776
13102TIP3    H239250   1.136   0.807   2.657
13103TIP3   OH239251   0.248   1.282   2.187
13103TIP3    H139252   0.244   1.318   2.099
13103TIP3    H239253   0.299   1.345   2.237
13104TIP3   OH239254   3.715   6.874   6.040
13104TIP3    H139255   3.628   6.895   6.075
13104TIP3    H239256   3.699   6.848   5.949
13105TIP3   OH239257   1.710   7.450   2.255
13105TIP3    H139258   1.800   7.430   2.231
13105TIP3    H239259   1.679   7.508   2.185
13106TIP3   OH239260   5.151   2.483   5.102
13106TIP3    H139261   5.182   2.515   5.187
13106TIP3    H239262   5.061   2.455   5.118
13107TIP3   OH239263   6.875   1.837   0.421
13107TIP3    H139264   6.941   1.769   0.406
13107TIP3    H239265   6.834   1.851   0.335
13108TIP3   OH239266   7.600   1.358   2.179
13108TIP3    H139267   7.590   1.327   2.269
13108TIP3    H239268   7.687   1.398   2.178
13109TIP3   OH239269   5.384   4.083   0.299
13109TIP3    H139270   5.362   4.174   0.278
13109TIP3    H239271   5.479   4.078   0.284
13110TIP3   OH239272   3.774   2.954   6.413
13110TIP3    H139273   3.719   2.877   6.404
13110TIP3    H239274   3.821   2.960   6.329
13111TIP3   OH239275   0.824   2.581   1.244
13111TIP3    H139276   0.775   2.587   1.326
13111TIP3    H239277   0.854   2.490   1.241
13112TIP3   OH239278   5.232   5.318   2.862
13112TIP3    H139279   5.145   5.283   2.884
13112TIP3    H239280   5.293   5.250   2.890
13113TIP3   OH239281   1.339   6.886   4.302
13113TIP3    H139282   1.276   6.840   4.246
13113TIP3    H239283   1.290   6.906   4.382
13114TIP3   OH239284   7.318   3.600   2.655
13114TIP3    H139285   7.293   3.687   2.685
13114TIP3    H239286   7.409   3.590   2.686
13115TIP3   OH239287   7.629   4.208   1.927
13115TIP3    H139288   7.682   4.242   1.999
13115TIP3    H239289   7.607   4.118   1.953
13116TIP3   OH239290   5.549   5.110   2.313
13116TIP3    H139291   5.483   5.086   2.248
13116TIP3    H239292   5.525   5.200   2.338
13117TIP3   OH239293   2.848   6.918   5.071
13117TIP3    H139294   2.864   6.894   4.980
13117TIP3    H239295   2.919   6.980   5.091
13118TIP3   OH239296   1.302   2.653   1.683
13118TIP3    H139297   1.268   2.564   1.687
13118TIP3    H239298   1.279   2.691   1.768
13119TIP3   OH239299   3.833   7.296   4.515
13119TIP3    H139300   3.776   7.230   4.555
13119TIP3    H239301   3.844   7.362   4.583
13120TIP3   OH239302   4.608   4.819   4.530
13120TIP3    H139303   4.642   4.772   4.455
13120TIP3    H239304   4.562   4.894   4.493
13121TIP3   OH239305   5.019   5.349  -0.012
13121TIP3    H139306   5.065   5.420  -0.058
13121TIP3    H239307   5.075   5.272  -0.026
13122TIP3   OH239308   1.088   1.354   5.701
13122TIP3    H139309   1.015   1.413   5.682
13122TIP3    H239310   1.166   1.401   5.672
13123TIP3   OH239311   3.643   2.820   0.328
13123TIP3    H139312   3.708   2.805   0.260
13123TIP3    H239313   3.622   2.733   0.361
13124TIP3   OH239314   5.550   5.989   3.809
13124TIP3    H139315   5.577   6.081   3.802
13124TIP3    H239316   5.466   5.986   3.764
13125TIP3   OH239317   3.046   0.783   0.821
13125TIP3    H139318   3.017   0.699   0.785
13125TIP3    H239319   2.993   0.848   0.775
13126TIP3   OH239320   2.760   1.384   5.932
13126TIP3    H139321   2.767   1.290   5.948
13126TIP3    H239322   2.835   1.404   5.876
13127TIP3   OH239323   0.789   4.182   5.833
13127TIP3    H139324   0.814   4.143   5.917
13127TIP3    H239325   0.693   4.178   5.832
13128TIP3   OH239326   7.802   1.274   1.767
13128TIP3    H139327   7.884   1.269   1.816
13128TIP3    H239328   7.773   1.365   1.776
13129TIP3   OH239329   1.837   7.428   0.718
13129TIP3    H139330   1.802   7.517   0.715
13129TIP3    H239331   1.909   7.428   0.654
13130TIP3   OH239332   1.713   6.818   5.011
13130TIP3    H139333   1.675   6.903   5.036
13130TIP3    H239334   1.798   6.817   5.055
13131TIP3   OH239335   6.476   5.864   4.460
13131TIP3    H139336   6.532   5.860   4.537
13131TIP3    H239337   6.453   5.957   4.451
13132TIP3   OH239338   8.194   4.971   4.161
13132TIP3    H139339   8.198   4.967   4.256
13132TIP3    H239340   8.214   5.062   4.140
13133TIP3   OH239341   4.363   5.697   2.627
13133TIP3    H139342   4.337   5.619   2.675
13133TIP3    H239343   4.309   5.696   2.548
13134TIP3   OH239344   7.732   5.867   3.226
13134TIP3    H139345   7.673   5.942   3.217
13134TIP3    H239346   7.777   5.881   3.309
13135TIP3   OH239347   1.199   3.071   6.727
13135TIP3    H139348   1.169   3.106   6.811
13135TIP3    H239349   1.207   2.977   6.742
13136TIP3   OH239350   7.789   4.765   0.600
13136TIP3    H139351   7.764   4.845   0.555
13136TIP3    H239352   7.712   4.741   0.651
13137TIP3   OH239353   3.455   0.564   1.342
13137TIP3    H139354   3.497   0.648   1.361
13137TIP3    H239355   3.370   0.587   1.305
13138TIP3   OH239356   7.252   0.155   3.248
13138TIP3    H139357   7.210   0.237   3.222
13138TIP3    H239358   7.206   0.087   3.197
13139TIP3   OH239359   0.930   3.145   4.495
13139TIP3    H139360   0.884   3.228   4.505
13139TIP3    H239361   0.866   3.087   4.454
13140TIP3   OH239362   1.119   6.776   3.605
13140TIP3    H139363   1.160   6.692   3.627
13140TIP3    H239364   1.036   6.751   3.563
13141TIP3   OH239365   4.579   4.322   5.530
13141TIP3    H139366   4.596   4.281   5.445
13141TIP3    H239367   4.611   4.411   5.521
13142TIP3   OH239368   6.512   1.810   2.306
13142TIP3    H139369   6.563   1.737   2.341
13142TIP3    H239370   6.453   1.769   2.242
13143TIP3   OH239371   1.681   3.465   1.432
13143TIP3    H139372   1.632   3.547   1.432
13143TIP3    H239373   1.616   3.399   1.411
13144TIP3   OH239374   7.494   4.417   3.140
13144TIP3    H139375   7.487   4.339   3.086
13144TIP3    H239376   7.558   4.472   3.095
13145TIP3   OH239377   1.169   0.369   3.943
13145TIP3    H139378   1.183   0.284   3.985
13145TIP3    H239379   1.142   0.347   3.854
13146TIP3   OH239380   2.056   6.255   0.119
13146TIP3    H139381   2.145   6.237   0.151
13146TIP3    H239382   2.000   6.201   0.175
13147TIP3   OH239383   6.560   4.659   4.879
13147TIP3    H139384   6.625   4.648   4.809
13147TIP3    H239385   6.530   4.570   4.898
13148TIP3   OH239386   2.921   4.466   1.891
13148TIP3    H139387   2.972   4.525   1.947
13148TIP3    H239388   2.952   4.378   1.914
13149TIP3   OH239389   6.882   0.812   5.945
13149TIP3    H139390   6.867   0.822   5.851
13149TIP3    H239391   6.975   0.791   5.952
13150TIP3   OH239392   3.819   0.430   1.064
13150TIP3    H139393   3.824   0.503   1.126
13150TIP3    H239394   3.823   0.352   1.119
13151TIP3   OH239395   3.081   3.768   4.301
13151TIP3    H139396   3.040   3.738   4.382
13151TIP3    H239397   3.144   3.700   4.279
13152TIP3   OH239398   7.045   0.958   0.696
13152TIP3    H139399   7.055   1.053   0.704
13152TIP3    H239400   7.010   0.944   0.608
13153TIP3   OH239401   1.953   0.408   2.035
13153TIP3    H139402   2.028   0.461   2.007
13153TIP3    H239403   1.978   0.378   2.123
13154TIP3   OH239404   1.328   0.579   2.646
13154TIP3    H139405   1.369   0.647   2.699
13154TIP3    H239406   1.374   0.498   2.669
13155TIP3   OH239407   1.442   7.229   4.079
13155TIP3    H139408   1.357   7.191   4.101
13155TIP3    H239409   1.505   7.162   4.104
13156TIP3   OH239410   2.325   0.777   0.191
13156TIP3    H139411   2.311   0.767   0.285
13156TIP3    H239412   2.376   0.858   0.182
13157TIP3   OH239413   1.550   1.545   0.925
13157TIP3    H139414   1.607   1.529   0.849
13157TIP3    H239415   1.509   1.629   0.907
13158TIP3   OH239416   6.540   4.364   4.112
13158TIP3    H139417   6.527   4.316   4.030
13158TIP3    H239418   6.570   4.298   4.174
13159TIP3   OH239419   4.242   5.669   5.880
13159TIP3    H139420   4.175   5.705   5.822
13159TIP3    H239421   4.213   5.693   5.968
13160TIP3   OH239422   2.565   6.007   5.070
13160TIP3    H139423   2.518   6.082   5.034
13160TIP3    H239424   2.543   6.007   5.163
13161TIP3   OH239425   7.554   3.267   3.061
13161TIP3    H139426   7.614   3.342   3.055
13161TIP3    H239427   7.612   3.192   3.072
13162TIP3   OH239428   0.902   6.066   6.405
13162TIP3    H139429   0.886   6.151   6.363
13162TIP3    H239430   0.831   6.010   6.372
13163TIP3   OH239431   2.289   3.619   1.221
13163TIP3    H139432   2.330   3.704   1.238
13163TIP3    H239433   2.354   3.570   1.170
13164TIP3   OH239434   2.096   2.840   3.639
13164TIP3    H139435   2.148   2.869   3.564
13164TIP3    H239436   2.038   2.914   3.657
13165TIP3   OH239437   0.567   3.547   5.516
13165TIP3    H139438   0.644   3.507   5.475
13165TIP3    H239439   0.494   3.523   5.460
13166TIP3   OH239440   2.188   3.218   1.411
13166TIP3    H139441   2.143   3.276   1.349
13166TIP3    H239442   2.120   3.192   1.473
13167TIP3   OH239443   1.853   7.030   4.688
13167TIP3    H139444   1.939   6.994   4.670
13167TIP3    H239445   1.792   6.972   4.642
13168TIP3   OH239446   3.570   2.746   4.230
13168TIP3    H139447   3.598   2.776   4.317
13168TIP3    H239448   3.536   2.658   4.245
13169TIP3   OH239449   0.740   7.066   4.886
13169TIP3    H139450   0.666   7.041   4.832
13169TIP3    H239451   0.701   7.101   4.966
13170TIP3   OH239452   7.014   0.565   2.446
13170TIP3    H139453   6.923   0.580   2.470
13170TIP3    H239454   7.064   0.603   2.519
13171TIP3   OH239455   6.102   4.479   1.823
13171TIP3    H139456   6.036   4.535   1.866
13171TIP3    H239457   6.185   4.524   1.839
13172TIP3   OH239458   2.703   5.838   0.937
13172TIP3    H139459   2.614   5.873   0.941
13172TIP3    H239460   2.700   5.775   0.864
13173TIP3   OH239461   7.886   0.178   4.338
13173TIP3    H139462   7.883   0.247   4.404
13173TIP3    H239463   7.957   0.204   4.279
13174TIP3   OH239464   7.884   2.201   6.447
13174TIP3    H139465   7.896   2.130   6.510
13174TIP3    H239466   7.892   2.281   6.499
13175TIP3   OH239467   4.600   0.190   4.587
13175TIP3    H139468   4.625   0.195   4.495
13175TIP3    H239469   4.570   0.278   4.609
13176TIP3   OH239470   5.577   1.515   3.364
13176TIP3    H139471   5.656   1.470   3.392
13176TIP3    H239472   5.601   1.608   3.366
13177TIP3   OH239473   2.760   6.013   2.634
13177TIP3    H139474   2.788   5.942   2.575
13177TIP3    H239475   2.672   6.035   2.605
13178TIP3   OH239476   6.800   1.077   2.881
13178TIP3    H139477   6.752   1.057   2.801
13178TIP3    H239478   6.890   1.091   2.853
13179TIP3   OH239479   6.567   3.861   2.775
13179TIP3    H139480   6.577   3.825   2.864
13179TIP3    H239481   6.633   3.816   2.724
13180TIP3   OH239482   4.641   5.926   3.275
13180TIP3    H139483   4.624   6.016   3.246
13180TIP3    H239484   4.702   5.891   3.210
13181TIP3   OH239485   7.057   4.687   3.360
13181TIP3    H139486   6.966   4.655   3.359
13181TIP3    H239487   7.049   4.782   3.360
13182TIP3   OH239488   4.730   5.617   6.011
13182TIP3    H139489   4.660   5.594   5.950
13182TIP3    H239490   4.738   5.542   6.069
13183TIP3   OH239491   7.011   1.060   1.546
13183TIP3    H139492   6.981   0.979   1.588
13183TIP3    H239493   6.948   1.076   1.476
13184TIP3   OH239494   0.378   1.582   5.918
13184TIP3    H139495   0.284   1.591   5.932
13184TIP3    H239496   0.395   1.489   5.936
13185TIP3   OH239497   3.021   1.250   1.376
13185TIP3    H139498   2.939   1.299   1.372
13185TIP3    H239499   3.050   1.245   1.285
13186TIP3   OH239500   5.069   7.075   1.754
13186TIP3    H139501   5.118   7.143   1.799
13186TIP3    H239502   5.131   7.003   1.743
13187TIP3   OH239503   6.390   1.532   0.670
13187TIP3    H139504   6.390   1.474   0.594
13187TIP3    H239505   6.409   1.475   0.744
13188TIP3   OH239506   7.509   2.411   6.159
13188TIP3    H139507   7.516   2.329   6.208
13188TIP3    H239508   7.420   2.411   6.124
13189TIP3   OH239509   1.659   3.937   4.979
13189TIP3    H139510   1.747   3.945   5.014
13189TIP3    H239511   1.623   4.026   4.984
13190TIP3   OH239512   3.267   0.350   3.150
13190TIP3    H139513   3.357   0.356   3.181
13190TIP3    H239514   3.272   0.296   3.071
13191TIP3   OH239515   7.936   6.801   1.110
13191TIP3    H139516   7.941   6.755   1.193
13191TIP3    H239517   8.024   6.792   1.073
13192TIP3   OH239518   4.617   7.027   5.928
13192TIP3    H139519   4.586   7.100   5.874
13192TIP3    H239520   4.694   7.062   5.974
13193TIP3   OH239521   0.191   2.677   4.613
13193TIP3    H139522   0.178   2.616   4.685
13193TIP3    H239523   0.103   2.710   4.594
13194TIP3   OH239524   4.155   1.161   0.968
13194TIP3    H139525   4.142   1.177   1.061
13194TIP3    H239526   4.227   1.098   0.964
13195TIP3   OH239527   6.531   7.026   3.979
13195TIP3    H139528   6.510   6.949   4.031
13195TIP3    H239529   6.605   7.067   4.025
13196TIP3   OH239530   6.167   1.316   2.430
13196TIP3    H139531   6.253   1.352   2.407
13196TIP3    H239532   6.164   1.230   2.388
13197TIP3   OH239533   3.206   4.940   3.692
13197TIP3    H139534   3.212   5.029   3.726
13197TIP3    H239535   3.261   4.888   3.751
13198TIP3   OH239536   7.951   6.028   3.400
13198TIP3    H139537   8.024   5.967   3.415
13198TIP3    H239538   7.974   6.105   3.453
13199TIP3   OH239539   5.143   0.058   5.944
13199TIP3    H139540   5.131   0.120   5.872
13199TIP3    H239541   5.142  -0.028   5.902
13200TIP3   OH239542   1.349   4.792   2.738
13200TIP3    H139543   1.391   4.722   2.787
13200TIP3    H239544   1.380   4.873   2.779
13201TIP3   OH239545   1.682   4.456   2.323
13201TIP3    H139546   1.774   4.480   2.334
13201TIP3    H239547   1.640   4.488   2.403
13202TIP3   OH239548   4.445   2.985   1.133
13202TIP3    H139549   4.453   2.954   1.224
13202TIP3    H239550   4.522   3.040   1.120
13203TIP3   OH239551   5.436   4.757   5.948
13203TIP3    H139552   5.442   4.686   6.011
13203TIP3    H239553   5.453   4.836   5.998
13204TIP3   OH239554   6.782   3.497   3.523
13204TIP3    H139555   6.717   3.562   3.549
13204TIP3    H239556   6.729   3.424   3.489
13205TIP3   OH239557   0.787   6.950   5.262
13205TIP3    H139558   0.855   6.921   5.201
13205TIP3    H239559   0.705   6.944   5.212
13206TIP3   OH239560   6.962   3.550   5.652
13206TIP3    H139561   6.957   3.454   5.651
13206TIP3    H239562   6.891   3.577   5.710
13207TIP3   OH239563   5.909   2.237   5.067
13207TIP3    H139564   5.902   2.285   4.984
13207TIP3    H239565   5.831   2.182   5.069
13208TIP3   OH239566   5.488   0.568   2.546
13208TIP3    H139567   5.400   0.537   2.570
13208TIP3    H239568   5.548   0.513   2.597
13209TIP3   OH239569   2.593   4.341   2.047
13209TIP3    H139570   2.621   4.428   2.075
13209TIP3    H239571   2.620   4.283   2.118
13210TIP3   OH239572   4.554   7.625   1.615
13210TIP3    H139573   4.594   7.704   1.652
13210TIP3    H239574   4.476   7.657   1.570
13211TIP3   OH239575   8.011   5.189   4.384
13211TIP3    H139576   8.075   5.229   4.325
13211TIP3    H239577   7.966   5.124   4.330
13212TIP3   OH239578   2.828   5.041   1.773
13212TIP3    H139579   2.874   4.988   1.708
13212TIP3    H239580   2.746   4.995   1.788
13213TIP3   OH239581   0.671   4.283   2.011
13213TIP3    H139582   0.663   4.303   2.104
13213TIP3    H239583   0.693   4.367   1.970
13214TIP3   OH239584   1.316   0.031   2.501
13214TIP3    H139585   1.283   0.034   2.591
13214TIP3    H239586   1.287   0.114   2.463
13215TIP3   OH239587   8.000   2.017   3.531
13215TIP3    H139588   7.952   2.083   3.582
13215TIP3    H239589   7.985   1.935   3.578
13216TIP3   OH239590   3.647   6.105   2.353
13216TIP3    H139591   3.738   6.134   2.360
13216TIP3    H239592   3.627   6.114   2.260
13217TIP3   OH239593   5.722   1.492   0.066
13217TIP3    H139594   5.714   1.510  -0.028
13217TIP3    H239595   5.713   1.397   0.073
13218TIP3   OH239596   2.100   6.682   2.436
13218TIP3    H139597   2.056   6.688   2.521
13218TIP3    H239598   2.060   6.606   2.394
13219TIP3   OH239599   7.688   2.107   4.227
13219TIP3    H139600   7.753   2.162   4.184
13219TIP3    H239601   7.736   2.060   4.295
13220TIP3   OH239602   6.362   3.161   4.297
13220TIP3    H139603   6.372   3.250   4.262
13220TIP3    H239604   6.357   3.105   4.220
13221TIP3   OH239605   1.603   7.024   4.479
13221TIP3    H139606   1.582   6.933   4.500
13221TIP3    H239607   1.519   7.070   4.488
13222TIP3   OH239608   7.784   6.499   3.800
13222TIP3    H139609   7.855   6.474   3.859
13222TIP3    H239610   7.826   6.552   3.733
13223TIP3   OH239611   5.648   1.287   5.846
13223TIP3    H139612   5.677   1.310   5.934
13223TIP3    H239613   5.555   1.309   5.844
13224TIP3   OH239614   6.423   0.404   1.500
13224TIP3    H139615   6.391   0.429   1.587
13224TIP3    H239616   6.414   0.309   1.497
13225TIP3   OH239617   5.082   2.361   5.794
13225TIP3    H139618   5.041   2.315   5.867
13225TIP3    H239619   5.067   2.454   5.811
13226TIP3   OH239620   2.983   6.275   2.325
13226TIP3    H139621   2.987   6.264   2.421
13226TIP3    H239622   2.990   6.186   2.291
13227TIP3   OH239623   7.059   4.820   4.509
13227TIP3    H139624   7.011   4.798   4.428
13227TIP3    H239625   7.096   4.736   4.537
13228TIP3   OH239626   6.209   0.321   2.660
13228TIP3    H139627   6.151   0.334   2.585
13228TIP3    H239628   6.165   0.255   2.713
13229TIP3   OH239629   0.247   2.050   1.537
13229TIP3    H139630   0.202   2.122   1.491
13229TIP3    H239631   0.255   2.081   1.627
13230TIP3   OH239632   4.248   5.355   6.753
13230TIP3    H139633   4.333   5.330   6.717
13230TIP3    H239634   4.188   5.349   6.678
13231TIP3   OH239635   8.287   5.964   0.044
13231TIP3    H139636   8.235   5.969  -0.037
13231TIP3    H239637   8.304   5.870   0.055
13232TIP3   OH239638   3.382   1.270   4.139
13232TIP3    H139639   3.439   1.196   4.117
13232TIP3    H239640   3.443   1.341   4.159
13233TIP3   OH239641   6.678   2.499   5.242
13233TIP3    H139642   6.641   2.450   5.168
13233TIP3    H239643   6.603   2.547   5.278
13234TIP3   OH239644   4.671   1.502   0.437
13234TIP3    H139645   4.743   1.451   0.473
13234TIP3    H239646   4.615   1.438   0.394
13235TIP3   OH239647   2.986   2.657   5.137
13235TIP3    H139648   3.025   2.583   5.090
13235TIP3    H239649   3.034   2.733   5.106
13236TIP3   OH239650   3.414   1.644   0.989
13236TIP3    H139651   3.340   1.589   0.963
13236TIP3    H239652   3.419   1.634   1.084
13237TIP3   OH239653   1.528   2.763   1.986
13237TIP3    H139654   1.575   2.838   2.022
13237TIP3    H239655   1.449   2.801   1.947
13238TIP3   OH239656   1.848   2.950   2.768
13238TIP3    H139657   1.904   3.024   2.793
13238TIP3    H239658   1.759   2.984   2.774
13239TIP3   OH239659   4.541   3.187   4.975
13239TIP3    H139660   4.555   3.213   4.884
13239TIP3    H239661   4.513   3.095   4.970
13240TIP3   OH239662   5.615   2.433   2.987
13240TIP3    H139663   5.586   2.348   2.955
13240TIP3    H239664   5.594   2.432   3.081
13241TIP3   OH239665   1.788   7.014   6.159
13241TIP3    H139666   1.746   6.941   6.206
13241TIP3    H239667   1.789   7.085   6.223
13242TIP3   OH239668   6.797   0.158   5.330
13242TIP3    H139669   6.888   0.188   5.340
13242TIP3    H239670   6.753   0.186   5.410
13243TIP3   OH239671   6.248   6.944   0.655
13243TIP3    H139672   6.213   7.033   0.659
13243TIP3    H239673   6.341   6.956   0.634
13244TIP3   OH239674   5.585   7.583   1.096
13244TIP3    H139675   5.629   7.508   1.057
13244TIP3    H239676   5.509   7.546   1.142
13245TIP3   OH239677   4.377   7.712   4.530
13245TIP3    H139678   4.386   7.759   4.447
13245TIP3    H239679   4.389   7.779   4.597
13246TIP3   OH239680   3.058   2.469   0.316
13246TIP3    H139681   3.077   2.383   0.352
13246TIP3    H239682   2.972   2.491   0.353
13247TIP3   OH239683   2.252   0.113   6.613
13247TIP3    H139684   2.292   0.026   6.615
13247TIP3    H239685   2.306   0.163   6.552
13248TIP3   OH239686   5.569   5.052   1.210
13248TIP3    H139687   5.504   4.987   1.185
13248TIP3    H239688   5.555   5.067   1.303
13249TIP3   OH239689   5.098   6.927   4.715
13249TIP3    H139690   5.111   6.928   4.810
13249TIP3    H239691   5.109   6.835   4.690
13250TIP3   OH239692   6.061   5.466   4.739
13250TIP3    H139693   6.066   5.504   4.827
13250TIP3    H239694   6.134   5.404   4.736
13251TIP3   OH239695   7.187   7.582   5.373
13251TIP3    H139696   7.240   7.627   5.308
13251TIP3    H239697   7.247   7.564   5.445
13252TIP3   OH239698   2.093   0.332   5.550
13252TIP3    H139699   2.025   0.399   5.551
13252TIP3    H239700   2.174   0.381   5.536
13253TIP3   OH239701   4.193   2.978   4.344
13253TIP3    H139702   4.152   2.891   4.348
13253TIP3    H239703   4.284   2.962   4.371
13254TIP3   OH239704   0.708   5.261   6.175
13254TIP3    H139705   0.732   5.353   6.164
13254TIP3    H239706   0.760   5.214   6.110
13255TIP3   OH239707   5.751   4.888   1.051
13255TIP3    H139708   5.836   4.860   1.086
13255TIP3    H239709   5.717   4.947   1.118
13256TIP3   OH239710   1.609   7.568   6.321
13256TIP3    H139711   1.619   7.660   6.298
13256TIP3    H239712   1.519   7.547   6.297
13257TIP3   OH239713   3.765   0.059   3.889
13257TIP3    H139714   3.789   0.023   3.804
13257TIP3    H239715   3.845   0.099   3.922
13258TIP3   OH239716   1.661   3.566   0.117
13258TIP3    H139717   1.636   3.587   0.027
13258TIP3    H239718   1.705   3.644   0.149
13259TIP3   OH239719   3.161   2.467   4.191
13259TIP3    H139720   3.074   2.432   4.168
13259TIP3    H239721   3.169   2.451   4.285
13260TIP3   OH239722   6.854   3.942   3.601
13260TIP3    H139723   6.931   3.886   3.604
13260TIP3    H239724   6.887   4.028   3.576
13261TIP3   OH239725   0.259   0.168   3.445
13261TIP3    H139726   0.176   0.199   3.411
13261TIP3    H239727   0.322   0.237   3.423
13262TIP3   OH239728   5.884   2.837   3.871
13262TIP3    H139729   5.803   2.863   3.915
13262TIP3    H239730   5.882   2.884   3.788
13263TIP3   OH239731   2.436   1.517   6.387
13263TIP3    H139732   2.411   1.425   6.380
13263TIP3    H239733   2.364   1.565   6.347
13264TIP3   OH239734   1.958   7.464   0.342
13264TIP3    H139735   2.048   7.496   0.342
13264TIP3    H239736   1.906   7.540   0.368
13265TIP3   OH239737   2.105   6.962   0.530
13265TIP3    H139738   2.091   7.004   0.615
13265TIP3    H239739   2.167   7.020   0.485
13266TIP3   OH239740   5.163   3.030   0.867
13266TIP3    H139741   5.243   3.065   0.906
13266TIP3    H239742   5.189   3.007   0.778
13267TIP3   OH239743   6.219   5.079   4.964
13267TIP3    H139744   6.300   5.031   4.944
13267TIP3    H239745   6.219   5.087   5.059
13268TIP3   OH239746   8.153   7.104   1.157
13268TIP3    H139747   8.202   7.044   1.213
13268TIP3    H239748   8.108   7.046   1.095
13269TIP3   OH239749   6.995   2.983   0.754
13269TIP3    H139750   6.983   2.983   0.659
13269TIP3    H239751   7.039   2.900   0.773
13270TIP3   OH239752   3.118   2.053   0.024
13270TIP3    H139753   3.176   2.100  -0.035
13270TIP3    H239754   3.163   2.054   0.109
13271TIP3   OH239755   1.318   0.464   6.769
13271TIP3    H139756   1.334   0.431   6.681
13271TIP3    H239757   1.404   0.485   6.804
13272TIP3   OH239758   0.673   6.207   0.532
13272TIP3    H139759   0.596   6.151   0.529
13272TIP3    H239760   0.746   6.146   0.547
13273TIP3   OH239761   7.289   5.170   1.351
13273TIP3    H139762   7.264   5.234   1.417
13273TIP3    H239763   7.260   5.086   1.387
13274TIP3   OH239764   4.466   3.402   0.207
13274TIP3    H139765   4.490   3.459   0.280
13274TIP3    H239766   4.501   3.445   0.130
13275TIP3   OH239767   6.800   0.361   2.434
13275TIP3    H139768   6.771   0.356   2.343
13275TIP3    H239769   6.765   0.444   2.466
13276TIP3   OH239770   1.123   4.163  -0.015
13276TIP3    H139771   1.103   4.246   0.028
13276TIP3    H239772   1.162   4.188  -0.099
13277TIP3   OH239773   6.294   0.053   5.784
13277TIP3    H139774   6.217   0.090   5.740
13277TIP3    H239775   6.323  -0.017   5.725
13278TIP3   OH239776   0.674   6.532   2.594
13278TIP3    H139777   0.755   6.485   2.574
13278TIP3    H239778   0.691   6.622   2.565
13279TIP3   OH239779   7.955   0.922   3.475
13279TIP3    H139780   7.996   0.866   3.409
13279TIP3    H239781   7.893   0.865   3.520
13280TIP3   OH239782   2.847   7.660   3.024
13280TIP3    H139783   2.865   7.711   3.103
13280TIP3    H239784   2.932   7.648   2.983
13281TIP3   OH239785   6.396   3.312   1.017
13281TIP3    H139786   6.459   3.275   1.078
13281TIP3    H239787   6.409   3.406   1.023
13282TIP3   OH239788   2.157   6.609   5.404
13282TIP3    H139789   2.186   6.691   5.445
13282TIP3    H239790   2.197   6.541   5.458
13283TIP3   OH239791   4.935   3.007   2.092
13283TIP3    H139792   4.894   2.929   2.054
13283TIP3    H239793   4.907   3.007   2.184
13284TIP3   OH239794   3.317   0.720   6.580
13284TIP3    H139795   3.241   0.662   6.588
13284TIP3    H239796   3.388   0.672   6.621
13285TIP3   OH239797   5.016   5.069   5.525
13285TIP3    H139798   4.982   5.027   5.604
13285TIP3    H239799   4.938   5.092   5.475
13286TIP3   OH239800   7.883   6.135   4.172
13286TIP3    H139801   7.885   6.188   4.252
13286TIP3    H239802   7.835   6.056   4.197
13287TIP3   OH239803   2.842   4.580   6.129
13287TIP3    H139804   2.790   4.558   6.052
13287TIP3    H239805   2.928   4.541   6.112
13288TIP3   OH239806   5.074   2.276   1.877
13288TIP3    H139807   5.141   2.337   1.847
13288TIP3    H239808   5.078   2.282   1.973
13289TIP3   OH239809   5.167   2.582   2.752
13289TIP3    H139810   5.086   2.624   2.723
13289TIP3    H239811   5.229   2.599   2.681
13290TIP3   OH239812   6.746   6.355   3.307
13290TIP3    H139813   6.707   6.430   3.352
13290TIP3    H239814   6.726   6.370   3.214
13291TIP3   OH239815   4.612   0.800   5.752
13291TIP3    H139816   4.581   0.826   5.665
13291TIP3    H239817   4.536   0.757   5.792
13292TIP3   OH239818   1.766   7.267   6.662
13292TIP3    H139819   1.848   7.293   6.705
13292TIP3    H239820   1.697   7.304   6.717
13293TIP3   OH239821   2.586   4.599   4.764
13293TIP3    H139822   2.572   4.580   4.856
13293TIP3    H239823   2.531   4.676   4.746
13294TIP3   OH239824   7.781   3.250   2.084
13294TIP3    H139825   7.829   3.168   2.072
13294TIP3    H239826   7.709   3.227   2.142
13295TIP3   OH239827   3.625   2.269   5.000
13295TIP3    H139828   3.701   2.282   4.945
13295TIP3    H239829   3.660   2.227   5.079
13296TIP3   OH239830   3.038   2.094   4.239
13296TIP3    H139831   3.028   2.040   4.160
13296TIP3    H239832   3.025   2.184   4.208
13297TIP3   OH239833   1.263   1.974   1.969
13297TIP3    H139834   1.220   1.898   1.930
13297TIP3    H239835   1.192   2.021   2.012
13298TIP3   OH239836   3.926   6.043   4.462
13298TIP3    H139837   3.894   5.964   4.507
13298TIP3    H239838   3.851   6.074   4.412
13299TIP3   OH239839   4.911   0.335   4.523
13299TIP3    H139840   4.987   0.375   4.566
13299TIP3    H239841   4.904   0.248   4.563
13300TIP3   OH239842   8.051   4.569   6.336
13300TIP3    H139843   8.064   4.507   6.264
13300TIP3    H239844   8.084   4.523   6.413
13301TIP3   OH239845   4.342   6.081   6.372
13301TIP3    H139846   4.376   5.991   6.375
13301TIP3    H239847   4.256   6.073   6.331
13302TIP3   OH239848   6.987   2.516   3.708
13302TIP3    H139849   7.020   2.463   3.780
13302TIP3    H239850   6.894   2.498   3.705
13303TIP3   OH239851   2.806   2.735   2.069
13303TIP3    H139852   2.815   2.827   2.093
13303TIP3    H239853   2.779   2.691   2.150
13304TIP3   OH239854   3.527   4.362   4.889
13304TIP3    H139855   3.444   4.409   4.898
13304TIP3    H239856   3.576   4.412   4.823
13305TIP3   OH239857   6.982   1.200   6.255
13305TIP3    H139858   6.901   1.161   6.222
13305TIP3    H239859   6.994   1.162   6.342
13306TIP3   OH239860   2.649   3.209   2.450
13306TIP3    H139861   2.735   3.198   2.491
13306TIP3    H239862   2.666   3.211   2.356
13307TIP3   OH239863   2.497   3.117   3.020
13307TIP3    H139864   2.425   3.103   2.959
13307TIP3    H239865   2.557   3.045   3.003
13308TIP3   OH239866   6.670   0.993   5.752
13308TIP3    H139867   6.736   1.033   5.808
13308TIP3    H239868   6.690   1.024   5.664
13309TIP3   OH239869   3.697   0.809   3.760
13309TIP3    H139870   3.771   0.748   3.768
13309TIP3    H239871   3.683   0.816   3.665
13310TIP3   OH239872   1.197   3.943   0.732
13310TIP3    H139873   1.177   3.851   0.713
13310TIP3    H239874   1.136   3.966   0.803
13311TIP3   OH239875   4.628   4.774   5.975
13311TIP3    H139876   4.556   4.711   5.971
13311TIP3    H239877   4.603   4.843   5.915
13312TIP3   OH239878   3.896   4.960   3.952
13312TIP3    H139879   3.961   5.029   3.968
13312TIP3    H239880   3.948   4.884   3.924
13313TIP3   OH239881   7.504   3.698   0.137
13313TIP3    H139882   7.536   3.703   0.046
13313TIP3    H239883   7.409   3.701   0.130
13314TIP3   OH239884   1.426   1.426   5.812
13314TIP3    H139885   1.505   1.480   5.823
13314TIP3    H239886   1.408   1.392   5.900
13315TIP3   OH239887   1.659   6.787   3.913
13315TIP3    H139888   1.630   6.716   3.855
13315TIP3    H239889   1.752   6.797   3.893
13316TIP3   OH239890   7.373   4.985   1.804
13316TIP3    H139891   7.295   4.977   1.858
13316TIP3    H239892   7.425   5.053   1.847
13317TIP3   OH239893   2.066   0.680   4.225
13317TIP3    H139894   2.097   0.668   4.315
13317TIP3    H239895   2.025   0.597   4.202
13318TIP3   OH239896   7.049   1.455   6.102
13318TIP3    H139897   7.037   1.407   6.184
13318TIP3    H239898   6.967   1.441   6.054
13319TIP3   OH239899   6.078   4.029   1.298
13319TIP3    H139900   6.091   3.946   1.252
13319TIP3    H239901   6.129   4.093   1.247
13320TIP3   OH239902   1.426   1.555   6.209
13320TIP3    H139903   1.429   1.635   6.156
13320TIP3    H239904   1.394   1.585   6.294
13321TIP3   OH239905   5.455   7.469   3.745
13321TIP3    H139906   5.446   7.386   3.698
13321TIP3    H239907   5.471   7.533   3.676
13322TIP3   OH239908   2.269   3.618   2.011
13322TIP3    H139909   2.330   3.571   2.067
13322TIP3    H239910   2.325   3.662   1.947
13323TIP3   OH239911   0.647   5.554   6.115
13323TIP3    H139912   0.733   5.594   6.128
13323TIP3    H239913   0.597   5.577   6.193
13324TIP3   OH239914   3.360   2.821   1.521
13324TIP3    H139915   3.280   2.863   1.554
13324TIP3    H239916   3.329   2.742   1.476
13325TIP3   OH239917   7.005   6.166   2.957
13325TIP3    H139918   7.039   6.104   3.022
13325TIP3    H239919   6.915   6.137   2.941
13326TIP3   OH239920   7.917   4.197   2.747
13326TIP3    H139921   7.996   4.183   2.693
13326TIP3    H239922   7.890   4.286   2.727
13327TIP3   OH239923   7.477   6.027   5.635
13327TIP3    H139924   7.384   6.005   5.625
13327TIP3    H239925   7.482   6.074   5.718
13328TIP3   OH239926   2.207   6.778   0.984
13328TIP3    H139927   2.240   6.772   1.074
13328TIP3    H239928   2.123   6.824   0.993
13329TIP3   OH239929   7.352   5.559   1.414
13329TIP3    H139930   7.281   5.506   1.450
13329TIP3    H239931   7.349   5.641   1.463
13330TIP3   OH239932   0.444   4.817   0.514
13330TIP3    H139933   0.377   4.750   0.500
13330TIP3    H239934   0.445   4.830   0.609
13331TIP3   OH239935   0.440   3.332   3.485
13331TIP3    H139936   0.394   3.391   3.544
13331TIP3    H239937   0.422   3.244   3.519
13332TIP3   OH239938   2.719   2.800   5.029
13332TIP3    H139939   2.772   2.828   4.955
13332TIP3    H239940   2.753   2.714   5.053
13333TIP3   OH239941   0.190   4.654   2.872
13333TIP3    H139942   0.141   4.713   2.814
13333TIP3    H239943   0.150   4.568   2.857
13334TIP3   OH239944   5.667   5.250   1.055
13334TIP3    H139945   5.716   5.323   1.093
13334TIP3    H239946   5.632   5.203   1.131
13335TIP3   OH239947   1.244   1.548   3.844
13335TIP3    H139948   1.155   1.516   3.860
13335TIP3    H239949   1.265   1.518   3.755
13336TIP3   OH239950   0.935   6.013   1.720
13336TIP3    H139951   1.023   5.980   1.735
13336TIP3    H239952   0.933   6.098   1.764
13337TIP3   OH239953   5.867   1.363   1.031
13337TIP3    H139954   5.904   1.359   1.119
13337TIP3    H239955   5.931   1.413   0.980
13338TIP3   OH239956   0.894   1.368   4.783
13338TIP3    H139957   0.969   1.334   4.734
13338TIP3    H239958   0.878   1.301   4.850
13339TIP3   OH239959   5.312   5.618   0.946
13339TIP3    H139960   5.282   5.645   0.859
13339TIP3    H239961   5.393   5.570   0.929
13340TIP3   OH239962   0.004   5.177   0.548
13340TIP3    H139963  -0.029   5.265   0.528
13340TIP3    H239964   0.090   5.174   0.505
13341TIP3   OH239965   7.494   2.731   2.032
13341TIP3    H139966   7.406   2.766   2.048
13341TIP3    H239967   7.483   2.668   1.961
13342TIP3   OH239968   6.841   6.696   2.547
13342TIP3    H139969   6.934   6.720   2.552
13342TIP3    H239970   6.807   6.718   2.634
13343TIP3   OH239971   5.054   4.075   6.349
13343TIP3    H139972   5.074   4.146   6.287
13343TIP3    H239973   5.086   4.107   6.433
13344TIP3   OH239974   2.060   4.273   4.102
13344TIP3    H139975   2.155   4.272   4.116
13344TIP3    H239976   2.023   4.237   4.183
13345TIP3   OH239977   7.149   0.830   5.945
13345TIP3    H139978   7.134   0.889   6.019
13345TIP3    H239979   7.228   0.864   5.903
13346TIP3   OH239980   0.535   2.430   5.840
13346TIP3    H139981   0.455   2.445   5.789
13346TIP3    H239982   0.504   2.389   5.921
13347TIP3   OH239983   4.033   6.759   2.590
13347TIP3    H139984   4.104   6.718   2.639
13347TIP3    H239985   4.051   6.739   2.499
13348TIP3   OH239986   2.330   5.111   2.225
13348TIP3    H139987   2.276   5.153   2.292
13348TIP3    H239988   2.273   5.105   2.148
13349TIP3   OH239989   1.264   1.503   6.737
13349TIP3    H139990   1.306   1.571   6.685
13349TIP3    H239991   1.337   1.458   6.781
13350TIP3   OH239992   0.492   0.950   1.678
13350TIP3    H139993   0.462   1.015   1.615
13350TIP3    H239994   0.412   0.912   1.713
13351TIP3   OH239995   5.860   4.738   5.286
13351TIP3    H139996   5.918   4.814   5.283
13351TIP3    H239997   5.906   4.671   5.234
13352TIP3   OH239998   6.719   7.069   5.518
13352TIP3    H139999   6.793   7.014   5.492
13352TIP3    H240000   6.745   7.157   5.492
13353TIP3   OH240001   5.308   4.116   4.853
13353TIP3    H140002   5.399   4.133   4.877
13353TIP3    H240003   5.309   4.028   4.815
13354TIP3   OH240004   6.690   4.384   3.426
13354TIP3    H140005   6.621   4.408   3.365
13354TIP3    H240006   6.739   4.315   3.381
13355TIP3   OH240007   8.160   0.862   6.341
13355TIP3    H140008   8.142   0.865   6.435
13355TIP3    H240009   8.144   0.771   6.316
13356TIP3   OH240010   3.247   5.184   2.683
13356TIP3    H140011   3.327   5.147   2.647
13356TIP3    H240012   3.253   5.278   2.664
13357TIP3   OH240013   6.615   3.039   6.076
13357TIP3    H140014   6.608   3.130   6.047
13357TIP3    H240015   6.556   3.032   6.151
13358TIP3   OH240016   2.278   3.024   6.166
13358TIP3    H140017   2.330   2.952   6.130
13358TIP3    H240018   2.190   2.986   6.177
13359TIP3   OH240019   3.701   0.324   6.415
13359TIP3    H140020   3.659   0.281   6.490
13359TIP3    H240021   3.650   0.296   6.339
13360TIP3   OH240022   3.229   2.959   6.557
13360TIP3    H140023   3.204   2.917   6.475
13360TIP3    H240024   3.209   3.052   6.543
13361TIP3   OH240025   7.550   3.620   3.336
13361TIP3    H140026   7.595   3.542   3.304
13361TIP3    H240027   7.550   3.610   3.431
13362TIP3   OH240028   6.574   4.790   5.739
13362TIP3    H140029   6.556   4.763   5.830
13362TIP3    H240030   6.509   4.743   5.687
13363TIP3   OH240031   5.992   7.466   1.188
13363TIP3    H140032   6.067   7.447   1.133
13363TIP3    H240033   5.990   7.395   1.252
13364TIP3   OH240034   6.682   2.023   5.579
13364TIP3    H140035   6.739   2.100   5.589
13364TIP3    H240036   6.602   2.058   5.539
13365TIP3   OH240037   5.980   4.746   1.804
13365TIP3    H140038   6.070   4.776   1.816
13365TIP3    H240039   5.932   4.824   1.776
13366TIP3   OH240040   7.195   7.690   5.094
13366TIP3    H140041   7.181   7.721   5.005
13366TIP3    H240042   7.114   7.646   5.118
13367TIP3   OH240043   4.796   4.597   1.195
13367TIP3    H140044   4.796   4.684   1.236
13367TIP3    H240045   4.750   4.610   1.112
13368TIP3   OH240046   5.449   4.309   5.661
13368TIP3    H140047   5.491   4.233   5.701
13368TIP3    H240048   5.400   4.350   5.732
13369TIP3   OH240049   3.668   7.425   6.279
13369TIP3    H140050   3.574   7.407   6.271
13369TIP3    H240051   3.672   7.509   6.325
13370TIP3   OH240052   7.538   2.372   3.023
13370TIP3    H140053   7.447   2.362   3.050
13370TIP3    H240054   7.566   2.455   3.061
13371TIP3   OH240055   4.280   2.502   0.717
13371TIP3    H140056   4.319   2.460   0.793
13371TIP3    H240057   4.265   2.592   0.744
13372TIP3   OH240058   6.733   6.634   3.355
13372TIP3    H140059   6.761   6.713   3.402
13372TIP3    H240060   6.812   6.601   3.313
13373TIP3   OH240061   3.758   0.461   3.987
13373TIP3    H140062   3.809   0.533   3.949
13373TIP3    H240063   3.717   0.500   4.065
13374TIP3   OH240064   2.428   5.044   3.369
13374TIP3    H140065   2.351   4.992   3.345
13374TIP3    H240066   2.457   5.007   3.452
13375TIP3   OH240067   1.640   7.397   4.164
13375TIP3    H140068   1.579   7.344   4.113
13375TIP3    H240069   1.605   7.395   4.253
13376TIP3   OH240070   4.027   5.039   5.633
13376TIP3    H140071   4.037   4.979   5.559
13376TIP3    H240072   3.996   4.985   5.704
13377TIP3   OH240073   2.337   1.551   4.250
13377TIP3    H140074   2.243   1.548   4.231
13377TIP3    H240075   2.377   1.495   4.183
13378TIP3   OH240076   6.470   7.766   4.820
13378TIP3    H140077   6.392   7.805   4.860
13378TIP3    H240078   6.532   7.758   4.893
13379TIP3   OH240079   1.535   2.893   3.102
13379TIP3    H140080   1.499   2.908   3.190
13379TIP3    H240081   1.573   2.806   3.108
13380TIP3   OH240082   1.028   2.651   5.394
13380TIP3    H140083   1.119   2.651   5.424
13380TIP3    H240084   1.012   2.741   5.368
13381TIP3   OH240085   6.033   5.501   5.023
13381TIP3    H140086   6.052   5.585   5.065
13381TIP3    H240087   6.088   5.438   5.068
13382TIP3   OH240088   1.224   0.336   3.377
13382TIP3    H140089   1.267   0.282   3.443
13382TIP3    H240090   1.293   0.356   3.313
13383TIP3   OH240091   3.948   6.623   5.697
13383TIP3    H140092   4.030   6.595   5.656
13383TIP3    H240093   3.883   6.617   5.626
13384TIP3   OH240094   3.165   2.632   0.898
13384TIP3    H140095   3.154   2.607   0.989
13384TIP3    H240096   3.167   2.550   0.850
13385TIP3   OH240097   3.763   7.461   3.198
13385TIP3    H140098   3.854   7.439   3.176
13385TIP3    H240099   3.713   7.383   3.173
13386TIP3   OH240100   4.036   2.488   0.509
13386TIP3    H140101   4.111   2.543   0.532
13386TIP3    H240102   4.029   2.496   0.414
13387TIP3   OH240103   2.692   1.439   4.880
13387TIP3    H140104   2.721   1.529   4.866
13387TIP3    H240105   2.678   1.433   4.975
13388TIP3   OH240106   1.868   4.787   6.123
13388TIP3    H140107   1.839   4.700   6.152
13388TIP3    H240108   1.792   4.822   6.076
13389TIP3   OH240109   6.755   1.655   6.037
13389TIP3    H140110   6.769   1.612   6.122
13389TIP3    H240111   6.737   1.746   6.059
13390TIP3   OH240112   3.587   2.196   1.037
13390TIP3    H140113   3.543   2.244   0.967
13390TIP3    H240114   3.649   2.259   1.075
13391TIP3   OH240115   4.824   5.005   0.520
13391TIP3    H140116   4.874   4.993   0.600
13391TIP3    H240117   4.874   4.958   0.453
13392TIP3   OH240118   7.585   3.480   3.915
13392TIP3    H140119   7.500   3.443   3.891
13392TIP3    H240120   7.647   3.410   3.893
13393TIP3   OH240121   4.579   5.673   6.383
13393TIP3    H140122   4.621   5.721   6.311
13393TIP3    H240123   4.564   5.739   6.451
13394TIP3   OH240124   6.341   4.073   3.049
13394TIP3    H140125   6.345   4.062   2.954
13394TIP3    H240126   6.339   4.167   3.062
13395TIP3   OH240127   0.147   0.407   4.941
13395TIP3    H140128   0.112   0.326   4.978
13395TIP3    H240129   0.214   0.378   4.880
13396TIP3   OH240130   0.380   3.488   5.331
13396TIP3    H140131   0.359   3.574   5.294
13396TIP3    H240132   0.335   3.426   5.274
13397TIP3   OH240133   1.871   7.788   2.147
13397TIP3    H140134   1.879   7.784   2.052
13397TIP3    H240135   1.781   7.760   2.165
13398TIP3   OH240136   2.056   2.751   2.360
13398TIP3    H140137   1.985   2.792   2.409
13398TIP3    H240138   2.090   2.683   2.418
13399TIP3   OH240139   1.263   6.512   6.017
13399TIP3    H140140   1.217   6.569   5.957
13399TIP3    H240141   1.356   6.525   5.996
13400TIP3   OH240142   0.534   2.574   1.328
13400TIP3    H140143   0.543   2.483   1.358
13400TIP3    H240144   0.508   2.567   1.237
13401TIP3   OH240145   3.542   6.562   4.680
13401TIP3    H140146   3.542   6.576   4.586
13401TIP3    H240147   3.623   6.604   4.710
13402TIP3   OH240148   2.704   6.634   1.799
13402TIP3    H140149   2.792   6.665   1.822
13402TIP3    H240150   2.719   6.551   1.755
13403TIP3   OH240151   1.317   0.351   0.925
13403TIP3    H140152   1.264   0.419   0.968
13403TIP3    H240153   1.383   0.400   0.875
13404TIP3   OH240154   7.816   2.377   3.470
13404TIP3    H140155   7.848   2.381   3.381
13404TIP3    H240156   7.732   2.331   3.464
13405TIP3   OH240157   7.456   4.759   2.197
13405TIP3    H140158   7.475   4.709   2.276
13405TIP3    H240159   7.479   4.850   2.220
13406TIP3   OH240160   3.516   7.306   3.152
13406TIP3    H140161   3.463   7.275   3.078
13406TIP3    H240162   3.452   7.333   3.218
13407TIP3   OH240163   6.416   2.510   5.394
13407TIP3    H140164   6.359   2.434   5.403
13407TIP3    H240165   6.466   2.513   5.475
13408TIP3   OH240166   4.564   6.252   0.414
13408TIP3    H140167   4.655   6.222   0.409
13408TIP3    H240168   4.532   6.247   0.324
13409TIP3   OH240169   5.176   4.916   6.162
13409TIP3    H140170   5.170   4.847   6.228
13409TIP3    H240171   5.121   4.884   6.090
13410TIP3   OH240172   4.521   4.107   1.407
13410TIP3    H140173   4.540   4.060   1.488
13410TIP3    H240174   4.606   4.142   1.380
13411TIP3   OH240175   6.471   5.901   5.822
13411TIP3    H140176   6.387   5.924   5.862
13411TIP3    H240177   6.502   5.982   5.782
13412TIP3   OH240178   0.039   6.130   0.284
13412TIP3    H140179   0.082   6.143   0.200
13412TIP3    H240180  -0.052   6.111   0.262
13413TIP3   OH240181   3.377   3.375   3.731
13413TIP3    H140182   3.299   3.327   3.760
13413TIP3    H240183   3.345   3.464   3.714
13414TIP3   OH240184   1.339   4.842   3.054
13414TIP3    H140185   1.427   4.880   3.065
13414TIP3    H240186   1.353   4.748   3.061
13415TIP3   OH240187   6.606   2.931   0.634
13415TIP3    H140188   6.516   2.897   0.639
13415TIP3    H240189   6.596   3.020   0.601
13416TIP3   OH240190   4.434   4.817   1.327
13416TIP3    H140191   4.491   4.742   1.344
13416TIP3    H240192   4.392   4.796   1.243
13417TIP3   OH240193   5.827   6.036   2.575
13417TIP3    H140194   5.867   5.953   2.550
13417TIP3    H240195   5.874   6.102   2.524
13418TIP3   OH240196   7.625   3.778   6.542
13418TIP3    H140197   7.652   3.720   6.471
13418TIP3    H240198   7.530   3.788   6.529
13419TIP3   OH240199   7.044   1.056   1.877
13419TIP3    H140200   6.973   1.117   1.859
13419TIP3    H240201   7.005   0.970   1.865
13420TIP3   OH240202   4.709   0.722   4.738
13420TIP3    H140203   4.748   0.808   4.719
13420TIP3    H240204   4.763   0.686   4.808
13421TIP3   OH240205   4.441   0.017   6.677
13421TIP3    H140206   4.515   0.075   6.697
13421TIP3    H240207   4.463  -0.066   6.719
13422TIP3   OH240208   6.507   4.665   6.648
13422TIP3    H140209   6.438   4.729   6.633
13422TIP3    H240210   6.466   4.597   6.702
13423TIP3   OH240211   5.762   0.399   2.900
13423TIP3    H140212   5.772   0.455   2.977
13423TIP3    H240213   5.800   0.315   2.926
13424TIP3   OH240214   8.229   4.506   4.002
13424TIP3    H140215   8.238   4.470   3.914
13424TIP3    H240216   8.254   4.598   3.992
13425TIP3   OH240217   1.019   0.528   0.598
13425TIP3    H140218   1.015   0.456   0.535
13425TIP3    H240219   0.970   0.496   0.674
13426TIP3   OH240220   3.206   1.270   3.572
13426TIP3    H140221   3.137   1.212   3.538
13426TIP3    H240222   3.280   1.211   3.589
13427TIP3   OH240223   1.054   3.597   3.280
13427TIP3    H140224   0.993   3.541   3.232
13427TIP3    H240225   1.125   3.614   3.217
13428TIP3   OH240226   1.844   5.209   3.087
13428TIP3    H140227   1.833   5.201   2.992
13428TIP3    H240228   1.872   5.122   3.115
13429TIP3   OH240229   8.167   7.750   0.935
13429TIP3    H140230   8.233   7.758   0.866
13429TIP3    H240231   8.217   7.753   1.016
13430TIP3   OH240232   7.510   1.257   0.491
13430TIP3    H140233   7.484   1.345   0.518
13430TIP3    H240234   7.599   1.267   0.457
13431TIP3   OH240235   8.009   2.808   1.092
13431TIP3    H140236   7.944   2.793   1.023
13431TIP3    H240237   8.012   2.726   1.140
13432TIP3   OH240238   7.142   3.168   1.481
13432TIP3    H140239   7.200   3.176   1.405
13432TIP3    H240240   7.159   3.080   1.515
13433TIP3   OH240241   7.597   6.072   2.608
13433TIP3    H140242   7.504   6.089   2.596
13433TIP3    H240243   7.639   6.157   2.594
13434TIP3   OH240244   5.577   6.243   5.736
13434TIP3    H140245   5.485   6.265   5.745
13434TIP3    H240246   5.592   6.175   5.802
13435TIP3   OH240247   7.824   4.091   5.329
13435TIP3    H140248   7.761   4.111   5.260
13435TIP3    H240249   7.815   3.996   5.343
13436TIP3   OH240250   2.671   2.284   5.997
13436TIP3    H140251   2.652   2.273   5.904
13436TIP3    H240252   2.704   2.198   6.024
13437TIP3   OH240253   6.092   7.086   4.323
13437TIP3    H140254   6.101   7.098   4.417
13437TIP3    H240255   6.179   7.104   4.288
13438TIP3   OH240256   3.934   1.233   0.814
13438TIP3    H140257   3.997   1.253   0.883
13438TIP3    H240258   3.977   1.262   0.734
13439TIP3   OH240259   6.581   3.066   2.572
13439TIP3    H140260   6.662   3.110   2.598
13439TIP3    H240261   6.559   3.009   2.646
13440TIP3   OH240262   0.714   3.643   3.459
13440TIP3    H140263   0.682   3.564   3.414
13440TIP3    H240264   0.800   3.619   3.491
13441TIP3   OH240265   1.449   4.828   3.562
13441TIP3    H140266   1.463   4.913   3.520
13441TIP3    H240267   1.406   4.775   3.495
13442TIP3   OH240268   6.714   4.164   1.594
13442TIP3    H140269   6.646   4.160   1.661
13442TIP3    H240270   6.758   4.079   1.598
13443TIP3   OH240271   5.007   2.024   2.289
13443TIP3    H140272   5.070   2.060   2.352
13443TIP3    H240273   5.033   1.933   2.277
13444TIP3   OH240274   5.663   2.605   1.921
13444TIP3    H140275   5.675   2.614   1.827
13444TIP3    H240276   5.644   2.693   1.952
13445TIP3   OH240277   5.793   1.274   2.825
13445TIP3    H140278   5.842   1.267   2.907
13445TIP3    H240279   5.826   1.354   2.784
13446TIP3   OH240280   6.684   5.005   1.948
13446TIP3    H140281   6.731   5.064   2.007
13446TIP3    H240282   6.599   4.991   1.991
13447TIP3   OH240283   6.430   3.078   2.187
13447TIP3    H140284   6.499   3.033   2.236
13447TIP3    H240285   6.411   3.157   2.239
13448TIP3   OH240286   2.642   1.458   4.492
13448TIP3    H140287   2.635   1.530   4.429
13448TIP3    H240288   2.728   1.470   4.532
13449TIP3   OH240289   4.071   7.104   1.341
13449TIP3    H140290   4.021   7.185   1.332
13449TIP3    H240291   4.062   7.060   1.257
13450TIP3   OH240292   0.754   2.900   2.393
13450TIP3    H140293   0.830   2.870   2.343
13450TIP3    H240294   0.682   2.899   2.329
13451TIP3   OH240295   5.516   1.042   1.806
13451TIP3    H140296   5.610   1.058   1.812
13451TIP3    H240297   5.477   1.130   1.803
13452TIP3   OH240298   6.154   1.539   4.580
13452TIP3    H140299   6.076   1.520   4.633
13452TIP3    H240300   6.119   1.572   4.497
13453TIP3   OH240301   4.939   3.737   2.006
13453TIP3    H140302   5.001   3.752   1.934
13453TIP3    H240303   4.990   3.692   2.073
13454TIP3   OH240304   5.112   0.500   4.034
13454TIP3    H140305   5.120   0.472   4.125
13454TIP3    H240306   5.173   0.573   4.025
13455TIP3   OH240307   2.232   4.451   1.164
13455TIP3    H140308   2.159   4.435   1.224
13455TIP3    H240309   2.227   4.380   1.101
13456TIP3   OH240310   3.513   7.642   3.155
13456TIP3    H140311   3.450   7.647   3.083
13456TIP3    H240312   3.584   7.587   3.120
13457TIP3   OH240313   1.410   0.374   3.685
13457TIP3    H140314   1.486   0.356   3.631
13457TIP3    H240315   1.366   0.289   3.693
13458TIP3   OH240316   2.739   3.578   1.887
13458TIP3    H140317   2.707   3.504   1.835
13458TIP3    H240318   2.701   3.564   1.974
13459TIP3   OH240319   6.762   2.047   2.927
13459TIP3    H140320   6.801   2.045   3.014
13459TIP3    H240321   6.706   1.969   2.924
13460TIP3   OH240322   5.318   7.170   5.996
13460TIP3    H140323   5.304   7.162   5.902
13460TIP3    H240324   5.399   7.221   6.004
13461TIP3   OH240325   6.830   0.758   0.253
13461TIP3    H140326   6.767   0.816   0.296
13461TIP3    H240327   6.802   0.670   0.278
13462TIP3   OH240328   6.167   2.982   2.991
13462TIP3    H140329   6.243   2.993   2.933
13462TIP3    H240330   6.105   2.929   2.941
13463TIP3   OH240331   7.763   1.182   4.885
13463TIP3    H140332   7.830   1.244   4.911
13463TIP3    H240333   7.713   1.227   4.817
13464TIP3   OH240334   6.472   5.829   3.669
13464TIP3    H140335   6.429   5.903   3.711
13464TIP3    H240336   6.552   5.815   3.720
13465TIP3   OH240337   4.176   6.860   5.181
13465TIP3    H140338   4.188   6.936   5.124
13465TIP3    H240339   4.215   6.787   5.132
13466TIP3   OH240340   6.568   6.961   0.492
13466TIP3    H140341   6.554   6.970   0.586
13466TIP3    H240342   6.585   6.867   0.479
13467TIP3   OH240343   2.723   7.679   5.775
13467TIP3    H140344   2.791   7.745   5.758
13467TIP3    H240345   2.649   7.708   5.722
13468TIP3   OH240346   4.521   3.275   3.367
13468TIP3    H140347   4.539   3.255   3.275
13468TIP3    H240348   4.426   3.285   3.370
13469TIP3   OH240349   5.734   1.390   0.392
13469TIP3    H140350   5.737   1.382   0.487
13469TIP3    H240351   5.810   1.340   0.361
13470TIP3   OH240352   1.653   6.475   0.690
13470TIP3    H140353   1.605   6.446   0.613
13470TIP3    H240354   1.653   6.399   0.749
13471TIP3   OH240355   5.215   0.679   1.208
13471TIP3    H140356   5.297   0.713   1.245
13471TIP3    H240357   5.243   0.635   1.128
13472TIP3   OH240358   4.165   7.369   3.405
13472TIP3    H140359   4.073   7.367   3.378
13472TIP3    H240360   4.178   7.459   3.437
13473TIP3   OH240361   5.372   0.506   0.375
13473TIP3    H140362   5.311   0.569   0.335
13473TIP3    H240363   5.401   0.549   0.455
13474TIP3   OH240364   1.015   4.777   6.083
13474TIP3    H140365   0.944   4.823   6.128
13474TIP3    H240366   1.013   4.689   6.120
13475TIP3   OH240367   6.886   4.977   5.314
13475TIP3    H140368   6.840   4.930   5.383
13475TIP3    H240369   6.871   5.069   5.333
13476TIP3   OH240370   3.868   3.133   3.005
13476TIP3    H140371   3.923   3.069   2.960
13476TIP3    H240372   3.930   3.191   3.049
13477TIP3   OH240373   2.681   3.018   2.841
13477TIP3    H140374   2.756   3.074   2.824
13477TIP3    H240375   2.712   2.955   2.906
13478TIP3   OH240376   7.401   2.558   4.575
13478TIP3    H140377   7.463   2.505   4.526
13478TIP3    H240378   7.414   2.647   4.543
13479TIP3   OH240379   3.802   1.998   4.667
13479TIP3    H140380   3.776   2.002   4.759
13479TIP3    H240381   3.740   1.937   4.627
13480TIP3   OH240382   3.166   6.538   3.514
13480TIP3    H140383   3.096   6.585   3.559
13480TIP3    H240384   3.126   6.455   3.488
13481TIP3   OH240385   7.097   0.580   5.522
13481TIP3    H140386   7.053   0.666   5.517
13481TIP3    H240387   7.047   0.525   5.462
13482TIP3   OH240388   4.970   0.825   6.749
13482TIP3    H140389   4.909   0.808   6.821
13482TIP3    H240390   5.017   0.904   6.776
13483TIP3   OH240391   0.811   4.482   4.093
13483TIP3    H140392   0.864   4.525   4.160
13483TIP3    H240393   0.847   4.513   4.010
13484TIP3   OH240394   2.878   1.564   1.096
13484TIP3    H140395   2.953   1.618   1.119
13484TIP3    H240396   2.896   1.479   1.136
13485TIP3   OH240397   1.822   6.903   5.536
13485TIP3    H140398   1.736   6.866   5.556
13485TIP3    H240399   1.875   6.881   5.613
13486TIP3   OH240400   1.907   5.644   0.400
13486TIP3    H140401   1.850   5.627   0.475
13486TIP3    H240402   1.849   5.638   0.323
13487TIP3   OH240403   0.340   5.411   1.981
13487TIP3    H140404   0.432   5.391   1.999
13487TIP3    H240405   0.293   5.333   2.008
13488TIP3   OH240406   2.338   2.055   0.550
13488TIP3    H140407   2.327   2.098   0.635
13488TIP3    H240408   2.311   1.965   0.566
13489TIP3   OH240409   0.166   7.454   3.825
13489TIP3    H140410   0.078   7.473   3.793
13489TIP3    H240411   0.221   7.524   3.789
13490TIP3   OH240412   4.977   3.852   4.954
13490TIP3    H140413   4.956   3.940   4.921
13490TIP3    H240414   5.034   3.814   4.888
13491TIP3   OH240415   3.748   1.923   2.271
13491TIP3    H140416   3.798   1.958   2.344
13491TIP3    H240417   3.674   1.983   2.261
13492TIP3   OH240418   0.833   4.058   2.312
13492TIP3    H140419   0.745   4.023   2.309
13492TIP3    H240420   0.886   3.989   2.352
13493TIP3   OH240421   4.997   2.306   4.090
13493TIP3    H140422   4.942   2.305   4.168
13493TIP3    H240423   4.940   2.337   4.021
13494TIP3   OH240424   7.845   3.260   3.457
13494TIP3    H140425   7.874   3.293   3.542
13494TIP3    H240426   7.750   3.249   3.467
13495TIP3   OH240427   5.511   4.752   2.559
13495TIP3    H140428   5.429   4.800   2.545
13495TIP3    H240429   5.580   4.815   2.540
13496TIP3   OH240430   0.819   0.549   5.334
13496TIP3    H140431   0.834   0.589   5.248
13496TIP3    H240432   0.763   0.473   5.315
13497TIP3   OH240433   1.632   2.675   4.815
13497TIP3    H140434   1.634   2.765   4.784
13497TIP3    H240435   1.554   2.670   4.871
13498TIP3   OH240436   7.686   3.612   5.754
13498TIP3    H140437   7.762   3.637   5.806
13498TIP3    H240438   7.613   3.661   5.793
13499TIP3   OH240439   3.642   3.465   0.664
13499TIP3    H140440   3.552   3.490   0.643
13499TIP3    H240441   3.673   3.419   0.586
13500TIP3   OH240442   0.972   6.435   4.182
13500TIP3    H140443   1.000   6.344   4.171
13500TIP3    H240444   0.909   6.432   4.254
13501TIP3   OH240445   2.296   3.665   4.051
13501TIP3    H140446   2.300   3.576   4.085
13501TIP3    H240447   2.250   3.657   3.968
13502TIP3   OH240448   6.048   7.068   3.747
13502TIP3    H140449   6.017   7.070   3.838
13502TIP3    H240450   6.040   7.158   3.717
13503TIP3   OH240451   4.865   5.396   2.133
13503TIP3    H140452   4.878   5.390   2.039
13503TIP3    H240453   4.793   5.335   2.151
13504TIP3   OH240454   7.887   6.168   3.164
13504TIP3    H140455   7.803   6.176   3.210
13504TIP3    H240456   7.942   6.118   3.225
13505TIP3   OH240457   0.826   4.058   6.626
13505TIP3    H140458   0.803   3.987   6.686
13505TIP3    H240459   0.743   4.100   6.606
13506TIP3   OH240460   7.696   0.789   0.551
13506TIP3    H140461   7.764   0.843   0.510
13506TIP3    H240462   7.647   0.850   0.606
13507TIP3   OH240463   5.042   3.564   5.815
13507TIP3    H140464   5.024   3.480   5.774
13507TIP3    H240465   5.055   3.625   5.742
13508TIP3   OH240466   2.515   4.499   4.400
13508TIP3    H140467   2.550   4.425   4.350
13508TIP3    H240468   2.467   4.459   4.472
13509TIP3   OH240469   1.142   7.797   2.245
13509TIP3    H140470   1.073   7.820   2.307
13509TIP3    H240471   1.096   7.760   2.169
13510TIP3   OH240472   4.203   6.430   6.145
13510TIP3    H140473   4.258   6.362   6.105
13510TIP3    H240474   4.242   6.444   6.231
13511TIP3   OH240475   3.116   0.981   5.006
13511TIP3    H140476   3.116   1.044   4.934
13511TIP3    H240477   3.141   1.031   5.083
13512TIP3   OH240478   3.507   0.974   0.934
13512TIP3    H140479   3.558   1.029   0.875
13512TIP3    H240480   3.439   0.936   0.879
13513TIP3   OH240481   1.493   4.878   4.872
13513TIP3    H140482   1.559   4.875   4.803
13513TIP3    H240483   1.421   4.825   4.839
13514TIP3   OH240484   1.445   5.758   1.709
13514TIP3    H140485   1.467   5.774   1.618
13514TIP3    H240486   1.494   5.679   1.732
13515TIP3   OH240487   4.402   1.972   0.305
13515TIP3    H140488   4.469   1.977   0.237
13515TIP3    H240489   4.410   2.055   0.352
13516TIP3   OH240490   6.925   0.022   3.813
13516TIP3    H140491   6.892   0.049   3.899
13516TIP3    H240492   6.985  -0.050   3.833
13517TIP3   OH240493   7.973   5.074   3.629
13517TIP3    H140494   7.916   5.010   3.670
13517TIP3    H240495   7.913   5.136   3.587
13518TIP3   OH240496   3.759   0.874   6.026
13518TIP3    H140497   3.764   0.779   6.017
13518TIP3    H240498   3.741   0.889   6.118
13519TIP3   OH240499   8.012   2.487   5.979
13519TIP3    H140500   7.937   2.519   6.028
13519TIP3    H240501   8.034   2.403   6.021
13520TIP3   OH240502   4.171   5.129   4.666
13520TIP3    H140503   4.101   5.157   4.725
13520TIP3    H240504   4.210   5.211   4.635
13521TIP3   OH240505   3.564   3.792   0.881
13521TIP3    H140506   3.558   3.824   0.791
13521TIP3    H240507   3.487   3.736   0.892
13522TIP3   OH240508   0.828   4.533   5.860
13522TIP3    H140509   0.789   4.578   5.936
13522TIP3    H240510   0.809   4.440   5.875
13523TIP3   OH240511   5.764   2.323   6.316
13523TIP3    H140512   5.804   2.239   6.293
13523TIP3    H240513   5.690   2.332   6.256
13524TIP3   OH240514   2.292   0.341   3.388
13524TIP3    H140515   2.249   0.401   3.449
13524TIP3    H240516   2.354   0.396   3.340
13525TIP3   OH240517   3.360   2.753   1.995
13525TIP3    H140518   3.405   2.670   1.979
13525TIP3    H240519   3.268   2.729   2.008
13526TIP3   OH240520   5.852  -0.034   1.649
13526TIP3    H140521   5.840   0.046   1.701
13526TIP3    H240522   5.763  -0.061   1.625
13527TIP3   OH240523   4.238   4.112   2.686
13527TIP3    H140524   4.307   4.049   2.666
13527TIP3    H240525   4.282   4.181   2.736
13528TIP3   OH240526   5.848   6.878   4.543
13528TIP3    H140527   5.805   6.954   4.504
13528TIP3    H240528   5.914   6.915   4.602
13529TIP3   OH240529   7.029   2.736   2.615
13529TIP3    H140530   6.947   2.752   2.568
13529TIP3    H240531   7.095   2.732   2.546
13530TIP3   OH240532   2.202   2.680   5.346
13530TIP3    H140533   2.136   2.631   5.395
13530TIP3    H240534   2.284   2.662   5.393
13531TIP3   OH240535   2.847   3.398   1.494
13531TIP3    H140536   2.821   3.421   1.405
13531TIP3    H240537   2.868   3.482   1.534
13532TIP3   OH240538   1.498   0.914   1.530
13532TIP3    H140539   1.412   0.885   1.498
13532TIP3    H240540   1.534   0.837   1.575
13533TIP3   OH240541   7.919   5.477   3.719
13533TIP3    H140542   7.955   5.528   3.646
13533TIP3    H240543   7.848   5.530   3.753
13534TIP3   OH240544   0.500   1.751   5.128
13534TIP3    H140545   0.428   1.813   5.142
13534TIP3    H240546   0.459   1.674   5.089
13535TIP3   OH240547   0.782   6.422   4.377
13535TIP3    H140548   0.714   6.488   4.393
13535TIP3    H240549   0.774   6.361   4.451
13536TIP3   OH240550   3.730   5.668   5.269
13536TIP3    H140551   3.728   5.681   5.364
13536TIP3    H240552   3.814   5.625   5.253
13537TIP3   OH240553   3.523   5.790   4.308
13537TIP3    H140554   3.460   5.754   4.371
13537TIP3    H240555   3.598   5.815   4.361
13538TIP3   OH240556   6.719   7.696   3.954
13538TIP3    H140557   6.647   7.662   3.901
13538TIP3    H240558   6.793   7.638   3.934
13539TIP3   OH240559   7.340   3.179   3.604
13539TIP3    H140560   7.281   3.114   3.642
13539TIP3    H240561   7.282   3.246   3.567
13540TIP3   OH240562   5.882   2.620   4.557
13540TIP3    H140563   5.924   2.701   4.586
13540TIP3    H240564   5.931   2.551   4.603
13541TIP3   OH240565   1.458   4.214   4.056
13541TIP3    H140566   1.524   4.243   3.993
13541TIP3    H240567   1.505   4.153   4.113
13542TIP3   OH240568   8.025   1.037   6.041
13542TIP3    H140569   7.957   1.009   6.102
13542TIP3    H240570   8.107   1.023   6.089
13543TIP3   OH240571   6.789   5.077   0.733
13543TIP3    H140572   6.708   5.116   0.768
13543TIP3    H240573   6.834   5.043   0.810
13544TIP3   OH240574   6.653   1.520   6.590
13544TIP3    H140575   6.663   1.440   6.538
13544TIP3    H240576   6.693   1.499   6.674
13545TIP3   OH240577   7.338   7.069   1.474
13545TIP3    H140578   7.244   7.058   1.461
13545TIP3    H240579   7.377   7.004   1.415
13546TIP3   OH240580   7.042   1.402   6.751
13546TIP3    H140581   7.060   1.378   6.660
13546TIP3    H240582   7.109   1.468   6.772
13547TIP3   OH240583   6.756   5.952   0.694
13547TIP3    H140584   6.850   5.943   0.675
13547TIP3    H240585   6.753   5.997   0.779
13548TIP3   OH240586   2.967   5.448   6.230
13548TIP3    H140587   3.037   5.484   6.174
13548TIP3    H240588   3.007   5.371   6.271
13549TIP3   OH240589   4.974   3.028   1.068
13549TIP3    H140590   5.040   3.004   1.003
13549TIP3    H240591   5.008   3.108   1.109
13550TIP3   OH240592   3.553   1.773   3.845
13550TIP3    H140593   3.647   1.758   3.856
13550TIP3    H240594   3.514   1.687   3.859
13551TIP3   OH240595   7.491   1.898   6.526
13551TIP3    H140596   7.421   1.956   6.495
13551TIP3    H240597   7.536   1.948   6.594
13552TIP3   OH240598   3.100   4.499   6.057
13552TIP3    H140599   3.130   4.424   6.107
13552TIP3    H240600   3.120   4.476   5.966
13553TIP3   OH240601   3.524   6.723   0.601
13553TIP3    H140602   3.505   6.813   0.627
13553TIP3    H240603   3.465   6.706   0.528
13554TIP3   OH240604   0.803   1.330   0.189
13554TIP3    H140605   0.885   1.279   0.196
13554TIP3    H240606   0.818   1.388   0.114
13555TIP3   OH240607   6.506   6.966   0.808
13555TIP3    H140608   6.496   6.871   0.800
13555TIP3    H240609   6.445   6.991   0.878
13556TIP3   OH240610   0.654   2.950   4.015
13556TIP3    H140611   0.655   2.998   3.931
13556TIP3    H240612   0.561   2.942   4.036
13557TIP3   OH240613   1.131   0.758   0.687
13557TIP3    H140614   1.102   0.676   0.649
13557TIP3    H240615   1.051   0.809   0.700
13558TIP3   OH240616   1.005   7.505   4.468
13558TIP3    H140617   0.933   7.476   4.525
13558TIP3    H240618   1.001   7.601   4.472
13559TIP3   OH240619   2.644   2.066   0.902
13559TIP3    H140620   2.642   2.061   0.807
13559TIP3    H240621   2.669   2.156   0.921
13560TIP3   OH240622   1.362   1.548   2.866
13560TIP3    H140623   1.297   1.509   2.924
13560TIP3    H240624   1.379   1.635   2.903
13561TIP3   OH240625   0.185   7.654   6.645
13561TIP3    H140626   0.154   7.698   6.566
13561TIP3    H240627   0.155   7.564   6.636
13562TIP3   OH240628   5.404   7.103   6.523
13562TIP3    H140629   5.368   7.146   6.445
13562TIP3    H240630   5.327   7.079   6.575
13563TIP3   OH240631   7.996   0.712   1.636
13563TIP3    H140632   8.087   0.689   1.654
13563TIP3    H240633   7.969   0.763   1.713
13564TIP3   OH240634   5.080   3.256   3.144
13564TIP3    H140635   5.078   3.324   3.077
13564TIP3    H240636   5.123   3.182   3.101
13565TIP3   OH240637   4.290   3.095   1.690
13565TIP3    H140638   4.276   3.185   1.719
13565TIP3    H240639   4.205   3.066   1.658
13566TIP3   OH240640   3.245   1.393   5.009
13566TIP3    H140641   3.153   1.365   5.005
13566TIP3    H240642   3.295   1.311   5.010
13567TIP3   OH240643   0.629   4.025   5.591
13567TIP3    H140644   0.619   4.097   5.529
13567TIP3    H240645   0.573   3.956   5.557
13568TIP3   OH240646   5.414   6.565   3.849
13568TIP3    H140647   5.461   6.603   3.924
13568TIP3    H240648   5.350   6.506   3.888
13569TIP3   OH240649   7.015   4.266   5.089
13569TIP3    H140650   6.960   4.300   5.159
13569TIP3    H240651   7.014   4.333   5.021
13570TIP3   OH240652   0.876   0.190   3.962
13570TIP3    H140653   0.788   0.155   3.960
13570TIP3    H240654   0.895   0.203   4.055
13571TIP3   OH240655   1.148   3.554   4.023
13571TIP3    H140656   1.234   3.586   4.049
13571TIP3    H240657   1.118   3.619   3.959
13572TIP3   OH240658   7.084   2.321   1.858
13572TIP3    H140659   6.994   2.307   1.886
13572TIP3    H240660   7.115   2.235   1.832
13573TIP3   OH240661   2.177   4.257   6.469
13573TIP3    H140662   2.175   4.352   6.475
13573TIP3    H240663   2.101   4.235   6.414
13574TIP3   OH240664   2.658   5.629   3.374
13574TIP3    H140665   2.645   5.535   3.388
13574TIP3    H240666   2.579   5.658   3.329
13575TIP3   OH240667   1.187   3.360   6.058
13575TIP3    H140668   1.264   3.400   6.098
13575TIP3    H240669   1.207   3.356   5.965
13576TIP3   OH240670   0.069   4.783   4.010
13576TIP3    H140671   0.070   4.810   3.919
13576TIP3    H240672   0.017   4.850   4.055
13577TIP3   OH240673   6.590   0.758   4.298
13577TIP3    H140674   6.678   0.737   4.266
13577TIP3    H240675   6.598   0.847   4.332
13578TIP3   OH240676   6.655   3.877   1.760
13578TIP3    H140677   6.685   3.895   1.849
13578TIP3    H240678   6.582   3.816   1.770
13579TIP3   OH240679   4.384   2.022   0.998
13579TIP3    H140680   4.304   2.071   1.015
13579TIP3    H240681   4.425   2.011   1.084
13580TIP3   OH240682   4.483   7.265   2.057
13580TIP3    H140683   4.459   7.173   2.058
13580TIP3    H240684   4.399   7.311   2.055
13581TIP3   OH240685   6.729   7.339   4.475
13581TIP3    H140686   6.650   7.389   4.495
13581TIP3    H240687   6.777   7.392   4.412
13582TIP3   OH240688   3.201   7.144   3.543
13582TIP3    H140689   3.289   7.123   3.575
13582TIP3    H240690   3.154   7.060   3.547
13583TIP3   OH240691   6.110   0.904   3.413
13583TIP3    H140692   6.035   0.946   3.456
13583TIP3    H240693   6.094   0.810   3.423
13584TIP3   OH240694   0.311   3.601   5.065
13584TIP3    H140695   0.268   3.553   4.994
13584TIP3    H240696   0.240   3.645   5.111
13585TIP3   OH240697   6.704   7.136   0.787
13585TIP3    H140698   6.722   7.152   0.694
13585TIP3    H240699   6.612   7.109   0.789
13586TIP3   OH240700   3.067   3.004   3.715
13586TIP3    H140701   3.040   2.916   3.739
13586TIP3    H240702   3.163   3.000   3.715
13587TIP3   OH240703   4.222   3.046   6.379
13587TIP3    H140704   4.290   3.094   6.332
13587TIP3    H240705   4.225   2.958   6.342
13588TIP3   OH240706   6.126   1.316   4.028
13588TIP3    H140707   6.081   1.232   4.036
13588TIP3    H240708   6.199   1.298   3.968
13589TIP3   OH240709   2.160   2.080   1.155
13589TIP3    H140710   2.157   2.172   1.180
13589TIP3    H240711   2.108   2.075   1.076
13590TIP3   OH240712   5.968   5.172   6.648
13590TIP3    H140713   5.990   5.153   6.557
13590TIP3    H240714   6.023   5.112   6.699
13591TIP3   OH240715   3.651   5.965   3.428
13591TIP3    H140716   3.720   5.957   3.363
13591TIP3    H240717   3.582   5.907   3.398
13592TIP3   OH240718   1.262   3.645   2.177
13592TIP3    H140719   1.240   3.588   2.251
13592TIP3    H240720   1.182   3.695   2.161
13593TIP3   OH240721   7.669   6.091   2.242
13593TIP3    H140722   7.659   6.093   2.337
13593TIP3    H240723   7.696   6.180   2.219
13594TIP3   OH240724   5.778   0.187   6.648
13594TIP3    H140725   5.757   0.163   6.738
13594TIP3    H240726   5.781   0.283   6.649
13595TIP3   OH240727   4.461   0.364   3.276
13595TIP3    H140728   4.430   0.300   3.212
13595TIP3    H240729   4.535   0.406   3.233
13596TIP3   OH240730   2.325   7.321   1.203
13596TIP3    H140731   2.295   7.230   1.209
13596TIP3    H240732   2.408   7.315   1.155
13597TIP3   OH240733   6.500   3.997   4.943
13597TIP3    H140734   6.525   3.967   5.031
13597TIP3    H240735   6.442   3.927   4.911
13598TIP3   OH240736   4.221   1.308   3.809
13598TIP3    H140737   4.201   1.240   3.873
13598TIP3    H240738   4.193   1.272   3.725
13599TIP3   OH240739   3.725   5.336   5.013
13599TIP3    H140740   3.770   5.339   5.098
13599TIP3    H240741   3.654   5.399   5.021
13600TIP3   OH240742   0.036   0.116   0.673
13600TIP3    H140743   0.125   0.098   0.643
13600TIP3    H240744   0.022   0.055   0.746
13601TIP3   OH240745   2.200   4.745   2.759
13601TIP3    H140746   2.128   4.686   2.781
13601TIP3    H240747   2.173   4.787   2.678
13602TIP3   OH240748   3.334   6.673   0.396
13602TIP3    H140749   3.340   6.763   0.365
13602TIP3    H240750   3.243   6.649   0.380
13603TIP3   OH240751   1.834   7.470   6.131
13603TIP3    H140752   1.782   7.408   6.182
13603TIP3    H240753   1.780   7.488   6.054
13604TIP3   OH240754   5.233   0.943   1.422
13604TIP3    H140755   5.300   0.924   1.356
13604TIP3    H240756   5.264   1.023   1.465
13605TIP3   OH240757   4.065   4.094   1.181
13605TIP3    H140758   4.129   4.148   1.228
13605TIP3    H240759   4.074   4.119   1.090
13606TIP3   OH240760   5.300   6.197   0.363
13606TIP3    H140761   5.367   6.197   0.295
13606TIP3    H240762   5.292   6.106   0.389
13607TIP3   OH240763   1.795   0.662   5.300
13607TIP3    H140764   1.792   0.734   5.237
13607TIP3    H240765   1.745   0.694   5.376
13608TIP3   OH240766   2.366   3.150   1.161
13608TIP3    H140767   2.308   3.159   1.237
13608TIP3    H240768   2.383   3.056   1.156
13609TIP3   OH240769   5.619   2.349   4.666
13609TIP3    H140770   5.625   2.409   4.591
13609TIP3    H240771   5.525   2.336   4.679
13610TIP3   OH240772   0.722   0.559   1.312
13610TIP3    H140773   0.743   0.511   1.392
13610TIP3    H240774   0.713   0.490   1.245
13611TIP3   OH240775   3.154   4.671   6.264
13611TIP3    H140776   3.248   4.689   6.267
13611TIP3    H240777   3.144   4.607   6.194
13612TIP3   OH240778   2.484   6.231   1.920
13612TIP3    H140779   2.563   6.218   1.867
13612TIP3    H240780   2.438   6.303   1.876
13613TIP3   OH240781   0.649   0.234   2.523
13613TIP3    H140782   0.684   0.278   2.445
13613TIP3    H240783   0.556   0.254   2.522
13614TIP3   OH240784   4.995   6.241   3.710
13614TIP3    H140785   4.968   6.174   3.772
13614TIP3    H240786   5.039   6.194   3.640
13615TIP3   OH240787   3.308   4.055   1.706
13615TIP3    H140788   3.358   4.032   1.784
13615TIP3    H240789   3.374   4.080   1.641
13616TIP3   OH240790   3.883   1.810   6.263
13616TIP3    H140791   3.811   1.747   6.261
13616TIP3    H240792   3.898   1.825   6.357
13617TIP3   OH240793   2.643   0.185   2.317
13617TIP3    H140794   2.640   0.170   2.223
13617TIP3    H240795   2.673   0.101   2.353
13618TIP3   OH240796   7.019   3.691   4.171
13618TIP3    H140797   7.007   3.784   4.154
13618TIP3    H240798   6.933   3.660   4.201
13619TIP3   OH240799   6.918   5.474   0.515
13619TIP3    H140800   7.006   5.456   0.548
13619TIP3    H240801   6.886   5.389   0.485
13620TIP3   OH240802   7.542   2.984   5.320
13620TIP3    H140803   7.571   3.073   5.341
13620TIP3    H240804   7.568   2.932   5.396
13621TIP3   OH240805   6.961   4.422   5.918
13621TIP3    H140806   6.970   4.438   6.011
13621TIP3    H240807   7.025   4.353   5.899
13622TIP3   OH240808   0.048   4.702   5.144
13622TIP3    H140809   0.102   4.759   5.199
13622TIP3    H240810  -0.034   4.750   5.132
13623TIP3   OH240811   7.037   3.047   1.899
13623TIP3    H140812   6.989   2.979   1.853
13623TIP3    H240813   7.022   3.127   1.847
13624TIP3   OH240814   0.331   2.299   3.363
13624TIP3    H140815   0.302   2.305   3.454
13624TIP3    H240816   0.254   2.269   3.315
13625TIP3   OH240817   5.641   0.934   6.357
13625TIP3    H140818   5.694   0.993   6.412
13625TIP3    H240819   5.703   0.902   6.291
13626TIP3   OH240820   2.902   7.653   1.280
13626TIP3    H140821   2.865   7.620   1.199
13626TIP3    H240822   2.985   7.606   1.289
13627TIP3   OH240823   5.577   6.762   3.371
13627TIP3    H140824   5.522   6.804   3.304
13627TIP3    H240825   5.524   6.766   3.451
13628TIP3   OH240826   5.540   1.229   5.480
13628TIP3    H140827   5.610   1.200   5.421
13628TIP3    H240828   5.507   1.310   5.440
13629TIP3   OH240829   7.959   4.567   2.444
13629TIP3    H140830   7.934   4.659   2.430
13629TIP3    H240831   8.029   4.551   2.380
13630TIP3   OH240832   4.731   5.192   6.377
13630TIP3    H140833   4.761   5.135   6.448
13630TIP3    H240834   4.649   5.229   6.408
13631TIP3   OH240835   3.369   0.681   2.717
13631TIP3    H140836   3.409   0.714   2.798
13631TIP3    H240837   3.438   0.629   2.676
13632TIP3   OH240838   2.459   2.291   2.547
13632TIP3    H140839   2.453   2.384   2.525
13632TIP3    H240840   2.552   2.275   2.562
13633TIP3   OH240841   0.512   0.788   4.095
13633TIP3    H140842   0.520   0.711   4.151
13633TIP3    H240843   0.599   0.829   4.098
13634TIP3   OH240844   8.230   4.255   6.303
13634TIP3    H140845   8.220   4.330   6.245
13634TIP3    H240846   8.246   4.181   6.244
13635TIP3   OH240847   5.124   2.311   1.410
13635TIP3    H140848   5.119   2.367   1.333
13635TIP3    H240849   5.034   2.281   1.423
13636TIP3   OH240850   4.056   5.372   3.520
13636TIP3    H140851   3.991   5.334   3.579
13636TIP3    H240852   4.107   5.298   3.489
13637TIP3   OH240853   2.471   2.146   4.837
13637TIP3    H140854   2.387   2.107   4.862
13637TIP3    H240855   2.462   2.164   4.743
13638TIP3   OH240856   2.923   1.827   1.857
13638TIP3    H140857   3.011   1.858   1.879
13638TIP3    H240858   2.865   1.880   1.911
13639TIP3   OH240859   6.181   3.508   5.579
13639TIP3    H140860   6.088   3.504   5.560
13639TIP3    H240861   6.219   3.437   5.528
13640TIP3   OH240862   6.049   0.191   4.537
13640TIP3    H140863   6.070   0.171   4.628
13640TIP3    H240864   6.134   0.198   4.493
13641TIP3   OH240865   0.584   2.519   0.729
13641TIP3    H140866   0.602   2.554   0.816
13641TIP3    H240867   0.595   2.593   0.670
13642TIP3   OH240868   6.436   7.504   1.231
13642TIP3    H140869   6.488   7.489   1.310
13642TIP3    H240870   6.465   7.436   1.171
13643TIP3   OH240871   7.452   7.583   0.652
13643TIP3    H140872   7.445   7.507   0.709
13643TIP3    H240873   7.466   7.546   0.564
13644TIP3   OH240874   4.087   0.043   0.389
13644TIP3    H140875   4.132   0.116   0.348
13644TIP3    H240876   3.996   0.070   0.394
13645TIP3   OH240877   8.042   5.433   0.645
13645TIP3    H140878   8.105   5.491   0.602
13645TIP3    H240879   8.092   5.391   0.715
13646TIP3   OH240880   3.817   3.987   0.716
13646TIP3    H140881   3.755   3.915   0.720
13646TIP3    H240882   3.859   3.978   0.631
13647TIP3   OH240883   3.221   6.277   4.100
13647TIP3    H140884   3.145   6.307   4.150
13647TIP3    H240885   3.183   6.234   4.023
13648TIP3   OH240886   0.453   2.004   6.554
13648TIP3    H140887   0.495   2.059   6.620
13648TIP3    H240888   0.417   2.066   6.491
13649TIP3   OH240889   2.920   7.620   0.671
13649TIP3    H140890   2.986   7.553   0.656
13649TIP3    H240891   2.873   7.590   0.749
13650TIP3   OH240892   2.931   4.775   2.705
13650TIP3    H140893   2.959   4.747   2.792
13650TIP3    H240894   2.970   4.862   2.694
13651TIP3   OH240895   5.740   0.915   3.791
13651TIP3    H140896   5.702   1.000   3.769
13651TIP3    H240897   5.832   0.934   3.810
13652TIP3   OH240898   2.888   0.757   6.188
13652TIP3    H140899   2.832   0.792   6.118
13652TIP3    H240900   2.827   0.718   6.250
13653TIP3   OH240901   5.288   7.177   0.865
13653TIP3    H140902   5.289   7.084   0.843
13653TIP3    H240903   5.316   7.221   0.785
13654TIP3   OH240904   4.542   6.042   1.438
13654TIP3    H140905   4.554   6.097   1.360
13654TIP3    H240906   4.543   5.952   1.404
13655TIP3   OH240907   4.906   3.618   0.386
13655TIP3    H140908   4.840   3.549   0.384
13655TIP3    H240909   4.983   3.578   0.347
13656TIP3   OH240910   6.635   6.221   2.359
13656TIP3    H140911   6.697   6.294   2.361
13656TIP3    H240912   6.552   6.259   2.389
13657TIP3   OH240913   0.786   6.366   2.910
13657TIP3    H140914   0.843   6.353   2.835
13657TIP3    H240915   0.698   6.345   2.877
13658TIP3   OH240916   2.956   3.259   0.786
13658TIP3    H140917   2.930   3.335   0.837
13658TIP3    H240918   2.918   3.185   0.833
13659TIP3   OH240919   3.894   6.538   2.880
13659TIP3    H140920   3.870   6.500   2.964
13659TIP3    H240921   3.865   6.473   2.815
13660TIP3   OH240922   0.297   1.458   2.480
13660TIP3    H140923   0.341   1.531   2.523
13660TIP3    H240924   0.363   1.423   2.420
13661TIP3   OH240925   0.657   2.314   4.253
13661TIP3    H140926   0.683   2.330   4.163
13661TIP3    H240927   0.691   2.389   4.302
13662TIP3   OH240928   2.593   7.033   3.676
13662TIP3    H140929   2.613   6.982   3.597
13662TIP3    H240930   2.678   7.065   3.706
13663TIP3   OH240931   7.642   4.098   5.959
13663TIP3    H140932   7.593   4.166   5.912
13663TIP3    H240933   7.671   4.141   6.039
13664TIP3   OH240934   2.924   2.251   3.866
13664TIP3    H140935   2.868   2.203   3.805
13664TIP3    H240936   2.962   2.321   3.813
13665TIP3   OH240937   1.000   3.657   4.493
13665TIP3    H140938   1.030   3.735   4.445
13665TIP3    H240939   1.021   3.584   4.435
13666TIP3   OH240940   5.811   1.614   5.136
13666TIP3    H140941   5.774   1.562   5.065
13666TIP3    H240942   5.901   1.631   5.109
13667TIP3   OH240943   3.625   4.914   5.555
13667TIP3    H140944   3.533   4.909   5.529
13667TIP3    H240945   3.664   4.970   5.488
13668TIP3   OH240946   1.495   5.665   1.460
13668TIP3    H140947   1.435   5.669   1.386
13668TIP3    H240948   1.551   5.589   1.441
13669TIP3   OH240949   0.902   6.494   4.734
13669TIP3    H140950   0.935   6.429   4.672
13669TIP3    H240951   0.809   6.500   4.715
13670TIP3   OH240952   6.599   6.111   5.716
13670TIP3    H140953   6.549   6.173   5.770
13670TIP3    H240954   6.690   6.126   5.741
13671TIP3   OH240955   2.215   5.241   5.581
13671TIP3    H140956   2.308   5.229   5.600
13671TIP3    H240957   2.189   5.319   5.631
13672TIP3   OH240958   4.966   7.178   5.370
13672TIP3    H140959   4.966   7.263   5.415
13672TIP3    H240960   5.050   7.139   5.395
13673TIP3   OH240961   0.895   6.640   5.246
13673TIP3    H140962   0.963   6.637   5.314
13673TIP3    H240963   0.941   6.670   5.168
13674TIP3   OH240964   0.099   5.822   3.393
13674TIP3    H140965   0.152   5.859   3.464
13674TIP3    H240966   0.151   5.749   3.359
13675TIP3   OH240967   7.898   1.342   6.245
13675TIP3    H140968   7.925   1.352   6.337
13675TIP3    H240969   7.836   1.269   6.246
13676TIP3   OH240970   7.655   5.305   2.316
13676TIP3    H140971   7.618   5.392   2.333
13676TIP3    H240972   7.734   5.323   2.264
13677TIP3   OH240973   8.144   1.946   3.862
13677TIP3    H140974   8.205   1.877   3.888
13677TIP3    H240975   8.062   1.923   3.904
13678TIP3   OH240976   7.004   5.271   5.989
13678TIP3    H140977   6.959   5.223   5.919
13678TIP3    H240978   7.091   5.289   5.952
13679TIP3   OH240979   7.219   6.227   5.366
13679TIP3    H140980   7.239   6.282   5.441
13679TIP3    H240981   7.141   6.178   5.392
13680TIP3   OH240982   1.922   6.708   3.930
13680TIP3    H140983   2.003   6.662   3.907
13680TIP3    H240984   1.886   6.657   4.003
13681TIP3   OH240985   2.242   5.393   3.669
13681TIP3    H140986   2.217   5.310   3.710
13681TIP3    H240987   2.240   5.374   3.575
13682TIP3   OH240988   4.958   7.456   0.349
13682TIP3    H140989   5.051   7.470   0.332
13682TIP3    H240990   4.936   7.520   0.417
13683TIP3   OH240991   4.348   1.903   1.670
13683TIP3    H140992   4.284   1.893   1.740
13683TIP3    H240993   4.389   1.817   1.662
13684TIP3   OH240994   4.641   1.094   5.232
13684TIP3    H140995   4.629   1.187   5.252
13684TIP3    H240996   4.638   1.089   5.136
13685TIP3   OH240997   1.400   2.456   3.584
13685TIP3    H140998   1.409   2.363   3.605
13685TIP3    H240999   1.450   2.468   3.503
13686TIP3   OH241000   4.530   5.884   5.849
13686TIP3    H141001   4.472   5.851   5.917
13686TIP3    H241002   4.591   5.942   5.895
13687TIP3   OH241003   6.980   2.301   5.557
13687TIP3    H141004   7.069   2.324   5.583
13687TIP3    H241005   6.974   2.327   5.465
13688TIP3   OH241006   5.036   3.780   2.597
13688TIP3    H141007   5.130   3.795   2.592
13688TIP3    H241008   5.026   3.685   2.597
13689TIP3   OH241009   1.600   1.056   4.555
13689TIP3    H141010   1.686   1.031   4.588
13689TIP3    H241011   1.601   1.032   4.463
13690TIP3   OH241012   7.040   3.695   4.449
13690TIP3    H141013   6.948   3.674   4.464
13690TIP3    H241014   7.046   3.712   4.355
13691TIP3   OH241015   0.581   5.704   1.132
13691TIP3    H141016   0.512   5.637   1.137
13691TIP3    H241017   0.662   5.656   1.144
13692TIP3   OH241018   3.582   2.817   3.980
13692TIP3    H141019   3.534   2.810   4.063
13692TIP3    H241020   3.514   2.818   3.913
13693TIP3   OH241021   2.836   5.595   5.889
13693TIP3    H141022   2.903   5.601   5.821
13693TIP3    H241023   2.870   5.648   5.961
13694TIP3   OH241024   0.790   3.940   3.537
13694TIP3    H141025   0.779   4.035   3.538
13694TIP3    H241026   0.835   3.922   3.455
13695TIP3   OH241027   5.038   3.143   0.318
13695TIP3    H141028   4.952   3.141   0.276
13695TIP3    H241029   5.095   3.092   0.260
13696TIP3   OH241030   6.763   1.547   4.934
13696TIP3    H141031   6.719   1.512   5.012
13696TIP3    H241032   6.703   1.527   4.862
13697TIP3   OH241033   8.123   2.584   4.979
13697TIP3    H141034   8.058   2.563   4.912
13697TIP3    H241035   8.202   2.607   4.930
13698TIP3   OH241036   3.481   0.924   5.789
13698TIP3    H141037   3.433   0.967   5.860
13698TIP3    H241038   3.458   0.831   5.798
13699TIP3   OH241039   6.178   6.410   0.421
13699TIP3    H141040   6.230   6.474   0.372
13699TIP3    H241041   6.101   6.459   0.451
13700TIP3   OH241042   4.445   7.407   5.925
13700TIP3    H141043   4.499   7.362   5.989
13700TIP3    H241044   4.356   7.399   5.959
13701TIP3   OH241045   6.586   1.435   5.131
13701TIP3    H141046   6.579   1.349   5.171
13701TIP3    H241047   6.551   1.423   5.042
13702TIP3   OH241048   7.279   2.476   5.329
13702TIP3    H141049   7.213   2.534   5.291
13702TIP3    H241050   7.268   2.486   5.424
13703TIP3   OH241051   6.397   2.443   3.284
13703TIP3    H141052   6.443   2.394   3.215
13703TIP3    H241053   6.307   2.450   3.252
13704TIP3   OH241054   5.020   4.302   6.170
13704TIP3    H141055   5.065   4.386   6.177
13704TIP3    H241056   5.015   4.285   6.076
13705TIP3   OH241057   4.151   3.024   3.146
13705TIP3    H141058   4.196   2.973   3.213
13705TIP3    H241059   4.221   3.064   3.095
13706TIP3   OH241060   7.312   3.693   1.525
13706TIP3    H141061   7.339   3.760   1.587
13706TIP3    H241062   7.239   3.648   1.567
13707TIP3   OH241063   4.072   7.152   6.068
13707TIP3    H141064   4.159   7.153   6.108
13707TIP3    H241065   4.037   7.066   6.088
13708TIP3   OH241066   5.315   6.234   3.151
13708TIP3    H141067   5.369   6.267   3.079
13708TIP3    H241068   5.241   6.191   3.107
13709TIP3   OH241069   4.929   7.269   0.602
13709TIP3    H141070   4.919   7.327   0.527
13709TIP3    H241071   4.890   7.317   0.675
13710TIP3   OH241072   4.862   5.105   1.412
13710TIP3    H141073   4.792   5.116   1.347
13710TIP3    H241074   4.818   5.066   1.488
13711TIP3   OH241075   6.344   7.249   1.823
13711TIP3    H141076   6.399   7.312   1.869
13711TIP3    H241077   6.349   7.170   1.876
13712TIP3   OH241078   6.070   0.180   6.664
13712TIP3    H141079   6.083   0.112   6.730
13712TIP3    H241080   5.990   0.154   6.618
13713TIP3   OH241081   6.012   0.415   0.448
13713TIP3    H141082   5.962   0.496   0.432
13713TIP3    H241083   6.097   0.432   0.409
13714TIP3   OH241084   7.015   4.981   4.191
13714TIP3    H141085   6.981   4.901   4.230
13714TIP3    H241086   7.048   4.954   4.105
13715TIP3   OH241087   4.248   0.478   3.415
13715TIP3    H141088   4.274   0.552   3.470
13715TIP3    H241089   4.324   0.460   3.360
13716TIP3   OH241090   8.241   7.027   0.558
13716TIP3    H141091   8.175   6.977   0.606
13716TIP3    H241092   8.201   7.045   0.473
13717TIP3   OH241093   6.616   7.434   1.751
13717TIP3    H141094   6.691   7.417   1.808
13717TIP3    H241095   6.540   7.433   1.810
13718TIP3   OH241096   3.078   2.780   2.316
13718TIP3    H141097   2.987   2.752   2.315
13718TIP3    H241098   3.116   2.744   2.236
13719TIP3   OH241099   2.142   5.021   1.493
13719TIP3    H141100   2.157   5.051   1.403
13719TIP3    H241101   2.206   4.951   1.505
13720TIP3   OH241102   4.124   4.827   4.477
13720TIP3    H141103   4.075   4.908   4.481
13720TIP3    H241104   4.196   4.845   4.415
13721TIP3   OH241105   4.841   4.132   5.165
13721TIP3    H141106   4.904   4.060   5.164
13721TIP3    H241107   4.811   4.140   5.075
13722TIP3   OH241108   1.877   4.785   4.443
13722TIP3    H141109   1.964   4.824   4.443
13722TIP3    H241110   1.818   4.857   4.464
13723TIP3   OH241111   7.861   7.054   2.404
13723TIP3    H141112   7.884   7.027   2.492
13723TIP3    H241113   7.925   7.010   2.348
13724TIP3   OH241114   5.691   4.969   4.450
13724TIP3    H141115   5.785   4.974   4.470
13724TIP3    H241116   5.688   4.927   4.364
13725TIP3   OH241117   6.314   6.726   4.954
13725TIP3    H141118   6.260   6.689   4.883
13725TIP3    H241119   6.265   6.706   5.034
13726TIP3   OH241120   5.069   7.688   3.328
13726TIP3    H141121   5.090   7.695   3.235
13726TIP3    H241122   5.127   7.619   3.361
13727TIP3   OH241123   7.144   4.491   0.490
13727TIP3    H141124   7.126   4.486   0.584
13727TIP3    H241125   7.230   4.451   0.479
13728TIP3   OH241126   1.305   5.827   3.138
13728TIP3    H141127   1.312   5.850   3.231
13728TIP3    H241128   1.396   5.820   3.108
13729TIP3   OH241129   5.146   7.256   5.002
13729TIP3    H141130   5.053   7.237   5.009
13729TIP3    H241131   5.150   7.350   4.985
13730TIP3   OH241132   1.692   2.255   4.898
13730TIP3    H141133   1.668   2.316   4.829
13730TIP3    H241134   1.785   2.237   4.883
13731TIP3   OH241135   5.252   3.193   4.212
13731TIP3    H141136   5.315   3.128   4.180
13731TIP3    H241137   5.272   3.202   4.305
13732TIP3   OH241138   3.349   5.483   0.439
13732TIP3    H141139   3.435   5.450   0.463
13732TIP3    H241140   3.289   5.412   0.462
13733TIP3   OH241141   5.789   7.673   2.787
13733TIP3    H141142   5.868   7.654   2.838
13733TIP3    H241143   5.767   7.590   2.746
13734TIP3   OH241144   7.775   0.239   0.269
13734TIP3    H141145   7.690   0.283   0.265
13734TIP3    H241146   7.797   0.221   0.177
13735TIP3   OH241147   3.603   5.614   5.677
13735TIP3    H141148   3.649   5.698   5.673
13735TIP3    H241149   3.626   5.570   5.595
13736TIP3   OH241150   7.433   0.160   1.519
13736TIP3    H141151   7.493   0.196   1.584
13736TIP3    H241152   7.481   0.167   1.436
13737TIP3   OH241153   2.043   4.302   2.896
13737TIP3    H141154   2.086   4.243   2.833
13737TIP3    H241155   2.039   4.252   2.977
13738TIP3   OH241156   7.814   5.896   6.050
13738TIP3    H141157   7.836   5.804   6.033
13738TIP3    H241158   7.884   5.927   6.107
13739TIP3   OH241159   0.262   1.515   0.869
13739TIP3    H141160   0.192   1.492   0.931
13739TIP3    H241161   0.264   1.442   0.807
13740TIP3   OH241162   7.417   1.046   2.903
13740TIP3    H141163   7.499   1.094   2.911
13740TIP3    H241164   7.423   0.977   2.969
13741TIP3   OH241165   1.253   7.820   1.929
13741TIP3    H141166   1.233   7.786   1.842
13741TIP3    H241167   1.171   7.858   1.960
13742TIP3   OH241168   6.730   5.503   0.735
13742TIP3    H141169   6.674   5.568   0.694
13742TIP3    H241170   6.798   5.485   0.670
13743TIP3   OH241171   2.938   4.286   1.305
13743TIP3    H141172   2.888   4.350   1.256
13743TIP3    H241173   2.981   4.337   1.375
13744TIP3   OH241174   3.791   2.056   2.577
13744TIP3    H141175   3.836   2.140   2.582
13744TIP3    H241176   3.698   2.078   2.570
13745TIP3   OH241177   2.125   2.699   6.466
13745TIP3    H141178   2.204   2.645   6.475
13745TIP3    H241179   2.079   2.689   6.549
13746TIP3   OH241180   8.151   5.108   5.441
13746TIP3    H141181   8.138   5.019   5.406
13746TIP3    H241182   8.153   5.164   5.363
13747TIP3   OH241183   3.837   0.888   5.021
13747TIP3    H141184   3.795   0.956   5.074
13747TIP3    H241185   3.930   0.893   5.044
13748TIP3   OH241186   0.852   3.429   1.675
13748TIP3    H141187   0.923   3.424   1.611
13748TIP3    H241188   0.772   3.420   1.623
13749TIP3   OH241189   5.622   2.067   0.244
13749TIP3    H141190   5.650   2.098   0.157
13749TIP3    H241191   5.529   2.088   0.249
13750TIP3   OH241192   7.862   6.948   1.785
13750TIP3    H141193   7.869   7.016   1.718
13750TIP3    H241194   7.771   6.918   1.779
13751TIP3   OH241195   7.618   2.393   3.906
13751TIP3    H141196   7.592   2.483   3.890
13751TIP3    H241197   7.622   2.353   3.819
13752TIP3   OH241198   1.507   5.690   5.981
13752TIP3    H141199   1.553   5.758   5.933
13752TIP3    H241200   1.482   5.626   5.913
13753TIP3   OH241201   1.086   2.221   2.291
13753TIP3    H141202   1.139   2.286   2.244
13753TIP3    H241203   1.079   2.255   2.380
13754TIP3   OH241204   3.119   4.365   3.293
13754TIP3    H141205   3.208   4.330   3.293
13754TIP3    H241206   3.131   4.460   3.299
13755TIP3   OH241207   7.476   1.389   0.135
13755TIP3    H141208   7.518   1.475   0.148
13755TIP3    H241209   7.385   1.403   0.160
13756TIP3   OH241210   4.344   6.754   6.225
13756TIP3    H141211   4.391   6.671   6.231
13756TIP3    H241212   4.340   6.772   6.131
13757TIP3   OH241213   1.962   1.584   4.863
13757TIP3    H141214   1.922   1.671   4.864
13757TIP3    H241215   1.890   1.525   4.844
13758TIP3   OH241216   4.425   4.553   5.983
13758TIP3    H141217   4.392   4.546   5.893
13758TIP3    H241218   4.347   4.538   6.037
13759TIP3   OH241219   2.145   4.063   0.697
13759TIP3    H141220   2.145   4.033   0.788
13759TIP3    H241221   2.222   4.022   0.658
13760TIP3   OH241222   2.665   2.195   5.345
13760TIP3    H141223   2.703   2.283   5.347
13760TIP3    H241224   2.707   2.148   5.418
13761TIP3   OH241225   4.634   7.154   3.198
13761TIP3    H141226   4.540   7.162   3.213
13761TIP3    H241227   4.650   7.060   3.198
13762TIP3   OH241228   1.308   3.720   5.182
13762TIP3    H141229   1.285   3.801   5.137
13762TIP3    H241230   1.373   3.747   5.248
13763TIP3   OH241231   3.015   1.238   5.424
13763TIP3    H141232   2.995   1.201   5.510
13763TIP3    H241233   2.930   1.266   5.390
13764TIP3   OH241234   4.767   2.327   2.507
13764TIP3    H141235   4.731   2.383   2.439
13764TIP3    H241236   4.746   2.373   2.589
13765TIP3   OH241237   2.978   6.045   3.321
13765TIP3    H141238   3.051   5.982   3.322
13765TIP3    H241239   2.910   6.004   3.374
13766TIP3   OH241240   2.943   0.507   5.655
13766TIP3    H141241   2.929   0.514   5.750
13766TIP3    H241242   3.038   0.504   5.646
13767TIP3   OH241243   3.087   2.617   6.435
13767TIP3    H141244   3.026   2.646   6.504
13767TIP3    H241245   3.098   2.695   6.380
13768TIP3   OH241246   6.369   1.237   1.943
13768TIP3    H141247   6.434   1.201   2.003
13768TIP3    H241248   6.384   1.192   1.860
13769TIP3   OH241249   6.936   7.354   1.883
13769TIP3    H141250   6.896   7.295   1.819
13769TIP3    H241251   6.964   7.297   1.954
13770TIP3   OH241252   6.732   7.171   6.616
13770TIP3    H141253   6.637   7.162   6.606
13770TIP3    H241254   6.752   7.126   6.698
13771TIP3   OH241255   0.861   1.483  -0.040
13771TIP3    H141256   0.913   1.559  -0.017
13771TIP3    H241257   0.921   1.426  -0.088
13772TIP3   OH241258   4.717   0.322   2.567
13772TIP3    H141259   4.638   0.281   2.601
13772TIP3    H241260   4.702   0.329   2.472
13773TIP3   OH241261   1.302   1.921   6.725
13773TIP3    H141262   1.335   1.853   6.666
13773TIP3    H241263   1.349   2.000   6.699
13774TIP3   OH241264   5.143   6.818   3.345
13774TIP3    H141265   5.208   6.750   3.366
13774TIP3    H241266   5.059   6.773   3.351
13775TIP3   OH241267   3.378   2.159   6.291
13775TIP3    H141268   3.423   2.091   6.241
13775TIP3    H241269   3.337   2.214   6.225
13776TIP3   OH241270   6.326   6.446   1.515
13776TIP3    H141271   6.397   6.427   1.576
13776TIP3    H241272   6.345   6.392   1.438
13777TIP3   OH241273   1.807   6.495   1.104
13777TIP3    H141274   1.803   6.540   1.019
13777TIP3    H241275   1.825   6.565   1.167
13778TIP3   OH241276   2.921   2.295   3.532
13778TIP3    H141277   2.988   2.275   3.467
13778TIP3    H241278   2.856   2.348   3.485
13779TIP3   OH241279   4.585   1.611   2.464
13779TIP3    H141280   4.491   1.612   2.442
13779TIP3    H241281   4.616   1.528   2.427
13780TIP3   OH241282   4.013   6.843   3.943
13780TIP3    H141283   4.042   6.904   3.875
13780TIP3    H241284   4.031   6.756   3.905
13781TIP3   OH241285   0.230   7.272   0.863
13781TIP3    H141286   0.165   7.335   0.891
13781TIP3    H241287   0.180   7.195   0.837
13782TIP3   OH241288   7.434   1.480   1.878
13782TIP3    H141289   7.523   1.506   1.855
13782TIP3    H241290   7.383   1.562   1.873
13783TIP3   OH241291   4.218   3.094   3.459
13783TIP3    H141292   4.279   3.037   3.412
13783TIP3    H241293   4.151   3.034   3.491
13784TIP3   OH241294   4.136   3.715   3.404
13784TIP3    H141295   4.210   3.701   3.463
13784TIP3    H241296   4.151   3.802   3.367
13785TIP3   OH241297   5.159   2.226   5.032
13785TIP3    H141298   5.155   2.313   5.073
13785TIP3    H241299   5.086   2.178   5.073
13786TIP3   OH241300   6.087   4.172   4.344
13786TIP3    H141301   6.154   4.236   4.369
13786TIP3    H241302   6.068   4.191   4.253
13787TIP3   OH241303   0.676   2.600   4.014
13787TIP3    H141304   0.611   2.530   4.009
13787TIP3    H241305   0.629   2.674   4.054
13788TIP3   OH241306   1.749   0.124   1.917
13788TIP3    H141307   1.743   0.218   1.899
13788TIP3    H241308   1.843   0.108   1.930
13789TIP3   OH241309   3.451   0.398   4.169
13789TIP3    H141310   3.439   0.321   4.225
13789TIP3    H241311   3.513   0.453   4.216
13790TIP3   OH241312   7.478   5.361   4.292
13790TIP3    H141313   7.538   5.394   4.225
13790TIP3    H241314   7.440   5.282   4.253
13791TIP3   OH241315   2.794   3.313   3.554
13791TIP3    H141316   2.796   3.409   3.560
13791TIP3    H241317   2.885   3.287   3.570
13792TIP3   OH241318   5.482   7.309   1.905
13792TIP3    H141319   5.398   7.353   1.919
13792TIP3    H241320   5.463   7.216   1.919
13793TIP3   OH241321   3.974   3.842   1.056
13793TIP3    H141322   3.896   3.797   1.087
13793TIP3    H241323   3.960   3.934   1.079
13794TIP3   OH241324   3.905   3.915   4.823
13794TIP3    H141325   3.944   3.982   4.767
13794TIP3    H241326   3.812   3.914   4.799
13795TIP3   OH241327   6.006   1.557   6.011
13795TIP3    H141328   6.058   1.501   6.069
13795TIP3    H241329   6.018   1.645   6.045
13796TIP3   OH241330   4.218   2.407   1.414
13796TIP3    H141331   4.234   2.317   1.441
13796TIP3    H241332   4.199   2.454   1.495
13797TIP3   OH241333   1.972   2.081   1.856
13797TIP3    H141334   2.014   2.146   1.912
13797TIP3    H241335   2.045   2.032   1.818
13798TIP3   OH241336   2.221   2.955   1.781
13798TIP3    H141337   2.298   2.984   1.731
13798TIP3    H241338   2.225   3.008   1.861
13799TIP3   OH241339   4.140   4.670   1.372
13799TIP3    H141340   4.220   4.661   1.319
13799TIP3    H241341   4.171   4.670   1.462
13800TIP3   OH241342   7.916   6.675   6.166
13800TIP3    H141343   8.010   6.687   6.184
13800TIP3    H241344   7.913   6.629   6.082
13801TIP3   OH241345   6.249   4.110   5.368
13801TIP3    H141346   6.272   4.155   5.287
13801TIP3    H241347   6.253   4.178   5.435
13802TIP3   OH241348   7.995   6.985   4.876
13802TIP3    H141349   7.907   6.952   4.856
13802TIP3    H241350   8.051   6.908   4.871
13803TIP3   OH241351   2.447   0.429   5.599
13803TIP3    H141352   2.450   0.456   5.691
13803TIP3    H241353   2.510   0.486   5.555
13804TIP3   OH241354   2.780   1.035   3.026
13804TIP3    H141355   2.801   1.108   3.085
13804TIP3    H241356   2.831   0.962   3.059
13805TIP3   OH241357   4.457   1.391   3.357
13805TIP3    H141358   4.449   1.485   3.340
13805TIP3    H241359   4.527   1.362   3.298
13806TIP3   OH241360   7.088   6.662   5.889
13806TIP3    H141361   7.097   6.635   5.798
13806TIP3    H241362   7.157   6.727   5.902
13807TIP3   OH241363   1.874   3.464   2.865
13807TIP3    H141364   1.781   3.477   2.846
13807TIP3    H241365   1.905   3.550   2.894
13808TIP3   OH241366   7.218   5.591   6.015
13808TIP3    H141367   7.283   5.541   6.065
13808TIP3    H241368   7.137   5.581   6.064
13809TIP3   OH241369   7.570   6.689   0.234
13809TIP3    H141370   7.615   6.754   0.179
13809TIP3    H241371   7.589   6.716   0.324
13810TIP3   OH241372   4.929   2.379   0.791
13810TIP3    H141373   5.024   2.372   0.788
13810TIP3    H241374   4.902   2.316   0.858
13811TIP3   OH241375   2.241   4.866   4.613
13811TIP3    H141376   2.216   4.941   4.666
13811TIP3    H241377   2.195   4.879   4.530
13812TIP3   OH241378   3.315   4.097   6.380
13812TIP3    H141379   3.377   4.096   6.452
13812TIP3    H241380   3.286   4.006   6.372
13813TIP3   OH241381   3.559   0.579   2.507
13813TIP3    H141382   3.558   0.618   2.419
13813TIP3    H241383   3.651   0.585   2.535
13814TIP3   OH241384   6.612   5.911   6.081
13814TIP3    H141385   6.665   5.990   6.070
13814TIP3    H241386   6.582   5.891   5.993
13815TIP3   OH241387   2.288   5.599   1.716
13815TIP3    H141388   2.330   5.685   1.723
13815TIP3    H241389   2.256   5.581   1.804
13816TIP3   OH241390   5.434   5.622   2.496
13816TIP3    H141391   5.525   5.611   2.470
13816TIP3    H241392   5.424   5.717   2.509
13817TIP3   OH241393   8.227   4.321   3.148
13817TIP3    H141394   8.216   4.385   3.219
13817TIP3    H241395   8.276   4.368   3.081
13818TIP3   OH241396   5.452   4.184   3.513
13818TIP3    H141397   5.421   4.226   3.593
13818TIP3    H241398   5.454   4.254   3.448
13819TIP3   OH241399   7.140   7.437   4.738
13819TIP3    H141400   7.115   7.454   4.829
13819TIP3    H241401   7.071   7.381   4.704
13820TIP3   OH241402   4.038   0.281   5.914
13820TIP3    H141403   4.040   0.375   5.931
13820TIP3    H241404   4.114   0.247   5.960
13821TIP3   OH241405   4.232   1.064   2.386
13821TIP3    H141406   4.270   1.131   2.329
13821TIP3    H241407   4.301   0.998   2.394
13822TIP3   OH241408   8.252   0.710   1.706
13822TIP3    H141409   8.324   0.684   1.649
13822TIP3    H241410   8.288   0.781   1.759
13823TIP3   OH241411   0.285   2.217   4.549
13823TIP3    H141412   0.361   2.179   4.505
13823TIP3    H241413   0.217   2.219   4.482
13824TIP3   OH241414   1.451   0.966   5.401
13824TIP3    H141415   1.479   1.002   5.485
13824TIP3    H241416   1.464   0.872   5.410
13825TIP3   OH241417   8.187   5.249   4.123
13825TIP3    H141418   8.273   5.249   4.167
13825TIP3    H241419   8.203   5.292   4.039
13826TIP3   OH241420   2.751   2.774   5.524
13826TIP3    H141421   2.715   2.749   5.609
13826TIP3    H241422   2.699   2.726   5.460
13827TIP3   OH241423   7.690   6.366   4.963
13827TIP3    H141424   7.743   6.390   5.039
13827TIP3    H241425   7.637   6.292   4.994
13828TIP3   OH241426   0.206   7.582   0.075
13828TIP3    H141427   0.276   7.645   0.057
13828TIP3    H241428   0.244   7.497   0.052
13829TIP3   OH241429   4.407   7.248   5.111
13829TIP3    H141430   4.412   7.296   5.028
13829TIP3    H241431   4.496   7.249   5.145
13830TIP3   OH241432   6.742   6.136   4.528
13830TIP3    H141433   6.802   6.208   4.547
13830TIP3    H241434   6.719   6.101   4.614
13831TIP3   OH241435   7.032   5.268   5.517
13831TIP3    H141436   7.000   5.201   5.578
13831TIP3    H241437   6.954   5.292   5.466
13832TIP3   OH241438   5.713   6.470   1.981
13832TIP3    H141439   5.722   6.433   1.894
13832TIP3    H241440   5.803   6.481   2.012
13833TIP3   OH241441   7.116   6.618   5.620
13833TIP3    H141442   7.032   6.584   5.588
13833TIP3    H241443   7.144   6.681   5.554
13834TIP3   OH241444   7.632   7.304   0.766
13834TIP3    H141445   7.660   7.283   0.856
13834TIP3    H241446   7.537   7.305   0.770
13835TIP3   OH241447   2.103   3.540   0.132
13835TIP3    H141448   2.078   3.595   0.057
13835TIP3    H241449   2.037   3.471   0.134
13836TIP3   OH241450   1.932   2.639   6.698
13836TIP3    H141451   1.905   2.644   6.790
13836TIP3    H241452   1.982   2.557   6.693
13837TIP3   OH241453   2.617   6.630   4.791
13837TIP3    H141454   2.606   6.584   4.874
13837TIP3    H241455   2.701   6.675   4.799
13838TIP3   OH241456   1.388   4.236   6.692
13838TIP3    H141457   1.478   4.206   6.708
13838TIP3    H241458   1.362   4.191   6.611
13839TIP3   OH241459   1.106   2.777   4.172
13839TIP3    H141460   1.132   2.790   4.263
13839TIP3    H241461   1.036   2.841   4.159
13840TIP3   OH241462   2.887   0.198   3.360
13840TIP3    H141463   2.965   0.250   3.380
13840TIP3    H241464   2.905   0.160   3.273
13841TIP3   OH241465   2.910   0.168   4.768
13841TIP3    H141466   2.930   0.196   4.679
13841TIP3    H241467   2.832   0.112   4.759
13842TIP3   OH241468   1.393   6.017   1.614
13842TIP3    H141469   1.369   5.943   1.669
13842TIP3    H241470   1.333   6.087   1.641
13843TIP3   OH241471   0.590   6.430   0.682
13843TIP3    H141472   0.503   6.455   0.712
13843TIP3    H241473   0.574   6.366   0.613
13844TIP3   OH241474   1.568   7.340   4.429
13844TIP3    H141475   1.494   7.280   4.437
13844TIP3    H241476   1.626   7.316   4.501
13845TIP3   OH241477   2.112   3.739   4.535
13845TIP3    H141478   2.136   3.671   4.473
13845TIP3    H241479   2.140   3.706   4.620
13846TIP3   OH241480   1.215   2.870   5.739
13846TIP3    H141481   1.255   2.820   5.810
13846TIP3    H241482   1.122   2.845   5.742
13847TIP3   OH241483   3.926   6.678   0.743
13847TIP3    H141484   3.979   6.671   0.823
13847TIP3    H241485   3.964   6.753   0.697
13848TIP3   OH241486   4.096   1.208   1.245
13848TIP3    H141487   4.054   1.286   1.209
13848TIP3    H241488   4.123   1.234   1.333
13849TIP3   OH241489   6.569   2.311   5.074
13849TIP3    H141490   6.615   2.245   5.021
13849TIP3    H241491   6.481   2.314   5.036
13850TIP3   OH241492   3.953   5.507   5.141
13850TIP3    H141493   4.032   5.481   5.187
13850TIP3    H241494   3.971   5.486   5.049
13851TIP3   OH241495   4.898   7.158   1.543
13851TIP3    H141496   4.955   7.182   1.617
13851TIP3    H241497   4.933   7.075   1.511
13852TIP3   OH241498   6.127   7.092   3.062
13852TIP3    H141499   6.044   7.131   3.036
13852TIP3    H241500   6.170   7.069   2.980
13853TIP3   OH241501   4.736   7.235   5.728
13853TIP3    H141502   4.803   7.175   5.696
13853TIP3    H241503   4.760   7.253   5.818
13854TIP3   OH241504   4.986   0.565   6.145
13854TIP3    H141505   4.893   0.581   6.161
13854TIP3    H241506   5.001   0.600   6.057
13855TIP3   OH241507   7.372   7.262   4.751
13855TIP3    H141508   7.405   7.221   4.671
13855TIP3    H241509   7.296   7.312   4.722
13856TIP3   OH241510   6.828   2.662   5.078
13856TIP3    H141511   6.776   2.638   5.155
13856TIP3    H241512   6.818   2.588   5.018
13857TIP3   OH241513   4.101   4.816   3.781
13857TIP3    H141514   4.060   4.750   3.725
13857TIP3    H241515   4.094   4.897   3.731
13858TIP3   OH241516   0.407   7.810   4.410
13858TIP3    H141517   0.421   7.897   4.373
13858TIP3    H241518   0.329   7.777   4.364
13859TIP3   OH241519   8.212   7.524   0.155
13859TIP3    H141520   8.138   7.573   0.189
13859TIP3    H241521   8.288   7.576   0.178
13860TIP3   OH241522   7.256   6.397   0.580
13860TIP3    H141523   7.236   6.461   0.648
13860TIP3    H241524   7.315   6.444   0.520
13861TIP3   OH241525   2.724   2.437   2.904
13861TIP3    H141526   2.646   2.476   2.864
13861TIP3    H241527   2.795   2.497   2.882
13862TIP3   OH241528   6.653   4.444   0.351
13862TIP3    H141529   6.573   4.454   0.298
13862TIP3    H241530   6.625   4.392   0.426
13863TIP3   OH241531   3.292   6.895   5.521
13863TIP3    H141532   3.342   6.965   5.564
13863TIP3    H241533   3.330   6.886   5.434
13864TIP3   OH241534   5.572   2.965   0.546
13864TIP3    H141535   5.655   2.920   0.563
13864TIP3    H241536   5.532   2.975   0.632
13865TIP3   OH241537   5.938   0.371   5.518
13865TIP3    H141538   5.850   0.395   5.549
13865TIP3    H241539   5.929   0.365   5.423
13866TIP3   OH241540   2.035   6.053   6.598
13866TIP3    H141541   2.104   6.104   6.556
13866TIP3    H241542   2.030   5.972   6.546
13867TIP3   OH241543   3.331   1.974   0.563
13867TIP3    H141544   3.359   2.054   0.518
13867TIP3    H241545   3.367   1.983   0.651
13868TIP3   OH241546   1.649   7.642   2.923
13868TIP3    H141547   1.620   7.580   2.990
13868TIP3    H241548   1.570   7.693   2.902
13869TIP3   OH241549   6.047   1.562   6.338
13869TIP3    H141550   6.050   1.622   6.413
13869TIP3    H241551   6.083   1.613   6.266
13870TIP3   OH241552   6.533   7.085   1.363
13870TIP3    H141553   6.451   7.048   1.395
13870TIP3    H241554   6.563   7.143   1.432
13871TIP3   OH241555   5.077   7.651   4.406
13871TIP3    H141556   5.137   7.713   4.363
13871TIP3    H241557   4.994   7.661   4.359
13872TIP3   OH241558   0.128   7.476   6.447
13872TIP3    H141559   0.106   7.387   6.474
13872TIP3    H241560   0.056   7.502   6.389
13873TIP3   OH241561   5.139   5.781   1.478
13873TIP3    H141562   5.125   5.728   1.400
13873TIP3    H241563   5.208   5.842   1.455
13874TIP3   OH241564   1.361   6.215   5.680
13874TIP3    H141565   1.279   6.265   5.677
13874TIP3    H241566   1.334   6.124   5.662
13875TIP3   OH241567   7.900   2.307   2.655
13875TIP3    H141568   7.956   2.232   2.672
13875TIP3    H241569   7.881   2.302   2.561
13876TIP3   OH241570   0.423   2.553   3.275
13876TIP3    H141571   0.381   2.526   3.193
13876TIP3    H241572   0.394   2.488   3.339
13877TIP3   OH241573   5.776   0.868   0.336
13877TIP3    H141574   5.753   0.908   0.420
13877TIP3    H241575   5.786   0.775   0.355
13878TIP3   OH241576   0.484   0.779   5.345
13878TIP3    H141577   0.501   0.719   5.272
13878TIP3    H241578   0.406   0.828   5.319
13879TIP3   OH241579   4.630   0.735   5.280
13879TIP3    H141580   4.723   0.759   5.279
13879TIP3    H241581   4.605   0.732   5.188
13880TIP3   OH241582   2.846   1.498   5.682
13880TIP3    H141583   2.845   1.575   5.739
13880TIP3    H241584   2.931   1.503   5.638
13881TIP3   OH241585   4.579   1.020   4.239
13881TIP3    H141586   4.644   1.001   4.172
13881TIP3    H241587   4.515   1.078   4.197
13882TIP3   OH241588   7.861   4.312   5.158
13882TIP3    H141589   7.905   4.244   5.209
13882TIP3    H241590   7.770   4.307   5.185
13883TIP3   OH241591   5.114   4.604   5.720
13883TIP3    H141592   5.025   4.634   5.736
13883TIP3    H241593   5.154   4.673   5.668
13884TIP3   OH241594   8.161   1.993   2.812
13884TIP3    H141595   8.132   2.065   2.869
13884TIP3    H241596   8.244   1.965   2.851
13885TIP3   OH241597   2.066   6.816   1.488
13885TIP3    H141598   2.124   6.779   1.554
13885TIP3    H241599   2.119   6.883   1.444
13886TIP3   OH241600   3.068   0.207   6.548
13886TIP3    H141601   3.104   0.284   6.504
13886TIP3    H241602   3.042   0.148   6.477
13887TIP3   OH241603   4.324   4.495   5.434
13887TIP3    H141604   4.354   4.404   5.446
13887TIP3    H241605   4.281   4.495   5.349
13888TIP3   OH241606   3.108   4.535   3.633
13888TIP3    H141607   3.182   4.482   3.604
13888TIP3    H241608   3.127   4.555   3.725
13889TIP3   OH241609   6.309   6.080   0.606
13889TIP3    H141610   6.223   6.092   0.646
13889TIP3    H241611   6.332   5.989   0.626
13890TIP3   OH241612   1.857   4.206   2.491
13890TIP3    H141613   1.916   4.133   2.472
13890TIP3    H241614   1.806   4.216   2.410
13891TIP3   OH241615   2.604   2.232   6.416
13891TIP3    H141616   2.550   2.183   6.479
13891TIP3    H241617   2.657   2.165   6.373
13892TIP3   OH241618   4.860   7.268   2.993
13892TIP3    H141619   4.797   7.270   3.065
13892TIP3    H241620   4.945   7.256   3.036
13893TIP3   OH241621   3.183   6.956   3.863
13893TIP3    H141622   3.226   6.969   3.778
13893TIP3    H241623   3.159   7.045   3.892
13894TIP3   OH241624   4.511   0.941   3.899
13894TIP3    H141625   4.519   0.863   3.953
13894TIP3    H241626   4.581   0.934   3.835
13895TIP3   OH241627   1.751   5.646   0.626
13895TIP3    H141628   1.817   5.623   0.691
13895TIP3    H241629   1.726   5.736   0.648
13896TIP3   OH241630   7.124   0.440   6.580
13896TIP3    H141631   7.114   0.347   6.596
13896TIP3    H241632   7.171   0.446   6.497
13897TIP3   OH241633   7.409   5.787   5.057
13897TIP3    H141634   7.429   5.831   5.140
13897TIP3    H241635   7.485   5.805   5.001
13898TIP3   OH241636   7.532   3.320   2.265
13898TIP3    H141637   7.506   3.408   2.293
13898TIP3    H241638   7.530   3.268   2.345
13899TIP3   OH241639   0.792   6.798   2.545
13899TIP3    H141640   0.835   6.786   2.460
13899TIP3    H241641   0.791   6.892   2.558
13900TIP3   OH241642   6.481   2.787   2.127
13900TIP3    H141643   6.507   2.851   2.193
13900TIP3    H241644   6.433   2.837   2.062
13901TIP3   OH241645   7.342   6.112   2.694
13901TIP3    H141646   7.380   6.097   2.781
13901TIP3    H241647   7.291   6.193   2.704
13902TIP3   OH241648   3.725   4.054   3.363
13902TIP3    H141649   3.635   4.087   3.357
13902TIP3    H241650   3.729   3.985   3.297
13903TIP3   OH241651   1.664   5.661   3.298
13903TIP3    H141652   1.734   5.610   3.256
13903TIP3    H241653   1.672   5.748   3.260
13904TIP3   OH241654   4.433   1.491   6.686
13904TIP3    H141655   4.456   1.486   6.779
13904TIP3    H241656   4.377   1.415   6.671
13905TIP3   OH241657   2.815   7.172   3.140
13905TIP3    H141658   2.819   7.243   3.203
13905TIP3    H241659   2.893   7.184   3.085
13906TIP3   OH241660   6.772   0.650   1.827
13906TIP3    H141661   6.682   0.648   1.860
13906TIP3    H241662   6.780   0.571   1.774
13907TIP3   OH241663   5.035   2.426   1.168
13907TIP3    H141664   4.943   2.425   1.196
13907TIP3    H241665   5.038   2.364   1.095
13908TIP3   OH241666   0.334   0.584   2.467
13908TIP3    H141667   0.323   0.604   2.374
13908TIP3    H241668   0.310   0.664   2.512
13909TIP3   OH241669   7.929   2.809   3.664
13909TIP3    H141670   7.873   2.752   3.611
13909TIP3    H241671   8.002   2.753   3.690
13910TIP3   OH241672   3.680   1.009   5.583
13910TIP3    H141673   3.755   0.951   5.598
13910TIP3    H241674   3.615   0.982   5.648
13911TIP3   OH241675   6.551   2.177   5.364
13911TIP3    H141676   6.551   2.083   5.347
13911TIP3    H241677   6.558   2.217   5.277
13912TIP3   OH241678   0.700   4.015   0.417
13912TIP3    H141679   0.616   4.035   0.374
13912TIP3    H241680   0.689   3.927   0.451
13913TIP3   OH241681   1.858   0.605   0.581
13913TIP3    H141682   1.828   0.696   0.589
13913TIP3    H241683   1.778   0.555   0.563
13914TIP3   OH241684   4.284   2.279   5.221
13914TIP3    H141685   4.214   2.282   5.287
13914TIP3    H241686   4.282   2.188   5.189
13915TIP3   OH241687   4.476   3.980   6.473
13915TIP3    H141688   4.475   4.051   6.408
13915TIP3    H241689   4.524   4.017   6.547
13916TIP3   OH241690   3.778   7.009   4.866
13916TIP3    H141691   3.724   6.944   4.910
13916TIP3    H241692   3.858   6.962   4.842
13917TIP3   OH241693   5.311   3.219   5.435
13917TIP3    H141694   5.304   3.124   5.441
13917TIP3    H241695   5.306   3.249   5.526
13918TIP3   OH241696   8.012   2.720   5.211
13918TIP3    H141697   7.940   2.696   5.270
13918TIP3    H241698   8.014   2.650   5.146
13919TIP3   OH241699   3.264   3.923   2.110
13919TIP3    H141700   3.178   3.883   2.124
13919TIP3    H241701   3.251   4.016   2.132
13920TIP3   OH241702   7.310   4.498   2.929
13920TIP3    H141703   7.266   4.421   2.894
13920TIP3    H241704   7.246   4.538   2.987
13921TIP3   OH241705   7.458   6.068   4.364
13921TIP3    H141706   7.495   6.149   4.399
13921TIP3    H241707   7.462   6.080   4.269
13922TIP3   OH241708   4.395   5.283   2.932
13922TIP3    H141709   4.371   5.362   2.882
13922TIP3    H241710   4.489   5.293   2.948
13923TIP3   OH241711   4.734   0.588   4.108
13923TIP3    H141712   4.758   0.657   4.047
13923TIP3    H241713   4.801   0.521   4.097
13924TIP3   OH241714   5.017   6.758   0.765
13924TIP3    H141715   4.983   6.737   0.678
13924TIP3    H241716   4.948   6.727   0.825
13925TIP3   OH241717   5.094   6.771   1.941
13925TIP3    H141718   5.175   6.773   1.890
13925TIP3    H241719   5.029   6.732   1.883
13926TIP3   OH241720   1.559   3.832   4.057
13926TIP3    H141721   1.494   3.808   4.122
13926TIP3    H241722   1.609   3.903   4.099
13927TIP3   OH241723   4.506   6.461   2.082
13927TIP3    H141724   4.602   6.450   2.085
13927TIP3    H241725   4.474   6.376   2.053
13928TIP3   OH241726   5.707   4.770   3.390
13928TIP3    H141727   5.681   4.774   3.482
13928TIP3    H241728   5.762   4.692   3.384
13929TIP3   OH241729   1.352   7.175   4.444
13929TIP3    H141730   1.272   7.223   4.424
13929TIP3    H241731   1.363   7.114   4.371
13930TIP3   OH241732   7.478   4.868   5.744
13930TIP3    H141733   7.447   4.892   5.831
13930TIP3    H241734   7.462   4.946   5.690
13931TIP3   OH241735   2.357   6.665   4.054
13931TIP3    H141736   2.438   6.692   4.011
13931TIP3    H241737   2.323   6.745   4.093
13932TIP3   OH241738   2.462   2.958   4.948
13932TIP3    H141739   2.388   2.941   4.889
13932TIP3    H241740   2.459   2.886   5.011
13933TIP3   OH241741   7.984   4.233   0.099
13933TIP3    H141742   7.937   4.263   0.021
13933TIP3    H241743   7.962   4.298   0.166
13934TIP3   OH241744   0.163   2.265   5.651
13934TIP3    H141745   0.231   2.308   5.601
13934TIP3    H241746   0.175   2.297   5.741
13935TIP3   OH241747   5.444   5.576   3.114
13935TIP3    H141748   5.426   5.612   3.201
13935TIP3    H241749   5.506   5.505   3.131
13936TIP3   OH241750   0.034   0.674   0.883
13936TIP3    H141751   0.009   0.762   0.852
13936TIP3    H241752   0.129   0.674   0.883
13937TIP3   OH241753   2.937   1.607   2.446
13937TIP3    H141754   2.916   1.515   2.431
13937TIP3    H241755   2.998   1.606   2.521
13938TIP3   OH241756   4.779   2.301   3.913
13938TIP3    H141757   4.789   2.308   3.818
13938TIP3    H241758   4.731   2.380   3.938
13939TIP3   OH241759   3.731   3.465   4.781
13939TIP3    H141760   3.674   3.542   4.780
13939TIP3    H241761   3.697   3.411   4.852
13940TIP3   OH241762   1.776   6.989   0.382
13940TIP3    H141763   1.761   6.932   0.307
13940TIP3    H241764   1.844   7.049   0.354
13941TIP3   OH241765   6.835   5.265   1.859
13941TIP3    H141766   6.769   5.309   1.806
13941TIP3    H241767   6.803   5.273   1.949
13942TIP3   OH241768   3.496   5.579   1.172
13942TIP3    H141769   3.528   5.489   1.160
13942TIP3    H241770   3.550   5.631   1.112
13943TIP3   OH241771   5.020   4.374   0.674
13943TIP3    H141772   4.978   4.457   0.650
13943TIP3    H241773   5.106   4.377   0.631
13944TIP3   OH241774   6.507   7.727   5.121
13944TIP3    H141775   6.482   7.636   5.135
13944TIP3    H241776   6.428   7.777   5.143
13945TIP3   OH241777   2.914   2.601   6.649
13945TIP3    H141778   2.884   2.637   6.732
13945TIP3    H241779   2.912   2.506   6.661
13946TIP3   OH241780   7.569   7.298   1.821
13946TIP3    H141781   7.572   7.317   1.915
13946TIP3    H241782   7.533   7.210   1.815
13947TIP3   OH241783   3.749   7.114   0.729
13947TIP3    H141784   3.759   7.049   0.800
13947TIP3    H241785   3.828   7.168   0.736
13948TIP3   OH241786   4.966   6.021   5.845
13948TIP3    H141787   4.968   6.116   5.854
13948TIP3    H241788   4.873   5.999   5.849
13949TIP3   OH241789   7.833   1.075   2.179
13949TIP3    H141790   7.864   1.138   2.114
13949TIP3    H241791   7.818   0.994   2.130
13950TIP3   OH241792   4.518   3.456   4.598
13950TIP3    H141793   4.432   3.492   4.618
13950TIP3    H241794   4.559   3.522   4.541
13951TIP3   OH241795   0.428   2.717   3.695
13951TIP3    H141796   0.358   2.751   3.752
13951TIP3    H241797   0.382   2.669   3.627
13952TIP3   OH241798   1.504   6.191   4.607
13952TIP3    H141799   1.495   6.096   4.616
13952TIP3    H241800   1.598   6.206   4.598
13953TIP3   OH241801   3.992   0.327   1.665
13953TIP3    H141802   4.083   0.342   1.690
13953TIP3    H241803   3.996   0.255   1.602
13954TIP3   OH241804   4.341   1.008   3.307
13954TIP3    H141805   4.315   0.945   3.240
13954TIP3    H241806   4.343   1.092   3.262
13955TIP3   OH241807   3.488   1.363   3.827
13955TIP3    H141808   3.472   1.286   3.772
13955TIP3    H241809   3.440   1.434   3.784
13956TIP3   OH241810   5.634   4.883   2.815
13956TIP3    H141811   5.608   4.905   2.726
13956TIP3    H241812   5.600   4.955   2.868
13957TIP3   OH241813   1.899   2.877   0.520
13957TIP3    H141814   1.944   2.862   0.437
13957TIP3    H241815   1.969   2.889   0.584
13958TIP3   OH241816   6.570   3.826   3.805
13958TIP3    H141817   6.557   3.897   3.742
13958TIP3    H241818   6.639   3.858   3.864
13959TIP3   OH241819   3.341   0.807   2.460
13959TIP3    H141820   3.331   0.759   2.543
13959TIP3    H241821   3.254   0.844   2.444
13960TIP3   OH241822   6.969   4.939   3.248
13960TIP3    H141823   6.886   4.979   3.276
13960TIP3    H241824   7.028   5.013   3.236
13961TIP3   OH241825   0.413   4.434   4.918
13961TIP3    H141826   0.407   4.439   4.822
13961TIP3    H241827   0.322   4.432   4.948
13962TIP3   OH241828   2.670   2.096   0.633
13962TIP3    H141829   2.762   2.113   0.649
13962TIP3    H241830   2.636   2.178   0.597
13963TIP3   OH241831   3.790   0.062   0.130
13963TIP3    H141832   3.696   0.082   0.135
13963TIP3    H241833   3.821   0.074   0.220
13964TIP3   OH241834   3.018   7.546   5.069
13964TIP3    H141835   2.973   7.511   4.992
13964TIP3    H241836   3.031   7.639   5.049
13965TIP3   OH241837   2.416   4.603   5.159
13965TIP3    H141838   2.504   4.624   5.127
13965TIP3    H241839   2.412   4.644   5.246
13966TIP3   OH241840   0.634   5.038   1.970
13966TIP3    H141841   0.612   4.946   1.987
13966TIP3    H241842   0.635   5.045   1.874
13967TIP3   OH241843   5.637   4.032   0.236
13967TIP3    H141844   5.695   3.975   0.286
13967TIP3    H241845   5.695   4.078   0.175
13968TIP3   OH241846   4.220   1.459   0.860
13968TIP3    H141847   4.314   1.471   0.847
13968TIP3    H241848   4.205   1.479   0.952
13969TIP3   OH241849   4.715   3.705   0.926
13969TIP3    H141850   4.629   3.717   0.966
13969TIP3    H241851   4.754   3.792   0.927
13970TIP3   OH241852   8.054   3.182   4.977
13970TIP3    H141853   8.046   3.087   4.981
13970TIP3    H241854   8.087   3.207   5.064
13971TIP3   OH241855   5.695   4.210   0.977
13971TIP3    H141856   5.726   4.248   0.894
13971TIP3    H241857   5.737   4.263   1.044
13972TIP3   OH241858   5.773   6.900   0.332
13972TIP3    H141859   5.824   6.892   0.413
13972TIP3    H241860   5.746   6.992   0.330
13973TIP3   OH241861   5.373   0.283   4.878
13973TIP3    H141862   5.424   0.353   4.837
13973TIP3    H241863   5.422   0.261   4.957
13974TIP3   OH241864   0.132   3.593   5.601
13974TIP3    H141865   0.135   3.497   5.608
13974TIP3    H241866   0.160   3.611   5.512
13975TIP3   OH241867   6.252   5.603   3.271
13975TIP3    H141868   6.258   5.528   3.330
13975TIP3    H241869   6.264   5.679   3.328
13976TIP3   OH241870   6.262   6.535   6.102
13976TIP3    H141871   6.222   6.611   6.059
13976TIP3    H241872   6.194   6.503   6.161
13977TIP3   OH241873   3.972   5.979   3.280
13977TIP3    H141874   4.066   5.996   3.281
13977TIP3    H241875   3.962   5.898   3.230
13978TIP3   OH241876   3.521   0.511   1.924
13978TIP3    H141877   3.552   0.438   1.870
13978TIP3    H241878   3.554   0.491   2.011
13979TIP3   OH241879   3.795   5.743   5.532
13979TIP3    H141880   3.811   5.825   5.578
13979TIP3    H241881   3.837   5.676   5.586
13980TIP3   OH241882   7.106   3.164   5.241
13980TIP3    H141883   7.164   3.091   5.259
13980TIP3    H241884   7.095   3.208   5.325
13981TIP3   OH241885   4.276   1.646   2.135
13981TIP3    H141886   4.320   1.564   2.158
13981TIP3    H241887   4.273   1.644   2.039
13982TIP3   OH241888   0.067   0.613   5.347
13982TIP3    H141889   0.120   0.640   5.422
13982TIP3    H241890  -0.018   0.592   5.385
13983TIP3   OH241891   5.341   5.318   4.502
13983TIP3    H141892   5.288   5.332   4.580
13983TIP3    H241893   5.357   5.224   4.500
13984TIP3   OH241894   5.568   0.729   3.817
13984TIP3    H141895   5.626   0.803   3.801
13984TIP3    H241896   5.601   0.660   3.759
13985TIP3   OH241897   4.438   7.069   6.177
13985TIP3    H141898   4.382   7.146   6.185
13985TIP3    H241899   4.423   7.019   6.257
13986TIP3   OH241900   4.053   4.725   4.992
13986TIP3    H141901   4.120   4.667   4.956
13986TIP3    H241902   3.973   4.672   4.994
13987TIP3   OH241903   6.984   6.976   4.771
13987TIP3    H141904   6.915   6.984   4.706
13987TIP3    H241905   7.052   7.038   4.742
13988TIP3   OH241906   2.634   0.227   4.044
13988TIP3    H141907   2.685   0.189   4.115
13988TIP3    H241908   2.561   0.166   4.031
13989TIP3   OH241909   1.378   2.267   0.344
13989TIP3    H141910   1.364   2.273   0.249
13989TIP3    H241911   1.392   2.174   0.360
13990TIP3   OH241912   2.825   4.520   0.563
13990TIP3    H141913   2.917   4.521   0.590
13990TIP3    H241914   2.791   4.605   0.590
13991TIP3   OH241915   5.305   2.668   5.270
13991TIP3    H141916   5.260   2.632   5.347
13991TIP3    H241917   5.372   2.603   5.249
13992TIP3   OH241918   0.711   2.656   0.499
13992TIP3    H141919   0.670   2.714   0.434
13992TIP3    H241920   0.794   2.631   0.459
13993TIP3   OH241921   0.482   5.361   6.662
13993TIP3    H141922   0.529   5.360   6.579
13993TIP3    H241923   0.424   5.285   6.657
13994TIP3   OH241924   5.008   7.186   0.034
13994TIP3    H141925   5.092   7.215   0.069
13994TIP3    H241926   5.031   7.140  -0.047
13995TIP3   OH241927   1.001   6.653   4.464
13995TIP3    H141928   0.972   6.575   4.511
13995TIP3    H241929   0.936   6.720   4.488
13996TIP3   OH241930   2.181   3.662   0.507
13996TIP3    H141931   2.160   3.578   0.548
13996TIP3    H241932   2.096   3.702   0.490
13997TIP3   OH241933   1.389   0.887   5.821
13997TIP3    H141934   1.302   0.926   5.832
13997TIP3    H241935   1.423   0.927   5.741
13998TIP3   OH241936   0.412   1.747   4.817
13998TIP3    H141937   0.417   1.690   4.741
13998TIP3    H241938   0.407   1.687   4.892
13999TIP3   OH241939   7.394   1.667   5.532
13999TIP3    H141940   7.422   1.586   5.489
13999TIP3    H241941   7.359   1.721   5.462
14000TIP3   OH241942   5.400   6.920   3.652
14000TIP3    H141943   5.310   6.891   3.640
14000TIP3    H241944   5.449   6.839   3.664
14001TIP3   OH241945   7.257   3.361   3.370
14001TIP3    H141946   7.183   3.409   3.407
14001TIP3    H241947   7.240   3.359   3.275
14002TIP3   OH241948   8.058   5.972   3.963
14002TIP3    H141949   8.117   5.992   4.036
14002TIP3    H241950   7.972   6.001   3.993
14003TIP3   OH241951   5.995   3.239   3.699
14003TIP3    H141952   6.014   3.330   3.680
14003TIP3    H241953   5.916   3.242   3.754
14004TIP3   OH241954   3.396   0.526   3.943
14004TIP3    H141955   3.368   0.606   3.988
14004TIP3    H241956   3.427   0.469   4.014
14005TIP3   OH241957   5.181   5.982   2.326
14005TIP3    H141958   5.101   5.931   2.336
14005TIP3    H241959   5.221   5.949   2.246
14006TIP3   OH241960   4.238   1.058   1.740
14006TIP3    H141961   4.315   1.063   1.796
14006TIP3    H241962   4.213   0.966   1.741
14007TIP3   OH241963   0.640   7.531   0.511
14007TIP3    H141964   0.612   7.600   0.571
14007TIP3    H241965   0.736   7.537   0.510
14008TIP3   OH241966   0.721   6.545   5.679
14008TIP3    H141967   0.716   6.540   5.583
14008TIP3    H241968   0.811   6.521   5.699
14009TIP3   OH241969   4.014   3.043   5.893
14009TIP3    H141970   3.972   3.021   5.810
14009TIP3    H241971   4.027   2.960   5.937
14010TIP3   OH241972   2.318   5.743   4.728
14010TIP3    H141973   2.330   5.810   4.660
14010TIP3    H241974   2.407   5.714   4.748
14011TIP3   OH241975   1.266   0.046   5.132
14011TIP3    H141976   1.342   0.016   5.184
14011TIP3    H241977   1.204  -0.026   5.138
14012TIP3   OH241978   1.089   5.485   6.030
14012TIP3    H141979   1.181   5.486   6.058
14012TIP3    H241980   1.040   5.476   6.112
14013TIP3   OH241981   3.976   1.666   0.545
14013TIP3    H141982   4.029   1.743   0.564
14013TIP3    H241983   3.898   1.676   0.601
14014TIP3   OH241984   3.124   0.714   5.004
14014TIP3    H141985   3.116   0.679   5.092
14014TIP3    H241986   3.144   0.807   5.016
14015TIP3   OH241987   1.675   5.281   0.294
14015TIP3    H141988   1.585   5.277   0.327
14015TIP3    H241989   1.723   5.218   0.347
14016TIP3   OH241990   5.835   6.668   3.864
14016TIP3    H141991   5.849   6.726   3.789
14016TIP3    H241992   5.740   6.654   3.866
14017TIP3   OH241993   8.053   0.889   1.431
14017TIP3    H141994   8.036   0.836   1.353
14017TIP3    H241995   8.041   0.829   1.504
14018TIP3   OH241996   8.059   4.536   5.813
14018TIP3    H141997   8.062   4.602   5.883
14018TIP3    H241998   7.968   4.508   5.811
14019TIP3   OH241999   6.619   3.148   4.121
14019TIP3    H142000   6.658   3.080   4.066
14019TIP3    H242001   6.692   3.182   4.173
14020TIP3   OH242002   6.423   1.845   6.299
14020TIP3    H142003   6.375   1.832   6.381
14020TIP3    H242004   6.364   1.896   6.244
14021TIP3   OH242005   6.629   0.881   4.722
14021TIP3    H142006   6.691   0.939   4.767
14021TIP3    H242007   6.681   0.805   4.696
14022TIP3   OH242008   3.388   0.687   5.856
14022TIP3    H142009   3.305   0.702   5.902
14022TIP3    H242010   3.438   0.631   5.915
14023TIP3   OH242011   0.304   7.223   5.846
14023TIP3    H142012   0.323   7.316   5.836
14023TIP3    H242013   0.222   7.220   5.896
14024TIP3   OH242014   6.550   6.368   5.120
14024TIP3    H142015   6.571   6.401   5.033
14024TIP3    H242016   6.633   6.365   5.166
14025TIP3   OH242017   4.658   7.559   1.328
14025TIP3    H142018   4.725   7.491   1.318
14025TIP3    H242019   4.675   7.596   1.415
14026TIP3   OH242020   5.497   2.170   3.002
14026TIP3    H142021   5.509   2.077   2.984
14026TIP3    H242022   5.405   2.187   2.981
14027TIP3   OH242023   0.285   3.089   5.585
14027TIP3    H142024   0.211   3.149   5.576
14027TIP3    H242025   0.296   3.078   5.679
14028TIP3   OH242026   3.920   5.280   1.511
14028TIP3    H142027   4.015   5.284   1.520
14028TIP3    H242028   3.906   5.238   1.426
14029TIP3   OH242029   6.311   0.657   0.737
14029TIP3    H142030   6.329   0.566   0.711
14029TIP3    H242031   6.283   0.650   0.828
14030TIP3   OH242032   6.180   3.848   6.050
14030TIP3    H142033   6.236   3.790   6.102
14030TIP3    H242034   6.094   3.806   6.052
14031TIP3   OH242035   7.743   0.798   1.265
14031TIP3    H142036   7.773   0.888   1.273
14031TIP3    H242037   7.800   0.759   1.198
14032TIP3   OH242038   5.032   0.827   6.243
14032TIP3    H142039   5.082   0.818   6.324
14032TIP3    H242040   5.011   0.737   6.218
14033TIP3   OH242041   4.670   3.622   4.851
14033TIP3    H142042   4.655   3.612   4.756
14033TIP3    H242043   4.667   3.717   4.865
14034TIP3   OH242044   7.449   7.361   3.975
14034TIP3    H142045   7.488   7.321   4.053
14034TIP3    H242046   7.407   7.289   3.929
14035TIP3   OH242047   3.038   4.077   0.831
14035TIP3    H142048   2.978   4.123   0.890
14035TIP3    H242049   3.098   4.144   0.799
14036TIP3   OH242050   1.247   7.589   5.971
14036TIP3    H142051   1.275   7.633   5.890
14036TIP3    H242052   1.160   7.556   5.951
14037TIP3   OH242053   5.014   5.030   6.728
14037TIP3    H142054   4.933   5.015   6.776
14037TIP3    H242055   5.083   4.995   6.785
14038TIP3   OH242056   8.230   4.062   6.797
14038TIP3    H142057   8.233   4.076   6.703
14038TIP3    H242058   8.138   4.039   6.815
14039TIP3   OH242059   6.080   6.089   0.809
14039TIP3    H142060   6.047   6.177   0.826
14039TIP3    H242061   6.010   6.046   0.759
14040TIP3   OH242062   2.912   2.348   6.143
14040TIP3    H142063   2.904   2.258   6.111
14040TIP3    H242064   2.822   2.372   6.168
14041TIP3   OH242065   2.958   1.258   4.423
14041TIP3    H142066   3.049   1.271   4.452
14041TIP3    H242067   2.956   1.168   4.390
14042TIP3   OH242068   3.223   4.304   0.730
14042TIP3    H142069   3.251   4.305   0.822
14042TIP3    H242070   3.304   4.310   0.680
14043TIP3   OH242071   3.384   5.381   6.396
14043TIP3    H142072   3.304   5.333   6.377
14043TIP3    H242073   3.453   5.315   6.393
14044TIP3   OH242074   6.873   6.398   4.962
14044TIP3    H142075   6.954   6.446   4.942
14044TIP3    H242076   6.869   6.395   5.057
14045TIP3   OH242077   8.083   3.711   4.587
14045TIP3    H142078   8.150   3.661   4.539
14045TIP3    H242079   8.000   3.671   4.560
14046TIP3   OH242080   1.250   2.709   3.449
14046TIP3    H142081   1.197   2.719   3.370
14046TIP3    H242082   1.201   2.647   3.503
14047TIP3   OH242083   7.288   4.202   3.646
14047TIP3    H142084   7.341   4.124   3.659
14047TIP3    H242085   7.222   4.197   3.715
14048TIP3   OH242086   1.655   0.403   0.116
14048TIP3    H142087   1.720   0.423   0.048
14048TIP3    H242088   1.705   0.400   0.198
14049TIP3   OH242089   2.101   4.827   5.937
14049TIP3    H142090   2.021   4.829   5.989
14049TIP3    H242091   2.071   4.809   5.848
14050TIP3   OH242092   3.614   7.399   4.798
14050TIP3    H142093   3.617   7.414   4.892
14050TIP3    H242094   3.692   7.443   4.764
14051TIP3   OH242095   5.617   2.632   3.678
14051TIP3    H142096   5.619   2.721   3.714
14051TIP3    H242097   5.622   2.575   3.755
14052TIP3   OH242098   6.090   7.265   2.120
14052TIP3    H142099   6.102   7.283   2.027
14052TIP3    H242100   6.055   7.347   2.155
14053TIP3   OH242101   6.801   1.009   3.389
14053TIP3    H142102   6.885   1.005   3.343
14053TIP3    H242103   6.755   0.930   3.361
14054TIP3   OH242104   6.086   3.872   4.799
14054TIP3    H142105   6.017   3.821   4.840
14054TIP3    H242106   6.137   3.907   4.873
14055TIP3   OH242107   6.820   5.040   0.052
14055TIP3    H142108   6.726   5.031   0.066
14055TIP3    H242109   6.859   5.009   0.134
14056TIP3   OH242110   5.659   0.064   1.107
14056TIP3    H142111   5.660   0.112   1.190
14056TIP3    H242112   5.675  -0.027   1.131
14057TIP3   OH242113   5.813   3.462   6.632
14057TIP3    H142114   5.819   3.385   6.689
14057TIP3    H242115   5.804   3.426   6.544
14058TIP3   OH242116   4.047   3.787   0.780
14058TIP3    H142117   3.964   3.784   0.733
14058TIP3    H242118   4.022   3.807   0.870
14059TIP3   OH242119  -0.045   1.094   1.474
14059TIP3    H142120   0.014   1.036   1.426
14059TIP3    H242121  -0.123   1.041   1.491
14060TIP3   OH242122   5.161   0.019   4.192
14060TIP3    H142123   5.221   0.063   4.253
14060TIP3    H242124   5.076   0.059   4.210
14061TIP3   OH242125   5.876   5.366   3.117
14061TIP3    H142126   5.830   5.322   3.046
14061TIP3    H242127   5.916   5.443   3.077
14062TIP3   OH242128   1.454   7.707   1.438
14062TIP3    H142129   1.483   7.641   1.374
14062TIP3    H242130   1.512   7.692   1.513
14063TIP3   OH242131   0.156   0.728   2.947
14063TIP3    H142132   0.206   0.648   2.930
14063TIP3    H242133   0.209   0.777   3.010
14064TIP3   OH242134   0.606   0.233   3.571
14064TIP3    H142135   0.602   0.324   3.541
14064TIP3    H242136   0.700   0.218   3.586
14065TIP3   OH242137   2.741   3.219   4.410
14065TIP3    H142138   2.810   3.161   4.378
14065TIP3    H242139   2.765   3.235   4.502
14066TIP3   OH242140   6.543   7.245   0.492
14066TIP3    H142141   6.593   7.301   0.433
14066TIP3    H242142   6.555   7.157   0.457
14067TIP3   OH242143   3.088   0.602   2.764
14067TIP3    H142144   3.148   0.628   2.835
14067TIP3    H242145   3.074   0.509   2.777
14068TIP3   OH242146   3.475   7.034   2.146
14068TIP3    H142147   3.540   7.063   2.210
14068TIP3    H242148   3.398   7.012   2.198
14069TIP3   OH242149   0.417   0.172   6.223
14069TIP3    H142150   0.366   0.133   6.294
14069TIP3    H242151   0.388   0.264   6.221
14070TIP3   OH242152   4.765   0.713   6.243
14070TIP3    H142153   4.810   0.798   6.252
14070TIP3    H242154   4.698   0.729   6.176
14071TIP3   OH242155   2.959   3.054   3.464
14071TIP3    H142156   2.972   3.037   3.557
14071TIP3    H242157   3.033   3.012   3.421
14072TIP3   OH242158   3.018   4.707   1.117
14072TIP3    H142159   3.098   4.758   1.108
14072TIP3    H242160   3.023   4.670   1.206
14073TIP3   OH242161   2.737   6.101   1.992
14073TIP3    H142162   2.813   6.092   1.935
14073TIP3    H242163   2.751   6.037   2.062
14074TIP3   OH242164   3.177   0.456   5.374
14074TIP3    H142165   3.228   0.407   5.310
14074TIP3    H242166   3.204   0.422   5.459
14075TIP3   OH242167   2.917   5.366   3.536
14075TIP3    H142168   2.965   5.333   3.459
14075TIP3    H242169   2.970   5.339   3.611
14076TIP3   OH242170   4.990   0.282   2.562
14076TIP3    H142171   5.029   0.312   2.479
14076TIP3    H242172   4.898   0.304   2.555
14077TIP3   OH242173   5.754   0.458   1.754
14077TIP3    H142174   5.802   0.379   1.777
14077TIP3    H242175   5.792   0.526   1.809
14078TIP3   OH242176   1.988   6.792   3.107
14078TIP3    H142177   2.073   6.782   3.063
14078TIP3    H242178   1.973   6.707   3.148
14079TIP3   OH242179   0.883   7.071   3.033
14079TIP3    H142180   0.957   7.018   3.063
14079TIP3    H242181   0.873   7.048   2.941
14080TIP3   OH242182   5.197   1.322   3.007
14080TIP3    H142183   5.207   1.381   3.082
14080TIP3    H242184   5.282   1.324   2.963
14081TIP3   OH242185   4.947   6.430   2.712
14081TIP3    H142186   4.878   6.370   2.684
14081TIP3    H242187   4.921   6.515   2.677
14082TIP3   OH242188   3.820   5.379   4.154
14082TIP3    H142189   3.819   5.351   4.246
14082TIP3    H242190   3.764   5.457   4.152
14083TIP3   OH242191   7.469   5.370   5.214
14083TIP3    H142192   7.392   5.314   5.219
14083TIP3    H242193   7.467   5.421   5.295
14084TIP3   OH242194   0.254   6.453   6.392
14084TIP3    H142195   0.229   6.362   6.378
14084TIP3    H242196   0.349   6.454   6.378
14085TIP3   OH242197   7.459   4.487   6.674
14085TIP3    H142198   7.422   4.564   6.716
14085TIP3    H242199   7.430   4.492   6.583
14086TIP3   OH242200   6.683   6.008   2.657
14086TIP3    H142201   6.697   6.030   2.749
14086TIP3    H242202   6.616   6.070   2.628
14087TIP3   OH242203   1.943   4.231   5.879
14087TIP3    H142204   1.988   4.310   5.847
14087TIP3    H242205   1.883   4.207   5.809
14088TIP3   OH242206   4.400   2.035   3.731
14088TIP3    H142207   4.453   2.063   3.806
14088TIP3    H242208   4.381   2.116   3.684
14089TIP3   OH242209   7.985   6.125   4.656
14089TIP3    H142210   8.012   6.116   4.747
14089TIP3    H242211   8.004   6.040   4.616
14090TIP3   OH242212   7.253   4.555   2.647
14090TIP3    H142213   7.201   4.577   2.724
14090TIP3    H242214   7.338   4.528   2.682
14091TIP3   OH242215   1.956   6.128   3.426
14091TIP3    H142216   2.023   6.196   3.438
14091TIP3    H242217   1.898   6.163   3.359
14092TIP3   OH242218   6.821   6.948   0.943
14092TIP3    H142219   6.827   6.881   0.875
14092TIP3    H242220   6.777   7.022   0.901
14093TIP3   OH242221   7.436   3.550   0.388
14093TIP3    H142222   7.435   3.613   0.317
14093TIP3    H242223   7.524   3.557   0.425
14094TIP3   OH242224   2.202   1.512   6.027
14094TIP3    H142225   2.227   1.437   5.972
14094TIP3    H242226   2.153   1.569   5.968
14095TIP3   OH242227   6.299   6.630   4.315
14095TIP3    H142228   6.285   6.545   4.274
14095TIP3    H242229   6.216   6.676   4.305
14096TIP3   OH242230   5.987   0.507   2.093
14096TIP3    H142231   5.969   0.560   2.016
14096TIP3    H242232   5.947   0.555   2.166
14097TIP3   OH242233   2.194   2.578   2.555
14097TIP3    H142234   2.261   2.627   2.603
14097TIP3    H242235   2.140   2.539   2.624
14098TIP3   OH242236   6.327   2.061   3.694
14098TIP3    H142237   6.283   2.095   3.616
14098TIP3    H242238   6.420   2.063   3.672
14099TIP3   OH242239   0.989   2.738   1.124
14099TIP3    H142240   0.929   2.689   1.181
14099TIP3    H242241   1.071   2.742   1.172
14100TIP3   OH242242   2.871   1.104   5.954
14100TIP3    H142243   2.792   1.064   5.990
14100TIP3    H242244   2.940   1.083   6.017
14101TIP3   OH242245   4.649   5.856   0.624
14101TIP3    H142246   4.592   5.933   0.613
14101TIP3    H242247   4.595   5.782   0.594
14102TIP3   OH242248   6.779   7.382   2.632
14102TIP3    H142249   6.756   7.336   2.551
14102TIP3    H242250   6.851   7.440   2.606
14103TIP3   OH242251   4.145   2.335   0.150
14103TIP3    H142252   4.219   2.296   0.103
14103TIP3    H242253   4.077   2.345   0.083
14104TIP3   OH242254   0.395   2.952   4.042
14104TIP3    H142255   0.370   3.042   4.019
14104TIP3    H242256   0.345   2.897   3.983
14105TIP3   OH242257   3.914   7.492   2.734
14105TIP3    H142258   3.982   7.452   2.789
14105TIP3    H242259   3.943   7.475   2.645
14106TIP3   OH242260   7.123   5.718   3.581
14106TIP3    H142261   7.174   5.799   3.578
14106TIP3    H242262   7.179   5.655   3.625
14107TIP3   OH242263   5.673   3.975   5.969
14107TIP3    H142264   5.657   3.984   6.063
14107TIP3    H242265   5.768   3.964   5.962
14108TIP3   OH242266   6.891   5.911   5.569
14108TIP3    H142267   6.899   5.982   5.504
14108TIP3    H242268   6.839   5.949   5.639
14109TIP3   OH242269   1.286   7.206   0.892
14109TIP3    H142270   1.380   7.209   0.875
14109TIP3    H242271   1.277   7.147   0.967
14110TIP3   OH242272   4.531   3.596  -0.015
14110TIP3    H142273   4.600   3.661  -0.005
14110TIP3    H242274   4.450   3.646  -0.018
14111TIP3   OH242275   5.679   2.053   5.114
14111TIP3    H142276   5.633   2.079   5.193
14111TIP3    H242277   5.616   1.997   5.067
14112TIP3   OH242278   6.679   6.683   0.162
14112TIP3    H142279   6.698   6.613   0.100
14112TIP3    H242280   6.765   6.718   0.186
14113TIP3   OH242281   5.815   1.268   6.134
14113TIP3    H142282   5.812   1.185   6.086
14113TIP3    H242283   5.904   1.273   6.168
14114TIP3   OH242284   1.102   7.103   1.718
14114TIP3    H142285   1.101   7.188   1.673
14114TIP3    H242286   1.026   7.056   1.682
14115TIP3   OH242287   8.145   7.741   2.443
14115TIP3    H142288   8.213   7.718   2.507
14115TIP3    H242289   8.067   7.756   2.496
14116TIP3   OH242290   2.789   5.825   1.445
14116TIP3    H142291   2.827   5.742   1.417
14116TIP3    H242292   2.731   5.802   1.517
14117TIP3   OH242293   7.951   6.406   2.566
14117TIP3    H142294   7.993   6.431   2.484
14117TIP3    H242295   8.022   6.372   2.620
14118TIP3   OH242296   1.035   4.730   3.493
14118TIP3    H142297   1.111   4.673   3.506
14118TIP3    H242298   1.068   4.818   3.508
14119TIP3   OH242299   2.264   4.241   2.443
14119TIP3    H142300   2.270   4.336   2.458
14119TIP3    H242301   2.319   4.202   2.512
14120TIP3   OH242302   7.541   1.927   3.554
14120TIP3    H142303   7.562   1.953   3.465
14120TIP3    H242304   7.484   1.997   3.587
14121TIP3   OH242305   2.731   7.412   3.961
14121TIP3    H142306   2.765   7.397   4.049
14121TIP3    H242307   2.640   7.380   3.965
14122TIP3   OH242308   5.284   2.753   1.938
14122TIP3    H142309   5.270   2.827   1.997
14122TIP3    H242310   5.227   2.684   1.972
14123TIP3   OH242311   3.483   4.193   0.065
14123TIP3    H142312   3.500   4.128   0.133
14123TIP3    H242313   3.558   4.186   0.006
14124TIP3   OH242314   6.050   1.432   5.292
14124TIP3    H142315   6.057   1.510   5.237
14124TIP3    H242316   5.969   1.445   5.341
14125TIP3   OH242317   4.339   6.730   5.917
14125TIP3    H142318   4.353   6.636   5.906
14125TIP3    H242319   4.410   6.770   5.867
14126TIP3   OH242320   0.695   6.778   4.907
14126TIP3    H142321   0.656   6.756   4.991
14126TIP3    H242322   0.728   6.867   4.918
14127TIP3   OH242323   7.733   4.171   3.127
14127TIP3    H142324   7.764   4.231   3.194
14127TIP3    H242325   7.649   4.140   3.160
14128TIP3   OH242326   2.147   6.157   5.571
14128TIP3    H142327   2.130   6.228   5.510
14128TIP3    H242328   2.198   6.197   5.642
14129TIP3   OH242329   2.303   4.262   4.273
14129TIP3    H142330   2.258   4.332   4.320
14129TIP3    H242331   2.390   4.296   4.256
14130TIP3   OH242332   2.593   4.999   5.079
14130TIP3    H142333   2.569   5.022   5.169
14130TIP3    H242334   2.510   4.974   5.039
14131TIP3   OH242335   2.260   0.695   6.133
14131TIP3    H142336   2.234   0.621   6.078
14131TIP3    H242337   2.178   0.739   6.155
14132TIP3   OH242338   5.785   0.307   4.161
14132TIP3    H142339   5.762   0.246   4.091
14132TIP3    H242340   5.857   0.359   4.126
14133TIP3   OH242341   4.333   0.551   0.246
14133TIP3    H142342   4.252   0.591   0.277
14133TIP3    H242343   4.323   0.549   0.150
14134TIP3   OH242344   0.143   6.730   3.207
14134TIP3    H142345   0.141   6.668   3.280
14134TIP3    H242346   0.077   6.796   3.229
14135TIP3   OH242347   8.054   5.987   3.015
14135TIP3    H142348   8.082   5.963   3.104
14135TIP3    H242349   7.981   6.047   3.029
14136TIP3   OH242350   8.239   5.297   4.551
14136TIP3    H142351   8.333   5.289   4.568
14136TIP3    H242352   8.201   5.219   4.591
14137TIP3   OH242353   7.330   5.894   0.036
14137TIP3    H142354   7.271   5.860  -0.032
14137TIP3    H242355   7.281   5.883   0.118
14138TIP3   OH242356   2.719   7.610   1.076
14138TIP3    H142357   2.709   7.627   0.982
14138TIP3    H242358   2.643   7.652   1.116
14139TIP3   OH242359   0.886   3.953   6.375
14139TIP3    H142360   0.870   3.963   6.469
14139TIP3    H242361   0.866   4.039   6.338
14140TIP3   OH242362   7.613   2.171   6.387
14140TIP3    H142363   7.701   2.199   6.413
14140TIP3    H242364   7.556   2.207   6.455
14141TIP3   OH242365   3.946   2.855   6.203
14141TIP3    H142366   3.958   2.945   6.173
14141TIP3    H242367   4.032   2.814   6.192
14142TIP3   OH242368   3.271   0.044   2.963
14142TIP3    H142369   3.204  -0.024   2.967
14142TIP3    H242370   3.331   0.023   3.034
14143TIP3   OH242371   2.549   4.015   2.469
14143TIP3    H142372   2.543   4.040   2.377
14143TIP3    H242373   2.571   3.922   2.467
14144TIP3   OH242374   0.729   4.679   5.636
14144TIP3    H142375   0.768   4.621   5.702
14144TIP3    H242376   0.653   4.630   5.603
14145TIP3   OH242377   2.012   2.949   4.450
14145TIP3    H142378   2.028   2.908   4.365
14145TIP3    H242379   1.920   2.976   4.447
14146TIP3   OH242380   5.975   4.793   0.547
14146TIP3    H142381   5.926   4.826   0.472
14146TIP3    H242382   5.955   4.854   0.618
14147TIP3   OH242383   0.307   6.025   0.099
14147TIP3    H142384   0.307   5.944   0.150
14147TIP3    H242385   0.329   6.094   0.163
14148TIP3   OH242386   5.057   5.404   1.867
14148TIP3    H142387   5.150   5.396   1.843
14148TIP3    H242388   5.011   5.350   1.803
14149TIP3   OH242389   2.752   2.992   6.767
14149TIP3    H142390   2.838   2.963   6.796
14149TIP3    H242391   2.748   2.965   6.675
14150TIP3   OH242392   0.555   5.310   3.016
14150TIP3    H142393   0.609   5.266   2.950
14150TIP3    H242394   0.617   5.335   3.084
14151TIP3   OH242395   7.389   6.656   6.439
14151TIP3    H142396   7.478   6.626   6.422
14151TIP3    H242397   7.381   6.736   6.387
14152TIP3   OH242398   1.960   0.366   1.401
14152TIP3    H142399   1.931   0.312   1.328
14152TIP3    H242400   2.054   0.350   1.407
14153TIP3   OH242401   4.552   2.025   0.754
14153TIP3    H142402   4.497   2.075   0.815
14153TIP3    H242403   4.490   1.967   0.709
14154TIP3   OH242404   4.059   0.349   5.402
14154TIP3    H142405   4.084   0.262   5.369
14154TIP3    H242406   4.121   0.409   5.361
14155TIP3   OH242407   1.039   3.880   2.967
14155TIP3    H142408   1.078   3.965   2.988
14155TIP3    H242409   1.036   3.878   2.871
14156TIP3   OH242410   3.721   1.578   6.253
14156TIP3    H142411   3.643   1.559   6.305
14156TIP3    H242412   3.741   1.494   6.210
14157TIP3   OH242413   8.211   7.705   3.583
14157TIP3    H142414   8.295   7.684   3.542
14157TIP3    H242415   8.205   7.644   3.657
14158TIP3   OH242416   8.047   6.517   2.837
14158TIP3    H142417   7.966   6.549   2.797
14158TIP3    H242418   8.018   6.449   2.898
14159TIP3   OH242419   2.378   2.810   0.109
14159TIP3    H142420   2.306   2.873   0.100
14159TIP3    H242421   2.368   2.775   0.197
14160TIP3   OH242422   1.445   7.864   6.408
14160TIP3    H142423   1.406   7.782   6.437
14160TIP3    H242424   1.524   7.839   6.362
14161TIP3   OH242425   5.142   4.403   5.224
14161TIP3    H142426   5.148   4.364   5.137
14161TIP3    H242427   5.102   4.335   5.278
14162TIP3   OH242428   5.687   4.052   3.675
14162TIP3    H142429   5.678   3.964   3.638
14162TIP3    H242430   5.636   4.108   3.616
14163TIP3   OH242431   6.044   4.900   3.482
14163TIP3    H142432   6.062   4.836   3.413
14163TIP3    H242433   5.996   4.970   3.437
14164TIP3   OH242434   4.385   5.660   1.025
14164TIP3    H142435   4.405   5.731   0.963
14164TIP3    H242436   4.341   5.704   1.098
14165TIP3   OH242437   7.567   3.980   2.337
14165TIP3    H142438   7.515   4.050   2.298
14165TIP3    H242439   7.624   4.024   2.400
14166TIP3   OH242440   0.746   3.975   4.606
14166TIP3    H142441   0.677   3.957   4.542
14166TIP3    H242442   0.727   4.063   4.638
14167TIP3   OH242443   3.647   4.222   1.712
14167TIP3    H142444   3.694   4.178   1.783
14167TIP3    H242445   3.606   4.298   1.755
14168TIP3   OH242446   0.394   6.511   6.111
14168TIP3    H142447   0.375   6.424   6.148
14168TIP3    H242448   0.364   6.505   6.020
14169TIP3   OH242449   5.299   5.731   0.322
14169TIP3    H142450   5.232   5.797   0.338
14169TIP3    H242451   5.379   5.768   0.360
14170TIP3   OH242452   6.706   1.093   5.487
14170TIP3    H142453   6.774   1.151   5.520
14170TIP3    H242454   6.636   1.152   5.458
14171TIP3   OH242455   0.832   3.905   5.199
14171TIP3    H142456   0.776   3.886   5.124
14171TIP3    H242457   0.897   3.835   5.200
14172TIP3   OH242458   7.530   2.311   2.585
14172TIP3    H142459   7.465   2.376   2.611
14172TIP3    H242460   7.513   2.295   2.492
14173TIP3   OH242461   4.679   4.001   2.617
14173TIP3    H142462   4.716   3.919   2.583
14173TIP3    H242463   4.594   3.976   2.653
14174TIP3   OH242464   0.823   7.064   2.611
14174TIP3    H142465   0.907   7.075   2.567
14174TIP3    H242466   0.779   7.148   2.599
14175TIP3   OH242467   3.093   4.273   4.681
14175TIP3    H142468   3.028   4.343   4.689
14175TIP3    H242469   3.166   4.313   4.634
14176TIP3   OH242470   5.540   6.116   0.563
14176TIP3    H142471   5.460   6.166   0.578
14176TIP3    H242472   5.610   6.171   0.598
14177TIP3   OH242473   1.026   7.576   3.507
14177TIP3    H142474   1.048   7.487   3.535
14177TIP3    H242475   1.083   7.632   3.560
14178TIP3   OH242476   2.276   3.573   1.656
14178TIP3    H142477   2.363   3.596   1.624
14178TIP3    H242478   2.242   3.654   1.694
14179TIP3   OH242479   5.447   6.079   1.183
14179TIP3    H142480   5.439   6.021   1.108
14179TIP3    H242481   5.394   6.155   1.160
14180TIP3   OH242482   4.598   0.575   2.703
14180TIP3    H142483   4.683   0.613   2.724
14180TIP3    H242484   4.619   0.488   2.668
14181TIP3   OH242485   6.517   2.241   2.602
14181TIP3    H142486   6.482   2.164   2.558
14181TIP3    H242487   6.475   2.240   2.688
14182TIP3   OH242488   3.570   2.189   2.504
14182TIP3    H142489   3.497   2.157   2.557
14182TIP3    H242490   3.598   2.269   2.548
14183TIP3   OH242491   5.859   3.106   0.445
14183TIP3    H142492   5.797   3.118   0.517
14183TIP3    H242493   5.869   3.012   0.438
14184TIP3   OH242494   2.696   7.058   1.812
14184TIP3    H142495   2.774   7.114   1.807
14184TIP3    H242496   2.674   7.056   1.905
14185TIP3   OH242497   3.653   3.369   0.127
14185TIP3    H142498   3.651   3.348   0.033
14185TIP3    H242499   3.652   3.284   0.171
14186TIP3   OH242500   5.415   7.405   2.270
14186TIP3    H142501   5.452   7.471   2.212
14186TIP3    H242502   5.334   7.444   2.303
14187TIP3   OH242503   2.748   0.454   2.119
14187TIP3    H142504   2.665   0.463   2.165
14187TIP3    H242505   2.744   0.519   2.048
14188TIP3   OH242506   5.782   5.261   1.350
14188TIP3    H142507   5.699   5.307   1.355
14188TIP3    H242508   5.849   5.327   1.367
14189TIP3   OH242509   7.476   4.166   2.175
14189TIP3    H142510   7.555   4.220   2.182
14189TIP3    H242511   7.418   4.216   2.117
14190TIP3   OH242512   7.733   6.916   0.391
14190TIP3    H142513   7.643   6.903   0.419
14190TIP3    H242514   7.745   7.011   0.393
14191TIP3   OH242515   6.424   6.533   3.097
14191TIP3    H142516   6.499   6.473   3.104
14191TIP3    H242517   6.352   6.486   3.138
14192TIP3   OH242518   8.130   2.711   4.710
14192TIP3    H142519   8.147   2.782   4.648
14192TIP3    H242520   8.036   2.693   4.701
14193TIP3   OH242521   0.306   2.498   0.644
14193TIP3    H142522   0.280   2.584   0.677
14193TIP3    H242523   0.394   2.485   0.679
14194TIP3   OH242524   2.685   1.017   2.016
14194TIP3    H142525   2.641   0.991   1.935
14194TIP3    H242526   2.715   1.106   1.999
14195TIP3   OH242527   6.746   3.322   6.704
14195TIP3    H142528   6.746   3.231   6.733
14195TIP3    H242529   6.825   3.360   6.741
14196TIP3   OH242530   7.590   3.875   3.254
14196TIP3    H142531   7.574   3.783   3.274
14196TIP3    H242532   7.660   3.874   3.189
14197TIP3   OH242533   5.804   6.037   0.719
14197TIP3    H142534   5.821   6.129   0.698
14197TIP3    H242535   5.811   5.991   0.636
14198TIP3   OH242536   6.265   1.814   4.191
14198TIP3    H142537   6.176   1.843   4.213
14198TIP3    H242538   6.253   1.729   4.149
14199TIP3   OH242539   2.469   5.444   2.921
14199TIP3    H142540   2.452   5.369   2.978
14199TIP3    H242541   2.480   5.518   2.980
14200TIP3   OH242542   2.502   2.095   0.326
14200TIP3    H142543   2.453   2.061   0.402
14200TIP3    H242544   2.556   2.165   0.362
14201TIP3   OH242545   1.144   1.067   4.979
14201TIP3    H142546   1.079   1.055   4.910
14201TIP3    H242547   1.178   1.156   4.965
14202TIP3   OH242548   2.358   2.430   5.091
14202TIP3    H142549   2.306   2.375   5.149
14202TIP3    H242550   2.396   2.370   5.028
14203TIP3   OH242551   1.713   6.186   0.069
14203TIP3    H142552   1.680   6.237   0.143
14203TIP3    H242553   1.634   6.150   0.028
14204TIP3   OH242554   2.403   6.119   1.694
14204TIP3    H142555   2.446   6.102   1.778
14204TIP3    H242556   2.331   6.178   1.715
14205TIP3   OH242557   5.672   4.017   0.661
14205TIP3    H142558   5.734   3.987   0.727
14205TIP3    H242559   5.601   3.953   0.664
14206TIP3   OH242560   1.770   2.033   2.955
14206TIP3    H142561   1.751   1.949   2.915
14206TIP3    H242562   1.864   2.046   2.944
14207TIP3   OH242563   0.229   2.907   5.361
14207TIP3    H142564   0.167   2.952   5.303
14207TIP3    H242565   0.240   2.965   5.436
14208TIP3   OH242566   4.723   0.637   5.924
14208TIP3    H142567   4.709   0.732   5.929
14208TIP3    H242568   4.700   0.614   5.834
14209TIP3   OH242569   2.738   0.455   4.805
14209TIP3    H142570   2.753   0.503   4.887
14209TIP3    H242571   2.779   0.370   4.819
14210TIP3   OH242572   1.045   6.005   0.504
14210TIP3    H142573   0.964   5.975   0.545
14210TIP3    H242574   1.024   6.015   0.412
14211TIP3   OH242575   1.139   5.760   2.115
14211TIP3    H142576   1.140   5.678   2.066
14211TIP3    H242577   1.046   5.781   2.125
14212TIP3   OH242578   1.399   5.831   0.540
14212TIP3    H142579   1.492   5.853   0.528
14212TIP3    H242580   1.356   5.915   0.556
14213TIP3   OH242581   0.960   4.295   5.645
14213TIP3    H142582   0.914   4.311   5.562
14213TIP3    H242583   0.893   4.258   5.703
14214TIP3   OH242584   6.055   6.521   3.851
14214TIP3    H142585   6.121   6.590   3.849
14214TIP3    H242586   5.971   6.568   3.855
14215TIP3   OH242587   3.074   1.686   6.697
14215TIP3    H142588   3.008   1.696   6.628
14215TIP3    H242589   3.052   1.755   6.760
14216TIP3   OH242590   7.320   4.696   6.367
14216TIP3    H142591   7.408   4.702   6.329
14216TIP3    H242592   7.315   4.606   6.401
14217TIP3   OH242593   3.837   3.973   1.298
14217TIP3    H142594   3.825   4.039   1.367
14217TIP3    H242595   3.905   4.010   1.242
14218TIP3   OH242596   1.194   5.992   2.006
14218TIP3    H142597   1.181   5.903   2.040
14218TIP3    H242598   1.171   6.049   2.080
14219TIP3   OH242599   7.768   6.747   1.458
14219TIP3    H142600   7.695   6.697   1.422
14219TIP3    H242601   7.826   6.681   1.496
14220TIP3   OH242602   2.820   3.770   2.982
14220TIP3    H142603   2.753   3.818   2.932
14220TIP3    H242604   2.807   3.800   3.073
14221TIP3   OH242605   0.569   5.139   0.970
14221TIP3    H142606   0.507   5.069   0.950
14221TIP3    H242607   0.515   5.216   0.986
14222TIP3   OH242608   4.949   1.651   2.863
14222TIP3    H142609   4.871   1.597   2.852
14222TIP3    H242610   4.959   1.659   2.958
14223TIP3   OH242611   1.239   5.630   5.484
14223TIP3    H142612   1.329   5.597   5.488
14223TIP3    H242613   1.187   5.563   5.528
14224TIP3   OH242614   3.687   0.459   2.976
14224TIP3    H142615   3.671   0.365   2.966
14224TIP3    H242616   3.765   0.464   3.032
14225TIP3   OH242617   3.376   1.619   5.137
14225TIP3    H142618   3.396   1.580   5.222
14225TIP3    H242619   3.377   1.546   5.076
14226TIP3   OH242620   4.176   6.840   0.432
14226TIP3    H142621   4.148   6.835   0.341
14226TIP3    H242622   4.270   6.861   0.427
14227TIP3   OH242623   6.036   5.778   1.029
14227TIP3    H142624   5.987   5.762   0.948
14227TIP3    H242625   5.972   5.764   1.099
14228TIP3   OH242626   4.434   7.036   6.456
14228TIP3    H142627   4.432   6.944   6.481
14228TIP3    H242628   4.405   7.084   6.534
14229TIP3   OH242629   0.999   6.976   4.052
14229TIP3    H142630   0.922   6.919   4.046
14229TIP3    H242631   1.053   6.950   3.977
14230TIP3   OH242632   5.263   3.780   3.529
14230TIP3    H142633   5.203   3.822   3.467
14230TIP3    H242634   5.342   3.834   3.525
14231TIP3   OH242635   2.149   6.014   2.163
14231TIP3    H142636   2.098   5.933   2.170
14231TIP3    H242637   2.090   6.081   2.197
14232TIP3   OH242638   4.112   3.718   4.833
14232TIP3    H142639   4.133   3.713   4.926
14232TIP3    H242640   4.032   3.770   4.829
14233TIP3   OH242641   7.431   7.214   0.478
14233TIP3    H142642   7.418   7.150   0.548
14233TIP3    H242643   7.393   7.173   0.400
14234TIP3   OH242644   5.635   2.365   0.872
14234TIP3    H142645   5.546   2.396   0.889
14234TIP3    H242646   5.691   2.437   0.901
14235TIP3   OH242647   4.829   4.487   4.224
14235TIP3    H142648   4.818   4.516   4.315
14235TIP3    H242649   4.755   4.428   4.209
14236TIP3   OH242650   6.473   0.622   3.993
14236TIP3    H142651   6.435   0.692   4.046
14236TIP3    H242652   6.413   0.548   4.004
14237TIP3   OH242653   0.550   2.857   6.048
14237TIP3    H142654   0.478   2.908   6.084
14237TIP3    H242655   0.575   2.901   5.968
14238TIP3   OH242656   3.107   3.412   2.469
14238TIP3    H142657   3.198   3.415   2.442
14238TIP3    H242658   3.057   3.402   2.388
14239TIP3   OH242659   3.958   7.632   6.378
14239TIP3    H142660   3.941   7.538   6.367
14239TIP3    H242661   3.924   7.672   6.298
14240TIP3   OH242662   8.043   1.560   6.014
14240TIP3    H142663   7.989   1.569   6.093
14240TIP3    H242664   8.050   1.466   6.000
14241TIP3   OH242665   7.089   3.266   3.677
14241TIP3    H142666   7.000   3.254   3.644
14241TIP3    H242667   7.098   3.201   3.746
14242TIP3   OH242668   4.586   1.197   3.532
14242TIP3    H142669   4.664   1.233   3.490
14242TIP3    H242670   4.513   1.236   3.483
14243TIP3   OH242671   4.673   0.139   6.745
14243TIP3    H142672   4.725   0.134   6.825
14243TIP3    H242673   4.675   0.232   6.721
14244TIP3   OH242674   5.635   6.909   5.199
14244TIP3    H142675   5.713   6.877   5.245
14244TIP3    H242676   5.638   6.864   5.114
14245TIP3   OH242677   3.895   5.896   2.547
14245TIP3    H142678   3.895   5.954   2.471
14245TIP3    H242679   3.885   5.954   2.622
14246TIP3   OH242680   7.583   5.215   5.448
14246TIP3    H142681   7.571   5.246   5.358
14246TIP3    H242682   7.573   5.293   5.502
14247TIP3   OH242683   2.565   4.612   2.147
14247TIP3    H142684   2.515   4.694   2.150
14247TIP3    H242685   2.596   4.599   2.237
14248TIP3   OH242686   3.365   7.517   5.011
14248TIP3    H142687   3.357   7.612   5.024
14248TIP3    H242688   3.363   7.506   4.916
14249TIP3   OH242689   2.982   6.707   1.195
14249TIP3    H142690   3.006   6.663   1.113
14249TIP3    H242691   3.001   6.642   1.263
14250TIP3   OH242692   0.893   7.661   0.461
14250TIP3    H142693   0.926   7.751   0.468
14250TIP3    H242694   0.884   7.645   0.367
14251TIP3   OH242695   3.868   5.973   5.666
14251TIP3    H142696   3.808   6.002   5.734
14251TIP3    H242697   3.903   6.053   5.628
14252TIP3   OH242698   4.031   3.302   5.769
14252TIP3    H142699   3.989   3.238   5.713
14252TIP3    H242700   4.028   3.262   5.857
14253TIP3   OH242701   1.083   3.275   5.315
14253TIP3    H142702   1.119   3.364   5.325
14253TIP3    H242703   1.122   3.225   5.386
14254TIP3   OH242704   1.976   6.334   1.961
14254TIP3    H142705   1.931   6.280   2.025
14254TIP3    H242706   2.027   6.271   1.909
14255TIP3   OH242707   5.749   3.503   4.349
14255TIP3    H142708   5.670   3.551   4.325
14255TIP3    H242709   5.781   3.467   4.266
14256TIP3   OH242710   4.495   5.112   1.262
14256TIP3    H142711   4.507   5.031   1.312
14256TIP3    H242712   4.401   5.116   1.246
14257TIP3   OH242713   5.099   1.480   2.694
14257TIP3    H142714   5.160   1.464   2.766
14257TIP3    H242715   5.026   1.529   2.733
14258TIP3   OH242716   3.825   2.941   4.685
14258TIP3    H142717   3.866   3.027   4.679
14258TIP3    H242718   3.763   2.950   4.758
14259TIP3   OH242719   4.395   1.720   4.669
14259TIP3    H142720   4.399   1.815   4.675
14259TIP3    H242721   4.348   1.703   4.587
14260TIP3   OH242722   2.886   4.939   5.387
14260TIP3    H142723   2.874   5.023   5.344
14260TIP3    H242724   2.964   4.901   5.345
14261TIP3   OH242725   4.576   3.489   1.816
14261TIP3    H142726   4.538   3.468   1.730
14261TIP3    H242727   4.519   3.444   1.879
14262TIP3   OH242728   2.719   5.875   4.870
14262TIP3    H142729   2.753   5.819   4.940
14262TIP3    H242730   2.640   5.914   4.906
14263TIP3   OH242731   3.776   0.912   4.461
14263TIP3    H142732   3.804   0.904   4.552
14263TIP3    H242733   3.749   1.003   4.451
14264TIP3   OH242734   3.211   3.066   3.306
14264TIP3    H142735   3.302   3.096   3.313
14264TIP3    H242736   3.184   3.092   3.218
14265TIP3   OH242737   5.921   7.325   3.341
14265TIP3    H142738   6.008   7.321   3.301
14265TIP3    H242739   5.883   7.407   3.307
14266TIP3   OH242740   5.769   2.983   5.756
14266TIP3    H142741   5.785   3.028   5.672
14266TIP3    H242742   5.676   2.997   5.773
14267TIP3   OH242743   4.609   7.603   5.765
14267TIP3    H142744   4.700   7.621   5.789
14267TIP3    H242745   4.577   7.544   5.834
14268TIP3   OH242746   6.042   0.327   1.458
14268TIP3    H142747   6.090   0.286   1.530
14268TIP3    H242748   5.968   0.268   1.442
14269TIP3   OH242749   1.693   5.562   0.199
14269TIP3    H142750   1.691   5.471   0.230
14269TIP3    H242751   1.602   5.582   0.176
14270TIP3   OH242752   3.831   6.141   1.176
14270TIP3    H142753   3.835   6.175   1.086
14270TIP3    H242754   3.918   6.158   1.211
14271TIP3   OH242755   1.607   5.860   5.530
14271TIP3    H142756   1.679   5.920   5.511
14271TIP3    H242757   1.550   5.866   5.454
14272TIP3   OH242758   2.996   7.386   2.897
14272TIP3    H142759   2.931   7.428   2.841
14272TIP3    H242760   3.046   7.329   2.838
14273TIP3   OH242761   6.010   2.863   4.661
14273TIP3    H142762   6.092   2.820   4.689
14273TIP3    H242763   6.039   2.943   4.616
14274TIP3   OH242764   7.321   3.833   5.777
14274TIP3    H142765   7.405   3.862   5.813
14274TIP3    H242766   7.259   3.901   5.803
14275TIP3   OH242767   4.427   6.265   2.804
14275TIP3    H142768   4.343   6.303   2.829
14275TIP3    H242769   4.492   6.328   2.835
14276TIP3   OH242770   0.551   6.388   0.363
14276TIP3    H142771   0.606   6.316   0.391
14276TIP3    H242772   0.611   6.450   0.321
14277TIP3   OH242773   0.204   4.582   3.594
14277TIP3    H142774   0.253   4.578   3.676
14277TIP3    H242775   0.118   4.615   3.619
14278TIP3   OH242776   5.566   2.244   5.647
14278TIP3    H142777   5.495   2.307   5.661
14278TIP3    H242778   5.594   2.219   5.735
14279TIP3   OH242779   1.315   5.615   4.730
14279TIP3    H142780   1.324   5.671   4.653
14279TIP3    H242781   1.370   5.657   4.797
14280TIP3   OH242782   2.100   0.496   6.469
14280TIP3    H142783   2.154   0.436   6.418
14280TIP3    H242784   2.144   0.501   6.554
14281TIP3   OH242785   3.152   0.064   2.732
14281TIP3    H142786   3.189   0.092   2.816
14281TIP3    H242787   3.217   0.005   2.695
14282TIP3   OH242788   7.921   1.173   2.451
14282TIP3    H142789   7.902   1.121   2.373
14282TIP3    H242790   7.997   1.130   2.490
14283TIP3   OH242791   0.688   1.357   2.548
14283TIP3    H142792   0.632   1.334   2.622
14283TIP3    H242793   0.727   1.274   2.521
14284TIP3   OH242794   7.809   1.164   3.421
14284TIP3    H142795   7.715   1.147   3.413
14284TIP3    H242796   7.849   1.077   3.421
14285TIP3   OH242797   1.854   5.054   1.166
14285TIP3    H142798   1.796   4.998   1.115
14285TIP3    H242799   1.797   5.098   1.229
14286TIP3   OH242800   2.227   3.551   5.201
14286TIP3    H142801   2.133   3.569   5.206
14286TIP3    H242802   2.234   3.458   5.180
14287TIP3   OH242803   0.674   3.748   0.457
14287TIP3    H142804   0.687   3.737   0.363
14287TIP3    H242805   0.637   3.665   0.487
14288TIP3   OH242806   7.836   6.900   4.025
14288TIP3    H142807   7.902   6.900   4.094
14288TIP3    H242808   7.885   6.883   3.945
14289TIP3   OH242809   5.962   0.696   3.238
14289TIP3    H142810   6.046   0.715   3.195
14289TIP3    H242811   5.914   0.778   3.233
14290TIP3   OH242812   0.752   7.563   0.998
14290TIP3    H142813   0.807   7.632   1.035
14290TIP3    H242814   0.780   7.556   0.907
14291TIP3   OH242815   7.244   3.949   4.479
14291TIP3    H142816   7.211   3.912   4.561
14291TIP3    H242817   7.338   3.955   4.492
14292TIP3   OH242818   7.294   6.968   0.056
14292TIP3    H142819   7.210   7.006   0.033
14292TIP3    H242820   7.331   7.027   0.121
14293TIP3   OH242821   1.657   3.987   5.398
14293TIP3    H142822   1.725   3.920   5.392
14293TIP3    H242823   1.680   4.050   5.331
14294TIP3   OH242824   5.889   7.732   3.430
14294TIP3    H142825   5.872   7.684   3.349
14294TIP3    H242826   5.841   7.814   3.420
14295TIP3   OH242827   0.989   6.451   5.696
14295TIP3    H142828   0.995   6.358   5.676
14295TIP3    H242829   1.035   6.494   5.624
14296TIP3   OH242830   1.334   1.134   6.535
14296TIP3    H142831   1.351   1.072   6.464
14296TIP3    H242832   1.284   1.205   6.494
14297TIP3   OH242833   8.136   2.550   6.290
14297TIP3    H142834   8.082   2.555   6.368
14297TIP3    H242835   8.078   2.517   6.222
14298TIP3   OH242836   5.922   4.259   6.257
14298TIP3    H142837   5.894   4.340   6.300
14298TIP3    H242838   5.841   4.222   6.221
14299TIP3   OH242839   2.280   5.314   4.028
14299TIP3    H142840   2.273   5.404   3.996
14299TIP3    H242841   2.230   5.262   3.965
14300TIP3   OH242842   5.898   1.118   1.191
14300TIP3    H142843   5.886   1.075   1.106
14300TIP3    H242844   5.818   1.097   1.240
14301TIP3   OH242845   1.161   5.117   1.413
14301TIP3    H142846   1.084   5.147   1.462
14301TIP3    H242847   1.146   5.024   1.400
14302TIP3   OH242848   1.037   1.338   6.652
14302TIP3    H142849   1.039   1.250   6.689
14302TIP3    H242850   1.112   1.382   6.692
14303TIP3   OH242851   6.172   7.117   2.717
14303TIP3    H142852   6.143   7.027   2.699
14303TIP3    H242853   6.145   7.167   2.640
14304TIP3   OH242854   5.569   4.784   4.276
14304TIP3    H142855   5.502   4.815   4.337
14304TIP3    H242856   5.600   4.701   4.314
14305TIP3   OH242857   1.659   4.114   6.478
14305TIP3    H142858   1.687   4.198   6.442
14305TIP3    H242859   1.630   4.064   6.402
14306TIP3   OH242860   2.300   5.548   3.889
14306TIP3    H142861   2.217   5.596   3.893
14306TIP3    H242862   2.301   5.508   3.803
14307TIP3   OH242863   1.602   3.943   6.256
14307TIP3    H142864   1.631   3.857   6.285
14307TIP3    H242865   1.634   3.949   6.166
14308TIP3   OH242866   8.111   1.647   2.184
14308TIP3    H142867   8.153   1.563   2.204
14308TIP3    H242868   8.122   1.699   2.264
14309TIP3   OH242869   6.312   0.003   1.830
14309TIP3    H142870   6.395  -0.032   1.798
14309TIP3    H242871   6.336   0.079   1.883
14310TIP3   OH242872   4.529   3.343   3.084
14310TIP3    H142873   4.474   3.417   3.059
14310TIP3    H242874   4.606   3.383   3.124
14311TIP3   OH242875   6.005   5.088   1.311
14311TIP3    H142876   5.927   5.142   1.323
14311TIP3    H242877   6.037   5.073   1.400
14312TIP3   OH242878   1.421   0.804   2.062
14312TIP3    H142879   1.456   0.873   2.117
14312TIP3    H242880   1.358   0.758   2.117
14313TIP3   OH242881   1.871   4.945   1.821
14313TIP3    H142882   1.910   4.914   1.903
14313TIP3    H242883   1.890   5.039   1.820
14314TIP3   OH242884   7.734   1.248   2.665
14314TIP3    H142885   7.803   1.313   2.676
14314TIP3    H242886   7.743   1.219   2.574
14315TIP3   OH242887   7.921   5.288   2.219
14315TIP3    H142888   7.932   5.250   2.307
14315TIP3    H242889   7.982   5.362   2.217
14316TIP3   OH242890   8.171   2.395   2.088
14316TIP3    H142891   8.237   2.454   2.053
14316TIP3    H242892   8.110   2.452   2.136
14317TIP3   OH242893   2.077   6.606   1.877
14317TIP3    H142894   2.008   6.607   1.811
14317TIP3    H242895   2.141   6.671   1.847
14318TIP3   OH242896   3.547   6.141   6.231
14318TIP3    H142897   3.463   6.104   6.203
14318TIP3    H242898   3.570   6.202   6.160
14319TIP3   OH242899   6.425   6.726   5.914
14319TIP3    H142900   6.502   6.779   5.933
14319TIP3    H242901   6.366   6.786   5.866
14320TIP3   OH242902   0.660   5.616   2.823
14320TIP3    H142903   0.694   5.671   2.752
14320TIP3    H242904   0.678   5.666   2.903
14321TIP3   OH242905   1.628   0.696   6.626
14321TIP3    H142906   1.596   0.635   6.693
14321TIP3    H242907   1.699   0.744   6.669
14322TIP3   OH242908   5.465   2.089   2.707
14322TIP3    H142909   5.488   2.061   2.619
14322TIP3    H242910   5.500   2.178   2.714
14323TIP3   OH242911   0.219   5.830   4.995
14323TIP3    H142912   0.235   5.919   5.025
14323TIP3    H242913   0.125   5.816   5.011
14324TIP3   OH242914   2.143   3.256   2.217
14324TIP3    H142915   2.070   3.289   2.270
14324TIP3    H242916   2.200   3.212   2.279
14325TIP3   OH242917   3.050   7.063   5.183
14325TIP3    H142918   3.022   7.120   5.255
14325TIP3    H242919   3.138   7.094   5.161
14326TIP3   OH242920   7.209   4.339   4.111
14326TIP3    H142921   7.230   4.256   4.153
14326TIP3    H242922   7.288   4.392   4.121
14327TIP3   OH242923   2.642   3.300   1.769
14327TIP3    H142924   2.596   3.312   1.685
14327TIP3    H242925   2.593   3.230   1.813
14328TIP3   OH242926   7.127   7.428   3.771
14328TIP3    H142927   7.100   7.353   3.825
14328TIP3    H242928   7.071   7.424   3.694
14329TIP3   OH242929   0.083   2.022   2.997
14329TIP3    H142930   0.110   2.073   3.073
14329TIP3    H242931   0.149   2.042   2.930
14330TIP3   OH242932   6.966   3.510   3.784
14330TIP3    H142933   7.031   3.443   3.762
14330TIP3    H242934   6.909   3.514   3.707
14331TIP3   OH242935   5.860   5.757   1.857
14331TIP3    H142936   5.768   5.768   1.884
14331TIP3    H242937   5.907   5.824   1.906
14332TIP3   OH242938   3.032   4.063   5.510
14332TIP3    H142939   2.962   4.116   5.470
14332TIP3    H242940   3.071   4.121   5.576
14333TIP3   OH242941   6.672   2.224   0.078
14333TIP3    H142942   6.654   2.165   0.005
14333TIP3    H242943   6.761   2.203   0.104
14334TIP3   OH242944   5.623   4.714   3.650
14334TIP3    H142945   5.539   4.667   3.647
14334TIP3    H242946   5.680   4.659   3.704
14335TIP3   OH242947   2.418   0.320   1.965
14335TIP3    H142948   2.394   0.293   1.876
14335TIP3    H242949   2.352   0.279   2.021
14336TIP3   OH242950   7.062   6.555   6.391
14336TIP3    H142951   7.105   6.574   6.307
14336TIP3    H242952   7.044   6.641   6.428
14337TIP3   OH242953   5.693   3.199   0.001
14337TIP3    H142954   5.617   3.141   0.007
14337TIP3    H242955   5.763   3.153   0.046
14338TIP3   OH242956   6.682   1.914   4.096
14338TIP3    H142957   6.609   1.973   4.115
14338TIP3    H242958   6.641   1.831   4.073
14339TIP3   OH242959  -0.021   2.082   1.910
14339TIP3    H142960  -0.042   2.002   1.862
14339TIP3    H242961   0.019   2.139   1.844
14340TIP3   OH242962   1.587   7.506   2.493
14340TIP3    H142963   1.633   7.475   2.415
14340TIP3    H242964   1.569   7.599   2.475
14341TIP3   OH242965   4.069   1.299   3.374
14341TIP3    H142966   4.033   1.258   3.296
14341TIP3    H242967   4.047   1.392   3.364
14342TIP3   OH242968   4.894   5.436   4.334
14342TIP3    H142969   4.986   5.441   4.308
14342TIP3    H242970   4.846   5.480   4.264
14343TIP3   OH242971   5.507   3.859   4.459
14343TIP3    H142972   5.597   3.862   4.427
14343TIP3    H242973   5.457   3.910   4.396
14344TIP3   OH242974   0.471   3.503   3.108
14344TIP3    H142975   0.498   3.466   3.192
14344TIP3    H242976   0.448   3.427   3.055
14345TIP3   OH242977   0.881   0.226   2.676
14345TIP3    H142978   0.800   0.228   2.626
14345TIP3    H242979   0.853   0.212   2.767
14346TIP3   OH242980   4.578   4.677   2.228
14346TIP3    H142981   4.633   4.754   2.244
14346TIP3    H242982   4.528   4.699   2.150
14347TIP3   OH242983   1.337   1.644   1.848
14347TIP3    H142984   1.294   1.670   1.766
14347TIP3    H242985   1.267   1.648   1.913
14348TIP3   OH242986   0.989   3.572   5.770
14348TIP3    H142987   1.046   3.521   5.712
14348TIP3    H242988   0.932   3.621   5.711
14349TIP3   OH242989   2.959   1.631   0.779
14349TIP3    H142990   2.979   1.716   0.740
14349TIP3    H242991   2.877   1.604   0.738
14350TIP3   OH242992   1.674   1.805   1.055
14350TIP3    H142993   1.747   1.770   1.005
14350TIP3    H242994   1.615   1.840   0.988
14351TIP3   OH242995   6.313   4.529   5.168
14351TIP3    H142996   6.397   4.548   5.209
14351TIP3    H242997   6.335   4.509   5.077
14352TIP3   OH242998   3.723   0.732   0.771
14352TIP3    H142999   3.740   0.705   0.681
14352TIP3    H243000   3.738   0.827   0.771
14353TIP3   OH243001   4.814   0.855   2.508
14353TIP3    H143002   4.848   0.805   2.582
14353TIP3    H243003   4.752   0.917   2.546
14354TIP3   OH243004   0.865   2.905   1.727
14354TIP3    H143005   0.900   2.989   1.759
14354TIP3    H243006   0.776   2.902   1.760
14355TIP3   OH243007   3.352   2.804   5.256
14355TIP3    H143008   3.312   2.732   5.207
14355TIP3    H243009   3.395   2.761   5.330
14356TIP3   OH243010   7.885   1.639   2.490
14356TIP3    H143011   7.916   1.704   2.553
14356TIP3    H243012   7.941   1.563   2.504
14357TIP3   OH243013   3.433   5.269   3.330
14357TIP3    H143014   3.526   5.283   3.312
14357TIP3    H243015   3.431   5.205   3.400
14358TIP3   OH243016   0.787   3.425   6.411
14358TIP3    H143017   0.760   3.335   6.432
14358TIP3    H243018   0.878   3.430   6.440
14359TIP3   OH243019   5.446   1.552   0.826
14359TIP3    H143020   5.437   1.500   0.906
14359TIP3    H243021   5.502   1.626   0.852
14360TIP3   OH243022   0.440   4.457   5.219
14360TIP3    H143023   0.466   4.422   5.134
14360TIP3    H243024   0.405   4.544   5.199
14361TIP3   OH243025   7.097   5.196   3.277
14361TIP3    H143026   7.156   5.177   3.204
14361TIP3    H243027   7.140   5.266   3.326
14362TIP3   OH243028   4.437   2.257   6.296
14362TIP3    H143029   4.517   2.234   6.344
14362TIP3    H243030   4.428   2.352   6.309
14363TIP3   OH243031   7.356   2.557   3.345
14363TIP3    H143032   7.298   2.586   3.416
14363TIP3    H243033   7.298   2.508   3.286
14364TIP3   OH243034   4.292   3.328   3.944
14364TIP3    H143035   4.325   3.306   3.856
14364TIP3    H243036   4.308   3.249   3.995
14365TIP3   OH243037   3.415   3.918   5.677
14365TIP3    H143038   3.480   3.987   5.669
14365TIP3    H243039   3.337   3.961   5.712
14366TIP3   OH243040   1.625   4.331   5.904
14366TIP3    H143041   1.539   4.300   5.877
14366TIP3    H243042   1.629   4.311   5.998
14367TIP3   OH243043   7.443   0.710   2.736
14367TIP3    H143044   7.457   0.779   2.670
14367TIP3    H243045   7.515   0.649   2.722
14368TIP3   OH243046   7.532   5.052   0.262
14368TIP3    H143047   7.587   5.114   0.214
14368TIP3    H243048   7.476   5.013   0.194
14369TIP3   OH243049   3.537   6.928   3.402
14369TIP3    H143050   3.539   6.962   3.313
14369TIP3    H243051   3.620   6.880   3.411
14370TIP3   OH243052   8.070   3.305   2.682
14370TIP3    H143053   8.026   3.222   2.702
14370TIP3    H243054   8.151   3.302   2.733
14371TIP3   OH243055   1.645   6.279   2.657
14371TIP3    H143056   1.624   6.200   2.707
14371TIP3    H243057   1.574   6.340   2.677
14372TIP3   OH243058   6.739   4.761   1.567
14372TIP3    H143059   6.785   4.823   1.510
14372TIP3    H243060   6.785   4.678   1.554
14373TIP3   OH243061   1.165   1.967   3.261
14373TIP3    H143062   1.254   1.996   3.282
14373TIP3    H243063   1.109   2.033   3.302
14374TIP3   OH243064   3.744   3.126   5.393
14374TIP3    H143065   3.745   3.031   5.379
14374TIP3    H243066   3.685   3.160   5.326
14375TIP3   OH243067   4.158   0.317   1.956
14375TIP3    H143068   4.073   0.274   1.944
14375TIP3    H243069   4.137   0.409   1.970
14376TIP3   OH243070   7.445   2.790   4.433
14376TIP3    H143071   7.489   2.874   4.440
14376TIP3    H243072   7.444   2.769   4.340
14377TIP3   OH243073   8.003   5.090   0.918
14377TIP3    H143074   8.092   5.102   0.953
14377TIP3    H243075   8.016   5.057   0.829
14378TIP3   OH243076   5.932   7.174   5.621
14378TIP3    H143077   6.003   7.231   5.648
14378TIP3    H243078   5.975   7.096   5.586
14379TIP3   OH243079   6.697   2.541   2.079
14379TIP3    H143080   6.696   2.495   2.163
14379TIP3    H243081   6.607   2.569   2.066
14380TIP3   OH243082   7.767   4.084   1.131
14380TIP3    H143083   7.846   4.030   1.138
14380TIP3    H243084   7.761   4.106   1.038
14381TIP3   OH243085   0.384   5.721   1.432
14381TIP3    H143086   0.337   5.782   1.490
14381TIP3    H243087   0.467   5.765   1.414
14382TIP3   OH243088   8.033   1.237   0.273
14382TIP3    H143089   8.065   1.234   0.363
14382TIP3    H243090   7.967   1.306   0.273
14383TIP3   OH243091   2.719   2.790   4.512
14383TIP3    H143092   2.750   2.833   4.433
14383TIP3    H243093   2.762   2.705   4.512
14384TIP3   OH243094   0.080   4.250   0.194
14384TIP3    H143095  -0.006   4.210   0.209
14384TIP3    H243096   0.142   4.179   0.209
14385TIP3   OH243097   2.180   4.474   3.219
14385TIP3    H143098   2.193   4.503   3.309
14385TIP3    H243099   2.233   4.533   3.166
14386TIP3   OH243100   4.348   2.898   3.301
14386TIP3    H143101   4.419   2.934   3.247
14386TIP3    H243102   4.388   2.826   3.349
14387TIP3   OH243103   1.279   4.695   1.068
14387TIP3    H143104   1.341   4.767   1.076
14387TIP3    H243105   1.229   4.715   0.989
14388TIP3   OH243106   2.782   7.636   3.488
14388TIP3    H143107   2.691   7.652   3.463
14388TIP3    H243108   2.782   7.637   3.583
14389TIP3   OH243109   6.064   5.618   4.020
14389TIP3    H143110   6.157   5.633   4.001
14389TIP3    H243111   6.019   5.693   3.983
14390TIP3   OH243112   1.271   1.852   5.161
14390TIP3    H143113   1.365   1.834   5.166
14390TIP3    H243114   1.236   1.816   5.243
14391TIP3   OH243115   6.414   1.004   2.077
14391TIP3    H143116   6.469   0.969   2.147
14391TIP3    H243117   6.399   0.929   2.020
14392TIP3   OH243118   1.716   6.090   5.964
14392TIP3    H143119   1.778   6.105   6.036
14392TIP3    H243120   1.707   6.174   5.921
14393TIP3   OH243121   4.445   3.890   2.726
14393TIP3    H143122   4.452   3.805   2.683
14393TIP3    H243123   4.381   3.877   2.796
14394TIP3   OH243124   2.898   1.522   4.533
14394TIP3    H143125   2.974   1.576   4.554
14394TIP3    H243126   2.935   1.441   4.497
14395TIP3   OH243127   6.892   2.565   1.126
14395TIP3    H143128   6.908   2.473   1.148
14395TIP3    H243129   6.815   2.563   1.069
14396TIP3   OH243130   2.751   1.366   2.820
14396TIP3    H143131   2.710   1.352   2.905
14396TIP3    H243132   2.772   1.278   2.789
14397TIP3   OH243133   5.353   4.396   1.521
14397TIP3    H143134   5.344   4.387   1.426
14397TIP3    H243135   5.447   4.403   1.535
14398TIP3   OH243136   1.971   3.887   6.574
14398TIP3    H143137   2.063   3.914   6.572
14398TIP3    H243138   1.969   3.814   6.636
14399TIP3   OH243139   3.990   5.167   3.229
14399TIP3    H143140   4.039   5.123   3.159
14399TIP3    H243141   4.050   5.168   3.304
14400TIP3   OH243142   4.019   1.056   4.552
14400TIP3    H143143   4.011   1.150   4.571
14400TIP3    H243144   3.966   1.044   4.473
14401TIP3   OH243145   6.595   5.557   3.827
14401TIP3    H143146   6.539   5.553   3.750
14401TIP3    H243147   6.677   5.595   3.796
14402TIP3   OH243148   3.238   7.512   0.257
14402TIP3    H143149   3.190   7.592   0.278
14402TIP3    H243150   3.219   7.497   0.164
14403TIP3   OH243151   6.292   5.341   4.297
14403TIP3    H143152   6.273   5.252   4.268
14403TIP3    H243153   6.274   5.396   4.220
14404TIP3   OH243154   2.766   6.976   0.655
14404TIP3    H143155   2.789   7.060   0.614
14404TIP3    H243156   2.832   6.964   0.724
14405TIP3   OH243157   4.909   0.258   0.780
14405TIP3    H143158   4.936   0.349   0.793
14405TIP3    H243159   4.946   0.210   0.854
14406TIP3   OH243160   2.584   3.716   2.162
14406TIP3    H143161   2.522   3.726   2.234
14406TIP3    H243162   2.570   3.794   2.108
14407TIP3   OH243163   1.142   1.536   0.307
14407TIP3    H143164   1.150   1.548   0.401
14407TIP3    H243165   1.103   1.617   0.276
14408TIP3   OH243166   3.621   2.646   1.726
14408TIP3    H143167   3.651   2.606   1.807
14408TIP3    H243168   3.526   2.637   1.728
14409TIP3   OH243169   4.906   2.230   3.518
14409TIP3    H143170   4.857   2.169   3.574
14409TIP3    H243171   4.853   2.239   3.439
14410TIP3   OH243172   5.215   0.653   0.654
14410TIP3    H143173   5.154   0.602   0.600
14410TIP3    H243174   5.268   0.701   0.591
14411TIP3   OH243175   1.342   2.681   2.855
14411TIP3    H143176   1.297   2.748   2.906
14411TIP3    H243177   1.397   2.730   2.794
14412TIP3   OH243178   5.064   2.132   6.433
14412TIP3    H143179   5.016   2.203   6.391
14412TIP3    H243180   4.998   2.064   6.448
14413TIP3   OH243181   2.414   4.474   2.801
14413TIP3    H143182   2.450   4.558   2.771
14413TIP3    H243183   2.441   4.411   2.734
14414TIP3   OH243184   2.623   1.512   0.450
14414TIP3    H143185   2.692   1.573   0.476
14414TIP3    H243186   2.652   1.479   0.364
14415TIP3   OH243187   3.340   2.316   3.432
14415TIP3    H143188   3.416   2.353   3.386
14415TIP3    H243189   3.326   2.231   3.390
14416TIP3   OH243190   2.588   3.796   4.212
14416TIP3    H143191   2.673   3.840   4.205
14416TIP3    H243192   2.526   3.856   4.170
14417TIP3   OH243193   6.147   6.902   5.761
14417TIP3    H143194   6.052   6.889   5.763
14417TIP3    H243195   6.181   6.825   5.714
14418TIP3   OH243196   4.043   5.468   4.895
14418TIP3    H143197   3.999   5.407   4.836
14418TIP3    H243198   4.068   5.542   4.840
14419TIP3   OH243199   3.128   3.619   1.354
14419TIP3    H143200   3.036   3.592   1.354
14419TIP3    H243201   3.163   3.584   1.436
14420TIP3   OH243202   6.995   1.499   1.071
14420TIP3    H143203   7.040   1.548   1.140
14420TIP3    H243204   6.902   1.516   1.085
14421TIP3   OH243205   2.660   2.340   1.787
14421TIP3    H143206   2.585   2.282   1.799
14421TIP3    H243207   2.657   2.364   1.694
14422TIP3   OH243208   8.249   3.690   1.823
14422TIP3    H143209   8.281   3.661   1.738
14422TIP3    H243210   8.327   3.718   1.870
14423TIP3   OH243211   2.561   7.628   2.295
14423TIP3    H143212   2.487   7.688   2.283
14423TIP3    H243213   2.524   7.551   2.337
14424TIP3   OH243214   5.395   0.869   6.229
14424TIP3    H143215   5.477   0.895   6.271
14424TIP3    H243216   5.381   0.935   6.160
14425TIP3   OH243217   1.922   2.510   1.753
14425TIP3    H143218   1.898   2.518   1.845
14425TIP3    H243219   1.986   2.580   1.739
14426TIP3   OH243220   1.828   0.305   5.910
14426TIP3    H143221   1.859   0.243   5.845
14426TIP3    H243222   1.890   0.299   5.983
14427TIP3   OH243223   6.386   0.507   2.791
14427TIP3    H143224   6.446   0.436   2.813
14427TIP3    H243225   6.316   0.465   2.741
14428TIP3   OH243226   7.097   3.423   0.118
14428TIP3    H143227   7.049   3.505   0.120
14428TIP3    H243228   7.031   3.356   0.135
14429TIP3   OH243229   6.389   2.243   0.650
14429TIP3    H143230   6.343   2.324   0.670
14429TIP3    H243231   6.459   2.269   0.590
14430TIP3   OH243232   3.534   5.172   4.715
14430TIP3    H143233   3.523   5.118   4.793
14430TIP3    H243234   3.454   5.225   4.710
14431TIP3   OH243235   0.872   3.852   3.270
14431TIP3    H143236   0.867   3.858   3.175
14431TIP3    H243237   0.898   3.762   3.288
14432TIP3   OH243238   5.357   1.382   3.393
14432TIP3    H143239   5.429   1.443   3.374
14432TIP3    H243240   5.400   1.300   3.417
14433TIP3   OH243241   3.922   2.564   6.678
14433TIP3    H143242   3.898   2.593   6.590
14433TIP3    H243243   3.892   2.473   6.682
14434TIP3   OH243244   4.367   5.165   6.203
14434TIP3    H143245   4.400   5.204   6.284
14434TIP3    H243246   4.386   5.072   6.211
14435TIP3   OH243247   4.610   7.664   5.502
14435TIP3    H143248   4.677   7.604   5.470
14435TIP3    H243249   4.591   7.634   5.591
14436TIP3   OH243250   7.806   5.258   0.504
14436TIP3    H143251   7.889   5.255   0.553
14436TIP3    H243252   7.747   5.309   0.560
14437TIP3   OH243253   6.968   1.283   3.890
14437TIP3    H143254   6.939   1.363   3.934
14437TIP3    H243255   7.009   1.231   3.959
14438TIP3   OH243256   0.187   3.437   3.289
14438TIP3    H143257   0.240   3.359   3.271
14438TIP3    H243258   0.250   3.500   3.323
14439TIP3   OH243259   0.723   5.568   1.356
14439TIP3    H143260   0.714   5.659   1.383
14439TIP3    H243261   0.809   5.563   1.315
14440TIP3   OH243262   5.084   1.381   3.450
14440TIP3    H143263   5.095   1.332   3.532
14440TIP3    H243264   5.173   1.388   3.414
14441TIP3   OH243265   7.265   5.232   4.512
14441TIP3    H143266   7.328   5.295   4.549
14441TIP3    H243267   7.243   5.175   4.586
14442TIP3   OH243268   5.469   3.414   6.112
14442TIP3    H143269   5.526   3.468   6.167
14442TIP3    H243270   5.387   3.464   6.107
14443TIP3   OH243271   5.448   7.525   5.139
14443TIP3    H143272   5.464   7.504   5.047
14443TIP3    H243273   5.369   7.475   5.161
14444TIP3   OH243274   6.389   6.906   3.007
14444TIP3    H143275   6.460   6.849   2.978
14444TIP3    H243276   6.381   6.888   3.100
14445TIP3   OH243277   1.469   7.760   2.432
14445TIP3    H143278   1.440   7.769   2.342
14445TIP3    H243279   1.396   7.717   2.478
14446TIP3   OH243280   4.512   7.585   0.914
14446TIP3    H143281   4.551   7.514   0.966
14446TIP3    H243282   4.472   7.541   0.840
14447TIP3   OH243283   3.765   6.586   3.876
14447TIP3    H143284   3.758   6.657   3.812
14447TIP3    H243285   3.859   6.573   3.887
14448TIP3   OH243286   2.638   5.506   0.932
14448TIP3    H143287   2.708   5.442   0.946
14448TIP3    H243288   2.668   5.560   0.859
14449TIP3   OH243289   4.866   6.049   2.393
14449TIP3    H143290   4.901   6.126   2.438
14449TIP3    H243291   4.802   6.085   2.331
14450TIP3   OH243292  -0.040   0.808   4.156
14450TIP3    H143293  -0.104   0.745   4.188
14450TIP3    H243294  -0.001   0.766   4.079
14451TIP3   OH243295   2.176   6.237   4.028
14451TIP3    H143296   2.218   6.190   3.955
14451TIP3    H243297   2.149   6.321   3.990
14452TIP3   OH243298   7.618   2.195   2.821
14452TIP3    H143299   7.597   2.257   2.891
14452TIP3    H243300   7.579   2.233   2.742
14453TIP3   OH243301   8.311   7.133   4.093
14453TIP3    H143302   8.243   7.160   4.031
14453TIP3    H243303   8.393   7.146   4.046
14454TIP3   OH243304   0.266   5.686   5.441
14454TIP3    H143305   0.326   5.620   5.407
14454TIP3    H243306   0.180   5.662   5.404
14455TIP3   OH243307   1.938   2.598   1.115
14455TIP3    H143308   1.894   2.585   1.200
14455TIP3    H243309   1.871   2.640   1.060
14456TIP3   OH243310   4.698   6.147   3.527
14456TIP3    H143311   4.762   6.093   3.482
14456TIP3    H243312   4.745   6.184   3.601
14457TIP3   OH243313   0.824   3.153   6.483
14457TIP3    H143314   0.920   3.147   6.485
14457TIP3    H243315   0.798   3.148   6.575
14458TIP3   OH243316   7.732   4.436   0.335
14458TIP3    H143317   7.693   4.382   0.266
14458TIP3    H243318   7.783   4.375   0.388
14459TIP3   OH243319   8.224   4.887   5.888
14459TIP3    H143320   8.275   4.953   5.935
14459TIP3    H243321   8.169   4.938   5.828
14460TIP3   OH243322   5.284   1.133   5.512
14460TIP3    H143323   5.359   1.180   5.475
14460TIP3    H243324   5.287   1.047   5.469
14461TIP3   OH243325   5.290   5.335   1.736
14461TIP3    H143326   5.372   5.367   1.698
14461TIP3    H243327   5.287   5.242   1.712
14462TIP3   OH243328   3.344   5.046   5.193
14462TIP3    H143329   3.421   4.996   5.219
14462TIP3    H243330   3.344   5.122   5.251
14463TIP3   OH243331   6.265   6.508   0.062
14463TIP3    H143332   6.201   6.441   0.088
14463TIP3    H243333   6.226   6.550  -0.015
14464TIP3   OH243334   5.167   5.901   2.852
14464TIP3    H143335   5.185   5.811   2.879
14464TIP3    H243336   5.087   5.895   2.800
14465TIP3   OH243337   2.009   0.146   3.386
14465TIP3    H143338   1.985   0.085   3.455
14465TIP3    H243339   2.105   0.148   3.388
14466TIP3   OH243340   3.259   0.378   1.886
14466TIP3    H143341   3.238   0.408   1.974
14466TIP3    H243342   3.354   0.368   1.886
14467TIP3   OH243343   0.617   4.462   1.625
14467TIP3    H143344   0.604   4.546   1.669
14467TIP3    H243345   0.529   4.429   1.610
14468TIP3   OH243346   7.089   0.632   0.154
14468TIP3    H143347   6.997   0.660   0.158
14468TIP3    H243348   7.093   0.556   0.213
14469TIP3   OH243349   7.036   4.327   0.272
14469TIP3    H143350   7.052   4.409   0.319
14469TIP3    H243351   6.968   4.348   0.208
14470TIP3   OH243352   5.361   0.106   3.688
14470TIP3    H143353   5.378   0.028   3.740
14470TIP3    H243354   5.290   0.151   3.734
14471TIP3   OH243355   1.223   1.239   2.750
14471TIP3    H143356   1.150   1.178   2.761
14471TIP3    H243357   1.197   1.316   2.801
14472TIP3   OH243358   5.351   3.020   2.517
14472TIP3    H143359   5.325   3.022   2.609
14472TIP3    H243360   5.285   2.965   2.475
14473TIP3   OH243361   7.557   5.670   2.597
14473TIP3    H143362   7.556   5.645   2.504
14473TIP3    H243363   7.614   5.605   2.638
14474TIP3   OH243364   6.823   6.349   2.096
14474TIP3    H143365   6.873   6.280   2.140
14474TIP3    H243366   6.890   6.409   2.063
14475TIP3   OH243367   2.486   4.300   0.218
14475TIP3    H143368   2.510   4.251   0.297
14475TIP3    H243369   2.568   4.342   0.191
14476TIP3   OH243370   4.605   3.971   0.222
14476TIP3    H143371   4.657   3.908   0.171
14476TIP3    H243372   4.664   4.046   0.232
14477TIP3   OH243373   1.301   4.820   5.118
14477TIP3    H143374   1.258   4.736   5.106
14477TIP3    H243375   1.336   4.842   5.031
14478TIP3   OH243376   6.796   4.926   3.632
14478TIP3    H143377   6.783   4.916   3.726
14478TIP3    H243378   6.712   4.958   3.599
14479TIP3   OH243379   7.105   0.163   6.673
14479TIP3    H143380   7.016   0.135   6.694
14479TIP3    H243381   7.133   0.103   6.604
14480TIP3   OH243382   8.200   6.479   1.734
14480TIP3    H143383   8.226   6.388   1.717
14480TIP3    H243384   8.154   6.476   1.819
14481TIP3   OH243385   6.949   3.624   6.522
14481TIP3    H143386   7.036   3.618   6.482
14481TIP3    H243387   6.958   3.579   6.606
14482TIP3   OH243388   3.215   6.368   6.623
14482TIP3    H143389   3.216   6.421   6.543
14482TIP3    H243390   3.234   6.279   6.593
14483TIP3   OH243391   1.032   6.362   0.827
14483TIP3    H143392   1.029   6.402   0.740
14483TIP3    H243393   0.940   6.350   0.852
14484TIP3   OH243394   1.977   4.332   1.580
14484TIP3    H143395   2.010   4.259   1.527
14484TIP3    H243396   1.944   4.395   1.516
14485TIP3   OH243397   5.963   0.534   6.019
14485TIP3    H143398   6.000   0.621   6.003
14485TIP3    H243399   6.039   0.480   6.041
14486TIP3   OH243400   0.911   2.913   0.498
14486TIP3    H143401   0.842   2.962   0.453
14486TIP3    H243402   0.943   2.973   0.564
14487TIP3   OH243403   5.730   1.126   6.535
14487TIP3    H143404   5.763   1.062   6.598
14487TIP3    H243405   5.795   1.196   6.536
14488TIP3   OH243406   3.013   7.699   4.266
14488TIP3    H143407   2.968   7.782   4.278
14488TIP3    H243408   3.010   7.684   4.171
14489TIP3   OH243409   7.965   0.208   3.880
14489TIP3    H143410   7.946   0.273   3.813
14489TIP3    H243411   7.889   0.210   3.938
14490TIP3   OH243412   0.295   5.836   4.711
14490TIP3    H143413   0.320   5.790   4.792
14490TIP3    H243414   0.280   5.766   4.648
14491TIP3   OH243415   0.740   0.424   4.844
14491TIP3    H143416   0.725   0.333   4.816
14491TIP3    H243417   0.708   0.477   4.772
14492TIP3   OH243418   0.293   0.419   4.130
14492TIP3    H143419   0.236   0.436   4.055
14492TIP3    H243420   0.305   0.505   4.171
14493TIP3   OH243421   7.274   5.861   5.885
14493TIP3    H143422   7.324   5.888   5.962
14493TIP3    H243423   7.246   5.772   5.905
14494TIP3   OH243424   5.270   3.547   6.629
14494TIP3    H143425   5.282   3.470   6.574
14494TIP3    H243426   5.183   3.579   6.607
14495TIP3   OH243427   6.120   0.898   2.050
14495TIP3    H143428   6.029   0.878   2.074
14495TIP3    H243429   6.172   0.841   2.106
14496TIP3   OH243430   5.647   6.676   1.238
14496TIP3    H143431   5.702   6.598   1.250
14496TIP3    H243432   5.669   6.708   1.150
14497TIP3   OH243433   0.517   6.887   0.745
14497TIP3    H143434   0.477   6.967   0.710
14497TIP3    H243435   0.595   6.874   0.692
14498TIP3   OH243436   1.070   7.683   3.262
14498TIP3    H143437   1.132   7.755   3.277
14498TIP3    H243438   1.035   7.664   3.349
14499TIP3   OH243439   4.664   0.402   6.688
14499TIP3    H143440   4.674   0.485   6.641
14499TIP3    H243441   4.594   0.418   6.751
14500TIP3   OH243442   5.708   6.703   6.562
14500TIP3    H143443   5.674   6.660   6.641
14500TIP3    H243444   5.646   6.678   6.493
14501TIP3   OH243445   2.831   7.693   1.554
14501TIP3    H143446   2.859   7.683   1.463
14501TIP3    H243447   2.748   7.646   1.559
14502TIP3   OH243448   1.414   2.709   6.206
14502TIP3    H143449   1.474   2.634   6.210
14502TIP3    H243450   1.466   2.783   6.237
14503TIP3   OH243451   7.888   4.313   3.880
14503TIP3    H143452   7.876   4.406   3.899
14503TIP3    H243453   7.964   4.288   3.932
14504TIP3   OH243454   0.673   3.173   2.425
14504TIP3    H143455   0.656   3.182   2.331
14504TIP3    H243456   0.700   3.082   2.435
14505TIP3   OH243457   4.341   7.511   5.512
14505TIP3    H143458   4.432   7.539   5.508
14505TIP3    H243459   4.342   7.430   5.562
14506TIP3   OH243460   0.204   5.218   2.665
14506TIP3    H143461   0.122   5.183   2.700
14506TIP3    H243462   0.255   5.242   2.743
14507TIP3   OH243463   4.257   0.831   5.566
14507TIP3    H143464   4.203   0.908   5.548
14507TIP3    H243465   4.347   0.861   5.550
14508TIP3   OH243466   5.065   6.611   1.577
14508TIP3    H143467   5.135   6.546   1.592
14508TIP3    H243468   5.032   6.590   1.490
14509TIP3   OH243469   1.408   5.475   2.874
14509TIP3    H143470   1.477   5.430   2.923
14509TIP3    H243471   1.401   5.561   2.915
14510TIP3   OH243472   1.144   2.443   3.862
14510TIP3    H143473   1.093   2.510   3.908
14510TIP3    H243474   1.106   2.360   3.890
14511TIP3   OH243475   2.429   4.083   3.367
14511TIP3    H143476   2.496   4.062   3.431
14511TIP3    H243477   2.348   4.047   3.404
14512TIP3   OH243478   3.668   3.509   3.512
14512TIP3    H143479   3.639   3.600   3.524
14512TIP3    H243480   3.742   3.500   3.572
14513TIP3   OH243481   5.326   3.600   4.999
14513TIP3    H143482   5.272   3.630   5.072
14513TIP3    H243483   5.411   3.642   5.013
14514TIP3   OH243484   1.552   6.333   6.461
14514TIP3    H143485   1.541   6.305   6.370
14514TIP3    H243486   1.608   6.266   6.500
14515TIP3   OH243487   6.387   0.616   2.453
14515TIP3    H143488   6.482   0.622   2.456
14515TIP3    H243489   6.370   0.528   2.420
14516TIP3   OH243490   6.402   1.703   4.411
14516TIP3    H143491   6.352   1.756   4.349
14516TIP3    H243492   6.338   1.676   4.477
14517TIP3   OH243493   6.025   0.981   3.853
14517TIP3    H143494   6.095   0.917   3.848
14517TIP3    H243495   6.016   0.999   3.947
14518TIP3   OH243496   6.938   6.626   1.934
14518TIP3    H143497   6.980   6.699   1.887
14518TIP3    H243498   7.007   6.561   1.943
14519TIP3   OH243499   2.731   0.073   5.089
14519TIP3    H143500   2.749   0.167   5.083
14519TIP3    H243501   2.808   0.036   5.130
14520TIP3   OH243502   0.309   5.484   1.534
14520TIP3    H143503   0.328   5.571   1.499
14520TIP3    H243504   0.392   5.453   1.570
14521TIP3   OH243505   3.452   7.770   1.498
14521TIP3    H143506   3.414   7.686   1.470
14521TIP3    H243507   3.544   7.765   1.473
14522TIP3   OH243508   6.546   5.689   3.193
14522TIP3    H143509   6.623   5.658   3.240
14522TIP3    H243510   6.492   5.731   3.260
14523TIP3   OH243511   6.845   1.067   5.256
14523TIP3    H143512   6.776   1.008   5.226
14523TIP3    H243513   6.833   1.072   5.351
14524TIP3   OH243514   2.402   6.516   4.267
14524TIP3    H143515   2.417   6.590   4.325
14524TIP3    H243516   2.377   6.556   4.183
14525TIP3   OH243517   1.586   4.941   3.141
14525TIP3    H143518   1.558   5.007   3.205
14525TIP3    H243519   1.656   4.893   3.186
14526TIP3   OH243520   3.216   2.704   5.598
14526TIP3    H143521   3.195   2.788   5.556
14526TIP3    H243522   3.136   2.680   5.644
14527TIP3   OH243523   4.492   6.121   3.096
14527TIP3    H143524   4.460   6.182   3.030
14527TIP3    H243525   4.533   6.050   3.046
14528TIP3   OH243526   0.662   4.792   4.119
14528TIP3    H143527   0.598   4.851   4.160
14528TIP3    H243528   0.635   4.704   4.148
14529TIP3   OH243529   5.308   0.607   4.678
14529TIP3    H143530   5.276   0.517   4.674
14529TIP3    H243531   5.345   0.624   4.592
14530TIP3   OH243532   2.118   5.513   5.668
14530TIP3    H143533   2.040   5.563   5.691
14530TIP3    H243534   2.153   5.483   5.752
14531TIP3   OH243535   7.056   4.877   4.851
14531TIP3    H143536   7.097   4.949   4.805
14531TIP3    H243537   6.993   4.919   4.910
14532TIP3   OH243538   1.542   7.251   5.262
14532TIP3    H143539   1.605   7.211   5.203
14532TIP3    H243540   1.541   7.193   5.339
14533TIP3   OH243541   3.649   5.586   4.131
14533TIP3    H143542   3.562   5.581   4.169
14533TIP3    H243543   3.634   5.600   4.037
14534TIP3   OH243544   3.637   1.538   1.274
14534TIP3    H143545   3.561   1.594   1.287
14534TIP3    H243546   3.606   1.468   1.216
14535TIP3   OH243547   5.175   6.759   3.653
14535TIP3    H143548   5.164   6.735   3.745
14535TIP3    H243549   5.238   6.697   3.619
14536TIP3   OH243550   8.220   1.453   5.636
14536TIP3    H143551   8.273   1.526   5.604
14536TIP3    H243552   8.246   1.442   5.727
14537TIP3   OH243553   1.904   0.809   2.780
14537TIP3    H143554   1.858   0.763   2.710
14537TIP3    H243555   1.877   0.900   2.771
14538TIP3   OH243556   4.204   6.591   0.842
14538TIP3    H143557   4.294   6.615   0.820
14538TIP3    H243558   4.200   6.598   0.937
14539TIP3   OH243559   2.689   2.516   0.854
14539TIP3    H143560   2.760   2.549   0.799
14539TIP3    H243561   2.727   2.443   0.902
14540TIP3   OH243562   5.417   3.135   1.961
14540TIP3    H143563   5.378   3.106   1.878
14540TIP3    H243564   5.360   3.097   2.028
14541TIP3   OH243565   0.702   1.720   4.560
14541TIP3    H143566   0.775   1.690   4.616
14541TIP3    H243567   0.633   1.656   4.575
14542TIP3   OH243568   4.175   1.983   3.216
14542TIP3    H143569   4.112   1.968   3.287
14542TIP3    H243570   4.133   1.944   3.139
14543TIP3   OH243571   3.021   7.184   4.657
14543TIP3    H143572   3.098   7.172   4.713
14543TIP3    H243573   2.970   7.252   4.702
14544TIP3   OH243574   5.358   6.637   4.861
14544TIP3    H143575   5.352   6.632   4.765
14544TIP3    H243576   5.280   6.592   4.893
14545TIP3   OH243577   1.801   2.974   5.731
14545TIP3    H143578   1.832   3.049   5.679
14545TIP3    H243579   1.800   2.901   5.669
14546TIP3   OH243580   2.554   3.397   5.168
14546TIP3    H143581   2.629   3.361   5.216
14546TIP3    H243582   2.545   3.486   5.201
14547TIP3   OH243583   6.775   0.662   1.340
14547TIP3    H143584   6.811   0.586   1.384
14547TIP3    H243585   6.851   0.715   1.316
14548TIP3   OH243586   2.174   6.323   3.368
14548TIP3    H143587   2.174   6.369   3.284
14548TIP3    H243588   2.257   6.275   3.369
14549TIP3   OH243589   6.261   5.947   4.650
14549TIP3    H143590   6.201   5.895   4.704
14549TIP3    H243591   6.227   5.936   4.560
14550TIP3   OH243592   4.488   7.300   2.956
14550TIP3    H143593   4.454   7.315   3.044
14550TIP3    H243594   4.584   7.303   2.967
14551TIP3   OH243595   5.017   2.651   5.830
14551TIP3    H143596   5.094   2.668   5.775
14551TIP3    H243597   4.943   2.661   5.771
14552TIP3   OH243598   3.814   4.323   3.146
14552TIP3    H143599   3.767   4.291   3.069
14552TIP3    H243600   3.746   4.368   3.197
14553TIP3   OH243601   1.147   3.317   0.658
14553TIP3    H143602   1.169   3.344   0.569
14553TIP3    H243603   1.052   3.307   0.657
14554TIP3   OH243604   5.879   4.966   0.314
14554TIP3    H143605   5.838   4.939   0.231
14554TIP3    H243606   5.878   5.062   0.311
14555TIP3   OH243607   7.400   4.064   0.717
14555TIP3    H143608   7.382   4.067   0.811
14555TIP3    H243609   7.417   3.972   0.699
14556TIP3   OH243610   5.335   2.335   4.715
14556TIP3    H143611   5.314   2.364   4.626
14556TIP3    H243612   5.253   2.296   4.747
14557TIP3   OH243613   0.403   3.244   3.950
14557TIP3    H143614   0.318   3.274   3.919
14557TIP3    H243615   0.443   3.203   3.873
14558TIP3   OH243616   1.112   6.220   2.519
14558TIP3    H143617   1.115   6.197   2.612
14558TIP3    H243618   1.108   6.316   2.517
14559TIP3   OH243619   3.534   2.367   1.620
14559TIP3    H143620   3.468   2.307   1.656
14559TIP3    H243621   3.495   2.454   1.631
14560TIP3   OH243622   6.453   0.124   6.184
14560TIP3    H143623   6.479   0.157   6.098
14560TIP3    H243624   6.409   0.198   6.226
14561TIP3   OH243625   4.109   7.647   4.911
14561TIP3    H143626   4.030   7.701   4.919
14561TIP3    H243627   4.121   7.638   4.816
14562TIP3   OH243628   3.478   5.714   1.420
14562TIP3    H143629   3.489   5.673   1.334
14562TIP3    H243630   3.554   5.686   1.470
14563TIP3   OH243631   2.395   2.888   1.063
14563TIP3    H143632   2.315   2.838   1.044
14563TIP3    H243633   2.466   2.833   1.031
14564TIP3   OH243634   1.188   3.891   1.142
14564TIP3    H143635   1.135   3.823   1.102
14564TIP3    H243636   1.173   3.969   1.088
14565TIP3   OH243637   2.386   0.351   5.160
14565TIP3    H143638   2.423   0.437   5.141
14565TIP3    H243639   2.299   0.370   5.195
14566TIP3   OH243640   5.656   7.455   0.762
14566TIP3    H143641   5.567   7.449   0.797
14566TIP3    H243642   5.712   7.445   0.838
14567TIP3   OH243643   6.905   3.670   4.708
14567TIP3    H143644   6.851   3.633   4.778
14567TIP3    H243645   6.936   3.593   4.659
14568TIP3   OH243646   3.991   3.470   3.397
14568TIP3    H143647   4.031   3.556   3.381
14568TIP3    H243648   3.980   3.466   3.491
14569TIP3   OH243649   3.808   6.163   0.893
14569TIP3    H143650   3.874   6.128   0.834
14569TIP3    H243651   3.733   6.105   0.882
14570TIP3   OH243652   8.184   6.428   5.948
14570TIP3    H143653   8.128   6.493   5.905
14570TIP3    H243654   8.186   6.354   5.887
14571TIP3   OH243655   6.225   4.313   6.453
14571TIP3    H143656   6.320   4.303   6.449
14571TIP3    H243657   6.193   4.260   6.379
14572TIP3   OH243658   3.976   3.244   6.527
14572TIP3    H143659   4.019   3.183   6.466
14572TIP3    H243660   3.938   3.188   6.594
14573TIP3   OH243661   4.136   1.815   2.358
14573TIP3    H143662   4.135   1.806   2.263
14573TIP3    H243663   4.079   1.889   2.376
14574TIP3   OH243664   1.257   3.713   5.665
14574TIP3    H143665   1.309   3.781   5.708
14574TIP3    H243666   1.226   3.754   5.584
14575TIP3   OH243667   5.836   6.537   6.359
14575TIP3    H143668   5.826   6.497   6.446
14575TIP3    H243669   5.747   6.541   6.324
14576TIP3   OH243670   4.181   3.396   6.633
14576TIP3    H143671   4.131   3.397   6.714
14576TIP3    H243672   4.123   3.354   6.570
14577TIP3   OH243673   1.274   3.804   0.239
14577TIP3    H143674   1.354   3.851   0.218
14577TIP3    H243675   1.204   3.865   0.216
14578TIP3   OH243676   7.729   6.023   6.681
14578TIP3    H143677   7.650   6.000   6.730
14578TIP3    H243678   7.794   5.958   6.710
14579TIP3   OH243679   0.471   4.698   6.391
14579TIP3    H143680   0.417   4.661   6.461
14579TIP3    H243681   0.448   4.647   6.314
14580TIP3   OH243682   4.886   4.791   1.985
14580TIP3    H143683   4.800   4.763   1.955
14580TIP3    H243684   4.907   4.733   2.058
14581TIP3   OH243685   0.895   1.152   4.037
14581TIP3    H143686   0.856   1.205   3.967
14581TIP3    H243687   0.821   1.129   4.093
14582TIP3   OH243688   6.155   7.532   5.405
14582TIP3    H143689   6.068   7.533   5.445
14582TIP3    H243690   6.211   7.491   5.471
14583TIP3   OH243691   3.416   3.604   4.639
14583TIP3    H143692   3.391   3.680   4.586
14583TIP3    H243693   3.463   3.546   4.578
14584TIP3   OH243694   7.109   3.382   5.420
14584TIP3    H143695   7.147   3.457   5.466
14584TIP3    H243696   7.043   3.348   5.481
14585TIP3   OH243697   6.374   2.045   5.926
14585TIP3    H143698   6.338   2.068   5.841
14585TIP3    H243699   6.448   2.104   5.938
14586TIP3   OH243700   2.374   3.973   5.759
14586TIP3    H143701   2.302   3.972   5.822
14586TIP3    H243702   2.453   3.984   5.812
14587TIP3   OH243703   1.054   0.314   3.698
14587TIP3    H143704   1.061   0.351   3.609
14587TIP3    H243705   1.120   0.245   3.700
14588TIP3   OH243706   1.262   0.171   1.631
14588TIP3    H143707   1.185   0.116   1.615
14588TIP3    H243708   1.318   0.118   1.687
14589TIP3   OH243709   1.638   4.564   3.888
14589TIP3    H143710   1.678   4.487   3.929
14589TIP3    H243711   1.568   4.589   3.949
14590TIP3   OH243712   4.260   0.329   1.687
14590TIP3    H143713   4.271   0.329   1.782
14590TIP3    H243714   4.342   0.294   1.653
14591TIP3   OH243715   3.376   7.412   1.434
14591TIP3    H143716   3.309   7.400   1.366
14591TIP3    H243717   3.459   7.404   1.388
14592TIP3   OH243718   7.079   2.701   5.247
14592TIP3    H143719   7.088   2.795   5.261
14592TIP3    H243720   7.069   2.692   5.152
14593TIP3   OH243721   0.989   7.540   5.868
14593TIP3    H143722   0.959   7.465   5.920
14593TIP3    H243723   1.016   7.501   5.784
14594TIP3   OH243724   5.930   6.500   3.109
14594TIP3    H143725   5.986   6.550   3.168
14594TIP3    H243726   5.906   6.422   3.159
14595TIP3   OH243727   6.161   7.767   5.688
14595TIP3    H143728   6.163   7.852   5.643
14595TIP3    H243729   6.219   7.779   5.764
14596TIP3   OH243730   5.819   0.571   2.342
14596TIP3    H143731   5.764   0.641   2.378
14596TIP3    H243732   5.758   0.503   2.315
14597TIP3   OH243733   4.973   6.162   6.632
14597TIP3    H143734   5.008   6.082   6.592
14597TIP3    H243735   4.993   6.152   6.725
14598TIP3   OH243736   6.683   1.317   6.395
14598TIP3    H143737   6.692   1.222   6.401
14598TIP3    H243738   6.627   1.331   6.318
14599TIP3   OH243739   0.362   6.646   0.666
14599TIP3    H143740   0.397   6.732   0.690
14599TIP3    H243741   0.378   6.639   0.572
14600TIP3   OH243742   3.134   7.129   4.176
14600TIP3    H143743   3.089   7.199   4.224
14600TIP3    H243744   3.121   7.051   4.231
14601TIP3   OH243745   2.216   7.075   2.610
14601TIP3    H143746   2.310   7.068   2.625
14601TIP3    H243747   2.205   7.054   2.518
14602TIP3   OH243748   2.054   6.057   5.969
14602TIP3    H143749   2.124   6.027   6.027
14602TIP3    H243750   2.061   6.153   5.971
14603TIP3   OH243751   1.982   1.485   6.511
14603TIP3    H143752   1.899   1.504   6.467
14603TIP3    H243753   1.979   1.538   6.591
14604TIP3   OH243754   0.416   3.817   6.675
14604TIP3    H143755   0.431   3.727   6.705
14604TIP3    H243756   0.456   3.820   6.588
14605TIP3   OH243757   6.187   5.991   5.211
14605TIP3    H143758   6.225   5.950   5.289
14605TIP3    H243759   6.110   6.037   5.244
14606TIP3   OH243760   7.781   6.211   0.472
14606TIP3    H143761   7.833   6.173   0.542
14606TIP3    H243762   7.774   6.141   0.407
14607TIP3   OH243763   2.643   7.758   4.430
14607TIP3    H143764   2.701   7.706   4.373
14607TIP3    H243765   2.644   7.845   4.391
14608TIP3   OH243766   3.797   1.795   4.206
14608TIP3    H143767   3.821   1.753   4.123
14608TIP3    H243768   3.722   1.746   4.238
14609TIP3   OH243769   5.328   2.248   1.106
14609TIP3    H143770   5.331   2.334   1.063
14609TIP3    H243771   5.238   2.219   1.095
14610TIP3   OH243772   1.969   3.514   1.655
14610TIP3    H143773   2.053   3.467   1.657
14610TIP3    H243774   1.981   3.588   1.713
14611TIP3   OH243775   0.125   0.553   0.407
14611TIP3    H143776   0.063   0.617   0.371
14611TIP3    H243777   0.073   0.503   0.471
14612TIP3   OH243778   0.859   3.197   0.620
14612TIP3    H143779   0.791   3.175   0.685
14612TIP3    H243780   0.814   3.188   0.535
14613TIP3   OH243781   7.696   0.193   4.587
14613TIP3    H143782   7.649   0.274   4.609
14613TIP3    H243783   7.681   0.182   4.493
14614TIP3   OH243784   0.047   3.563   1.592
14614TIP3    H143785   0.029   3.640   1.538
14614TIP3    H243786   0.031   3.488   1.534
14615TIP3   OH243787   3.036   4.695   4.274
14615TIP3    H143788   2.991   4.656   4.199
14615TIP3    H243789   2.986   4.775   4.293
14616TIP3   OH243790   5.636   6.546   3.184
14616TIP3    H143791   5.724   6.509   3.191
14616TIP3    H243792   5.620   6.586   3.269
14617TIP3   OH243793   7.814   2.991   2.361
14617TIP3    H143794   7.763   2.984   2.280
14617TIP3    H243795   7.898   2.950   2.340
14618TIP3   OH243796   0.565   7.302   0.397
14618TIP3    H143797   0.612   7.378   0.430
14618TIP3    H243798   0.530   7.259   0.475
14619TIP3   OH243799   2.945   2.364   2.660
14619TIP3    H143800   3.004   2.416   2.715
14619TIP3    H243801   2.981   2.276   2.662
14620TIP3   OH243802   0.848   1.084   2.567
14620TIP3    H143803   0.847   0.991   2.590
14620TIP3    H243804   0.911   1.123   2.628
14621TIP3   OH243805   1.492   2.446   5.254
14621TIP3    H143806   1.550   2.521   5.262
14621TIP3    H243807   1.414   2.481   5.210
14622TIP3   OH243808   7.193   5.259   5.234
14622TIP3    H143809   7.122   5.300   5.284
14622TIP3    H243810   7.186   5.166   5.254
14623TIP3   OH243811   4.499   2.081   4.946
14623TIP3    H143812   4.525   1.989   4.951
14623TIP3    H243813   4.404   2.079   4.957
14624TIP3   OH243814   2.968   6.365   6.752
14624TIP3    H143815   3.052   6.356   6.707
14624TIP3    H243816   2.925   6.281   6.739
14625TIP3   OH243817   8.284   4.134   1.992
14625TIP3    H143818   8.256   4.096   1.909
14625TIP3    H243819   8.213   4.193   2.018
14626TIP3   OH243820   5.710   7.579   4.770
14626TIP3    H143821   5.728   7.642   4.840
14626TIP3    H243822   5.735   7.625   4.690
14627TIP3   OH243823   0.883   5.930   4.096
14627TIP3    H143824   0.880   5.854   4.038
14627TIP3    H243825   0.855   6.003   4.041
14628TIP3   OH243826   3.557   3.318   1.860
14628TIP3    H143827   3.515   3.398   1.828
14628TIP3    H243828   3.489   3.250   1.850
14629TIP3   OH243829   4.747   6.728   0.530
14629TIP3    H143830   4.717   6.819   0.527
14629TIP3    H243831   4.724   6.698   0.618
14630TIP3   OH243832   6.057   1.783   6.150
14630TIP3    H143833   5.980   1.838   6.164
14630TIP3    H243834   6.129   1.845   6.137
14631TIP3   OH243835   5.888   6.800   0.599
14631TIP3    H143836   5.924   6.756   0.676
14631TIP3    H243837   5.949   6.873   0.583
14632TIP3   OH243838   1.422   6.592   2.386
14632TIP3    H143839   1.480   6.666   2.403
14632TIP3    H243840   1.363   6.622   2.317
14633TIP3   OH243841   8.243   5.677   6.039
14633TIP3    H143842   8.320   5.689   6.095
14633TIP3    H243843   8.251   5.746   5.973
14634TIP3   OH243844   1.085   3.361   2.843
14634TIP3    H143845   1.026   3.390   2.773
14634TIP3    H243846   1.134   3.289   2.803
14635TIP3   OH243847   3.664   2.846   3.134
14635TIP3    H143848   3.651   2.797   3.215
14635TIP3    H243849   3.577   2.874   3.108
14636TIP3   OH243850   7.380   3.111   6.291
14636TIP3    H143851   7.303   3.063   6.260
14636TIP3    H243852   7.387   3.186   6.233
14637TIP3   OH243853   1.324   3.342   4.290
14637TIP3    H143854   1.368   3.291   4.358
14637TIP3    H243855   1.282   3.277   4.234
14638TIP3   OH243856   4.219   4.836   2.964
14638TIP3    H143857   4.255   4.842   3.052
14638TIP3    H243858   4.286   4.788   2.914
14639TIP3   OH243859  -0.025   4.376   2.879
14639TIP3    H143860   0.034   4.301   2.884
14639TIP3    H243861  -0.026   4.399   2.786
14640TIP3   OH243862   5.190   3.896   4.062
14640TIP3    H143863   5.180   3.873   3.970
14640TIP3    H243864   5.202   3.813   4.107
14641TIP3   OH243865   0.691   7.176   2.344
14641TIP3    H143866   0.617   7.165   2.404
14641TIP3    H243867   0.681   7.266   2.311
14642TIP3   OH243868   1.518   2.606   0.324
14642TIP3    H143869   1.516   2.573   0.414
14642TIP3    H243870   1.610   2.605   0.300
14643TIP3   OH243871   7.782   7.593   0.397
14643TIP3    H143872   7.761   7.533   0.468
14643TIP3    H243873   7.698   7.626   0.367
14644TIP3   OH243874   3.922   3.376   0.904
14644TIP3    H143875   3.882   3.453   0.864
14644TIP3    H243876   3.882   3.370   0.991
14645TIP3   OH243877   1.423   5.627   6.352
14645TIP3    H143878   1.472   5.704   6.324
14645TIP3    H243879   1.490   5.560   6.369
14646TIP3   OH243880   4.777   3.158   3.178
14646TIP3    H143881   4.710   3.092   3.164
14646TIP3    H243882   4.844   3.140   3.112
14647TIP3   OH243883   4.326   1.758   6.124
14647TIP3    H143884   4.301   1.850   6.138
14647TIP3    H243885   4.396   1.762   6.059
14648TIP3   OH243886   7.247   2.158   2.663
14648TIP3    H143887   7.243   2.123   2.752
14648TIP3    H243888   7.327   2.120   2.626
14649TIP3   OH243889   4.974   4.169   0.487
14649TIP3    H143890   5.039   4.179   0.417
14649TIP3    H243891   4.998   4.235   0.552
14650TIP3   OH243892   4.199   0.142   6.097
14650TIP3    H143893   4.219   0.101   6.182
14650TIP3    H243894   4.275   0.122   6.043
14651TIP3   OH243895   4.652   3.795   3.278
14651TIP3    H143896   4.563   3.792   3.244
14651TIP3    H243897   4.643   3.824   3.369
14652TIP3   OH243898   5.754   3.502   2.634
14652TIP3    H143899   5.663   3.517   2.661
14652TIP3    H243900   5.806   3.523   2.711
14653TIP3   OH243901   4.678   1.087   5.831
14653TIP3    H143902   4.678   0.997   5.798
14653TIP3    H243903   4.752   1.128   5.786
14654TIP3   OH243904   6.940   2.737   5.521
14654TIP3    H143905   7.031   2.768   5.517
14654TIP3    H243906   6.934   2.673   5.451
14655TIP3   OH243907   5.332   0.937   0.992
14655TIP3    H143908   5.241   0.965   0.991
14655TIP3    H243909   5.371   0.981   0.916
14656TIP3   OH243910   3.726   1.035   1.536
14656TIP3    H143911   3.647   1.048   1.589
14656TIP3    H243912   3.713   0.951   1.492
14657TIP3   OH243913   1.763   0.088   4.333
14657TIP3    H143914   1.822   0.122   4.399
14657TIP3    H243915   1.682   0.139   4.345
14658TIP3   OH243916   6.447   4.657   5.956
14658TIP3    H143917   6.395   4.642   6.035
14658TIP3    H243918   6.533   4.620   5.977
14659TIP3   OH243919   2.595   5.693   2.956
14659TIP3    H143920   2.690   5.706   2.959
14659TIP3    H243921   2.559   5.778   2.980
14660TIP3   OH243922   6.094   2.383   0.008
14660TIP3    H143923   6.041   2.338   0.075
14660TIP3    H243924   6.117   2.467   0.049
14661TIP3   OH243925   0.488   1.520   2.852
14661TIP3    H143926   0.557   1.586   2.850
14661TIP3    H243927   0.519   1.450   2.794
14662TIP3   OH243928   3.739   4.972   1.658
14662TIP3    H143929   3.821   4.932   1.630
14662TIP3    H243930   3.672   4.934   1.601
14663TIP3   OH243931   0.313   5.112   0.114
14663TIP3    H143932   0.344   5.061   0.039
14663TIP3    H243933   0.235   5.065   0.145
14664TIP3   OH243934   5.562   4.483   5.507
14664TIP3    H143935   5.522   4.414   5.560
14664TIP3    H243936   5.601   4.436   5.433
14665TIP3   OH243937   6.823   7.368   1.127
14665TIP3    H143938   6.827   7.361   1.032
14665TIP3    H243939   6.762   7.440   1.144
14666TIP3   OH243940  -0.039   4.374   2.554
14666TIP3    H143941  -0.060   4.445   2.615
14666TIP3    H243942  -0.079   4.401   2.472
14667TIP3   OH243943   3.666   7.700   6.353
14667TIP3    H143944   3.615   7.772   6.314
14667TIP3    H243945   3.730   7.744   6.409
14668TIP3   OH243946   1.458   6.478   3.478
14668TIP3    H143947   1.384   6.418   3.474
14668TIP3    H243948   1.474   6.491   3.571
14669TIP3   OH243949   5.555   7.188   5.103
14669TIP3    H143950   5.631   7.145   5.143
14669TIP3    H243951   5.524   7.249   5.170
14670TIP3   OH243952   4.840   1.744   3.937
14670TIP3    H143953   4.825   1.838   3.927
14670TIP3    H243954   4.808   1.706   3.856
14671TIP3   OH243955   2.845   2.729   0.323
14671TIP3    H143956   2.908   2.725   0.251
14671TIP3    H243957   2.896   2.760   0.397
14672TIP3   OH243958   4.218   2.049   4.866
14672TIP3    H143959   4.152   1.990   4.830
14672TIP3    H243960   4.282   2.058   4.796
14673TIP3   OH243961   8.029   7.039   6.148
14673TIP3    H143962   8.099   7.101   6.169
14673TIP3    H243963   7.996   7.012   6.233
14674TIP3   OH243964   5.480   5.151   2.756
14674TIP3    H143965   5.488   5.221   2.821
14674TIP3    H243966   5.514   5.189   2.675
14675TIP3   OH243967   4.413   4.411   3.540
14675TIP3    H143968   4.476   4.370   3.600
14675TIP3    H243969   4.336   4.429   3.593
14676TIP3   OH243970   7.082   0.368   0.253
14676TIP3    H143971   7.092   0.280   0.216
14676TIP3    H243972   7.073   0.354   0.347
14677TIP3   OH243973   7.174   3.369   5.069
14677TIP3    H143974   7.138   3.293   5.114
14677TIP3    H243975   7.112   3.440   5.089
14678TIP3   OH243976   7.884   2.581   6.421
14678TIP3    H143977   7.872   2.504   6.476
14678TIP3    H243978   7.827   2.566   6.345
14679TIP3   OH243979   5.677   2.515   5.737
14679TIP3    H143980   5.713   2.428   5.754
14679TIP3    H243981   5.746   2.576   5.763
14680TIP3   OH243982   0.308   0.813   0.370
14680TIP3    H143983   0.333   0.722   0.353
14680TIP3    H243984   0.257   0.838   0.293
14681TIP3   OH243985   1.414   5.019   0.003
14681TIP3    H143986   1.444   5.109   0.011
14681TIP3    H243987   1.472   4.969   0.060
14682TIP3   OH243988   4.417   6.940   3.785
14682TIP3    H143989   4.395   7.033   3.786
14682TIP3    H243990   4.511   6.937   3.764
14683TIP3   OH243991   7.221   6.829   5.471
14683TIP3    H143992   7.257   6.907   5.513
14683TIP3    H243993   7.293   6.794   5.419
14684TIP3   OH243994   6.548   7.117   0.116
14684TIP3    H143995   6.552   7.068   0.033
14684TIP3    H243996   6.489   7.066   0.171
14685TIP3   OH243997   3.413   3.437   5.169
14685TIP3    H143998   3.319   3.429   5.184
14685TIP3    H243999   3.431   3.531   5.177
14686TIP3   OH244000   7.523   3.667   1.906
14686TIP3    H144001   7.550   3.593   1.960
14686TIP3    H244002   7.459   3.714   1.959
14687TIP3   OH244003   0.959   5.505   0.884
14687TIP3    H144004   0.919   5.507   0.797
14687TIP3    H244005   1.046   5.543   0.871
14688TIP3   OH244006   7.951   1.299   5.975
14688TIP3    H144007   8.001   1.218   5.992
14688TIP3    H244008   7.921   1.327   6.061
14689TIP3   OH244009   0.647   2.616   2.128
14689TIP3    H144010   0.575   2.600   2.189
14689TIP3    H244011   0.610   2.677   2.064
14690TIP3   OH244012   0.672   6.022   2.205
14690TIP3    H144013   0.744   6.016   2.268
14690TIP3    H244014   0.609   5.956   2.234
14691TIP3   OH244015   2.467   2.900   3.280
14691TIP3    H144016   2.432   2.989   3.275
14691TIP3    H244017   2.562   2.912   3.291
14692TIP3   OH244018   1.667   4.513   6.129
14692TIP3    H144019   1.756   4.489   6.156
14692TIP3    H244020   1.613   4.439   6.155
14693TIP3   OH244021   4.875   7.428   6.194
14693TIP3    H144022   4.877   7.419   6.099
14693TIP3    H244023   4.783   7.412   6.217
14694TIP3   OH244024   6.698   1.466   1.063
14694TIP3    H144025   6.630   1.440   1.125
14694TIP3    H244026   6.693   1.401   0.993
14695TIP3   OH244027   5.778   0.069   0.572
14695TIP3    H144028   5.773   0.044   0.664
14695TIP3    H244029   5.870   0.096   0.560
14696TIP3   OH244030   5.051   7.624   2.135
14696TIP3    H144031   5.012   7.538   2.124
14696TIP3    H244032   4.984   7.685   2.106
14697TIP3   OH244033   1.279   5.207   6.497
14697TIP3    H144034   1.271   5.133   6.557
14697TIP3    H244035   1.189   5.230   6.475
14698TIP3   OH244036   1.386   3.494   6.217
14698TIP3    H144037   1.384   3.562   6.149
14698TIP3    H244038   1.349   3.536   6.294
14699TIP3   OH244039   2.338   6.000   3.681
14699TIP3    H144040   2.266   6.001   3.744
14699TIP3    H244041   2.388   6.079   3.700
14700TIP3   OH244042   1.456   6.933   1.087
14700TIP3    H144043   1.512   6.986   1.029
14700TIP3    H244044   1.372   6.928   1.042
14701TIP3   OH244045   0.105   5.501   4.045
14701TIP3    H144046   0.157   5.421   4.037
14701TIP3    H244047   0.037   5.492   3.978
14702TIP3   OH244048   1.347   7.156   6.332
14702TIP3    H144049   1.268   7.191   6.373
14702TIP3    H244050   1.352   7.065   6.360
14703TIP3   OH244051   2.768   5.548   0.165
14703TIP3    H144052   2.719   5.602   0.227
14703TIP3    H244053   2.732   5.572   0.079
14704TIP3   OH244054   3.352   1.580   3.707
14704TIP3    H144055   3.369   1.639   3.633
14704TIP3    H244056   3.285   1.625   3.758
14705TIP3   OH244057   4.188   6.865   3.502
14705TIP3    H144058   4.137   6.878   3.583
14705TIP3    H244059   4.274   6.835   3.532
14706TIP3   OH244060   3.700   0.390   0.193
14706TIP3    H144061   3.777   0.389   0.249
14706TIP3    H244062   3.633   0.343   0.242
14707TIP3   OH244063   2.613   2.837   2.619
14707TIP3    H144064   2.621   2.890   2.698
14707TIP3    H244065   2.669   2.761   2.634
14708TIP3   OH244066   6.550   2.356   3.085
14708TIP3    H144067   6.638   2.372   3.052
14708TIP3    H244068   6.496   2.349   3.006
14709TIP3   OH244069   5.406   3.904   1.569
14709TIP3    H144070   5.381   3.815   1.592
14709TIP3    H244071   5.417   3.902   1.473
14710TIP3   OH244072   7.236   5.102   3.809
14710TIP3    H144073   7.179   5.148   3.748
14710TIP3    H244074   7.253   5.165   3.879
14711TIP3   OH244075   4.712   1.935   4.716
14711TIP3    H144076   4.798   1.972   4.697
14711TIP3    H244077   4.707   1.857   4.661
14712TIP3   OH244078   1.444   0.910   0.082
14712TIP3    H144079   1.433   0.876   0.171
14712TIP3    H244080   1.469   0.834   0.030
14713TIP3   OH244081   1.156   0.517   1.087
14713TIP3    H144082   1.132   0.596   1.136
14713TIP3    H244083   1.167   0.449   1.153
14714TIP3   OH244084   1.810   3.073   4.312
14714TIP3    H144085   1.780   3.158   4.281
14714TIP3    H244086   1.861   3.037   4.240
14715TIP3   OH244087   8.093   0.849   5.394
14715TIP3    H144088   8.107   0.828   5.301
14715TIP3    H244089   8.015   0.904   5.394
14716TIP3   OH244090   4.273   5.897   3.897
14716TIP3    H144091   4.298   5.837   3.827
14716TIP3    H244092   4.186   5.928   3.872
14717TIP3   OH244093   5.025   1.528   4.586
14717TIP3    H144094   5.034   1.618   4.617
14717TIP3    H244095   4.998   1.479   4.664
14718TIP3   OH244096   3.140   7.037   1.523
14718TIP3    H144097   3.138   7.109   1.587
14718TIP3    H244098   3.172   6.962   1.573
14719TIP3   OH244099   4.937   1.321   2.982
14719TIP3    H144100   5.030   1.332   2.999
14719TIP3    H244101   4.899   1.408   2.992
14720TIP3   OH244102   7.846   1.490   6.716
14720TIP3    H144103   7.773   1.441   6.678
14720TIP3    H244104   7.805   1.554   6.774
14721TIP3   OH244105   0.172   7.578   1.346
14721TIP3    H144106   0.218   7.584   1.430
14721TIP3    H244107   0.105   7.512   1.360
14722TIP3   OH244108   6.190   3.131   1.033
14722TIP3    H144109   6.261   3.194   1.041
14722TIP3    H244110   6.233   3.045   1.038
14723TIP3   OH244111   4.284   3.033   2.360
14723TIP3    H144112   4.350   3.016   2.292
14723TIP3    H244113   4.213   3.077   2.314
14724TIP3   OH244114   3.613   2.087   1.499
14724TIP3    H144115   3.609   2.023   1.429
14724TIP3    H244116   3.529   2.133   1.495
14725TIP3   OH244117   7.544   6.717   4.196
14725TIP3    H144118   7.567   6.626   4.216
14725TIP3    H244119   7.543   6.721   4.101
14726TIP3   OH244120   3.055   4.732   5.570
14726TIP3    H144121   3.054   4.662   5.504
14726TIP3    H244122   3.094   4.806   5.526
14727TIP3   OH244123   7.985   1.593   0.761
14727TIP3    H144124   8.041   1.588   0.839
14727TIP3    H244125   7.963   1.686   0.754
14728TIP3   OH244126   3.924   1.278   4.874
14728TIP3    H144127   3.864   1.205   4.857
14728TIP3    H244128   3.902   1.307   4.962
14729TIP3   OH244129   4.241   0.687   1.515
14729TIP3    H144130   4.237   0.775   1.478
14729TIP3    H244131   4.323   0.650   1.482
14730TIP3   OH244132   5.992   4.156   0.895
14730TIP3    H144133   6.063   4.220   0.884
14730TIP3    H244134   5.922   4.206   0.938
14731TIP3   OH244135   2.042   5.268   5.030
14731TIP3    H144136   1.961   5.272   5.082
14731TIP3    H244137   2.112   5.282   5.093
14732TIP3   OH244138   3.147   7.761   4.674
14732TIP3    H144139   3.217   7.727   4.730
14732TIP3    H244140   3.083   7.798   4.735
14733TIP3   OH244141   5.198   0.117   0.072
14733TIP3    H144142   5.136   0.045   0.082
14733TIP3    H244143   5.148   0.195   0.095
14734TIP3   OH244144   1.791   3.983   1.812
14734TIP3    H144145   1.827   4.030   1.887
14734TIP3    H244146   1.721   3.929   1.849
14735TIP3   OH244147   4.881   5.634   1.849
14735TIP3    H144148   4.933   5.562   1.884
14735TIP3    H244149   4.791   5.615   1.877
14736TIP3   OH244150   4.365   6.271   5.100
14736TIP3    H144151   4.424   6.217   5.152
14736TIP3    H244152   4.283   6.222   5.098
14737TIP3   OH244153   1.495   6.743   3.420
14737TIP3    H144154   1.586   6.750   3.447
14737TIP3    H244155   1.471   6.653   3.439
14738TIP3   OH244156   1.278   2.584   5.161
14738TIP3    H144157   1.199   2.532   5.146
14738TIP3    H244158   1.271   2.612   5.252
14739TIP3   OH244159   4.383   3.625   2.654
14739TIP3    H144160   4.290   3.639   2.669
14739TIP3    H244161   4.405   3.548   2.707
14740TIP3   OH244162   5.179   2.299   6.637
14740TIP3    H144163   5.149   2.346   6.715
14740TIP3    H244164   5.156   2.208   6.654
14741TIP3   OH244165   7.482   4.907   6.030
14741TIP3    H144166   7.519   4.851   6.098
14741TIP3    H244167   7.554   4.965   6.005
14742TIP3   OH244168   1.985   3.307   2.003
14742TIP3    H144169   2.034   3.310   2.085
14742TIP3    H244170   2.050   3.326   1.935
14743TIP3   OH244171   3.402   3.130   1.369
14743TIP3    H144172   3.362   3.073   1.303
14743TIP3    H244173   3.496   3.112   1.362
14744TIP3   OH244174   6.569   4.439   0.668
14744TIP3    H144175   6.496   4.377   0.671
14744TIP3    H244176   6.552   4.499   0.741
14745TIP3   OH244177   1.453   0.094   1.840
14745TIP3    H144178   1.524   0.154   1.862
14745TIP3    H244179   1.489   0.007   1.859
14746TIP3   OH244180   2.208   6.108   0.300
14746TIP3    H144181   2.131   6.098   0.356
14746TIP3    H244182   2.236   6.019   0.282
14747TIP3   OH244183   4.397   6.943   1.961
14747TIP3    H144184   4.402   6.907   2.050
14747TIP3    H244185   4.476   6.909   1.917
14748TIP3   OH244186   1.167   5.048   2.958
14748TIP3    H144187   1.229   4.980   2.985
14748TIP3    H244188   1.189   5.124   3.012
14749TIP3   OH244189   6.535   2.015   0.997
14749TIP3    H144190   6.579   1.934   1.022
14749TIP3    H244191   6.540   2.016   0.902
14750TIP3   OH244192   2.392   7.040   6.247
14750TIP3    H144193   2.431   7.074   6.327
14750TIP3    H244194   2.435   7.090   6.177
14751TIP3   OH244195   6.478   3.238   1.960
14751TIP3    H144196   6.402   3.294   1.946
14751TIP3    H244197   6.451   3.179   2.031
14752TIP3   OH244198   6.711   7.340   2.359
14752TIP3    H144199   6.709   7.430   2.326
14752TIP3    H244200   6.639   7.296   2.314
14753TIP3   OH244201   6.488   6.548   0.409
14753TIP3    H144202   6.436   6.618   0.370
14753TIP3    H244203   6.579   6.578   0.403
14754TIP3   OH244204   0.567   7.741   1.503
14754TIP3    H144205   0.590   7.786   1.422
14754TIP3    H244206   0.565   7.648   1.479
14755TIP3   OH244207   4.087   7.453   0.640
14755TIP3    H144208   4.103   7.546   0.625
14755TIP3    H244209   4.061   7.420   0.554
14756TIP3   OH244210   6.703   4.899   5.496
14756TIP3    H144211   6.657   4.847   5.562
14756TIP3    H244212   6.634   4.926   5.435
14757TIP3   OH244213   1.275   2.641   0.208
14757TIP3    H144214   1.357   2.610   0.247
14757TIP3    H244215   1.217   2.655   0.283
14758TIP3   OH244216   4.767   5.270   1.028
14758TIP3    H144217   4.763   5.321   1.109
14758TIP3    H244218   4.700   5.309   0.971
14759TIP3   OH244219   0.845   0.866   2.776
14759TIP3    H144220   0.814   0.778   2.757
14759TIP3    H244221   0.869   0.863   2.869
14760TIP3   OH244222   5.808   2.182   0.957
14760TIP3    H144223   5.779   2.180   1.048
14760TIP3    H244224   5.744   2.237   0.912
14761TIP3   OH244225   0.779   3.578   2.442
14761TIP3    H144226   0.758   3.666   2.474
14761TIP3    H244227   0.798   3.590   2.349
14762TIP3   OH244228   7.092   2.046   5.898
14762TIP3    H144229   7.102   2.141   5.900
14762TIP3    H244230   7.030   2.027   5.968
14763TIP3   OH244231   3.289   0.144   0.157
14763TIP3    H144232   3.227   0.208   0.121
14763TIP3    H244233   3.259   0.060   0.123
14764TIP3   OH244234   0.641   5.706   3.857
14764TIP3    H144235   0.731   5.708   3.888
14764TIP3    H244236   0.605   5.624   3.890
14765TIP3   OH244237   5.651   1.215   4.888
14765TIP3    H144238   5.591   1.155   4.932
14765TIP3    H244239   5.696   1.161   4.823
14766TIP3   OH244240   3.564   7.500   1.785
14766TIP3    H144241   3.489   7.558   1.798
14766TIP3    H244242   3.527   7.424   1.739
14767TIP3   OH244243   1.118   0.690   6.591
14767TIP3    H144244   1.117   0.738   6.508
14767TIP3    H244245   1.096   0.601   6.567
14768TIP3   OH244246   0.658   1.830   4.905
14768TIP3    H144247   0.590   1.817   4.839
14768TIP3    H244248   0.615   1.808   4.988
14769TIP3   OH244249   5.174   3.433   4.094
14769TIP3    H144250   5.191   3.350   4.138
14769TIP3    H244251   5.194   3.415   4.002
14770TIP3   OH244252   3.290   6.199   1.960
14770TIP3    H144253   3.314   6.236   1.875
14770TIP3    H244254   3.245   6.271   2.005
14771TIP3   OH244255   7.037   6.678   1.295
14771TIP3    H144256   6.971   6.699   1.229
14771TIP3    H244257   6.989   6.633   1.364
14772TIP3   OH244258   5.495   5.071   4.622
14772TIP3    H144259   5.544   5.147   4.653
14772TIP3    H244260   5.551   5.031   4.556
14773TIP3   OH244261   5.467   1.905   2.929
14773TIP3    H144262   5.398   1.840   2.919
14773TIP3    H244263   5.452   1.968   2.859
14774TIP3   OH244264   5.725   1.123   1.989
14774TIP3    H144265   5.657   1.085   2.044
14774TIP3    H244266   5.758   1.197   2.041
14775TIP3   OH244267   3.496   6.281   4.320
14775TIP3    H144268   3.505   6.376   4.326
14775TIP3    H244269   3.445   6.267   4.240
14776TIP3   OH244270   2.595   5.108   6.547
14776TIP3    H144271   2.522   5.083   6.603
14776TIP3    H244272   2.567   5.084   6.459
14777TIP3   OH244273   8.007   5.132   3.189
14777TIP3    H144274   8.065   5.139   3.265
14777TIP3    H244275   7.942   5.067   3.214
14778TIP3   OH244276   2.157   7.426   4.590
14778TIP3    H144277   2.093   7.382   4.534
14778TIP3    H244278   2.238   7.376   4.578
14779TIP3   OH244279   3.882   6.949   2.393
14779TIP3    H144280   3.865   6.915   2.305
14779TIP3    H244281   3.974   6.925   2.410
14780TIP3   OH244282   1.781   3.277   1.677
14780TIP3    H144283   1.823   3.359   1.652
14780TIP3    H244284   1.781   3.278   1.772
14781TIP3   OH244285   3.662   4.448   4.648
14781TIP3    H144286   3.689   4.503   4.575
14781TIP3    H244287   3.570   4.428   4.631
14782TIP3   OH244288   5.659   6.885   2.676
14782TIP3    H144289   5.678   6.962   2.622
14782TIP3    H244290   5.706   6.902   2.758
14783TIP3   OH244291   0.859   2.721   3.391
14783TIP3    H144292   0.796   2.706   3.462
14783TIP3    H244293   0.889   2.633   3.367
14784TIP3   OH244294   0.302   7.648   1.572
14784TIP3    H144295   0.329   7.594   1.646
14784TIP3    H244296   0.373   7.711   1.560
14785TIP3   OH244297   4.702   2.521   5.966
14785TIP3    H144298   4.733   2.581   6.033
14785TIP3    H244299   4.629   2.566   5.923
14786TIP3   OH244300   3.982   6.896   6.081
14786TIP3    H144301   3.888   6.879   6.075
14786TIP3    H244302   4.023   6.821   6.039
14787TIP3   OH244303   3.644   4.839   3.483
14787TIP3    H144304   3.678   4.823   3.394
14787TIP3    H244305   3.698   4.911   3.515
14788TIP3   OH244306   7.324   6.772   1.300
14788TIP3    H144307   7.360   6.842   1.245
14788TIP3    H244308   7.233   6.798   1.314
14789TIP3   OH244309   5.412   3.393   2.064
14789TIP3    H144310   5.421   3.303   2.032
14789TIP3    H244311   5.499   3.415   2.097
14790TIP3   OH244312   3.143   0.500   6.075
14790TIP3    H144313   3.171   0.562   6.142
14790TIP3    H244314   3.150   0.414   6.117
14791TIP3   OH244315   0.862   5.726   3.104
14791TIP3    H144316   0.858   5.631   3.095
14791TIP3    H244317   0.789   5.758   3.050
14792TIP3   OH244318   4.176   3.687   5.102
14792TIP3    H144319   4.135   3.656   5.183
14792TIP3    H244320   4.267   3.656   5.108
14793TIP3   OH244321   7.133   5.339   2.732
14793TIP3    H144322   7.077   5.396   2.679
14793TIP3    H244323   7.114   5.251   2.700
14794TIP3   OH244324   2.809   7.221   0.484
14794TIP3    H144325   2.824   7.235   0.390
14794TIP3    H244326   2.721   7.258   0.499
14795TIP3   OH244327   6.168   5.322   5.187
14795TIP3    H144328   6.131   5.237   5.210
14795TIP3    H244329   6.208   5.353   5.268
14796TIP3   OH244330   1.970   1.757   0.628
14796TIP3    H144331   2.009   1.690   0.572
14796TIP3    H244332   1.883   1.772   0.591
14797TIP3   OH244333   3.207   0.999   1.011
14797TIP3    H144334   3.114   0.977   1.005
14797TIP3    H244335   3.252   0.917   0.991
14798TIP3   OH244336   5.848   0.955   3.248
14798TIP3    H144337   5.775   0.936   3.189
14798TIP3    H244338   5.813   1.019   3.310
14799TIP3   OH244339   7.897   3.087   1.801
14799TIP3    H144340   7.817   3.035   1.802
14799TIP3    H244341   7.921   3.097   1.894
14800TIP3   OH244342   2.443   3.970   0.235
14800TIP3    H144343   2.407   3.888   0.201
14800TIP3    H244344   2.369   4.030   0.237
14801TIP3   OH244345   3.820   0.107   0.448
14801TIP3    H144346   3.807   0.197   0.420
14801TIP3    H244347   3.800   0.107   0.542
14802TIP3   OH244348   2.958   6.670   2.696
14802TIP3    H144349   2.887   6.626   2.743
14802TIP3    H244350   3.034   6.613   2.709
14803TIP3   OH244351   4.035   1.800   4.414
14803TIP3    H144352   4.116   1.778   4.368
14803TIP3    H244353   3.966   1.785   4.350
14804TIP3   OH244354   7.300   1.163   0.311
14804TIP3    H144355   7.213   1.194   0.336
14804TIP3    H244356   7.356   1.187   0.385
14805TIP3   OH244357   6.837   3.189   3.157
14805TIP3    H144358   6.927   3.156   3.154
14805TIP3    H244359   6.794   3.148   3.082
14806TIP3   OH244360   4.959   3.705   6.012
14806TIP3    H144361   4.956   3.801   6.019
14806TIP3    H244362   5.000   3.689   5.927
14807TIP3   OH244363   0.123   1.731   4.719
14807TIP3    H144364   0.130   1.693   4.632
14807TIP3    H244365   0.214   1.741   4.748
14808TIP3   OH244366   6.550   3.322   1.576
14808TIP3    H144367   6.471   3.333   1.629
14808TIP3    H244368   6.621   3.351   1.633
14809TIP3   OH244369   7.569   6.472   3.961
14809TIP3    H144370   7.643   6.510   3.914
14809TIP3    H244371   7.556   6.387   3.920
14810TIP3   OH244372   1.580   2.255   1.841
14810TIP3    H144373   1.487   2.258   1.822
14810TIP3    H244374   1.608   2.167   1.816
14811TIP3   OH244375   4.092   2.857   5.487
14811TIP3    H144376   4.022   2.923   5.487
14811TIP3    H244377   4.089   2.819   5.399
14812TIP3   OH244378   7.172   2.058   1.450
14812TIP3    H144379   7.101   2.092   1.506
14812TIP3    H244380   7.142   1.971   1.425
14813TIP3   OH244381  -0.043   3.379   0.058
14813TIP3    H144382  -0.037   3.320   0.133
14813TIP3    H244383   0.044   3.377   0.019
14814TIP3   OH244384   5.873   0.557   4.672
14814TIP3    H144385   5.879   0.477   4.724
14814TIP3    H244386   5.863   0.526   4.582
14815TIP3   OH244387   4.986   1.332   1.459
14815TIP3    H144388   4.997   1.427   1.469
14815TIP3    H244389   4.969   1.301   1.548
   8.28701   7.81307   6.76631   0.00000   0.00000  -2.76234   0.00000  -2.76234  -3.90654
